Protein in INSANE! Membrane UpperLeaflet>POPC=1.0 LowerLeaflet>POPC=1.0
239272
    1AU     AUC    1  31.057  13.736   7.506
    1AU     AUC    2  31.319  13.743   7.346
    1AU     AUC    3  31.311  13.734   7.656
    1AU     AUC    4  30.807  13.732   7.342
    1AU     AUC    5  30.796  13.750   7.656
    1AU     AUC    6  30.901  13.990   7.500
    1AU     AUC    7  31.213  13.994   7.489
    1AU     AUC    8  30.909  13.476   7.518
    1AU     AUC    9  31.202  13.484   7.530
    1AU     AUC   10  31.053  13.589   7.768
    1AU     AUC   11  31.069  13.901   7.759
    1AU     AUC   12  31.061  13.571   7.251
    1AU     AUC   13  31.046  13.873   7.242
    1AU     AUC   14  31.568  13.738   7.186
    1AU     AUC   15  31.575  13.750   7.494
    1AU     AUC   16  31.570  13.742   7.802
    1AU     AUC   17  30.548  13.713   7.190
    1AU     AUC   18  30.539  13.741   7.496
    1AU     AUC   19  30.548  13.763   7.816
    1AU     AUC   20  30.754  14.254   7.501
    1AU     AUC   21  31.061  14.258   7.494
    1AU     AUC   22  31.353  14.258   7.488
    1AU     AUC   23  30.734  13.220   7.525
    1AU     AUC   24  31.049  13.214   7.515
    1AU     AUC   25  31.365  13.224   7.539
    1AU     AUC   26  31.039  13.441   8.022
    1AU     AUC   27  31.057  13.751   8.032
    1AU     AUC   28  31.072  14.059   8.018
    1AU     AUC   29  31.067  13.394   7.016
    1AU     AUC   30  31.069  13.710   6.983
    1AU     AUC   31  31.040  14.016   6.977
    1AU     AUC   32  31.325  13.597   7.931
    1AU     AUC   33  31.325  13.890   7.920
    1AU     AUC   34  31.334  13.567   7.092
    1AU     AUC   35  31.327  13.873   7.075
    1AU     AUC   36  30.789  13.604   7.932
    1AU     AUC   37  30.804  13.915   7.930
    1AU     AUC   38  30.815  13.563   7.077
    1AU     AUC   39  30.794  13.870   7.081
    1AU     AUC   40  31.466  14.008   7.321
    1AU     AUC   41  31.483  13.993   7.639
    1AU     AUC   42  30.632  13.983   7.351
    1AU     AUC   43  30.644  14.010   7.671
    1AU     AUC   44  31.476  13.477   7.361
    1AU     AUC   45  31.477  13.484   7.677
    1AU     AUC   46  30.639  13.474   7.346
    1AU     AUC   47  30.642  13.489   7.687
    1AU     AUC   48  30.903  14.156   7.770
    1AU     AUC   49  31.221  14.167   7.740
    1AU     AUC   50  30.887  13.314   7.765
    1AU     AUC   51  31.205  13.331   7.795
    1AU     AUC   52  30.887  14.141   7.237
    1AU     AUC   53  31.204  14.137   7.220
    1AU     AUC   54  30.894  13.318   7.251
    1AU     AUC   55  31.223  13.309   7.276
    1AU    AUSL   56  31.410  13.694   8.095
    1AU    AUSL   57  31.363  13.275   8.145
    1AU     AUL   58  31.599  13.354   8.408
    1AU       S   59  31.635  12.988   8.087
    1AU     LIG   60  31.546  12.785   8.450
    1AU     LIG   61  31.543  12.341   8.576
    1AU     LIG   62  31.764  11.974   8.778
    1AU     LIG   63  32.049  11.742   9.084
    1AU     LIG   64  32.111  11.487   9.486
    1AU     LIG   65  32.271  11.255   9.875
    1AU       S   66  31.460  13.723   8.666
    1AU     LIG   67  31.696  13.415   8.912
    1AU     LIG   68  31.942  13.236   9.284
    1AU     LIG   69  32.191  13.096   9.679
    1AU     LIG   70  32.604  13.151   9.934
    1AU     LIG   71  32.807  13.334  10.324
    1AU     LIG   72  33.103  13.207  10.673
    1AU    AUSL   73  31.134  13.548   8.361
    1AU    AUSL   74  30.987  13.931   8.281
    1AU     AUL   75  31.047  13.913   8.703
    1AU       S   76  31.207  13.550   8.507
    1AU     LIG   77  31.251  13.171   8.736
    1AU     LIG   78  31.470  13.010   9.149
    1AU     LIG   79  31.655  12.955   9.607
    1AU     LIG   80  31.853  12.887  10.043
    1AU     LIG   81  31.877  12.865  10.518
    1AU     LIG   82  31.880  12.713  10.973
    1AU       S   83  30.715  13.620   8.626
    1AU     LIG   84  30.599  13.547   9.093
    1AU     LIG   85  30.456  13.427   9.523
    1AU     LIG   86  30.302  13.451   9.962
    1AU     LIG   87  30.291  13.768  10.319
    1AU     LIG   88  30.263  14.075  10.677
    1AU     LIG   89  30.136  14.239  11.094
    1AU    AUSL   90  31.370  14.049   8.288
    1AU    AUSL   91  31.704  13.953   7.970
    1AU     AUL   92  31.700  13.781   8.290
    1AU       S   93  31.403  14.088   8.470
    1AU     LIG   94  31.726  14.220   8.802
    1AU     LIG   95  31.761  14.376   9.295
    1AU     LIG   96  31.662  14.485   9.788
    1AU     LIG   97  31.701  14.667  10.254
    1AU     LIG   98  31.709  14.807  10.720
    1AU     LIG   99  31.721  14.827  11.194
    1AU       S  100  31.963  14.014   7.998
    1AU     LIG  101  32.214  14.033   8.391
    1AU     LIG  102  32.353  14.277   8.767
    1AU     LIG  103  32.575  14.574   9.057
    1AU     LIG  104  32.907  14.680   9.391
    1AU     LIG  105  33.267  14.712   9.719
    1AU     LIG  106  33.692  14.833   9.913
    1AU    AUSL  107  31.598  13.768   6.873
    1AU    AUSL  108  31.351  14.150   6.821
    1AU     AUL  109  31.703  14.098   6.443
    1AU       S  110  31.652  13.787   6.732
    1AU     LIG  111  31.913  13.672   6.326
    1AU     LIG  112  31.917  13.466   5.920
    1AU     LIG  113  32.050  13.314   5.490
    1AU     LIG  114  32.347  13.207   5.125
    1AU     LIG  115  32.709  13.203   4.797
    1AU     LIG  116  33.065  13.222   4.482
    1AU       S  117  31.345  14.206   6.658
    1AU     LIG  118  31.652  14.586   6.570
    1AU     LIG  119  32.055  14.602   6.307
    1AU     LIG  120  32.334  14.711   5.927
    1AU     LIG  121  32.615  14.827   5.544
    1AU     LIG  122  32.794  15.006   5.129
    1AU     LIG  123  32.794  15.378   4.823
    1AU    AUSL  124  31.344  13.442   6.727
    1AU    AUSL  125  31.681  13.398   7.020
    1AU     AUL  126  31.727  13.367   6.664
    1AU       S  127  31.808  12.970   6.897
    1AU     LIG  128  31.896  12.620   6.620
    1AU     LIG  129  32.115  12.308   6.364
    1AU     LIG  130  32.342  12.016   6.058
    1AU     LIG  131  32.676  11.999   5.699
    1AU     LIG  132  33.092  12.063   5.435
    1AU     LIG  133  33.459  12.118   5.123
    1AU       S  134  31.425  13.666   6.449
    1AU     LIG  135  31.494  13.284   6.206
    1AU     LIG  136  31.588  13.099   5.765
    1AU     LIG  137  31.674  13.021   5.291
    1AU     LIG  138  31.806  12.771   4.890
    1AU     LIG  139  31.793  12.602   4.433
    1AU     LIG  140  31.906  12.667   3.974
    1AU    AUSL  141  31.188  13.790   6.894
    1AU    AUSL  142  30.945  13.538   6.676
    1AU     AUL  143  31.144  13.315   6.580
    1AU       S  144  30.899  13.634   6.343
    1AU     LIG  145  30.924  13.281   6.103
    1AU     LIG  146  30.677  13.074   5.749
    1AU     LIG  147  30.518  13.023   5.299
    1AU     LIG  148  30.326  12.865   4.888
    1AU     LIG  149  30.242  12.701   4.443
    1AU     LIG  150  30.035  12.623   4.006
    1AU       S  151  31.339  13.759   6.503
    1AU     LIG  152  31.450  13.740   5.976
    1AU     LIG  153  31.585  13.561   5.532
    1AU     LIG  154  31.761  13.512   5.075
    1AU     LIG  155  31.768  13.709   4.608
    1AU     LIG  156  31.833  14.003   4.204
    1AU     LIG  157  31.989  14.293   3.838
    1AU    AUSL  158  30.607  13.807   8.215
    1AU    AUSL  159  30.738  14.214   8.132
    1AU     AUL  160  30.784  14.147   8.430
    1AU       S  161  30.552  13.801   8.651
    1AU     LIG  162  30.240  13.453   8.715
    1AU     LIG  163  30.139  13.259   9.141
    1AU     LIG  164  29.976  13.225   9.605
    1AU     LIG  165  29.635  13.233   9.963
    1AU     LIG  166  29.262  13.327  10.269
    1AU     LIG  167  29.087  13.481  10.690
    1AU       S  168  30.324  14.160   8.361
    1AU     LIG  169  30.381  14.324   8.767
    1AU     LIG  170  30.342  14.735   8.983
    1AU     LIG  171  30.116  14.959   9.327
    1AU     LIG  172  29.879  15.021   9.740
    1AU     LIG  173  29.654  15.258  10.093
    1AU     LIG  174  29.496  15.666  10.320
    1AU    AUSL  175  30.909  13.603   8.032
    1AU    AUSL  176  30.411  13.517   8.005
    1AU     AUL  177  30.418  13.633   8.245
    1AU       S  178  30.258  13.193   8.235
    1AU     LIG  179  29.844  13.112   8.080
    1AU     LIG  180  29.526  12.814   8.227
    1AU     LIG  181  29.297  12.540   8.540
    1AU     LIG  182  29.055  12.238   8.800
    1AU     LIG  183  28.796  12.098   9.163
    1AU     LIG  184  28.447  12.207   9.473
    1AU       S  185  30.728  13.509   8.586
    1AU     LIG  186  30.626  13.120   8.817
    1AU     LIG  187  30.547  12.977   9.285
    1AU     LIG  188  30.407  12.956   9.757
    1AU     LIG  189  30.219  12.733  10.145
    1AU     LIG  190  30.182  12.627  10.621
    1AU     LIG  191  30.217  12.682  11.101
    1AU    AUSL  192  30.659  13.687   6.920
    1AU    AUSL  193  30.811  13.265   6.942
    1AU     AUL  194  30.625  13.379   6.640
    1AU       S  195  30.685  13.720   6.310
    1AU     LIG  196  30.459  13.491   5.990
    1AU     LIG  197  30.222  13.315   5.606
    1AU     LIG  198  29.995  13.121   5.224
    1AU     LIG  199  29.602  13.087   4.932
    1AU     LIG  200  29.323  13.317   4.607
    1AU     LIG  201  28.995  13.547   4.328
    1AU       S  202  30.358  12.991   6.793
    1AU     LIG  203  30.106  12.612   6.777
    1AU     LIG  204  29.819  12.343   6.526
    1AU     LIG  205  29.564  12.079   6.228
    1AU     LIG  206  29.379  11.921   5.822
    1AU     LIG  207  29.396  11.859   5.349
    1AU     LIG  208  29.334  11.740   4.893
    1AU    AUSL  209  30.892  13.968   6.681
    1AU    AUSL  210  30.393  13.989   6.986
    1AU     AUL  211  30.480  13.835   6.696
    1AU       S  212  30.290  14.247   6.783
    1AU     LIG  213  30.068  14.279   6.407
    1AU     LIG  214  29.943  14.570   6.056
    1AU     LIG  215  29.741  14.700   5.640
    1AU     LIG  216  29.357  14.702   5.334
    1AU     LIG  217  28.930  14.769   5.110
    1AU     LIG  218  28.664  15.124   4.923
    1AU       S  219  30.891  13.899   6.448
    1AU     LIG  220  30.921  13.789   5.888
    1AU     LIG  221  30.692  13.541   5.524
    1AU     LIG  222  30.480  13.505   5.088
    1AU     LIG  223  30.463  13.761   4.663
    1AU     LIG  224  30.422  14.038   4.262
    1AU     LIG  225  30.122  14.268   3.961
    1AU    AUSL  226  31.653  14.361   7.423
    1AU    AUSL  227  31.688  14.109   7.083
    1AU     AUL  228  31.801  14.572   7.217
    1AU       S  229  31.819  14.232   6.870
    1AU     LIG  230  32.180  14.151   6.575
    1AU     LIG  231  32.494  14.326   6.250
    1AU     LIG  232  32.783  14.448   5.877
    1AU     LIG  233  33.111  14.628   5.581
    1AU     LIG  234  33.541  14.725   5.425
    1AU     LIG  235  33.799  14.998   5.138
    1AU       S  236  32.103  14.240   7.357
    1AU     LIG  237  32.536  14.386   7.554
    1AU     LIG  238  33.030  14.414   7.543
    1AU     LIG  239  33.508  14.540   7.539
    1AU     LIG  240  33.934  14.810   7.522
    1AU     LIG  241  34.224  15.232   7.509
    1AU     LIG  242  34.336  15.712   7.625
    1AU    AUSL  243  31.891  13.798   7.242
    1AU    AUSL  244  31.888  13.645   7.663
    1AU     AUL  245  32.179  13.597   7.443
    1AU       S  246  32.122  14.019   7.257
    1AU     LIG  247  32.587  13.938   7.312
    1AU     LIG  248  33.082  13.969   7.294
    1AU     LIG  249  33.565  14.091   7.274
    1AU     LIG  250  34.062  14.178   7.267
    1AU     LIG  251  34.511  14.391   7.259
    1AU     LIG  252  34.911  14.597   7.082
    1AU       S  253  32.208  13.181   7.678
    1AU     LIG  254  32.542  12.894   7.796
    1AU     LIG  255  32.969  12.675   7.803
    1AU     LIG  256  33.405  12.464   7.779
    1AU     LIG  257  33.853  12.273   7.737
    1AU     LIG  258  34.321  12.335   7.785
    1AU     LIG  259  34.736  12.415   8.023
    1AU    AUSL  260  31.683  13.978   7.563
    1AU    AUSL  261  31.568  14.317   7.822
    1AU     AUL  262  31.804  14.349   7.698
    1AU       S  263  31.819  14.194   8.113
    1AU     LIG  264  32.232  14.412   8.025
    1AU     LIG  265  32.517  14.571   8.367
    1AU     LIG  266  32.735  14.883   8.669
    1AU     LIG  267  32.926  15.276   8.879
    1AU     LIG  268  33.254  15.643   8.955
    1AU     LIG  269  33.479  16.073   8.983
    1AU       S  270  32.120  14.064   7.545
    1AU     LIG  271  32.416  13.925   7.805
    1AU     LIG  272  32.874  13.980   7.776
    1AU     LIG  273  33.352  14.063   7.747
    1AU     LIG  274  33.825  14.168   7.729
    1AU     LIG  275  34.307  14.224   7.728
    1AU     LIG  276  34.695  14.420   7.903
    1AU    AUSL  277  30.393  14.285   7.586
    1AU    AUSL  278  30.442  14.027   7.917
    1AU     AUL  279  30.398  14.486   7.833
    1AU       S  280  30.237  14.109   8.109
    1AU     LIG  281  29.915  14.403   8.429
    1AU     LIG  282  29.874  14.534   8.908
    1AU     LIG  283  29.716  14.629   9.379
    1AU     LIG  284  29.462  14.720   9.798
    1AU     LIG  285  29.094  14.925  10.027
    1AU     LIG  286  28.656  15.023  10.210
    1AU       S  287  30.024  14.274   7.686
    1AU     LIG  288  29.971  14.687   7.489
    1AU     LIG  289  29.595  15.011   7.510
    1AU     LIG  290  29.162  15.240   7.621
    1AU     LIG  291  28.795  15.490   7.819
    1AU     LIG  292  28.363  15.694   7.774
    1AU     LIG  293  27.980  15.963   7.782
    1AU    AUSL  294  30.465  13.945   7.376
    1AU    AUSL  295  30.545  14.350   7.209
    1AU     AUL  296  30.262  14.270   7.255
    1AU       S  297  29.902  14.193   7.556
    1AU     LIG  298  29.762  14.329   7.127
    1AU     LIG  299  29.343  14.459   6.869
    1AU     LIG  300  28.882  14.587   6.692
    1AU     LIG  301  28.416  14.711   6.549
    1AU     LIG  302  27.969  14.910   6.550
    1AU     LIG  303  27.575  15.148   6.515
    1AU       S  304  30.353  14.503   6.846
    1AU     LIG  305  30.289  14.741   6.437
    1AU     LIG  306  30.164  15.050   6.088
    1AU     LIG  307  30.137  15.490   5.907
    1AU     LIG  308  29.911  15.906   5.812
    1AU     LIG  309  29.542  16.174   5.654
    1AU     LIG  310  29.221  16.443   5.416
    1AU    AUSL  311  30.195  13.838   7.671
    1AU    AUSL  312  30.242  13.614   7.310
    1AU     AUL  313  30.064  13.867   7.284
    1AU       S  314  29.904  13.413   7.433
    1AU     LIG  315  29.560  13.414   7.777
    1AU     LIG  316  29.098  13.300   7.803
    1AU     LIG  317  28.631  13.198   7.702
    1AU     LIG  318  28.277  13.078   7.385
    1AU     LIG  319  27.838  12.939   7.229
    1AU     LIG  320  27.442  12.968   6.940
    1AU       S  321  29.999  13.865   7.766
    1AU     LIG  322  29.686  14.112   8.040
    1AU     LIG  323  29.223  14.281   8.184
    1AU     LIG  324  28.726  14.398   8.283
    1AU     LIG  325  28.224  14.468   8.367
    1AU     LIG  326  27.795  14.670   8.511
    1AU     LIG  327  27.364  14.665   8.366
    1AU    AUSL  328  31.756  13.251   7.583
    1AU    AUSL  329  31.700  13.451   7.963
    1AU     AUL  330  32.008  13.516   7.922
    1AU       S  331  31.915  13.004   7.564
    1AU     LIG  332  32.092  12.639   7.726
    1AU     LIG  333  32.518  12.410   7.629
    1AU     LIG  334  32.973  12.253   7.511
    1AU     LIG  335  33.433  12.109   7.409
    1AU     LIG  336  33.836  11.852   7.433
    1AU     LIG  337  34.205  11.821   7.713
    1AU       S  338  31.748  13.135   8.041
    1AU     LIG  339  32.066  12.790   8.224
    1AU     LIG  340  32.047  12.372   8.457
    1AU     LIG  341  32.270  12.120   8.799
    1AU     LIG  342  32.617  12.052   9.133
    1AU     LIG  343  33.024  12.090   9.400
    1AU     LIG  344  33.407  12.082   9.689
    1AU    AUSL  345  31.596  13.567   7.378
    1AU    AUSL  346  31.532  13.101   7.278
    1AU     AUL  347  31.880  13.326   7.204
    1AU       S  348  31.955  13.162   7.611
    1AU     LIG  349  32.318  12.872   7.314
    1AU     LIG  350  32.796  12.722   7.318
    1AU     LIG  351  33.289  12.607   7.298
    1AU     LIG  352  33.788  12.500   7.285
    1AU     LIG  353  34.277  12.630   7.250
    1AU     LIG  354  34.637  12.807   6.972
    1AU       S  355  31.764  12.874   7.108
    1AU     LIG  356  31.547  12.474   6.970
    1AU     LIG  357  31.756  12.112   6.708
    1AU     LIG  358  32.081  11.809   6.484
    1AU     LIG  359  32.429  11.525   6.286
    1AU     LIG  360  32.777  11.159   6.282
    1AU     LIG  361  33.159  10.872   6.172
    1AU    AUSL  362  30.356  13.234   7.474
    1AU    AUSL  363  30.440  13.374   7.060
    1AU     AUL  364  30.155  13.454   7.033
    1AU       S  365  30.342  13.035   7.031
    1AU     LIG  366  29.867  13.029   6.991
    1AU     LIG  367  29.580  12.772   6.722
    1AU     LIG  368  29.336  12.516   6.398
    1AU     LIG  369  29.083  12.250   6.091
    1AU     LIG  370  28.788  12.168   5.719
    1AU     LIG  371  28.585  12.206   5.286
    1AU       S  372  30.063  13.203   7.418
    1AU     LIG  373  29.678  12.968   7.517
    1AU     LIG  374  29.206  12.938   7.448
    1AU     LIG  375  28.742  12.807   7.399
    1AU     LIG  376  28.325  12.606   7.562
    1AU     LIG  377  28.011  12.340   7.786
    1AU     LIG  378  27.652  12.062   7.664
    1AU    AUSL  379  30.510  13.591   7.627
    1AU    AUSL  380  30.599  13.205   7.809
    1AU     AUL  381  30.226  13.377   7.809
    1AU       S  382  30.338  12.997   8.035
    1AU     LIG  383  30.058  12.746   7.803
    1AU     LIG  384  29.714  12.433   7.941
    1AU     LIG  385  29.414  12.145   8.224
    1AU     LIG  386  29.167  11.810   8.516
    1AU     LIG  387  28.875  11.405   8.631
    1AU     LIG  388  28.494  11.082   8.721
    1AU       S  389  29.944  13.465   7.469
    1AU     LIG  390  29.442  13.378   7.284
    1AU     LIG  391  28.943  13.381   7.313
    1AU     LIG  392  28.487  13.565   7.379
    1AU     LIG  393  28.073  13.484   7.605
    1AU     LIG  394  27.790  13.126   7.742
    1AU     LIG  395  27.375  12.929   7.891
    1AU    AUSL  396  31.079  14.408   8.023
    1AU    AUSL  397  30.763  14.195   7.728
    1AU     AUL  398  30.780  14.509   8.102
    1AU       S  399  30.388  14.325   8.258
    1AU     LIG  400  30.368  14.731   8.441
    1AU     LIG  401  30.361  15.162   8.669
    1AU     LIG  402  30.242  15.577   8.896
    1AU     LIG  403  29.970  15.962   9.026
    1AU     LIG  404  29.619  16.275   9.119
    1AU     LIG  405  29.203  16.476   9.219
    1AU       S  406  31.133  14.806   7.983
    1AU     LIG  407  31.254  15.017   8.331
    1AU     LIG  408  31.280  15.424   8.530
    1AU     LIG  409  31.393  15.742   8.825
    1AU     LIG  410  31.262  16.084   9.099
    1AU     LIG  411  31.120  16.381   9.432
    1AU     LIG  412  31.068  16.606   9.844
    1AU    AUSL  413  30.831  14.582   7.660
    1AU    AUSL  414  31.263  14.574   7.265
    1AU     AUL  415  30.898  14.812   7.417
    1AU       S  416  30.997  14.869   7.860
    1AU     LIG  417  31.171  15.301   7.893
    1AU     LIG  418  31.257  15.708   8.094
    1AU     LIG  419  31.059  16.090   8.245
    1AU     LIG  420  30.904  16.537   8.354
    1AU     LIG  421  30.955  17.047   8.414
    1AU     LIG  422  30.866  17.545   8.384
    1AU       S  423  31.304  14.881   7.191
    1AU     LIG  424  31.601  14.986   6.919
    1AU     LIG  425  31.792  15.398   6.730
    1AU     LIG  426  31.824  15.910   6.614
    1AU     LIG  427  31.792  16.433   6.620
    1AU     LIG  428  31.889  16.956   6.628
    1AU     LIG  429  32.126  17.415   6.615
    1AU    AUSL  430  31.227  14.433   7.643
    1AU    AUSL  431  31.260  14.067   7.907
    1AU     AUL  432  31.401  14.444   8.053
    1AU       S  433  31.791  14.244   8.225
    1AU     LIG  434  32.004  14.543   8.485
    1AU     LIG  435  32.044  14.650   8.943
    1AU     LIG  436  32.180  14.681   9.379
    1AU     LIG  437  32.495  14.869   9.647
    1AU     LIG  438  32.633  15.218   9.925
    1AU     LIG  439  32.610  15.628  10.160
    1AU       S  440  31.296  14.743   7.706
    1AU     LIG  441  31.633  14.889   7.978
    1AU     LIG  442  31.626  15.327   8.151
    1AU     LIG  443  31.681  15.743   8.387
    1AU     LIG  444  31.643  16.222   8.482
    1AU     LIG  445  31.677  16.723   8.534
    1AU     LIG  446  31.662  17.211   8.637
    1AU    AUSL  447  31.032  13.170   7.933
    1AU    AUSL  448  31.386  13.301   7.739
    1AU     AUL  449  31.207  13.072   8.210
    1AU       S  450  31.156  12.636   8.074
    1AU     LIG  451  31.242  12.185   8.174
    1AU     LIG  452  30.930  11.849   8.229
    1AU     LIG  453  30.833  11.437   8.443
    1AU     LIG  454  30.924  11.071   8.726
    1AU     LIG  455  30.746  10.772   9.066
    1AU     LIG  456  30.547  10.392   9.298
    1AU       S  457  31.673  12.949   7.959
    1AU     LIG  458  31.677  12.465   8.065
    1AU     LIG  459  31.736  11.986   8.241
    1AU     LIG  460  31.977  11.611   8.486
    1AU     LIG  461  32.238  11.191   8.505
    1AU     LIG  462  32.607  10.903   8.645
    1AU     LIG  463  33.054  10.919   8.787
    1AU    AUSL  464  30.856  12.931   7.657
    1AU    AUSL  465  30.743  13.281   8.196
    1AU     AUL  466  30.789  12.942   8.016
    1AU       S  467  30.970  12.529   7.937
    1AU     LIG  468  30.827  12.195   7.649
    1AU     LIG  469  30.729  11.731   7.690
    1AU     LIG  470  30.627  11.372   7.981
    1AU     LIG  471  30.653  10.974   8.265
    1AU     LIG  472  30.568  10.510   8.395
    1AU     LIG  473  30.334  10.136   8.586
    1AU       S  474  30.483  13.142   8.298
    1AU     LIG  475  30.114  12.758   8.403
    1AU     LIG  476  29.798  12.421   8.462
    1AU     LIG  477  29.554  12.111   8.720
    1AU     LIG  478  29.324  11.864   9.046
    1AU     LIG  479  29.392  11.692   9.485
    1AU     LIG  480  29.484  11.544   9.928
    1AU    AUSL  481  31.292  12.911   7.711
    1AU    AUSL  482  30.808  12.923   7.248
    1AU     AUL  483  31.002  12.679   7.508
    1AU       S  484  30.740  12.607   7.120
    1AU     LIG  485  30.509  12.289   7.230
    1AU     LIG  486  30.541  11.837   7.203
    1AU     LIG  487  30.450  11.442   6.962
    1AU     LIG  488  30.511  10.997   6.818
    1AU     LIG  489  30.403  10.545   6.756
    1AU     LIG  490  30.438  10.078   6.802
    1AU       S  491  31.252  12.732   7.880
    1AU     LIG  492  31.348  12.321   7.681
    1AU     LIG  493  31.215  11.867   7.755
    1AU     LIG  494  31.134  11.462   7.999
    1AU     LIG  495  31.167  11.063   8.247
    1AU     LIG  496  31.067  10.589   8.269
    1AU     LIG  497  31.161  10.111   8.246
    1AU    AUSL  498  31.037  14.375   6.951
    1AU    AUSL  499  31.335  14.176   7.253
    1AU     AUL  500  31.411  14.477   6.999
    1AU       S  501  31.088  14.732   6.791
    1AU     LIG  502  31.331  14.995   6.497
    1AU     LIG  503  31.431  15.418   6.336
    1AU     LIG  504  31.464  15.757   6.013
    1AU     LIG  505  31.486  15.974   5.588
    1AU     LIG  506  31.305  16.238   5.234
    1AU     LIG  507  31.368  16.641   4.991
    1AU       S  508  31.780  14.193   6.962
    1AU     LIG  509  32.214  14.503   6.933
    1AU     LIG  510  32.495  14.728   6.593
    1AU     LIG  511  32.730  15.100   6.371
    1AU     LIG  512  33.026  15.504   6.272
    1AU     LIG  513  33.309  15.924   6.225
    1AU     LIG  514  33.498  16.363   6.095
    1AU    AUSL  515  30.927  14.347   7.346
    1AU    AUSL  516  30.795  14.070   7.055
    1AU     AUL  517  30.760  14.533   7.071
    1AU       S  518  31.121  14.842   7.023
    1AU     LIG  519  31.203  15.307   6.897
    1AU     LIG  520  31.380  15.713   6.744
    1AU     LIG  521  31.242  16.151   6.656
    1AU     LIG  522  31.052  16.595   6.547
    1AU     LIG  523  30.933  17.078   6.506
    1AU     LIG  524  30.735  17.520   6.449
    1AU       S  525  30.587  14.318   6.700
    1AU     LIG  526  30.555  14.343   6.241
    1AU     LIG  527  30.413  14.653   5.872
    1AU     LIG  528  30.189  14.970   5.546
    1AU     LIG  529  30.080  15.237   5.124
    1AU     LIG  530  29.937  15.550   4.761
    1AU     LIG  531  29.715  15.968   4.646
    1AU    AUSL  532  31.142  13.034   6.984
    1AU    AUSL  533  30.732  13.302   7.346
    1AU     AUL  534  30.795  13.024   6.922
    1AU       S  535  30.361  12.909   7.145
    1AU     LIG  536  30.030  12.642   7.283
    1AU     LIG  537  29.695  12.386   7.041
    1AU     LIG  538  29.399  12.124   6.732
    1AU     LIG  539  29.152  11.819   6.425
    1AU     LIG  540  28.906  11.384   6.345
    1AU     LIG  541  28.651  10.951   6.287
    1AU       S  542  31.047  12.641   6.907
    1AU     LIG  543  30.830  12.205   6.806
    1AU     LIG  544  30.832  11.750   6.784
    1AU     LIG  545  30.791  11.344   6.563
    1AU     LIG  546  30.849  11.000   6.237
    1AU     LIG  547  30.909  10.879   5.757
    1AU     LIG  548  30.891  10.644   5.323
    1AU    AUSL  549  31.143  13.109   7.396
    1AU    AUSL  550  31.271  13.389   7.113
    1AU     AUL  551  31.316  12.879   7.211
    1AU       S  552  30.956  12.608   7.068
    1AU     LIG  553  31.121  12.223   7.229
    1AU     LIG  554  31.047  11.764   7.265
    1AU     LIG  555  30.928  11.337   7.106
    1AU     LIG  556  31.032  10.969   6.828
    1AU     LIG  557  31.026  10.491   6.770
    1AU     LIG  558  31.257  10.081   6.683
    1AU       S  559  31.561  12.972   6.821
    1AU     LIG  560  31.391  12.725   6.529
    1AU     LIG  561  31.567  12.351   6.299
    1AU     LIG  562  31.810  12.020   6.073
    1AU     LIG  563  31.998  11.795   5.711
    1AU     LIG  564  32.078  11.638   5.273
    1AU     LIG  565  32.233  11.500   4.840
    2AU     AUC  566   2.617  43.750   7.499
    2AU     AUC  567   2.878  43.751   7.337
    2AU     AUC  568   2.872  43.742   7.647
    2AU     AUC  569   2.366  43.753   7.337
    2AU     AUC  570   2.357  43.769   7.652
    2AU     AUC  571   2.467  44.008   7.497
    2AU     AUC  572   2.778  44.004   7.484
    2AU     AUC  573   2.462  43.494   7.511
    2AU     AUC  574   2.757  43.495   7.519
    2AU     AUC  575   2.611  43.602   7.761
    2AU     AUC  576   2.634  43.913   7.754
    2AU     AUC  577   2.616  43.587   7.243
    2AU     AUC  578   2.607  43.889   7.237
    2AU     AUC  579   3.125  43.744   7.174
    2AU     AUC  580   3.135  43.752   7.484
    2AU     AUC  581   3.133  43.741   7.791
    2AU     AUC  582   2.106  43.742   7.185
    2AU     AUC  583   2.099  43.767   7.493
    2AU     AUC  584   2.110  43.786   7.813
    2AU     AUC  585   2.325  44.274   7.502
    2AU     AUC  586   2.633  44.272   7.493
    2AU     AUC  587   2.926  44.266   7.485
    2AU     AUC  588   2.282  43.241   7.518
    2AU     AUC  589   2.598  43.228   7.506
    2AU     AUC  590   2.913  43.230   7.523
    2AU     AUC  591   2.597  43.450   8.014
    2AU     AUC  592   2.622  43.760   8.026
    2AU     AUC  593   2.643  44.067   8.015
    2AU     AUC  594   2.615  43.413   7.006
    2AU     AUC  595   2.625  43.729   6.976
    2AU     AUC  596   2.604  44.037   6.974
    2AU     AUC  597   2.886  43.602   7.921
    2AU     AUC  598   2.891  43.894   7.914
    2AU     AUC  599   2.887  43.578   7.081
    2AU     AUC  600   2.886  43.886   7.068
    2AU     AUC  601   2.349  43.620   7.926
    2AU     AUC  602   2.371  43.930   7.927
    2AU     AUC  603   2.368  43.587   7.070
    2AU     AUC  604   2.355  43.894   7.077
    2AU     AUC  605   3.031  44.014   7.315
    2AU     AUC  606   3.048  43.995   7.633
    2AU     AUC  607   2.197  44.008   7.349
    2AU     AUC  608   2.212  44.031   7.669
    2AU     AUC  609   3.028  43.483   7.347
    2AU     AUC  610   3.033  43.488   7.664
    2AU     AUC  611   2.192  43.498   7.340
    2AU     AUC  612   2.199  43.509   7.681
    2AU     AUC  613   2.475  44.171   7.769
    2AU     AUC  614   2.793  44.175   7.737
    2AU     AUC  615   2.440  43.330   7.755
    2AU     AUC  616   2.759  43.340   7.784
    2AU     AUC  617   2.455  44.161   7.235
    2AU     AUC  618   2.771  44.151   7.218
    2AU     AUC  619   2.441  43.336   7.242
    2AU     AUC  620   2.770  43.322   7.265
    2AU    AUSL  621   2.974  43.695   8.085
    2AU    AUSL  622   2.922  43.277   8.133
    2AU     AUL  623   3.164  43.355   8.396
    2AU       S  624   3.207  42.976   8.097
    2AU     LIG  625   3.064  42.751   8.444
    2AU     LIG  626   3.235  42.355   8.631
    2AU     LIG  627   3.498  42.117   8.947
    2AU     LIG  628   3.747  41.995   9.314
    2AU     LIG  629   3.834  42.041   9.783
    2AU     LIG  630   3.779  41.809  10.196
    2AU       S  631   3.029  43.720   8.653
    2AU     LIG  632   3.249  43.413   8.915
    2AU     LIG  633   3.456  43.259   9.325
    2AU     LIG  634   3.755  43.211   9.700
    2AU     LIG  635   4.141  43.166   9.995
    2AU     LIG  636   4.451  43.096  10.359
    2AU     LIG  637   4.550  43.219  10.805
    2AU    AUSL  638   2.697  43.550   8.351
    2AU    AUSL  639   2.555  43.936   8.279
    2AU     AUL  640   2.619  43.913   8.699
    2AU       S  641   2.770  43.548   8.498
    2AU     LIG  642   2.822  43.165   8.727
    2AU     LIG  643   3.031  42.996   9.155
    2AU     LIG  644   3.203  42.888   9.622
    2AU     LIG  645   3.241  42.729  10.100
    2AU     LIG  646   3.387  42.804  10.560
    2AU     LIG  647   3.604  42.674  10.971
    2AU       S  648   2.276  43.633   8.622
    2AU     LIG  649   2.147  43.557   9.083
    2AU     LIG  650   1.975  43.477   9.514
    2AU     LIG  651   1.806  43.506   9.953
    2AU     LIG  652   1.761  43.821  10.323
    2AU     LIG  653   1.720  44.191  10.639
    2AU     LIG  654   1.681  44.460  11.036
    2AU    AUSL  655   2.940  44.048   8.283
    2AU    AUSL  656   3.275  43.948   7.963
    2AU     AUL  657   3.266  43.780   8.275
    2AU       S  658   2.970  44.087   8.457
    2AU     LIG  659   3.172  44.177   8.846
    2AU     LIG  660   3.343  44.427   9.223
    2AU     LIG  661   3.320  44.599   9.682
    2AU     LIG  662   3.305  44.817  10.117
    2AU     LIG  663   3.339  44.656  10.570
    2AU     LIG  664   3.564  44.481  10.954
    2AU       S  665   3.558  44.004   7.999
    2AU     LIG  666   3.745  43.945   8.411
    2AU     LIG  667   4.013  44.203   8.694
    2AU     LIG  668   4.291  44.497   8.945
    2AU     LIG  669   4.551  44.782   9.218
    2AU     LIG  670   4.877  44.885   9.539
    2AU     LIG  671   5.188   0.082   9.840
    2AU    AUSL  672   3.156  43.778   6.863
    2AU    AUSL  673   2.913  44.168   6.819
    2AU     AUL  674   3.278  44.130   6.451
    2AU       S  675   3.191  43.803   6.711
    2AU     LIG  676   3.489  43.708   6.333
    2AU     LIG  677   3.533  43.548   5.910
    2AU     LIG  678   3.648  43.397   5.472
    2AU     LIG  679   3.940  43.386   5.079
    2AU     LIG  680   4.333  43.318   4.781
    2AU     LIG  681   4.584  43.289   4.365
    2AU       S  682   2.911  44.223   6.660
    2AU     LIG  683   3.207  44.597   6.590
    2AU     LIG  684   3.556  44.593   6.285
    2AU     LIG  685   3.836  44.739   5.911
    2AU     LIG  686   3.975  44.922   5.464
    2AU     LIG  687   4.060   0.216   5.059
    2AU     LIG  688   4.338   0.525   4.812
    2AU    AUSL  689   2.896  43.460   6.714
    2AU    AUSL  690   3.227  43.403   7.005
    2AU     AUL  691   3.308  43.392   6.661
    2AU       S  692   3.328  42.974   6.866
    2AU     LIG  693   3.574  42.663   6.607
    2AU     LIG  694   3.834  42.339   6.375
    2AU     LIG  695   4.105  42.138   6.073
    2AU     LIG  696   4.493  42.111   5.802
    2AU     LIG  697   4.708  41.816   5.504
    2AU     LIG  698   4.879  41.787   5.055
    2AU       S  699   2.986  43.678   6.440
    2AU     LIG  700   3.092  43.350   6.184
    2AU     LIG  701   3.186  43.213   5.732
    2AU     LIG  702   3.224  43.159   5.258
    2AU     LIG  703   3.175  42.922   4.836
    2AU     LIG  704   3.305  42.667   4.449
    2AU     LIG  705   3.504  42.556   4.034
    2AU    AUSL  706   2.746  43.808   6.887
    2AU    AUSL  707   2.498  43.560   6.670
    2AU     AUL  708   2.695  43.336   6.570
    2AU       S  709   2.446  43.659   6.348
    2AU     LIG  710   2.420  43.294   6.114
    2AU     LIG  711   2.166  43.101   5.752
    2AU     LIG  712   1.962  43.050   5.317
    2AU     LIG  713   1.879  42.810   4.904
    2AU     LIG  714   1.881  42.707   4.427
    2AU     LIG  715   1.748  42.739   3.977
    2AU       S  716   2.897  43.781   6.491
    2AU     LIG  717   3.079  43.834   5.992
    2AU     LIG  718   3.208  43.692   5.532
    2AU     LIG  719   3.388  43.625   5.082
    2AU     LIG  720   3.356  43.690   4.605
    2AU     LIG  721   3.396  43.851   4.146
    2AU     LIG  722   3.595  44.055   3.753
    2AU    AUSL  723   2.171  43.823   8.211
    2AU    AUSL  724   2.314  44.228   8.133
    2AU     AUL  725   2.361  44.158   8.430
    2AU       S  726   2.119  43.815   8.642
    2AU     LIG  727   1.790  43.490   8.702
    2AU     LIG  728   1.660  43.314   9.125
    2AU     LIG  729   1.490  43.281   9.587
    2AU     LIG  730   1.173  43.236   9.966
    2AU     LIG  731   0.836  43.185  10.325
    2AU     LIG  732   0.673  43.285  10.762
    2AU       S  733   1.902  44.188   8.364
    2AU     LIG  734   1.956  44.305   8.784
    2AU     LIG  735   1.899  44.687   9.052
    2AU     LIG  736   1.694   0.019   9.322
    2AU     LIG  737   1.581   0.218   9.743
    2AU     LIG  738   1.395   0.408  10.152
    2AU     LIG  739   1.206   0.792  10.366
    2AU    AUSL  740   2.469  43.616   8.025
    2AU    AUSL  741   1.971  43.537   7.999
    2AU     AUL  742   1.976  43.645   8.240
    2AU       S  743   1.806  43.196   8.206
    2AU     LIG  744   1.401  43.081   8.023
    2AU     LIG  745   1.146  42.675   8.040
    2AU     LIG  746   0.892  42.309   8.252
    2AU     LIG  747   0.614  42.149   8.616
    2AU     LIG  748   0.359  41.941   8.949
    2AU     LIG  749   0.013  41.778   9.178
    2AU       S  750   2.290  43.523   8.578
    2AU     LIG  751   2.163  43.141   8.786
    2AU     LIG  752   2.076  43.036   9.254
    2AU     LIG  753   1.912  42.995   9.718
    2AU     LIG  754   1.789  42.767  10.141
    2AU     LIG  755   1.748  42.649  10.617
    2AU     LIG  756   1.687  42.561  11.090
    2AU    AUSL  757   2.217  43.716   6.916
    2AU    AUSL  758   2.353  43.286   6.929
    2AU     AUL  759   2.171  43.406   6.635
    2AU       S  760   2.237  43.747   6.305
    2AU     LIG  761   1.943  43.473   6.070
    2AU     LIG  762   1.736  43.385   5.647
    2AU     LIG  763   1.455  43.272   5.281
    2AU     LIG  764   0.996  43.241   5.102
    2AU     LIG  765   0.647  43.237   4.770
    2AU     LIG  766   0.532  43.239   4.296
    2AU       S  767   1.916  43.010   6.793
    2AU     LIG  768   1.669  42.584   6.802
    2AU     LIG  769   1.376  42.186   6.668
    2AU     LIG  770   1.051  41.866   6.478
    2AU     LIG  771   0.802  41.665   6.112
    2AU     LIG  772   0.675  41.541   5.668
    2AU     LIG  773   0.692  41.450   5.195
    2AU    AUSL  774   2.452  43.994   6.678
    2AU    AUSL  775   1.958  44.025   6.981
    2AU     AUL  776   2.039  43.872   6.692
    2AU       S  777   1.861  44.292   6.773
    2AU     LIG  778   1.643  44.339   6.373
    2AU     LIG  779   1.461  44.570   5.998
    2AU     LIG  780   1.198  44.564   5.600
    2AU     LIG  781   0.864  44.642   5.269
    2AU     LIG  782   0.640  44.902   4.948
    2AU     LIG  783   0.301   0.113   4.694
    2AU       S  784   2.452  43.925   6.450
    2AU     LIG  785   2.538  43.810   5.909
    2AU     LIG  786   2.218  43.596   5.608
    2AU     LIG  787   1.958  43.568   5.191
    2AU     LIG  788   1.915  43.743   4.727
    2AU     LIG  789   1.899  43.956   4.278
    2AU     LIG  790   1.918  44.179   3.844
    2AU    AUSL  791   3.230  44.357   7.419
    2AU    AUSL  792   3.252  44.115   7.073
    2AU     AUL  793   3.380  44.576   7.219
    2AU       S  794   3.392  44.216   6.889
    2AU     LIG  795   3.751  44.108   6.629
    2AU     LIG  796   3.985  44.299   6.245
    2AU     LIG  797   4.306  44.532   5.961
    2AU     LIG  798   4.601  44.599   5.577
    2AU     LIG  799   4.899  44.862   5.312
    2AU     LIG  800   5.266   0.144   5.213
    2AU       S  801   3.690  44.240   7.331
    2AU     LIG  802   4.185  44.224   7.460
    2AU     LIG  803   4.674  44.310   7.488
    2AU     LIG  804   5.155  44.426   7.482
    2AU     LIG  805   5.648  44.520   7.466
    2AU     LIG  806   5.976  44.889   7.539
    2AU     LIG  807   6.104   0.382   7.548
    2AU    AUSL  808   3.449  43.800   7.233
    2AU    AUSL  809   3.449  43.636   7.645
    2AU     AUL  810   3.739  43.577   7.411
    2AU       S  811   3.652  44.017   7.294
    2AU     LIG  812   4.029  43.912   7.084
    2AU     LIG  813   4.524  43.962   7.116
    2AU     LIG  814   4.996  44.102   7.105
    2AU     LIG  815   5.456  44.222   7.082
    2AU     LIG  816   5.917  44.370   6.998
    2AU     LIG  817   6.165  44.575   6.660
    2AU       S  818   3.752  43.161   7.637
    2AU     LIG  819   4.058  42.898   7.784
    2AU     LIG  820   4.471  42.702   7.737
    2AU     LIG  821   4.854  42.492   7.904
    2AU     LIG  822   5.320  42.368   7.861
    2AU     LIG  823   5.769  42.360   8.023
    2AU     LIG  824   6.207  42.559   8.009
    2AU    AUSL  825   3.243  43.972   7.558
    2AU    AUSL  826   3.146  44.315   7.819
    2AU     AUL  827   3.393  44.317   7.686
    2AU       S  828   3.414  44.203   8.117
    2AU     LIG  829   3.847  44.402   8.185
    2AU     LIG  830   4.039  44.693   8.524
    2AU     LIG  831   4.269   0.009   8.820
    2AU     LIG  832   4.480   0.440   8.951
    2AU     LIG  833   4.645   0.910   9.032
    2AU     LIG  834   4.861   1.359   8.997
    2AU       S  835   3.715  44.034   7.543
    2AU     LIG  836   4.025  43.864   7.803
    2AU     LIG  837   4.505  43.975   7.867
    2AU     LIG  838   4.981  44.138   7.895
    2AU     LIG  839   5.458  44.316   7.902
    2AU     LIG  840   5.907  44.525   7.930
    2AU     LIG  841   6.402  44.480   7.945
    2AU    AUSL  842   1.964  44.308   7.587
    2AU    AUSL  843   2.011  44.052   7.920
    2AU     AUL  844   1.978  44.510   7.837
    2AU       S  845   1.812  44.131   8.106
    2AU     LIG  846   1.459  44.380   8.386
    2AU     LIG  847   1.449  44.547   8.834
    2AU     LIG  848   1.279  44.709   9.258
    2AU     LIG  849   0.956  44.681   9.632
    2AU     LIG  850   0.581  44.717   9.948
    2AU     LIG  851   0.109  44.777  10.038
    2AU       S  852   1.595  44.317   7.684
    2AU     LIG  853   1.434  44.730   7.488
    2AU     LIG  854   1.049   0.046   7.465
    2AU     LIG  855   0.621   0.310   7.534
    2AU     LIG  856   0.171   0.536   7.607
    2AU     LIG  857  44.695   0.636   7.683
    2AU     LIG  858  44.238   0.698   7.544
    2AU    AUSL  859   2.031  43.971   7.371
    2AU    AUSL  860   2.119  44.377   7.212
    2AU     AUL  861   1.832  44.303   7.249
    2AU       S  862   1.473  44.232   7.549
    2AU     LIG  863   1.310  44.358   7.126
    2AU     LIG  864   0.866  44.514   6.919
    2AU     LIG  865   0.374  44.642   6.807
    2AU     LIG  866  44.937  44.875   6.700
    2AU     LIG  867  44.473  44.927   6.580
    2AU     LIG  868  44.011  44.933   6.680
    2AU       S  869   1.942  44.541   6.846
    2AU     LIG  870   1.838  44.807   6.462
    2AU     LIG  871   1.743   0.177   6.148
    2AU     LIG  872   1.674   0.674   6.068
    2AU     LIG  873   1.473   1.125   6.004
    2AU     LIG  874   1.133   1.360   5.764
    2AU     LIG  875   0.664   1.421   5.777
    2AU    AUSL  876   1.761  43.875   7.669
    2AU    AUSL  877   1.794  43.646   7.310
    2AU     AUL  878   1.628  43.903   7.279
    2AU       S  879   1.456  43.450   7.435
    2AU     LIG  880   1.105  43.429   7.766
    2AU     LIG  881   0.646  43.304   7.710
    2AU     LIG  882   0.303  43.078   7.447
    2AU     LIG  883  44.826  43.092   7.255
    2AU     LIG  884  44.331  42.948   7.207
    2AU     LIG  885  44.005  42.619   7.041
    2AU       S  886   1.563  43.907   7.759
    2AU     LIG  887   1.214  44.148   7.995
    2AU     LIG  888   0.804  44.383   8.192
    2AU     LIG  889   0.342  44.572   8.335
    2AU     LIG  890  44.929  44.718   8.575
    2AU     LIG  891  44.430  44.799   8.445
    2AU     LIG  892  43.956  44.911   8.412
    2AU    AUSL  893   3.302  43.245   7.564
    2AU    AUSL  894   3.259  43.448   7.948
    2AU     AUL  895   3.571  43.497   7.898
    2AU       S  896   3.448  42.990   7.541
    2AU     LIG  897   3.617  42.628   7.711
    2AU     LIG  898   4.034  42.399   7.667
    2AU     LIG  899   4.474  42.194   7.646
    2AU     LIG  900   4.745  41.830   7.561
    2AU     LIG  901   5.081  41.621   7.384
    2AU     LIG  902   5.466  41.465   7.567
    2AU       S  903   3.283  43.137   8.018
    2AU     LIG  904   3.680  42.873   8.159
    2AU     LIG  905   3.718  42.497   8.457
    2AU     LIG  906   3.955  42.206   8.761
    2AU     LIG  907   4.231  42.076   9.130
    2AU     LIG  908   4.676  42.005   9.250
    2AU     LIG  909   4.978  41.925   9.600
    2AU    AUSL  910   3.150  43.570   7.364
    2AU    AUSL  911   3.072  43.106   7.257
    2AU     AUL  912   3.424  43.322   7.185
    2AU       S  913   3.497  43.146   7.588
    2AU     LIG  914   3.849  42.808   7.299
    2AU     LIG  915   4.321  42.578   7.252
    2AU     LIG  916   4.823  42.566   7.107
    2AU     LIG  917   5.345  42.567   7.170
    2AU     LIG  918   5.864  42.585   7.030
    2AU     LIG  919   6.267  42.285   6.919
    2AU       S  920   3.310  42.877   7.072
    2AU     LIG  921   3.456  42.443   7.053
    2AU     LIG  922   3.634  42.102   6.773
    2AU     LIG  923   3.820  41.806   6.430
    2AU     LIG  924   4.131  41.454   6.497
    2AU     LIG  925   4.562  41.274   6.337
    2AU     LIG  926   4.811  41.075   5.961
    2AU    AUSL  927   1.905  43.263   7.466
    2AU    AUSL  928   1.988  43.412   7.053
    2AU     AUL  929   1.699  43.487   7.030
    2AU       S  930   1.909  43.081   7.019
    2AU     LIG  931   1.415  43.036   6.975
    2AU     LIG  932   1.139  42.655   6.821
    2AU     LIG  933   0.848  42.348   6.562
    2AU     LIG  934   0.542  42.097   6.283
    2AU     LIG  935   0.334  41.891   5.904
    2AU     LIG  936   0.284  41.864   5.439
    2AU       S  937   1.615  43.237   7.414
    2AU     LIG  938   1.257  42.986   7.537
    2AU     LIG  939   0.813  42.856   7.529
    2AU     LIG  940   0.469  42.583   7.716
    2AU     LIG  941   0.044  42.333   7.748
    2AU     LIG  942  44.580  42.234   7.723
    2AU     LIG  943  44.345  41.940   7.484
    2AU    AUSL  944   2.066  43.616   7.622
    2AU    AUSL  945   2.153  43.224   7.797
    2AU     AUL  946   1.779  43.414   7.804
    2AU       S  947   1.889  42.996   7.953
    2AU     LIG  948   1.620  42.656   7.812
    2AU     LIG  949   1.424  42.233   7.898
    2AU     LIG  950   1.153  41.862   8.066
    2AU     LIG  951   0.767  41.757   8.322
    2AU     LIG  952   0.461  41.551   8.620
    2AU     LIG  953   0.347  41.416   9.022
    2AU       S  954   1.497  43.505   7.466
    2AU     LIG  955   1.006  43.364   7.272
    2AU     LIG  956   0.528  43.493   7.247
    2AU     LIG  957   0.076  43.524   7.455
    2AU     LIG  958  44.769  43.259   7.724
    2AU     LIG  959  44.379  42.973   7.809
    2AU     LIG  960  43.998  42.786   7.986
    2AU    AUSL  961   2.658  44.417   8.022
    2AU    AUSL  962   2.334  44.216   7.729
    2AU     AUL  963   2.364  44.523   8.104
    2AU       S  964   1.967  44.353   8.265
    2AU     LIG  965   1.834  44.724   8.510
    2AU     LIG  966   1.615   0.041   8.800
    2AU     LIG  967   1.489   0.430   9.050
    2AU     LIG  968   1.304   0.881   9.100
    2AU     LIG  969   1.014   1.274   9.109
    2AU     LIG  970   0.639   1.580   9.054
    2AU       S  971   2.725  44.813   7.974
    2AU     LIG  972   2.885  44.891   8.358
    2AU     LIG  973   2.981   0.316   8.546
    2AU     LIG  974   2.951   0.719   8.800
    2AU     LIG  975   2.962   0.994   9.201
    2AU     LIG  976   2.993   1.348   9.525
    2AU     LIG  977   2.987   1.779   9.731
    2AU    AUSL  978   2.413  44.601   7.663
    2AU    AUSL  979   2.844  44.585   7.265
    2AU     AUL  980   2.525  44.836   7.427
    2AU       S  981   2.572  44.895   7.881
    2AU     LIG  982   2.703   0.313   8.099
    2AU     LIG  983   2.724   0.736   8.317
    2AU     LIG  984   2.509   1.174   8.379
    2AU     LIG  985   2.599   1.627   8.483
    2AU     LIG  986   2.485   2.093   8.543
    2AU     LIG  987   2.362   2.482   8.773
    2AU       S  988   2.881  44.915   7.127
    2AU     LIG  989   3.221   0.054   6.885
    2AU     LIG  990   3.286   0.523   6.775
    2AU     LIG  991   3.463   0.971   6.682
    2AU     LIG  992   3.728   1.379   6.585
    2AU     LIG  993   3.806   1.846   6.492
    2AU     LIG  994   3.484   2.189   6.393
    2AU    AUSL  995   2.807  44.442   7.642
    2AU    AUSL  996   2.831  44.073   7.902
    2AU     AUL  997   2.982  44.444   8.053
    2AU       S  998   3.365  44.236   8.223
    2AU     LIG  999   3.549  44.418   8.601
    2AU     LIG 1000   3.780  44.595   8.968
    2AU     LIG 1001   4.042  44.848   9.266
    2AU     LIG 1002   4.241   0.076   9.638
    2AU     LIG 1003   4.185   0.288  10.078
    2AU     LIG 1004   4.101   0.567  10.469
    2AU       S 1005   2.897  44.757   7.715
    2AU     LIG 1006   3.147   0.099   7.959
    2AU     LIG 1007   3.228   0.557   8.145
    2AU     LIG 1008   3.546   0.965   8.178
    2AU     LIG 1009   3.846   1.383   8.184
    2AU     LIG 1010   3.917   1.850   8.266
    2AU     LIG 1011   3.918   2.311   8.387
    2AU    AUSL 1012   2.585  43.185   7.925
    2AU    AUSL 1013   2.938  43.313   7.726
    2AU     AUL 1014   2.773  43.071   8.187
    2AU       S 1015   2.635  42.644   8.023
    2AU     LIG 1016   2.543  42.315   8.269
    2AU     LIG 1017   2.232  41.980   8.238
    2AU     LIG 1018   2.152  41.520   8.214
    2AU     LIG 1019   1.990  41.097   8.384
    2AU     LIG 1020   2.086  40.810   8.755
    2AU     LIG 1021   2.265  40.567   9.122
    2AU       S 1022   3.219  42.939   7.949
    2AU     LIG 1023   3.310  42.475   8.094
    2AU     LIG 1024   3.492  42.065   8.283
    2AU     LIG 1025   3.713  41.767   8.567
    2AU     LIG 1026   3.904  41.334   8.723
    2AU     LIG 1027   4.182  41.133   9.023
    2AU     LIG 1028   4.638  41.086   9.127
    2AU    AUSL 1029   2.410  42.942   7.655
    2AU    AUSL 1030   2.295  43.298   8.187
    2AU     AUL 1031   2.336  42.986   8.039
    2AU       S 1032   2.372  42.591   7.815
    2AU     LIG 1033   2.013  42.307   7.726
    2AU     LIG 1034   1.889  41.865   7.834
    2AU     LIG 1035   1.666  41.505   8.061
    2AU     LIG 1036   1.611  41.033   8.015
    2AU     LIG 1037   1.768  40.627   8.217
    2AU     LIG 1038   1.966  40.371   8.538
    2AU       S 1039   1.987  43.149   8.279
    2AU     LIG 1040   1.670  42.733   8.328
    2AU     LIG 1041   1.390  42.345   8.398
    2AU     LIG 1042   1.132  41.993   8.594
    2AU     LIG 1043   0.841  41.766   8.883
    2AU     LIG 1044   0.669  41.687   9.317
    2AU     LIG 1045   0.625  41.442   9.720
    2AU    AUSL 1046   2.845  42.923   7.697
    2AU    AUSL 1047   2.349  42.943   7.249
    2AU     AUL 1048   2.655  42.673   7.464
    2AU       S 1049   2.253  42.634   7.132
    2AU     LIG 1050   1.913  42.336   7.191
    2AU     LIG 1051   1.773  41.939   7.299
    2AU     LIG 1052   1.797  41.493   7.122
    2AU     LIG 1053   1.788  41.062   6.929
    2AU     LIG 1054   1.864  40.640   6.766
    2AU     LIG 1055   1.828  40.224   6.580
    2AU       S 1056   2.757  42.706   7.899
    2AU     LIG 1057   2.691  42.207   7.783
    2AU     LIG 1058   2.490  41.764   7.850
    2AU     LIG 1059   2.578  41.300   8.002
    2AU     LIG 1060   2.757  40.844   8.061
    2AU     LIG 1061   2.853  40.443   8.292
    2AU     LIG 1062   3.003  40.360   8.729
    2AU    AUSL 1063   2.605  44.398   6.953
    2AU    AUSL 1064   2.904  44.185   7.252
    2AU     AUL 1065   2.982  44.490   7.006
    2AU       S 1066   2.645  44.699   6.770
    2AU     LIG 1067   2.876  44.980   6.510
    2AU     LIG 1068   2.977   0.415   6.378
    2AU     LIG 1069   3.076   0.739   6.042
    2AU     LIG 1070   3.138   1.002   5.640
    2AU     LIG 1071   3.038   1.405   5.408
    2AU     LIG 1072   2.971   1.774   5.112
    2AU       S 1073   3.341  44.202   6.957
    2AU     LIG 1074   3.684  44.588   6.800
    2AU     LIG 1075   4.003  44.764   6.469
    2AU     LIG 1076   4.231   0.030   6.143
    2AU     LIG 1077   4.469   0.450   6.051
    2AU     LIG 1078   4.698   0.882   6.031
    2AU     LIG 1079   4.885   1.296   5.854
    2AU    AUSL 1080   2.502  44.366   7.348
    2AU    AUSL 1081   2.362  44.094   7.055
    2AU     AUL 1082   2.332  44.567   7.099
    2AU       S 1083   2.689  44.860   6.999
    2AU     LIG 1084   2.778   0.331   6.868
    2AU     LIG 1085   2.780   0.777   6.724
    2AU     LIG 1086   2.501   1.177   6.697
    2AU     LIG 1087   2.505   1.606   6.517
    2AU     LIG 1088   2.513   2.047   6.346
    2AU     LIG 1089   2.163   2.342   6.360
    2AU       S 1090   2.168  44.357   6.716
    2AU     LIG 1091   2.145  44.411   6.287
    2AU     LIG 1092   1.952  44.710   5.959
    2AU     LIG 1093   1.692  44.906   5.600
    2AU     LIG 1094   1.589   0.188   5.206
    2AU     LIG 1095   1.371   0.466   4.870
    2AU     LIG 1096   1.098   0.754   4.608
    2AU    AUSL 1097   2.677  43.046   6.980
    2AU    AUSL 1098   2.281  43.326   7.334
    2AU     AUL 1099   2.361  43.035   6.905
    2AU       S 1100   1.889  42.963   7.109
    2AU     LIG 1101   1.609  42.707   7.305
    2AU     LIG 1102   1.363  42.329   7.152
    2AU     LIG 1103   0.952  42.068   6.975
    2AU     LIG 1104   0.582  41.827   6.717
    2AU     LIG 1105   0.337  41.604   6.331
    2AU     LIG 1106   0.111  41.212   6.090
    2AU       S 1107   2.497  42.613   7.017
    2AU     LIG 1108   2.276  42.210   6.859
    2AU     LIG 1109   1.928  41.894   6.805
    2AU     LIG 1110   1.945  41.453   6.630
    2AU     LIG 1111   1.940  41.031   6.415
    2AU     LIG 1112   1.924  40.839   5.975
    2AU     LIG 1113   2.135  40.897   5.538
    2AU    AUSL 1114   2.687  43.128   7.389
    2AU    AUSL 1115   2.815  43.401   7.097
    2AU     AUL 1116   2.856  42.907   7.140
    2AU       S 1117   2.261  42.738   7.267
    2AU     LIG 1118   2.375  42.223   7.370
    2AU     LIG 1119   2.256  41.756   7.196
    2AU     LIG 1120   2.265  41.254   7.041
    2AU     LIG 1121   2.516  40.808   6.949
    2AU     LIG 1122   2.916  40.603   6.743
    2AU     LIG 1123   3.166  40.392   6.401
    2AU       S 1124   3.085  43.005   6.759
    2AU     LIG 1125   3.082  42.546   6.692
    2AU     LIG 1126   3.319  42.227   6.394
    2AU     LIG 1127   3.575  42.031   6.023
    2AU     LIG 1128   3.615  41.833   5.568
    2AU     LIG 1129   3.726  41.697   5.117
    2AU     LIG 1130   3.843  41.408   4.735
    3AU     AUC 1131  31.584  37.353   7.499
    3AU     AUC 1132  31.848  37.349   7.341
    3AU     AUC 1133  31.837  37.348   7.651
    3AU     AUC 1134  31.333  37.355   7.330
    3AU     AUC 1135  31.323  37.377   7.647
    3AU     AUC 1136  31.436  37.611   7.489
    3AU     AUC 1137  31.749  37.606   7.480
    3AU     AUC 1138  31.427  37.100   7.514
    3AU     AUC 1139  31.721  37.098   7.527
    3AU     AUC 1140  31.573  37.212   7.764
    3AU     AUC 1141  31.598  37.523   7.749
    3AU     AUC 1142  31.585  37.184   7.248
    3AU     AUC 1143  31.580  37.487   7.234
    3AU     AUC 1144  32.098  37.334   7.183
    3AU     AUC 1145  32.103  37.351   7.491
    3AU     AUC 1146  32.095  37.350   7.798
    3AU     AUC 1147  31.075  37.342   7.174
    3AU     AUC 1148  31.066  37.372   7.484
    3AU     AUC 1149  31.074  37.398   7.805
    3AU     AUC 1150  31.293  37.878   7.485
    3AU     AUC 1151  31.604  37.875   7.481
    3AU     AUC 1152  31.898  37.867   7.477
    3AU     AUC 1153  31.245  36.847   7.525
    3AU     AUC 1154  31.561  36.832   7.518
    3AU     AUC 1155  31.876  36.833   7.540
    3AU     AUC 1156  31.555  37.067   8.021
    3AU     AUC 1157  31.582  37.377   8.025
    3AU     AUC 1158  31.605  37.684   8.006
    3AU     AUC 1159  31.586  37.005   7.011
    3AU     AUC 1160  31.598  37.322   6.976
    3AU     AUC 1161  31.582  37.627   6.967
    3AU     AUC 1162  31.846  37.215   7.929
    3AU     AUC 1163  31.855  37.507   7.912
    3AU     AUC 1164  31.858  37.169   7.090
    3AU     AUC 1165  31.863  37.476   7.070
    3AU     AUC 1166  31.310  37.235   7.925
    3AU     AUC 1167  31.334  37.545   7.919
    3AU     AUC 1168  31.337  37.186   7.067
    3AU     AUC 1169  31.328  37.492   7.067
    3AU     AUC 1170  32.003  37.610   7.314
    3AU     AUC 1171  32.017  37.600   7.631
    3AU     AUC 1172  31.168  37.609   7.336
    3AU     AUC 1173  31.178  37.639   7.657
    3AU     AUC 1174  31.995  37.079   7.360
    3AU     AUC 1175  31.996  37.093   7.677
    3AU     AUC 1176  31.160  37.102   7.336
    3AU     AUC 1177  31.162  37.120   7.680
    3AU     AUC 1178  31.440  37.782   7.755
    3AU     AUC 1179  31.759  37.784   7.728
    3AU     AUC 1180  31.401  36.941   7.763
    3AU     AUC 1181  31.720  36.950   7.796
    3AU     AUC 1182  31.429  37.760   7.224
    3AU     AUC 1183  31.746  37.746   7.210
    3AU     AUC 1184  31.409  36.936   7.250
    3AU     AUC 1185  31.737  36.919   7.278
    3AU    AUSL 1186  31.934  37.312   8.091
    3AU    AUSL 1187  31.875  36.897   8.150
    3AU     AUL 1188  32.115  36.981   8.415
    3AU       S 1189  32.169  36.587   8.144
    3AU     LIG 1190  31.976  36.310   8.413
    3AU     LIG 1191  32.128  35.925   8.588
    3AU     LIG 1192  32.353  35.596   8.841
    3AU     LIG 1193  32.674  35.342   9.090
    3AU     LIG 1194  32.876  35.231   9.504
    3AU     LIG 1195  32.894  35.173   9.994
    3AU       S 1196  31.983  37.358   8.657
    3AU     LIG 1197  32.175  37.035   8.928
    3AU     LIG 1198  32.403  36.845   9.309
    3AU     LIG 1199  32.733  36.806   9.659
    3AU     LIG 1200  33.105  36.838   9.971
    3AU     LIG 1201  33.312  36.773  10.395
    3AU     LIG 1202  33.638  36.838  10.731
    3AU    AUSL 1203  31.651  37.179   8.358
    3AU    AUSL 1204  31.516  37.564   8.268
    3AU     AUL 1205  31.571  37.552   8.691
    3AU       S 1206  31.722  37.180   8.505
    3AU     LIG 1207  31.755  36.786   8.724
    3AU     LIG 1208  31.954  36.613   9.151
    3AU     LIG 1209  32.111  36.516   9.622
    3AU     LIG 1210  32.106  36.343  10.098
    3AU     LIG 1211  32.108  36.295  10.593
    3AU     LIG 1212  32.333  36.243  11.011
    3AU       S 1213  31.232  37.262   8.626
    3AU     LIG 1214  31.071  37.198   9.078
    3AU     LIG 1215  30.869  37.146   9.495
    3AU     LIG 1216  30.728  37.188   9.936
    3AU     LIG 1217  30.754  37.529  10.285
    3AU     LIG 1218  30.846  37.797  10.679
    3AU     LIG 1219  30.678  37.902  11.108
    3AU    AUSL 1220  31.902  37.671   8.278
    3AU    AUSL 1221  32.237  37.559   7.963
    3AU     AUL 1222  32.229  37.399   8.281
    3AU       S 1223  31.932  37.711   8.455
    3AU     LIG 1224  32.085  37.833   8.877
    3AU     LIG 1225  32.076  37.991   9.357
    3AU     LIG 1226  32.046  38.134   9.844
    3AU     LIG 1227  32.127  38.247  10.318
    3AU     LIG 1228  32.240  38.128  10.771
    3AU     LIG 1229  32.494  38.068  11.172
    3AU       S 1230  32.523  37.623   8.004
    3AU     LIG 1231  32.736  37.608   8.402
    3AU     LIG 1232  33.001  37.869   8.697
    3AU     LIG 1233  33.281  38.178   8.946
    3AU     LIG 1234  33.574  38.342   9.311
    3AU     LIG 1235  33.954  38.391   9.639
    3AU     LIG 1236  34.272  38.549   9.979
    3AU    AUSL 1237  32.135  37.361   6.867
    3AU    AUSL 1238  31.901  37.751   6.813
    3AU     AUL 1239  32.263  37.689   6.441
    3AU       S 1240  32.175  37.381   6.722
    3AU     LIG 1241  32.472  37.262   6.334
    3AU     LIG 1242  32.508  37.099   5.906
    3AU     LIG 1243  32.636  36.978   5.454
    3AU     LIG 1244  32.966  36.831   5.112
    3AU     LIG 1245  33.350  36.717   4.811
    3AU     LIG 1246  33.631  36.741   4.407
    3AU       S 1247  31.911  37.804   6.663
    3AU     LIG 1248  32.170  38.158   6.552
    3AU     LIG 1249  32.525  38.186   6.254
    3AU     LIG 1250  32.849  38.386   5.943
    3AU     LIG 1251  33.106  38.439   5.527
    3AU     LIG 1252  33.172  38.683   5.109
    3AU     LIG 1253  33.270  39.096   4.912
    3AU    AUSL 1254  31.867  37.044   6.725
    3AU    AUSL 1255  32.196  36.989   7.022
    3AU     AUL 1256  32.283  36.967   6.678
    3AU       S 1257  32.278  36.555   6.890
    3AU     LIG 1258  32.476  36.256   6.588
    3AU     LIG 1259  32.679  35.930   6.307
    3AU     LIG 1260  32.932  35.654   6.023
    3AU     LIG 1261  33.319  35.696   5.745
    3AU     LIG 1262  33.708  35.856   5.507
    3AU     LIG 1263  34.068  35.827   5.200
    3AU       S 1264  31.979  37.262   6.445
    3AU     LIG 1265  32.074  36.902   6.212
    3AU     LIG 1266  32.171  36.732   5.777
    3AU     LIG 1267  32.219  36.712   5.303
    3AU     LIG 1268  32.270  36.487   4.882
    3AU     LIG 1269  32.310  36.388   4.416
    3AU     LIG 1270  32.496  36.576   4.031
    3AU    AUSL 1271  31.727  37.397   6.896
    3AU    AUSL 1272  31.470  37.156   6.681
    3AU     AUL 1273  31.657  36.950   6.561
    3AU       S 1274  31.196  37.305   6.371
    3AU     LIG 1275  31.267  36.907   6.133
    3AU     LIG 1276  31.140  36.668   5.732
    3AU     LIG 1277  30.889  36.643   5.325
    3AU     LIG 1278  30.602  36.466   4.968
    3AU     LIG 1279  30.518  36.327   4.506
    3AU     LIG 1280  30.561  36.383   4.033
    3AU       S 1281  31.868  37.371   6.491
    3AU     LIG 1282  32.049  37.376   5.986
    3AU     LIG 1283  32.153  37.197   5.545
    3AU     LIG 1284  32.263  37.197   5.079
    3AU     LIG 1285  32.200  37.433   4.649
    3AU     LIG 1286  32.351  37.710   4.283
    3AU     LIG 1287  32.374  37.886   3.846
    3AU    AUSL 1288  31.134  37.442   8.211
    3AU    AUSL 1289  31.271  37.850   8.118
    3AU     AUL 1290  31.317  37.790   8.413
    3AU       S 1291  31.081  37.446   8.632
    3AU     LIG 1292  30.725  37.149   8.688
    3AU     LIG 1293  30.545  37.013   9.108
    3AU     LIG 1294  30.369  36.998   9.565
    3AU     LIG 1295  30.039  37.016   9.926
    3AU     LIG 1296  29.732  37.009  10.302
    3AU     LIG 1297  29.390  37.219  10.563
    3AU       S 1298  30.860  37.818   8.339
    3AU     LIG 1299  30.930  37.916   8.765
    3AU     LIG 1300  30.778  38.248   9.053
    3AU     LIG 1301  30.606  38.588   9.348
    3AU     LIG 1302  30.512  38.740   9.809
    3AU     LIG 1303  30.327  38.994  10.186
    3AU     LIG 1304  30.193  39.384  10.434
    3AU    AUSL 1305  31.431  37.234   8.025
    3AU    AUSL 1306  30.933  37.160   7.995
    3AU     AUL 1307  30.936  37.271   8.235
    3AU       S 1308  30.774  36.826   8.203
    3AU     LIG 1309  30.366  36.845   8.111
    3AU     LIG 1310  30.041  36.535   8.232
    3AU     LIG 1311  29.808  36.196   8.498
    3AU     LIG 1312  29.592  35.840   8.739
    3AU     LIG 1313  29.385  35.669   9.130
    3AU     LIG 1314  29.066  35.699   9.477
    3AU       S 1315  31.242  37.148   8.581
    3AU     LIG 1316  31.087  36.779   8.782
    3AU     LIG 1317  30.942  36.698   9.235
    3AU     LIG 1318  30.761  36.671   9.690
    3AU     LIG 1319  30.635  36.434  10.101
    3AU     LIG 1320  30.588  36.313  10.565
    3AU     LIG 1321  30.434  36.278  11.018
    3AU    AUSL 1322  31.164  37.327   6.881
    3AU    AUSL 1323  31.332  36.880   6.940
    3AU     AUL 1324  31.189  36.934   6.641
    3AU       S 1325  30.940  37.306   6.614
    3AU     LIG 1326  30.787  37.008   6.282
    3AU     LIG 1327  30.714  36.952   5.792
    3AU     LIG 1328  30.436  36.882   5.385
    3AU     LIG 1329  30.110  36.822   5.023
    3AU     LIG 1330  29.885  36.941   4.608
    3AU     LIG 1331  29.566  37.121   4.279
    3AU       S 1332  30.905  36.593   6.809
    3AU     LIG 1333  30.708  36.197   6.765
    3AU     LIG 1334  30.424  35.918   6.515
    3AU     LIG 1335  30.174  35.624   6.226
    3AU     LIG 1336  29.924  35.309   5.945
    3AU     LIG 1337  29.899  35.090   5.488
    3AU     LIG 1338  29.855  35.001   5.000
    3AU    AUSL 1339  31.454  37.591   6.671
    3AU    AUSL 1340  30.926  37.642   6.969
    3AU     AUL 1341  31.139  37.712   6.637
    3AU       S 1342  30.711  37.815   6.813
    3AU     LIG 1343  30.379  37.933   6.536
    3AU     LIG 1344  30.324  38.167   6.131
    3AU     LIG 1345  30.245  38.382   5.699
    3AU     LIG 1346  29.905  38.491   5.340
    3AU     LIG 1347  29.495  38.622   5.081
    3AU     LIG 1348  29.064  38.817   4.936
    3AU       S 1349  31.394  37.362   6.462
    3AU     LIG 1350  31.506  37.327   5.986
    3AU     LIG 1351  31.189  37.176   5.626
    3AU     LIG 1352  30.996  37.180   5.166
    3AU     LIG 1353  31.011  37.397   4.706
    3AU     LIG 1354  30.998  37.612   4.255
    3AU     LIG 1355  30.876  37.786   3.815
    3AU    AUSL 1356  32.200  37.960   7.412
    3AU    AUSL 1357  32.232  37.698   7.080
    3AU     AUL 1358  32.371  38.160   7.214
    3AU       S 1359  32.376  37.806   6.875
    3AU     LIG 1360  32.737  37.747   6.592
    3AU     LIG 1361  33.007  37.997   6.276
    3AU     LIG 1362  33.321  38.172   5.944
    3AU     LIG 1363  33.705  38.278   5.662
    3AU     LIG 1364  34.109  38.377   5.403
    3AU     LIG 1365  34.253  38.640   5.040
    3AU       S 1366  32.663  37.811   7.336
    3AU     LIG 1367  33.137  37.847   7.483
    3AU     LIG 1368  33.615  37.953   7.526
    3AU     LIG 1369  34.095  38.077   7.538
    3AU     LIG 1370  34.389  38.447   7.639
    3AU     LIG 1371  34.634  38.844   7.534
    3AU     LIG 1372  34.833  39.272   7.596
    3AU    AUSL 1373  32.424  37.381   7.241
    3AU    AUSL 1374  32.409  37.239   7.664
    3AU     AUL 1375  32.698  37.150   7.450
    3AU       S 1376  32.645  37.574   7.269
    3AU     LIG 1377  33.070  37.405   7.234
    3AU     LIG 1378  33.507  37.522   7.246
    3AU     LIG 1379  33.947  37.673   7.245
    3AU     LIG 1380  34.394  37.714   7.083
    3AU     LIG 1381  34.829  37.871   6.997
    3AU     LIG 1382  35.197  38.163   7.048
    3AU       S 1383  32.693  36.754   7.734
    3AU     LIG 1384  33.101  36.647   7.785
    3AU     LIG 1385  33.530  36.495   7.835
    3AU     LIG 1386  33.912  36.267   7.695
    3AU     LIG 1387  34.359  36.331   7.805
    3AU     LIG 1388  34.807  36.400   7.973
    3AU     LIG 1389  35.255  36.502   8.033
    3AU    AUSL 1390  32.218  37.577   7.555
    3AU    AUSL 1391  32.112  37.924   7.810
    3AU     AUL 1392  32.365  37.924   7.678
    3AU       S 1393  32.360  37.817   8.110
    3AU     LIG 1394  32.770  38.057   8.125
    3AU     LIG 1395  32.970  38.319   8.452
    3AU     LIG 1396  33.109  38.643   8.754
    3AU     LIG 1397  33.259  39.055   8.917
    3AU     LIG 1398  33.609  39.304   9.079
    3AU     LIG 1399  33.714  39.760   9.012
    3AU       S 1400  32.679  37.624   7.546
    3AU     LIG 1401  32.997  37.423   7.764
    3AU     LIG 1402  33.463  37.514   7.762
    3AU     LIG 1403  33.940  37.640   7.787
    3AU     LIG 1404  34.417  37.733   7.815
    3AU     LIG 1405  34.868  37.572   7.711
    3AU     LIG 1406  35.352  37.609   7.790
    3AU    AUSL 1407  30.927  37.903   7.568
    3AU    AUSL 1408  30.978  37.656   7.907
    3AU     AUL 1409  30.935  38.110   7.803
    3AU       S 1410  30.767  37.737   8.097
    3AU     LIG 1411  30.388  37.770   8.455
    3AU     LIG 1412  30.282  38.021   8.842
    3AU     LIG 1413  30.100  38.121   9.271
    3AU     LIG 1414  29.819  38.245   9.652
    3AU     LIG 1415  29.525  38.494   9.960
    3AU     LIG 1416  29.199  38.823  10.107
    3AU       S 1417  30.536  37.921   7.682
    3AU     LIG 1418  30.419  38.308   7.415
    3AU     LIG 1419  30.013  38.586   7.445
    3AU     LIG 1420  29.642  38.920   7.519
    3AU     LIG 1421  29.259  39.241   7.573
    3AU     LIG 1422  28.833  39.426   7.710
    3AU     LIG 1423  28.393  39.581   7.801
    3AU    AUSL 1424  31.005  37.566   7.353
    3AU    AUSL 1425  31.096  37.984   7.202
    3AU     AUL 1426  30.808  37.896   7.263
    3AU       S 1427  30.429  37.830   7.526
    3AU     LIG 1428  30.287  37.899   7.086
    3AU     LIG 1429  29.909  37.971   6.766
    3AU     LIG 1430  29.404  38.091   6.677
    3AU     LIG 1431  28.904  38.110   6.655
    3AU     LIG 1432  28.423  38.114   6.702
    3AU     LIG 1433  27.991  38.219   6.852
    3AU       S 1434  30.831  38.214   6.930
    3AU     LIG 1435  30.584  38.413   6.549
    3AU     LIG 1436  30.535  38.649   6.127
    3AU     LIG 1437  30.494  39.079   5.904
    3AU     LIG 1438  30.371  39.554   5.874
    3AU     LIG 1439  30.059  39.912   5.832
    3AU     LIG 1440  29.756  40.248   5.682
    3AU    AUSL 1441  30.727  37.490   7.649
    3AU    AUSL 1442  30.760  37.246   7.300
    3AU     AUL 1443  30.593  37.500   7.257
    3AU       S 1444  30.411  37.033   7.434
    3AU     LIG 1445  30.033  36.858   7.718
    3AU     LIG 1446  29.510  36.868   7.722
    3AU     LIG 1447  28.993  36.787   7.681
    3AU     LIG 1448  28.574  36.644   7.400
    3AU     LIG 1449  28.143  36.517   7.149
    3AU     LIG 1450  27.734  36.458   6.909
    3AU       S 1451  30.545  37.510   7.737
    3AU     LIG 1452  30.205  37.671   7.990
    3AU     LIG 1453  29.956  38.017   8.210
    3AU     LIG 1454  29.491  38.148   8.118
    3AU     LIG 1455  29.055  38.247   8.321
    3AU     LIG 1456  28.658  38.512   8.411
    3AU     LIG 1457  28.226  38.668   8.541
    3AU    AUSL 1458  32.265  36.848   7.585
    3AU    AUSL 1459  32.217  37.055   7.967
    3AU     AUL 1460  32.520  37.125   7.927
    3AU       S 1461  32.424  36.581   7.572
    3AU     LIG 1462  32.730  36.262   7.695
    3AU     LIG 1463  33.186  36.154   7.636
    3AU     LIG 1464  33.579  35.939   7.482
    3AU     LIG 1465  33.928  35.599   7.455
    3AU     LIG 1466  34.294  35.272   7.388
    3AU     LIG 1467  34.705  35.191   7.170
    3AU       S 1468  32.239  36.752   8.045
    3AU     LIG 1469  32.647  36.488   8.171
    3AU     LIG 1470  32.668  36.117   8.489
    3AU     LIG 1471  32.841  35.746   8.764
    3AU     LIG 1472  33.138  35.572   9.120
    3AU     LIG 1473  33.550  35.532   9.378
    3AU     LIG 1474  33.971  35.449   9.606
    3AU    AUSL 1475  32.116  37.168   7.376
    3AU    AUSL 1476  32.037  36.700   7.282
    3AU     AUL 1477  32.390  36.906   7.204
    3AU       S 1478  32.449  36.759   7.620
    3AU     LIG 1479  32.853  36.657   7.294
    3AU     LIG 1480  33.335  36.546   7.319
    3AU     LIG 1481  33.769  36.343   7.196
    3AU     LIG 1482  34.250  36.419   7.266
    3AU     LIG 1483  34.704  36.427   7.052
    3AU     LIG 1484  35.179  36.368   7.106
    3AU       S 1485  32.274  36.461   7.104
    3AU     LIG 1486  32.133  36.063   6.931
    3AU     LIG 1487  32.332  35.733   6.646
    3AU     LIG 1488  32.595  35.423   6.382
    3AU     LIG 1489  32.783  35.139   6.047
    3AU     LIG 1490  33.089  34.793   5.915
    3AU     LIG 1491  33.514  34.581   5.959
    3AU    AUSL 1492  30.870  36.867   7.465
    3AU    AUSL 1493  30.966  37.016   7.048
    3AU     AUL 1494  30.663  37.078   7.029
    3AU       S 1495  30.890  36.685   7.016
    3AU     LIG 1496  30.415  36.643   6.910
    3AU     LIG 1497  30.147  36.290   6.768
    3AU     LIG 1498  29.900  35.994   6.473
    3AU     LIG 1499  29.677  35.771   6.109
    3AU     LIG 1500  29.375  35.783   5.730
    3AU     LIG 1501  29.037  35.639   5.422
    3AU       S 1502  30.577  36.829   7.415
    3AU     LIG 1503  30.205  36.556   7.357
    3AU     LIG 1504  29.739  36.548   7.385
    3AU     LIG 1505  29.254  36.489   7.357
    3AU     LIG 1506  28.848  36.194   7.373
    3AU     LIG 1507  28.584  35.769   7.421
    3AU     LIG 1508  28.181  35.677   7.656
    3AU    AUSL 1509  31.028  37.224   7.615
    3AU    AUSL 1510  31.112  36.839   7.802
    3AU     AUL 1511  30.739  37.033   7.795
    3AU       S 1512  30.845  36.624   7.964
    3AU     LIG 1513  30.472  36.455   7.794
    3AU     LIG 1514  30.192  36.108   7.989
    3AU     LIG 1515  29.960  35.762   8.262
    3AU     LIG 1516  29.784  35.388   8.537
    3AU     LIG 1517  29.628  34.921   8.653
    3AU     LIG 1518  29.335  34.512   8.660
    3AU       S 1519  30.452  37.109   7.457
    3AU     LIG 1520  29.962  37.015   7.244
    3AU     LIG 1521  29.468  36.953   7.213
    3AU     LIG 1522  28.990  36.948   7.205
    3AU     LIG 1523  28.661  37.148   7.484
    3AU     LIG 1524  28.301  36.941   7.735
    3AU     LIG 1525  28.105  36.513   7.831
    3AU    AUSL 1526  31.618  38.033   8.005
    3AU    AUSL 1527  31.298  37.826   7.714
    3AU     AUL 1528  31.316  38.146   8.072
    3AU       S 1529  30.920  37.975   8.237
    3AU     LIG 1530  30.631  38.249   8.516
    3AU     LIG 1531  30.521  38.620   8.810
    3AU     LIG 1532  30.524  39.074   8.990
    3AU     LIG 1533  30.405  39.549   9.060
    3AU     LIG 1534  30.072  39.873   9.159
    3AU     LIG 1535  29.674  39.947   9.419
    3AU       S 1536  31.679  38.429   7.965
    3AU     LIG 1537  31.931  38.505   8.318
    3AU     LIG 1538  32.051  38.912   8.527
    3AU     LIG 1539  32.016  39.317   8.793
    3AU     LIG 1540  31.956  39.550   9.225
    3AU     LIG 1541  31.841  39.910   9.523
    3AU     LIG 1542  31.970  40.356   9.660
    3AU    AUSL 1543  31.380  38.207   7.631
    3AU    AUSL 1544  31.813  38.181   7.248
    3AU     AUL 1545  31.424  38.409   7.362
    3AU       S 1546  31.563  38.490   7.800
    3AU     LIG 1547  31.753  38.913   8.041
    3AU     LIG 1548  31.856  39.326   8.280
    3AU     LIG 1549  31.851  39.798   8.366
    3AU     LIG 1550  31.591  40.225   8.414
    3AU     LIG 1551  31.305  40.620   8.525
    3AU     LIG 1552  31.105  41.028   8.700
    3AU       S 1553  31.857  38.493   7.169
    3AU     LIG 1554  32.225  38.761   7.065
    3AU     LIG 1555  32.328  39.219   6.952
    3AU     LIG 1556  32.311  39.644   6.718
    3AU     LIG 1557  32.309  40.117   6.695
    3AU     LIG 1558  32.460  40.544   6.551
    3AU     LIG 1559  32.557  40.879   6.236
    3AU    AUSL 1560  31.775  38.049   7.628
    3AU    AUSL 1561  31.795  37.687   7.896
    3AU     AUL 1562  31.945  38.064   8.034
    3AU       S 1563  32.326  37.857   8.219
    3AU     LIG 1564  32.509  38.044   8.590
    3AU     LIG 1565  32.760  38.271   8.929
    3AU     LIG 1566  33.022  38.516   9.242
    3AU     LIG 1567  33.181  38.917   9.413
    3AU     LIG 1568  33.263  39.105   9.829
    3AU     LIG 1569  33.203  39.377  10.207
    3AU       S 1570  31.841  38.361   7.682
    3AU     LIG 1571  32.161  38.633   7.872
    3AU     LIG 1572  32.258  39.068   8.069
    3AU     LIG 1573  32.262  39.549   8.041
    3AU     LIG 1574  32.352  39.952   8.272
    3AU     LIG 1575  32.566  40.363   8.415
    3AU     LIG 1576  32.580  40.798   8.626
    3AU    AUSL 1577  31.543  36.799   7.937
    3AU    AUSL 1578  31.899  36.920   7.741
    3AU     AUL 1579  31.728  36.690   8.202
    3AU       S 1580  31.593  36.259   8.052
    3AU     LIG 1581  31.642  35.890   8.267
    3AU     LIG 1582  31.442  35.476   8.207
    3AU     LIG 1583  31.236  35.078   8.312
    3AU     LIG 1584  31.226  34.790   8.677
    3AU     LIG 1585  31.340  34.608   9.101
    3AU     LIG 1586  31.409  34.214   9.337
    3AU       S 1587  32.176  36.557   7.976
    3AU     LIG 1588  32.314  36.092   8.090
    3AU     LIG 1589  32.483  35.668   8.321
    3AU     LIG 1590  32.654  35.284   8.567
    3AU     LIG 1591  32.769  34.884   8.809
    3AU     LIG 1592  33.112  34.539   8.896
    3AU     LIG 1593  33.560  34.338   8.943
    3AU    AUSL 1594  31.369  36.550   7.672
    3AU    AUSL 1595  31.252  36.921   8.193
    3AU     AUL 1596  31.291  36.602   8.049
    3AU       S 1597  31.358  36.187   7.868
    3AU     LIG 1598  31.191  35.762   7.859
    3AU     LIG 1599  31.061  35.298   7.874
    3AU     LIG 1600  30.811  34.891   7.999
    3AU     LIG 1601  30.524  34.475   7.986
    3AU     LIG 1602  30.479  33.998   8.133
    3AU     LIG 1603  30.574  33.575   8.393
    3AU       S 1604  30.942  36.776   8.282
    3AU     LIG 1605  30.573  36.399   8.320
    3AU     LIG 1606  30.306  36.082   8.498
    3AU     LIG 1607  30.095  35.767   8.764
    3AU     LIG 1608  29.861  35.474   9.050
    3AU     LIG 1609  29.797  35.241   9.463
    3AU     LIG 1610  29.806  34.965   9.863
    3AU    AUSL 1611  31.805  36.530   7.720
    3AU    AUSL 1612  31.312  36.542   7.266
    3AU     AUL 1613  31.606  36.279   7.493
    3AU       S 1614  31.197  36.224   7.168
    3AU     LIG 1615  30.911  35.857   7.125
    3AU     LIG 1616  30.784  35.399   7.083
    3AU     LIG 1617  30.563  35.009   6.885
    3AU     LIG 1618  30.349  34.592   6.717
    3AU     LIG 1619  30.158  34.212   6.489
    3AU     LIG 1620  30.198  33.738   6.367
    3AU       S 1621  31.729  36.321   7.923
    3AU     LIG 1622  31.717  35.850   7.761
    3AU     LIG 1623  31.552  35.402   7.708
    3AU     LIG 1624  31.596  34.979   7.937
    3AU     LIG 1625  31.776  34.522   7.967
    3AU     LIG 1626  31.915  34.067   8.072
    3AU     LIG 1627  31.941  33.595   8.202
    3AU    AUSL 1628  31.589  37.981   6.936
    3AU    AUSL 1629  31.879  37.781   7.244
    3AU     AUL 1630  31.972  38.081   6.999
    3AU       S 1631  31.664  38.338   6.769
    3AU     LIG 1632  32.008  38.630   6.616
    3AU     LIG 1633  32.178  39.062   6.485
    3AU     LIG 1634  32.068  39.469   6.255
    3AU     LIG 1635  32.109  39.665   5.811
    3AU     LIG 1636  32.013  40.017   5.490
    3AU     LIG 1637  31.958  40.370   5.173
    3AU       S 1638  32.328  37.783   6.957
    3AU     LIG 1639  32.628  38.209   6.776
    3AU     LIG 1640  32.889  38.485   6.461
    3AU     LIG 1641  33.020  38.850   6.158
    3AU     LIG 1642  33.340  39.206   6.085
    3AU     LIG 1643  33.592  39.612   6.099
    3AU     LIG 1644  33.934  39.941   5.983
    3AU    AUSL 1645  31.478  37.955   7.330
    3AU    AUSL 1646  31.330  37.689   7.042
    3AU     AUL 1647  31.304  38.114   6.987
    3AU       S 1648  31.680  38.444   6.995
    3AU     LIG 1649  31.753  38.936   6.926
    3AU     LIG 1650  31.864  39.374   6.748
    3AU     LIG 1651  31.819  39.832   6.600
    3AU     LIG 1652  31.494  40.200   6.521
    3AU     LIG 1653  31.363  40.591   6.274
    3AU     LIG 1654  31.123  41.011   6.266
    3AU       S 1655  30.890  38.067   6.771
    3AU     LIG 1656  30.839  38.045   6.299
    3AU     LIG 1657  30.758  38.264   5.856
    3AU     LIG 1658  30.702  38.525   5.438
    3AU     LIG 1659  30.740  38.840   5.053
    3AU     LIG 1660  30.508  39.131   4.736
    3AU     LIG 1661  30.146  39.420   4.608
    3AU    AUSL 1662  31.648  36.634   6.999
    3AU    AUSL 1663  31.247  36.928   7.341
    3AU     AUL 1664  31.346  36.612   6.939
    3AU       S 1665  30.861  36.571   7.107
    3AU     LIG 1666  30.620  36.269   7.265
    3AU     LIG 1667  30.373  35.910   7.046
    3AU     LIG 1668  30.097  35.609   6.765
    3AU     LIG 1669  29.790  35.388   6.465
    3AU     LIG 1670  29.638  34.960   6.329
    3AU     LIG 1671  29.298  34.657   6.183
    3AU       S 1672  31.464  36.192   7.051
    3AU     LIG 1673  31.210  35.994   6.731
    3AU     LIG 1674  31.130  35.543   6.727
    3AU     LIG 1675  31.329  35.129   6.623
    3AU     LIG 1676  31.463  34.832   6.280
    3AU     LIG 1677  31.515  34.681   5.829
    3AU     LIG 1678  31.453  34.376   5.472
    3AU    AUSL 1679  31.650  36.729   7.406
    3AU    AUSL 1680  31.784  36.993   7.109
    3AU     AUL 1681  31.821  36.498   7.168
    3AU       S 1682  31.208  36.330   7.298
    3AU     LIG 1683  31.362  35.823   7.383
    3AU     LIG 1684  31.334  35.382   7.197
    3AU     LIG 1685  31.487  34.936   7.077
    3AU     LIG 1686  31.741  34.529   7.006
    3AU     LIG 1687  31.947  34.115   6.930
    3AU     LIG 1688  31.937  33.640   6.869
    3AU       S 1689  32.053  36.587   6.784
    3AU     LIG 1690  31.975  36.270   6.481
    3AU     LIG 1691  32.175  35.943   6.201
    3AU     LIG 1692  32.414  35.620   5.942
    3AU     LIG 1693  32.535  35.305   5.609
    3AU     LIG 1694  32.768  35.125   5.232
    3AU     LIG 1695  33.183  34.966   5.071
    4AU     AUC 1696  39.374   6.276   7.503
    4AU     AUC 1697  39.636   6.276   7.341
    4AU     AUC 1698  39.629   6.271   7.651
    4AU     AUC 1699  39.123   6.278   7.340
    4AU     AUC 1700  39.115   6.297   7.654
    4AU     AUC 1701  39.224   6.534   7.496
    4AU     AUC 1702  39.536   6.531   7.484
    4AU     AUC 1703  39.220   6.021   7.517
    4AU     AUC 1704  39.514   6.022   7.526
    4AU     AUC 1705  39.368   6.131   7.766
    4AU     AUC 1706  39.390   6.443   7.755
    4AU     AUC 1707  39.374   6.110   7.248
    4AU     AUC 1708  39.364   6.412   7.239
    4AU     AUC 1709  39.884   6.267   7.180
    4AU     AUC 1710  39.893   6.280   7.488
    4AU     AUC 1711  39.889   6.274   7.796
    4AU     AUC 1712  38.864   6.264   7.189
    4AU     AUC 1713  38.857   6.293   7.496
    4AU     AUC 1714  38.868   6.316   7.816
    4AU     AUC 1715  39.082   6.801   7.498
    4AU     AUC 1716  39.389   6.799   7.489
    4AU     AUC 1717  39.681   6.792   7.482
    4AU     AUC 1718  39.040   5.767   7.527
    4AU     AUC 1719  39.356   5.755   7.516
    4AU     AUC 1720  39.671   5.757   7.534
    4AU     AUC 1721  39.354   5.984   8.020
    4AU     AUC 1722  39.379   6.293   8.029
    4AU     AUC 1723  39.399   6.601   8.014
    4AU     AUC 1724  39.374   5.932   7.014
    4AU     AUC 1725  39.385   6.249   6.980
    4AU     AUC 1726  39.361   6.556   6.973
    4AU     AUC 1727  39.643   6.134   7.927
    4AU     AUC 1728  39.648   6.427   7.915
    4AU     AUC 1729  39.646   6.100   7.088
    4AU     AUC 1730  39.645   6.407   7.071
    4AU     AUC 1731  39.106   6.152   7.931
    4AU     AUC 1732  39.128   6.462   7.928
    4AU     AUC 1733  39.127   6.107   7.075
    4AU     AUC 1734  39.113   6.414   7.078
    4AU     AUC 1735  39.788   6.539   7.315
    4AU     AUC 1736  39.806   6.524   7.633
    4AU     AUC 1737  38.954   6.532   7.349
    4AU     AUC 1738  38.969   6.560   7.669
    4AU     AUC 1739  39.787   6.008   7.355
    4AU     AUC 1740  39.791   6.018   7.672
    4AU     AUC 1741  38.950   6.023   7.346
    4AU     AUC 1742  38.957   6.037   7.687
    4AU     AUC 1743  39.231   6.701   7.766
    4AU     AUC 1744  39.549   6.705   7.734
    4AU     AUC 1745  39.198   5.859   7.764
    4AU     AUC 1746  39.517   5.870   7.793
    4AU     AUC 1747  39.211   6.684   7.232
    4AU     AUC 1748  39.528   6.673   7.215
    4AU     AUC 1749  39.200   5.859   7.251
    4AU     AUC 1750  39.529   5.846   7.275
    4AU    AUSL 1751  39.729   6.230   8.092
    4AU    AUSL 1752  39.680   5.811   8.142
    4AU     AUL 1753  39.918   5.890   8.404
    4AU       S 1754  39.944   5.522   8.078
    4AU     LIG 1755  39.820   5.286   8.432
    4AU     LIG 1756  39.869   4.866   8.597
    4AU     LIG 1757  40.128   4.550   8.830
    4AU     LIG 1758  40.412   4.291   9.123
    4AU     LIG 1759  40.535   4.055   9.526
    4AU     LIG 1760  40.652   3.756   9.888
    4AU       S 1761  39.784   6.259   8.656
    4AU     LIG 1762  39.985   5.960   8.938
    4AU     LIG 1763  40.160   5.847   9.378
    4AU     LIG 1764  40.478   5.927   9.741
    4AU     LIG 1765  40.855   5.902  10.051
    4AU     LIG 1766  41.155   5.954  10.425
    4AU     LIG 1767  41.484   5.997  10.766
    4AU    AUSL 1768  39.451   6.085   8.358
    4AU    AUSL 1769  39.313   6.471   8.281
    4AU     AUL 1770  39.373   6.450   8.702
    4AU       S 1771  39.524   6.083   8.505
    4AU     LIG 1772  39.570   5.706   8.739
    4AU     LIG 1773  39.742   5.565   9.191
    4AU     LIG 1774  39.841   5.459   9.674
    4AU     LIG 1775  39.891   5.234  10.123
    4AU     LIG 1776  39.997   5.142  10.589
    4AU     LIG 1777  40.252   5.320  10.955
    4AU       S 1778  39.031   6.169   8.625
    4AU     LIG 1779  38.888   6.098   9.086
    4AU     LIG 1780  38.726   5.955   9.507
    4AU     LIG 1781  38.547   5.958   9.943
    4AU     LIG 1782  38.549   6.250  10.327
    4AU     LIG 1783  38.530   6.569  10.685
    4AU     LIG 1784  38.449   6.786  11.095
    4AU    AUSL 1785  39.697   6.587   8.282
    4AU    AUSL 1786  40.029   6.480   7.962
    4AU     AUL 1787  40.025   6.315   8.280
    4AU       S 1788  39.729   6.622   8.464
    4AU     LIG 1789  39.833   6.711   8.909
    4AU     LIG 1790  39.862   6.823   9.393
    4AU     LIG 1791  39.924   6.955   9.866
    4AU     LIG 1792  39.973   7.187  10.283
    4AU     LIG 1793  40.189   7.255  10.695
    4AU     LIG 1794  40.240   7.144  11.155
    4AU       S 1795  40.303   6.544   7.992
    4AU     LIG 1796  40.533   6.460   8.351
    4AU     LIG 1797  40.789   6.739   8.631
    4AU     LIG 1798  41.043   6.982   8.945
    4AU     LIG 1799  41.236   7.206   9.322
    4AU     LIG 1800  41.606   7.279   9.611
    4AU     LIG 1801  41.984   7.461   9.835
    4AU    AUSL 1802  39.916   6.299   6.868
    4AU    AUSL 1803  39.673   6.685   6.818
    4AU     AUL 1804  40.033   6.637   6.444
    4AU       S 1805  39.953   6.322   6.719
    4AU     LIG 1806  40.226   6.206   6.310
    4AU     LIG 1807  40.252   5.991   5.906
    4AU     LIG 1808  40.399   5.834   5.473
    4AU     LIG 1809  40.781   5.716   5.171
    4AU     LIG 1810  41.158   5.638   4.855
    4AU     LIG 1811  41.388   5.723   4.440
    4AU       S 1812  39.672   6.736   6.660
    4AU     LIG 1813  39.946   7.107   6.570
    4AU     LIG 1814  40.303   7.116   6.281
    4AU     LIG 1815  40.604   7.314   5.954
    4AU     LIG 1816  40.929   7.499   5.650
    4AU     LIG 1817  41.079   7.644   5.215
    4AU     LIG 1818  41.083   7.989   4.861
    4AU    AUSL 1819  39.660   5.978   6.722
    4AU    AUSL 1820  39.986   5.926   7.016
    4AU     AUL 1821  40.089   5.915   6.682
    4AU       S 1822  40.055   5.496   6.872
    4AU     LIG 1823  40.256   5.247   6.540
    4AU     LIG 1824  40.468   4.865   6.349
    4AU     LIG 1825  40.698   4.594   6.045
    4AU     LIG 1826  41.057   4.581   5.740
    4AU     LIG 1827  41.371   4.662   5.400
    4AU     LIG 1828  41.742   4.648   5.128
    4AU       S 1829  39.752   6.177   6.452
    4AU     LIG 1830  39.849   5.787   6.251
    4AU     LIG 1831  39.916   5.613   5.817
    4AU     LIG 1832  39.960   5.570   5.343
    4AU     LIG 1833  40.011   5.492   4.877
    4AU     LIG 1834  39.940   5.385   4.416
    4AU     LIG 1835  40.155   5.152   4.055
    4AU    AUSL 1836  39.506   6.326   6.891
    4AU    AUSL 1837  39.260   6.073   6.676
    4AU     AUL 1838  39.452   5.846   6.581
    4AU       S 1839  39.216   6.170   6.342
    4AU     LIG 1840  39.194   5.812   6.098
    4AU     LIG 1841  38.918   5.622   5.742
    4AU     LIG 1842  38.684   5.537   5.322
    4AU     LIG 1843  38.418   5.348   4.963
    4AU     LIG 1844  38.364   5.189   4.511
    4AU     LIG 1845  38.325   5.235   4.024
    4AU       S 1846  39.659   6.290   6.496
    4AU     LIG 1847  39.756   6.221   5.975
    4AU     LIG 1848  39.897   6.057   5.539
    4AU     LIG 1849  40.067   6.014   5.092
    4AU     LIG 1850  40.113   6.231   4.667
    4AU     LIG 1851  40.042   6.520   4.284
    4AU     LIG 1852  40.065   6.681   3.835
    4AU    AUSL 1853  38.929   6.358   8.214
    4AU    AUSL 1854  39.073   6.762   8.130
    4AU     AUL 1855  39.124   6.698   8.428
    4AU       S 1856  38.877   6.359   8.643
    4AU     LIG 1857  38.543   6.029   8.691
    4AU     LIG 1858  38.426   5.816   9.093
    4AU     LIG 1859  38.262   5.720   9.539
    4AU     LIG 1860  37.927   5.697   9.882
    4AU     LIG 1861  37.573   5.856  10.167
    4AU     LIG 1862  37.322   5.846  10.586
    4AU       S 1863  38.665   6.728   8.360
    4AU     LIG 1864  38.697   6.862   8.777
    4AU     LIG 1865  38.633   7.200   9.095
    4AU     LIG 1866  38.450   7.522   9.380
    4AU     LIG 1867  38.287   7.650   9.809
    4AU     LIG 1868  38.087   7.892  10.167
    4AU     LIG 1869  37.777   8.186  10.380
    4AU    AUSL 1870  39.226   6.149   8.030
    4AU    AUSL 1871  38.730   6.070   8.005
    4AU     AUL 1872  38.734   6.184   8.243
    4AU       S 1873  38.569   5.738   8.217
    4AU     LIG 1874  38.159   5.669   8.054
    4AU     LIG 1875  37.874   5.345   8.223
    4AU     LIG 1876  37.639   5.102   8.559
    4AU     LIG 1877  37.389   4.783   8.796
    4AU     LIG 1878  37.157   4.614   9.170
    4AU     LIG 1879  36.789   4.663   9.464
    4AU       S 1880  39.044   6.057   8.585
    4AU     LIG 1881  38.897   5.671   8.809
    4AU     LIG 1882  38.794   5.504   9.269
    4AU     LIG 1883  38.667   5.478   9.749
    4AU     LIG 1884  38.491   5.329  10.178
    4AU     LIG 1885  38.385   5.291  10.644
    4AU     LIG 1886  38.172   5.208  11.072
    4AU    AUSL 1887  38.979   6.234   6.917
    4AU    AUSL 1888  39.112   5.805   6.939
    4AU     AUL 1889  38.936   5.924   6.641
    4AU       S 1890  39.003   6.260   6.310
    4AU     LIG 1891  38.734   6.037   6.013
    4AU     LIG 1892  38.472   5.889   5.631
    4AU     LIG 1893  38.193   5.743   5.252
    4AU     LIG 1894  37.792   5.713   4.965
    4AU     LIG 1895  37.451   5.924   4.687
    4AU     LIG 1896  37.321   6.095   4.259
    4AU       S 1897  38.675   5.540   6.797
    4AU     LIG 1898  38.472   5.131   6.793
    4AU     LIG 1899  38.173   4.869   6.533
    4AU     LIG 1900  37.905   4.627   6.218
    4AU     LIG 1901  37.646   4.413   5.879
    4AU     LIG 1902  37.560   4.320   5.415
    4AU     LIG 1903  37.459   4.078   5.014
    4AU    AUSL 1904  39.214   6.508   6.676
    4AU    AUSL 1905  38.713   6.537   6.983
    4AU     AUL 1906  38.800   6.386   6.693
    4AU       S 1907  38.603   6.799   6.768
    4AU     LIG 1908  38.395   6.874   6.350
    4AU     LIG 1909  38.170   7.113   5.995
    4AU     LIG 1910  37.903   7.227   5.605
    4AU     LIG 1911  37.484   7.217   5.335
    4AU     LIG 1912  37.058   7.394   5.190
    4AU     LIG 1913  36.758   7.713   5.017
    4AU       S 1914  39.214   6.438   6.449
    4AU     LIG 1915  39.240   6.342   5.893
    4AU     LIG 1916  38.981   6.101   5.553
    4AU     LIG 1917  38.850   6.067   5.089
    4AU     LIG 1918  38.922   6.245   4.626
    4AU     LIG 1919  38.808   6.461   4.197
    4AU     LIG 1920  38.557   6.681   3.841
    4AU    AUSL 1921  39.981   6.890   7.417
    4AU    AUSL 1922  40.012   6.638   7.078
    4AU     AUL 1923  40.135   7.102   7.216
    4AU       S 1924  40.146   6.750   6.877
    4AU     LIG 1925  40.507   6.682   6.601
    4AU     LIG 1926  40.777   6.909   6.269
    4AU     LIG 1927  41.069   7.078   5.922
    4AU     LIG 1928  41.378   7.238   5.582
    4AU     LIG 1929  41.643   7.393   5.221
    4AU     LIG 1930  41.914   7.721   5.014
    4AU       S 1931  40.430   6.757   7.341
    4AU     LIG 1932  40.866   6.838   7.561
    4AU     LIG 1933  41.341   6.874   7.591
    4AU     LIG 1934  41.805   6.993   7.524
    4AU     LIG 1935  42.129   7.354   7.489
    4AU     LIG 1936  42.387   7.768   7.515
    4AU     LIG 1937  42.730   8.020   7.725
    4AU    AUSL 1938  40.207   6.319   7.231
    4AU    AUSL 1939  40.206   6.168   7.652
    4AU     AUL 1940  40.489   6.105   7.424
    4AU       S 1941  40.444   6.530   7.244
    4AU     LIG 1942  40.903   6.403   7.295
    4AU     LIG 1943  41.382   6.470   7.269
    4AU     LIG 1944  41.842   6.354   7.201
    4AU     LIG 1945  42.244   6.231   7.008
    4AU     LIG 1946  42.682   6.372   7.058
    4AU     LIG 1947  43.129   6.493   7.094
    4AU       S 1948  40.511   5.700   7.669
    4AU     LIG 1949  40.914   5.525   7.692
    4AU     LIG 1950  41.254   5.279   7.838
    4AU     LIG 1951  41.662   5.138   7.781
    4AU     LIG 1952  42.108   5.157   7.859
    4AU     LIG 1953  42.532   5.189   8.033
    4AU     LIG 1954  43.015   5.090   8.021
    4AU    AUSL 1955  40.007   6.505   7.555
    4AU    AUSL 1956  39.898   6.845   7.817
    4AU     AUL 1957  40.139   6.867   7.690
    4AU       S 1958  40.169   6.731   8.113
    4AU     LIG 1959  40.583   6.954   8.190
    4AU     LIG 1960  40.785   7.255   8.498
    4AU     LIG 1961  40.912   7.694   8.627
    4AU     LIG 1962  41.204   7.860   8.946
    4AU     LIG 1963  41.338   8.293   9.080
    4AU     LIG 1964  41.655   8.655   9.051
    4AU       S 1965  40.446   6.572   7.535
    4AU     LIG 1966  40.747   6.376   7.793
    4AU     LIG 1967  41.233   6.379   7.757
    4AU     LIG 1968  41.702   6.512   7.690
    4AU     LIG 1969  42.158   6.578   7.806
    4AU     LIG 1970  42.648   6.543   7.910
    4AU     LIG 1971  43.040   6.667   8.180
    4AU    AUSL 1972  38.723   6.838   7.583
    4AU    AUSL 1973  38.770   6.583   7.917
    4AU     AUL 1974  38.735   7.041   7.832
    4AU       S 1975  38.569   6.666   8.106
    4AU     LIG 1976  38.222   6.915   8.394
    4AU     LIG 1977  38.194   7.064   8.852
    4AU     LIG 1978  38.035   7.233   9.286
    4AU     LIG 1979  37.774   7.336   9.699
    4AU     LIG 1980  37.395   7.482   9.978
    4AU     LIG 1981  36.989   7.700  10.144
    4AU       S 1982  38.352   6.842   7.686
    4AU     LIG 1983  38.211   7.270   7.515
    4AU     LIG 1984  37.918   7.686   7.501
    4AU     LIG 1985  37.523   7.983   7.555
    4AU     LIG 1986  37.246   8.223   7.854
    4AU     LIG 1987  36.840   8.472   7.827
    4AU     LIG 1988  36.364   8.536   7.787
    4AU    AUSL 1989  38.787   6.496   7.374
    4AU    AUSL 1990  38.873   6.899   7.206
    4AU     AUL 1991  38.587   6.824   7.246
    4AU       S 1992  38.235   6.762   7.557
    4AU     LIG 1993  37.946   6.796   7.212
    4AU     LIG 1994  37.462   6.843   7.081
    4AU     LIG 1995  37.069   7.058   6.879
    4AU     LIG 1996  36.727   7.354   6.704
    4AU     LIG 1997  36.293   7.548   6.704
    4AU     LIG 1998  35.827   7.437   6.661
    4AU       S 1999  38.703   7.040   6.835
    4AU     LIG 2000  38.611   7.318   6.477
    4AU     LIG 2001  38.340   7.579   6.172
    4AU     LIG 2002  38.042   7.956   6.073
    4AU     LIG 2003  37.915   8.419   6.035
    4AU     LIG 2004  37.735   8.843   5.863
    4AU     LIG 2005  37.470   9.197   6.043
    4AU    AUSL 2006  38.518   6.401   7.673
    4AU    AUSL 2007  38.552   6.170   7.315
    4AU     AUL 2008  38.382   6.427   7.287
    4AU       S 2009  38.211   5.972   7.440
    4AU     LIG 2010  37.862   5.992   7.779
    4AU     LIG 2011  37.391   6.048   7.759
    4AU     LIG 2012  36.963   5.860   7.681
    4AU     LIG 2013  36.615   5.656   7.417
    4AU     LIG 2014  36.173   5.711   7.264
    4AU     LIG 2015  35.808   5.424   7.352
    4AU       S 2016  38.320   6.431   7.766
    4AU     LIG 2017  37.973   6.667   7.998
    4AU     LIG 2018  37.516   6.870   8.103
    4AU     LIG 2019  37.064   7.077   8.214
    4AU     LIG 2020  36.561   7.120   8.129
    4AU     LIG 2021  36.102   7.176   8.338
    4AU     LIG 2022  35.638   7.315   8.422
    4AU    AUSL 2023  40.062   5.775   7.576
    4AU    AUSL 2024  40.016   5.983   7.957
    4AU     AUL 2025  40.323   6.042   7.912
    4AU       S 2026  40.209   5.519   7.555
    4AU     LIG 2027  40.443   5.211   7.774
    4AU     LIG 2028  40.852   4.997   7.664
    4AU     LIG 2029  41.304   4.843   7.547
    4AU     LIG 2030  41.789   4.724   7.502
    4AU     LIG 2031  42.192   4.438   7.571
    4AU     LIG 2032  42.581   4.242   7.788
    4AU       S 2033  40.059   5.664   8.037
    4AU     LIG 2034  40.336   5.312   8.282
    4AU     LIG 2035  40.386   4.914   8.531
    4AU     LIG 2036  40.644   4.639   8.817
    4AU     LIG 2037  40.926   4.467   9.158
    4AU     LIG 2038  41.322   4.542   9.425
    4AU     LIG 2039  41.670   4.553   9.752
    4AU    AUSL 2040  39.907   6.096   7.373
    4AU    AUSL 2041  39.831   5.631   7.272
    4AU     AUL 2042  40.182   5.841   7.194
    4AU       S 2043  40.256   5.685   7.604
    4AU     LIG 2044  40.607   5.407   7.289
    4AU     LIG 2045  41.090   5.248   7.279
    4AU     LIG 2046  41.586   5.155   7.249
    4AU     LIG 2047  42.068   5.141   7.129
    4AU     LIG 2048  42.556   5.011   7.095
    4AU     LIG 2049  43.028   4.871   7.145
    4AU       S 2050  40.073   5.396   7.079
    4AU     LIG 2051  39.956   4.990   6.870
    4AU     LIG 2052  40.166   4.604   6.673
    4AU     LIG 2053  40.467   4.317   6.429
    4AU     LIG 2054  40.621   3.898   6.234
    4AU     LIG 2055  40.899   3.491   6.169
    4AU     LIG 2056  41.300   3.341   5.943
    4AU    AUSL 2057  38.663   5.789   7.475
    4AU    AUSL 2058  38.747   5.935   7.059
    4AU     AUL 2059  38.458   6.011   7.038
    4AU       S 2060  38.667   5.604   7.028
    4AU     LIG 2061  38.182   5.578   6.973
    4AU     LIG 2062  37.909   5.259   6.754
    4AU     LIG 2063  37.651   5.022   6.427
    4AU     LIG 2064  37.369   4.776   6.130
    4AU     LIG 2065  36.999   4.717   5.826
    4AU     LIG 2066  36.746   4.783   5.424
    4AU       S 2067  38.372   5.758   7.423
    4AU     LIG 2068  37.972   5.542   7.510
    4AU     LIG 2069  37.494   5.604   7.509
    4AU     LIG 2070  37.060   5.393   7.490
    4AU     LIG 2071  36.658   5.140   7.591
    4AU     LIG 2072  36.247   4.917   7.724
    4AU     LIG 2073  36.044   4.498   7.677
    4AU    AUSL 2074  38.824   6.144   7.627
    4AU    AUSL 2075  38.911   5.754   7.805
    4AU     AUL 2076  38.536   5.945   7.809
    4AU       S 2077  38.648   5.538   7.976
    4AU     LIG 2078  38.350   5.274   7.801
    4AU     LIG 2079  38.080   4.940   7.987
    4AU     LIG 2080  37.774   4.695   8.272
    4AU     LIG 2081  37.589   4.356   8.559
    4AU     LIG 2082  37.482   3.907   8.678
    4AU     LIG 2083  37.169   3.681   8.932
    4AU       S 2084  38.251   6.030   7.472
    4AU     LIG 2085  37.742   6.014   7.291
    4AU     LIG 2086  37.233   6.024   7.260
    4AU     LIG 2087  36.746   6.146   7.316
    4AU     LIG 2088  36.365   6.048   7.635
    4AU     LIG 2089  35.942   5.840   7.715
    4AU     LIG 2090  35.718   5.453   7.859
    4AU    AUSL 2091  39.415   6.953   8.015
    4AU    AUSL 2092  39.093   6.746   7.726
    4AU     AUL 2093  39.121   7.059   8.095
    4AU       S 2094  38.729   6.882   8.259
    4AU     LIG 2095  38.617   7.258   8.447
    4AU     LIG 2096  38.409   7.525   8.766
    4AU     LIG 2097  38.208   7.839   9.041
    4AU     LIG 2098  37.956   8.234   9.097
    4AU     LIG 2099  37.802   8.665   9.222
    4AU     LIG 2100  37.460   8.973   9.345
    4AU       S 2101  39.483   7.348   7.966
    4AU     LIG 2102  39.712   7.421   8.335
    4AU     LIG 2103  39.900   7.833   8.498
    4AU     LIG 2104  39.963   8.242   8.744
    4AU     LIG 2105  39.963   8.554   9.115
    4AU     LIG 2106  39.765   8.852   9.444
    4AU     LIG 2107  39.609   9.112   9.818
    4AU    AUSL 2108  39.169   7.131   7.652
    4AU    AUSL 2109  39.598   7.108   7.256
    4AU     AUL 2110  39.284   7.362   7.412
    4AU       S 2111  39.338   7.428   7.864
    4AU     LIG 2112  39.566   7.839   8.063
    4AU     LIG 2113  39.678   8.256   8.279
    4AU     LIG 2114  39.509   8.696   8.412
    4AU     LIG 2115  39.213   9.093   8.480
    4AU     LIG 2116  39.074   9.538   8.628
    4AU     LIG 2117  38.858   9.942   8.794
    4AU       S 2118  39.631   7.443   7.096
    4AU     LIG 2119  40.008   7.633   6.927
    4AU     LIG 2120  40.106   8.097   6.828
    4AU     LIG 2121  40.334   8.529   6.822
    4AU     LIG 2122  40.386   8.974   6.659
    4AU     LIG 2123  40.462   9.441   6.621
    4AU     LIG 2124  40.403   9.815   6.325
    4AU    AUSL 2125  39.561   6.970   7.635
    4AU    AUSL 2126  39.583   6.604   7.902
    4AU     AUL 2127  39.738   6.978   8.046
    4AU       S 2128  40.121   6.769   8.217
    4AU     LIG 2129  40.273   6.841   8.623
    4AU     LIG 2130  40.534   7.102   8.922
    4AU     LIG 2131  40.840   7.440   9.067
    4AU     LIG 2132  41.020   7.710   9.402
    4AU     LIG 2133  40.989   8.061   9.709
    4AU     LIG 2134  41.009   8.456   9.968
    4AU       S 2135  39.652   7.282   7.702
    4AU     LIG 2136  39.971   7.558   7.909
    4AU     LIG 2137  40.119   8.006   8.059
    4AU     LIG 2138  40.174   8.418   8.305
    4AU     LIG 2139  40.379   8.846   8.322
    4AU     LIG 2140  40.370   9.329   8.394
    4AU     LIG 2141  40.301   9.821   8.361
    4AU    AUSL 2142  39.343   5.716   7.935
    4AU    AUSL 2143  39.696   5.842   7.736
    4AU     AUL 2144  39.522   5.612   8.209
    4AU       S 2145  39.414   5.180   8.054
    4AU     LIG 2146  39.497   4.793   8.228
    4AU     LIG 2147  39.221   4.424   8.164
    4AU     LIG 2148  39.008   4.026   8.294
    4AU     LIG 2149  39.019   3.675   8.619
    4AU     LIG 2150  39.107   3.423   9.019
    4AU     LIG 2151  39.217   3.108   9.359
    4AU       S 2152  39.980   5.473   7.960
    4AU     LIG 2153  39.969   4.997   8.039
    4AU     LIG 2154  40.113   4.573   8.254
    4AU     LIG 2155  40.418   4.287   8.507
    4AU     LIG 2156  40.586   3.934   8.789
    4AU     LIG 2157  40.921   3.648   8.981
    4AU     LIG 2158  41.298   3.336   8.998
    4AU    AUSL 2159  39.168   5.469   7.667
    4AU    AUSL 2160  39.053   5.832   8.195
    4AU     AUL 2161  39.095   5.512   8.044
    4AU       S 2162  39.177   5.104   7.862
    4AU     LIG 2163  38.930   4.761   7.723
    4AU     LIG 2164  38.896   4.297   7.754
    4AU     LIG 2165  38.634   3.939   7.926
    4AU     LIG 2166  38.287   3.613   8.015
    4AU     LIG 2167  38.154   3.201   8.208
    4AU     LIG 2168  38.310   2.770   8.245
    4AU       S 2169  38.756   5.688   8.292
    4AU     LIG 2170  38.416   5.289   8.337
    4AU     LIG 2171  38.140   4.976   8.509
    4AU     LIG 2172  37.901   4.698   8.789
    4AU     LIG 2173  37.656   4.460   9.111
    4AU     LIG 2174  37.587   4.325   9.563
    4AU     LIG 2175  37.586   3.973   9.889
    4AU    AUSL 2176  39.604   5.452   7.710
    4AU    AUSL 2177  39.107   5.467   7.262
    4AU     AUL 2178  39.411   5.202   7.479
    4AU       S 2179  39.014   5.157   7.153
    4AU     LIG 2180  38.701   4.838   7.217
    4AU     LIG 2181  38.719   4.369   7.254
    4AU     LIG 2182  38.693   3.917   7.044
    4AU     LIG 2183  38.414   3.491   6.957
    4AU     LIG 2184  38.340   3.041   6.748
    4AU     LIG 2185  38.270   2.567   6.648
    4AU       S 2186  39.527   5.253   7.910
    4AU     LIG 2187  39.533   4.785   7.723
    4AU     LIG 2188  39.414   4.336   7.699
    4AU     LIG 2189  39.419   3.964   7.984
    4AU     LIG 2190  39.554   3.511   7.971
    4AU     LIG 2191  39.676   3.096   8.179
    4AU     LIG 2192  39.759   2.652   8.354
    4AU    AUSL 2193  39.363   6.915   6.946
    4AU    AUSL 2194  39.660   6.708   7.250
    4AU     AUL 2195  39.738   7.011   7.001
    4AU       S 2196  39.403   7.213   6.752
    4AU     LIG 2197  39.675   7.534   6.544
    4AU     LIG 2198  39.822   7.962   6.398
    4AU     LIG 2199  39.906   8.197   5.967
    4AU     LIG 2200  39.877   8.536   5.612
    4AU     LIG 2201  39.841   8.931   5.336
    4AU     LIG 2202  39.848   9.306   5.038
    4AU       S 2203  40.101   6.725   6.956
    4AU     LIG 2204  40.412   7.146   6.792
    4AU     LIG 2205  40.696   7.396   6.467
    4AU     LIG 2206  40.882   7.725   6.147
    4AU     LIG 2207  41.149   8.128   6.055
    4AU     LIG 2208  41.386   8.563   5.993
    4AU     LIG 2209  41.625   9.004   6.031
    4AU    AUSL 2210  39.257   6.890   7.341
    4AU    AUSL 2211  39.116   6.615   7.050
    4AU     AUL 2212  39.090   7.088   7.088
    4AU       S 2213  39.442   7.382   6.982
    4AU     LIG 2214  39.552   7.891   6.883
    4AU     LIG 2215  39.622   8.359   6.731
    4AU     LIG 2216  39.456   8.843   6.670
    4AU     LIG 2217  39.250   9.315   6.614
    4AU     LIG 2218  39.098   9.778   6.483
    4AU     LIG 2219  38.723  10.060   6.317
    4AU       S 2220  38.923   6.866   6.713
    4AU     LIG 2221  38.903   6.908   6.287
    4AU     LIG 2222  38.677   7.204   5.973
    4AU     LIG 2223  38.398   7.454   5.659
    4AU     LIG 2224  38.301   7.689   5.241
    4AU     LIG 2225  38.141   7.860   4.809
    4AU     LIG 2226  37.960   8.162   4.482
    4AU    AUSL 2227  39.436   5.565   6.992
    4AU    AUSL 2228  39.038   5.851   7.342
    4AU     AUL 2229  39.118   5.555   6.917
    4AU       S 2230  38.650   5.487   7.121
    4AU     LIG 2231  38.359   5.222   7.289
    4AU     LIG 2232  38.096   4.895   7.072
    4AU     LIG 2233  37.772   4.673   6.783
    4AU     LIG 2234  37.520   4.407   6.467
    4AU     LIG 2235  37.421   4.038   6.175
    4AU     LIG 2236  37.265   3.596   6.056
    4AU       S 2237  39.262   5.139   7.029
    4AU     LIG 2238  39.024   4.789   6.815
    4AU     LIG 2239  38.947   4.332   6.794
    4AU     LIG 2240  38.969   3.928   6.570
    4AU     LIG 2241  39.222   3.632   6.311
    4AU     LIG 2242  39.313   3.446   5.876
    4AU     LIG 2243  39.239   3.293   5.419
    4AU    AUSL 2244  39.445   5.654   7.401
    4AU    AUSL 2245  39.574   5.923   7.105
    4AU     AUL 2246  39.620   5.430   7.155
    4AU       S 2247  39.021   5.257   7.277
    4AU     LIG 2248  39.200   4.721   7.306
    4AU     LIG 2249  39.214   4.218   7.230
    4AU     LIG 2250  39.235   3.789   6.981
    4AU     LIG 2251  39.438   3.388   6.731
    4AU     LIG 2252  39.709   3.058   6.463
    4AU     LIG 2253  39.876   2.605   6.363
    4AU       S 2254  39.842   5.536   6.770
    4AU     LIG 2255  39.739   5.259   6.472
    4AU     LIG 2256  39.950   4.881   6.295
    4AU     LIG 2257  40.173   4.525   6.060
    4AU     LIG 2258  40.243   4.162   5.742
    4AU     LIG 2259  40.359   3.987   5.305
    4AU     LIG 2260  40.538   3.850   4.889
    5AU     AUC 2261   8.185  15.605   7.501
    5AU     AUC 2262   8.447  15.604   7.340
    5AU     AUC 2263   8.440  15.597   7.651
    5AU     AUC 2264   7.934  15.610   7.337
    5AU     AUC 2265   7.925  15.628   7.652
    5AU     AUC 2266   8.036  15.865   7.495
    5AU     AUC 2267   8.348  15.859   7.483
    5AU     AUC 2268   8.030  15.351   7.514
    5AU     AUC 2269   8.323  15.350   7.524
    5AU     AUC 2270   8.178  15.459   7.763
    5AU     AUC 2271   8.202  15.772   7.753
    5AU     AUC 2272   8.184  15.440   7.246
    5AU     AUC 2273   8.177  15.743   7.238
    5AU     AUC 2274   8.695  15.593   7.180
    5AU     AUC 2275   8.703  15.605   7.488
    5AU     AUC 2276   8.698  15.599   7.796
    5AU     AUC 2277   7.675  15.598   7.185
    5AU     AUC 2278   7.668  15.626   7.494
    5AU     AUC 2279   7.679  15.648   7.814
    5AU     AUC 2280   7.895  16.131   7.498
    5AU     AUC 2281   8.204  16.128   7.489
    5AU     AUC 2282   8.496  16.119   7.484
    5AU     AUC 2283   7.848  15.099   7.522
    5AU     AUC 2284   8.162  15.084   7.512
    5AU     AUC 2285   8.478  15.084   7.531
    5AU     AUC 2286   8.164  15.306   8.019
    5AU     AUC 2287   8.189  15.620   8.028
    5AU     AUC 2288   8.211  15.928   8.014
    5AU     AUC 2289   8.184  15.265   7.011
    5AU     AUC 2290   8.197  15.581   6.978
    5AU     AUC 2291   8.176  15.888   6.973
    5AU     AUC 2292   8.452  15.460   7.926
    5AU     AUC 2293   8.458  15.752   7.915
    5AU     AUC 2294   8.457  15.428   7.087
    5AU     AUC 2295   8.458  15.736   7.071
    5AU     AUC 2296   7.915  15.481   7.929
    5AU     AUC 2297   7.940  15.791   7.927
    5AU     AUC 2298   7.937  15.441   7.072
    5AU     AUC 2299   7.926  15.748   7.076
    5AU     AUC 2300   8.601  15.866   7.316
    5AU     AUC 2301   8.618  15.849   7.634
    5AU     AUC 2302   7.767  15.864   7.347
    5AU     AUC 2303   7.782  15.891   7.668
    5AU     AUC 2304   8.596  15.335   7.354
    5AU     AUC 2305   8.599  15.343   7.671
    5AU     AUC 2306   7.759  15.356   7.342
    5AU     AUC 2307   7.765  15.369   7.683
    5AU     AUC 2308   8.044  16.030   7.766
    5AU     AUC 2309   8.362  16.033   7.734
    5AU     AUC 2310   8.004  15.189   7.760
    5AU     AUC 2311   8.324  15.197   7.789
    5AU     AUC 2312   8.026  16.015   7.232
    5AU     AUC 2313   8.343  16.003   7.215
    5AU     AUC 2314   8.008  15.190   7.246
    5AU     AUC 2315   8.337  15.175   7.272
    5AU    AUSL 2316   8.538  15.556   8.097
    5AU    AUSL 2317   8.485  15.137   8.138
    5AU     AUL 2318   8.725  15.220   8.405
    5AU       S 2319   8.808  14.847   8.109
    5AU     LIG 2320   8.758  14.697   8.505
    5AU     LIG 2321   8.897  14.287   8.714
    5AU     LIG 2322   9.004  13.842   8.888
    5AU     LIG 2323   9.190  13.430   9.079
    5AU     LIG 2324   9.316  13.144   9.443
    5AU     LIG 2325   9.437  12.988   9.884
    5AU       S 2326   8.592  15.589   8.652
    5AU     LIG 2327   8.771  15.278   8.936
    5AU     LIG 2328   8.915  15.164   9.387
    5AU     LIG 2329   9.179  15.191   9.795
    5AU     LIG 2330   9.551  15.143  10.112
    5AU     LIG 2331   9.875  15.143  10.476
    5AU     LIG 2332  10.218  15.390  10.701
    5AU    AUSL 2333   8.256  15.406   8.356
    5AU    AUSL 2334   8.126  15.795   8.282
    5AU     AUL 2335   8.181  15.774   8.704
    5AU       S 2336   8.328  15.405   8.505
    5AU     LIG 2337   8.365  15.022   8.717
    5AU     LIG 2338   8.537  14.864   9.153
    5AU     LIG 2339   8.638  14.772   9.629
    5AU     LIG 2340   8.634  14.585  10.084
    5AU     LIG 2341   8.786  14.643  10.530
    5AU     LIG 2342   8.929  14.569  10.981
    5AU       S 2343   7.840  15.495   8.620
    5AU     LIG 2344   7.841  15.500   9.091
    5AU     LIG 2345   7.651  15.370   9.503
    5AU     LIG 2346   7.513  15.419   9.950
    5AU     LIG 2347   7.514  15.712  10.338
    5AU     LIG 2348   7.332  16.018  10.664
    5AU     LIG 2349   7.188  16.141  11.100
    5AU    AUSL 2350   8.508  15.917   8.281
    5AU    AUSL 2351   8.840  15.803   7.963
    5AU     AUL 2352   8.836  15.642   8.277
    5AU       S 2353   8.539  15.945   8.466
    5AU     LIG 2354   8.630  16.061   8.903
    5AU     LIG 2355   8.618  16.227   9.377
    5AU     LIG 2356   8.628  16.395   9.851
    5AU     LIG 2357   8.727  16.644  10.259
    5AU     LIG 2358   8.748  16.664  10.737
    5AU     LIG 2359   8.885  16.449  11.141
    5AU       S 2360   9.129  15.870   8.002
    5AU     LIG 2361   9.318  15.817   8.411
    5AU     LIG 2362   9.580  16.102   8.674
    5AU     LIG 2363   9.881  16.397   8.889
    5AU     LIG 2364  10.161  16.561   9.241
    5AU     LIG 2365  10.419  16.661   9.637
    5AU     LIG 2366  10.830  16.792   9.853
    5AU    AUSL 2367   8.730  15.627   6.870
    5AU    AUSL 2368   8.491  16.015   6.820
    5AU     AUL 2369   8.849  15.962   6.444
    5AU       S 2370   8.772  15.649   6.723
    5AU     LIG 2371   9.048  15.537   6.319
    5AU     LIG 2372   9.068  15.350   5.907
    5AU     LIG 2373   9.165  15.206   5.464
    5AU     LIG 2374   9.497  15.099   5.117
    5AU     LIG 2375   9.885  15.031   4.818
    5AU     LIG 2376  10.278  15.071   4.540
    5AU       S 2377   8.492  16.069   6.662
    5AU     LIG 2378   8.792  16.437   6.570
    5AU     LIG 2379   9.134  16.520   6.236
    5AU     LIG 2380   9.503  16.630   5.918
    5AU     LIG 2381   9.758  16.778   5.511
    5AU     LIG 2382   9.783  17.024   5.064
    5AU     LIG 2383   9.719  17.454   4.838
    5AU    AUSL 2384   8.470  15.310   6.720
    5AU    AUSL 2385   8.796  15.252   7.014
    5AU     AUL 2386   8.890  15.239   6.673
    5AU       S 2387   8.862  14.819   6.868
    5AU     LIG 2388   8.980  14.572   6.495
    5AU     LIG 2389   9.204  14.174   6.352
    5AU     LIG 2390   9.440  13.883   6.053
    5AU     LIG 2391   9.717  13.792   5.664
    5AU     LIG 2392  10.105  13.829   5.367
    5AU     LIG 2393  10.443  13.836   5.016
    5AU       S 2394   8.561  15.516   6.452
    5AU     LIG 2395   8.644  15.177   6.198
    5AU     LIG 2396   8.719  15.002   5.752
    5AU     LIG 2397   8.744  14.961   5.272
    5AU     LIG 2398   8.853  14.736   4.859
    5AU     LIG 2399   9.027  14.595   4.439
    5AU     LIG 2400   9.217  14.637   4.002
    5AU    AUSL 2401   8.320  15.658   6.891
    5AU    AUSL 2402   8.072  15.409   6.673
    5AU     AUL 2403   8.264  15.182   6.578
    5AU       S 2404   8.029  15.508   6.342
    5AU     LIG 2405   8.011  15.147   6.102
    5AU     LIG 2406   7.748  14.947   5.744
    5AU     LIG 2407   7.553  14.858   5.307
    5AU     LIG 2408   7.298  14.730   4.914
    5AU     LIG 2409   7.154  14.597   4.467
    5AU     LIG 2410   7.127  14.609   3.987
    5AU       S 2411   8.472  15.625   6.499
    5AU     LIG 2412   8.620  15.668   6.001
    5AU     LIG 2413   8.704  15.483   5.566
    5AU     LIG 2414   8.851  15.461   5.115
    5AU     LIG 2415   8.860  15.679   4.682
    5AU     LIG 2416   8.875  15.962   4.283
    5AU     LIG 2417   9.076  16.157   3.896
    5AU    AUSL 2418   7.742  15.684   8.211
    5AU    AUSL 2419   7.889  16.088   8.132
    5AU     AUL 2420   7.938  16.025   8.427
    5AU       S 2421   7.692  15.686   8.637
    5AU     LIG 2422   7.373  15.443   8.834
    5AU     LIG 2423   7.247  15.215   9.226
    5AU     LIG 2424   7.073  15.130   9.668
    5AU     LIG 2425   6.663  15.072   9.934
    5AU     LIG 2426   6.334  15.136  10.277
    5AU     LIG 2427   6.273  15.348  10.678
    5AU       S 2428   7.478  16.058   8.363
    5AU     LIG 2429   7.507  16.158   8.791
    5AU     LIG 2430   7.394  16.505   9.094
    5AU     LIG 2431   7.257  16.787   9.458
    5AU     LIG 2432   7.179  16.909   9.925
    5AU     LIG 2433   6.987  17.138  10.301
    5AU     LIG 2434   6.702  17.405  10.585
    5AU    AUSL 2435   8.040  15.478   8.025
    5AU    AUSL 2436   7.534  15.405   8.000
    5AU     AUL 2437   7.540  15.508   8.242
    5AU       S 2438   7.372  15.049   8.190
    5AU     LIG 2439   6.985  14.918   7.967
    5AU     LIG 2440   6.679  14.610   8.156
    5AU     LIG 2441   6.454  14.409   8.525
    5AU     LIG 2442   6.200  14.104   8.774
    5AU     LIG 2443   5.971  13.915   9.140
    5AU     LIG 2444   5.594  13.971   9.425
    5AU       S 2445   7.847  15.383   8.587
    5AU     LIG 2446   7.707  15.049   8.877
    5AU     LIG 2447   7.630  14.883   9.322
    5AU     LIG 2448   7.421  14.743   9.730
    5AU     LIG 2449   7.179  14.670  10.135
    5AU     LIG 2450   7.181  14.586  10.604
    5AU     LIG 2451   7.281  14.645  11.059
    5AU    AUSL 2452   7.789  15.571   6.912
    5AU    AUSL 2453   7.919  15.141   6.934
    5AU     AUL 2454   7.742  15.267   6.635
    5AU       S 2455   7.822  15.602   6.304
    5AU     LIG 2456   7.576  15.394   5.980
    5AU     LIG 2457   7.357  15.258   5.573
    5AU     LIG 2458   7.055  15.077   5.239
    5AU     LIG 2459   6.600  15.025   5.041
    5AU     LIG 2460   6.256  15.124   4.716
    5AU     LIG 2461   6.096  15.351   4.335
    5AU       S 2462   7.476  14.884   6.789
    5AU     LIG 2463   7.234  14.496   6.771
    5AU     LIG 2464   6.939  14.229   6.514
    5AU     LIG 2465   6.651  14.009   6.192
    5AU     LIG 2466   6.399  13.877   5.796
    5AU     LIG 2467   6.341  13.732   5.330
    5AU     LIG 2468   6.249  13.391   4.992
    5AU    AUSL 2469   8.031  15.844   6.676
    5AU    AUSL 2470   7.525  15.875   6.980
    5AU     AUL 2471   7.617  15.730   6.686
    5AU       S 2472   7.419  16.141   6.764
    5AU     LIG 2473   7.251  16.210   6.320
    5AU     LIG 2474   7.049  16.479   5.957
    5AU     LIG 2475   6.827  16.580   5.522
    5AU     LIG 2476   6.460  16.705   5.215
    5AU     LIG 2477   6.063  16.805   4.938
    5AU     LIG 2478   5.625  16.997   4.827
    5AU       S 2479   8.032  15.778   6.447
    5AU     LIG 2480   8.093  15.674   5.897
    5AU     LIG 2481   7.869  15.410   5.544
    5AU     LIG 2482   7.635  15.340   5.118
    5AU     LIG 2483   7.605  15.461   4.636
    5AU     LIG 2484   7.553  15.695   4.198
    5AU     LIG 2485   7.418  15.884   3.763
    5AU    AUSL 2486   8.797  16.215   7.421
    5AU    AUSL 2487   8.828  15.963   7.082
    5AU     AUL 2488   8.956  16.423   7.224
    5AU       S 2489   8.964  16.075   6.879
    5AU     LIG 2490   9.322  16.009   6.604
    5AU     LIG 2491   9.589  16.271   6.305
    5AU     LIG 2492   9.948  16.392   6.006
    5AU     LIG 2493  10.216  16.514   5.631
    5AU     LIG 2494  10.614  16.584   5.370
    5AU     LIG 2495  10.853  16.828   5.049
    5AU       S 2496   9.254  16.077   7.341
    5AU     LIG 2497   9.725  16.127   7.530
    5AU     LIG 2498  10.232  16.140   7.498
    5AU     LIG 2499  10.704  16.338   7.441
    5AU     LIG 2500  11.082  16.691   7.426
    5AU     LIG 2501  11.462  17.014   7.483
    5AU     LIG 2502  11.564  17.453   7.313
    5AU    AUSL 2503   9.020  15.642   7.234
    5AU    AUSL 2504   9.016  15.491   7.653
    5AU     AUL 2505   9.301  15.415   7.422
    5AU       S 2506   9.258  15.844   7.249
    5AU     LIG 2507   9.722  15.706   7.255
    5AU     LIG 2508  10.235  15.670   7.263
    5AU     LIG 2509  10.732  15.719   7.136
    5AU     LIG 2510  11.171  15.934   7.036
    5AU     LIG 2511  11.527  16.202   6.860
    5AU     LIG 2512  11.960  16.381   7.042
    5AU       S 2513   9.313  15.019   7.697
    5AU     LIG 2514   9.717  14.860   7.736
    5AU     LIG 2515  10.090  14.669   7.899
    5AU     LIG 2516  10.560  14.655   7.891
    5AU     LIG 2517  11.027  14.598   7.986
    5AU     LIG 2518  11.471  14.390   7.946
    5AU     LIG 2519  11.888  14.589   7.929
    5AU    AUSL 2520   8.819  15.829   7.555
    5AU    AUSL 2521   8.711  16.169   7.820
    5AU     AUL 2522   8.959  16.177   7.689
    5AU       S 2523   8.979  16.065   8.120
    5AU     LIG 2524   9.392  16.289   8.201
    5AU     LIG 2525   9.595  16.595   8.496
    5AU     LIG 2526   9.710  16.898   8.849
    5AU     LIG 2527   9.937  17.286   8.988
    5AU     LIG 2528  10.057  17.745   8.939
    5AU     LIG 2529  10.320  18.142   8.978
    5AU       S 2530   9.272  15.886   7.538
    5AU     LIG 2531   9.569  15.668   7.765
    5AU     LIG 2532  10.024  15.711   7.730
    5AU     LIG 2533  10.455  15.621   7.905
    5AU     LIG 2534  10.943  15.629   7.947
    5AU     LIG 2535  11.424  15.768   7.999
    5AU     LIG 2536  11.830  15.952   8.133
    5AU    AUSL 2537   7.535  16.166   7.583
    5AU    AUSL 2538   7.582  15.915   7.921
    5AU     AUL 2539   7.548  16.372   7.831
    5AU       S 2540   7.390  15.993   8.103
    5AU     LIG 2541   7.013  16.205   8.338
    5AU     LIG 2542   6.990  16.359   8.791
    5AU     LIG 2543   6.857  16.570   9.199
    5AU     LIG 2544   6.506  16.652   9.536
    5AU     LIG 2545   6.089  16.788   9.760
    5AU     LIG 2546   5.675  16.933   9.974
    5AU       S 2547   7.160  16.174   7.694
    5AU     LIG 2548   7.027  16.606   7.595
    5AU     LIG 2549   6.671  16.941   7.580
    5AU     LIG 2550   6.283  17.248   7.601
    5AU     LIG 2551   5.895  17.519   7.700
    5AU     LIG 2552   5.483  17.679   7.501
    5AU     LIG 2553   5.055  17.807   7.643
    5AU    AUSL 2554   7.601  15.828   7.369
    5AU    AUSL 2555   7.689  16.233   7.208
    5AU     AUL 2556   7.402  16.158   7.244
    5AU       S 2557   7.049  16.100   7.551
    5AU     LIG 2558   6.744  16.071   7.238
    5AU     LIG 2559   6.400  16.270   6.978
    5AU     LIG 2560   5.953  16.328   6.808
    5AU     LIG 2561   5.481  16.302   6.758
    5AU     LIG 2562   5.070  16.484   6.592
    5AU     LIG 2563   4.595  16.484   6.690
    5AU       S 2564   7.520  16.383   6.836
    5AU     LIG 2565   7.453  16.656   6.453
    5AU     LIG 2566   7.252  16.962   6.122
    5AU     LIG 2567   7.073  17.435   6.067
    5AU     LIG 2568   6.763  17.814   5.985
    5AU     LIG 2569   6.378  18.111   5.901
    5AU     LIG 2570   6.183  18.543   5.782
    5AU    AUSL 2571   7.332  15.738   7.669
    5AU    AUSL 2572   7.360  15.505   7.314
    5AU     AUL 2573   7.193  15.762   7.284
    5AU       S 2574   7.011  15.294   7.441
    5AU     LIG 2575   6.562  15.297   7.688
    5AU     LIG 2576   6.050  15.286   7.766
    5AU     LIG 2577   5.557  15.371   7.736
    5AU     LIG 2578   5.233  15.304   7.362
    5AU     LIG 2579   4.835  15.033   7.286
    5AU     LIG 2580   4.600  14.721   7.044
    5AU       S 2581   7.134  15.768   7.762
    5AU     LIG 2582   6.748  15.964   7.945
    5AU     LIG 2583   6.445  16.169   8.257
    5AU     LIG 2584   6.010  16.329   8.393
    5AU     LIG 2585   5.568  16.186   8.286
    5AU     LIG 2586   5.142  16.400   8.337
    5AU     LIG 2587   4.717  16.244   8.198
    5AU    AUSL 2588   8.871  15.101   7.573
    5AU    AUSL 2589   8.821  15.308   7.954
    5AU     AUL 2590   9.129  15.373   7.915
    5AU       S 2591   9.039  14.839   7.548
    5AU     LIG 2592   9.359  14.523   7.584
    5AU     LIG 2593   9.819  14.394   7.538
    5AU     LIG 2594  10.298  14.371   7.528
    5AU     LIG 2595  10.699  14.111   7.458
    5AU     LIG 2596  10.916  13.673   7.476
    5AU     LIG 2597  11.303  13.505   7.691
    5AU       S 2598   8.851  15.004   8.028
    5AU     LIG 2599   9.282  14.769   8.132
    5AU     LIG 2600   9.333  14.443   8.470
    5AU     LIG 2601   9.441  14.080   8.755
    5AU     LIG 2602   9.711  13.832   9.050
    5AU     LIG 2603  10.111  13.825   9.321
    5AU     LIG 2604  10.484  13.745   9.607
    5AU    AUSL 2605   8.717  15.423   7.371
    5AU    AUSL 2606   8.639  14.957   7.270
    5AU     AUL 2607   8.987  15.162   7.190
    5AU       S 2608   9.067  15.015   7.604
    5AU     LIG 2609   9.463  14.931   7.253
    5AU     LIG 2610   9.949  14.799   7.247
    5AU     LIG 2611  10.440  14.689   7.156
    5AU     LIG 2612  10.917  14.605   7.053
    5AU     LIG 2613  11.389  14.511   7.026
    5AU     LIG 2614  11.697  14.153   7.057
    5AU       S 2615   8.877  14.714   7.073
    5AU     LIG 2616   8.917  14.260   6.894
    5AU     LIG 2617   9.013  13.822   6.683
    5AU     LIG 2618   9.273  13.527   6.409
    5AU     LIG 2619   9.459  13.178   6.144
    5AU     LIG 2620   9.697  12.788   6.022
    5AU     LIG 2621  10.030  12.453   5.968
    5AU    AUSL 2622   7.471  15.123   7.470
    5AU    AUSL 2623   7.555  15.273   7.055
    5AU     AUL 2624   7.263  15.345   7.040
    5AU       S 2625   7.474  14.940   7.024
    5AU     LIG 2626   6.987  14.927   6.971
    5AU     LIG 2627   6.699  14.617   6.771
    5AU     LIG 2628   6.429  14.401   6.442
    5AU     LIG 2629   6.133  14.159   6.158
    5AU     LIG 2630   5.861  14.159   5.762
    5AU     LIG 2631   5.632  13.983   5.380
    5AU       S 2632   7.181  15.086   7.423
    5AU     LIG 2633   6.769  14.861   7.475
    5AU     LIG 2634   6.286  14.910   7.474
    5AU     LIG 2635   5.885  14.663   7.552
    5AU     LIG 2636   5.477  14.392   7.483
    5AU     LIG 2637   5.086  14.109   7.487
    5AU     LIG 2638   4.997  13.727   7.234
    5AU    AUSL 2639   7.635  15.477   7.623
    5AU    AUSL 2640   7.716  15.088   7.804
    5AU     AUL 2641   7.343  15.285   7.804
    5AU       S 2642   7.482  14.869   7.929
    5AU     LIG 2643   7.296  14.544   7.766
    5AU     LIG 2644   6.985  14.246   7.956
    5AU     LIG 2645   6.614  14.035   8.206
    5AU     LIG 2646   6.364  13.701   8.470
    5AU     LIG 2647   6.207  13.263   8.630
    5AU     LIG 2648   5.864  12.915   8.664
    5AU       S 2649   7.056  15.369   7.472
    5AU     LIG 2650   6.637  15.562   7.264
    5AU     LIG 2651   6.167  15.427   7.272
    5AU     LIG 2652   5.788  15.138   7.336
    5AU     LIG 2653   5.440  14.906   7.570
    5AU     LIG 2654   5.062  15.069   7.781
    5AU     LIG 2655   4.687  14.856   7.851
    5AU    AUSL 2656   8.229  16.281   8.015
    5AU    AUSL 2657   7.905  16.077   7.727
    5AU     AUL 2658   7.935  16.386   8.094
    5AU       S 2659   7.541  16.219   8.262
    5AU     LIG 2660   7.369  16.568   8.508
    5AU     LIG 2661   7.153  16.866   8.816
    5AU     LIG 2662   7.079  17.324   8.942
    5AU     LIG 2663   6.928  17.784   8.980
    5AU     LIG 2664   6.595  18.088   9.132
    5AU     LIG 2665   6.164  18.097   9.346
    5AU       S 2666   8.295  16.677   7.961
    5AU     LIG 2667   8.450  16.755   8.355
    5AU     LIG 2668   8.521  17.180   8.568
    5AU     LIG 2669   8.529  17.608   8.794
    5AU     LIG 2670   8.452  17.893   9.190
    5AU     LIG 2671   8.293  18.173   9.563
    5AU     LIG 2672   8.191  18.569   9.823
    5AU    AUSL 2673   7.985  16.460   7.651
    5AU    AUSL 2674   8.416  16.436   7.257
    5AU     AUL 2675   8.108  16.692   7.411
    5AU       S 2676   8.141  16.757   7.866
    5AU     LIG 2677   8.281  17.175   8.094
    5AU     LIG 2678   8.313  17.607   8.307
    5AU     LIG 2679   8.095  18.048   8.372
    5AU     LIG 2680   7.848  18.477   8.399
    5AU     LIG 2681   7.698  18.919   8.563
    5AU     LIG 2682   7.540  19.370   8.596
    5AU       S 2683   8.448  16.772   7.088
    5AU     LIG 2684   8.832  16.915   6.863
    5AU     LIG 2685   8.998  17.379   6.768
    5AU     LIG 2686   9.012  17.866   6.696
    5AU     LIG 2687   9.248  18.315   6.660
    5AU     LIG 2688   9.499  18.737   6.586
    5AU     LIG 2689   9.457  19.148   6.359
    5AU    AUSL 2690   8.377  16.298   7.635
    5AU    AUSL 2691   8.393  15.930   7.901
    5AU     AUL 2692   8.550  16.308   8.046
    5AU       S 2693   8.931  16.099   8.224
    5AU     LIG 2694   9.077  16.244   8.628
    5AU     LIG 2695   9.353  16.492   8.940
    5AU     LIG 2696   9.646  16.622   9.288
    5AU     LIG 2697   9.915  16.842   9.606
    5AU     LIG 2698   9.891  17.113   9.986
    5AU     LIG 2699   9.784  17.517  10.208
    5AU       S 2700   8.471  16.614   7.705
    5AU     LIG 2701   8.723  16.947   7.955
    5AU     LIG 2702   8.789  17.392   8.174
    5AU     LIG 2703   9.038  17.813   8.313
    5AU     LIG 2704   9.196  18.287   8.295
    5AU     LIG 2705   9.282  18.761   8.301
    5AU     LIG 2706   9.366  19.225   8.256
    5AU    AUSL 2707   8.147  15.044   7.932
    5AU    AUSL 2708   8.504  15.164   7.730
    5AU     AUL 2709   8.361  14.908   8.171
    5AU       S 2710   8.127  14.484   8.003
    5AU     LIG 2711   7.731  14.305   8.170
    5AU     LIG 2712   7.653  13.859   8.201
    5AU     LIG 2713   7.763  13.432   8.371
    5AU     LIG 2714   7.807  12.989   8.524
    5AU     LIG 2715   7.872  12.707   8.904
    5AU     LIG 2716   8.003  12.455   9.286
    5AU       S 2717   8.786  14.795   7.948
    5AU     LIG 2718   8.937  14.362   8.143
    5AU     LIG 2719   9.116  13.958   8.375
    5AU     LIG 2720   9.330  13.557   8.595
    5AU     LIG 2721   9.469  13.094   8.762
    5AU     LIG 2722   9.824  12.746   8.836
    5AU     LIG 2723  10.186  12.421   8.952
    5AU    AUSL 2724   7.967  14.803   7.660
    5AU    AUSL 2725   7.858  15.167   8.193
    5AU     AUL 2726   7.910  14.868   8.075
    5AU       S 2727   7.866  14.533   7.763
    5AU     LIG 2728   7.600  14.140   7.674
    5AU     LIG 2729   7.528  13.658   7.747
    5AU     LIG 2730   7.523  13.203   7.973
    5AU     LIG 2731   7.323  12.745   8.116
    5AU     LIG 2732   7.237  12.235   8.137
    5AU     LIG 2733   7.249  11.764   8.265
    5AU       S 2734   7.533  15.012   8.274
    5AU     LIG 2735   7.282  14.571   8.286
    5AU     LIG 2736   6.966  14.298   8.480
    5AU     LIG 2737   6.708  13.992   8.728
    5AU     LIG 2738   6.442  13.700   8.994
    5AU     LIG 2739   6.356  13.540   9.427
    5AU     LIG 2740   6.336  13.348   9.861
    5AU    AUSL 2741   8.402  14.776   7.710
    5AU    AUSL 2742   7.913  14.799   7.255
    5AU     AUL 2743   8.233  14.530   7.483
    5AU       S 2744   7.789  14.541   7.282
    5AU     LIG 2745   7.503  14.225   7.159
    5AU     LIG 2746   7.510  13.780   7.242
    5AU     LIG 2747   7.436  13.336   7.066
    5AU     LIG 2748   7.154  12.953   6.917
    5AU     LIG 2749   7.037  12.508   6.764
    5AU     LIG 2750   7.313  12.142   6.735
    5AU       S 2751   8.240  14.532   7.928
    5AU     LIG 2752   8.069  14.032   7.840
    5AU     LIG 2753   7.998  13.560   7.924
    5AU     LIG 2754   8.070  13.108   8.082
    5AU     LIG 2755   8.374  12.734   8.188
    5AU     LIG 2756   8.596  12.296   8.187
    5AU     LIG 2757   8.627  11.829   8.349
    5AU    AUSL 2758   8.180  16.245   6.946
    5AU    AUSL 2759   8.475  16.036   7.251
    5AU     AUL 2760   8.560  16.341   7.004
    5AU       S 2761   8.217  16.526   6.752
    5AU     LIG 2762   8.466  16.816   6.507
    5AU     LIG 2763   8.683  17.213   6.387
    5AU     LIG 2764   8.722  17.553   6.046
    5AU     LIG 2765   8.560  17.823   5.668
    5AU     LIG 2766   8.394  18.215   5.434
    5AU     LIG 2767   8.323  18.656   5.253
    5AU       S 2768   8.919  16.050   6.960
    5AU     LIG 2769   9.240  16.468   6.809
    5AU     LIG 2770   9.494  16.751   6.514
    5AU     LIG 2771   9.679  17.040   6.189
    5AU     LIG 2772   9.958  17.407   6.119
    5AU     LIG 2773  10.142  17.802   5.921
    5AU     LIG 2774  10.165  18.274   5.997
    5AU    AUSL 2775   8.073  16.218   7.341
    5AU    AUSL 2776   7.928  15.949   7.049
    5AU     AUL 2777   7.905  16.420   7.092
    5AU       S 2778   8.259  16.708   6.977
    5AU     LIG 2779   8.390  17.195   6.837
    5AU     LIG 2780   8.522  17.631   6.675
    5AU     LIG 2781   8.339  18.084   6.618
    5AU     LIG 2782   8.045  18.489   6.589
    5AU     LIG 2783   7.808  18.922   6.518
    5AU     LIG 2784   7.685  19.403   6.450
    5AU       S 2785   7.741  16.204   6.714
    5AU     LIG 2786   7.764  16.246   6.289
    5AU     LIG 2787   7.560  16.536   5.956
    5AU     LIG 2788   7.316  16.761   5.596
    5AU     LIG 2789   7.209  16.957   5.156
    5AU     LIG 2790   7.169  17.258   4.773
    5AU     LIG 2791   6.904  17.596   4.586
    5AU    AUSL 2792   8.240  14.898   6.986
    5AU    AUSL 2793   7.846  15.182   7.338
    5AU     AUL 2794   7.922  14.898   6.898
    5AU       S 2795   7.463  14.822   7.112
    5AU     LIG 2796   7.149  14.564   7.278
    5AU     LIG 2797   6.886  14.233   7.061
    5AU     LIG 2798   6.548  14.025   6.771
    5AU     LIG 2799   6.319  13.725   6.465
    5AU     LIG 2800   6.227  13.264   6.320
    5AU     LIG 2801   5.949  12.970   6.061
    5AU       S 2802   8.061  14.482   7.032
    5AU     LIG 2803   7.876  14.140   6.821
    5AU     LIG 2804   7.702  13.714   6.773
    5AU     LIG 2805   7.787  13.270   6.670
    5AU     LIG 2806   7.824  12.990   6.285
    5AU     LIG 2807   7.872  12.782   5.854
    5AU     LIG 2808   7.888  12.395   5.574
    5AU    AUSL 2809   8.253  14.980   7.396
    5AU    AUSL 2810   8.384  15.252   7.103
    5AU     AUL 2811   8.425  14.760   7.150
    5AU       S 2812   7.900  14.555   7.190
    5AU     LIG 2813   7.974  14.072   7.325
    5AU     LIG 2814   8.004  13.608   7.179
    5AU     LIG 2815   8.238  13.212   6.987
    5AU     LIG 2816   8.532  12.817   6.921
    5AU     LIG 2817   8.678  12.360   6.826
    5AU     LIG 2818   8.722  11.897   6.689
    5AU       S 2819   8.645  14.863   6.764
    5AU     LIG 2820   8.486  14.472   6.699
    5AU     LIG 2821   8.684  14.130   6.425
    5AU     LIG 2822   8.910  13.785   6.161
    5AU     LIG 2823   9.156  13.499   5.863
    5AU     LIG 2824   9.375  13.464   5.440
    5AU     LIG 2825   9.520  13.291   5.021
    6AU     AUC 2826  12.040  33.107   7.496
    6AU     AUC 2827  12.301  33.108   7.334
    6AU     AUC 2828  12.295  33.099   7.645
    6AU     AUC 2829  11.788  33.110   7.332
    6AU     AUC 2830  11.780  33.127   7.648
    6AU     AUC 2831  11.890  33.365   7.495
    6AU     AUC 2832  12.202  33.361   7.482
    6AU     AUC 2833  11.886  32.852   7.508
    6AU     AUC 2834  12.179  32.853   7.516
    6AU     AUC 2835  12.033  32.959   7.758
    6AU     AUC 2836  12.056  33.271   7.751
    6AU     AUC 2837  12.038  32.945   7.240
    6AU     AUC 2838  12.030  33.247   7.235
    6AU     AUC 2839  12.548  33.101   7.170
    6AU     AUC 2840  12.558  33.108   7.481
    6AU     AUC 2841  12.555  33.099   7.789
    6AU     AUC 2842  11.529  33.099   7.178
    6AU     AUC 2843  11.522  33.124   7.487
    6AU     AUC 2844  11.533  33.143   7.808
    6AU     AUC 2845  11.747  33.629   7.501
    6AU     AUC 2846  12.058  33.629   7.492
    6AU     AUC 2847  12.352  33.622   7.484
    6AU     AUC 2848  11.706  32.597   7.516
    6AU     AUC 2849  12.021  32.586   7.504
    6AU     AUC 2850  12.336  32.587   7.521
    6AU     AUC 2851  12.019  32.808   8.012
    6AU     AUC 2852  12.044  33.118   8.023
    6AU     AUC 2853  12.064  33.425   8.012
    6AU     AUC 2854  12.038  32.771   7.000
    6AU     AUC 2855  12.046  33.088   6.973
    6AU     AUC 2856  12.028  33.396   6.972
    6AU     AUC 2857  12.309  32.959   7.919
    6AU     AUC 2858  12.314  33.252   7.911
    6AU     AUC 2859  12.309  32.936   7.078
    6AU     AUC 2860  12.309  33.244   7.066
    6AU     AUC 2861  11.771  32.978   7.923
    6AU     AUC 2862  11.793  33.287   7.924
    6AU     AUC 2863  11.789  32.947   7.066
    6AU     AUC 2864  11.777  33.252   7.073
    6AU     AUC 2865  12.455  33.371   7.312
    6AU     AUC 2866  12.472  33.352   7.630
    6AU     AUC 2867  11.621  33.366   7.345
    6AU     AUC 2868  11.635  33.388   7.665
    6AU     AUC 2869  12.451  32.841   7.344
    6AU     AUC 2870  12.455  32.845   7.662
    6AU     AUC 2871  11.616  32.855   7.335
    6AU     AUC 2872  11.622  32.867   7.677
    6AU     AUC 2873  11.897  33.528   7.765
    6AU     AUC 2874  12.216  33.533   7.735
    6AU     AUC 2875  11.863  32.688   7.754
    6AU     AUC 2876  12.182  32.697   7.783
    6AU     AUC 2877  11.879  33.519   7.233
    6AU     AUC 2878  12.196  33.509   7.216
    6AU     AUC 2879  11.865  32.694   7.241
    6AU     AUC 2880  12.194  32.679   7.263
    6AU    AUSL 2881  12.396  33.052   8.081
    6AU    AUSL 2882  12.345  32.634   8.132
    6AU     AUL 2883  12.583  32.711   8.394
    6AU       S 2884  12.616  32.343   8.067
    6AU     LIG 2885  12.554  32.193   8.464
    6AU     LIG 2886  12.601  31.769   8.632
    6AU     LIG 2887  12.860  31.467   8.883
    6AU     LIG 2888  13.150  31.216   9.170
    6AU     LIG 2889  13.261  31.057   9.617
    6AU     LIG 2890  13.290  31.003  10.104
    6AU       S 2891  12.452  33.080   8.651
    6AU     LIG 2892  12.681  32.763   8.903
    6AU     LIG 2893  12.907  32.595   9.296
    6AU     LIG 2894  13.186  32.492   9.679
    6AU     LIG 2895  13.590  32.532   9.956
    6AU     LIG 2896  13.915  32.725  10.256
    6AU     LIG 2897  14.143  32.959  10.597
    6AU    AUSL 2898  12.119  32.910   8.349
    6AU    AUSL 2899  11.977  33.295   8.275
    6AU     AUL 2900  12.043  33.276   8.695
    6AU       S 2901  12.192  32.909   8.495
    6AU     LIG 2902  12.234  32.539   8.739
    6AU     LIG 2903  12.439  32.384   9.175
    6AU     LIG 2904  12.630  32.314   9.645
    6AU     LIG 2905  12.657  32.191  10.135
    6AU     LIG 2906  12.727  32.163  10.626
    6AU     LIG 2907  12.935  31.966  11.017
    6AU       S 2908  11.700  32.997   8.620
    6AU     LIG 2909  11.669  32.910   9.087
    6AU     LIG 2910  11.424  32.849   9.496
    6AU     LIG 2911  11.256  32.813   9.947
    6AU     LIG 2912  11.207  33.047  10.375
    6AU     LIG 2913  11.175  33.281  10.805
    6AU     LIG 2914  11.190  33.378  11.273
    6AU    AUSL 2915  12.363  33.403   8.281
    6AU    AUSL 2916  12.698  33.303   7.960
    6AU     AUL 2917  12.691  33.135   8.272
    6AU       S 2918  12.395  33.443   8.454
    6AU     LIG 2919  12.535  33.587   8.863
    6AU     LIG 2920  12.623  33.816   9.298
    6AU     LIG 2921  12.630  33.955   9.782
    6AU     LIG 2922  12.757  34.132  10.218
    6AU     LIG 2923  12.924  34.014  10.650
    6AU     LIG 2924  12.921  33.881  11.112
    6AU       S 2925  12.986  33.365   8.000
    6AU     LIG 2926  13.174  33.324   8.416
    6AU     LIG 2927  13.442  33.608   8.685
    6AU     LIG 2928  13.716  33.925   8.925
    6AU     LIG 2929  13.957  34.107   9.304
    6AU     LIG 2930  14.313  34.130   9.635
    6AU     LIG 2931  14.681  34.158   9.951
    6AU    AUSL 2932  12.576  33.137   6.855
    6AU    AUSL 2933  12.337  33.530   6.821
    6AU     AUL 2934  12.711  33.495   6.454
    6AU       S 2935  12.599  33.164   6.697
    6AU     LIG 2936  12.902  33.065   6.309
    6AU     LIG 2937  12.927  32.856   5.893
    6AU     LIG 2938  13.045  32.682   5.459
    6AU     LIG 2939  13.418  32.579   5.148
    6AU     LIG 2940  13.853  32.573   4.916
    6AU     LIG 2941  14.176  32.696   4.591
    6AU       S 2942  12.347  33.590   6.669
    6AU     LIG 2943  12.655  33.958   6.610
    6AU     LIG 2944  12.997  34.008   6.294
    6AU     LIG 2945  13.314  34.197   5.972
    6AU     LIG 2946  13.531  34.270   5.529
    6AU     LIG 2947  13.667  34.541   5.145
    6AU     LIG 2948  13.720  34.943   4.914
    6AU    AUSL 2949  12.312  32.820   6.710
    6AU    AUSL 2950  12.647  32.764   7.000
    6AU     AUL 2951  12.742  32.760   6.661
    6AU       S 2952  12.716  32.338   6.850
    6AU     LIG 2953  12.851  32.131   6.467
    6AU     LIG 2954  13.088  31.767   6.290
    6AU     LIG 2955  13.327  31.451   6.030
    6AU     LIG 2956  13.659  31.376   5.693
    6AU     LIG 2957  14.056  31.382   5.420
    6AU     LIG 2958  14.234  31.218   5.007
    6AU       S 2959  12.418  33.046   6.431
    6AU     LIG 2960  12.511  32.683   6.196
    6AU     LIG 2961  12.585  32.498   5.749
    6AU     LIG 2962  12.615  32.447   5.262
    6AU     LIG 2963  12.612  32.189   4.832
    6AU     LIG 2964  12.723  32.028   4.375
    6AU     LIG 2965  12.872  31.852   3.946
    6AU    AUSL 2966  12.168  33.169   6.887
    6AU    AUSL 2967  11.912  32.926   6.673
    6AU     AUL 2968  12.104  32.727   6.547
    6AU       S 2969  11.651  33.048   6.346
    6AU     LIG 2970  11.753  32.644   6.137
    6AU     LIG 2971  11.613  32.406   5.732
    6AU     LIG 2972  11.397  32.316   5.308
    6AU     LIG 2973  11.128  32.113   4.953
    6AU     LIG 2974  10.996  31.934   4.518
    6AU     LIG 2975  11.036  31.867   4.039
    6AU       S 2976  12.302  33.161   6.483
    6AU     LIG 2977  12.499  33.167   5.975
    6AU     LIG 2978  12.564  32.971   5.539
    6AU     LIG 2979  12.740  32.960   5.106
    6AU     LIG 2980  12.710  33.227   4.703
    6AU     LIG 2981  12.772  33.306   4.228
    6AU     LIG 2982  12.839  33.534   3.816
    6AU    AUSL 2983  11.595  33.177   8.207
    6AU    AUSL 2984  11.733  33.585   8.132
    6AU     AUL 2985  11.766  33.503   8.428
    6AU       S 2986  11.530  33.159   8.651
    6AU     LIG 2987  11.257  32.789   8.796
    6AU     LIG 2988  11.045  32.645   9.210
    6AU     LIG 2989  10.854  32.651   9.655
    6AU     LIG 2990  10.570  32.719  10.039
    6AU     LIG 2991  10.168  32.775  10.317
    6AU     LIG 2992  10.002  32.692  10.761
    6AU       S 2993  11.310  33.536   8.356
    6AU     LIG 2994  11.367  33.645   8.779
    6AU     LIG 2995  11.308  34.017   9.057
    6AU     LIG 2996  11.056  34.304   9.320
    6AU     LIG 2997  10.923  34.506   9.727
    6AU     LIG 2998  10.781  34.781  10.093
    6AU     LIG 2999  10.543  34.991  10.451
    6AU    AUSL 3000  11.895  32.974   8.021
    6AU    AUSL 3001  11.390  32.897   7.993
    6AU     AUL 3002  11.399  33.009   8.237
    6AU       S 3003  11.229  32.566   8.200
    6AU     LIG 3004  10.813  32.508   8.011
    6AU     LIG 3005  10.493  32.208   8.172
    6AU     LIG 3006  10.271  31.950   8.522
    6AU     LIG 3007  10.036  31.658   8.823
    6AU     LIG 3008   9.793  31.357   9.100
    6AU     LIG 3009   9.598  31.240   9.518
    6AU       S 3010  11.714  32.889   8.573
    6AU     LIG 3011  11.690  32.498   8.747
    6AU     LIG 3012  11.509  32.417   9.179
    6AU     LIG 3013  11.285  32.366   9.608
    6AU     LIG 3014  11.042  32.320  10.021
    6AU     LIG 3015  10.968  32.177  10.472
    6AU     LIG 3016  11.017  32.190  10.941
    6AU    AUSL 3017  11.613  33.081   6.897
    6AU    AUSL 3018  11.786  32.644   6.933
    6AU     AUL 3019  11.640  32.703   6.648
    6AU       S 3020  11.341  33.007   6.514
    6AU     LIG 3021  11.256  32.744   6.159
    6AU     LIG 3022  11.195  32.702   5.691
    6AU     LIG 3023  10.959  32.579   5.298
    6AU     LIG 3024  10.696  32.412   4.942
    6AU     LIG 3025  10.375  32.517   4.610
    6AU     LIG 3026  10.171  32.602   4.182
    6AU       S 3027  11.354  32.351   6.804
    6AU     LIG 3028  11.072  31.984   6.789
    6AU     LIG 3029  10.732  31.728   6.580
    6AU     LIG 3030  10.446  31.484   6.300
    6AU     LIG 3031  10.251  31.290   5.904
    6AU     LIG 3032  10.166  31.072   5.471
    6AU     LIG 3033  10.115  30.727   5.122
    6AU    AUSL 3034  11.881  33.360   6.674
    6AU    AUSL 3035  11.383  33.406   6.976
    6AU     AUL 3036  11.524  33.380   6.672
    6AU       S 3037  11.212  33.700   6.790
    6AU     LIG 3038  11.087  33.678   6.348
    6AU     LIG 3039  10.874  33.891   5.971
    6AU     LIG 3040  10.552  33.915   5.604
    6AU     LIG 3041  10.192  34.063   5.313
    6AU     LIG 3042   9.964  34.380   5.044
    6AU     LIG 3043   9.584  34.636   4.959
    6AU       S 3044  11.830  33.123   6.446
    6AU     LIG 3045  11.995  33.066   5.998
    6AU     LIG 3046  11.688  32.912   5.644
    6AU     LIG 3047  11.413  32.859   5.233
    6AU     LIG 3048  11.284  33.038   4.779
    6AU     LIG 3049  11.190  33.270   4.337
    6AU     LIG 3050  11.055  33.468   3.900
    6AU    AUSL 3051  12.656  33.714   7.417
    6AU    AUSL 3052  12.676  33.469   7.072
    6AU     AUL 3053  12.816  33.929   7.218
    6AU       S 3054  12.820  33.561   6.897
    6AU     LIG 3055  13.173  33.428   6.649
    6AU     LIG 3056  13.412  33.683   6.295
    6AU     LIG 3057  13.721  33.888   5.954
    6AU     LIG 3058  14.010  33.992   5.561
    6AU     LIG 3059  14.416  34.164   5.343
    6AU     LIG 3060  14.876  34.258   5.219
    6AU       S 3061  13.117  33.586   7.332
    6AU     LIG 3062  13.604  33.619   7.477
    6AU     LIG 3063  14.105  33.691   7.488
    6AU     LIG 3064  14.590  33.772   7.475
    6AU     LIG 3065  15.012  34.005   7.551
    6AU     LIG 3066  15.262  34.450   7.564
    6AU     LIG 3067  15.439  34.890   7.706
    6AU    AUSL 3068  12.873  33.153   7.228
    6AU    AUSL 3069  12.872  32.992   7.644
    6AU     AUL 3070  13.156  32.922   7.412
    6AU       S 3071  13.081  33.360   7.283
    6AU     LIG 3072  13.497  33.227   7.174
    6AU     LIG 3073  13.976  33.261   7.240
    6AU     LIG 3074  14.470  33.321   7.255
    6AU     LIG 3075  14.944  33.461   7.185
    6AU     LIG 3076  15.454  33.506   7.109
    6AU     LIG 3077  15.896  33.547   6.878
    6AU       S 3078  13.168  32.518   7.671
    6AU     LIG 3079  13.486  32.274   7.840
    6AU     LIG 3080  13.891  32.065   7.834
    6AU     LIG 3081  14.333  32.010   7.729
    6AU     LIG 3082  14.734  32.163   7.904
    6AU     LIG 3083  15.141  31.956   7.897
    6AU     LIG 3084  15.478  31.641   7.943
    6AU    AUSL 3085  12.668  33.328   7.554
    6AU    AUSL 3086  12.571  33.671   7.817
    6AU     AUL 3087  12.819  33.673   7.683
    6AU       S 3088  12.829  33.560   8.114
    6AU     LIG 3089  13.253  33.783   8.180
    6AU     LIG 3090  13.456  34.089   8.490
    6AU     LIG 3091  13.620  34.436   8.789
    6AU     LIG 3092  13.779  34.896   8.905
    6AU     LIG 3093  14.101  35.253   8.986
    6AU     LIG 3094  14.351  35.602   8.761
    6AU       S 3095  13.136  33.385   7.540
    6AU     LIG 3096  13.455  33.193   7.742
    6AU     LIG 3097  13.931  33.275   7.757
    6AU     LIG 3098  14.413  33.375   7.773
    6AU     LIG 3099  14.881  33.522   7.821
    6AU     LIG 3100  15.344  33.615   7.927
    6AU     LIG 3101  15.801  33.734   7.826
    6AU    AUSL 3102  11.384  33.657   7.581
    6AU    AUSL 3103  11.434  33.406   7.916
    6AU     AUL 3104  11.398  33.865   7.826
    6AU       S 3105  11.233  33.486   8.100
    6AU     LIG 3106  10.871  33.731   8.397
    6AU     LIG 3107  10.850  33.914   8.848
    6AU     LIG 3108  10.656  33.970   9.295
    6AU     LIG 3109  10.358  33.992   9.684
    6AU     LIG 3110   9.968  34.021   9.979
    6AU     LIG 3111   9.656  34.325  10.166
    6AU       S 3112  11.008  33.669   7.687
    6AU     LIG 3113  10.956  34.073   7.441
    6AU     LIG 3114  10.621  34.455   7.410
    6AU     LIG 3115  10.236  34.795   7.433
    6AU     LIG 3116   9.781  35.002   7.484
    6AU     LIG 3117   9.345  35.184   7.621
    6AU     LIG 3118   8.893  35.351   7.733
    6AU    AUSL 3119  11.457  33.323   7.360
    6AU    AUSL 3120  11.549  33.738   7.213
    6AU     AUL 3121  11.258  33.660   7.259
    6AU       S 3122  10.890  33.579   7.543
    6AU     LIG 3123  10.756  33.686   7.118
    6AU     LIG 3124  10.309  33.768   6.923
    6AU     LIG 3125   9.811  33.799   6.883
    6AU     LIG 3126   9.321  33.849   6.883
    6AU     LIG 3127   8.892  34.026   6.727
    6AU     LIG 3128   8.434  34.225   6.675
    6AU       S 3129  11.370  33.920   6.875
    6AU     LIG 3130  11.234  34.152   6.489
    6AU     LIG 3131  11.122  34.514   6.201
    6AU     LIG 3132  10.979  34.974   6.208
    6AU     LIG 3133  10.717  35.334   6.083
    6AU     LIG 3134  10.354  35.501   5.884
    6AU     LIG 3135  10.007  35.784   5.843
    6AU    AUSL 3136  11.186  33.234   7.659
    6AU    AUSL 3137  11.218  33.000   7.302
    6AU     AUL 3138  11.054  33.258   7.264
    6AU       S 3139  10.875  32.801   7.426
    6AU     LIG 3140  10.492  32.801   7.721
    6AU     LIG 3141  10.011  32.786   7.694
    6AU     LIG 3142   9.646  32.485   7.593
    6AU     LIG 3143   9.276  32.327   7.310
    6AU     LIG 3144   8.798  32.346   7.250
    6AU     LIG 3145   8.321  32.357   7.203
    6AU       S 3146  11.005  33.253   7.741
    6AU     LIG 3147  10.717  33.406   8.027
    6AU     LIG 3148  10.335  33.628   8.204
    6AU     LIG 3149   9.852  33.698   8.247
    6AU     LIG 3150   9.426  33.875   8.366
    6AU     LIG 3151   8.978  33.977   8.275
    6AU     LIG 3152   8.570  34.105   8.048
    6AU    AUSL 3153  12.724  32.602   7.563
    6AU    AUSL 3154  12.682  32.805   7.947
    6AU     AUL 3155  12.988  32.868   7.901
    6AU       S 3156  12.872  32.345   7.536
    6AU     LIG 3157  13.067  32.002   7.735
    6AU     LIG 3158  13.498  31.796   7.622
    6AU     LIG 3159  13.970  31.655   7.531
    6AU     LIG 3160  14.420  31.492   7.444
    6AU     LIG 3161  14.713  31.124   7.532
    6AU     LIG 3162  15.151  30.985   7.443
    6AU       S 3163  12.715  32.496   8.019
    6AU     LIG 3164  13.078  32.240   8.211
    6AU     LIG 3165  13.109  31.899   8.550
    6AU     LIG 3166  13.357  31.575   8.822
    6AU     LIG 3167  13.639  31.405   9.183
    6AU     LIG 3168  14.015  31.393   9.492
    6AU     LIG 3169  14.307  31.382   9.874
    6AU    AUSL 3170  12.573  32.926   7.362
    6AU    AUSL 3171  12.495  32.465   7.254
    6AU     AUL 3172  12.843  32.672   7.180
    6AU       S 3173  12.922  32.510   7.589
    6AU     LIG 3174  13.313  32.218   7.324
    6AU     LIG 3175  13.805  32.099   7.318
    6AU     LIG 3176  14.281  31.937   7.215
    6AU     LIG 3177  14.676  31.687   7.018
    6AU     LIG 3178  15.164  31.673   6.906
    6AU     LIG 3179  15.485  31.985   6.749
    6AU       S 3180  12.735  32.230   7.054
    6AU     LIG 3181  12.748  31.806   6.852
    6AU     LIG 3182  12.884  31.420   6.609
    6AU     LIG 3183  13.101  31.086   6.360
    6AU     LIG 3184  13.238  30.629   6.340
    6AU     LIG 3185  13.560  30.390   6.118
    6AU     LIG 3186  13.964  30.293   5.932
    6AU    AUSL 3187  11.328  32.618   7.463
    6AU    AUSL 3188  11.416  32.762   7.050
    6AU     AUL 3189  11.127  32.838   7.023
    6AU       S 3190  11.341  32.435   7.017
    6AU     LIG 3191  10.839  32.417   6.979
    6AU     LIG 3192  10.555  32.202   6.693
    6AU     LIG 3193  10.248  31.952   6.450
    6AU     LIG 3194   9.983  31.680   6.167
    6AU     LIG 3195   9.767  31.452   5.809
    6AU     LIG 3196   9.502  31.352   5.429
    6AU       S 3197  11.033  32.589   7.409
    6AU     LIG 3198  10.652  32.341   7.513
    6AU     LIG 3199  10.206  32.326   7.629
    6AU     LIG 3200   9.837  32.037   7.710
    6AU     LIG 3201   9.352  31.954   7.652
    6AU     LIG 3202   8.899  31.736   7.591
    6AU     LIG 3203   8.610  31.361   7.418
    6AU    AUSL 3204  11.489  32.973   7.616
    6AU    AUSL 3205  11.575  32.583   7.794
    6AU     AUL 3206  11.201  32.773   7.793
    6AU       S 3207  11.301  32.362   7.968
    6AU     LIG 3208  10.980  32.068   7.816
    6AU     LIG 3209  10.589  31.801   7.886
    6AU     LIG 3210  10.325  31.540   8.211
    6AU     LIG 3211  10.096  31.235   8.529
    6AU     LIG 3212   9.846  30.861   8.733
    6AU     LIG 3213   9.630  30.400   8.704
    6AU       S 3214  10.918  32.861   7.454
    6AU     LIG 3215  10.441  32.710   7.222
    6AU     LIG 3216   9.943  32.675   7.194
    6AU     LIG 3217   9.447  32.813   7.278
    6AU     LIG 3218   9.142  32.670   7.657
    6AU     LIG 3219   8.862  32.297   7.749
    6AU     LIG 3220   8.402  32.198   7.703
    6AU    AUSL 3221  12.077  33.774   8.018
    6AU    AUSL 3222  11.755  33.576   7.728
    6AU     AUL 3223  11.781  33.878   8.099
    6AU       S 3224  11.381  33.714   8.256
    6AU     LIG 3225  11.240  34.075   8.528
    6AU     LIG 3226  11.069  34.444   8.800
    6AU     LIG 3227  10.972  34.948   8.803
    6AU     LIG 3228  10.705  35.371   8.755
    6AU     LIG 3229  10.322  35.574   8.935
    6AU     LIG 3230   9.979  35.810   9.131
    6AU       S 3231  12.145  34.169   7.972
    6AU     LIG 3232  12.294  34.256   8.359
    6AU     LIG 3233  12.384  34.683   8.549
    6AU     LIG 3234  12.369  35.079   8.816
    6AU     LIG 3235  12.395  35.320   9.240
    6AU     LIG 3236  12.332  35.649   9.586
    6AU     LIG 3237  12.160  35.957   9.912
    6AU    AUSL 3238  11.838  33.960   7.657
    6AU    AUSL 3239  12.270  33.941   7.263
    6AU     AUL 3240  11.983  34.204   7.427
    6AU       S 3241  11.989  34.255   7.884
    6AU     LIG 3242  12.111  34.683   8.105
    6AU     LIG 3243  12.121  35.127   8.335
    6AU     LIG 3244  11.905  35.593   8.429
    6AU     LIG 3245  11.849  36.093   8.494
    6AU     LIG 3246  11.886  36.549   8.685
    6AU     LIG 3247  11.571  36.897   8.791
    6AU       S 3248  12.292  34.290   7.070
    6AU     LIG 3249  12.587  34.593   6.882
    6AU     LIG 3250  12.852  34.975   6.758
    6AU     LIG 3251  13.173  35.345   6.762
    6AU     LIG 3252  13.183  35.786   6.627
    6AU     LIG 3253  12.893  36.144   6.523
    6AU     LIG 3254  13.033  36.575   6.380
    6AU    AUSL 3255  12.233  33.802   7.642
    6AU    AUSL 3256  12.254  33.431   7.901
    6AU     AUL 3257  12.402  33.800   8.055
    6AU       S 3258  12.788  33.592   8.221
    6AU     LIG 3259  12.952  33.774   8.603
    6AU     LIG 3260  13.197  34.008   8.932
    6AU     LIG 3261  13.455  34.246   9.245
    6AU     LIG 3262  13.646  34.432   9.629
    6AU     LIG 3263  13.574  34.726  10.001
    6AU     LIG 3264  13.599  35.154  10.199
    6AU       S 3265  12.333  34.113   7.720
    6AU     LIG 3266  12.557  34.464   7.962
    6AU     LIG 3267  12.617  34.919   8.136
    6AU     LIG 3268  12.922  35.324   8.136
    6AU     LIG 3269  13.131  35.746   8.290
    6AU     LIG 3270  13.233  36.185   8.430
    6AU     LIG 3271  13.235  36.600   8.662
    6AU    AUSL 3272  12.007  32.542   7.927
    6AU    AUSL 3273  12.360  32.671   7.726
    6AU     AUL 3274  12.189  32.429   8.191
    6AU       S 3275  12.054  32.004   8.021
    6AU     LIG 3276  12.078  31.706   8.309
    6AU     LIG 3277  11.806  31.341   8.279
    6AU     LIG 3278  11.728  30.887   8.336
    6AU     LIG 3279  11.626  30.573   8.674
    6AU     LIG 3280  11.620  30.442   9.143
    6AU     LIG 3281  11.697  30.227   9.563
    6AU       S 3282  12.646  32.294   7.945
    6AU     LIG 3283  12.738  31.847   8.126
    6AU     LIG 3284  12.939  31.455   8.366
    6AU     LIG 3285  13.166  31.113   8.645
    6AU     LIG 3286  13.330  30.667   8.791
    6AU     LIG 3287  13.637  30.289   8.823
    6AU     LIG 3288  14.065  30.162   8.759
    6AU    AUSL 3289  11.833  32.301   7.654
    6AU    AUSL 3290  11.715  32.660   8.185
    6AU     AUL 3291  11.751  32.344   8.034
    6AU       S 3292  11.808  31.943   7.821
    6AU     LIG 3293  11.593  31.531   7.839
    6AU     LIG 3294  11.456  31.086   7.943
    6AU     LIG 3295  11.294  30.656   8.123
    6AU     LIG 3296  10.989  30.257   8.193
    6AU     LIG 3297  10.852  29.798   8.295
    6AU     LIG 3298  10.929  29.323   8.345
    6AU       S 3299  11.413  32.516   8.285
    6AU     LIG 3300  11.044  32.139   8.340
    6AU     LIG 3301  10.747  31.790   8.400
    6AU     LIG 3302  10.514  31.502   8.703
    6AU     LIG 3303  10.281  31.223   9.023
    6AU     LIG 3304  10.085  31.063   9.439
    6AU     LIG 3305  10.085  30.934   9.907
    6AU    AUSL 3306  12.268  32.281   7.697
    6AU    AUSL 3307  11.775  32.298   7.249
    6AU     AUL 3308  12.082  32.034   7.465
    6AU       S 3309  11.671  31.975   7.136
    6AU     LIG 3310  11.347  31.670   7.188
    6AU     LIG 3311  11.337  31.197   7.161
    6AU     LIG 3312  11.346  30.735   6.984
    6AU     LIG 3313  11.168  30.301   6.794
    6AU     LIG 3314  11.054  29.814   6.721
    6AU     LIG 3315  10.959  29.314   6.704
    6AU       S 3316  12.182  32.063   7.901
    6AU     LIG 3317  12.121  31.549   7.819
    6AU     LIG 3318  11.976  31.079   7.872
    6AU     LIG 3319  12.047  30.604   8.008
    6AU     LIG 3320  12.284  30.154   7.997
    6AU     LIG 3321  12.347  29.698   8.125
    6AU     LIG 3322  12.449  29.511   8.554
    6AU    AUSL 3323  12.026  33.756   6.952
    6AU    AUSL 3324  12.329  33.540   7.253
    6AU     AUL 3325  12.409  33.853   7.017
    6AU       S 3326  12.062  34.035   6.764
    6AU     LIG 3327  12.324  34.333   6.523
    6AU     LIG 3328  12.449  34.780   6.405
    6AU     LIG 3329  12.557  35.028   5.990
    6AU     LIG 3330  12.607  35.336   5.604
    6AU     LIG 3331  12.514  35.775   5.408
    6AU     LIG 3332  12.481  36.134   5.096
    6AU       S 3333  12.764  33.559   6.957
    6AU     LIG 3334  13.135  33.915   6.800
    6AU     LIG 3335  13.441  34.164   6.497
    6AU     LIG 3336  13.628  34.546   6.262
    6AU     LIG 3337  13.850  34.987   6.286
    6AU     LIG 3338  14.154  35.341   6.158
    6AU     LIG 3339  14.549  35.634   6.123
    6AU    AUSL 3340  11.930  33.719   7.348
    6AU    AUSL 3341  11.788  33.449   7.054
    6AU     AUL 3342  11.764  33.933   7.126
    6AU       S 3343  12.102  34.215   6.982
    6AU     LIG 3344  12.063  34.657   6.813
    6AU     LIG 3345  12.153  35.101   6.755
    6AU     LIG 3346  11.927  35.516   6.793
    6AU     LIG 3347  11.885  35.955   6.641
    6AU     LIG 3348  11.828  36.399   6.511
    6AU     LIG 3349  11.544  36.773   6.560
    6AU       S 3350  11.590  33.819   6.722
    6AU     LIG 3351  11.577  33.813   6.292
    6AU     LIG 3352  11.353  34.093   5.972
    6AU     LIG 3353  11.193  34.350   5.593
    6AU     LIG 3354  11.200  34.652   5.200
    6AU     LIG 3355  11.089  34.942   4.821
    6AU     LIG 3356  10.835  35.271   4.581
    6AU    AUSL 3357  12.105  32.400   6.979
    6AU    AUSL 3358  11.706  32.681   7.336
    6AU     AUL 3359  11.799  32.374   6.927
    6AU       S 3360  11.316  32.314   7.112
    6AU     LIG 3361  11.023  32.062   7.294
    6AU     LIG 3362  10.646  31.863   7.082
    6AU     LIG 3363  10.290  31.616   6.833
    6AU     LIG 3364  10.027  31.290   6.541
    6AU     LIG 3365   9.767  30.861   6.430
    6AU     LIG 3366   9.559  30.408   6.350
    6AU       S 3367  11.930  31.951   7.023
    6AU     LIG 3368  11.734  31.543   6.871
    6AU     LIG 3369  11.612  31.113   6.729
    6AU     LIG 3370  11.592  30.689   6.526
    6AU     LIG 3371  11.670  30.400   6.158
    6AU     LIG 3372  11.803  30.126   5.785
    6AU     LIG 3373  11.937  29.706   5.591
    6AU    AUSL 3374  12.112  32.486   7.388
    6AU    AUSL 3375  12.236  32.760   7.095
    6AU     AUL 3376  12.283  32.264   7.137
    6AU       S 3377  11.678  32.077   7.280
    6AU     LIG 3378  11.827  31.587   7.387
    6AU     LIG 3379  11.849  31.141   7.199
    6AU     LIG 3380  11.899  30.712   6.960
    6AU     LIG 3381  12.186  30.302   6.877
    6AU     LIG 3382  12.368  29.897   6.675
    6AU     LIG 3383  12.559  29.485   6.557
    6AU       S 3384  12.502  32.379   6.750
    6AU     LIG 3385  12.336  32.018   6.632
    6AU     LIG 3386  12.556  31.711   6.340
    6AU     LIG 3387  12.801  31.397   6.066
    6AU     LIG 3388  13.025  31.158   5.711
    6AU     LIG 3389  13.101  30.958   5.276
    6AU     LIG 3390  13.281  30.684   4.920
    7AU     AUC 3391  44.043  19.954   7.506
    7AU     AUC 3392  44.304  19.957   7.344
    7AU     AUC 3393  44.298  19.952   7.654
    7AU     AUC 3394  43.792  19.951   7.343
    7AU     AUC 3395  43.783  19.970   7.657
    7AU     AUC 3396  43.889  20.209   7.499
    7AU     AUC 3397  44.201  20.211   7.487
    7AU     AUC 3398  43.892  19.696   7.521
    7AU     AUC 3399  44.187  19.702   7.530
    7AU     AUC 3400  44.039  19.809   7.769
    7AU     AUC 3401  44.056  20.121   7.758
    7AU     AUC 3402  44.045  19.787   7.252
    7AU     AUC 3403  44.032  20.089   7.242
    7AU     AUC 3404  44.553  19.951   7.180
    7AU     AUC 3405  44.561  19.964   7.491
    7AU     AUC 3406  44.559  19.959   7.798
    7AU     AUC 3407  43.534  19.932   7.190
    7AU     AUC 3408  43.525  19.961   7.496
    7AU     AUC 3409  43.535  19.985   7.818
    7AU     AUC 3410  43.741  20.472   7.499
    7AU     AUC 3411  44.050  20.476   7.492
    7AU     AUC 3412  44.343  20.475   7.484
    7AU     AUC 3413  43.716  19.440   7.532
    7AU     AUC 3414  44.032  19.432   7.521
    7AU     AUC 3415  44.348  19.440   7.539
    7AU     AUC 3416  44.027  19.663   8.026
    7AU     AUC 3417  44.046  19.974   8.032
    7AU     AUC 3418  44.062  20.280   8.015
    7AU     AUC 3419  44.048  19.608   7.018
    7AU     AUC 3420  44.054  19.924   6.983
    7AU     AUC 3421  44.027  20.232   6.975
    7AU     AUC 3422  44.314  19.817   7.930
    7AU     AUC 3423  44.315  20.110   7.917
    7AU     AUC 3424  44.317  19.779   7.091
    7AU     AUC 3425  44.311  20.087   7.073
    7AU     AUC 3426  43.777  19.826   7.934
    7AU     AUC 3427  43.793  20.136   7.930
    7AU     AUC 3428  43.798  19.779   7.078
    7AU     AUC 3429  43.782  20.087   7.080
    7AU     AUC 3430  44.453  20.222   7.318
    7AU     AUC 3431  44.471  20.209   7.635
    7AU     AUC 3432  43.620  20.202   7.350
    7AU     AUC 3433  43.632  20.230   7.670
    7AU     AUC 3434  44.459  19.691   7.359
    7AU     AUC 3435  44.463  19.701   7.675
    7AU     AUC 3436  43.623  19.692   7.349
    7AU     AUC 3437  43.628  19.710   7.690
    7AU     AUC 3438  43.892  20.377   7.768
    7AU     AUC 3439  44.211  20.386   7.737
    7AU     AUC 3440  43.872  19.535   7.768
    7AU     AUC 3441  44.192  19.551   7.798
    7AU     AUC 3442  43.875  20.359   7.235
    7AU     AUC 3443  44.192  20.353   7.219
    7AU     AUC 3444  43.875  19.532   7.255
    7AU     AUC 3445  44.204  19.525   7.280
    7AU    AUSL 3446  44.401  19.914   8.086
    7AU    AUSL 3447  44.352  19.499   8.150
    7AU     AUL 3448  44.590  19.578   8.407
    7AU       S 3449  44.628  19.207   8.093
    7AU     LIG 3450  44.502  18.916   8.393
    7AU     LIG 3451  44.642  18.558   8.653
    7AU     LIG 3452  44.889  18.318   8.975
    7AU     LIG 3453   0.128  18.064   9.302
    7AU     LIG 3454   0.119  17.787   9.704
    7AU     LIG 3455   0.187  17.456  10.045
    7AU       S 3456  44.455  19.949   8.661
    7AU     LIG 3457  44.658  19.648   8.934
    7AU     LIG 3458  44.852  19.532   9.365
    7AU     LIG 3459   0.197  19.620   9.706
    7AU     LIG 3460   0.623  19.697   9.933
    7AU     LIG 3461   1.034  19.598  10.173
    7AU     LIG 3462   1.208  19.580  10.610
    7AU    AUSL 3463  44.128  19.780   8.361
    7AU    AUSL 3464  43.977  20.160   8.276
    7AU     AUL 3465  44.044  20.149   8.699
    7AU       S 3466  44.204  19.785   8.504
    7AU     LIG 3467  44.220  19.411   8.737
    7AU     LIG 3468  44.426  19.239   9.156
    7AU     LIG 3469  44.570  19.133   9.617
    7AU     LIG 3470  44.630  18.959  10.077
    7AU     LIG 3471  44.854  18.897  10.509
    7AU     LIG 3472  44.987  18.973  10.973
    7AU       S 3473  43.713  19.852   8.633
    7AU     LIG 3474  43.604  19.757   9.094
    7AU     LIG 3475  43.450  19.683   9.532
    7AU     LIG 3476  43.331  19.753   9.984
    7AU     LIG 3477  43.436  20.008  10.382
    7AU     LIG 3478  43.325  20.297  10.741
    7AU     LIG 3479  43.165  20.510  11.123
    7AU    AUSL 3480  44.363  20.265   8.285
    7AU    AUSL 3481  44.698  20.172   7.965
    7AU     AUL 3482  44.692  20.003   8.281
    7AU       S 3483  44.395  20.315   8.455
    7AU     LIG 3484  44.602  20.396   8.863
    7AU     LIG 3485  44.666  20.477   9.346
    7AU     LIG 3486  44.642  20.596   9.824
    7AU     LIG 3487  44.587  20.698  10.293
    7AU     LIG 3488  44.731  20.783  10.743
    7AU     LIG 3489  44.824  20.759  11.201
    7AU       S 3490  44.977  20.230   7.997
    7AU     LIG 3491   0.178  20.167   8.394
    7AU     LIG 3492   0.457  20.403   8.694
    7AU     LIG 3493   0.751  20.685   8.952
    7AU     LIG 3494   1.017  20.878   9.315
    7AU     LIG 3495   1.381  20.869   9.654
    7AU     LIG 3496   1.777  20.891   9.946
    7AU    AUSL 3497  44.583  19.980   6.868
    7AU    AUSL 3498  44.333  20.365   6.819
    7AU     AUL 3499  44.721  20.344   6.473
    7AU       S 3500  44.602  20.004   6.701
    7AU     LIG 3501  44.899  19.907   6.320
    7AU     LIG 3502  44.965  19.695   5.913
    7AU     LIG 3503   0.110  19.554   5.467
    7AU     LIG 3504   0.467  19.408   5.145
    7AU     LIG 3505   0.835  19.303   4.824
    7AU     LIG 3506   1.099  19.350   4.429
    7AU       S 3507  44.330  20.413   6.652
    7AU     LIG 3508  44.616  20.807   6.574
    7AU     LIG 3509  44.973  20.841   6.261
    7AU     LIG 3510   0.278  21.017   5.919
    7AU     LIG 3511   0.462  21.200   5.500
    7AU     LIG 3512   0.583  21.411   5.064
    7AU     LIG 3513   0.741  21.812   4.832
    7AU    AUSL 3514  44.329  19.653   6.726
    7AU    AUSL 3515  44.659  19.610   7.019
    7AU     AUL 3516  44.767  19.606   6.692
    7AU       S 3517  44.735  19.182   6.873
    7AU     LIG 3518  44.937  18.933   6.528
    7AU     LIG 3519   0.167  18.576   6.290
    7AU     LIG 3520   0.428  18.308   5.995
    7AU     LIG 3521   0.832  18.289   5.738
    7AU     LIG 3522   1.227  18.397   5.483
    7AU     LIG 3523   1.612  18.464   5.199
    7AU       S 3524  44.421  19.853   6.451
    7AU     LIG 3525  44.540  19.478   6.251
    7AU     LIG 3526  44.621  19.329   5.805
    7AU     LIG 3527  44.681  19.291   5.328
    7AU     LIG 3528  44.724  19.236   4.849
    7AU     LIG 3529  44.863  19.012   4.439
    7AU     LIG 3530   0.130  18.998   4.038
    7AU    AUSL 3531  44.173  20.003   6.892
    7AU    AUSL 3532  43.929  19.748   6.679
    7AU     AUL 3533  44.122  19.525   6.583
    7AU       S 3534  43.885  19.845   6.339
    7AU     LIG 3535  43.807  19.482   6.110
    7AU     LIG 3536  43.550  19.353   5.720
    7AU     LIG 3537  43.336  19.316   5.284
    7AU     LIG 3538  43.041  19.101   4.941
    7AU     LIG 3539  42.950  18.842   4.526
    7AU     LIG 3540  43.053  18.766   4.056
    7AU       S 3541  44.325  19.969   6.493
    7AU     LIG 3542  44.468  19.921   5.977
    7AU     LIG 3543  44.626  19.778   5.532
    7AU     LIG 3544  44.752  19.737   5.063
    7AU     LIG 3545  44.684  19.890   4.594
    7AU     LIG 3546  44.780  20.140   4.178
    7AU     LIG 3547  44.902  20.421   3.801
    7AU    AUSL 3548  43.597  20.029   8.221
    7AU    AUSL 3549  43.722  20.439   8.129
    7AU     AUL 3550  43.768  20.370   8.429
    7AU       S 3551  43.543  20.024   8.655
    7AU     LIG 3552  43.240  19.671   8.733
    7AU     LIG 3553  43.094  19.542   9.179
    7AU     LIG 3554  42.948  19.569   9.652
    7AU     LIG 3555  42.622  19.624  10.026
    7AU     LIG 3556  42.314  19.602  10.414
    7AU     LIG 3557  41.932  19.662  10.715
    7AU       S 3558  43.307  20.385   8.360
    7AU     LIG 3559  43.383  20.548   8.771
    7AU     LIG 3560  43.239  20.854   9.105
    7AU     LIG 3561  43.063  21.191   9.406
    7AU     LIG 3562  42.945  21.481   9.771
    7AU     LIG 3563  42.873  21.745  10.175
    7AU     LIG 3564  42.763  22.121  10.450
    7AU    AUSL 3565  43.897  19.826   8.035
    7AU    AUSL 3566  43.402  19.740   8.010
    7AU     AUL 3567  43.407  19.848   8.252
    7AU       S 3568  43.232  19.404   8.222
    7AU     LIG 3569  42.816  19.300   8.010
    7AU     LIG 3570  42.447  19.018   8.158
    7AU     LIG 3571  42.194  18.707   8.446
    7AU     LIG 3572  41.897  18.340   8.594
    7AU     LIG 3573  41.645  18.023   8.868
    7AU     LIG 3574  41.599  17.979   9.336
    7AU       S 3575  43.726  19.740   8.588
    7AU     LIG 3576  43.653  19.350   8.776
    7AU     LIG 3577  43.517  19.249   9.229
    7AU     LIG 3578  43.331  19.195   9.676
    7AU     LIG 3579  43.287  18.963  10.102
    7AU     LIG 3580  43.179  18.811  10.548
    7AU     LIG 3581  43.222  18.798  11.022
    7AU    AUSL 3582  43.649  19.904   6.926
    7AU    AUSL 3583  43.790  19.476   6.943
    7AU     AUL 3584  43.612  19.591   6.644
    7AU       S 3585  43.665  19.932   6.317
    7AU     LIG 3586  43.373  19.755   6.017
    7AU     LIG 3587  43.103  19.622   5.638
    7AU     LIG 3588  42.851  19.495   5.248
    7AU     LIG 3589  42.527  19.299   4.954
    7AU     LIG 3590  42.181  19.332   4.627
    7AU     LIG 3591  42.082  19.521   4.210
    7AU       S 3592  43.357  19.196   6.801
    7AU     LIG 3593  43.098  18.800   6.775
    7AU     LIG 3594  42.745  18.530   6.589
    7AU     LIG 3595  42.402  18.345   6.308
    7AU     LIG 3596  42.226  18.169   5.891
    7AU     LIG 3597  42.338  17.901   5.488
    7AU     LIG 3598  42.390  17.728   5.038
    7AU    AUSL 3599  43.875  20.180   6.679
    7AU    AUSL 3600  43.385  20.212   6.977
    7AU     AUL 3601  43.461  20.046   6.701
    7AU       S 3602  43.297  20.475   6.761
    7AU     LIG 3603  43.113  20.478   6.330
    7AU     LIG 3604  42.902  20.683   5.936
    7AU     LIG 3605  42.673  20.864   5.548
    7AU     LIG 3606  42.352  20.947   5.206
    7AU     LIG 3607  41.987  21.222   5.064
    7AU     LIG 3608  41.680  21.568   4.981
    7AU       S 3609  43.874  20.109   6.456
    7AU     LIG 3610  43.858  20.044   5.892
    7AU     LIG 3611  43.568  19.844   5.543
    7AU     LIG 3612  43.264  19.840   5.167
    7AU     LIG 3613  43.222  20.028   4.717
    7AU     LIG 3614  43.169  20.274   4.294
    7AU     LIG 3615  43.068  20.397   3.832
    7AU    AUSL 3616  44.645  20.572   7.415
    7AU    AUSL 3617  44.673  20.319   7.077
    7AU     AUL 3618  44.793  20.788   7.211
    7AU       S 3619  44.809  20.406   6.916
    7AU     LIG 3620   0.148  20.216   6.717
    7AU     LIG 3621   0.347  20.460   6.349
    7AU     LIG 3622   0.665  20.700   6.056
    7AU     LIG 3623   0.958  20.829   5.686
    7AU     LIG 3624   1.328  20.881   5.370
    7AU     LIG 3625   1.635  21.077   5.057
    7AU       S 3626   0.111  20.458   7.329
    7AU     LIG 3627   0.610  20.470   7.443
    7AU     LIG 3628   1.119  20.529   7.422
    7AU     LIG 3629   1.616  20.591   7.408
    7AU     LIG 3630   1.985  20.899   7.512
    7AU     LIG 3631   2.228  21.321   7.594
    7AU     LIG 3632   2.375  21.739   7.394
    7AU    AUSL 3633  44.877  20.010   7.239
    7AU    AUSL 3634  44.875  19.858   7.657
    7AU     AUL 3635   0.162  19.789   7.428
    7AU       S 3636   0.079  20.226   7.296
    7AU     LIG 3637   0.466  20.087   7.140
    7AU     LIG 3638   0.942  20.087   7.230
    7AU     LIG 3639   1.427  20.168   7.166
    7AU     LIG 3640   1.900  20.294   7.054
    7AU     LIG 3641   2.368  20.489   7.005
    7AU     LIG 3642   2.844  20.522   6.949
    7AU       S 3643   0.188  19.383   7.680
    7AU     LIG 3644   0.591  19.136   7.739
    7AU     LIG 3645   1.019  18.880   7.751
    7AU     LIG 3646   1.474  18.652   7.734
    7AU     LIG 3647   1.972  18.554   7.734
    7AU     LIG 3648   2.437  18.555   7.924
    7AU     LIG 3649   2.766  18.810   8.179
    7AU    AUSL 3650  44.666  20.189   7.559
    7AU    AUSL 3651  44.563  20.535   7.815
    7AU     AUL 3652  44.811  20.538   7.680
    7AU       S 3653  44.826  20.423   8.111
    7AU     LIG 3654   0.264  20.623   8.154
    7AU     LIG 3655   0.497  20.873   8.486
    7AU     LIG 3656   0.704  21.179   8.795
    7AU     LIG 3657   0.991  21.534   8.970
    7AU     LIG 3658   1.291  21.931   9.019
    7AU     LIG 3659   1.482  22.368   9.138
    7AU       S 3660   0.137  20.256   7.543
    7AU     LIG 3661   0.458  20.081   7.761
    7AU     LIG 3662   0.941  20.170   7.756
    7AU     LIG 3663   1.409  20.337   7.814
    7AU     LIG 3664   1.888  20.500   7.839
    7AU     LIG 3665   2.377  20.446   7.906
    7AU     LIG 3666   2.828  20.572   7.917
    7AU    AUSL 3667  43.377  20.494   7.582
    7AU    AUSL 3668  43.433  20.239   7.917
    7AU     AUL 3669  43.384  20.698   7.825
    7AU       S 3670  43.235  20.316   8.091
    7AU     LIG 3671  42.863  20.573   8.261
    7AU     LIG 3672  42.868  20.713   8.729
    7AU     LIG 3673  42.718  20.912   9.143
    7AU     LIG 3674  42.412  20.963   9.515
    7AU     LIG 3675  41.973  21.072   9.694
    7AU     LIG 3676  41.588  21.254   9.912
    7AU       S 3677  42.991  20.509   7.685
    7AU     LIG 3678  42.767  20.915   7.530
    7AU     LIG 3679  42.448  21.286   7.484
    7AU     LIG 3680  42.180  21.681   7.594
    7AU     LIG 3681  41.837  21.979   7.438
    7AU     LIG 3682  41.475  22.199   7.243
    7AU     LIG 3683  41.199  22.500   7.086
    7AU    AUSL 3684  43.457  20.159   7.366
    7AU    AUSL 3685  43.536  20.569   7.209
    7AU     AUL 3686  43.254  20.486   7.240
    7AU       S 3687  42.887  20.425   7.518
    7AU     LIG 3688  42.502  20.548   7.260
    7AU     LIG 3689  42.181  20.860   7.006
    7AU     LIG 3690  41.692  21.020   6.907
    7AU     LIG 3691  41.209  21.009   6.758
    7AU     LIG 3692  40.771  21.138   6.633
    7AU     LIG 3693  40.353  20.933   6.745
    7AU       S 3694  43.355  20.727   6.839
    7AU     LIG 3695  43.244  20.966   6.442
    7AU     LIG 3696  43.093  21.331   6.152
    7AU     LIG 3697  42.930  21.806   6.089
    7AU     LIG 3698  42.790  22.277   6.045
    7AU     LIG 3699  42.404  22.563   6.105
    7AU     LIG 3700  41.986  22.576   5.878
    7AU    AUSL 3701  43.182  20.073   7.662
    7AU    AUSL 3702  43.223  19.831   7.314
    7AU     AUL 3703  43.056  20.083   7.274
    7AU       S 3704  42.877  19.613   7.440
    7AU     LIG 3705  42.479  19.566   7.702
    7AU     LIG 3706  42.015  19.535   7.789
    7AU     LIG 3707  41.632  19.355   7.611
    7AU     LIG 3708  41.451  19.156   7.198
    7AU     LIG 3709  41.030  18.946   7.127
    7AU     LIG 3710  40.554  18.982   7.145
    7AU       S 3711  42.955  20.123   7.750
    7AU     LIG 3712  42.498  20.372   7.830
    7AU     LIG 3713  42.081  20.613   8.021
    7AU     LIG 3714  41.721  20.951   8.185
    7AU     LIG 3715  41.242  21.119   8.175
    7AU     LIG 3716  40.784  20.990   8.286
    7AU     LIG 3717  40.335  21.061   8.485
    7AU    AUSL 3718  44.738  19.464   7.579
    7AU    AUSL 3719  44.692  19.667   7.962
    7AU     AUL 3720  44.998  19.733   7.911
    7AU       S 3721  44.890  19.204   7.557
    7AU     LIG 3722   0.124  18.878   7.749
    7AU     LIG 3723   0.520  18.636   7.644
    7AU     LIG 3724   0.931  18.444   7.494
    7AU     LIG 3725   1.358  18.258   7.416
    7AU     LIG 3726   1.734  18.115   7.622
    7AU     LIG 3727   2.166  17.981   7.621
    7AU       S 3728  44.744  19.352   8.043
    7AU     LIG 3729   0.019  18.964   8.257
    7AU     LIG 3730   0.147  18.669   8.613
    7AU     LIG 3731   0.393  18.398   8.922
    7AU     LIG 3732   0.691  18.137   9.180
    7AU     LIG 3733   1.096  18.072   9.427
    7AU     LIG 3734   1.463  18.075   9.743
    7AU    AUSL 3735  44.579  19.782   7.375
    7AU    AUSL 3736  44.509  19.314   7.277
    7AU     AUL 3737  44.856  19.530   7.196
    7AU       S 3738  44.933  19.373   7.605
    7AU     LIG 3739   0.299  19.095   7.300
    7AU     LIG 3740   0.780  18.919   7.290
    7AU     LIG 3741   1.269  18.769   7.277
    7AU     LIG 3742   1.751  18.590   7.253
    7AU     LIG 3743   2.218  18.642   7.034
    7AU     LIG 3744   2.715  18.759   6.999
    7AU       S 3745  44.755  19.083   7.082
    7AU     LIG 3746  44.678  18.668   6.884
    7AU     LIG 3747  44.906  18.317   6.653
    7AU     LIG 3748   0.197  18.048   6.377
    7AU     LIG 3749   0.579  17.801   6.186
    7AU     LIG 3750   0.952  17.465   6.125
    7AU     LIG 3751   1.377  17.271   5.958
    7AU    AUSL 3752  43.339  19.453   7.479
    7AU    AUSL 3753  43.421  19.597   7.060
    7AU     AUL 3754  43.129  19.661   7.042
    7AU       S 3755  43.347  19.260   7.032
    7AU     LIG 3756  42.852  19.219   6.990
    7AU     LIG 3757  42.506  18.956   6.767
    7AU     LIG 3758  42.132  18.725   6.542
    7AU     LIG 3759  41.908  18.486   6.194
    7AU     LIG 3760  41.790  18.464   5.729
    7AU     LIG 3761  41.443  18.427   5.394
    7AU       S 3762  43.051  19.415   7.433
    7AU     LIG 3763  42.686  19.135   7.506
    7AU     LIG 3764  42.210  19.093   7.572
    7AU     LIG 3765  41.764  18.878   7.537
    7AU     LIG 3766  41.277  18.933   7.618
    7AU     LIG 3767  40.903  18.646   7.615
    7AU     LIG 3768  40.683  18.212   7.662
    7AU    AUSL 3769  43.491  19.814   7.630
    7AU    AUSL 3770  43.587  19.426   7.811
    7AU     AUL 3771  43.209  19.616   7.814
    7AU       S 3772  43.326  19.216   7.997
    7AU     LIG 3773  43.104  18.959   7.765
    7AU     LIG 3774  42.707  18.706   7.850
    7AU     LIG 3775  42.352  18.406   8.055
    7AU     LIG 3776  42.063  18.022   8.225
    7AU     LIG 3777  41.715  17.730   8.434
    7AU     LIG 3778  41.617  17.259   8.575
    7AU       S 3779  42.927  19.695   7.479
    7AU     LIG 3780  42.557  20.005   7.437
    7AU     LIG 3781  42.105  19.840   7.384
    7AU     LIG 3782  41.685  19.648   7.209
    7AU     LIG 3783  41.222  19.563   7.393
    7AU     LIG 3784  40.848  19.299   7.450
    7AU     LIG 3785  40.517  19.069   7.687
    7AU    AUSL 3786  44.068  20.626   8.022
    7AU    AUSL 3787  43.750  20.415   7.725
    7AU     AUL 3788  43.764  20.730   8.098
    7AU       S 3789  43.372  20.543   8.252
    7AU     LIG 3790  43.244  20.921   8.430
    7AU     LIG 3791  43.055  21.193   8.769
    7AU     LIG 3792  42.838  21.489   9.049
    7AU     LIG 3793  42.642  21.905   9.161
    7AU     LIG 3794  42.302  22.239   9.195
    7AU     LIG 3795  41.878  22.465   9.219
    7AU       S 3796  44.122  21.020   7.988
    7AU     LIG 3797  44.304  21.142   8.367
    7AU     LIG 3798  44.328  21.572   8.580
    7AU     LIG 3799  44.385  22.032   8.721
    7AU     LIG 3800  44.572  22.409   8.940
    7AU     LIG 3801  44.686  22.735   9.271
    7AU     LIG 3802  44.475  23.078   9.527
    7AU    AUSL 3803  43.821  20.801   7.659
    7AU    AUSL 3804  44.257  20.790   7.264
    7AU     AUL 3805  43.899  21.033   7.420
    7AU       S 3806  43.989  21.095   7.866
    7AU     LIG 3807  44.110  21.522   8.073
    7AU     LIG 3808  44.137  21.956   8.268
    7AU     LIG 3809  44.144  22.415   8.407
    7AU     LIG 3810  44.045  22.880   8.489
    7AU     LIG 3811  43.880  23.277   8.616
    7AU     LIG 3812  43.463  23.437   8.792
    7AU       S 3813  44.312  21.091   7.198
    7AU     LIG 3814  44.626  21.195   6.920
    7AU     LIG 3815  44.683  21.622   6.719
    7AU     LIG 3816  44.675  22.067   6.521
    7AU     LIG 3817  44.715  22.542   6.536
    7AU     LIG 3818  44.783  23.006   6.545
    7AU     LIG 3819  44.738  23.463   6.450
    7AU    AUSL 3820  44.218  20.652   7.643
    7AU    AUSL 3821  44.254  20.288   7.904
    7AU     AUL 3822  44.397  20.662   8.049
    7AU       S 3823  44.787  20.460   8.218
    7AU     LIG 3824  44.993  20.620   8.594
    7AU     LIG 3825   0.249  20.826   8.938
    7AU     LIG 3826   0.519  21.044   9.259
    7AU     LIG 3827   0.646  21.361   9.582
    7AU     LIG 3828   0.573  21.682   9.936
    7AU     LIG 3829   0.648  21.845  10.374
    7AU       S 3830  44.287  20.964   7.708
    7AU     LIG 3831  44.557  21.267   7.932
    7AU     LIG 3832  44.596  21.692   8.158
    7AU     LIG 3833  44.613  22.158   8.277
    7AU     LIG 3834  44.614  22.598   8.439
    7AU     LIG 3835  44.489  23.025   8.301
    7AU     LIG 3836  44.442  23.455   8.187
    7AU    AUSL 3837  44.020  19.396   7.940
    7AU    AUSL 3838  44.373  19.524   7.742
    7AU     AUL 3839  44.202  19.292   8.214
    7AU       S 3840  44.086  18.853   8.055
    7AU     LIG 3841  43.961  18.429   8.189
    7AU     LIG 3842  43.711  18.041   8.229
    7AU     LIG 3843  43.507  17.630   8.342
    7AU     LIG 3844  43.438  17.223   8.580
    7AU     LIG 3845  43.586  17.010   8.966
    7AU     LIG 3846  43.721  16.574   9.020
    7AU       S 3847  44.657  19.175   7.963
    7AU     LIG 3848  44.661  18.729   7.935
    7AU     LIG 3849  44.891  18.438   8.214
    7AU     LIG 3850   0.111  18.155   8.539
    7AU     LIG 3851   0.390  17.887   8.835
    7AU     LIG 3852   0.806  17.658   8.966
    7AU     LIG 3853   1.165  17.315   8.972
    7AU    AUSL 3854  43.848  19.145   7.674
    7AU    AUSL 3855  43.729  19.507   8.201
    7AU     AUL 3856  43.775  19.189   8.051
    7AU       S 3857  43.834  18.786   7.843
    7AU     LIG 3858  43.573  18.398   7.828
    7AU     LIG 3859  43.449  17.928   7.797
    7AU     LIG 3860  43.348  17.455   7.881
    7AU     LIG 3861  43.237  17.028   8.068
    7AU     LIG 3862  43.003  16.667   8.273
    7AU     LIG 3863  43.156  16.261   8.477
    7AU       S 3864  43.426  19.353   8.294
    7AU     LIG 3865  43.062  18.947   8.317
    7AU     LIG 3866  42.712  18.615   8.381
    7AU     LIG 3867  42.425  18.255   8.554
    7AU     LIG 3868  42.167  17.975   8.843
    7AU     LIG 3869  42.077  17.777   9.263
    7AU     LIG 3870  42.215  17.719   9.722
    7AU    AUSL 3871  44.283  19.133   7.717
    7AU    AUSL 3872  43.789  19.140   7.267
    7AU     AUL 3873  44.102  18.881   7.483
    7AU       S 3874  43.693  18.837   7.182
    7AU     LIG 3875  43.398  18.468   7.146
    7AU     LIG 3876  43.258  17.989   7.081
    7AU     LIG 3877  42.989  17.580   7.019
    7AU     LIG 3878  42.905  17.137   6.811
    7AU     LIG 3879  42.888  16.652   6.647
    7AU     LIG 3880  43.255  16.417   6.467
    7AU       S 3881  44.199  18.935   7.917
    7AU     LIG 3882  44.229  18.470   7.757
    7AU     LIG 3883  43.967  18.065   7.771
    7AU     LIG 3884  43.843  17.620   7.940
    7AU     LIG 3885  43.733  17.194   8.158
    7AU     LIG 3886  43.838  16.877   8.510
    7AU     LIG 3887  44.011  16.438   8.522
    7AU    AUSL 3888  44.026  20.596   6.950
    7AU    AUSL 3889  44.323  20.391   7.252
    7AU     AUL 3890  44.397  20.689   6.993
    7AU       S 3891  44.080  20.958   6.795
    7AU     LIG 3892  44.323  21.238   6.509
    7AU     LIG 3893  44.368  21.674   6.321
    7AU     LIG 3894  44.477  22.029   6.021
    7AU     LIG 3895  44.536  22.231   5.582
    7AU     LIG 3896  44.618  22.550   5.236
    7AU     LIG 3897  44.528  22.908   4.927
    7AU       S 3898  44.756  20.407   6.964
    7AU     LIG 3899   0.109  20.745   6.756
    7AU     LIG 3900   0.435  20.969   6.446
    7AU     LIG 3901   0.718  21.231   6.141
    7AU     LIG 3902   0.998  21.641   6.066
    7AU     LIG 3903   1.245  22.078   6.035
    7AU     LIG 3904   1.448  22.517   6.124
    7AU    AUSL 3905  43.918  20.566   7.345
    7AU    AUSL 3906  43.787  20.289   7.054
    7AU     AUL 3907  43.754  20.756   7.076
    7AU       S 3908  44.121  21.060   7.027
    7AU     LIG 3909  44.203  21.514   6.920
    7AU     LIG 3910  44.232  21.951   6.747
    7AU     LIG 3911  44.221  22.412   6.604
    7AU     LIG 3912  44.274  22.876   6.529
    7AU     LIG 3913  44.002  23.215   6.338
    7AU     LIG 3914  43.548  23.315   6.372
    7AU       S 3915  43.587  20.540   6.701
    7AU     LIG 3916  43.598  20.622   6.264
    7AU     LIG 3917  43.366  20.898   5.927
    7AU     LIG 3918  43.164  21.033   5.491
    7AU     LIG 3919  43.079  21.309   5.084
    7AU     LIG 3920  42.937  21.611   4.731
    7AU     LIG 3921  42.629  21.912   4.539
    7AU    AUSL 3922  44.117  19.241   6.999
    7AU    AUSL 3923  43.713  19.523   7.346
    7AU     AUL 3924  43.799  19.227   6.919
    7AU       S 3925  43.325  19.149   7.123
    7AU     LIG 3926  43.057  18.844   7.276
    7AU     LIG 3927  42.682  18.609   7.103
    7AU     LIG 3928  42.316  18.369   6.850
    7AU     LIG 3929  42.008  18.107   6.563
    7AU     LIG 3930  41.886  17.654   6.441
    7AU     LIG 3931  42.079  17.201   6.379
    7AU       S 3932  43.941  18.813   7.041
    7AU     LIG 3933  43.614  18.698   6.725
    7AU     LIG 3934  43.475  18.253   6.680
    7AU     LIG 3935  43.588  17.816   6.539
    7AU     LIG 3936  43.604  17.414   6.263
    7AU     LIG 3937  43.613  17.177   5.846
    7AU     LIG 3938  43.868  16.966   5.497
    7AU    AUSL 3939  44.123  19.333   7.407
    7AU    AUSL 3940  44.248  19.603   7.110
    7AU     AUL 3941  44.301  19.111   7.156
    7AU       S 3942  43.706  18.943   7.287
    7AU     LIG 3943  43.850  18.440   7.398
    7AU     LIG 3944  43.766  18.054   7.135
    7AU     LIG 3945  43.706  17.597   6.993
    7AU     LIG 3946  43.770  17.164   6.770
    7AU     LIG 3947  43.926  16.720   6.691
    7AU     LIG 3948  44.252  16.368   6.640
    7AU       S 3949  44.523  19.219   6.771
    7AU     LIG 3950  44.418  18.908   6.499
    7AU     LIG 3951  44.648  18.557   6.277
    7AU     LIG 3952  44.879  18.236   5.992
    7AU     LIG 3953  44.845  17.951   5.586
    7AU     LIG 3954  44.999  17.736   5.176
    7AU     LIG 3955   0.396  17.640   4.912
    8AU     AUC 3956  23.837   1.286   7.504
    8AU     AUC 3957  24.097   1.287   7.340
    8AU     AUC 3958  24.093   1.282   7.650
    8AU     AUC 3959  23.585   1.286   7.342
    8AU     AUC 3960  23.578   1.307   7.657
    8AU     AUC 3961  23.686   1.543   7.498
    8AU     AUC 3962  23.997   1.541   7.483
    8AU     AUC 3963  23.683   1.031   7.520
    8AU     AUC 3964  23.978   1.033   7.526
    8AU     AUC 3965  23.834   1.141   7.767
    8AU     AUC 3966  23.854   1.454   7.755
    8AU     AUC 3967  23.835   1.119   7.249
    8AU     AUC 3968  23.825   1.422   7.239
    8AU     AUC 3969  24.344   1.278   7.177
    8AU     AUC 3970  24.355   1.292   7.485
    8AU     AUC 3971  24.354   1.287   7.793
    8AU     AUC 3972  23.324   1.270   7.192
    8AU     AUC 3973  23.319   1.300   7.499
    8AU     AUC 3974  23.333   1.325   7.820
    8AU     AUC 3975  23.541   1.808   7.499
    8AU     AUC 3976  23.850   1.809   7.488
    8AU     AUC 3977  24.142   1.803   7.479
    8AU     AUC 3978  23.504   0.777   7.532
    8AU     AUC 3979  23.820   0.765   7.519
    8AU     AUC 3980  24.136   0.769   7.534
    8AU     AUC 3981  23.823   0.992   8.023
    8AU     AUC 3982  23.845   1.304   8.030
    8AU     AUC 3983  23.864   1.612   8.014
    8AU     AUC 3984  23.835   0.942   7.016
    8AU     AUC 3985  23.843   1.257   6.981
    8AU     AUC 3986  23.820   1.565   6.973
    8AU     AUC 3987  24.109   1.146   7.926
    8AU     AUC 3988  24.112   1.439   7.914
    8AU     AUC 3989  24.106   1.110   7.087
    8AU     AUC 3990  24.104   1.417   7.069
    8AU     AUC 3991  23.572   1.162   7.934
    8AU     AUC 3992  23.593   1.472   7.930
    8AU     AUC 3993  23.587   1.115   7.078
    8AU     AUC 3994  23.573   1.422   7.079
    8AU     AUC 3995  24.248   1.551   7.312
    8AU     AUC 3996  24.268   1.536   7.631
    8AU     AUC 3997  23.416   1.539   7.351
    8AU     AUC 3998  23.432   1.568   7.671
    8AU     AUC 3999  24.249   1.020   7.354
    8AU     AUC 4000  24.255   1.030   7.670
    8AU     AUC 4001  23.412   1.030   7.351
    8AU     AUC 4002  23.421   1.047   7.691
    8AU     AUC 4003  23.694   1.711   7.767
    8AU     AUC 4004  24.011   1.717   7.733
    8AU     AUC 4005  23.664   0.869   7.767
    8AU     AUC 4006  23.983   0.882   7.793
    8AU     AUC 4007  23.671   1.692   7.233
    8AU     AUC 4008  23.988   1.684   7.214
    8AU     AUC 4009  23.662   0.867   7.254
    8AU     AUC 4010  23.991   0.856   7.275
    8AU    AUSL 4011  24.195   1.244   8.093
    8AU    AUSL 4012  24.150   0.825   8.141
    8AU     AUL 4013  24.390   0.907   8.401
    8AU       S 4014  24.440   0.539   8.073
    8AU     LIG 4015  24.381   0.388   8.476
    8AU     LIG 4016  24.382  44.956   8.632
    8AU     LIG 4017  24.628  44.632   8.872
    8AU     LIG 4018  24.750  44.371   9.260
    8AU     LIG 4019  24.768  44.105   9.671
    8AU     LIG 4020  25.059  43.830   9.934
    8AU       S 4021  24.255   1.274   8.654
    8AU     LIG 4022  24.460   0.943   8.913
    8AU     LIG 4023  24.679   0.753   9.303
    8AU     LIG 4024  25.030   0.731   9.641
    8AU     LIG 4025  25.350   0.786  10.005
    8AU     LIG 4026  25.698   0.655  10.319
    8AU     LIG 4027  26.007   0.863  10.615
    8AU    AUSL 4028  23.920   1.095   8.358
    8AU    AUSL 4029  23.782   1.482   8.282
    8AU     AUL 4030  23.844   1.464   8.701
    8AU       S 4031  23.995   1.096   8.506
    8AU     LIG 4032  24.029   0.710   8.719
    8AU     LIG 4033  24.236   0.519   9.126
    8AU     LIG 4034  24.359   0.411   9.598
    8AU     LIG 4035  24.346   0.263  10.076
    8AU     LIG 4036  24.336   0.318  10.560
    8AU     LIG 4037  24.530   0.284  10.994
    8AU       S 4038  23.503   1.180   8.632
    8AU     LIG 4039  23.361   1.115   9.095
    8AU     LIG 4040  23.200   0.999   9.525
    8AU     LIG 4041  23.028   1.007   9.963
    8AU     LIG 4042  22.951   1.287  10.340
    8AU     LIG 4043  22.899   1.602  10.700
    8AU     LIG 4044  22.821   1.853  11.100
    8AU    AUSL 4045  24.164   1.603   8.279
    8AU    AUSL 4046  24.495   1.494   7.960
    8AU     AUL 4047  24.492   1.332   8.275
    8AU       S 4048  24.196   1.638   8.460
    8AU     LIG 4049  24.300   1.733   8.896
    8AU     LIG 4050  24.329   1.837   9.375
    8AU     LIG 4051  24.393   1.972   9.842
    8AU     LIG 4052  24.431   2.091  10.307
    8AU     LIG 4053  24.455   2.190  10.771
    8AU     LIG 4054  24.727   2.264  11.144
    8AU       S 4055  24.779   1.557   7.992
    8AU     LIG 4056  24.978   1.494   8.390
    8AU     LIG 4057  25.238   1.779   8.658
    8AU     LIG 4058  25.520   2.081   8.887
    8AU     LIG 4059  25.799   2.312   9.181
    8AU     LIG 4060  26.097   2.454   9.524
    8AU     LIG 4061  26.481   2.652   9.728
    8AU    AUSL 4062  24.374   1.309   6.865
    8AU    AUSL 4063  24.129   1.694   6.815
    8AU     AUL 4064  24.482   1.644   6.435
    8AU       S 4065  24.411   1.331   6.716
    8AU     LIG 4066  24.692   1.222   6.316
    8AU     LIG 4067  24.722   1.055   5.901
    8AU     LIG 4068  24.847   0.918   5.466
    8AU     LIG 4069  25.031   0.855   5.026
    8AU     LIG 4070  25.398   0.739   4.717
    8AU     LIG 4071  25.740   0.739   4.371
    8AU       S 4072  24.126   1.747   6.656
    8AU     LIG 4073  24.436   2.118   6.569
    8AU     LIG 4074  24.770   2.164   6.226
    8AU     LIG 4075  25.069   2.308   5.861
    8AU     LIG 4076  25.319   2.423   5.454
    8AU     LIG 4077  25.489   2.734   5.116
    8AU     LIG 4078  25.485   3.060   4.761
    8AU    AUSL 4079  24.116   0.987   6.721
    8AU    AUSL 4080  24.446   0.936   7.012
    8AU     AUL 4081  24.541   0.924   6.673
    8AU       S 4082  24.518   0.507   6.872
    8AU     LIG 4083  24.698   0.275   6.519
    8AU     LIG 4084  24.936  44.907   6.321
    8AU     LIG 4085  25.178  44.619   6.026
    8AU     LIG 4086  25.496  44.452   5.722
    8AU     LIG 4087  25.882  44.469   5.426
    8AU     LIG 4088  26.165  44.421   5.040
    8AU       S 4089  24.205   1.191   6.449
    8AU     LIG 4090  24.306   0.835   6.220
    8AU     LIG 4091  24.383   0.695   5.768
    8AU     LIG 4092  24.445   0.648   5.293
    8AU     LIG 4093  24.614   0.597   4.841
    8AU     LIG 4094  24.685   0.429   4.382
    8AU     LIG 4095  24.720   0.349   3.901
    8AU    AUSL 4096  23.964   1.335   6.890
    8AU    AUSL 4097  23.716   1.082   6.679
    8AU     AUL 4098  23.912   0.855   6.583
    8AU       S 4099  23.669   1.175   6.347
    8AU     LIG 4100  23.622   0.799   6.134
    8AU     LIG 4101  23.353   0.608   5.777
    8AU     LIG 4102  23.130   0.521   5.353
    8AU     LIG 4103  22.849   0.348   4.997
    8AU     LIG 4104  22.756   0.180   4.562
    8AU     LIG 4105  22.831   0.248   4.097
    8AU       S 4106  24.113   1.300   6.496
    8AU     LIG 4107  24.245   1.299   5.981
    8AU     LIG 4108  24.376   1.159   5.527
    8AU     LIG 4109  24.549   1.106   5.078
    8AU     LIG 4110  24.618   1.255   4.639
    8AU     LIG 4111  24.582   1.558   4.263
    8AU     LIG 4112  24.711   1.838   3.895
    8AU    AUSL 4113  23.398   1.365   8.219
    8AU    AUSL 4114  23.538   1.770   8.133
    8AU     AUL 4115  23.588   1.708   8.430
    8AU       S 4116  23.350   1.365   8.647
    8AU     LIG 4117  23.008   1.060   8.710
    8AU     LIG 4118  22.871   0.886   9.129
    8AU     LIG 4119  22.699   0.858   9.586
    8AU     LIG 4120  22.501   0.942  10.027
    8AU     LIG 4121  22.091   0.929  10.307
    8AU     LIG 4122  21.783   0.935  10.668
    8AU       S 4123  23.128   1.731   8.367
    8AU     LIG 4124  23.177   1.844   8.786
    8AU     LIG 4125  23.128   2.225   9.050
    8AU     LIG 4126  22.919   2.562   9.300
    8AU     LIG 4127  22.837   2.879   9.633
    8AU     LIG 4128  22.660   3.137   9.990
    8AU     LIG 4129  22.384   3.218  10.376
    8AU    AUSL 4130  23.695   1.160   8.030
    8AU    AUSL 4131  23.195   1.080   8.011
    8AU     AUL 4132  23.203   1.189   8.250
    8AU       S 4133  23.030   0.740   8.214
    8AU     LIG 4134  22.628   0.619   7.987
    8AU     LIG 4135  22.249   0.363   8.141
    8AU     LIG 4136  22.023   0.083   8.472
    8AU     LIG 4137  21.814  44.808   8.800
    8AU     LIG 4138  21.625  44.631   9.192
    8AU     LIG 4139  21.309  44.741   9.531
    8AU       S 4140  23.515   1.069   8.592
    8AU     LIG 4141  23.357   0.693   8.808
    8AU     LIG 4142  23.241   0.555   9.265
    8AU     LIG 4143  23.075   0.517   9.727
    8AU     LIG 4144  22.946   0.305  10.152
    8AU     LIG 4145  22.825   0.306  10.627
    8AU     LIG 4146  22.781   0.507  11.064
    8AU    AUSL 4147  23.435   1.241   6.922
    8AU    AUSL 4148  23.572   0.813   6.944
    8AU     AUL 4149  23.389   0.931   6.646
    8AU       S 4150  23.456   1.264   6.312
    8AU     LIG 4151  23.166   1.023   6.050
    8AU     LIG 4152  22.914   0.879   5.665
    8AU     LIG 4153  22.656   0.736   5.285
    8AU     LIG 4154  22.406   0.617   4.890
    8AU     LIG 4155  22.039   0.638   4.570
    8AU     LIG 4156  21.703   0.725   4.239
    8AU       S 4157  23.136   0.539   6.812
    8AU     LIG 4158  22.896   0.145   6.773
    8AU     LIG 4159  22.512  44.932   6.559
    8AU     LIG 4160  22.226  44.666   6.265
    8AU     LIG 4161  22.135  44.474   5.830
    8AU     LIG 4162  22.108  44.245   5.395
    8AU     LIG 4163  21.994  43.909   5.054
    8AU    AUSL 4164  23.668   1.515   6.678
    8AU    AUSL 4165  23.174   1.550   6.981
    8AU     AUL 4166  23.256   1.394   6.696
    8AU       S 4167  23.065   1.811   6.772
    8AU     LIG 4168  22.733   1.913   6.466
    8AU     LIG 4169  22.578   2.163   6.085
    8AU     LIG 4170  22.404   2.104   5.635
    8AU     LIG 4171  22.047   2.222   5.351
    8AU     LIG 4172  21.688   2.459   5.145
    8AU     LIG 4173  21.281   2.645   4.949
    8AU       S 4174  23.667   1.439   6.449
    8AU     LIG 4175  23.699   1.321   5.892
    8AU     LIG 4176  23.395   1.089   5.581
    8AU     LIG 4177  23.108   1.035   5.188
    8AU     LIG 4178  23.034   1.242   4.742
    8AU     LIG 4179  23.005   1.519   4.332
    8AU     LIG 4180  22.996   1.755   3.903
    8AU    AUSL 4181  24.444   1.898   7.412
    8AU    AUSL 4182  24.469   1.650   7.070
    8AU     AUL 4183  24.590   2.111   7.212
    8AU       S 4184  24.613   1.753   6.866
    8AU     LIG 4185  24.962   1.750   6.516
    8AU     LIG 4186  25.229   1.899   6.130
    8AU     LIG 4187  25.554   2.125   5.830
    8AU     LIG 4188  25.923   2.228   5.526
    8AU     LIG 4189  26.300   2.340   5.238
    8AU     LIG 4190  26.699   2.544   5.077
    8AU       S 4191  24.902   1.778   7.325
    8AU     LIG 4192  25.382   1.819   7.481
    8AU     LIG 4193  25.872   1.902   7.500
    8AU     LIG 4194  26.348   2.007   7.504
    8AU     LIG 4195  26.732   2.300   7.554
    8AU     LIG 4196  26.874   2.769   7.499
    8AU     LIG 4197  27.073   3.000   7.139
    8AU    AUSL 4198  24.667   1.336   7.230
    8AU    AUSL 4199  24.671   1.181   7.646
    8AU     AUL 4200  24.954   1.113   7.415
    8AU       S 4201  24.874   1.549   7.278
    8AU     LIG 4202  25.290   1.417   7.184
    8AU     LIG 4203  25.754   1.473   7.241
    8AU     LIG 4204  26.219   1.591   7.219
    8AU     LIG 4205  26.685   1.714   7.216
    8AU     LIG 4206  27.164   1.638   7.106
    8AU     LIG 4207  27.625   1.693   7.209
    8AU       S 4208  24.976   0.709   7.671
    8AU     LIG 4209  25.302   0.452   7.824
    8AU     LIG 4210  25.726   0.246   7.816
    8AU     LIG 4211  26.178   0.096   7.747
    8AU     LIG 4212  26.665   0.062   7.807
    8AU     LIG 4213  27.037   0.269   8.049
    8AU     LIG 4214  27.500   0.220   8.106
    8AU    AUSL 4215  24.463   1.515   7.554
    8AU    AUSL 4216  24.362   1.859   7.812
    8AU     AUL 4217  24.607   1.866   7.680
    8AU       S 4218  24.635   1.753   8.110
    8AU     LIG 4219  25.051   1.972   8.195
    8AU     LIG 4220  25.276   2.280   8.479
    8AU     LIG 4221  25.492   2.614   8.760
    8AU     LIG 4222  25.699   3.064   8.794
    8AU     LIG 4223  25.888   3.525   8.820
    8AU     LIG 4224  26.234   3.821   8.999
    8AU       S 4225  24.925   1.580   7.533
    8AU     LIG 4226  25.237   1.391   7.749
    8AU     LIG 4227  25.711   1.472   7.757
    8AU     LIG 4228  26.190   1.564   7.741
    8AU     LIG 4229  26.647   1.711   7.809
    8AU     LIG 4230  27.122   1.662   7.969
    8AU     LIG 4231  27.525   1.929   8.026
    8AU    AUSL 4232  23.181   1.837   7.585
    8AU    AUSL 4233  23.234   1.588   7.925
    8AU     AUL 4234  23.194   2.043   7.834
    8AU       S 4235  23.034   1.669   8.111
    8AU     LIG 4236  22.684   1.921   8.391
    8AU     LIG 4237  22.674   2.101   8.834
    8AU     LIG 4238  22.493   2.261   9.254
    8AU     LIG 4239  22.157   2.306   9.614
    8AU     LIG 4240  21.787   2.430   9.905
    8AU     LIG 4241  21.343   2.600   9.891
    8AU       S 4242  22.807   1.855   7.683
    8AU     LIG 4243  22.597   2.284   7.592
    8AU     LIG 4244  22.299   2.687   7.594
    8AU     LIG 4245  21.993   3.091   7.526
    8AU     LIG 4246  21.568   3.384   7.574
    8AU     LIG 4247  21.128   3.497   7.810
    8AU     LIG 4248  20.656   3.621   7.922
    8AU    AUSL 4249  23.251   1.499   7.370
    8AU    AUSL 4250  23.333   1.906   7.210
    8AU     AUL 4251  23.053   1.827   7.248
    8AU       S 4252  22.687   1.771   7.533
    8AU     LIG 4253  22.594   2.043   7.125
    8AU     LIG 4254  22.227   2.343   6.927
    8AU     LIG 4255  21.727   2.370   6.831
    8AU     LIG 4256  21.221   2.309   6.735
    8AU     LIG 4257  20.722   2.221   6.718
    8AU     LIG 4258  20.264   2.267   6.720
    8AU       S 4259  23.148   2.064   6.844
    8AU     LIG 4260  22.920   2.373   6.563
    8AU     LIG 4261  22.741   2.673   6.255
    8AU     LIG 4262  22.675   3.112   6.123
    8AU     LIG 4263  22.338   3.356   5.925
    8AU     LIG 4264  21.959   3.603   6.010
    8AU     LIG 4265  21.730   3.998   5.882
    8AU    AUSL 4266  22.982   1.416   7.672
    8AU    AUSL 4267  23.013   1.174   7.322
    8AU     AUL 4268  22.847   1.428   7.282
    8AU       S 4269  22.674   0.965   7.464
    8AU     LIG 4270  22.267   0.926   7.739
    8AU     LIG 4271  21.781   0.896   7.783
    8AU     LIG 4272  21.331   0.994   7.672
    8AU     LIG 4273  20.976   0.817   7.330
    8AU     LIG 4274  20.546   0.605   7.277
    8AU     LIG 4275  20.125   0.559   7.066
    8AU       S 4276  22.792   1.449   7.757
    8AU     LIG 4277  22.467   1.651   8.008
    8AU     LIG 4278  22.039   1.829   8.169
    8AU     LIG 4279  21.546   1.892   8.241
    8AU     LIG 4280  21.082   1.989   8.366
    8AU     LIG 4281  20.643   2.163   8.368
    8AU     LIG 4282  20.169   2.064   8.342
    8AU    AUSL 4283  24.528   0.789   7.572
    8AU    AUSL 4284  24.482   1.000   7.952
    8AU     AUL 4285  24.791   1.059   7.904
    8AU       S 4286  24.677   0.537   7.551
    8AU     LIG 4287  24.860   0.191   7.753
    8AU     LIG 4288  25.282  44.958   7.683
    8AU     LIG 4289  25.735  44.782   7.597
    8AU     LIG 4290  26.196  44.624   7.543
    8AU     LIG 4291  26.672  44.565   7.595
    8AU     LIG 4292  27.009  44.388   7.888
    8AU       S 4293  24.523   0.688   8.030
    8AU     LIG 4294  24.887   0.418   8.218
    8AU     LIG 4295  24.889   0.075   8.543
    8AU     LIG 4296  25.129  44.749   8.806
    8AU     LIG 4297  25.471  44.569   9.099
    8AU     LIG 4298  25.871  44.473   9.359
    8AU     LIG 4299  26.246  44.289   9.597
    8AU    AUSL 4300  24.370   1.108   7.369
    8AU    AUSL 4301  24.294   0.642   7.272
    8AU     AUL 4302  24.643   0.855   7.189
    8AU       S 4303  24.725   0.697   7.599
    8AU     LIG 4304  25.094   0.384   7.329
    8AU     LIG 4305  25.565   0.208   7.323
    8AU     LIG 4306  26.034   0.028   7.249
    8AU     LIG 4307  26.492  44.820   7.157
    8AU     LIG 4308  26.902  44.766   6.882
    8AU     LIG 4309  27.350  44.772   6.687
    8AU       S 4310  24.535   0.409   7.081
    8AU     LIG 4311  24.471  44.992   6.887
    8AU     LIG 4312  24.667  44.628   6.663
    8AU     LIG 4313  24.921  44.351   6.381
    8AU     LIG 4314  25.104  44.015   6.101
    8AU     LIG 4315  25.345  43.597   6.048
    8AU     LIG 4316  25.776  43.486   5.920
    8AU    AUSL 4317  23.127   0.795   7.485
    8AU    AUSL 4318  23.206   0.938   7.066
    8AU     AUL 4319  22.914   1.004   7.052
    8AU       S 4320  23.130   0.601   7.041
    8AU     LIG 4321  22.634   0.596   6.941
    8AU     LIG 4322  22.313   0.410   6.623
    8AU     LIG 4323  22.031   0.131   6.349
    8AU     LIG 4324  21.632  44.917   6.203
    8AU     LIG 4325  21.213  44.800   5.981
    8AU     LIG 4326  21.015  44.680   5.562
    8AU       S 4327  22.822   0.760   7.439
    8AU     LIG 4328  22.427   0.509   7.506
    8AU     LIG 4329  21.988   0.435   7.686
    8AU     LIG 4330  21.538   0.355   7.878
    8AU     LIG 4331  21.105   0.102   7.822
    8AU     LIG 4332  20.687  44.939   7.595
    8AU     LIG 4333  20.219  44.829   7.509
    8AU    AUSL 4334  23.287   1.154   7.632
    8AU    AUSL 4335  23.379   0.765   7.813
    8AU     AUL 4336  23.001   0.961   7.815
    8AU       S 4337  23.135   0.556   7.968
    8AU     LIG 4338  22.955   0.331   7.695
    8AU     LIG 4339  22.567   0.100   7.835
    8AU     LIG 4340  22.232  44.828   8.074
    8AU     LIG 4341  21.972  44.549   8.381
    8AU     LIG 4342  21.817  44.200   8.681
    8AU     LIG 4343  21.724  43.724   8.764
    8AU       S 4344  22.710   1.039   7.482
    8AU     LIG 4345  22.265   0.949   7.220
    8AU     LIG 4346  21.843   0.753   7.286
    8AU     LIG 4347  21.430   0.572   7.445
    8AU     LIG 4348  21.023   0.603   7.773
    8AU     LIG 4349  20.532   0.645   7.798
    8AU     LIG 4350  20.134   0.356   7.840
    8AU    AUSL 4351  23.877   1.964   8.014
    8AU    AUSL 4352  23.553   1.755   7.728
    8AU     AUL 4353  23.581   2.066   8.096
    8AU       S 4354  23.189   1.893   8.265
    8AU     LIG 4355  23.065   2.262   8.508
    8AU     LIG 4356  22.860   2.591   8.788
    8AU     LIG 4357  22.766   3.001   9.031
    8AU     LIG 4358  22.539   3.423   8.983
    8AU     LIG 4359  22.314   3.814   9.164
    8AU     LIG 4360  21.893   4.014   9.235
    8AU       S 4361  23.938   2.356   7.957
    8AU     LIG 4362  24.086   2.403   8.353
    8AU     LIG 4363  24.206   2.820   8.546
    8AU     LIG 4364  24.139   3.212   8.819
    8AU     LIG 4365  24.051   3.473   9.224
    8AU     LIG 4366  23.951   3.770   9.591
    8AU     LIG 4367  23.818   4.104   9.908
    8AU    AUSL 4368  23.628   2.139   7.653
    8AU    AUSL 4369  24.057   2.118   7.254
    8AU     AUL 4370  23.740   2.369   7.411
    8AU       S 4371  23.782   2.436   7.864
    8AU     LIG 4372  23.907   2.836   8.114
    8AU     LIG 4373  23.980   3.252   8.314
    8AU     LIG 4374  23.755   3.675   8.379
    8AU     LIG 4375  23.553   4.104   8.302
    8AU     LIG 4376  23.321   4.528   8.412
    8AU     LIG 4377  23.275   4.918   8.701
    8AU       S 4378  24.091   2.450   7.101
    8AU     LIG 4379  24.455   2.602   6.866
    8AU     LIG 4380  24.610   3.064   6.768
    8AU     LIG 4381  24.894   3.481   6.719
    8AU     LIG 4382  24.917   3.956   6.633
    8AU     LIG 4383  24.850   4.391   6.442
    8AU     LIG 4384  24.788   4.846   6.324
    8AU    AUSL 4385  24.022   1.982   7.633
    8AU    AUSL 4386  24.048   1.616   7.900
    8AU     AUL 4387  24.202   1.993   8.041
    8AU       S 4388  24.586   1.787   8.213
    8AU     LIG 4389  24.730   1.906   8.619
    8AU     LIG 4390  25.002   2.177   8.907
    8AU     LIG 4391  25.286   2.424   9.203
    8AU     LIG 4392  25.558   2.544   9.576
    8AU     LIG 4393  25.624   2.846   9.930
    8AU     LIG 4394  25.510   3.272  10.099
    8AU       S 4395  24.111   2.300   7.701
    8AU     LIG 4396  24.359   2.631   7.972
    8AU     LIG 4397  24.486   3.070   8.168
    8AU     LIG 4398  24.836   3.440   8.203
    8AU     LIG 4399  25.039   3.887   8.254
    8AU     LIG 4400  25.085   4.260   8.511
    8AU     LIG 4401  25.014   4.708   8.661
    8AU    AUSL 4402  23.812   0.727   7.939
    8AU    AUSL 4403  24.163   0.852   7.734
    8AU     AUL 4404  24.011   0.612   8.197
    8AU       S 4405  23.853   0.182   8.030
    8AU     LIG 4406  23.909  44.871   8.300
    8AU     LIG 4407  23.589  44.549   8.256
    8AU     LIG 4408  23.489  44.108   8.342
    8AU     LIG 4409  23.509  43.642   8.451
    8AU     LIG 4410  23.702  43.247   8.660
    8AU     LIG 4411  23.758  43.034   9.075
    8AU       S 4412  24.446   0.482   7.955
    8AU     LIG 4413  24.504   0.036   8.121
    8AU     LIG 4414  24.697  44.646   8.345
    8AU     LIG 4415  24.938  44.306   8.594
    8AU     LIG 4416  25.144  43.871   8.668
    8AU     LIG 4417  25.495  43.563   8.754
    8AU     LIG 4418  25.954  43.536   8.836
    8AU    AUSL 4419  23.633   0.481   7.672
    8AU    AUSL 4420  23.523   0.846   8.201
    8AU     AUL 4421  23.573   0.535   8.067
    8AU       S 4422  23.576   0.153   7.816
    8AU     LIG 4423  23.350  44.747   7.766
    8AU     LIG 4424  23.247  44.301   7.908
    8AU     LIG 4425  23.173  43.836   8.039
    8AU     LIG 4426  22.928  43.425   8.132
    8AU     LIG 4427  22.813  42.954   8.194
    8AU     LIG 4428  22.976  42.499   8.247
    8AU       S 4429  23.213   0.693   8.292
    8AU     LIG 4430  22.903   0.268   8.288
    8AU     LIG 4431  22.543   0.025   8.430
    8AU     LIG 4432  22.324  44.718   8.713
    8AU     LIG 4433  22.102  44.453   9.039
    8AU     LIG 4434  21.979  44.327   9.478
    8AU     LIG 4435  21.997  44.101   9.899
    8AU    AUSL 4436  24.069   0.462   7.711
    8AU    AUSL 4437  23.571   0.476   7.266
    8AU     AUL 4438  23.883   0.207   7.480
    8AU       S 4439  23.481   0.187   7.172
    8AU     LIG 4440  23.149  44.908   7.273
    8AU     LIG 4441  23.165  44.443   7.270
    8AU     LIG 4442  23.189  43.999   7.056
    8AU     LIG 4443  23.146  43.584   6.780
    8AU     LIG 4444  22.913  43.161   6.636
    8AU     LIG 4445  22.894  42.685   6.535
    8AU       S 4446  23.973   0.245   7.916
    8AU     LIG 4447  23.877  44.743   7.798
    8AU     LIG 4448  23.756  44.270   7.860
    8AU     LIG 4449  23.702  43.798   7.987
    8AU     LIG 4450  23.801  43.345   8.139
    8AU     LIG 4451  23.926  42.931   8.311
    8AU     LIG 4452  24.073  42.696   8.680
    8AU    AUSL 4453  23.819   1.924   6.946
    8AU    AUSL 4454  24.120   1.718   7.247
    8AU     AUL 4455  24.197   2.021   6.995
    8AU       S 4456  23.854   2.219   6.755
    8AU     LIG 4457  24.102   2.494   6.507
    8AU     LIG 4458  24.269   2.911   6.403
    8AU     LIG 4459  24.178   3.313   6.164
    8AU     LIG 4460  24.102   3.553   5.751
    8AU     LIG 4461  24.198   3.878   5.417
    8AU     LIG 4462  24.083   4.099   5.005
    8AU       S 4463  24.559   1.737   6.948
    8AU     LIG 4464  24.888   2.147   6.817
    8AU     LIG 4465  25.196   2.280   6.482
    8AU     LIG 4466  25.378   2.600   6.179
    8AU     LIG 4467  25.490   3.084   6.164
    8AU     LIG 4468  25.709   3.518   6.140
    8AU     LIG 4469  26.089   3.749   5.997
    8AU    AUSL 4470  23.717   1.898   7.342
    8AU    AUSL 4471  23.577   1.622   7.053
    8AU     AUL 4472  23.543   2.094   7.089
    8AU       S 4473  23.897   2.388   6.981
    8AU     LIG 4474  23.997   2.864   6.847
    8AU     LIG 4475  24.043   3.305   6.678
    8AU     LIG 4476  23.770   3.704   6.592
    8AU     LIG 4477  23.416   4.049   6.652
    8AU     LIG 4478  23.229   4.500   6.575
    8AU     LIG 4479  23.412   4.945   6.522
    8AU       S 4480  23.380   1.879   6.708
    8AU     LIG 4481  23.215   2.025   6.306
    8AU     LIG 4482  23.050   2.333   5.976
    8AU     LIG 4483  23.011   2.465   5.504
    8AU     LIG 4484  22.987   2.793   5.142
    8AU     LIG 4485  22.813   3.085   4.814
    8AU     LIG 4486  22.463   3.333   4.613
    8AU    AUSL 4487  23.897   0.574   6.994
    8AU    AUSL 4488  23.501   0.859   7.348
    8AU     AUL 4489  23.581   0.569   6.912
    8AU       S 4490  23.098   0.487   7.139
    8AU     LIG 4491  22.745   0.218   7.249
    8AU     LIG 4492  22.334   0.101   7.034
    8AU     LIG 4493  22.037  44.815   6.751
    8AU     LIG 4494  21.756  44.472   6.499
    8AU     LIG 4495  21.427  44.060   6.466
    8AU     LIG 4496  21.200  43.599   6.389
    8AU       S 4497  23.720   0.152   7.032
    8AU     LIG 4498  23.434  44.821   6.846
    8AU     LIG 4499  23.287  44.407   6.751
    8AU     LIG 4500  23.392  43.994   6.571
    8AU     LIG 4501  23.419  43.634   6.271
    8AU     LIG 4502  23.532  43.492   5.821
    8AU     LIG 4503  23.635  43.303   5.397
    8AU    AUSL 4504  23.909   0.664   7.402
    8AU    AUSL 4505  24.035   0.933   7.105
    8AU     AUL 4506  24.081   0.440   7.155
    8AU       S 4507  23.494   0.287   7.278
    8AU     LIG 4508  23.633  44.755   7.336
    8AU     LIG 4509  23.638  44.307   7.126
    8AU     LIG 4510  23.679  43.837   6.978
    8AU     LIG 4511  23.883  43.394   6.922
    8AU     LIG 4512  23.949  42.919   6.880
    8AU     LIG 4513  24.105  42.566   6.608
    8AU       S 4514  24.302   0.544   6.770
    8AU     LIG 4515  24.169   0.226   6.540
    8AU     LIG 4516  24.405  44.892   6.308
    8AU     LIG 4517  24.645  44.596   6.022
    8AU     LIG 4518  24.883  44.313   5.722
    8AU     LIG 4519  24.902  44.023   5.346
    8AU     LIG 4520  25.008  43.900   4.897
    9AU     AUC 4521   1.499  27.574   7.493
    9AU     AUC 4522   1.762  27.580   7.334
    9AU     AUC 4523   1.753  27.572   7.644
    9AU     AUC 4524   1.249  27.571   7.326
    9AU     AUC 4525   1.237  27.588   7.642
    9AU     AUC 4526   1.345  27.828   7.490
    9AU     AUC 4527   1.657  27.831   7.480
    9AU     AUC 4528   1.349  27.316   7.504
    9AU     AUC 4529   1.643  27.322   7.516
    9AU     AUC 4530   1.493  27.427   7.755
    9AU     AUC 4531   1.510  27.739   7.748
    9AU     AUC 4532   1.505  27.411   7.238
    9AU     AUC 4533   1.490  27.713   7.232
    9AU     AUC 4534   2.011  27.576   7.173
    9AU     AUC 4535   2.018  27.585   7.484
    9AU     AUC 4536   2.012  27.577   7.790
    9AU     AUC 4537   0.993  27.555   7.168
    9AU     AUC 4538   0.981  27.579   7.476
    9AU     AUC 4539   0.988  27.598   7.798
    9AU     AUC 4540   1.195  28.090   7.493
    9AU     AUC 4541   1.507  28.097   7.489
    9AU     AUC 4542   1.801  28.095   7.484
    9AU     AUC 4543   1.175  27.058   7.510
    9AU     AUC 4544   1.491  27.052   7.503
    9AU     AUC 4545   1.805  27.060   7.525
    9AU     AUC 4546   1.477  27.278   8.009
    9AU     AUC 4547   1.497  27.587   8.020
    9AU     AUC 4548   1.512  27.894   8.008
    9AU     AUC 4549   1.511  27.237   6.999
    9AU     AUC 4550   1.512  27.554   6.970
    9AU     AUC 4551   1.487  27.861   6.968
    9AU     AUC 4552   1.766  27.432   7.919
    9AU     AUC 4553   1.767  27.725   7.909
    9AU     AUC 4554   1.776  27.407   7.079
    9AU     AUC 4555   1.770  27.715   7.066
    9AU     AUC 4556   1.229  27.440   7.917
    9AU     AUC 4557   1.244  27.750   7.917
    9AU     AUC 4558   1.257  27.406   7.060
    9AU     AUC 4559   1.239  27.713   7.066
    9AU     AUC 4560   1.911  27.845   7.313
    9AU     AUC 4561   1.927  27.828   7.630
    9AU     AUC 4562   1.077  27.824   7.336
    9AU     AUC 4563   1.086  27.846   7.656
    9AU     AUC 4564   1.917  27.315   7.347
    9AU     AUC 4565   1.918  27.320   7.665
    9AU     AUC 4566   1.083  27.312   7.327
    9AU     AUC 4567   1.083  27.327   7.670
    9AU     AUC 4568   1.344  27.993   7.760
    9AU     AUC 4569   1.664  28.003   7.733
    9AU     AUC 4570   1.328  27.152   7.751
    9AU     AUC 4571   1.646  27.168   7.784
    9AU     AUC 4572   1.334  27.982   7.228
    9AU     AUC 4573   1.650  27.979   7.215
    9AU     AUC 4574   1.336  27.157   7.238
    9AU     AUC 4575   1.665  27.148   7.264
    9AU    AUSL 4576   1.850  27.526   8.078
    9AU    AUSL 4577   1.804  27.110   8.137
    9AU     AUL 4578   2.037  27.187   8.398
    9AU       S 4579   2.067  26.821   8.083
    9AU     LIG 4580   1.937  26.523   8.384
    9AU     LIG 4581   1.939  26.096   8.576
    9AU     LIG 4582   2.177  25.828   8.859
    9AU     LIG 4583   2.453  25.640   9.171
    9AU     LIG 4584   2.659  25.339   9.451
    9AU     LIG 4585   2.786  25.102   9.845
    9AU       S 4586   1.896  27.556   8.654
    9AU     LIG 4587   2.155  27.301   8.908
    9AU     LIG 4588   2.341  27.237   9.343
    9AU     LIG 4589   2.586  27.141   9.743
    9AU     LIG 4590   2.965  27.116  10.023
    9AU     LIG 4591   3.323  27.186  10.329
    9AU     LIG 4592   3.632  27.433  10.603
    9AU    AUSL 4593   1.574  27.388   8.348
    9AU    AUSL 4594   1.425  27.770   8.266
    9AU     AUL 4595   1.485  27.751   8.690
    9AU       S 4596   1.646  27.390   8.492
    9AU     LIG 4597   1.709  27.038   8.760
    9AU     LIG 4598   1.957  26.898   9.172
    9AU     LIG 4599   2.179  26.820   9.611
    9AU     LIG 4600   2.355  26.671  10.046
    9AU     LIG 4601   2.404  26.488  10.499
    9AU     LIG 4602   2.377  26.532  10.975
    9AU       S 4603   1.153  27.456   8.617
    9AU     LIG 4604   1.008  27.381   9.080
    9AU     LIG 4605   0.813  27.306   9.506
    9AU     LIG 4606   0.630  27.286   9.949
    9AU     LIG 4607   0.532  27.565  10.342
    9AU     LIG 4608   0.619  27.913  10.680
    9AU     LIG 4609   0.533  28.181  11.073
    9AU    AUSL 4610   1.811  27.874   8.281
    9AU    AUSL 4611   2.149  27.784   7.961
    9AU     AUL 4612   2.141  27.611   8.280
    9AU       S 4613   1.841  27.920   8.454
    9AU     LIG 4614   2.083  28.003   8.842
    9AU     LIG 4615   2.235  28.209   9.269
    9AU     LIG 4616   2.190  28.368   9.744
    9AU     LIG 4617   2.277  28.464  10.227
    9AU     LIG 4618   2.344  28.521  10.708
    9AU     LIG 4619   2.427  28.463  11.185
    9AU       S 4620   2.412  27.845   7.992
    9AU     LIG 4621   2.666  27.802   8.349
    9AU     LIG 4622   2.900  28.005   8.710
    9AU     LIG 4623   3.163  28.262   9.011
    9AU     LIG 4624   3.434  28.563   9.259
    9AU     LIG 4625   3.765  28.670   9.582
    9AU     LIG 4626   4.124  28.795   9.874
    9AU    AUSL 4627   2.040  27.614   6.857
    9AU    AUSL 4628   1.794  27.999   6.818
    9AU     AUL 4629   2.156  27.966   6.444
    9AU       S 4630   2.071  27.640   6.705
    9AU     LIG 4631   2.382  27.547   6.328
    9AU     LIG 4632   2.439  27.325   5.931
    9AU     LIG 4633   2.584  27.155   5.505
    9AU     LIG 4634   2.973  27.028   5.225
    9AU     LIG 4635   3.348  27.088   4.918
    9AU     LIG 4636   3.632  27.119   4.534
    9AU       S 4637   1.790  28.058   6.656
    9AU     LIG 4638   2.045  28.438   6.565
    9AU     LIG 4639   2.419  28.432   6.281
    9AU     LIG 4640   2.719  28.603   5.936
    9AU     LIG 4641   2.829  28.797   5.496
    9AU     LIG 4642   2.935  29.172   5.202
    9AU     LIG 4643   3.082  29.483   4.867
    9AU    AUSL 4644   1.784  27.290   6.711
    9AU    AUSL 4645   2.118  27.242   7.004
    9AU     AUL 4646   2.214  27.236   6.669
    9AU       S 4647   2.190  26.811   6.853
    9AU     LIG 4648   2.318  26.555   6.487
    9AU     LIG 4649   2.537  26.153   6.354
    9AU     LIG 4650   2.779  25.944   5.985
    9AU     LIG 4651   3.084  25.906   5.594
    9AU     LIG 4652   3.502  25.794   5.358
    9AU     LIG 4653   3.957  25.804   5.166
    9AU       S 4654   1.890  27.513   6.432
    9AU     LIG 4655   2.005  27.143   6.207
    9AU     LIG 4656   2.126  26.947   5.774
    9AU     LIG 4657   2.186  26.886   5.294
    9AU     LIG 4658   2.185  26.603   4.887
    9AU     LIG 4659   2.115  26.433   4.434
    9AU     LIG 4660   2.097  26.476   3.961
    9AU    AUSL 4661   1.632  27.637   6.884
    9AU    AUSL 4662   1.382  27.387   6.669
    9AU     AUL 4663   1.583  27.188   6.548
    9AU       S 4664   1.099  27.503   6.353
    9AU     LIG 4665   1.120  27.130   6.098
    9AU     LIG 4666   0.941  26.929   5.695
    9AU     LIG 4667   0.660  26.698   5.366
    9AU     LIG 4668   0.424  26.540   4.969
    9AU     LIG 4669   0.376  26.520   4.495
    9AU     LIG 4670   0.385  26.393   4.032
    9AU       S 4671   1.769  27.624   6.482
    9AU     LIG 4672   1.978  27.611   5.974
    9AU     LIG 4673   2.106  27.409   5.547
    9AU     LIG 4674   2.284  27.384   5.106
    9AU     LIG 4675   2.283  27.601   4.665
    9AU     LIG 4676   2.371  27.792   4.226
    9AU     LIG 4677   2.622  27.946   3.837
    9AU    AUSL 4678   1.046  27.638   8.203
    9AU    AUSL 4679   1.169  28.049   8.121
    9AU     AUL 4680   1.217  27.981   8.419
    9AU       S 4681   0.990  27.634   8.638
    9AU     LIG 4682   0.666  27.305   8.684
    9AU     LIG 4683   0.531  27.119   9.093
    9AU     LIG 4684   0.359  27.055   9.543
    9AU     LIG 4685   0.159  27.059   9.975
    9AU     LIG 4686  44.880  27.214  10.324
    9AU     LIG 4687  44.517  27.206  10.633
    9AU       S 4688   0.757  27.991   8.345
    9AU     LIG 4689   0.812  28.194   8.748
    9AU     LIG 4690   0.762  28.531   9.075
    9AU     LIG 4691   0.513  28.855   9.311
    9AU     LIG 4692   0.390  29.053   9.738
    9AU     LIG 4693   0.228  29.201  10.178
    9AU     LIG 4694  44.990  29.386  10.559
    9AU    AUSL 4695   1.350  27.441   8.017
    9AU    AUSL 4696   0.849  27.355   7.985
    9AU     AUL 4697   0.856  27.474   8.229
    9AU       S 4698   0.677  27.039   8.221
    9AU     LIG 4699   0.267  26.833   8.139
    9AU     LIG 4700  44.916  26.602   8.319
    9AU     LIG 4701  44.663  26.328   8.587
    9AU     LIG 4702  44.498  26.028   8.892
    9AU     LIG 4703  44.170  25.817   9.137
    9AU     LIG 4704  43.793  25.903   9.418
    9AU       S 4705   1.168  27.346   8.573
    9AU     LIG 4706   1.037  26.962   8.792
    9AU     LIG 4707   0.945  26.864   9.253
    9AU     LIG 4708   0.792  26.826   9.709
    9AU     LIG 4709   0.667  26.694  10.142
    9AU     LIG 4710   0.658  26.492  10.570
    9AU     LIG 4711   0.582  26.418  11.030
    9AU    AUSL 4712   1.081  27.537   6.895
    9AU    AUSL 4713   1.266  27.103   6.930
    9AU     AUL 4714   1.120  27.145   6.638
    9AU       S 4715   0.807  27.458   6.574
    9AU     LIG 4716   0.661  27.111   6.325
    9AU     LIG 4717   0.469  27.004   5.890
    9AU     LIG 4718   0.217  26.929   5.481
    9AU     LIG 4719   0.110  26.963   5.021
    9AU     LIG 4720  44.758  26.925   4.696
    9AU     LIG 4721  44.444  27.124   4.406
    9AU       S 4722   0.874  26.763   6.814
    9AU     LIG 4723   0.604  26.406   6.733
    9AU     LIG 4724   0.256  26.273   6.431
    9AU     LIG 4725  44.966  26.056   6.127
    9AU     LIG 4726  44.761  25.819   5.771
    9AU     LIG 4727  44.844  25.673   5.308
    9AU     LIG 4728  44.952  25.387   4.925
    9AU    AUSL 4729   1.342  27.820   6.668
    9AU    AUSL 4730   0.846  27.861   6.962
    9AU     AUL 4731   0.994  27.852   6.659
    9AU       S 4732   0.676  28.169   6.766
    9AU     LIG 4733   0.532  28.246   6.322
    9AU     LIG 4734   0.338  28.419   5.912
    9AU     LIG 4735   0.146  28.525   5.487
    9AU     LIG 4736  44.767  28.623   5.213
    9AU     LIG 4737  44.325  28.762   5.100
    9AU     LIG 4738  43.881  28.943   5.046
    9AU       S 4739   1.294  27.574   6.454
    9AU     LIG 4740   1.467  27.501   6.022
    9AU     LIG 4741   1.176  27.405   5.630
    9AU     LIG 4742   0.958  27.452   5.185
    9AU     LIG 4743   0.887  27.634   4.728
    9AU     LIG 4744   0.796  27.891   4.321
    9AU     LIG 4745   0.786  28.071   3.875
    9AU    AUSL 4746   2.101  28.195   7.418
    9AU    AUSL 4747   2.133  27.947   7.076
    9AU     AUL 4748   2.254  28.409   7.223
    9AU       S 4749   2.268  28.063   6.879
    9AU     LIG 4750   2.631  28.017   6.588
    9AU     LIG 4751   2.871  28.170   6.201
    9AU     LIG 4752   3.196  28.379   5.916
    9AU     LIG 4753   3.543  28.390   5.580
    9AU     LIG 4754   3.901  28.519   5.293
    9AU     LIG 4755   4.168  28.844   5.057
    9AU       S 4756   2.556  28.068   7.343
    9AU     LIG 4757   2.990  28.155   7.587
    9AU     LIG 4758   3.485  28.193   7.570
    9AU     LIG 4759   3.969  28.262   7.507
    9AU     LIG 4760   4.402  28.472   7.598
    9AU     LIG 4761   4.525  28.882   7.809
    9AU     LIG 4762   4.814  29.203   8.013
    9AU    AUSL 4763   2.333  27.630   7.229
    9AU    AUSL 4764   2.330  27.474   7.650
    9AU     AUL 4765   2.614  27.415   7.421
    9AU       S 4766   2.565  27.842   7.248
    9AU     LIG 4767   3.031  27.725   7.315
    9AU     LIG 4768   3.527  27.745   7.316
    9AU     LIG 4769   4.015  27.784   7.302
    9AU     LIG 4770   4.483  27.880   7.264
    9AU     LIG 4771   4.857  28.037   7.008
    9AU     LIG 4772   5.176  28.349   6.965
    9AU       S 4773   2.642  27.009   7.671
    9AU     LIG 4774   3.065  26.853   7.737
    9AU     LIG 4775   3.508  26.712   7.802
    9AU     LIG 4776   3.837  26.548   8.088
    9AU     LIG 4777   4.287  26.413   8.136
    9AU     LIG 4778   4.765  26.490   8.126
    9AU     LIG 4779   5.238  26.504   8.232
    9AU    AUSL 4780   2.129  27.810   7.553
    9AU    AUSL 4781   2.016  28.149   7.816
    9AU     AUL 4782   2.260  28.173   7.688
    9AU       S 4783   2.264  28.026   8.107
    9AU     LIG 4784   2.684  28.252   8.074
    9AU     LIG 4785   2.919  28.445   8.437
    9AU     LIG 4786   3.108  28.712   8.771
    9AU     LIG 4787   3.311  29.028   9.050
    9AU     LIG 4788   3.510  29.460   9.102
    9AU     LIG 4789   3.627  29.926   9.151
    9AU       S 4790   2.570  27.880   7.539
    9AU     LIG 4791   2.857  27.694   7.806
    9AU     LIG 4792   3.332  27.748   7.795
    9AU     LIG 4793   3.824  27.837   7.773
    9AU     LIG 4794   4.317  27.973   7.761
    9AU     LIG 4795   4.677  28.235   7.977
    9AU     LIG 4796   5.148  28.290   8.053
    9AU    AUSL 4797   0.830  28.108   7.569
    9AU    AUSL 4798   0.884  27.852   7.901
    9AU     AUL 4799   0.837  28.316   7.815
    9AU       S 4800   0.677  27.938   8.086
    9AU     LIG 4801   0.355  28.262   8.374
    9AU     LIG 4802   0.319  28.436   8.823
    9AU     LIG 4803   0.102  28.527   9.255
    9AU     LIG 4804  44.709  28.570   9.558
    9AU     LIG 4805  44.307  28.699   9.814
    9AU     LIG 4806  43.885  28.852  10.031
    9AU       S 4807   0.457  28.116   7.663
    9AU     LIG 4808   0.360  28.539   7.505
    9AU     LIG 4809  44.935  28.789   7.418
    9AU     LIG 4810  44.570  29.112   7.536
    9AU     LIG 4811  44.108  29.261   7.567
    9AU     LIG 4812  43.744  29.542   7.614
    9AU     LIG 4813  43.364  29.747   7.458
    9AU    AUSL 4814   0.914  27.777   7.347
    9AU    AUSL 4815   1.000  28.195   7.203
    9AU     AUL 4816   0.710  28.112   7.238
    9AU       S 4817   0.336  28.025   7.512
    9AU     LIG 4818   0.140  28.249   7.144
    9AU     LIG 4819  44.739  28.522   6.993
    9AU     LIG 4820  44.313  28.728   6.786
    9AU     LIG 4821  43.835  28.809   6.647
    9AU     LIG 4822  43.354  28.915   6.592
    9AU     LIG 4823  42.894  28.851   6.688
    9AU       S 4824   0.823  28.387   6.864
    9AU     LIG 4825   0.767  28.678   6.486
    9AU     LIG 4826   0.759  29.047   6.169
    9AU     LIG 4827   0.603  29.397   5.880
    9AU     LIG 4828   0.333  29.792   5.804
    9AU     LIG 4829  44.936  30.071   5.794
    9AU     LIG 4830  44.472  30.231   5.814
    9AU    AUSL 4831   0.638  27.683   7.640
    9AU    AUSL 4832   0.686  27.448   7.284
    9AU     AUL 4833   0.516  27.704   7.245
    9AU       S 4834   0.347  27.250   7.415
    9AU     LIG 4835   0.018  27.208   7.767
    9AU     LIG 4836  44.544  27.126   7.785
    9AU     LIG 4837  44.136  26.946   7.614
    9AU     LIG 4838  43.749  26.790   7.383
    9AU     LIG 4839  43.272  26.750   7.314
    9AU     LIG 4840  42.941  26.502   7.084
    9AU       S 4841   0.447  27.709   7.727
    9AU     LIG 4842   0.162  27.929   8.026
    9AU     LIG 4843  44.847  28.262   8.198
    9AU     LIG 4844  44.424  28.515   8.245
    9AU     LIG 4845  43.983  28.714   8.306
    9AU     LIG 4846  43.529  28.854   8.330
    9AU     LIG 4847  43.067  28.764   8.261
    9AU    AUSL 4848   2.191  27.080   7.571
    9AU    AUSL 4849   2.144  27.283   7.953
    9AU     AUL 4850   2.448  27.350   7.908
    9AU       S 4851   2.350  26.812   7.540
    9AU     LIG 4852   2.622  26.513   7.760
    9AU     LIG 4853   3.074  26.342   7.689
    9AU     LIG 4854   3.548  26.238   7.623
    9AU     LIG 4855   3.955  26.013   7.510
    9AU     LIG 4856   4.393  25.827   7.536
    9AU     LIG 4857   4.591  25.500   7.825
    9AU       S 4858   2.193  26.967   8.031
    9AU     LIG 4859   2.466  26.598   8.259
    9AU     LIG 4860   2.442  26.173   8.479
    9AU     LIG 4861   2.683  25.895   8.778
    9AU     LIG 4862   2.977  25.702   9.112
    9AU     LIG 4863   3.371  25.821   9.385
    9AU     LIG 4864   3.727  25.977   9.679
    9AU    AUSL 4865   2.037  27.401   7.366
    9AU    AUSL 4866   1.970  26.941   7.258
    9AU     AUL 4867   2.312  27.147   7.187
    9AU       S 4868   2.396  26.992   7.596
    9AU     LIG 4869   2.800  26.726   7.311
    9AU     LIG 4870   3.314  26.608   7.314
    9AU     LIG 4871   3.781  26.412   7.195
    9AU     LIG 4872   4.264  26.269   7.187
    9AU     LIG 4873   4.742  26.382   7.150
    9AU     LIG 4874   5.215  26.315   7.062
    9AU       S 4875   2.217  26.699   7.050
    9AU     LIG 4876   2.228  26.233   6.872
    9AU     LIG 4877   2.273  25.774   6.676
    9AU     LIG 4878   2.436  25.360   6.498
    9AU     LIG 4879   2.679  25.111   6.193
    9AU     LIG 4880   2.978  24.811   6.011
    9AU     LIG 4881   3.112  24.369   6.082
    9AU    AUSL 4882   0.799  27.068   7.451
    9AU    AUSL 4883   0.890  27.209   7.037
    9AU     AUL 4884   0.593  27.282   7.008
    9AU       S 4885   0.835  26.893   6.996
    9AU     LIG 4886   0.425  26.893   6.729
    9AU     LIG 4887   0.053  26.701   6.634
    9AU     LIG 4888  44.756  26.446   6.405
    9AU     LIG 4889  44.479  26.216   6.103
    9AU     LIG 4890  44.262  25.998   5.753
    9AU     LIG 4891  44.230  25.956   5.286
    9AU       S 4892   0.505  27.042   7.390
    9AU     LIG 4893   0.261  26.786   7.627
    9AU     LIG 4894  44.850  26.706   7.828
    9AU     LIG 4895  44.457  26.552   7.629
    9AU     LIG 4896  43.983  26.382   7.627
    9AU     LIG 4897  43.603  26.037   7.672
    9AU     LIG 4898  43.240  25.709   7.834
    9AU    AUSL 4899   0.947  27.427   7.606
    9AU    AUSL 4900   1.041  27.042   7.789
    9AU     AUL 4901   0.667  27.207   7.785
    9AU       S 4902   0.764  26.852   8.054
    9AU     LIG 4903   0.610  26.509   7.885
    9AU     LIG 4904   0.189  26.337   7.923
    9AU     LIG 4905  44.875  26.098   8.175
    9AU     LIG 4906  44.599  25.812   8.439
    9AU     LIG 4907  44.417  25.503   8.756
    9AU     LIG 4908  44.262  25.040   8.795
    9AU       S 4909   0.390  27.311   7.444
    9AU     LIG 4910  44.897  27.422   7.309
    9AU     LIG 4911  44.412  27.280   7.292
    9AU     LIG 4912  43.904  27.306   7.335
    9AU     LIG 4913  43.492  27.189   7.572
    9AU     LIG 4914  43.119  26.958   7.771
    9AU     LIG 4915  42.749  26.672   7.901
    9AU    AUSL 4916   1.516  28.239   8.019
    9AU    AUSL 4917   1.202  28.034   7.718
    9AU     AUL 4918   1.214  28.344   8.093
    9AU       S 4919   0.822  28.150   8.239
    9AU     LIG 4920   0.792  28.558   8.375
    9AU     LIG 4921   0.614  28.854   8.702
    9AU     LIG 4922   0.518  29.248   8.954
    9AU     LIG 4923   0.242  29.632   9.051
    9AU     LIG 4924  44.853  29.928   9.070
    9AU     LIG 4925  44.435  30.186   9.054
    9AU       S 4926   1.579  28.637   7.982
    9AU     LIG 4927   1.722  28.871   8.315
    9AU     LIG 4928   1.598  29.276   8.482
    9AU     LIG 4929   1.649  29.631   8.744
    9AU     LIG 4930   1.552  29.991   9.019
    9AU     LIG 4931   1.692  30.299   9.339
    9AU     LIG 4932   1.711  30.558   9.732
    9AU    AUSL 4933   1.276  28.420   7.655
    9AU    AUSL 4934   1.715  28.413   7.266
    9AU     AUL 4935   1.381  28.670   7.435
    9AU       S 4936   1.431  28.720   7.886
    9AU     LIG 4937   1.518  29.187   7.957
    9AU     LIG 4938   1.619  29.628   8.104
    9AU     LIG 4939   1.578  29.994   8.403
    9AU     LIG 4940   1.449  30.415   8.391
    9AU     LIG 4941   1.058  30.651   8.501
    9AU     LIG 4942   0.933  31.088   8.605
    9AU       S 4943   1.772  28.729   7.183
    9AU     LIG 4944   2.066  28.863   6.905
    9AU     LIG 4945   2.026  29.318   6.730
    9AU     LIG 4946   2.035  29.814   6.693
    9AU     LIG 4947   2.229  30.281   6.674
    9AU     LIG 4948   2.450  30.742   6.677
    9AU     LIG 4949   2.641  31.211   6.697
    9AU    AUSL 4950   1.674  28.273   7.644
    9AU    AUSL 4951   1.705  27.903   7.900
    9AU     AUL 4952   1.845  28.273   8.054
    9AU       S 4953   2.236  28.069   8.220
    9AU     LIG 4954   2.456  28.235   8.566
    9AU     LIG 4955   2.676  28.431   8.932
    9AU     LIG 4956   2.930  28.675   9.255
    9AU     LIG 4957   3.189  28.944   9.552
    9AU     LIG 4958   3.180  29.279   9.900
    9AU     LIG 4959   3.216  29.570  10.283
    9AU       S 4960   1.751  28.578   7.715
    9AU     LIG 4961   1.969  28.945   7.860
    9AU     LIG 4962   2.010  29.303   8.169
    9AU     LIG 4963   2.032  29.738   8.386
    9AU     LIG 4964   2.087  30.224   8.404
    9AU     LIG 4965   2.356  30.647   8.399
    9AU     LIG 4966   2.607  31.071   8.357
    9AU    AUSL 4967   1.472  27.009   7.925
    9AU    AUSL 4968   1.825  27.144   7.731
    9AU     AUL 4969   1.640  26.910   8.204
    9AU       S 4970   1.554  26.479   8.044
    9AU     LIG 4971   1.584  26.061   8.202
    9AU     LIG 4972   1.283  25.724   8.247
    9AU     LIG 4973   1.308  25.332   8.460
    9AU     LIG 4974   1.278  24.922   8.661
    9AU     LIG 4975   1.254  24.535   8.899
    9AU     LIG 4976   1.197  24.329   9.312
    9AU       S 4977   2.118  26.791   7.951
    9AU     LIG 4978   2.137  26.332   7.951
    9AU     LIG 4979   2.143  25.904   8.144
    9AU     LIG 4980   2.361  25.597   8.443
    9AU     LIG 4981   2.669  25.384   8.772
    9AU     LIG 4982   3.017  25.114   8.952
    9AU     LIG 4983   3.450  24.929   8.890
    9AU    AUSL 4984   1.307  26.764   7.651
    9AU    AUSL 4985   1.176  27.123   8.180
    9AU     AUL 4986   1.213  26.793   8.008
    9AU       S 4987   1.358  26.386   7.866
    9AU     LIG 4988   1.016  26.201   7.693
    9AU     LIG 4989   0.942  25.742   7.769
    9AU     LIG 4990   0.898  25.389   8.091
    9AU     LIG 4991   1.034  24.946   8.209
    9AU     LIG 4992   1.005  24.519   8.433
    9AU     LIG 4993   0.801  24.081   8.432
    9AU       S 4994   0.918  26.996   8.295
    9AU     LIG 4995   0.643  26.610   8.471
    9AU     LIG 4996   0.297  26.285   8.441
    9AU     LIG 4997   0.023  25.972   8.682
    9AU     LIG 4998  44.847  25.673   9.012
    9AU     LIG 4999  44.817  25.467   9.446
    9AU     LIG 5000  44.948  25.201   9.833
    9AU    AUSL 5001   1.742  26.753   7.699
    9AU    AUSL 5002   1.252  26.761   7.244
    9AU     AUL 5003   1.552  26.504   7.467
    9AU       S 5004   1.159  26.445   7.140
    9AU     LIG 5005   0.839  26.152   7.197
    9AU     LIG 5006   0.957  25.702   7.231
    9AU     LIG 5007   1.011  25.256   7.072
    9AU     LIG 5008   0.863  24.876   6.805
    9AU     LIG 5009   0.826  24.451   6.584
    9AU     LIG 5010   0.915  23.997   6.453
    9AU       S 5011   1.676  26.560   7.896
    9AU     LIG 5012   1.738  26.107   7.725
    9AU     LIG 5013   1.457  25.736   7.761
    9AU     LIG 5014   1.370  25.297   7.950
    9AU     LIG 5015   1.557  24.949   8.212
    9AU     LIG 5016   1.533  24.522   8.446
    9AU     LIG 5017   1.687  24.074   8.549
    9AU    AUSL 5018   1.481  28.225   6.950
    9AU    AUSL 5019   1.781  28.014   7.249
    9AU     AUL 5020   1.860  28.320   7.003
    9AU       S 5021   1.527  28.564   6.794
    9AU     LIG 5022   1.736  28.882   6.523
    9AU     LIG 5023   1.878  29.237   6.233
    9AU     LIG 5024   2.002  29.448   5.808
    9AU     LIG 5025   2.083  29.792   5.478
    9AU     LIG 5026   1.970  30.173   5.215
    9AU     LIG 5027   1.710  30.522   5.038
    9AU       S 5028   2.223  28.036   6.957
    9AU     LIG 5029   2.509  28.469   6.795
    9AU     LIG 5030   2.857  28.597   6.492
    9AU     LIG 5031   3.131  28.830   6.183
    9AU     LIG 5032   3.435  29.188   6.075
    9AU     LIG 5033   3.687  29.595   5.994
    9AU     LIG 5034   3.936  29.997   5.890
    9AU    AUSL 5035   1.379  28.185   7.345
    9AU    AUSL 5036   1.249  27.911   7.049
    9AU     AUL 5037   1.218  28.392   7.112
    9AU       S 5038   1.575  28.687   7.023
    9AU     LIG 5039   1.576  29.146   6.949
    9AU     LIG 5040   1.608  29.613   6.933
    9AU     LIG 5041   1.520  29.983   6.664
    9AU     LIG 5042   1.304  30.413   6.646
    9AU     LIG 5043   0.935  30.729   6.593
    9AU     LIG 5044   0.758  31.182   6.560
    9AU       S 5045   1.052  28.292   6.704
    9AU     LIG 5046   1.039  28.291   6.270
    9AU     LIG 5047   0.822  28.575   5.951
    9AU     LIG 5048   0.593  28.815   5.583
    9AU     LIG 5049   0.541  29.055   5.138
    9AU     LIG 5050   0.456  29.444   4.840
    9AU     LIG 5051   0.232  29.777   4.568
    9AU    AUSL 5052   1.589  26.864   6.983
    9AU    AUSL 5053   1.176  27.142   7.330
    9AU     AUL 5054   1.304  26.835   6.923
    9AU       S 5055   0.784  26.763   7.099
    9AU     LIG 5056   0.384  26.591   7.155
    9AU     LIG 5057   0.124  26.275   6.930
    9AU     LIG 5058  44.845  26.005   6.642
    9AU     LIG 5059  44.583  25.741   6.318
    9AU     LIG 5060  44.337  25.322   6.204
    9AU     LIG 5061  44.075  24.950   6.006
    9AU       S 5062   1.420  26.412   7.023
    9AU     LIG 5063   1.199  26.041   6.844
    9AU     LIG 5064   1.100  25.612   6.712
    9AU     LIG 5065   1.157  25.191   6.531
    9AU     LIG 5066   1.014  24.824   6.266
    9AU     LIG 5067   0.981  24.601   5.834
    9AU     LIG 5068   1.121  24.472   5.395
    9AU    AUSL 5069   1.585  26.955   7.389
    9AU    AUSL 5070   1.707  27.229   7.095
    9AU     AUL 5071   1.768  26.732   7.146
    9AU       S 5072   1.156  26.547   7.271
    9AU     LIG 5073   1.350  26.041   7.351
    9AU     LIG 5074   1.452  25.654   7.082
    9AU     LIG 5075   1.499  25.207   6.919
    9AU     LIG 5076   1.667  24.759   6.912
    9AU     LIG 5077   1.808  24.282   6.892
    9AU     LIG 5078   1.882  23.883   6.621
    9AU       S 5079   1.981  26.849   6.752
    9AU     LIG 5080   1.822  26.456   6.651
    9AU     LIG 5081   2.022  26.099   6.372
    9AU     LIG 5082   2.296  25.742   6.140
    9AU     LIG 5083   2.522  25.549   5.755
    9AU     LIG 5084   2.710  25.482   5.315
    9AU     LIG 5085   2.943  25.263   4.959
   10AU     AUC 5086  30.750  27.410   7.507
   10AU     AUC 5087  31.011  27.405   7.343
   10AU     AUC 5088  31.006  27.400   7.654
   10AU     AUC 5089  30.498  27.415   7.346
   10AU     AUC 5090  30.493  27.436   7.660
   10AU     AUC 5091  30.604  27.670   7.501
   10AU     AUC 5092  30.916  27.661   7.486
   10AU     AUC 5093  30.592  27.157   7.523
   10AU     AUC 5094  30.886  27.153   7.530
   10AU     AUC 5095  30.744  27.266   7.770
   10AU     AUC 5096  30.772  27.577   7.758
   10AU     AUC 5097  30.745  27.242   7.253
   10AU     AUC 5098  30.741  27.545   7.242
   10AU     AUC 5099  31.258  27.390   7.181
   10AU     AUC 5100  31.269  27.404   7.488
   10AU     AUC 5101  31.267  27.400   7.796
   10AU     AUC 5102  30.237  27.405   7.195
   10AU     AUC 5103  30.233  27.435   7.503
   10AU     AUC 5104  30.248  27.460   7.823
   10AU     AUC 5105  30.465  27.937   7.502
   10AU     AUC 5106  30.774  27.932   7.491
   10AU     AUC 5107  31.067  27.921   7.482
   10AU     AUC 5108  30.408  26.907   7.536
   10AU     AUC 5109  30.723  26.889   7.522
   10AU     AUC 5110  31.039  26.886   7.538
   10AU     AUC 5111  30.730  27.118   8.026
   10AU     AUC 5112  30.760  27.428   8.033
   10AU     AUC 5113  30.785  27.736   8.017
   10AU     AUC 5114  30.741  27.064   7.020
   10AU     AUC 5115  30.757  27.380   6.984
   10AU     AUC 5116  30.740  27.688   6.976
   10AU     AUC 5117  31.020  27.265   7.930
   10AU     AUC 5118  31.029  27.557   7.917
   10AU     AUC 5119  31.016  27.227   7.091
   10AU     AUC 5120  31.021  27.534   7.072
   10AU     AUC 5121  30.484  27.291   7.938
   10AU     AUC 5122  30.511  27.601   7.934
   10AU     AUC 5123  30.497  27.243   7.082
   10AU     AUC 5124  30.490  27.551   7.082
   10AU     AUC 5125  31.167  27.665   7.316
   10AU     AUC 5126  31.186  27.650   7.634
   10AU     AUC 5127  30.334  27.671   7.354
   10AU     AUC 5128  30.351  27.700   7.674
   10AU     AUC 5129  31.157  27.134   7.358
   10AU     AUC 5130  31.163  27.145   7.674
   10AU     AUC 5131  30.320  27.163   7.354
   10AU     AUC 5132  30.331  27.180   7.695
   10AU     AUC 5133  30.616  27.838   7.769
   10AU     AUC 5134  30.934  27.837   7.735
   10AU     AUC 5135  30.569  26.997   7.771
   10AU     AUC 5136  30.888  27.002   7.798
   10AU     AUC 5137  30.593  27.819   7.236
   10AU     AUC 5138  30.910  27.803   7.217
   10AU     AUC 5139  30.566  26.995   7.257
   10AU     AUC 5140  30.896  26.976   7.279
   10AU    AUSL 5141  31.108  27.361   8.098
   10AU    AUSL 5142  31.054  26.943   8.146
   10AU     AUL 5143  31.298  27.022   8.404
   10AU       S 5144  31.317  26.651   8.081
   10AU     LIG 5145  31.171  26.366   8.399
   10AU     LIG 5146  31.284  26.007   8.673
   10AU     LIG 5147  31.524  25.701   8.959
   10AU     LIG 5148  31.586  25.362   9.307
   10AU     LIG 5149  31.741  25.254   9.753
   10AU     LIG 5150  31.849  24.936  10.087
   10AU       S 5151  31.170  27.391   8.654
   10AU     LIG 5152  31.364  27.068   8.923
   10AU     LIG 5153  31.585  26.899   9.316
   10AU     LIG 5154  31.967  26.912   9.611
   10AU     LIG 5155  32.303  27.054   9.925
   10AU     LIG 5156  32.482  27.220  10.334
   10AU     LIG 5157  32.622  27.324  10.771
   10AU    AUSL 5158  30.828  27.216   8.362
   10AU    AUSL 5159  30.702  27.606   8.285
   10AU     AUL 5160  30.761  27.582   8.706
   10AU       S 5161  30.902  27.209   8.512
   10AU     LIG 5162  30.957  26.809   8.723
   10AU     LIG 5163  31.165  26.627   9.143
   10AU     LIG 5164  31.308  26.501   9.615
   10AU     LIG 5165  31.355  26.337  10.097
   10AU     LIG 5166  31.427  26.353  10.585
   10AU     LIG 5167  31.498  26.242  11.050
   10AU       S 5168  30.408  27.313   8.638
   10AU     LIG 5169  30.265  27.236   9.087
   10AU     LIG 5170  30.082  27.148   9.500
   10AU     LIG 5171  29.900  27.183   9.922
   10AU     LIG 5172  29.937  27.455  10.317
   10AU     LIG 5173  30.026  27.675  10.726
   10AU     LIG 5174  29.906  28.030  11.008
   10AU    AUSL 5175  31.085  27.723   8.281
   10AU    AUSL 5176  31.412  27.604   7.961
   10AU     AUL 5177  31.409  27.447   8.276
   10AU       S 5178  31.117  27.752   8.466
   10AU     LIG 5179  31.220  27.840   8.900
   10AU     LIG 5180  31.435  28.027   9.285
   10AU     LIG 5181  31.415  28.181   9.745
   10AU     LIG 5182  31.484  28.279  10.207
   10AU     LIG 5183  31.570  28.354  10.656
   10AU     LIG 5184  31.770  28.113  11.010
   10AU       S 5185  31.708  27.666   8.000
   10AU     LIG 5186  31.888  27.600   8.412
   10AU     LIG 5187  32.140  27.866   8.708
   10AU     LIG 5188  32.425  28.152   8.966
   10AU     LIG 5189  32.665  28.377   9.318
   10AU     LIG 5190  33.019  28.373   9.664
   10AU     LIG 5191  33.413  28.499   9.921
   10AU    AUSL 5192  31.289  27.419   6.869
   10AU    AUSL 5193  31.052  27.810   6.819
   10AU     AUL 5194  31.404  27.753   6.440
   10AU       S 5195  31.330  27.441   6.721
   10AU     LIG 5196  31.622  27.333   6.341
   10AU     LIG 5197  31.643  27.191   5.917
   10AU     LIG 5198  31.755  27.054   5.483
   10AU     LIG 5199  32.020  26.989   5.090
   10AU     LIG 5200  32.377  26.961   4.758
   10AU     LIG 5201  32.598  26.952   4.327
   10AU       S 5202  31.050  27.862   6.661
   10AU     LIG 5203  31.327  28.225   6.565
   10AU     LIG 5204  31.683  28.217   6.282
   10AU     LIG 5205  31.969  28.406   5.947
   10AU     LIG 5206  32.233  28.558   5.562
   10AU     LIG 5207  32.239  28.834   5.143
   10AU     LIG 5208  32.338  29.164   4.788
   10AU    AUSL 5209  31.025  27.103   6.725
   10AU    AUSL 5210  31.353  27.045   7.017
   10AU     AUL 5211  31.439  27.027   6.675
   10AU       S 5212  31.433  26.608   6.877
   10AU     LIG 5213  31.631  26.317   6.537
   10AU     LIG 5214  31.839  25.977   6.234
   10AU     LIG 5215  32.023  25.666   5.893
   10AU     LIG 5216  32.347  25.544   5.544
   10AU     LIG 5217  32.744  25.608   5.238
   10AU     LIG 5218  33.180  25.677   5.017
   10AU       S 5219  31.119  27.307   6.451
   10AU     LIG 5220  31.226  26.970   6.197
   10AU     LIG 5221  31.335  26.815   5.747
   10AU     LIG 5222  31.382  26.769   5.263
   10AU     LIG 5223  31.373  26.499   4.848
   10AU     LIG 5224  31.450  26.362   4.389
   10AU     LIG 5225  31.526  26.377   3.916
   10AU    AUSL 5226  30.880  27.454   6.893
   10AU    AUSL 5227  30.627  27.205   6.682
   10AU     AUL 5228  30.819  26.977   6.586
   10AU       S 5229  30.583  27.302   6.350
   10AU     LIG 5230  30.528  26.934   6.132
   10AU     LIG 5231  30.269  26.782   5.756
   10AU     LIG 5232  30.087  26.773   5.311
   10AU     LIG 5233  29.876  26.696   4.886
   10AU     LIG 5234  29.803  26.477   4.447
   10AU     LIG 5235  29.676  26.463   3.983
   10AU       S 5236  31.028  27.417   6.501
   10AU     LIG 5237  31.179  27.459   6.000
   10AU     LIG 5238  31.287  27.295   5.554
   10AU     LIG 5239  31.461  27.290   5.106
   10AU     LIG 5240  31.471  27.511   4.666
   10AU     LIG 5241  31.506  27.741   4.243
   10AU     LIG 5242  31.591  27.936   3.819
   10AU    AUSL 5243  30.315  27.500   8.224
   10AU    AUSL 5244  30.465  27.900   8.136
   10AU     AUL 5245  30.522  27.839   8.433
   10AU       S 5246  30.261  27.509   8.649
   10AU     LIG 5247  29.908  27.203   8.698
   10AU     LIG 5248  29.773  26.995   9.096
   10AU     LIG 5249  29.569  27.018   9.534
   10AU     LIG 5250  29.218  26.949   9.867
   10AU     LIG 5251  29.025  26.880  10.314
   10AU     LIG 5252  28.793  26.978  10.734
   10AU       S 5253  30.069  27.892   8.361
   10AU     LIG 5254  30.097  27.983   8.785
   10AU     LIG 5255  29.949  28.302   9.088
   10AU     LIG 5256  29.810  28.675   9.336
   10AU     LIG 5257  29.667  28.958   9.683
   10AU     LIG 5258  29.591  29.127  10.127
   10AU     LIG 5259  29.360  29.388  10.450
   10AU    AUSL 5260  30.606  27.287   8.034
   10AU    AUSL 5261  30.105  27.219   8.015
   10AU     AUL 5262  30.115  27.333   8.252
   10AU       S 5263  29.924  26.900   8.238
   10AU     LIG 5264  29.520  26.793   8.031
   10AU     LIG 5265  29.202  26.498   8.197
   10AU     LIG 5266  28.979  26.228   8.527
   10AU     LIG 5267  28.762  25.945   8.834
   10AU     LIG 5268  28.626  25.830   9.273
   10AU     LIG 5269  28.317  25.926   9.629
   10AU       S 5270  30.422  27.204   8.593
   10AU     LIG 5271  30.267  26.824   8.790
   10AU     LIG 5272  30.172  26.706   9.247
   10AU     LIG 5273  29.956  26.684   9.689
   10AU     LIG 5274  29.845  26.490  10.123
   10AU     LIG 5275  29.849  26.250  10.551
   10AU     LIG 5276  29.726  26.130  10.999
   10AU    AUSL 5277  30.352  27.374   6.925
   10AU    AUSL 5278  30.473  26.941   6.946
   10AU     AUL 5279  30.299  27.063   6.649
   10AU       S 5280  30.375  27.398   6.315
   10AU     LIG 5281  30.088  27.191   6.034
   10AU     LIG 5282  29.835  27.074   5.644
   10AU     LIG 5283  29.577  26.982   5.244
   10AU     LIG 5284  29.126  26.986   5.035
   10AU     LIG 5285  28.819  26.932   4.660
   10AU     LIG 5286  28.610  27.004   4.234
   10AU       S 5287  30.033  26.684   6.813
   10AU     LIG 5288  29.868  26.254   6.816
   10AU     LIG 5289  29.540  25.999   6.567
   10AU     LIG 5290  29.257  25.779   6.237
   10AU     LIG 5291  29.069  25.678   5.802
   10AU     LIG 5292  29.063  25.535   5.340
   10AU     LIG 5293  29.076  25.373   4.894
   10AU    AUSL 5294  30.589  27.642   6.681
   10AU    AUSL 5295  30.095  27.686   6.982
   10AU     AUL 5296  30.173  27.526   6.699
   10AU       S 5297  30.005  27.951   6.769
   10AU     LIG 5298  29.826  27.972   6.341
   10AU     LIG 5299  29.588  28.168   5.968
   10AU     LIG 5300  29.205  28.234   5.673
   10AU     LIG 5301  28.773  28.327   5.479
   10AU     LIG 5302  28.442  28.474   5.145
   10AU     LIG 5303  28.252  28.864   4.906
   10AU       S 5304  30.587  27.573   6.457
   10AU     LIG 5305  30.627  27.477   5.903
   10AU     LIG 5306  30.325  27.266   5.571
   10AU     LIG 5307  30.020  27.274   5.188
   10AU     LIG 5308  29.887  27.461   4.761
   10AU     LIG 5309  29.884  27.687   4.327
   10AU     LIG 5310  29.918  27.787   3.850
   10AU    AUSL 5311  31.370  28.010   7.414
   10AU    AUSL 5312  31.391  27.758   7.076
   10AU     AUL 5313  31.527  28.216   7.216
   10AU       S 5314  31.528  27.866   6.872
   10AU     LIG 5315  31.883  27.799   6.583
   10AU     LIG 5316  32.138  27.970   6.209
   10AU     LIG 5317  32.443  28.208   5.917
   10AU     LIG 5318  32.747  28.329   5.569
   10AU     LIG 5319  33.111  28.389   5.267
   10AU     LIG 5320  33.332  28.731   5.033
   10AU       S 5321  31.831  27.871   7.325
   10AU     LIG 5322  32.331  27.861   7.463
   10AU     LIG 5323  32.833  27.879   7.493
   10AU     LIG 5324  33.314  28.000   7.524
   10AU     LIG 5325  33.584  28.395   7.598
   10AU     LIG 5326  33.973  28.705   7.587
   10AU     LIG 5327  34.176  29.121   7.424
   10AU    AUSL 5328  31.584  27.439   7.233
   10AU    AUSL 5329  31.582  27.288   7.650
   10AU     AUL 5330  31.864  27.202   7.424
   10AU       S 5331  31.803  27.634   7.266
   10AU     LIG 5332  32.223  27.459   7.179
   10AU     LIG 5333  32.698  27.534   7.143
   10AU     LIG 5334  33.180  27.591   7.223
   10AU     LIG 5335  33.668  27.677   7.261
   10AU     LIG 5336  34.121  27.876   7.147
   10AU     LIG 5337  34.389  28.291   7.181
   10AU       S 5338  31.867  26.802   7.699
   10AU     LIG 5339  32.300  26.764   7.650
   10AU     LIG 5340  32.650  26.481   7.705
   10AU     LIG 5341  33.056  26.294   7.650
   10AU     LIG 5342  33.472  26.364   7.849
   10AU     LIG 5343  33.852  26.219   8.030
   10AU     LIG 5344  34.276  26.246   8.197
   10AU    AUSL 5345  31.384  27.626   7.555
   10AU    AUSL 5346  31.287  27.972   7.814
   10AU     AUL 5347  31.537  27.964   7.679
   10AU       S 5348  31.565  27.870   8.115
   10AU     LIG 5349  31.973  28.089   8.251
   10AU     LIG 5350  32.155  28.380   8.589
   10AU     LIG 5351  32.462  28.679   8.828
   10AU     LIG 5352  32.702  29.121   8.850
   10AU     LIG 5353  32.913  29.584   8.839
   10AU     LIG 5354  33.051  29.993   9.066
   10AU       S 5355  31.853  27.673   7.535
   10AU     LIG 5356  32.165  27.456   7.751
   10AU     LIG 5357  32.621  27.573   7.851
   10AU     LIG 5358  33.126  27.635   7.845
   10AU     LIG 5359  33.614  27.626   7.913
   10AU     LIG 5360  34.032  27.674   8.177
   10AU     LIG 5361  34.435  27.907   8.375
   10AU    AUSL 5362  30.105  27.971   7.587
   10AU    AUSL 5363  30.157  27.725   7.930
   10AU     AUL 5364  30.119  28.172   7.839
   10AU       S 5365  29.952  27.803   8.128
   10AU     LIG 5366  29.620  27.861   8.515
   10AU     LIG 5367  29.518  28.143   8.848
   10AU     LIG 5368  29.407  28.353   9.238
   10AU     LIG 5369  29.027  28.398   9.530
   10AU     LIG 5370  28.602  28.537   9.722
   10AU     LIG 5371  28.324  28.701  10.072
   10AU       S 5372  29.725  28.008   7.674
   10AU     LIG 5373  29.375  28.367   7.571
   10AU     LIG 5374  29.108  28.813   7.470
   10AU     LIG 5375  28.830  29.238   7.466
   10AU     LIG 5376  28.546  29.626   7.475
   10AU     LIG 5377  28.101  29.749   7.649
   10AU     LIG 5378  27.650  29.651   7.543
   10AU    AUSL 5379  30.168  27.632   7.371
   10AU    AUSL 5380  30.259  28.039   7.212
   10AU     AUL 5381  29.972  27.962   7.247
   10AU       S 5382  29.603  27.902   7.533
   10AU     LIG 5383  29.296  27.743   7.213
   10AU     LIG 5384  28.890  27.768   6.949
   10AU     LIG 5385  28.491  27.950   6.761
   10AU     LIG 5386  28.163  28.303   6.754
   10AU     LIG 5387  27.799  28.567   6.588
   10AU     LIG 5388  27.350  28.684   6.644
   10AU       S 5389  30.087  28.193   6.841
   10AU     LIG 5390  29.938  28.458   6.482
   10AU     LIG 5391  29.704  28.863   6.352
   10AU     LIG 5392  29.556  29.300   6.217
   10AU     LIG 5393  29.253  29.527   5.951
   10AU     LIG 5394  28.984  29.883   5.852
   10AU     LIG 5395  28.563  30.043   5.977
   10AU    AUSL 5396  29.901  27.558   7.677
   10AU    AUSL 5397  29.920  27.312   7.331
   10AU     AUL 5398  29.764  27.563   7.277
   10AU       S 5399  29.569  27.119   7.489
   10AU     LIG 5400  29.142  27.042   7.777
   10AU     LIG 5401  28.650  27.035   7.817
   10AU     LIG 5402  28.236  26.844   7.691
   10AU     LIG 5403  27.897  26.692   7.333
   10AU     LIG 5404  27.434  26.833   7.213
   10AU     LIG 5405  27.025  26.739   6.961
   10AU       S 5406  29.736  27.622   7.741
   10AU     LIG 5407  29.437  27.812   8.044
   10AU     LIG 5408  29.008  27.796   8.229
   10AU     LIG 5409  28.605  28.026   8.333
   10AU     LIG 5410  28.127  28.008   8.354
   10AU     LIG 5411  27.722  28.289   8.276
   10AU     LIG 5412  27.430  28.712   8.258
   10AU    AUSL 5413  31.430  26.900   7.575
   10AU    AUSL 5414  31.389  27.111   7.956
   10AU     AUL 5415  31.696  27.168   7.910
   10AU       S 5416  31.579  26.643   7.554
   10AU     LIG 5417  31.817  26.306   7.646
   10AU     LIG 5418  32.241  26.224   7.511
   10AU     LIG 5419  32.669  26.065   7.390
   10AU     LIG 5420  33.068  25.800   7.467
   10AU     LIG 5421  33.373  25.418   7.537
   10AU     LIG 5422  33.793  25.188   7.615
   10AU       S 5423  31.431  26.792   8.038
   10AU     LIG 5424  31.686  26.464   8.337
   10AU     LIG 5425  31.795  26.104   8.644
   10AU     LIG 5426  32.033  25.842   8.965
   10AU     LIG 5427  32.358  25.783   9.312
   10AU     LIG 5428  32.746  25.756   9.593
   10AU     LIG 5429  33.072  25.611   9.905
   10AU    AUSL 5430  31.279  27.222   7.372
   10AU    AUSL 5431  31.194  26.755   7.275
   10AU     AUL 5432  31.546  26.962   7.189
   10AU       S 5433  31.615  26.810   7.601
   10AU     LIG 5434  31.983  26.663   7.247
   10AU     LIG 5435  32.485  26.560   7.212
   10AU     LIG 5436  32.944  26.418   7.120
   10AU     LIG 5437  33.372  26.341   6.928
   10AU     LIG 5438  33.831  26.274   7.024
   10AU     LIG 5439  34.254  26.457   7.156
   10AU       S 5440  31.427  26.516   7.091
   10AU     LIG 5441  31.367  26.093   6.916
   10AU     LIG 5442  31.587  25.769   6.639
   10AU     LIG 5443  31.767  25.455   6.312
   10AU     LIG 5444  31.968  25.148   6.000
   10AU     LIG 5445  32.220  24.818   5.772
   10AU     LIG 5446  32.605  24.554   5.686
   10AU    AUSL 5447  30.030  26.933   7.489
   10AU    AUSL 5448  30.112  27.082   7.068
   10AU     AUL 5449  29.807  27.135   7.066
   10AU       S 5450  30.032  26.741   7.042
   10AU     LIG 5451  29.537  26.702   7.000
   10AU     LIG 5452  29.262  26.391   6.774
   10AU     LIG 5453  28.991  26.160   6.449
   10AU     LIG 5454  28.734  25.904   6.133
   10AU     LIG 5455  28.355  25.727   5.906
   10AU     LIG 5456  27.974  25.756   5.618
   10AU       S 5457  29.732  26.895   7.456
   10AU     LIG 5458  29.369  26.645   7.534
   10AU     LIG 5459  28.892  26.651   7.533
   10AU     LIG 5460  28.453  26.448   7.481
   10AU     LIG 5461  28.012  26.338   7.679
   10AU     LIG 5462  27.623  26.168   7.911
   10AU     LIG 5463  27.269  25.878   7.978
   10AU    AUSL 5464  30.198  27.288   7.636
   10AU    AUSL 5465  30.282  26.899   7.817
   10AU     AUL 5466  29.914  27.098   7.823
   10AU       S 5467  30.014  26.698   8.011
   10AU     LIG 5468  29.785  26.423   7.807
   10AU     LIG 5469  29.450  26.132   7.941
   10AU     LIG 5470  29.137  25.862   8.201
   10AU     LIG 5471  28.891  25.555   8.485
   10AU     LIG 5472  28.821  25.118   8.678
   10AU     LIG 5473  28.525  24.764   8.786
   10AU       S 5474  29.617  27.188   7.501
   10AU     LIG 5475  29.137  27.062   7.275
   10AU     LIG 5476  28.619  27.044   7.307
   10AU     LIG 5477  28.122  27.143   7.302
   10AU     LIG 5478  27.769  27.045   7.656
   10AU     LIG 5479  27.380  26.833   7.756
   10AU     LIG 5480  26.981  26.812   7.992
   10AU    AUSL 5481  30.806  28.088   8.017
   10AU    AUSL 5482  30.477  27.885   7.731
   10AU     AUL 5483  30.511  28.196   8.097
   10AU       S 5484  30.120  28.032   8.272
   10AU     LIG 5485  29.858  28.345   8.510
   10AU     LIG 5486  29.675  28.657   8.829
   10AU     LIG 5487  29.667  29.090   9.052
   10AU     LIG 5488  29.507  29.536   9.128
   10AU     LIG 5489  29.151  29.856   9.184
   10AU     LIG 5490  28.781  30.145   9.307
   10AU       S 5491  30.873  28.480   7.957
   10AU     LIG 5492  31.024  28.542   8.341
   10AU     LIG 5493  31.152  28.966   8.504
   10AU     LIG 5494  31.111  29.368   8.753
   10AU     LIG 5495  31.021  29.666   9.118
   10AU     LIG 5496  30.915  29.998   9.443
   10AU     LIG 5497  30.642  30.343   9.623
   10AU    AUSL 5498  30.558  28.267   7.654
   10AU    AUSL 5499  30.988  28.238   7.257
   10AU     AUL 5500  30.672  28.496   7.414
   10AU       S 5501  30.718  28.562   7.866
   10AU     LIG 5502  30.822  28.970   8.100
   10AU     LIG 5503  30.880  29.400   8.283
   10AU     LIG 5504  30.635  29.824   8.351
   10AU     LIG 5505  30.429  30.262   8.269
   10AU     LIG 5506  30.338  30.715   8.390
   10AU     LIG 5507  30.129  31.156   8.440
   10AU       S 5508  31.025  28.564   7.109
   10AU     LIG 5509  31.377  28.666   6.864
   10AU     LIG 5510  31.486  29.134   6.768
   10AU     LIG 5511  31.652  29.587   6.683
   10AU     LIG 5512  31.824  30.046   6.660
   10AU     LIG 5513  31.806  30.514   6.511
   10AU     LIG 5514  31.903  30.824   6.165
   10AU    AUSL 5515  30.950  28.102   7.636
   10AU    AUSL 5516  30.968  27.736   7.903
   10AU     AUL 5517  31.130  28.112   8.042
   10AU       S 5518  31.510  27.899   8.216
   10AU     LIG 5519  31.633  28.004   8.637
   10AU     LIG 5520  31.870  28.205   8.994
   10AU     LIG 5521  32.154  28.508   9.216
   10AU     LIG 5522  32.356  28.748   9.565
   10AU     LIG 5523  32.292  29.053   9.931
   10AU     LIG 5524  32.353  29.357  10.289
   10AU       S 5525  31.044  28.422   7.702
   10AU     LIG 5526  31.278  28.784   7.955
   10AU     LIG 5527  31.395  29.244   8.122
   10AU     LIG 5528  31.711  29.652   8.132
   10AU     LIG 5529  31.892  30.118   8.165
   10AU     LIG 5530  32.010  30.550   8.341
   10AU     LIG 5531  31.924  30.900   8.682
   10AU    AUSL 5532  30.713  26.851   7.943
   10AU    AUSL 5533  31.067  26.970   7.739
   10AU     AUL 5534  30.895  26.741   8.210
   10AU       S 5535  30.764  26.313   8.050
   10AU     LIG 5536  30.797  25.977   8.283
   10AU     LIG 5537  30.508  25.641   8.200
   10AU     LIG 5538  30.381  25.228   8.329
   10AU     LIG 5539  30.533  24.842   8.543
   10AU     LIG 5540  30.601  24.618   8.963
   10AU     LIG 5541  30.758  24.486   9.406
   10AU       S 5542  31.347  26.607   7.959
   10AU     LIG 5543  31.408  26.163   7.986
   10AU     LIG 5544  31.564  25.827   8.275
   10AU     LIG 5545  31.839  25.567   8.569
   10AU     LIG 5546  32.094  25.238   8.816
   10AU     LIG 5547  32.404  24.856   8.868
   10AU     LIG 5548  32.762  24.524   8.891
   10AU    AUSL 5549  30.531  26.608   7.676
   10AU    AUSL 5550  30.427  26.976   8.204
   10AU     AUL 5551  30.462  26.654   8.054
   10AU       S 5552  30.510  26.243   7.861
   10AU     LIG 5553  30.298  25.829   7.759
   10AU     LIG 5554  30.188  25.370   7.850
   10AU     LIG 5555  30.095  24.920   8.019
   10AU     LIG 5556  29.848  24.520   8.163
   10AU     LIG 5557  29.636  24.085   8.182
   10AU     LIG 5558  29.586  23.648   8.358
   10AU       S 5559  30.124  26.837   8.299
   10AU     LIG 5560  29.771  26.448   8.356
   10AU     LIG 5561  29.484  26.126   8.473
   10AU     LIG 5562  29.255  25.815   8.733
   10AU     LIG 5563  28.997  25.519   9.008
   10AU     LIG 5564  28.875  25.394   9.448
   10AU     LIG 5565  28.853  25.196   9.882
   10AU    AUSL 5566  30.967  26.582   7.715
   10AU    AUSL 5567  30.468  26.605   7.270
   10AU     AUL 5568  30.767  26.332   7.491
   10AU       S 5569  30.359  26.301   7.167
   10AU     LIG 5570  30.065  25.966   7.257
   10AU     LIG 5571  30.114  25.504   7.298
   10AU     LIG 5572  30.123  25.067   7.066
   10AU     LIG 5573  29.881  24.659   6.890
   10AU     LIG 5574  29.705  24.207   6.755
   10AU     LIG 5575  29.690  23.862   6.426
   10AU       S 5576  30.889  26.375   7.920
   10AU     LIG 5577  30.840  25.882   7.777
   10AU     LIG 5578  30.693  25.412   7.772
   10AU     LIG 5579  30.633  24.964   7.974
   10AU     LIG 5580  30.640  24.524   8.147
   10AU     LIG 5581  30.940  24.197   8.294
   10AU     LIG 5582  31.122  23.762   8.281
   10AU    AUSL 5583  30.748  28.048   6.948
   10AU    AUSL 5584  31.042  27.836   7.250
   10AU     AUL 5585  31.128  28.136   7.000
   10AU       S 5586  30.789  28.338   6.758
   10AU     LIG 5587  31.012  28.619   6.496
   10AU     LIG 5588  31.182  29.025   6.370
   10AU     LIG 5589  31.222  29.438   6.155
   10AU     LIG 5590  31.224  29.658   5.722
   10AU     LIG 5591  31.124  30.014   5.417
   10AU     LIG 5592  31.232  30.394   5.171
   10AU       S 5593  31.483  27.842   6.954
   10AU     LIG 5594  31.794  28.260   6.791
   10AU     LIG 5595  32.121  28.418   6.467
   10AU     LIG 5596  32.363  28.689   6.149
   10AU     LIG 5597  32.532  29.142   6.074
   10AU     LIG 5598  32.711  29.598   6.042
   10AU     LIG 5599  33.072  29.923   5.957
   10AU    AUSL 5600  30.643  28.024   7.344
   10AU    AUSL 5601  30.498  27.752   7.056
   10AU     AUL 5602  30.476  28.223   7.092
   10AU       S 5603  30.836  28.510   6.985
   10AU     LIG 5604  30.961  28.985   6.849
   10AU     LIG 5605  30.981  29.421   6.652
   10AU     LIG 5606  30.685  29.806   6.561
   10AU     LIG 5607  30.472  30.226   6.439
   10AU     LIG 5608  30.316  30.683   6.359
   10AU     LIG 5609  30.128  31.142   6.441
   10AU       S 5610  30.311  28.010   6.712
   10AU     LIG 5611  30.308  28.135   6.290
   10AU     LIG 5612  30.074  28.367   5.932
   10AU     LIG 5613  30.033  28.544   5.463
   10AU     LIG 5614  29.967  28.791   5.047
   10AU     LIG 5615  29.801  29.049   4.676
   10AU     LIG 5616  29.440  29.289   4.489
   10AU    AUSL 5617  30.795  26.697   6.998
   10AU    AUSL 5618  30.404  26.989   7.350
   10AU     AUL 5619  30.480  26.693   6.921
   10AU       S 5620  30.009  26.637   7.134
   10AU     LIG 5621  29.755  26.366   7.308
   10AU     LIG 5622  29.481  26.059   7.110
   10AU     LIG 5623  29.133  25.867   6.849
   10AU     LIG 5624  28.861  25.631   6.545
   10AU     LIG 5625  28.557  25.392   6.259
   10AU     LIG 5626  28.222  25.038   6.182
   10AU       S 5627  30.611  26.275   7.039
   10AU     LIG 5628  30.359  25.934   6.835
   10AU     LIG 5629  30.262  25.491   6.792
   10AU     LIG 5630  30.383  25.082   6.601
   10AU     LIG 5631  30.448  24.841   6.194
   10AU     LIG 5632  30.400  24.636   5.765
   10AU     LIG 5633  30.458  24.367   5.378
   10AU    AUSL 5634  30.810  26.786   7.406
   10AU    AUSL 5635  30.942  27.051   7.109
   10AU     AUL 5636  30.974  26.557   7.164
   10AU       S 5637  30.381  26.404   7.284
   10AU     LIG 5638  30.560  25.878   7.331
   10AU     LIG 5639  30.604  25.410   7.185
   10AU     LIG 5640  30.689  24.961   7.014
   10AU     LIG 5641  30.929  24.559   6.855
   10AU     LIG 5642  31.137  24.183   6.650
   10AU     LIG 5643  31.327  23.744   6.699
   10AU       S 5644  31.202  26.650   6.780
   10AU     LIG 5645  31.108  26.317   6.526
   10AU     LIG 5646  31.316  25.989   6.261
   10AU     LIG 5647  31.500  25.694   5.939
   10AU     LIG 5648  31.645  25.348   5.662
   10AU     LIG 5649  31.961  25.105   5.431
   10AU     LIG 5650  32.056  24.970   4.985
   11POPC   NC3 5651  22.698  29.144  10.012
   11POPC   PO4 5652  23.166  29.357   9.526
   11POPC   GL1 5653  22.840  29.144   9.258
   11POPC   GL2 5654  22.560  29.354   9.123
   11POPC   C1A 5655  22.901  29.087   8.818
   11POPC   D2A 5656  22.962  29.320   8.450
   11POPC   C3A 5657  22.855  29.126   8.090
   11POPC   C4A 5658  23.007  29.153   7.682
   11POPC   C1B 5659  22.485  29.426   8.675
   11POPC   C2B 5660  22.547  29.571   8.256
   11POPC   C3B 5661  22.698  29.539   7.838
   11POPC   C4B 5662  22.747  29.487   7.380
   12POPC   NC3 5663  29.688  23.422   9.796
   12POPC   PO4 5664  29.971  22.785   9.520
   12POPC   GL1 5665  30.121  22.668   9.131
   12POPC   GL2 5666  29.849  22.890   9.000
   12POPC   C1A 5667  30.184  22.663   8.685
   12POPC   D2A 5668  29.864  22.781   8.367
   12POPC   C3A 5669  30.085  22.837   7.977
   12POPC   C4A 5670  30.086  23.168   7.656
   12POPC   C1B 5671  29.479  23.004   8.737
   12POPC   C2B 5672  29.328  23.138   8.321
   12POPC   C3B 5673  29.594  23.005   7.957
   12POPC   C4B 5674  29.607  23.076   7.498
   13POPC   NC3 5675  35.834  25.793   9.382
   13POPC   PO4 5676  36.283  26.193   9.722
   13POPC   GL1 5677  36.294  26.059   9.265
   13POPC   GL2 5678  36.041  26.059   9.002
   13POPC   C1A 5679  36.487  25.978   8.824
   13POPC   D2A 5680  36.572  26.133   8.405
   13POPC   C3A 5681  36.239  26.139   8.070
   13POPC   C4A 5682  35.911  25.982   7.777
   13POPC   C1B 5683  36.072  26.393   8.696
   13POPC   C2B 5684  35.950  26.610   8.322
   13POPC   C3B 5685  35.784  26.457   7.945
   13POPC   C4B 5686  35.665  26.374   7.505
   14POPC   NC3 5687  34.276  20.964   9.537
   14POPC   PO4 5688  33.768  21.450   9.567
   14POPC   GL1 5689  33.788  21.498   9.157
   14POPC   GL2 5690  34.083  21.285   9.147
   14POPC   C1A 5691  33.951  21.563   8.739
   14POPC   D2A 5692  33.900  21.250   8.434
   14POPC   C3A 5693  33.557  21.334   8.202
   14POPC   C4A 5694  33.701  21.544   7.861
   14POPC   C1B 5695  34.289  21.097   8.772
   14POPC   C2B 5696  34.294  20.944   8.311
   14POPC   C3B 5697  34.085  21.154   7.938
   14POPC   C4B 5698  34.030  21.101   7.473
   15POPC   NC3 5699  39.652   0.815   9.424
   15POPC   PO4 5700  38.991   0.972   9.479
   15POPC   GL1 5701  39.147   1.129   9.104
   15POPC   GL2 5702  38.897   1.371   9.066
   15POPC   C1A 5703  39.475   1.130   8.814
   15POPC   D2A 5704  39.462   1.303   8.382
   15POPC   C3A 5705  39.507   1.144   8.017
   15POPC   C4A 5706  39.470   1.308   7.600
   15POPC   C1B 5707  38.991   1.281   8.623
   15POPC   C2B 5708  38.980   1.319   8.168
   15POPC   C3B 5709  38.962   1.349   7.738
   15POPC   C4B 5710  38.965   1.085   7.367
   16POPC   NC3 5711   4.978  39.504   9.603
   16POPC   PO4 5712   4.615  38.942   9.469
   16POPC   GL1 5713   4.868  39.228   9.202
   16POPC   GL2 5714   5.183  39.175   9.182
   16POPC   C1A 5715   4.836  39.434   8.815
   16POPC   D2A 5716   4.826  39.210   8.436
   16POPC   C3A 5717   4.917  39.373   8.072
   16POPC   C4A 5718   4.808  39.085   7.759
   16POPC   C1B 5719   5.416  39.086   8.771
   16POPC   C2B 5720   5.318  39.075   8.355
   16POPC   C3B 5721   5.255  38.958   7.963
   16POPC   C4B 5722   5.295  39.317   7.727
   17POPC   NC3 5723  27.473   4.105   9.700
   17POPC   PO4 5724  27.722   4.718   9.763
   17POPC   GL1 5725  27.556   4.516   9.387
   17POPC   GL2 5726  27.595   4.751   9.154
   17POPC   C1A 5727  27.478   4.324   8.945
   17POPC   D2A 5728  27.287   4.487   8.556
   17POPC   C3A 5729  27.376   4.395   8.115
   17POPC   C4A 5730  27.267   4.182   7.709
   17POPC   C1B 5731  27.821   4.700   8.793
   17POPC   C2B 5732  27.895   4.733   8.360
   17POPC   C3B 5733  27.712   4.731   7.961
   17POPC   C4B 5734  27.937   4.601   7.631
   18POPC   NC3 5735  24.367  41.124   9.419
   18POPC   PO4 5736  24.374  41.716   9.377
   18POPC   GL1 5737  24.436  41.442   9.019
   18POPC   GL2 5738  24.784  41.309   9.029
   18POPC   C1A 5739  24.540  41.526   8.581
   18POPC   D2A 5740  24.301  41.370   8.234
   18POPC   C3A 5741  24.185  41.676   7.905
   18POPC   C4A 5742  24.406  42.019   7.744
   18POPC   C1B 5743  25.013  41.677   8.775
   18POPC   C2B 5744  24.908  41.841   8.337
   18POPC   C3B 5745  24.698  41.631   7.967
   18POPC   C4B 5746  24.502  41.238   7.766
   19POPC   NC3 5747   7.437  27.235   9.159
   19POPC   PO4 5748   7.591  27.825   9.464
   19POPC   GL1 5749   7.600  27.711   9.076
   19POPC   GL2 5750   7.225  27.756   9.081
   19POPC   C1A 5751   7.746  27.698   8.652
   19POPC   D2A 5752   7.501  27.773   8.283
   19POPC   C3A 5753   7.628  27.649   7.915
   19POPC   C4A 5754   7.529  27.996   7.726
   19POPC   C1B 5755   7.182  27.639   8.650
   19POPC   C2B 5756   6.971  27.514   8.247
   19POPC   C3B 5757   7.146  27.407   7.828
   19POPC   C4B 5758   7.147  26.959   7.666
   20POPC   NC3 5759   4.618   6.206   9.653
   20POPC   PO4 5760   4.246   6.773   9.682
   20POPC   GL1 5761   4.191   6.819   9.218
   20POPC   GL2 5762   4.509   6.738   9.092
   20POPC   C1A 5763   3.994   6.613   8.845
   20POPC   D2A 5764   4.011   6.408   8.412
   20POPC   C3A 5765   4.101   6.532   7.971
   20POPC   C4A 5766   3.963   6.811   7.657
   20POPC   C1B 5767   4.477   6.496   8.681
   20POPC   C2B 5768   4.521   6.401   8.243
   20POPC   C3B 5769   4.553   6.286   7.818
   20POPC   C4B 5770   4.594   6.226   7.354
   21POPC   NC3 5771  41.265  25.467   9.411
   21POPC   PO4 5772  41.878  25.299   9.487
   21POPC   GL1 5773  41.701  25.411   9.096
   21POPC   GL2 5774  41.431  25.191   9.010
   21POPC   C1A 5775  41.565  25.552   8.682
   21POPC   D2A 5776  41.744  25.409   8.315
   21POPC   C3A 5777  41.569  25.411   7.932
   21POPC   C4A 5778  41.351  25.177   7.688
   21POPC   C1B 5779  41.534  25.029   8.615
   21POPC   C2B 5780  41.571  24.936   8.194
   21POPC   C3B 5781  41.725  24.888   7.833
   21POPC   C4B 5782  41.845  25.173   7.505
   22POPC   NC3 5783   7.293  34.370   9.431
   22POPC   PO4 5784   7.665  34.975   9.524
   22POPC   GL1 5785   7.470  34.854   9.088
   22POPC   GL2 5786   7.171  34.665   9.005
   22POPC   C1A 5787   7.512  34.638   8.648
   22POPC   D2A 5788   7.268  34.609   8.253
   22POPC   C3A 5789   7.430  34.601   7.808
   22POPC   C4A 5790   7.810  34.457   7.550
   22POPC   C1B 5791   7.047  34.358   8.715
   22POPC   C2B 5792   7.121  34.095   8.356
   22POPC   C3B 5793   6.964  34.208   7.937
   22POPC   C4B 5794   7.153  34.193   7.545
   23POPC   NC3 5795  12.386  42.616   9.626
   23POPC   PO4 5796  12.073  41.982   9.715
   23POPC   GL1 5797  12.285  42.138   9.353
   23POPC   GL2 5798  12.038  42.395   9.288
   23POPC   C1A 5799  12.430  42.106   8.903
   23POPC   D2A 5800  12.615  42.116   8.472
   23POPC   C3A 5801  12.437  42.196   8.041
   23POPC   C4A 5802  12.268  42.439   7.701
   23POPC   C1B 5803  11.952  42.481   8.871
   23POPC   C2B 5804  12.140  42.375   8.459
   23POPC   C3B 5805  11.950  42.344   8.069
   23POPC   C4B 5806  11.701  42.621   7.811
   24POPC   NC3 5807   0.394  15.417   9.525
   24POPC   PO4 5808   0.423  14.796   9.426
   24POPC   GL1 5809   0.501  15.101   9.111
   24POPC   GL2 5810   0.242  15.355   9.041
   24POPC   C1A 5811   0.634  15.237   8.709
   24POPC   D2A 5812   0.496  15.057   8.337
   24POPC   C3A 5813   0.577  15.293   7.987
   24POPC   C4A 5814   0.331  15.015   7.758
   24POPC   C1B 5815   0.110  15.284   8.619
   24POPC   C2B 5816  44.803  15.401   8.343
   24POPC   C3B 5817   0.085  15.489   7.989
   24POPC   C4B 5818   0.172  15.427   7.540
   25POPC   NC3 5819  17.635  21.796   9.534
   25POPC   PO4 5820  17.001  21.911   9.460
   25POPC   GL1 5821  17.336  21.895   9.108
   25POPC   GL2 5822  17.665  22.083   9.120
   25POPC   C1A 5823  17.432  22.112   8.689
   25POPC   D2A 5824  17.597  21.976   8.292
   25POPC   C3A 5825  17.618  22.303   8.015
   25POPC   C4A 5826  17.354  22.563   7.771
   25POPC   C1B 5827  17.927  22.029   8.749
   25POPC   C2B 5828  18.092  21.991   8.319
   25POPC   C3B 5829  17.916  21.864   7.901
   25POPC   C4B 5830  17.518  21.943   7.674
   26POPC   NC3 5831  15.953  26.467   9.385
   26POPC   PO4 5832  15.743  27.058   9.676
   26POPC   GL1 5833  15.876  26.947   9.234
   26POPC   GL2 5834  15.604  26.768   9.162
   26POPC   C1A 5835  15.956  26.712   8.791
   26POPC   D2A 5836  15.758  26.685   8.395
   26POPC   C3A 5837  16.065  26.737   8.087
   26POPC   C4A 5838  15.979  26.695   7.680
   26POPC   C1B 5839  15.512  26.963   8.817
   26POPC   C2B 5840  15.607  27.151   8.440
   26POPC   C3B 5841  15.759  27.165   8.036
   26POPC   C4B 5842  16.181  27.255   7.854
   27POPC   NC3 5843  40.602  23.875   9.559
   27POPC   PO4 5844  40.593  23.242   9.248
   27POPC   GL1 5845  40.752  23.664   9.092
   27POPC   GL2 5846  40.622  24.025   9.070
   27POPC   C1A 5847  40.771  23.740   8.656
   27POPC   D2A 5848  40.597  23.579   8.262
   27POPC   C3A 5849  40.789  23.745   7.883
   27POPC   C4A 5850  40.763  23.653   7.426
   27POPC   C1B 5851  41.011  24.164   8.824
   27POPC   C2B 5852  41.112  24.141   8.361
   27POPC   C3B 5853  41.004  24.225   7.920
   27POPC   C4B 5854  41.076  24.026   7.510
   28POPC   NC3 5855   2.766  37.944   9.541
   28POPC   PO4 5856   2.631  37.393   9.781
   28POPC   GL1 5857   2.535  37.483   9.292
   28POPC   GL2 5858   2.833  37.616   9.157
   28POPC   C1A 5859   2.456  37.658   8.830
   28POPC   D2A 5860   2.693  37.535   8.450
   28POPC   C3A 5861   2.614  37.745   8.058
   28POPC   C4A 5862   2.460  38.083   7.838
   28POPC   C1B 5863   3.105  37.466   8.835
   28POPC   C2B 5864   3.225  37.608   8.435
   28POPC   C3B 5865   3.113  37.635   8.019
   28POPC   C4B 5866   3.024  37.974   7.764
   29POPC   NC3 5867  35.190  25.124   9.752
   29POPC   PO4 5868  34.993  25.705   9.524
   29POPC   GL1 5869  35.154  25.326   9.253
   29POPC   GL2 5870  35.489  25.186   9.249
   29POPC   C1A 5871  35.244  25.154   8.822
   29POPC   D2A 5872  35.084  25.378   8.500
   29POPC   C3A 5873  35.178  25.284   8.100
   29POPC   C4A 5874  35.356  25.394   7.729
   29POPC   C1B 5875  35.756  25.230   8.846
   29POPC   C2B 5876  35.592  25.105   8.430
   29POPC   C3B 5877  35.491  24.900   8.043
   29POPC   C4B 5878  35.627  24.887   7.652
   30POPC   NC3 5879  34.975   8.829   9.462
   30POPC   PO4 5880  34.286   8.704   9.646
   30POPC   GL1 5881  34.387   8.916   9.207
   30POPC   GL2 5882  34.678   8.712   9.082
   30POPC   C1A 5883  34.506   8.997   8.732
   30POPC   D2A 5884  34.768   8.998   8.347
   30POPC   C3A 5885  34.535   9.050   7.969
   30POPC   C4A 5886  34.381   8.959   7.546
   30POPC   C1B 5887  34.857   8.572   8.646
   30POPC   C2B 5888  34.832   8.473   8.190
   30POPC   C3B 5889  34.606   8.560   7.817
   30POPC   C4B 5890  34.807   8.674   7.412
   31POPC   NC3 5891  44.739   6.479   9.954
   31POPC   PO4 5892  44.769   5.891   9.579
   31POPC   GL1 5893  44.882   5.869   9.191
   31POPC   GL2 5894  44.888   6.191   9.046
   31POPC   C1A 5895  44.998   5.748   8.779
   31POPC   D2A 5896  44.842   5.912   8.398
   31POPC   C3A 5897  44.822   5.566   8.115
   31POPC   C4A 5898  44.930   5.784   7.782
   31POPC   C1B 5899  44.511   5.961   8.846
   31POPC   C2B 5900  44.362   5.703   8.478
   31POPC   C3B 5901  44.407   5.879   8.064
   31POPC   C4B 5902  44.134   5.930   7.694
   32POPC   NC3 5903  27.107  11.394   9.344
   32POPC   PO4 5904  26.817  11.998   9.578
   32POPC   GL1 5905  26.602  12.073   9.181
   32POPC   GL2 5906  26.687  11.738   9.097
   32POPC   C1A 5907  26.350  12.309   8.857
   32POPC   D2A 5908  26.567  12.467   8.478
   32POPC   C3A 5909  26.694  12.211   8.138
   32POPC   C4A 5910  26.763  12.282   7.726
   32POPC   C1B 5911  26.558  11.875   8.685
   32POPC   C2B 5912  26.592  11.729   8.282
   32POPC   C3B 5913  26.682  11.607   7.874
   32POPC   C4B 5914  26.998  11.764   7.557
   33POPC   NC3 5915  14.881   2.650   9.372
   33POPC   PO4 5916  15.364   3.103   9.572
   33POPC   GL1 5917  15.177   3.011   9.138
   33POPC   GL2 5918  14.828   2.978   8.970
   33POPC   C1A 5919  15.199   2.699   8.788
   33POPC   D2A 5920  15.291   2.661   8.358
   33POPC   C3A 5921  15.077   2.608   7.990
   33POPC   C4A 5922  15.267   2.711   7.591
   33POPC   C1B 5923  14.685   2.616   8.768
   33POPC   C2B 5924  14.791   2.820   8.429
   33POPC   C3B 5925  14.763   3.031   8.051
   33POPC   C4B 5926  14.813   2.902   7.636
   34POPC   NC3 5927  39.621  13.098   9.547
   34POPC   PO4 5928  39.197  12.515   9.542
   34POPC   GL1 5929  39.361  12.760   9.210
   34POPC   GL2 5930  39.226  13.104   9.217
   34POPC   C1A 5931  39.393  12.829   8.745
   34POPC   D2A 5932  39.615  12.794   8.350
   34POPC   C3A 5933  39.273  12.888   8.090
   34POPC   C4A 5934  39.167  13.124   7.711
   34POPC   C1B 5935  38.895  12.939   8.948
   34POPC   C2B 5936  38.898  12.998   8.510
   34POPC   C3B 5937  38.809  13.069   8.086
   34POPC   C4B 5938  38.829  12.759   7.787
   35POPC   NC3 5939  30.826   7.420   9.532
   35POPC   PO4 5940  30.173   7.551   9.514
   35POPC   GL1 5941  30.510   7.587   9.168
   35POPC   GL2 5942  30.657   7.242   9.070
   35POPC   C1A 5943  30.582   7.614   8.722
   35POPC   D2A 5944  30.728   7.266   8.456
   35POPC   C3A 5945  30.633   7.314   8.025
   35POPC   C4A 5946  30.344   7.473   7.749
   35POPC   C1B 5947  31.048   7.402   8.846
   35POPC   C2B 5948  31.074   7.642   8.436
   35POPC   C3B 5949  31.120   7.500   7.999
   35POPC   C4B 5950  31.186   7.506   7.527
   36POPC   NC3 5951  30.786   0.103   9.523
   36POPC   PO4 5952  30.765  44.457   9.369
   36POPC   GL1 5953  30.524  44.778   9.134
   36POPC   GL2 5954  30.537   0.154   9.083
   36POPC   C1A 5955  30.755  44.851   8.747
   36POPC   D2A 5956  30.960  44.972   8.401
   36POPC   C3A 5957  30.927  44.600   8.182
   36POPC   C4A 5958  30.731  44.493   7.815
   36POPC   C1B 5959  30.299   0.066   8.742
   36POPC   C2B 5960  30.404  44.893   8.333
   36POPC   C3B 5961  30.648  44.997   7.962
   36POPC   C4B 5962  31.101  44.970   7.856
   37POPC   NC3 5963  26.642  39.571   9.829
   37POPC   PO4 5964  27.027  40.167   9.524
   37POPC   GL1 5965  26.863  40.181   9.088
   37POPC   GL2 5966  26.558  40.015   9.002
   37POPC   C1A 5967  26.918  39.993   8.658
   37POPC   D2A 5968  26.764  39.815   8.291
   37POPC   C3A 5969  26.923  39.928   7.915
   37POPC   C4A 5970  26.792  39.872   7.497
   37POPC   C1B 5971  26.411  39.927   8.636
   37POPC   C2B 5972  26.340  40.185   8.341
   37POPC   C3B 5973  26.629  40.317   8.087
   37POPC   C4B 5974  26.761  40.362   7.662
   38POPC   NC3 5975  24.830   9.783   9.312
   38POPC   PO4 5976  25.111   9.337   9.728
   38POPC   GL1 5977  25.305   9.350   9.234
   38POPC   GL2 5978  25.260   9.677   9.097
   38POPC   C1A 5979  25.380   9.378   8.740
   38POPC   D2A 5980  25.396   9.740   8.422
   38POPC   C3A 5981  25.524   9.662   8.017
   38POPC   C4A 5982  25.649   9.417   7.689
   38POPC   C1B 5983  24.960   9.672   8.703
   38POPC   C2B 5984  24.913   9.944   8.354
   38POPC   C3B 5985  25.160  10.033   7.995
   38POPC   C4B 5986  25.263   9.907   7.583
   39POPC   NC3 5987   6.919  19.606   9.484
   39POPC   PO4 5988   6.329  19.969   9.524
   39POPC   GL1 5989   6.717  20.050   9.290
   39POPC   GL2 5990   6.608  19.747   9.099
   39POPC   C1A 5991   6.917  20.065   8.852
   39POPC   D2A 5992   6.719  19.846   8.505
   39POPC   C3A 5993   6.900  19.963   8.135
   39POPC   C4A 5994   6.867  19.995   7.698
   39POPC   C1B 5995   6.367  19.574   8.767
   39POPC   C2B 5996   6.395  19.457   8.308
   39POPC   C3B 5997   6.518  19.681   7.912
   39POPC   C4B 5998   6.204  19.846   7.573
   40POPC   NC3 5999  35.291  44.023   9.525
   40POPC   PO4 6000  35.245  43.361   9.408
   40POPC   GL1 6001  35.227  43.726   9.091
   40POPC   GL2 6002  35.026  44.034   9.093
   40POPC   C1A 6003  35.505  43.932   8.778
   40POPC   D2A 6004  35.645  43.924   8.395
   40POPC   C3A 6005  35.352  43.769   8.104
   40POPC   C4A 6006  35.451  43.618   7.710
   40POPC   C1B 6007  35.015  43.929   8.646
   40POPC   C2B 6008  35.244  44.207   8.345
   40POPC   C3B 6009  35.181  44.224   7.909
   40POPC   C4B 6010  34.999  43.887   7.665
   41POPC   NC3 6011   1.180  30.100   9.696
   41POPC   PO4 6012   1.025  30.618   9.671
   41POPC   GL1 6013   1.137  30.356   9.243
   41POPC   GL2 6014   1.044  29.988   9.210
   41POPC   C1A 6015   1.166  30.217   8.771
   41POPC   D2A 6016   1.030  30.115   8.334
   41POPC   C3A 6017   1.310  30.027   7.970
   41POPC   C4A 6018   1.515  29.774   7.617
   41POPC   C1B 6019   1.144  29.705   8.848
   41POPC   C2B 6020   1.207  29.628   8.399
   41POPC   C3B 6021   1.135  29.548   7.936
   41POPC   C4B 6022   1.240  29.343   7.527
   42POPC   NC3 6023   9.224  26.284   9.444
   42POPC   PO4 6024   9.746  26.040   9.748
   42POPC   GL1 6025   9.775  25.964   9.259
   42POPC   GL2 6026   9.573  26.218   9.076
   42POPC   C1A 6027   9.952  26.015   8.821
   42POPC   D2A 6028   9.768  26.257   8.479
   42POPC   C3A 6029   9.980  26.161   8.105
   42POPC   C4A 6030   9.982  25.936   7.730
   42POPC   C1B 6031   9.283  26.286   8.726
   42POPC   C2B 6032   9.268  26.309   8.277
   42POPC   C3B 6033   9.512  26.191   7.908
   42POPC   C4B 6034   9.466  26.294   7.464
   43POPC   NC3 6035   8.016   1.659   9.406
   43POPC   PO4 6036   8.445   1.139   9.571
   43POPC   GL1 6037   8.175   1.193   9.228
   43POPC   GL2 6038   8.367   1.457   9.101
   43POPC   C1A 6039   8.097   1.115   8.793
   43POPC   D2A 6040   8.333   1.043   8.415
   43POPC   C3A 6041   8.092   1.051   8.035
   43POPC   C4A 6042   8.141   1.260   7.653
   43POPC   C1B 6043   8.367   1.541   8.678
   43POPC   C2B 6044   8.589   1.514   8.320
   43POPC   C3B 6045   8.496   1.558   7.882
   43POPC   C4B 6046   8.439   1.587   7.427
   44POPC   NC3 6047   6.071   9.532   9.555
   44POPC   PO4 6048   5.626   9.885   9.312
   44POPC   GL1 6049   5.917   9.790   9.011
   44POPC   GL2 6050   6.238   9.600   9.051
   44POPC   C1A 6051   5.832   9.835   8.593
   44POPC   D2A 6052   5.968   9.695   8.215
   44POPC   C3A 6053   5.851  10.012   7.967
   44POPC   C4A 6054   5.418   9.949   7.829
   44POPC   C1B 6055   6.064   9.400   8.685
   44POPC   C2B 6056   6.234   9.265   8.279
   44POPC   C3B 6057   6.136   9.391   7.837
   44POPC   C4B 6058   5.768   9.576   7.744
   45POPC   NC3 6059  36.333  31.608   9.538
   45POPC   PO4 6060  35.693  31.894   9.526
   45POPC   GL1 6061  35.941  31.640   9.197
   45POPC   GL2 6062  35.931  31.286   9.199
   45POPC   C1A 6063  36.335  31.735   8.891
   45POPC   D2A 6064  36.246  31.767   8.445
   45POPC   C3A 6065  36.287  31.470   8.096
   45POPC   C4A 6066  36.158  31.624   7.710
   45POPC   C1B 6067  36.040  31.363   8.771
   45POPC   C2B 6068  35.843  31.448   8.383
   45POPC   C3B 6069  35.777  31.372   7.961
   45POPC   C4B 6070  35.782  31.336   7.519
   46POPC   NC3 6071  28.192  38.536   9.412
   46POPC   PO4 6072  28.243  39.119   9.568
   46POPC   GL1 6073  28.099  39.160   9.142
   46POPC   GL2 6074  28.061  39.527   9.023
   46POPC   C1A 6075  28.014  39.146   8.686
   46POPC   D2A 6076  28.131  39.395   8.317
   46POPC   C3A 6077  27.949  39.279   7.912
   46POPC   C4A 6078  28.042  39.343   7.472
   46POPC   C1B 6079  28.453  39.370   8.852
   46POPC   C2B 6080  28.533  39.088   8.520
   46POPC   C3B 6081  28.550  39.162   8.085
   46POPC   C4B 6082  28.405  39.069   7.689
   47POPC   NC3 6083  27.753  42.311   9.477
   47POPC   PO4 6084  27.229  41.888   9.242
   47POPC   GL1 6085  27.477  42.233   9.047
   47POPC   GL2 6086  27.840  42.201   9.008
   47POPC   C1A 6087  27.509  42.221   8.603
   47POPC   D2A 6088  27.551  41.907   8.321
   47POPC   C3A 6089  27.370  42.069   7.941
   47POPC   C4A 6090  27.643  42.311   7.682
   47POPC   C1B 6091  28.016  42.261   8.654
   47POPC   C2B 6092  27.942  42.265   8.222
   47POPC   C3B 6093  27.942  42.620   7.960
   47POPC   C4B 6094  27.884  42.765   7.543
   48POPC   NC3 6095  12.675   4.302   9.426
   48POPC   PO4 6096  13.343   4.440   9.582
   48POPC   GL1 6097  13.087   4.349   9.148
   48POPC   GL2 6098  12.888   4.634   9.083
   48POPC   C1A 6099  13.120   4.167   8.720
   48POPC   D2A 6100  13.182   4.317   8.269
   48POPC   C3A 6101  13.167   4.026   7.926
   48POPC   C4A 6102  12.936   3.986   7.548
   48POPC   C1B 6103  12.911   4.617   8.629
   48POPC   C2B 6104  12.623   4.346   8.379
   48POPC   C3B 6105  12.683   4.267   7.942
   48POPC   C4B 6106  13.018   4.521   7.750
   49POPC   NC3 6107  12.994  17.041   9.412
   49POPC   PO4 6108  12.617  17.646   9.393
   49POPC   GL1 6109  12.949  17.510   9.130
   49POPC   GL2 6110  13.197  17.771   9.128
   49POPC   C1A 6111  12.939  17.409   8.683
   49POPC   D2A 6112  13.109  17.215   8.305
   49POPC   C3A 6113  12.932  17.418   7.989
   49POPC   C4A 6114  12.629  17.336   7.663
   49POPC   C1B 6115  12.890  17.914   8.797
   49POPC   C2B 6116  12.731  17.903   8.396
   49POPC   C3B 6117  12.646  17.884   7.969
   49POPC   C4B 6118  12.928  17.772   7.646
   50POPC   NC3 6119  10.288  11.107   9.481
   50POPC   PO4 6120  10.842  11.464   9.544
   50POPC   GL1 6121  10.593  11.328   9.151
   50POPC   GL2 6122  10.619  10.977   9.099
   50POPC   C1A 6123  10.364  11.569   8.815
   50POPC   D2A 6124  10.293  11.826   8.442
   50POPC   C3A 6125  10.470  11.678   8.051
   50POPC   C4A 6126  10.397  11.368   7.735
   50POPC   C1B 6127  10.500  11.096   8.689
   50POPC   C2B 6128  10.657  11.314   8.362
   50POPC   C3B 6129  10.836  11.224   7.956
   50POPC   C4B 6130  10.813  11.165   7.498
   51POPC   NC3 6131  31.159  42.176   9.459
   51POPC   PO4 6132  30.824  42.737   9.460
   51POPC   GL1 6133  30.683  42.459   9.058
   51POPC   GL2 6134  30.468  42.130   9.071
   51POPC   C1A 6135  30.425  42.438   8.666
   51POPC   D2A 6136  30.626  42.314   8.305
   51POPC   C3A 6137  30.459  42.414   7.934
   51POPC   C4A 6138  30.826  42.428   7.744
   51POPC   C1B 6139  30.768  42.051   8.728
   51POPC   C2B 6140  30.866  41.865   8.331
   51POPC   C3B 6141  30.693  41.959   7.913
   51POPC   C4B 6142  30.766  42.025   7.453
   52POPC   NC3 6143  21.674  16.921   9.456
   52POPC   PO4 6144  22.153  16.600   9.746
   52POPC   GL1 6145  22.131  16.714   9.289
   52POPC   GL2 6146  22.375  16.977   9.172
   52POPC   C1A 6147  21.946  16.732   8.855
   52POPC   D2A 6148  21.886  16.970   8.461
   52POPC   C3A 6149  21.955  16.771   8.042
   52POPC   C4A 6150  22.001  16.660   7.578
   52POPC   C1B 6151  22.449  16.630   8.862
   52POPC   C2B 6152  22.244  16.532   8.449
   52POPC   C3B 6153  22.386  16.513   8.008
   52POPC   C4B 6154  22.503  16.645   7.622
   53POPC   NC3 6155  27.005  42.827   9.683
   53POPC   PO4 6156  26.394  43.071   9.541
   53POPC   GL1 6157  26.706  42.914   9.211
   53POPC   GL2 6158  27.086  42.908   9.188
   53POPC   C1A 6159  26.808  42.892   8.753
   53POPC   D2A 6160  26.589  42.965   8.392
   53POPC   C3A 6161  26.691  42.953   7.957
   53POPC   C4A 6162  26.717  43.318   7.704
   53POPC   C1B 6163  27.277  43.099   8.796
   53POPC   C2B 6164  27.168  43.074   8.351
   53POPC   C3B 6165  27.179  43.181   7.916
   53POPC   C4B 6166  27.037  42.951   7.557
   54POPC   NC3 6167   9.399   9.466   9.463
   54POPC   PO4 6168   9.927   8.997   9.489
   54POPC   GL1 6169   9.780   8.932   9.077
   54POPC   GL2 6170   9.604   9.180   9.079
   54POPC   C1A 6171   9.652   8.871   8.685
   54POPC   D2A 6172   9.865   8.947   8.331
   54POPC   C3A 6173   9.662   8.847   7.991
   54POPC   C4A 6174   9.822   8.677   7.603
   54POPC   C1B 6175   9.532   9.397   8.704
   54POPC   C2B 6176   9.449   9.299   8.296
   54POPC   C3B 6177   9.325   9.326   7.888
   54POPC   C4B 6178   9.547   9.109   7.589
   55POPC   NC3 6179  37.969  20.472   9.628
   55POPC   PO4 6180  38.611  20.365   9.643
   55POPC   GL1 6181  38.506  20.561   9.281
   55POPC   GL2 6182  38.200  20.432   9.169
   55POPC   C1A 6183  38.610  20.461   8.855
   55POPC   D2A 6184  38.374  20.523   8.488
   55POPC   C3A 6185  38.589  20.489   8.123
   55POPC   C4A 6186  38.475  20.704   7.750
   55POPC   C1B 6187  38.139  20.179   8.800
   55POPC   C2B 6188  37.903  20.340   8.423
   55POPC   C3B 6189  38.061  20.454   8.011
   55POPC   C4B 6190  38.225  20.239   7.650
   56POPC   NC3 6191   8.660  36.013   9.657
   56POPC   PO4 6192   9.289  36.295   9.608
   56POPC   GL1 6193   9.045  36.330   9.196
   56POPC   GL2 6194   8.695  36.433   9.276
   56POPC   C1A 6195   9.233  36.481   8.793
   56POPC   D2A 6196   9.133  36.568   8.348
   56POPC   C3A 6197   9.006  36.185   8.144
   56POPC   C4A 6198   8.967  35.855   7.823
   56POPC   C1B 6199   8.586  36.182   8.918
   56POPC   C2B 6200   8.564  36.214   8.469
   56POPC   C3B 6201   8.523  36.045   8.046
   56POPC   C4B 6202   8.553  36.094   7.623
   57POPC   NC3 6203  44.700   7.877   9.454
   57POPC   PO4 6204  44.298   8.401   9.444
   57POPC   GL1 6205  44.457   8.209   9.085
   57POPC   GL2 6206  44.400   7.843   9.069
   57POPC   C1A 6207  44.741   8.352   8.745
   57POPC   D2A 6208  44.866   8.152   8.332
   57POPC   C3A 6209  44.821   8.362   7.929
   57POPC   C4A 6210  44.872   8.384   7.468
   57POPC   C1B 6211  44.551   7.874   8.685
   57POPC   C2B 6212  44.380   7.986   8.305
   57POPC   C3B 6213  44.587   7.911   7.937
   57POPC   C4B 6214  44.985   7.876   7.728
   58POPC   NC3 6215  42.629  14.828   9.181
   58POPC   PO4 6216  42.496  15.345   9.540
   58POPC   GL1 6217  42.174  15.135   9.233
   58POPC   GL2 6218  42.360  15.204   8.947
   58POPC   C1A 6219  41.993  14.918   8.810
   58POPC   D2A 6220  42.103  15.206   8.455
   58POPC   C3A 6221  42.272  15.038   8.089
   58POPC   C4A 6222  42.332  15.012   7.656
   58POPC   C1B 6223  42.567  15.406   8.602
   58POPC   C2B 6224  42.635  15.399   8.168
   58POPC   C3B 6225  42.607  15.724   7.857
   58POPC   C4B 6226  42.644  15.735   7.410
   59POPC   NC3 6227  16.157  22.747   9.357
   59POPC   PO4 6228  15.878  23.269   9.764
   59POPC   GL1 6229  15.935  23.244   9.284
   59POPC   GL2 6230  16.211  23.310   9.190
   59POPC   C1A 6231  15.816  23.096   8.821
   59POPC   D2A 6232  15.991  22.897   8.446
   59POPC   C3A 6233  15.725  22.983   8.057
   59POPC   C4A 6234  15.782  23.219   7.698
   59POPC   C1B 6235  16.303  23.230   8.774
   59POPC   C2B 6236  16.353  23.396   8.394
   59POPC   C3B 6237  16.212  23.178   8.038
   59POPC   C4B 6238  16.453  23.024   7.713
   60POPC   NC3 6239  40.922  15.173   9.352
   60POPC   PO4 6240  40.735  15.715   9.706
   60POPC   GL1 6241  40.589  15.568   9.195
   60POPC   GL2 6242  40.577  15.190   9.005
   60POPC   C1A 6243  40.770  15.534   8.726
   60POPC   D2A 6244  40.584  15.181   8.467
   60POPC   C3A 6245  40.673  15.227   8.036
   60POPC   C4A 6246  40.888  15.563   7.818
   60POPC   C1B 6247  40.971  15.008   8.746
   60POPC   C2B 6248  41.066  14.849   8.329
   60POPC   C3B 6249  40.919  14.792   7.898
   60POPC   C4B 6250  40.976  14.616   7.507
   61POPC   NC3 6251  13.950  36.738   9.911
   61POPC   PO4 6252  13.416  36.938   9.522
   61POPC   GL1 6253  13.579  37.017   9.116
   61POPC   GL2 6254  13.823  36.759   9.067
   61POPC   C1A 6255  13.417  37.110   8.692
   61POPC   D2A 6256  13.451  36.886   8.290
   61POPC   C3A 6257  13.243  36.961   7.923
   61POPC   C4A 6258  13.224  36.854   7.476
   61POPC   C1B 6259  13.850  36.834   8.605
   61POPC   C2B 6260  13.925  36.819   8.126
   61POPC   C3B 6261  13.707  36.766   7.738
   61POPC   C4B 6262  13.749  36.530   7.339
   62POPC   NC3 6263  41.387  10.270   9.608
   62POPC   PO4 6264  42.006  10.362   9.519
   62POPC   GL1 6265  41.703  10.552   9.231
   62POPC   GL2 6266  41.407  10.744   9.319
   62POPC   C1A 6267  41.643  10.427   8.805
   62POPC   D2A 6268  41.610  10.668   8.447
   62POPC   C3A 6269  41.560  10.485   8.060
   62POPC   C4A 6270  41.765  10.431   7.704
   62POPC   C1B 6271  41.459  10.920   8.885
   62POPC   C2B 6272  41.183  10.979   8.484
   62POPC   C3B 6273  41.030  10.903   8.043
   62POPC   C4B 6274  41.284  10.711   7.704
   63POPC   NC3 6275  38.706  34.033   9.596
   63POPC   PO4 6276  38.060  33.815   9.551
   63POPC   GL1 6277  38.244  33.740   9.164
   63POPC   GL2 6278  38.490  33.989   9.154
   63POPC   C1A 6279  38.226  33.905   8.719
   63POPC   D2A 6280  38.194  33.825   8.295
   63POPC   C3A 6281  38.160  33.725   7.889
   63POPC   C4A 6282  38.534  33.604   7.668
   63POPC   C1B 6283  38.655  33.702   8.859
   63POPC   C2B 6284  38.720  33.803   8.413
   63POPC   C3B 6285  38.615  33.987   8.014
   63POPC   C4B 6286  38.289  34.194   7.743
   64POPC   NC3 6287  39.088  32.135   9.478
   64POPC   PO4 6288  39.725  32.194   9.273
   64POPC   GL1 6289  39.417  32.028   9.043
   64POPC   GL2 6290  39.282  32.355   9.046
   64POPC   C1A 6291  39.389  32.115   8.596
   64POPC   D2A 6292  39.522  32.437   8.324
   64POPC   C3A 6293  39.538  32.333   7.910
   64POPC   C4A 6294  39.308  32.488   7.606
   64POPC   C1B 6295  38.939  32.066   8.877
   64POPC   C2B 6296  38.905  31.957   8.467
   64POPC   C3B 6297  39.072  32.187   8.129
   64POPC   C4B 6298  38.980  32.123   7.709
   65POPC   NC3 6299  12.071   8.395   9.564
   65POPC   PO4 6300  12.455   7.968   9.190
   65POPC   GL1 6301  12.067   8.165   9.015
   65POPC   GL2 6302  11.931   8.513   9.108
   65POPC   C1A 6303  12.012   8.088   8.562
   65POPC   D2A 6304  12.307   8.244   8.223
   65POPC   C3A 6305  12.197   8.169   7.786
   65POPC   C4A 6306  11.876   7.962   7.582
   65POPC   C1B 6307  11.820   8.693   8.762
   65POPC   C2B 6308  11.931   8.555   8.370
   65POPC   C3B 6309  12.050   8.628   7.966
   65POPC   C4B 6310  11.945   8.547   7.514
   66POPC   NC3 6311  27.058  30.915   9.541
   66POPC   PO4 6312  26.643  30.351   9.438
   66POPC   GL1 6313  26.780  30.680   9.149
   66POPC   GL2 6314  27.085  30.597   9.074
   66POPC   C1A 6315  26.823  30.779   8.681
   66POPC   D2A 6316  26.727  30.384   8.445
   66POPC   C3A 6317  26.667  30.443   8.001
   66POPC   C4A 6318  26.808  30.813   7.782
   66POPC   C1B 6319  27.282  30.552   8.666
   66POPC   C2B 6320  27.148  30.558   8.238
   66POPC   C3B 6321  27.156  30.449   7.820
   66POPC   C4B 6322  27.180  30.618   7.440
   67POPC   NC3 6323  12.315  27.265   9.426
   67POPC   PO4 6324  11.774  27.491   9.368
   67POPC   GL1 6325  12.126  27.593   9.083
   67POPC   GL2 6326  12.195  27.289   8.934
   67POPC   C1A 6327  12.119  27.708   8.638
   67POPC   D2A 6328  12.181  27.494   8.270
   67POPC   C3A 6329  12.150  27.665   7.851
   67POPC   C4A 6330  11.903  27.694   7.464
   67POPC   C1B 6331  12.574  27.118   8.786
   67POPC   C2B 6332  12.617  27.238   8.380
   67POPC   C3B 6333  12.427  27.185   7.960
   67POPC   C4B 6334  12.732  27.236   7.615
   68POPC   NC3 6335  44.646  15.840   9.630
   68POPC   PO4 6336  44.079  15.663   9.376
   68POPC   GL1 6337  44.386  15.673   9.026
   68POPC   GL2 6338  44.692  15.562   9.136
   68POPC   C1A 6339  44.458  15.758   8.550
   68POPC   D2A 6340  44.147  15.789   8.184
   68POPC   C3A 6341  44.269  15.818   7.740
   68POPC   C4A 6342  44.611  16.093   7.524
   68POPC   C1B 6343  44.925  15.714   8.812
   68POPC   C2B 6344  44.961  15.877   8.397
   68POPC   C3B 6345  44.690  15.827   8.043
   68POPC   C4B 6346  44.736  15.628   7.650
   69POPC   NC3 6347  32.947  19.462   9.211
   69POPC   PO4 6348  33.191  20.055   9.459
   69POPC   GL1 6349  32.979  19.990   9.073
   69POPC   GL2 6350  32.735  20.221   9.085
   69POPC   C1A 6351  32.930  19.809   8.625
   69POPC   D2A 6352  32.937  19.628   8.175
   69POPC   C3A 6353  33.237  19.805   7.836
   69POPC   C4A 6354  33.164  19.774   7.379
   69POPC   C1B 6355  32.526  20.121   8.694
   69POPC   C2B 6356  32.622  20.047   8.241
   69POPC   C3B 6357  32.744  19.952   7.770
   69POPC   C4B 6358  32.832  20.156   7.345
   70POPC   NC3 6359   8.186   7.656   9.728
   70POPC   PO4 6360   8.358   7.008   9.494
   70POPC   GL1 6361   8.143   7.260   9.210
   70POPC   GL2 6362   8.064   7.635   9.246
   70POPC   C1A 6363   8.326   7.247   8.815
   70POPC   D2A 6364   8.350   7.052   8.429
   70POPC   C3A 6365   8.509   7.398   8.203
   70POPC   C4A 6366   8.404   7.363   7.797
   70POPC   C1B 6367   7.882   7.515   8.855
   70POPC   C2B 6368   8.027   7.457   8.441
   70POPC   C3B 6369   7.990   7.609   8.032
   70POPC   C4B 6370   7.963   7.474   7.594
   71POPC   NC3 6371  32.665   3.278   9.294
   71POPC   PO4 6372  33.158   3.726   9.465
   71POPC   GL1 6373  33.119   3.474   9.104
   71POPC   GL2 6374  32.829   3.639   8.964
   71POPC   C1A 6375  33.282   3.569   8.700
   71POPC   D2A 6376  33.294   3.841   8.341
   71POPC   C3A 6377  32.919   3.797   8.103
   71POPC   C4A 6378  32.678   3.978   7.797
   71POPC   C1B 6379  32.892   3.258   8.675
   71POPC   C2B 6380  33.090   3.316   8.271
   71POPC   C3B 6381  33.073   3.394   7.828
   71POPC   C4B 6382  32.723   3.519   7.590
   72POPC   NC3 6383  44.663  37.448   9.593
   72POPC   PO4 6384  44.522  38.130   9.543
   72POPC   GL1 6385  44.696  37.912   9.165
   72POPC   GL2 6386  44.806  37.540   9.118
   72POPC   C1A 6387  44.713  37.838   8.714
   72POPC   D2A 6388  44.864  37.517   8.410
   72POPC   C3A 6389  44.792  37.671   7.993
   72POPC   C4A 6390  44.932  38.028   7.768
   72POPC   C1B 6391  44.506  37.394   8.772
   72POPC   C2B 6392  44.369  37.574   8.375
   72POPC   C3B 6393  44.348  37.431   7.953
   72POPC   C4B 6394  44.394  37.759   7.632
   73POPC   NC3 6395  23.112   9.512   9.548
   73POPC   PO4 6396  22.577   9.807   9.418
   73POPC   GL1 6397  22.801   9.629   9.101
   73POPC   GL2 6398  23.101   9.817   9.144
   73POPC   C1A 6399  22.658   9.474   8.694
   73POPC   D2A 6400  22.913   9.471   8.304
   73POPC   C3A 6401  22.920   9.814   8.024
   73POPC   C4A 6402  22.649   9.857   7.688
   73POPC   C1B 6403  23.081   9.777   8.690
   73POPC   C2B 6404  23.258  10.011   8.357
   73POPC   C3B 6405  23.397  10.095   7.912
   73POPC   C4B 6406  23.326  10.078   7.434
   74POPC   NC3 6407  16.175  41.077   9.444
   74POPC   PO4 6408  15.517  40.870   9.727
   74POPC   GL1 6409  15.778  40.748   9.336
   74POPC   GL2 6410  15.525  40.606   9.177
   74POPC   C1A 6411  15.977  40.556   8.925
   74POPC   D2A 6412  16.085  40.774   8.508
   74POPC   C3A 6413  16.098  40.678   8.056
   74POPC   C4A 6414  16.237  41.016   7.782
   74POPC   C1B 6415  15.494  40.638   8.723
   74POPC   C2B 6416  15.528  40.892   8.358
   74POPC   C3B 6417  15.732  41.046   7.998
   74POPC   C4B 6418  15.776  40.784   7.663
   75POPC   NC3 6419   8.540   6.501   9.571
   75POPC   PO4 6420   9.183   6.839   9.485
   75POPC   GL1 6421   8.950   6.539   9.253
   75POPC   GL2 6422   9.162   6.311   9.318
   75POPC   C1A 6423   8.811   6.522   8.841
   75POPC   D2A 6424   8.807   6.863   8.578
   75POPC   C3A 6425   8.873   6.717   8.182
   75POPC   C4A 6426   8.867   6.711   7.760
   75POPC   C1B 6427   9.213   6.231   8.896
   75POPC   C2B 6428   9.066   6.192   8.462
   75POPC   C3B 6429   9.211   6.329   8.050
   75POPC   C4B 6430   9.211   6.192   7.633
   76POPC   NC3 6431  43.817  23.378   9.406
   76POPC   PO4 6432  44.264  23.846   9.497
   76POPC   GL1 6433  44.055  23.718   9.088
   76POPC   GL2 6434  44.168  23.382   9.017
   76POPC   C1A 6435  43.786  23.784   8.673
   76POPC   D2A 6436  43.596  23.555   8.302
   76POPC   C3A 6437  43.677  23.624   7.865
   76POPC   C4A 6438  43.398  23.859   7.595
   76POPC   C1B 6439  44.261  23.647   8.626
   76POPC   C2B 6440  44.046  23.770   8.221
   76POPC   C3B 6441  44.185  23.681   7.796
   76POPC   C4B 6442  44.214  23.761   7.343
   77POPC   NC3 6443  30.538  43.102   9.518
   77POPC   PO4 6444  31.080  43.317   9.759
   77POPC   GL1 6445  30.952  43.276   9.246
   77POPC   GL2 6446  30.755  42.983   9.045
   77POPC   C1A 6447  30.837  43.382   8.783
   77POPC   D2A 6448  30.921  43.183   8.384
   77POPC   C3A 6449  30.738  43.355   8.023
   77POPC   C4A 6450  30.679  43.683   7.684
   77POPC   C1B 6451  30.825  42.756   8.642
   77POPC   C2B 6452  30.542  42.823   8.268
   77POPC   C3B 6453  30.620  42.906   7.826
   77POPC   C4B 6454  30.719  42.793   7.404
   78POPC   NC3 6455  27.017   8.682   9.440
   78POPC   PO4 6456  26.546   9.110   9.274
   78POPC   GL1 6457  26.867   8.981   9.074
   78POPC   GL2 6458  27.174   9.091   9.158
   78POPC   C1A 6459  26.943   8.871   8.718
   78POPC   D2A 6460  26.720   9.128   8.465
   78POPC   C3A 6461  26.752   9.140   8.066
   78POPC   C4A 6462  26.754   9.000   7.670
   78POPC   C1B 6463  27.185   9.315   8.747
   78POPC   C2B 6464  27.258   9.124   8.369
   78POPC   C3B 6465  27.245   9.137   7.969
   78POPC   C4B 6466  27.055   9.447   7.769
   79POPC   NC3 6467   7.014  40.612   9.997
   79POPC   PO4 6468   7.450  40.825   9.521
   79POPC   GL1 6469   7.546  40.725   9.112
   79POPC   GL2 6470   7.344  41.001   9.000
   79POPC   C1A 6471   7.538  40.715   8.638
   79POPC   D2A 6472   7.456  40.773   8.196
   79POPC   C3A 6473   7.784  40.931   7.935
   79POPC   C4A 6474   7.688  41.196   7.577
   79POPC   C1B 6475   7.042  40.861   8.662
   79POPC   C2B 6476   6.820  40.912   8.282
   79POPC   C3B 6477   7.013  40.977   7.904
   79POPC   C4B 6478   7.341  40.820   7.677
   80POPC   NC3 6479   7.807  37.900   9.775
   80POPC   PO4 6480   8.409  37.722   9.654
   80POPC   GL1 6481   8.353  37.697   9.206
   80POPC   GL2 6482   8.477  37.357   9.175
   80POPC   C1A 6483   8.175  37.849   8.801
   80POPC   D2A 6484   8.269  38.104   8.451
   80POPC   C3A 6485   8.161  37.894   8.038
   80POPC   C4A 6486   8.191  38.112   7.658
   80POPC   C1B 6487   8.208  37.343   8.793
   80POPC   C2B 6488   7.972  37.503   8.439
   80POPC   C3B 6489   7.999  37.344   8.034
   80POPC   C4B 6490   8.300  37.393   7.716
   81POPC   NC3 6491   0.555  37.240   9.512
   81POPC   PO4 6492   0.711  36.592   9.534
   81POPC   GL1 6493   0.437  36.796   9.201
   81POPC   GL2 6494   0.383  37.154   9.052
   81POPC   C1A 6495   0.253  36.720   8.797
   81POPC   D2A 6496   0.465  36.636   8.393
   81POPC   C3A 6497   0.551  36.930   8.092
   81POPC   C4A 6498   0.323  37.075   7.746
   81POPC   C1B 6499   0.605  37.052   8.658
   81POPC   C2B 6500   0.869  37.232   8.375
   81POPC   C3B 6501   0.719  37.407   7.988
   81POPC   C4B 6502   0.649  37.374   7.524
   82POPC   NC3 6503  10.731  29.116   9.591
   82POPC   PO4 6504  10.307  28.626   9.403
   82POPC   GL1 6505  10.492  28.995   9.160
   82POPC   GL2 6506  10.415  29.342   9.086
   82POPC   C1A 6507  10.764  29.048   8.796
   82POPC   D2A 6508  10.698  28.830   8.393
   82POPC   C3A 6509  10.686  29.024   7.990
   82POPC   C4A 6510  11.059  29.130   7.715
   82POPC   C1B 6511  10.530  29.482   8.650
   82POPC   C2B 6512  10.469  29.464   8.188
   82POPC   C3B 6513  10.765  29.551   7.842
   82POPC   C4B 6514  10.930  29.535   7.384
   83POPC   NC3 6515  22.402  37.467   9.631
   83POPC   PO4 6516  22.430  38.173   9.585
   83POPC   GL1 6517  22.276  37.925   9.225
   83POPC   GL2 6518  22.124  37.604   9.224
   83POPC   C1A 6519  22.096  37.881   8.797
   83POPC   D2A 6520  21.973  37.710   8.386
   83POPC   C3A 6521  22.118  37.965   8.046
   83POPC   C4A 6522  22.288  37.840   7.683
   83POPC   C1B 6523  22.376  37.457   8.876
   83POPC   C2B 6524  22.324  37.319   8.460
   83POPC   C3B 6525  22.385  37.497   8.078
   83POPC   C4B 6526  22.188  37.323   7.730
   84POPC   NC3 6527  24.317   7.165   9.513
   84POPC   PO4 6528  24.768   7.661   9.424
   84POPC   GL1 6529  24.504   7.442   9.127
   84POPC   GL2 6530  24.334   7.751   9.104
   84POPC   C1A 6531  24.410   7.154   8.768
   84POPC   D2A 6532  24.541   7.323   8.370
   84POPC   C3A 6533  24.439   7.181   8.011
   84POPC   C4A 6534  24.562   7.065   7.601
   84POPC   C1B 6535  24.269   7.647   8.692
   84POPC   C2B 6536  24.342   7.798   8.298
   84POPC   C3B 6537  24.422   7.676   7.912
   84POPC   C4B 6538  24.065   7.441   7.806
   85POPC   NC3 6539  26.569  29.241   9.617
   85POPC   PO4 6540  27.193  29.524   9.627
   85POPC   GL1 6541  26.998  29.240   9.340
   85POPC   GL2 6542  26.859  29.520   9.187
   85POPC   C1A 6543  26.910  29.085   8.910
   85POPC   D2A 6544  27.022  29.193   8.472
   85POPC   C3A 6545  26.819  29.008   8.137
   85POPC   C4A 6546  26.806  29.128   7.741
   85POPC   C1B 6547  26.667  29.509   8.781
   85POPC   C2B 6548  26.587  29.450   8.354
   85POPC   C3B 6549  26.861  29.544   8.027
   85POPC   C4B 6550  27.215  29.663   7.805
   86POPC   NC3 6551  15.437  41.692   9.365
   86POPC   PO4 6552  16.018  41.469   9.685
   86POPC   GL1 6553  16.155  41.591   9.229
   86POPC   GL2 6554  15.876  41.779   9.133
   86POPC   C1A 6555  16.188  41.688   8.750
   86POPC   D2A 6556  16.234  41.405   8.362
   86POPC   C3A 6557  16.247  41.555   7.921
   86POPC   C4A 6558  16.285  41.418   7.463
   86POPC   C1B 6559  15.610  41.636   8.745
   86POPC   C2B 6560  15.610  41.405   8.353
   86POPC   C3B 6561  15.562  41.552   7.924
   86POPC   C4B 6562  15.869  41.719   7.626
   87POPC   NC3 6563  44.984  14.658   9.510
   87POPC   PO4 6564  44.572  14.042   9.432
   87POPC   GL1 6565  44.777  14.293   9.183
   87POPC   GL2 6566  44.572  14.578   9.126
   87POPC   C1A 6567  44.880  14.421   8.768
   87POPC   D2A 6568  44.589  14.440   8.424
   87POPC   C3A 6569  44.778  14.530   8.023
   87POPC   C4A 6570   0.065  14.418   7.694
   87POPC   C1B 6571  44.341  14.267   8.842
   87POPC   C2B 6572  44.309  14.015   8.473
   87POPC   C3B 6573  44.499  14.059   8.080
   87POPC   C4B 6574  44.620  14.163   7.673
   88POPC   NC3 6575  11.084  25.734   9.410
   88POPC   PO4 6576  11.361  26.282   9.546
   88POPC   GL1 6577  11.244  26.129   9.150
   88POPC   GL2 6578  11.502  25.941   9.092
   88POPC   C1A 6579  11.079  25.836   8.780
   88POPC   D2A 6580  10.884  25.786   8.362
   88POPC   C3A 6581  10.981  26.144   8.081
   88POPC   C4A 6582  10.832  26.094   7.650
   88POPC   C1B 6583  11.475  26.147   8.705
   88POPC   C2B 6584  11.393  25.919   8.338
   88POPC   C3B 6585  11.319  25.810   7.928
   88POPC   C4B 6586  11.371  26.177   7.717
   89POPC   NC3 6587  26.388  31.656   9.910
   89POPC   PO4 6588  25.803  31.735   9.564
   89POPC   GL1 6589  25.990  31.700   9.154
   89POPC   GL2 6590  26.119  31.337   9.134
   89POPC   C1A 6591  25.812  31.892   8.774
   89POPC   D2A 6592  25.646  31.710   8.421
   89POPC   C3A 6593  25.671  31.780   7.993
   89POPC   C4A 6594  25.912  31.504   7.745
   89POPC   C1B 6595  26.039  31.427   8.683
   89POPC   C2B 6596  26.031  31.389   8.234
   89POPC   C3B 6597  26.356  31.424   7.949
   89POPC   C4B 6598  26.317  31.184   7.565
   90POPC   NC3 6599  35.719  18.968   9.501
   90POPC   PO4 6600  35.105  19.144   9.494
   90POPC   GL1 6601  35.249  19.073   9.080
   90POPC   GL2 6602  35.603  19.158   9.056
   90POPC   C1A 6603  35.252  18.909   8.658
   90POPC   D2A 6604  34.963  18.797   8.308
   90POPC   C3A 6605  35.222  18.938   7.992
   90POPC   C4A 6606  35.544  18.746   7.771
   90POPC   C1B 6607  35.466  19.408   8.718
   90POPC   C2B 6608  35.318  19.305   8.325
   90POPC   C3B 6609  35.283  19.451   7.913
   90POPC   C4B 6610  35.606  19.297   7.688
   91POPC   NC3 6611  15.125  10.427   9.414
   91POPC   PO4 6612  15.688  10.700   9.246
   91POPC   GL1 6613  15.307  10.653   8.981
   91POPC   GL2 6614  14.945  10.755   9.052
   91POPC   C1A 6615  15.192  10.299   8.690
   91POPC   D2A 6616  15.315  10.177   8.267
   91POPC   C3A 6617  15.309  10.496   7.932
   91POPC   C4A 6618  15.080  10.858   7.725
   91POPC   C1B 6619  14.792  10.594   8.700
   91POPC   C2B 6620  14.916  10.533   8.279
   91POPC   C3B 6621  14.797  10.476   7.869
   91POPC   C4B 6622  14.751  10.258   7.489
   92POPC   NC3 6623  37.313  25.541   9.351
   92POPC   PO4 6624  37.800  25.113   9.594
   92POPC   GL1 6625  37.684  25.217   9.220
   92POPC   GL2 6626  37.405  25.044   9.115
   92POPC   C1A 6627  37.800  25.278   8.829
   92POPC   D2A 6628  37.690  25.105   8.471
   92POPC   C3A 6629  37.819  25.286   8.101
   92POPC   C4A 6630  37.449  25.280   7.909
   92POPC   C1B 6631  37.313  24.775   8.739
   92POPC   C2B 6632  37.217  24.768   8.265
   92POPC   C3B 6633  37.273  24.815   7.780
   92POPC   C4B 6634  37.213  24.774   7.278
   93POPC   NC3 6635  39.526  11.294   9.515
   93POPC   PO4 6636  38.853  11.564   9.506
   93POPC   GL1 6637  39.039  11.403   9.109
   93POPC   GL2 6638  39.355  11.548   9.118
   93POPC   C1A 6639  39.203  11.361   8.666
   93POPC   D2A 6640  39.213  11.139   8.261
   93POPC   C3A 6641  39.197  11.284   7.856
   93POPC   C4A 6642  39.208  11.088   7.442
   93POPC   C1B 6643  39.499  11.785   8.765
   93POPC   C2B 6644  39.538  11.590   8.355
   93POPC   C3B 6645  39.571  11.627   7.929
   93POPC   C4B 6646  39.483  11.532   7.496
   94POPC   NC3 6647  30.412  20.670   9.454
   94POPC   PO4 6648  31.086  20.762   9.577
   94POPC   GL1 6649  30.831  20.588   9.195
   94POPC   GL2 6650  30.992  20.281   9.128
   94POPC   C1A 6651  30.563  20.665   8.801
   94POPC   D2A 6652  30.342  20.602   8.411
   94POPC   C3A 6653  30.539  20.484   8.026
   94POPC   C4A 6654  30.578  20.656   7.624
   94POPC   C1B 6655  31.026  20.490   8.723
   94POPC   C2B 6656  30.982  20.649   8.305
   94POPC   C3B 6657  31.025  20.613   7.863
   94POPC   C4B 6658  30.989  20.353   7.511
   95POPC   NC3 6659  18.691  30.475   9.271
   95POPC   PO4 6660  18.891  30.984   9.593
   95POPC   GL1 6661  19.070  30.824   9.144
   95POPC   GL2 6662  19.172  30.475   9.016
   95POPC   C1A 6663  18.878  30.785   8.696
   95POPC   D2A 6664  18.573  30.511   8.419
   95POPC   C3A 6665  18.636  30.564   7.969
   95POPC   C4A 6666  18.949  30.883   7.883
   95POPC   C1B 6667  19.071  30.323   8.601
   95POPC   C2B 6668  19.113  30.540   8.235
   95POPC   C3B 6669  19.338  30.526   7.854
   95POPC   C4B 6670  19.414  30.210   7.586
   96POPC   NC3 6671  14.147  40.797   9.463
   96POPC   PO4 6672  14.210  40.127   9.711
   96POPC   GL1 6673  14.339  40.341   9.323
   96POPC   GL2 6674  14.630  40.566   9.243
   96POPC   C1A 6675  14.278  40.468   8.881
   96POPC   D2A 6676  14.098  40.418   8.497
   96POPC   C3A 6677  14.158  40.698   8.151
   96POPC   C4A 6678  14.340  40.781   7.740
   96POPC   C1B 6679  14.570  40.900   8.870
   96POPC   C2B 6680  14.301  41.045   8.531
   96POPC   C3B 6681  14.491  41.091   8.138
   96POPC   C4B 6682  14.784  41.087   7.797
   97POPC   NC3 6683  10.405  41.206   9.535
   97POPC   PO4 6684  10.877  41.633   9.439
   97POPC   GL1 6685  10.588  41.673   9.102
   97POPC   GL2 6686  10.255  41.581   9.181
   97POPC   C1A 6687  10.684  41.794   8.680
   97POPC   D2A 6688  10.886  41.615   8.331
   97POPC   C3A 6689  10.715  41.614   7.939
   97POPC   C4A 6690  10.664  41.227   7.756
   97POPC   C1B 6691  10.169  41.699   8.749
   97POPC   C2B 6692  10.299  41.712   8.301
   97POPC   C3B 6693  10.235  41.466   7.905
   97POPC   C4B 6694  10.282  41.445   7.446
   98POPC   NC3 6695  18.782  25.071   9.569
   98POPC   PO4 6696  19.325  25.441   9.520
   98POPC   GL1 6697  19.210  25.262   9.144
   98POPC   GL2 6698  18.841  25.218   9.096
   98POPC   C1A 6699  19.111  25.465   8.750
   98POPC   D2A 6700  18.813  25.494   8.427
   98POPC   C3A 6701  18.962  25.383   7.994
   98POPC   C4A 6702  18.892  25.416   7.525
   98POPC   C1B 6703  19.009  24.936   8.816
   98POPC   C2B 6704  19.144  25.061   8.437
   98POPC   C3B 6705  19.126  24.881   8.047
   98POPC   C4B 6706  19.180  25.017   7.671
   99POPC   NC3 6707  26.619  38.169   9.473
   99POPC   PO4 6708  27.059  38.669   9.480
   99POPC   GL1 6709  26.775  38.522   9.112
   99POPC   GL2 6710  26.425  38.659   9.153
   99POPC   C1A 6711  26.871  38.402   8.657
   99POPC   D2A 6712  26.994  38.515   8.234
   99POPC   C3A 6713  26.788  38.325   7.915
   99POPC   C4A 6714  26.900  38.126   7.544
   99POPC   C1B 6715  26.368  38.460   8.741
   99POPC   C2B 6716  26.480  38.536   8.296
   99POPC   C3B 6717  26.365  38.589   7.859
   99POPC   C4B 6718  26.634  38.576   7.469
  100POPC   NC3 6719  18.987  33.709   9.426
  100POPC   PO4 6720  19.404  34.211   9.394
  100POPC   GL1 6721  19.232  34.140   9.005
  100POPC   GL2 6722  19.043  33.842   8.932
  100POPC   C1A 6723  19.412  34.084   8.632
  100POPC   D2A 6724  19.285  33.786   8.342
  100POPC   C3A 6725  18.985  33.968   8.059
  100POPC   C4A 6726  19.148  34.212   7.731
  100POPC   C1B 6727  18.612  33.650   8.825
  100POPC   C2B 6728  18.624  33.575   8.375
  100POPC   C3B 6729  18.951  33.450   8.146
  100POPC   C4B 6730  19.248  33.588   7.851
  101POPC   NC3 6731  32.469   0.184   9.834
  101POPC   PO4 6732  31.903   0.497   9.555
  101POPC   GL1 6733  32.165   0.455   9.190
  101POPC   GL2 6734  32.096   0.093   9.148
  101POPC   C1A 6735  32.391   0.532   8.790
  101POPC   D2A 6736  32.386   0.250   8.455
  101POPC   C3A 6737  32.488   0.417   8.063
  101POPC   C4A 6738  32.327   0.461   7.677
  101POPC   C1B 6739  31.952   0.199   8.740
  101POPC   C2B 6740  31.899   0.128   8.330
  101POPC   C3B 6741  32.128   0.034   8.009
  101POPC   C4B 6742  31.965   0.103   7.634
  102POPC   NC3 6743   9.080   9.938   9.726
  102POPC   PO4 6744   9.711   9.996   9.461
  102POPC   GL1 6745   9.724   9.691   9.124
  102POPC   GL2 6746  10.008   9.452   9.114
  102POPC   C1A 6747   9.772   9.849   8.717
  102POPC   D2A 6748   9.615   9.859   8.319
  102POPC   C3A 6749   9.981   9.907   8.076
  102POPC   C4A 6750  10.004  10.115   7.695
  102POPC   C1B 6751  10.026   9.239   8.735
  102POPC   C2B 6752   9.944   9.452   8.363
  102POPC   C3B 6753   9.823   9.424   7.942
  102POPC   C4B 6754  10.069   9.620   7.627
  103POPC   NC3 6755   6.530  34.400   9.551
  103POPC   PO4 6756   6.989  34.786   9.443
  103POPC   GL1 6757   6.662  34.620   9.089
  103POPC   GL2 6758   6.305  34.689   8.866
  103POPC   C1A 6759   6.752  34.774   8.664
  103POPC   D2A 6760   6.762  34.557   8.299
  103POPC   C3A 6761   6.897  34.786   7.935
  103POPC   C4A 6762   6.973  34.656   7.557
  103POPC   C1B 6763   6.326  34.372   8.587
  103POPC   C2B 6764   6.193  34.309   8.178
  103POPC   C3B 6765   6.461  34.520   7.888
  103POPC   C4B 6766   6.484  34.737   7.488
  104POPC   NC3 6767  38.817  35.528   9.352
  104POPC   PO4 6768  39.285  35.112   9.654
  104POPC   GL1 6769  39.326  35.420   9.281
  104POPC   GL2 6770  39.651  35.637   9.251
  104POPC   C1A 6771  39.456  35.319   8.858
  104POPC   D2A 6772  39.590  35.211   8.400
  104POPC   C3A 6773  39.244  35.222   8.087
  104POPC   C4A 6774  38.987  35.272   7.725
  104POPC   C1B 6775  39.626  35.852   8.842
  104POPC   C2B 6776  39.402  35.675   8.505
  104POPC   C3B 6777  39.498  35.670   8.123
  104POPC   C4B 6778  39.404  35.585   7.727
  105POPC   NC3 6779   3.022  16.941   9.511
  105POPC   PO4 6780   2.626  16.417   9.323
  105POPC   GL1 6781   2.775  16.727   9.057
  105POPC   GL2 6782   3.159  16.777   9.066
  105POPC   C1A 6783   2.598  16.711   8.639
  105POPC   D2A 6784   2.735  16.433   8.318
  105POPC   C3A 6785   2.538  16.533   7.969
  105POPC   C4A 6786   2.390  16.676   7.610
  105POPC   C1B 6787   3.072  16.892   8.663
  105POPC   C2B 6788   2.940  16.918   8.239
  105POPC   C3B 6789   3.004  16.720   7.844
  105POPC   C4B 6790   3.169  16.693   7.426
  106POPC   NC3 6791  18.097  11.910   9.553
  106POPC   PO4 6792  18.555  12.326   9.412
  106POPC   GL1 6793  18.378  11.969   9.141
  106POPC   GL2 6794  17.996  11.978   9.067
  106POPC   C1A 6795  18.348  11.743   8.775
  106POPC   D2A 6796  18.470  11.915   8.402
  106POPC   C3A 6797  18.348  11.827   8.006
  106POPC   C4A 6798  18.612  11.968   7.700
  106POPC   C1B 6799  18.146  12.205   8.693
  106POPC   C2B 6800  18.281  12.457   8.332
  106POPC   C3B 6801  18.284  12.344   7.905
  106POPC   C4B 6802  17.969  12.068   7.774
  107POPC   NC3 6803   0.126   7.217   9.514
  107POPC   PO4 6804  44.539   7.431   9.481
  107POPC   GL1 6805  44.775   7.448   9.137
  107POPC   GL2 6806  44.809   7.108   9.133
  107POPC   C1A 6807  44.853   7.430   8.706
  107POPC   D2A 6808  44.850   7.647   8.349
  107POPC   C3A 6809  44.839   7.446   8.000
  107POPC   C4A 6810  44.510   7.422   7.771
  107POPC   C1B 6811  44.619   6.988   8.773
  107POPC   C2B 6812  44.672   7.093   8.335
  107POPC   C3B 6813  44.519   6.952   7.956
  107POPC   C4B 6814  44.178   7.067   7.694
  108POPC   NC3 6815  33.720  43.203   9.620
  108POPC   PO4 6816  33.680  42.610   9.319
  108POPC   GL1 6817  33.878  42.965   9.089
  108POPC   GL2 6818  33.826  43.329   9.133
  108POPC   C1A 6819  33.779  42.951   8.660
  108POPC   D2A 6820  33.888  43.144   8.303
  108POPC   C3A 6821  33.778  42.945   7.949
  108POPC   C4A 6822  33.516  42.681   7.752
  108POPC   C1B 6823  33.687  43.453   8.744
  108POPC   C2B 6824  33.599  43.577   8.348
  108POPC   C3B 6825  33.726  43.478   7.960
  108POPC   C4B 6826  34.044  43.299   7.705
  109POPC   NC3 6827  13.933  13.024   9.293
  109POPC   PO4 6828  13.362  13.039   9.794
  109POPC   GL1 6829  13.514  12.739   9.243
  109POPC   GL2 6830  13.811  12.571   9.112
  109POPC   C1A 6831  13.513  12.918   8.752
  109POPC   D2A 6832  13.445  13.228   8.415
  109POPC   C3A 6833  13.355  13.028   8.027
  109POPC   C4A 6834  13.430  12.980   7.607
  109POPC   C1B 6835  13.619  12.434   8.745
  109POPC   C2B 6836  13.618  12.646   8.324
  109POPC   C3B 6837  13.778  12.756   7.922
  109POPC   C4B 6838  13.693  12.507   7.564
  110POPC   NC3 6839  36.141  23.916   9.683
  110POPC   PO4 6840  35.727  23.487   9.365
  110POPC   GL1 6841  35.967  23.761   9.102
  110POPC   GL2 6842  36.268  24.004   9.193
  110POPC   C1A 6843  35.954  23.686   8.668
  110POPC   D2A 6844  36.081  23.822   8.280
  110POPC   C3A 6845  36.048  23.504   7.996
  110POPC   C4A 6846  35.923  23.673   7.638
  110POPC   C1B 6847  36.405  23.907   8.767
  110POPC   C2B 6848  36.585  23.928   8.339
  110POPC   C3B 6849  36.495  23.756   7.924
  110POPC   C4B 6850  36.510  23.830   7.460
  111POPC   NC3 6851  20.655  41.206   9.475
  111POPC   PO4 6852  20.299  41.728   9.484
  111POPC   GL1 6853  20.438  41.655   9.125
  111POPC   GL2 6854  20.758  41.610   9.176
  111POPC   C1A 6855  20.602  41.860   8.758
  111POPC   D2A 6856  20.714  41.695   8.387
  111POPC   C3A 6857  20.441  41.523   8.109
  111POPC   C4A 6858  20.521  41.700   7.730
  111POPC   C1B 6859  20.779  41.367   8.804
  111POPC   C2B 6860  20.862  41.204   8.398
  111POPC   C3B 6861  20.916  41.389   7.988
  111POPC   C4B 6862  20.752  41.263   7.604
  112POPC   NC3 6863   3.318  33.114   9.443
  112POPC   PO4 6864   3.772  32.660   9.583
  112POPC   GL1 6865   3.683  32.864   9.188
  112POPC   GL2 6866   3.804  33.194   9.230
  112POPC   C1A 6867   3.493  32.876   8.787
  112POPC   D2A 6868   3.251  33.062   8.471
  112POPC   C3A 6869   3.409  32.980   8.054
  112POPC   C4A 6870   3.231  32.776   7.738
  112POPC   C1B 6871   3.764  33.307   8.787
  112POPC   C2B 6872   3.737  33.226   8.364
  112POPC   C3B 6873   3.928  33.142   7.969
  112POPC   C4B 6874   3.948  33.430   7.576
  113POPC   NC3 6875  10.163  12.056   9.584
  113POPC   PO4 6876   9.565  11.868   9.658
  113POPC   GL1 6877   9.785  11.919   9.246
  113POPC   GL2 6878   9.706  12.252   9.076
  113POPC   C1A 6879   9.892  11.778   8.807
  113POPC   D2A 6880   9.817  11.606   8.375
  113POPC   C3A 6881   9.845  11.934   8.069
  113POPC   C4A 6882   9.833  12.203   7.723
  113POPC   C1B 6883   9.822  12.260   8.610
  113POPC   C2B 6884   9.764  12.436   8.186
  113POPC   C3B 6885   9.459  12.531   7.833
  113POPC   C4B 6886   9.496  12.421   7.373
  114POPC   NC3 6887  18.370  42.656   9.519
  114POPC   PO4 6888  17.815  42.244   9.570
  114POPC   GL1 6889  18.089  42.289   9.180
  114POPC   GL2 6890  18.453  42.154   9.180
  114POPC   C1A 6891  18.100  42.475   8.750
  114POPC   D2A 6892  18.294  42.467   8.312
  114POPC   C3A 6893  18.277  42.154   7.976
  114POPC   C4A 6894  18.279  42.234   7.491
  114POPC   C1B 6895  18.533  42.214   8.711
  114POPC   C2B 6896  18.697  42.145   8.276
  114POPC   C3B 6897  18.625  41.786   7.941
  114POPC   C4B 6898  18.562  41.819   7.470
  115POPC   NC3 6899  23.372  23.574   9.810
  115POPC   PO4 6900  23.954  23.859   9.531
  115POPC   GL1 6901  23.864  23.649   9.183
  115POPC   GL2 6902  23.499  23.603   9.268
  115POPC   C1A 6903  23.715  23.540   8.778
  115POPC   D2A 6904  23.493  23.798   8.484
  115POPC   C3A 6905  23.693  23.704   8.156
  115POPC   C4A 6906  23.930  23.746   7.782
  115POPC   C1B 6907  23.244  23.408   8.902
  115POPC   C2B 6908  23.329  23.310   8.451
  115POPC   C3B 6909  23.309  23.391   8.023
  115POPC   C4B 6910  23.550  23.368   7.636
  116POPC   NC3 6911   3.275  38.712   9.584
  116POPC   PO4 6912   3.844  38.316   9.584
  116POPC   GL1 6913   3.782  38.316   9.150
  116POPC   GL2 6914   3.436  38.334   9.157
  116POPC   C1A 6915   3.701  38.275   8.685
  116POPC   D2A 6916   3.673  38.510   8.264
  116POPC   C3A 6917   3.800  38.380   7.828
  116POPC   C4A 6918   3.878  38.292   7.373
  116POPC   C1B 6919   3.203  38.458   8.768
  116POPC   C2B 6920   3.174  38.620   8.330
  116POPC   C3B 6921   3.283  38.469   7.906
  116POPC   C4B 6922   3.409  38.504   7.478
  117POPC   NC3 6923  43.645  36.224   9.561
  117POPC   PO4 6924  43.961  35.667   9.467
  117POPC   GL1 6925  43.930  35.876   9.065
  117POPC   GL2 6926  43.805  36.173   9.085
  117POPC   C1A 6927  43.735  35.848   8.685
  117POPC   D2A 6928  43.577  35.789   8.284
  117POPC   C3A 6929  43.791  35.969   7.930
  117POPC   C4A 6930  43.733  36.179   7.536
  117POPC   C1B 6931  43.882  36.351   8.695
  117POPC   C2B 6932  43.657  36.300   8.309
  117POPC   C3B 6933  43.746  36.511   7.926
  117POPC   C4B 6934  44.169  36.499   7.719
  118POPC   NC3 6935   3.408  31.339   9.529
  118POPC   PO4 6936   4.082  31.528   9.597
  118POPC   GL1 6937   3.862  31.360   9.234
  118POPC   GL2 6938   3.663  31.624   9.148
  118POPC   C1A 6939   3.698  31.264   8.796
  118POPC   D2A 6940   3.911  31.195   8.410
  118POPC   C3A 6941   3.868  31.370   7.999
  118POPC   C4A 6942   3.606  31.247   7.648
  118POPC   C1B 6943   3.584  31.757   8.756
  118POPC   C2B 6944   3.507  31.546   8.395
  118POPC   C3B 6945   3.531  31.745   8.066
  118POPC   C4B 6946   3.666  31.754   7.696
  119POPC   NC3 6947   9.655  28.781   9.284
  119POPC   PO4 6948  10.021  29.267   9.612
  119POPC   GL1 6949   9.962  29.137   9.130
  119POPC   GL2 6950  10.063  28.784   8.992
  119POPC   C1A 6951   9.759  29.035   8.691
  119POPC   D2A 6952   9.799  28.729   8.356
  119POPC   C3A 6953   9.542  28.829   8.012
  119POPC   C4A 6954   9.628  29.020   7.600
  119POPC   C1B 6955  10.269  29.023   8.694
  119POPC   C2B 6956  10.227  29.028   8.278
  119POPC   C3B 6957  10.040  29.174   7.928
  119POPC   C4B 6958  10.094  29.177   7.490
  120POPC   NC3 6959   7.706  43.639   9.261
  120POPC   PO4 6960   7.402  44.215   9.461
  120POPC   GL1 6961   7.418  44.039   9.101
  120POPC   GL2 6962   7.729  44.059   8.974
  120POPC   C1A 6963   7.350  44.229   8.719
  120POPC   D2A 6964   7.174  44.024   8.402
  120POPC   C3A 6965   7.410  44.074   8.106
  120POPC   C4A 6966   7.516  43.833   7.794
  120POPC   C1B 6967   7.598  43.800   8.629
  120POPC   C2B 6968   7.806  43.755   8.247
  120POPC   C3B 6969   7.921  43.535   7.866
  120POPC   C4B 6970   7.804  43.608   7.448
  121POPC   NC3 6971   9.519   3.911   9.865
  121POPC   PO4 6972   9.743   4.470   9.545
  121POPC   GL1 6973   9.886   4.350   9.157
  121POPC   GL2 6974   9.939   4.703   9.112
  121POPC   C1A 6975   9.751   4.166   8.759
  121POPC   D2A 6976   9.515   4.334   8.422
  121POPC   C3A 6977   9.659   4.140   8.053
  121POPC   C4A 6978   9.654   3.928   7.674
  121POPC   C1B 6979   9.629   4.706   8.781
  121POPC   C2B 6980   9.483   4.868   8.365
  121POPC   C3B 6981   9.428   4.622   7.989
  121POPC   C4B 6982   9.780   4.533   7.746
  122POPC   NC3 6983  11.732   1.330   9.734
  122POPC   PO4 6984  11.161   0.953   9.895
  122POPC   GL1 6985  11.269   1.095   9.475
  122POPC   GL2 6986  11.569   1.002   9.353
  122POPC   C1A 6987  11.158   1.205   9.033
  122POPC   D2A 6988  10.899   1.081   8.653
  122POPC   C3A 6989  11.029   1.138   8.229
  122POPC   C4A 6990  11.088   1.221   7.787
  122POPC   C1B 6991  11.651   1.101   8.924
  122POPC   C2B 6992  11.684   0.992   8.462
  122POPC   C3B 6993  11.706   1.170   8.033
  122POPC   C4B 6994  11.564   1.120   7.602
  123POPC   NC3 6995  36.528  33.975   9.325
  123POPC   PO4 6996  36.847  34.556   9.356
  123POPC   GL1 6997  36.950  34.529   8.991
  123POPC   GL2 6998  36.763  34.313   8.771
  123POPC   C1A 6999  37.132  34.722   8.687
  123POPC   D2A 7000  37.043  34.511   8.302
  123POPC   C3A 7001  37.108  34.834   7.997
  123POPC   C4A 7002  37.020  34.821   7.555
  123POPC   C1B 7003  36.637  34.713   8.545
  123POPC   C2B 7004  36.583  34.776   8.087
  123POPC   C3B 7005  36.443  34.466   7.766
  123POPC   C4B 7006  36.590  34.234   7.374
  124POPC   NC3 7007  17.246  43.905   9.860
  124POPC   PO4 7008  17.767  43.522   9.619
  124POPC   GL1 7009  17.610  43.677   9.211
  124POPC   GL2 7010  17.321  43.824   9.315
  124POPC   C1A 7011  17.522  44.001   8.864
  124POPC   D2A 7012  17.236  44.027   8.494
  124POPC   C3A 7013  17.368  43.928   8.047
  124POPC   C4A 7014  17.614  44.112   7.687
  124POPC   C1B 7015  17.217  43.588   8.889
  124POPC   C2B 7016  17.023  43.560   8.479
  124POPC   C3B 7017  16.939  43.579   8.046
  124POPC   C4B 7018  17.069  43.676   7.629
  125POPC   NC3 7019  43.287  32.200   9.696
  125POPC   PO4 7020  42.731  32.611   9.444
  125POPC   GL1 7021  42.819  32.278   9.157
  125POPC   GL2 7022  43.172  32.132   9.172
  125POPC   C1A 7023  42.960  32.352   8.724
  125POPC   D2A 7024  42.919  32.147   8.391
  125POPC   C3A 7025  43.071  32.269   8.038
  125POPC   C4A 7026  42.862  32.240   7.675
  125POPC   C1B 7027  43.459  32.197   8.800
  125POPC   C2B 7028  43.493  32.087   8.356
  125POPC   C3B 7029  43.583  32.224   7.933
  125POPC   C4B 7030  43.368  32.313   7.570
  126POPC   NC3 7031  26.549  25.237   9.595
  126POPC   PO4 7032  27.156  25.137   9.357
  126POPC   GL1 7033  26.732  25.171   9.138
  126POPC   GL2 7034  26.467  24.896   9.160
  126POPC   C1A 7035  26.697  25.242   8.737
  126POPC   D2A 7036  26.942  25.169   8.398
  126POPC   C3A 7037  26.879  25.517   8.144
  126POPC   C4A 7038  27.022  25.498   7.733
  126POPC   C1B 7039  26.318  24.935   8.712
  126POPC   C2B 7040  26.466  25.036   8.262
  126POPC   C3B 7041  26.773  25.073   7.905
  126POPC   C4B 7042  26.731  24.808   7.548
  127POPC   NC3 7043  12.288  22.666   9.402
  127POPC   PO4 7044  12.207  23.293   9.650
  127POPC   GL1 7045  12.087  23.116   9.195
  127POPC   GL2 7046  12.298  23.308   8.968
  127POPC   C1A 7047  12.026  22.771   8.829
  127POPC   D2A 7048  11.894  22.659   8.381
  127POPC   C3A 7049  11.909  22.959   8.102
  127POPC   C4A 7050  11.924  23.175   7.736
  127POPC   C1B 7051  12.457  22.988   8.686
  127POPC   C2B 7052  12.390  22.784   8.301
  127POPC   C3B 7053  12.368  22.955   7.896
  127POPC   C4B 7054  12.493  23.366   7.845
  128POPC   NC3 7055  21.500  12.206   9.657
  128POPC   PO4 7056  21.047  12.657   9.517
  128POPC   GL1 7057  21.116  12.355   9.120
  128POPC   GL2 7058  21.400  12.091   9.120
  128POPC   C1A 7059  21.207  12.284   8.676
  128POPC   D2A 7060  21.301  12.107   8.279
  128POPC   C3A 7061  21.101  12.227   7.886
  128POPC   C4A 7062  21.270  12.372   7.489
  128POPC   C1B 7063  21.614  11.967   8.707
  128POPC   C2B 7064  21.804  12.010   8.292
  128POPC   C3B 7065  21.631  12.037   7.862
  128POPC   C4B 7066  21.615  11.680   7.590
  129POPC   NC3 7067   4.384  20.784   9.520
  129POPC   PO4 7068   4.048  20.269   9.455
  129POPC   GL1 7069   4.089  20.590   9.154
  129POPC   GL2 7070   4.424  20.607   9.064
  129POPC   C1A 7071   4.100  20.743   8.709
  129POPC   D2A 7072   4.195  20.571   8.310
  129POPC   C3A 7073   3.990  20.665   7.938
  129POPC   C4A 7074   4.131  20.955   7.629
  129POPC   C1B 7075   4.564  20.559   8.672
  129POPC   C2B 7076   4.679  20.725   8.283
  129POPC   C3B 7077   4.500  20.608   7.892
  129POPC   C4B 7078   4.610  20.731   7.497
  130POPC   NC3 7079  16.914  41.009   9.497
  130POPC   PO4 7080  16.389  40.572   9.447
  130POPC   GL1 7081  16.672  40.730   9.105
  130POPC   GL2 7082  16.772  41.063   9.005
  130POPC   C1A 7083  16.602  40.747   8.644
  130POPC   D2A 7084  16.556  40.826   8.200
  130POPC   C3A 7085  16.740  40.518   7.971
  130POPC   C4A 7086  16.738  40.440   7.567
  130POPC   C1B 7087  17.101  40.816   8.765
  130POPC   C2B 7088  17.063  40.754   8.340
  130POPC   C3B 7089  17.042  40.949   7.961
  130POPC   C4B 7090  17.150  40.749   7.594
  131POPC   NC3 7091  36.654  35.974   9.429
  131POPC   PO4 7092  37.115  36.423   9.402
  131POPC   GL1 7093  37.174  36.090   9.120
  131POPC   GL2 7094  37.143  35.726   9.197
  131POPC   C1A 7095  36.973  36.231   8.757
  131POPC   D2A 7096  36.977  36.490   8.391
  131POPC   C3A 7097  36.930  36.301   8.016
  131POPC   C4A 7098  37.235  35.998   7.915
  131POPC   C1B 7099  36.940  35.705   8.790
  131POPC   C2B 7100  36.924  35.897   8.371
  131POPC   C3B 7101  36.782  35.766   7.998
  131POPC   C4B 7102  36.542  35.687   7.673
  132POPC   NC3 7103  37.360  24.803   9.602
  132POPC   PO4 7104  36.864  25.406   9.516
  132POPC   GL1 7105  36.949  25.252   9.098
  132POPC   GL2 7106  36.646  25.305   8.975
  132POPC   C1A 7107  37.233  25.288   8.688
  132POPC   D2A 7108  37.149  25.523   8.286
  132POPC   C3A 7109  36.975  25.481   7.854
  132POPC   C4A 7110  37.009  25.187   7.535
  132POPC   C1B 7111  36.763  25.123   8.619
  132POPC   C2B 7112  36.827  25.111   8.191
  132POPC   C3B 7113  36.550  25.134   7.849
  132POPC   C4B 7114  36.518  25.289   7.428
  133POPC   NC3 7115  40.373  19.544   9.491
  133POPC   PO4 7116  39.720  19.875   9.538
  133POPC   GL1 7117  39.894  19.939   9.154
  133POPC   GL2 7118  39.614  19.726   9.061
  133POPC   C1A 7119  40.120  19.799   8.786
  133POPC   D2A 7120  40.239  19.517   8.441
  133POPC   C3A 7121  40.134  19.592   7.970
  133POPC   C4A 7122  40.186  19.971   7.701
  133POPC   C1B 7123  39.595  19.817   8.648
  133POPC   C2B 7124  39.842  19.808   8.328
  133POPC   C3B 7125  39.782  20.028   7.986
  133POPC   C4B 7126  39.682  19.802   7.698
  134POPC   NC3 7127  40.071  21.552   9.457
  134POPC   PO4 7128  39.990  20.833   9.442
  134POPC   GL1 7129  39.878  21.160   9.177
  134POPC   GL2 7130  40.220  21.225   9.096
  134POPC   C1A 7131  39.854  21.245   8.749
  134POPC   D2A 7132  39.733  21.275   8.364
  134POPC   C3A 7133  40.067  21.216   8.080
  134POPC   C4A 7134  40.060  21.013   7.662
  134POPC   C1B 7135  40.275  21.494   8.774
  134POPC   C2B 7136  40.099  21.704   8.466
  134POPC   C3B 7137  40.180  21.730   8.056
  134POPC   C4B 7138  40.100  21.523   7.676
  135POPC   NC3 7139  10.454   5.349   9.193
  135POPC   PO4 7140  10.649   4.844   9.562
  135POPC   GL1 7141  10.437   4.854   9.106
  135POPC   GL2 7142  10.721   4.922   9.064
  135POPC   C1A 7143  10.549   5.105   8.636
  135POPC   D2A 7144  10.736   5.185   8.217
  135POPC   C3A 7145  10.498   5.081   7.869
  135POPC   C4A 7146  10.278   5.425   7.881
  135POPC   C1B 7147  10.802   4.690   8.719
  135POPC   C2B 7148  10.602   4.677   8.338
  135POPC   C3B 7149  10.825   4.699   7.970
  135POPC   C4B 7150  10.654   4.686   7.586
  136POPC   NC3 7151  20.484  33.420   9.862
  136POPC   PO4 7152  20.326  34.005   9.441
  136POPC   GL1 7153  20.466  34.036   9.061
  136POPC   GL2 7154  20.779  33.951   9.151
  136POPC   C1A 7155  20.434  33.828   8.676
  136POPC   D2A 7156  20.243  33.780   8.297
  136POPC   C3A 7157  20.495  33.702   7.927
  136POPC   C4A 7158  20.500  33.897   7.514
  136POPC   C1B 7159  20.901  33.713   8.807
  136POPC   C2B 7160  20.876  33.736   8.370
  136POPC   C3B 7161  20.954  33.959   8.018
  136POPC   C4B 7162  21.002  33.795   7.628
  137POPC   NC3 7163  20.906  35.305   9.457
  137POPC   PO4 7164  20.145  35.517   9.408
  137POPC   GL1 7165  20.418  35.367   9.088
  137POPC   GL2 7166  20.696  35.473   9.053
  137POPC   C1A 7167  20.461  35.158   8.705
  137POPC   D2A 7168  20.669  35.152   8.322
  137POPC   C3A 7169  20.505  35.197   7.959
  137POPC   C4A 7170  20.718  35.202   7.561
  137POPC   C1B 7171  20.920  35.409   8.688
  137POPC   C2B 7172  21.007  35.570   8.310
  137POPC   C3B 7173  20.947  35.484   7.931
  137POPC   C4B 7174  20.884  35.695   7.572
  138POPC   NC3 7175  19.681  43.120   9.506
  138POPC   PO4 7176  20.243  42.867   9.397
  138POPC   GL1 7177  19.891  42.924   9.081
  138POPC   GL2 7178  19.687  43.262   9.030
  138POPC   C1A 7179  19.787  42.897   8.631
  138POPC   D2A 7180  19.741  42.859   8.151
  138POPC   C3A 7181  20.081  42.943   7.858
  138POPC   C4A 7182  20.017  42.923   7.424
  138POPC   C1B 7183  19.702  43.526   8.684
  138POPC   C2B 7184  19.754  43.580   8.246
  138POPC   C3B 7185  19.699  43.306   7.891
  138POPC   C4B 7186  19.655  43.318   7.441
  139POPC   NC3 7187   4.309  22.405   9.584
  139POPC   PO4 7188   4.610  21.802   9.453
  139POPC   GL1 7189   4.470  22.103   9.150
  139POPC   GL2 7190   4.113  22.218   9.144
  139POPC   C1A 7191   4.334  22.031   8.723
  139POPC   D2A 7192   4.251  22.207   8.310
  139POPC   C3A 7193   4.143  21.967   7.946
  139POPC   C4A 7194   4.452  21.925   7.621
  139POPC   C1B 7195   4.177  22.511   8.778
  139POPC   C2B 7196   4.196  22.712   8.382
  139POPC   C3B 7197   3.921  22.569   8.055
  139POPC   C4B 7198   3.932  22.335   7.658
  140POPC   NC3 7199   3.351  34.705   9.412
  140POPC   PO4 7200   3.932  34.363   9.397
  140POPC   GL1 7201   3.572  34.289   9.106
  140POPC   GL2 7202   3.261  34.107   9.212
  140POPC   C1A 7203   3.343  34.553   8.762
  140POPC   D2A 7204   3.211  34.650   8.329
  140POPC   C3A 7205   3.585  34.728   8.072
  140POPC   C4A 7206   3.885  34.504   7.776
  140POPC   C1B 7207   3.281  34.060   8.747
  140POPC   C2B 7208   3.459  34.208   8.324
  140POPC   C3B 7209   3.387  34.312   7.848
  140POPC   C4B 7210   3.264  34.117   7.379
  141POPC   NC3 7211  25.834   4.061   9.481
  141POPC   PO4 7212  25.365   4.537   9.495
  141POPC   GL1 7213  25.681   4.429   9.174
  141POPC   GL2 7214  25.768   4.746   9.057
  141POPC   C1A 7215  25.781   4.100   8.820
  141POPC   D2A 7216  25.636   4.176   8.376
  141POPC   C3A 7217  25.440   4.080   7.945
  141POPC   C4A 7218  25.674   4.200   7.538
  141POPC   C1B 7219  25.490   4.536   8.719
  141POPC   C2B 7220  25.368   4.590   8.267
  141POPC   C3B 7221  25.084   4.441   7.964
  141POPC   C4B 7222  24.859   4.627   7.623
  142POPC   NC3 7223  36.345   6.356   9.604
  142POPC   PO4 7224  36.083   6.930   9.434
  142POPC   GL1 7225  35.975   6.717   9.093
  142POPC   GL2 7226  35.623   6.577   9.164
  142POPC   C1A 7227  36.160   6.762   8.679
  142POPC   D2A 7228  36.266   6.701   8.223
  142POPC   C3A 7229  36.030   6.937   7.887
  142POPC   C4A 7230  36.091   6.918   7.424
  142POPC   C1B 7231  35.745   6.423   8.747
  142POPC   C2B 7232  36.037   6.310   8.442
  142POPC   C3B 7233  36.011   6.259   8.013
  142POPC   C4B 7234  35.882   6.335   7.597
  143POPC   NC3 7235  36.640  32.987   9.434
  143POPC   PO4 7236  37.233  33.347   9.531
  143POPC   GL1 7237  37.081  33.114   9.153
  143POPC   GL2 7238  36.814  32.847   8.994
  143POPC   C1A 7239  36.997  33.216   8.735
  143POPC   D2A 7240  36.703  33.380   8.464
  143POPC   C3A 7241  36.776  33.132   8.084
  143POPC   C4A 7242  36.956  33.293   7.707
  143POPC   C1B 7243  37.244  32.754   8.823
  143POPC   C2B 7244  37.290  32.587   8.414
  143POPC   C3B 7245  36.970  32.574   8.101
  143POPC   C4B 7246  37.002  32.768   7.724
  144POPC   NC3 7247  12.012  11.595   9.556
  144POPC   PO4 7248  11.716  11.091   9.578
  144POPC   GL1 7249  11.825  11.324   9.164
  144POPC   GL2 7250  12.190  11.535   9.093
  144POPC   C1A 7251  12.001  11.150   8.794
  144POPC   D2A 7252  11.990  11.213   8.375
  144POPC   C3A 7253  12.254  11.063   8.058
  144POPC   C4A 7254  12.042  11.303   7.769
  144POPC   C1B 7255  12.205  11.661   8.659
  144POPC   C2B 7256  12.384  11.543   8.251
  144POPC   C3B 7257  12.422  11.619   7.816
  144POPC   C4B 7258  12.272  11.538   7.352
  145POPC   NC3 7259   6.636  35.382   9.400
  145POPC   PO4 7260   6.233  34.838   9.361
  145POPC   GL1 7261   6.515  35.101   9.028
  145POPC   GL2 7262   6.874  35.110   9.046
  145POPC   C1A 7263   6.419  35.167   8.617
  145POPC   D2A 7264   6.515  35.016   8.207
  145POPC   C3A 7265   6.640  35.369   7.953
  145POPC   C4A 7266   6.494  35.591   7.575
  145POPC   C1B 7267   6.871  35.440   8.675
  145POPC   C2B 7268   6.965  35.666   8.235
  145POPC   C3B 7269   7.089  35.528   7.791
  145POPC   C4B 7270   6.859  35.193   7.529
  146POPC   NC3 7271   6.997  40.875   9.345
  146POPC   PO4 7272   6.425  41.084   9.586
  146POPC   GL1 7273   6.514  40.930   9.153
  146POPC   GL2 7274   6.622  40.579   9.139
  146POPC   C1A 7275   6.516  40.793   8.695
  146POPC   D2A 7276   6.432  40.476   8.368
  146POPC   C3A 7277   6.587  40.568   7.957
  146POPC   C4A 7278   6.649  40.837   7.597
  146POPC   C1B 7279   7.024  40.407   8.882
  146POPC   C2B 7280   7.172  40.417   8.444
  146POPC   C3B 7281   7.081  40.468   8.014
  146POPC   C4B 7282   6.953  40.428   7.593
  147POPC   NC3 7283  27.453   7.122   9.438
  147POPC   PO4 7284  27.931   7.625   9.485
  147POPC   GL1 7285  27.591   7.531   9.172
  147POPC   GL2 7286  27.323   7.754   9.175
  147POPC   C1A 7287  27.342   7.340   8.791
  147POPC   D2A 7288  27.540   7.133   8.411
  147POPC   C3A 7289  27.506   7.220   7.965
  147POPC   C4A 7290  27.738   7.181   7.538
  147POPC   C1B 7291  27.515   7.830   8.782
  147POPC   C2B 7292  27.440   7.665   8.398
  147POPC   C3B 7293  27.365   7.792   8.013
  147POPC   C4B 7294  27.596   7.642   7.717
  148POPC   NC3 7295  39.154  18.529   9.588
  148POPC   PO4 7296  39.531  17.985   9.384
  148POPC   GL1 7297  39.249  18.234   9.111
  148POPC   GL2 7298  39.037  18.577   9.107
  148POPC   C1A 7299  39.267  18.019   8.711
  148POPC   D2A 7300  39.047  17.782   8.387
  148POPC   C3A 7301  39.052  17.991   7.965
  148POPC   C4A 7302  39.263  18.029   7.593
  148POPC   C1B 7303  38.901  18.370   8.744
  148POPC   C2B 7304  39.098  18.324   8.333
  148POPC   C3B 7305  39.174  18.565   7.939
  148POPC   C4B 7306  39.202  18.686   7.477
  149POPC   NC3 7307  36.864  11.691   9.545
  149POPC   PO4 7308  37.147  11.029   9.443
  149POPC   GL1 7309  37.102  11.360   9.188
  149POPC   GL2 7310  36.760  11.379   9.137
  149POPC   C1A 7311  37.053  11.507   8.760
  149POPC   D2A 7312  37.074  11.342   8.376
  149POPC   C3A 7313  36.903  11.531   8.043
  149POPC   C4A 7314  37.108  11.333   7.709
  149POPC   C1B 7315  36.749  11.077   8.794
  149POPC   C2B 7316  36.585  11.100   8.377
  149POPC   C3B 7317  36.673  11.099   7.968
  149POPC   C4B 7318  36.643  11.231   7.547
  150POPC   NC3 7319  33.008  40.611   9.549
  150POPC   PO4 7320  32.380  40.853   9.357
  150POPC   GL1 7321  32.744  40.626   9.108
  150POPC   GL2 7322  33.058  40.836   9.090
  150POPC   C1A 7323  32.970  40.479   8.725
  150POPC   D2A 7324  32.977  40.674   8.292
  150POPC   C3A 7325  33.019  40.436   7.904
  150POPC   C4A 7326  32.912  40.324   7.480
  150POPC   C1B 7327  33.052  41.005   8.681
  150POPC   C2B 7328  33.224  41.138   8.259
  150POPC   C3B 7329  33.194  40.928   7.853
  150POPC   C4B 7330  33.338  40.642   7.520
  151POPC   NC3 7331  19.179   5.569   9.395
  151POPC   PO4 7332  18.876   4.986   9.648
  151POPC   GL1 7333  18.946   5.149   9.245
  151POPC   GL2 7334  19.295   5.092   9.214
  151POPC   C1A 7335  18.927   5.082   8.809
  151POPC   D2A 7336  18.964   5.237   8.358
  151POPC   C3A 7337  19.236   4.985   8.019
  151POPC   C4A 7338  19.270   4.922   7.539
  151POPC   C1B 7339  19.392   5.247   8.803
  151POPC   C2B 7340  19.468   5.315   8.369
  151POPC   C3B 7341  19.267   5.488   8.006
  151POPC   C4B 7342  19.291   5.713   7.599
  152POPC   NC3 7343  39.622  22.326   9.419
  152POPC   PO4 7344  40.161  22.030   9.424
  152POPC   GL1 7345  39.943  22.050   9.059
  152POPC   GL2 7346  39.874  21.706   9.016
  152POPC   C1A 7347  39.920  22.311   8.677
  152POPC   D2A 7348  39.912  22.165   8.251
  152POPC   C3A 7349  40.183  22.226   7.892
  152POPC   C4A 7350  40.447  21.908   7.654
  152POPC   C1B 7351  39.653  21.861   8.653
  152POPC   C2B 7352  39.627  21.756   8.226
  152POPC   C3B 7353  39.767  21.890   7.820
  152POPC   C4B 7354  39.728  21.728   7.393
  153POPC   NC3 7355   2.963  35.386   9.534
  153POPC   PO4 7356   2.323  35.238   9.543
  153POPC   GL1 7357   2.614  35.132   9.206
  153POPC   GL2 7358   2.707  35.463   9.078
  153POPC   C1A 7359   2.811  35.020   8.809
  153POPC   D2A 7360   2.765  35.264   8.426
  153POPC   C3A 7361   2.719  35.076   8.015
  153POPC   C4A 7362   2.705  35.330   7.646
  153POPC   C1B 7363   2.877  35.723   8.742
  153POPC   C2B 7364   3.115  35.654   8.365
  153POPC   C3B 7365   2.940  35.662   7.969
  153POPC   C4B 7366   2.875  35.815   7.545
  154POPC   NC3 7367  22.382  18.697   9.404
  154POPC   PO4 7368  21.726  18.561   9.483
  154POPC   GL1 7369  21.930  18.820   9.148
  154POPC   GL2 7370  22.142  19.130   9.155
  154POPC   C1A 7371  22.087  18.806   8.735
  154POPC   D2A 7372  22.419  18.865   8.454
  154POPC   C3A 7373  22.382  18.941   8.019
  154POPC   C4A 7374  22.639  19.286   7.871
  154POPC   C1B 7375  21.823  19.228   8.789
  154POPC   C2B 7376  21.832  19.116   8.335
  154POPC   C3B 7377  21.818  19.432   8.000
  154POPC   C4B 7378  22.103  19.290   7.735
  155POPC   NC3 7379  41.783   1.691   9.560
  155POPC   PO4 7380  42.159   2.228   9.380
  155POPC   GL1 7381  41.737   2.047   9.171
  155POPC   GL2 7382  41.643   1.712   9.067
  155POPC   C1A 7383  41.520   2.061   8.735
  155POPC   D2A 7384  41.836   1.965   8.411
  155POPC   C3A 7385  41.637   2.019   8.032
  155POPC   C4A 7386  41.281   1.883   7.806
  155POPC   C1B 7387  41.613   1.566   8.659
  155POPC   C2B 7388  41.527   1.563   8.228
  155POPC   C3B 7389  41.765   1.553   7.848
  155POPC   C4B 7390  41.723   1.455   7.413
  156POPC   NC3 7391  20.854  27.113   9.545
  156POPC   PO4 7392  20.542  26.406   9.640
  156POPC   GL1 7393  20.576  26.560   9.222
  156POPC   GL2 7394  20.676  26.897   9.133
  156POPC   C1A 7395  20.464  26.515   8.798
  156POPC   D2A 7396  20.635  26.723   8.456
  156POPC   C3A 7397  20.567  26.676   8.061
  156POPC   C4A 7398  20.644  27.059   7.875
  156POPC   C1B 7399  20.493  27.091   8.779
  156POPC   C2B 7400  20.581  27.246   8.365
  156POPC   C3B 7401  20.358  27.475   8.067
  156POPC   C4B 7402  20.267  27.355   7.695
  157POPC   NC3 7403  34.336   3.126   9.418
  157POPC   PO4 7404  34.347   2.407   9.451
  157POPC   GL1 7405  34.622   2.594   9.168
  157POPC   GL2 7406  34.627   2.904   9.068
  157POPC   C1A 7407  34.757   2.558   8.742
  157POPC   D2A 7408  34.689   2.432   8.345
  157POPC   C3A 7409  34.827   2.668   7.981
  157POPC   C4A 7410  34.668   2.722   7.586
  157POPC   C1B 7411  34.485   2.963   8.628
  157POPC   C2B 7412  34.669   3.118   8.227
  157POPC   C3B 7413  34.538   3.172   7.783
  157POPC   C4B 7414  34.293   3.027   7.413
  158POPC   NC3 7415  14.681  18.283   9.584
  158POPC   PO4 7416  15.274  18.627   9.481
  158POPC   GL1 7417  15.080  18.375   9.167
  158POPC   GL2 7418  14.780  18.491   9.089
  158POPC   C1A 7419  15.240  18.100   8.837
  158POPC   D2A 7420  15.489  17.962   8.472
  158POPC   C3A 7421  15.215  17.965   8.126
  158POPC   C4A 7422  15.177  18.093   7.729
  158POPC   C1B 7423  14.833  18.653   8.676
  158POPC   C2B 7424  15.105  18.387   8.428
  158POPC   C3B 7425  15.266  18.473   8.034
  158POPC   C4B 7426  14.895  18.499   7.750
  159POPC   NC3 7427   3.182  18.173   9.380
  159POPC   PO4 7428   2.659  18.170   9.774
  159POPC   GL1 7429   2.693  18.332   9.325
  159POPC   GL2 7430   2.944  18.589   9.197
  159POPC   C1A 7431   2.764  18.199   8.855
  159POPC   D2A 7432   2.750  18.321   8.388
  159POPC   C3A 7433   2.847  18.073   7.997
  159POPC   C4A 7434   2.672  18.004   7.577
  159POPC   C1B 7435   3.020  18.632   8.725
  159POPC   C2B 7436   3.212  18.539   8.300
  159POPC   C3B 7437   3.100  18.587   7.856
  159POPC   C4B 7438   2.887  18.591   7.463
  160POPC   NC3 7439  41.116  41.306   9.708
  160POPC   PO4 7440  40.545  41.532   9.705
  160POPC   GL1 7441  40.789  41.711   9.311
  160POPC   GL2 7442  41.096  41.890   9.211
  160POPC   C1A 7443  40.757  41.716   8.822
  160POPC   D2A 7444  40.606  41.612   8.393
  160POPC   C3A 7445  40.724  41.357   8.019
  160POPC   C4A 7446  40.486  41.651   7.759
  160POPC   C1B 7447  41.256  41.833   8.761
  160POPC   C2B 7448  41.111  41.627   8.386
  160POPC   C3B 7449  40.958  41.797   7.983
  160POPC   C4B 7450  41.034  41.539   7.649
  161POPC   NC3 7451  43.754   1.474   9.523
  161POPC   PO4 7452  44.185   0.889   9.442
  161POPC   GL1 7453  43.823   1.060   9.226
  161POPC   GL2 7454  43.494   1.036   9.368
  161POPC   C1A 7455  43.831   1.318   8.863
  161POPC   D2A 7456  44.074   1.351   8.488
  161POPC   C3A 7457  43.901   1.320   8.081
  161POPC   C4A 7458  43.948   1.035   7.812
  161POPC   C1B 7459  43.406   1.050   8.904
  161POPC   C2B 7460  43.542   1.164   8.464
  161POPC   C3B 7461  43.462   1.060   8.020
  161POPC   C4B 7462  43.555   1.231   7.585
  162POPC   NC3 7463   6.898   6.937   9.423
  162POPC   PO4 7464   6.524   6.395   9.454
  162POPC   GL1 7465   6.601   6.669   9.127
  162POPC   GL2 7466   6.382   6.945   9.182
  162POPC   C1A 7467   6.910   6.656   8.799
  162POPC   D2A 7468   6.798   6.432   8.441
  162POPC   C3A 7469   6.762   6.721   8.097
  162POPC   C4A 7470   6.786   6.613   7.669
  162POPC   C1B 7471   6.210   7.022   8.779
  162POPC   C2B 7472   6.376   7.026   8.354
  162POPC   C3B 7473   6.276   6.887   7.925
  162POPC   C4B 7474   6.250   6.830   7.467
  163POPC   NC3 7475  23.935   7.990   9.374
  163POPC   PO4 7476  23.347   8.317   9.468
  163POPC   GL1 7477  23.566   8.300   9.102
  163POPC   GL2 7478  23.487   7.980   9.095
  163POPC   C1A 7479  23.556   8.323   8.668
  163POPC   D2A 7480  23.609   8.507   8.286
  163POPC   C3A 7481  23.608   8.286   7.918
  163POPC   C4A 7482  23.943   8.357   7.701
  163POPC   C1B 7483  23.797   7.894   8.777
  163POPC   C2B 7484  23.826   7.813   8.370
  163POPC   C3B 7485  23.927   7.897   7.949
  163POPC   C4B 7486  24.161   7.928   7.555
  164POPC   NC3 7487  26.616   1.298   9.931
  164POPC   PO4 7488  27.035   1.047   9.660
  164POPC   GL1 7489  27.089   1.130   9.195
  164POPC   GL2 7490  27.232   0.839   9.047
  164POPC   C1A 7491  27.030   1.189   8.712
  164POPC   D2A 7492  26.899   1.005   8.290
  164POPC   C3A 7493  26.802   1.229   7.903
  164POPC   C4A 7494  26.978   1.446   7.536
  164POPC   C1B 7495  27.186   0.691   8.606
  164POPC   C2B 7496  27.302   0.719   8.161
  164POPC   C3B 7497  27.001   0.733   7.819
  164POPC   C4B 7498  26.960   0.952   7.429
  165POPC   NC3 7499  19.707   5.877   9.581
  165POPC   PO4 7500  20.071   6.114   9.022
  165POPC   GL1 7501  19.666   5.913   9.066
  165POPC   GL2 7502  19.484   6.132   9.165
  165POPC   C1A 7503  19.611   5.684   8.714
  165POPC   D2A 7504  19.880   5.632   8.377
  165POPC   C3A 7505  19.727   5.693   8.002
  165POPC   C4A 7506  20.045   5.524   7.770
  165POPC   C1B 7507  19.418   6.157   8.726
  165POPC   C2B 7508  19.634   6.117   8.335
  165POPC   C3B 7509  19.708   6.219   7.890
  165POPC   C4B 7510  19.715   6.374   7.427
  166POPC   NC3 7511  36.521   7.019   9.335
  166POPC   PO4 7512  36.758   6.477   9.490
  166POPC   GL1 7513  36.535   6.553   9.080
  166POPC   GL2 7514  36.795   6.775   8.979
  166POPC   C1A 7515  36.525   6.397   8.609
  166POPC   D2A 7516  36.493   6.227   8.153
  166POPC   C3A 7517  36.781   6.327   7.799
  166POPC   C4A 7518  37.137   6.455   7.525
  166POPC   C1B 7519  36.667   6.878   8.570
  166POPC   C2B 7520  36.775   6.656   8.196
  166POPC   C3B 7521  36.908   6.824   7.804
  166POPC   C4B 7522  37.052   6.983   7.393
  167POPC   NC3 7523   7.820  43.134   9.605
  167POPC   PO4 7524   8.500  42.885   9.666
  167POPC   GL1 7525   8.400  43.133   9.232
  167POPC   GL2 7526   8.557  43.524   9.209
  167POPC   C1A 7527   8.008  43.146   8.909
  167POPC   D2A 7528   7.910  43.344   8.532
  167POPC   C3A 7529   7.885  43.122   8.140
  167POPC   C4A 7530   7.916  42.946   7.702
  167POPC   C1B 7531   8.370  43.486   8.824
  167POPC   C2B 7532   8.422  43.140   8.538
  167POPC   C3B 7533   8.578  43.121   8.121
  167POPC   C4B 7534   8.392  43.112   7.723
  168POPC   NC3 7535  12.823   1.085   9.445
  168POPC   PO4 7536  12.440   1.546   9.277
  168POPC   GL1 7537  12.711   1.273   8.995
  168POPC   GL2 7538  12.916   0.908   8.999
  168POPC   C1A 7539  12.565   1.162   8.634
  168POPC   D2A 7540  12.637   1.024   8.256
  168POPC   C3A 7541  12.708   1.303   8.005
  168POPC   C4A 7542  12.508   1.371   7.647
  168POPC   C1B 7543  13.097   1.117   8.683
  168POPC   C2B 7544  13.195   1.011   8.304
  168POPC   C3B 7545  13.014   0.896   7.926
  168POPC   C4B 7546  12.647   0.878   7.698
  169POPC   NC3 7547  22.364  27.819   9.561
  169POPC   PO4 7548  22.148  27.156   9.520
  169POPC   GL1 7549  22.185  27.429   9.137
  169POPC   GL2 7550  22.225  27.805   9.088
  169POPC   C1A 7551  22.315  27.456   8.719
  169POPC   D2A 7552  22.265  27.705   8.352
  169POPC   C3A 7553  22.113  27.497   7.989
  169POPC   C4A 7554  22.321  27.247   7.740
  169POPC   C1B 7555  21.913  27.815   8.792
  169POPC   C2B 7556  21.852  28.012   8.409
  169POPC   C3B 7557  21.978  27.991   7.999
  169POPC   C4B 7558  21.882  27.868   7.617
  170POPC   NC3 7559  33.334  33.184   9.626
  170POPC   PO4 7560  33.965  33.345   9.569
  170POPC   GL1 7561  33.813  33.055   9.232
  170POPC   GL2 7562  34.041  32.755   9.179
  170POPC   C1A 7563  33.770  32.946   8.783
  170POPC   D2A 7564  33.833  33.177   8.404
  170POPC   C3A 7565  33.757  32.973   8.038
  170POPC   C4A 7566  33.362  32.938   7.776
  170POPC   C1B 7567  34.245  32.810   8.774
  170POPC   C2B 7568  34.099  32.758   8.360
  170POPC   C3B 7569  34.224  32.672   7.945
  170POPC   C4B 7570  34.118  32.942   7.590
  171POPC   NC3 7571   0.223   6.224   9.452
  171POPC   PO4 7572   0.635   5.679   9.535
  171POPC   GL1 7573   0.668   5.746   9.127
  171POPC   GL2 7574   0.376   5.885   9.100
  171POPC   C1A 7575   0.622   5.735   8.684
  171POPC   D2A 7576   0.622   5.463   8.332
  171POPC   C3A 7577   0.362   5.697   8.048
  171POPC   C4A 7578   0.407   5.931   7.669
  171POPC   C1B 7579   0.313   6.158   8.750
  171POPC   C2B 7580   0.307   6.205   8.311
  171POPC   C3B 7581   0.053   6.227   7.951
  171POPC   C4B 7582   0.058   6.224   7.476
  172POPC   NC3 7583  39.578  17.452   9.371
  172POPC   PO4 7584  40.259  17.497   9.551
  172POPC   GL1 7585  40.055  17.307   9.201
  172POPC   GL2 7586  39.972  17.637   9.115
  172POPC   C1A 7587  39.813  17.243   8.801
  172POPC   D2A 7588  39.925  17.403   8.408
  172POPC   C3A 7589  39.767  17.297   8.027
  172POPC   C4A 7590  39.993  17.139   7.684
  172POPC   C1B 7591  39.778  17.805   8.754
  172POPC   C2B 7592  39.628  17.813   8.327
  172POPC   C3B 7593  39.951  17.785   8.016
  172POPC   C4B 7594  40.071  17.647   7.633
  173POPC   NC3 7595   5.592  33.644   9.590
  173POPC   PO4 7596   6.193  34.057   9.488
  173POPC   GL1 7597   5.922  33.965   9.135
  173POPC   GL2 7598   5.627  33.896   9.143
  173POPC   C1A 7599   5.963  34.020   8.700
  173POPC   D2A 7600   6.195  33.821   8.410
  173POPC   C3A 7601   6.000  33.843   8.037
  173POPC   C4A 7602   6.020  33.667   7.635
  173POPC   C1B 7603   5.491  33.733   8.754
  173POPC   C2B 7604   5.565  33.902   8.364
  173POPC   C3B 7605   5.519  33.707   8.004
  173POPC   C4B 7606   5.534  33.883   7.618
  174POPC   NC3 7607  28.767  32.227   9.478
  174POPC   PO4 7608  28.121  32.069   9.671
  174POPC   GL1 7609  28.296  32.132   9.262
  174POPC   GL2 7610  27.949  32.122   9.179
  174POPC   C1A 7611  28.490  32.345   8.875
  174POPC   D2A 7612  28.442  32.475   8.436
  174POPC   C3A 7613  28.541  32.274   8.074
  174POPC   C4A 7614  28.377  32.277   7.712
  174POPC   C1B 7615  28.067  32.079   8.776
  174POPC   C2B 7616  27.885  31.931   8.415
  174POPC   C3B 7617  28.062  32.061   8.071
  174POPC   C4B 7618  27.886  32.145   7.704
  175POPC   NC3 7619  18.503  41.070   9.277
  175POPC   PO4 7620  19.029  40.777   9.614
  175POPC   GL1 7621  19.010  40.804   9.166
  175POPC   GL2 7622  18.712  40.698   8.966
  175POPC   C1A 7623  19.174  40.624   8.775
  175POPC   D2A 7624  18.853  40.579   8.450
  175POPC   C3A 7625  18.972  40.445   8.046
  175POPC   C4A 7626  19.345  40.568   7.813
  175POPC   C1B 7627  18.499  40.902   8.651
  175POPC   C2B 7628  18.432  40.795   8.235
  175POPC   C3B 7629  18.726  40.894   7.902
  175POPC   C4B 7630  18.633  40.911   7.451
  176POPC   NC3 7631  40.316  44.438   9.576
  176POPC   PO4 7632  39.680  44.701   9.578
  176POPC   GL1 7633  39.888  44.525   9.212
  176POPC   GL2 7634  40.060  44.843   9.110
  176POPC   C1A 7635  39.650  44.413   8.817
  176POPC   D2A 7636  39.689  44.563   8.375
  176POPC   C3A 7637  39.716  44.417   7.965
  176POPC   C4A 7638  39.878  44.709   7.671
  176POPC   C1B 7639  40.081  44.661   8.711
  176POPC   C2B 7640  40.169  44.814   8.312
  176POPC   C3B 7641  40.314  44.675   7.916
  176POPC   C4B 7642  40.353  44.820   7.470
  177POPC   NC3 7643  11.509   5.420   9.294
  177POPC   PO4 7644  11.438   6.017   9.443
  177POPC   GL1 7645  11.156   5.845   9.129
  177POPC   GL2 7646  10.967   5.510   9.146
  177POPC   C1A 7647  11.175   6.006   8.720
  177POPC   D2A 7648  11.455   6.118   8.396
  177POPC   C3A 7649  11.541   6.007   7.962
  177POPC   C4A 7650  11.477   5.679   7.664
  177POPC   C1B 7651  10.828   5.633   8.709
  177POPC   C2B 7652  10.993   5.782   8.280
  177POPC   C3B 7653  10.982   5.580   7.842
  177POPC   C4B 7654  11.015   5.607   7.382
  178POPC   NC3 7655  42.659  39.384   9.540
  178POPC   PO4 7656  42.204  38.964   9.739
  178POPC   GL1 7657  42.478  39.012   9.276
  178POPC   GL2 7658  42.482  39.349   9.080
  178POPC   C1A 7659  42.380  38.955   8.808
  178POPC   D2A 7660  42.159  39.053   8.423
  178POPC   C3A 7661  42.402  39.117   8.063
  178POPC   C4A 7662  42.514  38.941   7.683
  178POPC   C1B 7663  42.270  39.455   8.701
  178POPC   C2B 7664  42.196  39.552   8.244
  178POPC   C3B 7665  42.222  39.484   7.778
  178POPC   C4B 7666  42.465  39.377   7.406
  179POPC   NC3 7667  27.659  10.627   9.671
  179POPC   PO4 7668  27.163  10.275   9.558
  179POPC   GL1 7669  27.395  10.553   9.236
  179POPC   GL2 7670  27.766  10.449   9.186
  179POPC   C1A 7671  27.468  10.703   8.826
  179POPC   D2A 7672  27.691  10.580   8.503
  179POPC   C3A 7673  27.514  10.644   8.109
  179POPC   C4A 7674  27.494  10.524   7.699
  179POPC   C1B 7675  27.924  10.248   8.818
  179POPC   C2B 7676  27.756  10.065   8.451
  179POPC   C3B 7677  27.834   9.976   8.047
  179POPC   C4B 7678  27.891  10.193   7.679
  180POPC   NC3 7679  32.948  18.028   9.576
  180POPC   PO4 7680  33.446  17.474   9.583
  180POPC   GL1 7681  33.178  17.556   9.220
  180POPC   GL2 7682  32.872  17.722   9.180
  180POPC   C1A 7683  33.079  17.436   8.782
  180POPC   D2A 7684  33.053  17.263   8.349
  180POPC   C3A 7685  33.209  17.422   7.981
  180POPC   C4A 7686  33.132  17.594   7.593
  180POPC   C1B 7687  32.618  17.664   8.805
  180POPC   C2B 7688  32.568  17.390   8.434
  180POPC   C3B 7689  32.685  17.384   7.975
  180POPC   C4B 7690  32.409  17.479   7.604
  181POPC   NC3 7691  22.773  24.316   9.524
  181POPC   PO4 7692  23.382  24.660   9.353
  181POPC   GL1 7693  23.139  24.310   9.108
  181POPC   GL2 7694  22.749  24.208   9.036
  181POPC   C1A 7695  23.039  24.387   8.659
  181POPC   D2A 7696  22.948  24.431   8.226
  181POPC   C3A 7697  23.269  24.324   7.944
  181POPC   C4A 7698  23.269  24.603   7.628
  181POPC   C1B 7699  22.590  24.025   8.639
  181POPC   C2B 7700  22.620  24.032   8.188
  181POPC   C3B 7701  22.641  24.280   7.824
  181POPC   C4B 7702  22.756  24.629   7.590
  182POPC   NC3 7703  43.780  13.735   9.497
  182POPC   PO4 7704  44.156  13.195   9.398
  182POPC   GL1 7705  43.872  13.422   9.086
  182POPC   GL2 7706  43.599  13.723   9.035
  182POPC   C1A 7707  43.807  13.399   8.648
  182POPC   D2A 7708  44.111  13.532   8.344
  182POPC   C3A 7709  43.966  13.474   7.934
  182POPC   C4A 7710  43.662  13.711   7.732
  182POPC   C1B 7711  43.938  13.861   8.794
  182POPC   C2B 7712  43.800  13.972   8.369
  182POPC   C3B 7713  43.959  14.085   7.980
  182POPC   C4B 7714  44.199  13.887   7.711
  183POPC   NC3 7715  30.141   7.930   9.255
  183POPC   PO4 7716  29.628   8.313   9.588
  183POPC   GL1 7717  29.826   8.327   9.139
  183POPC   GL2 7718  30.200   8.457   9.169
  183POPC   C1A 7719  29.911   8.100   8.691
  183POPC   D2A 7720  29.909   7.917   8.250
  183POPC   C3A 7721  30.118   8.045   7.844
  183POPC   C4A 7722  29.907   8.119   7.417
  183POPC   C1B 7723  30.053   8.582   8.756
  183POPC   C2B 7724  29.855   8.482   8.381
  183POPC   C3B 7725  29.756   8.382   7.989
  183POPC   C4B 7726  29.992   8.551   7.679
  184POPC   NC3 7727  13.920  18.315   9.691
  184POPC   PO4 7728  13.347  18.045   9.520
  184POPC   GL1 7729  13.614  18.317   9.212
  184POPC   GL2 7730  13.684  18.014   8.951
  184POPC   C1A 7731  13.687  18.477   8.768
  184POPC   D2A 7732  13.848  18.229   8.431
  184POPC   C3A 7733  13.716  18.281   7.996
  184POPC   C4A 7734  13.755  18.640   7.724
  184POPC   C1B 7735  13.419  17.764   8.690
  184POPC   C2B 7736  13.196  17.716   8.322
  184POPC   C3B 7737  13.372  17.694   7.902
  184POPC   C4B 7738  13.697  17.871   7.651
  185POPC   NC3 7739  44.819  10.377   9.829
  185POPC   PO4 7740  44.316  10.737   9.550
  185POPC   GL1 7741  44.709  10.641   9.328
  185POPC   GL2 7742  44.733  10.288   9.322
  185POPC   C1A 7743  44.800  10.655   8.871
  185POPC   D2A 7744  44.551  10.401   8.592
  185POPC   C3A 7745  44.592  10.414   8.148
  185POPC   C4A 7746  44.500  10.699   7.791
  185POPC   C1B 7747  44.957  10.192   8.937
  185POPC   C2B 7748   0.047  10.283   8.481
  185POPC   C3B 7749  44.989  10.129   8.016
  185POPC   C4B 7750  44.659  10.232   7.678
  186POPC   NC3 7751  16.133   9.020   9.521
  186POPC   PO4 7752  15.481   8.922   9.520
  186POPC   GL1 7753  15.805   8.876   9.151
  186POPC   GL2 7754  16.144   8.673   9.164
  186POPC   C1A 7755  15.998   8.947   8.727
  186POPC   D2A 7756  15.828   8.787   8.322
  186POPC   C3A 7757  15.940   8.987   7.939
  186POPC   C4A 7758  15.702   9.208   7.640
  186POPC   C1B 7759  16.390   8.597   8.820
  186POPC   C2B 7760  16.304   8.662   8.411
  186POPC   C3B 7761  16.422   8.769   8.026
  186POPC   C4B 7762  16.326   8.843   7.606
  187POPC   NC3 7763  41.741  42.276   9.282
  187POPC   PO4 7764  42.398  42.306   9.499
  187POPC   GL1 7765  42.238  42.347   9.139
  187POPC   GL2 7766  42.130  42.020   9.087
  187POPC   C1A 7767  42.254  42.509   8.750
  187POPC   D2A 7768  42.463  42.472   8.379
  187POPC   C3A 7769  42.190  42.604   8.056
  187POPC   C4A 7770  42.281  42.464   7.655
  187POPC   C1B 7771  41.944  42.104   8.702
  187POPC   C2B 7772  41.998  42.241   8.330
  187POPC   C3B 7773  42.211  42.077   7.965
  187POPC   C4B 7774  42.026  42.013   7.540
  188POPC   NC3 7775  17.961   6.917   9.438
  188POPC   PO4 7776  18.612   6.617   9.518
  188POPC   GL1 7777  18.294   6.566   9.208
  188POPC   GL2 7778  18.320   6.912   9.099
  188POPC   C1A 7779  18.059   6.574   8.807
  188POPC   D2A 7780  18.021   6.736   8.393
  188POPC   C3A 7781  18.201   6.560   8.010
  188POPC   C4A 7782  18.364   6.571   7.570
  188POPC   C1B 7783  18.607   6.714   8.820
  188POPC   C2B 7784  18.760   6.800   8.430
  188POPC   C3B 7785  18.640   6.836   7.984
  188POPC   C4B 7786  18.617   7.011   7.549
  189POPC   NC3 7787  35.324  14.514   9.370
  189POPC   PO4 7788  35.162  13.932   9.474
  189POPC   GL1 7789  35.296  13.989   9.043
  189POPC   GL2 7790  35.585  14.153   9.050
  189POPC   C1A 7791  35.275  14.342   8.693
  189POPC   D2A 7792  35.290  14.606   8.293
  189POPC   C3A 7793  35.193  14.279   7.964
  189POPC   C4A 7794  35.007  14.306   7.511
  189POPC   C1B 7795  35.774  14.427   8.739
  189POPC   C2B 7796  35.686  14.306   8.329
  189POPC   C3B 7797  35.710  14.467   7.924
  189POPC   C4B 7798  35.500  14.319   7.561
  190POPC   NC3 7799   0.737   4.115   9.470
  190POPC   PO4 7800   1.197   4.614   9.439
  190POPC   GL1 7801   1.271   4.425   9.074
  190POPC   GL2 7802   1.138   4.087   9.131
  190POPC   C1A 7803   1.373   4.318   8.686
  190POPC   D2A 7804   1.159   4.027   8.426
  190POPC   C3A 7805   1.188   4.144   8.028
  190POPC   C4A 7806   1.242   4.329   7.642
  190POPC   C1B 7807   1.472   3.869   8.910
  190POPC   C2B 7808   1.553   3.686   8.508
  190POPC   C3B 7809   1.481   3.712   8.064
  190POPC   C4B 7810   1.592   3.976   7.742
  191POPC   NC3 7811  25.584  16.256   9.577
  191POPC   PO4 7812  24.931  16.051   9.566
  191POPC   GL1 7813  25.212  16.079   9.240
  191POPC   GL2 7814  25.248  15.730   9.222
  191POPC   C1A 7815  25.213  16.142   8.798
  191POPC   D2A 7816  24.960  16.131   8.408
  191POPC   C3A 7817  25.124  15.952   8.005
  191POPC   C4A 7818  25.077  15.922   7.554
  191POPC   C1B 7819  25.438  15.677   8.837
  191POPC   C2B 7820  25.364  15.782   8.431
  191POPC   C3B 7821  25.556  15.673   8.041
  191POPC   C4B 7822  25.552  15.805   7.634
  192POPC   NC3 7823  13.314  15.896   9.863
  192POPC   PO4 7824  13.773  16.235   9.484
  192POPC   GL1 7825  13.682  15.981   9.122
  192POPC   GL2 7826  13.887  15.685   9.086
  192POPC   C1A 7827  13.497  16.113   8.718
  192POPC   D2A 7828  13.466  15.970   8.300
  192POPC   C3A 7829  13.565  16.209   7.940
  192POPC   C4A 7830  13.794  16.076   7.584
  192POPC   C1B 7831  13.921  15.739   8.641
  192POPC   C2B 7832  13.949  15.759   8.195
  192POPC   C3B 7833  14.039  15.698   7.771
  192POPC   C4B 7834  13.782  15.590   7.393
  193POPC   NC3 7835   1.944  15.871   9.544
  193POPC   PO4 7836   2.455  15.631   9.327
  193POPC   GL1 7837   2.123  15.635   9.080
  193POPC   GL2 7838   1.789  15.756   9.067
  193POPC   C1A 7839   2.157  15.767   8.659
  193POPC   D2A 7840   1.877  15.749   8.322
  193POPC   C3A 7841   2.063  15.850   7.912
  193POPC   C4A 7842   2.048  15.740   7.498
  193POPC   C1B 7843   1.768  16.100   8.752
  193POPC   C2B 7844   1.763  16.237   8.306
  193POPC   C3B 7845   1.616  16.063   7.923
  193POPC   C4B 7846   1.729  16.125   7.529
  194POPC   NC3 7847  32.723  44.469   9.789
  194POPC   PO4 7848  32.883   0.133   9.629
  194POPC   GL1 7849  33.050  44.965   9.210
  194POPC   GL2 7850  33.414  44.844   9.206
  194POPC   C1A 7851  33.058  44.591   8.925
  194POPC   D2A 7852  32.925  44.393   8.515
  194POPC   C3A 7853  33.025  44.587   8.135
  194POPC   C4A 7854  32.890  44.781   7.761
  194POPC   C1B 7855  33.364   0.008   8.775
  194POPC   C2B 7856  33.439  44.859   8.337
  194POPC   C3B 7857  33.361   0.045   7.929
  194POPC   C4B 7858  33.305  44.952   7.481
  195POPC   NC3 7859  39.587  15.475   9.462
  195POPC   PO4 7860  38.971  15.066   9.533
  195POPC   GL1 7861  39.151  15.065   9.162
  195POPC   GL2 7862  39.149  15.436   9.154
  195POPC   C1A 7863  39.420  15.141   8.804
  195POPC   D2A 7864  39.498  15.400   8.425
  195POPC   C3A 7865  39.386  15.173   8.066
  195POPC   C4A 7866  39.286  15.169   7.636
  195POPC   C1B 7867  39.066  15.517   8.712
  195POPC   C2B 7868  38.960  15.370   8.292
  195POPC   C3B 7869  39.098  15.570   7.902
  195POPC   C4B 7870  39.095  15.616   7.451
  196POPC   NC3 7871  24.892  39.082   9.803
  196POPC   PO4 7872  25.546  38.937   9.693
  196POPC   GL1 7873  25.239  39.117   9.353
  196POPC   GL2 7874  25.264  39.478   9.410
  196POPC   C1A 7875  25.085  39.169   8.885
  196POPC   D2A 7876  24.971  39.261   8.389
  196POPC   C3A 7877  25.135  39.147   7.930
  196POPC   C4A 7878  24.925  39.115   7.499
  196POPC   C1B 7879  25.458  39.531   9.015
  196POPC   C2B 7880  25.397  39.442   8.584
  196POPC   C3B 7881  25.466  39.463   8.162
  196POPC   C4B 7882  25.477  39.496   7.732
  197POPC   NC3 7883   9.354  37.565   9.296
  197POPC   PO4 7884   9.956  37.853   9.642
  197POPC   GL1 7885  10.001  37.665   9.251
  197POPC   GL2 7886   9.753  37.819   9.095
  197POPC   C1A 7887  10.123  37.626   8.793
  197POPC   D2A 7888   9.880  37.593   8.411
  197POPC   C3A 7889   9.976  37.674   7.985
  197POPC   C4A 7890  10.076  37.424   7.609
  197POPC   C1B 7891   9.725  38.025   8.686
  197POPC   C2B 7892   9.539  37.934   8.266
  197POPC   C3B 7893   9.479  37.575   8.049
  197POPC   C4B 7894   9.559  37.538   7.635
  198POPC   NC3 7895  17.352   8.448   9.505
  198POPC   PO4 7896  17.337   7.786   9.405
  198POPC   GL1 7897  17.586   7.932   9.044
  198POPC   GL2 7898  17.633   8.278   9.078
  198POPC   C1A 7899  17.661   8.021   8.602
  198POPC   D2A 7900  17.497   7.944   8.192
  198POPC   C3A 7901  17.407   8.190   7.799
  198POPC   C4A 7902  17.164   7.948   7.485
  198POPC   C1B 7903  17.916   8.438   8.748
  198POPC   C2B 7904  17.780   8.480   8.334
  198POPC   C3B 7905  17.915   8.567   7.894
  198POPC   C4B 7906  17.897   8.406   7.448
  199POPC   NC3 7907  22.437  35.968   9.681
  199POPC   PO4 7908  23.059  36.282   9.527
  199POPC   GL1 7909  22.988  36.101   9.165
  199POPC   GL2 7910  22.746  36.275   9.033
  199POPC   C1A 7911  23.154  36.130   8.753
  199POPC   D2A 7912  22.814  36.123   8.448
  199POPC   C3A 7913  22.940  36.094   8.051
  199POPC   C4A 7914  22.653  36.073   7.731
  199POPC   C1B 7915  22.873  36.558   8.682
  199POPC   C2B 7916  22.900  36.614   8.243
  199POPC   C3B 7917  22.623  36.545   7.919
  199POPC   C4B 7918  22.666  36.465   7.435
  200POPC   NC3 7919   8.746   5.124   9.441
  200POPC   PO4 7920   9.382   5.398   9.488
  200POPC   GL1 7921   9.134   5.335   9.146
  200POPC   GL2 7922   9.134   4.973   9.144
  200POPC   C1A 7923   8.851   5.282   8.805
  200POPC   D2A 7924   8.553   5.298   8.492
  200POPC   C3A 7925   8.696   5.332   8.057
  200POPC   C4A 7926   9.034   5.391   7.737
  200POPC   C1B 7927   9.120   4.841   8.747
  200POPC   C2B 7928   8.972   5.029   8.372
  200POPC   C3B 7929   9.004   4.921   7.939
  200POPC   C4B 7930   8.885   4.976   7.469
  201POPC   NC3 7931  22.389  26.690   9.427
  201POPC   PO4 7932  21.861  26.478   9.753
  201POPC   GL1 7933  21.867  26.689   9.346
  201POPC   GL2 7934  21.766  26.997   9.217
  201POPC   C1A 7935  21.904  26.587   8.892
  201POPC   D2A 7936  21.791  26.708   8.469
  201POPC   C3A 7937  22.111  26.623   8.149
  201POPC   C4A 7938  22.168  26.778   7.731
  201POPC   C1B 7939  21.971  27.089   8.808
  201POPC   C2B 7940  22.091  27.115   8.362
  201POPC   C3B 7941  21.815  27.044   8.009
  201POPC   C4B 7942  21.802  27.219   7.606
  202POPC   NC3 7943  15.299  42.207   9.795
  202POPC   PO4 7944  15.186  42.812   9.597
  202POPC   GL1 7945  15.280  42.568   9.239
  202POPC   GL2 7946  15.246  42.194   9.281
  202POPC   C1A 7947  15.097  42.668   8.850
  202POPC   D2A 7948  15.231  42.574   8.454
  202POPC   C3A 7949  14.974  42.636   8.083
  202POPC   C4A 7950  15.026  42.410   7.684
  202POPC   C1B 7951  15.321  42.187   8.840
  202POPC   C2B 7952  15.397  42.056   8.412
  202POPC   C3B 7953  15.227  41.994   7.988
  202POPC   C4B 7954  15.417  42.053   7.596
  203POPC   NC3 7955  44.719   8.638   9.452
  203POPC   PO4 7956  44.364   9.093   9.769
  203POPC   GL1 7957  44.367   9.001   9.285
  203POPC   GL2 7958  44.402   9.321   9.116
  203POPC   C1A 7959  44.607   8.890   8.851
  203POPC   D2A 7960  44.870   9.019   8.485
  203POPC   C3A 7961  44.783   8.853   8.086
  203POPC   C4A 7962  44.510   8.745   7.768
  203POPC   C1B 7963  44.649   9.415   8.764
  203POPC   C2B 7964  44.552   9.443   8.336
  203POPC   C3B 7965  44.531   9.289   7.910
  203POPC   C4B 7966  44.346   9.143   7.509
  204POPC   NC3 7967   1.322   9.512   9.429
  204POPC   PO4 7968   0.821  10.106   9.405
  204POPC   GL1 7969   0.982   9.756   9.085
  204POPC   GL2 7970   0.950   9.338   9.103
  204POPC   C1A 7971   1.186   9.916   8.681
  204POPC   D2A 7972   0.978  10.013   8.257
  204POPC   C3A 7973   1.251   9.937   7.874
  204POPC   C4A 7974   1.326   9.850   7.401
  204POPC   C1B 7975   1.046   9.443   8.696
  204POPC   C2B 7976   1.165   9.517   8.257
  204POPC   C3B 7977   0.910   9.557   7.880
  204POPC   C4B 7978   0.935   9.519   7.422
  205POPC   NC3 7979  11.831  37.205   9.593
  205POPC   PO4 7980  11.799  36.626   9.365
  205POPC   GL1 7981  11.947  37.022   9.128
  205POPC   GL2 7982  12.241  37.224   9.196
  205POPC   C1A 7983  12.076  37.088   8.712
  205POPC   D2A 7984  11.836  36.971   8.367
  205POPC   C3A 7985  11.891  37.136   7.994
  205POPC   C4A 7986  11.654  36.957   7.655
  205POPC   C1B 7987  12.514  37.352   8.837
  205POPC   C2B 7988  12.414  37.368   8.394
  205POPC   C3B 7989  12.409  37.175   7.955
  205POPC   C4B 7990  12.563  37.032   7.514
  206POPC   NC3 7991   3.965  31.942   9.430
  206POPC   PO4 7992   4.552  32.364   9.629
  206POPC   GL1 7993   4.558  32.159   9.232
  206POPC   GL2 7994   4.262  32.254   9.129
  206POPC   C1A 7995   4.612  32.159   8.779
  206POPC   D2A 7996   4.355  32.295   8.461
  206POPC   C3A 7997   4.596  32.246   8.099
  206POPC   C4A 7998   4.407  32.114   7.722
  206POPC   C1B 7999   4.010  32.090   8.794
  206POPC   C2B 8000   3.851  32.185   8.399
  206POPC   C3B 8001   4.042  32.318   8.047
  206POPC   C4B 8002   3.909  32.188   7.659
  207POPC   NC3 8003  34.262  36.788   9.830
  207POPC   PO4 8004  34.836  36.583   9.645
  207POPC   GL1 8005  34.713  36.719   9.188
  207POPC   GL2 8006  34.475  37.010   9.194
  207POPC   C1A 8007  34.594  36.616   8.718
  207POPC   D2A 8008  34.401  36.623   8.277
  207POPC   C3A 8009  34.534  36.813   7.895
  207POPC   C4A 8010  34.674  36.617   7.515
  207POPC   C1B 8011  34.314  37.031   8.743
  207POPC   C2B 8012  34.444  37.131   8.296
  207POPC   C3B 8013  34.227  37.216   7.880
  207POPC   C4B 8014  34.310  37.398   7.465
  208POPC   NC3 8015  37.490  21.604   9.459
  208POPC   PO4 8016  37.928  21.094   9.669
  208POPC   GL1 8017  37.802  21.243   9.271
  208POPC   GL2 8018  38.002  21.527   9.283
  208POPC   C1A 8019  37.618  21.342   8.852
  208POPC   D2A 8020  37.759  21.432   8.423
  208POPC   C3A 8021  37.643  21.275   8.024
  208POPC   C4A 8022  37.404  21.458   7.748
  208POPC   C1B 8023  38.152  21.386   8.884
  208POPC   C2B 8024  38.286  21.477   8.469
  208POPC   C3B 8025  38.133  21.429   8.048
  208POPC   C4B 8026  37.945  21.490   7.649
  209POPC   NC3 8027  25.400  27.402   9.618
  209POPC   PO4 8028  25.338  28.069   9.375
  209POPC   GL1 8029  25.150  27.777   9.119
  209POPC   GL2 8030  25.199  27.387   9.144
  209POPC   C1A 8031  25.158  27.935   8.697
  209POPC   D2A 8032  25.450  27.846   8.370
  209POPC   C3A 8033  25.214  27.827   8.004
  209POPC   C4A 8034  25.363  27.830   7.605
  209POPC   C1B 8035  25.364  27.474   8.732
  209POPC   C2B 8036  25.142  27.426   8.334
  209POPC   C3B 8037  25.082  27.349   7.876
  209POPC   C4B 8038  25.217  27.384   7.432
  210POPC   NC3 8039  24.901  28.080   9.515
  210POPC   PO4 8040  25.479  28.593   9.507
  210POPC   GL1 8041  25.418  28.484   9.063
  210POPC   GL2 8042  25.077  28.315   9.036
  210POPC   C1A 8043  25.287  28.504   8.618
  210POPC   D2A 8044  25.154  28.259   8.270
  210POPC   C3A 8045  25.404  28.265   7.853
  210POPC   C4A 8046  25.503  28.274   7.355
  210POPC   C1B 8047  24.793  28.459   8.754
  210POPC   C2B 8048  24.812  28.638   8.362
  210POPC   C3B 8049  25.038  28.661   7.966
  210POPC   C4B 8050  25.323  28.686   7.601
  211POPC   NC3 8051  34.929  17.542   9.472
  211POPC   PO4 8052  34.387  17.139   9.620
  211POPC   GL1 8053  34.509  17.352   9.211
  211POPC   GL2 8054  34.545  17.727   9.181
  211POPC   C1A 8055  34.592  17.450   8.755
  211POPC   D2A 8056  34.426  17.505   8.347
  211POPC   C3A 8057  34.712  17.349   8.041
  211POPC   C4A 8058  34.581  17.217   7.637
  211POPC   C1B 8059  34.811  17.920   8.831
  211POPC   C2B 8060  34.839  17.816   8.372
  211POPC   C3B 8061  34.865  17.940   7.925
  211POPC   C4B 8062  34.860  17.649   7.547
  212POPC   NC3 8063  22.250  10.987   9.505
  212POPC   PO4 8064  21.884  10.407   9.577
  212POPC   GL1 8065  22.005  10.492   9.155
  212POPC   GL2 8066  22.340  10.589   9.146
  212POPC   C1A 8067  22.089  10.618   8.699
  212POPC   D2A 8068  22.274  10.587   8.257
  212POPC   C3A 8069  22.020  10.596   7.878
  212POPC   C4A 8070  21.856  10.248   7.614
  212POPC   C1B 8071  22.435  10.202   8.872
  212POPC   C2B 8072  22.587   9.939   8.489
  212POPC   C3B 8073  22.574  10.177   8.102
  212POPC   C4B 8074  22.420  10.316   7.715
  213POPC   NC3 8075  32.184  20.284   9.646
  213POPC   PO4 8076  32.072  20.925   9.626
  213POPC   GL1 8077  32.052  20.620   9.273
  213POPC   GL2 8078  32.430  20.577   9.305
  213POPC   C1A 8079  32.002  20.471   8.838
  213POPC   D2A 8080  32.153  20.300   8.390
  213POPC   C3A 8081  32.001  20.489   7.965
  213POPC   C4A 8082  31.970  20.581   7.521
  213POPC   C1B 8083  32.490  20.628   8.874
  213POPC   C2B 8084  32.223  20.834   8.565
  213POPC   C3B 8085  32.254  20.908   8.136
  213POPC   C4B 8086  32.393  20.774   7.729
  214POPC   NC3 8087  12.217  20.433   9.630
  214POPC   PO4 8088  11.594  20.741   9.463
  214POPC   GL1 8089  11.969  20.758   9.195
  214POPC   GL2 8090  12.122  20.433   9.137
  214POPC   C1A 8091  11.936  20.700   8.740
  214POPC   D2A 8092  12.036  20.798   8.330
  214POPC   C3A 8093  11.887  20.800   7.911
  214POPC   C4A 8094  12.152  20.986   7.577
  214POPC   C1B 8095  12.286  20.297   8.755
  214POPC   C2B 8096  12.068  20.291   8.362
  214POPC   C3B 8097  12.040  20.318   7.925
  214POPC   C4B 8098  12.465  20.291   7.772
  215POPC   NC3 8099  24.682  11.313   9.466
  215POPC   PO4 8100  24.216  10.826   9.688
  215POPC   GL1 8101  24.356  10.973   9.225
  215POPC   GL2 8102  24.706  10.911   9.141
  215POPC   C1A 8103  24.361  11.022   8.752
  215POPC   D2A 8104  24.321  11.038   8.278
  215POPC   C3A 8105  24.355  11.437   8.035
  215POPC   C4A 8106  24.503  11.668   7.666
  215POPC   C1B 8107  24.782  11.280   8.836
  215POPC   C2B 8108  24.747  11.356   8.412
  215POPC   C3B 8109  24.885  11.518   8.031
  215POPC   C4B 8110  24.967  11.225   7.725
  216POPC   NC3 8111   9.660  27.822   9.567
  216POPC   PO4 8112  10.117  27.300   9.491
  216POPC   GL1 8113   9.977  27.510   9.150
  216POPC   GL2 8114  10.117  27.819   9.228
  216POPC   C1A 8115   9.651  27.556   8.835
  216POPC   D2A 8116   9.594  27.820   8.481
  216POPC   C3A 8117   9.679  27.725   8.057
  216POPC   C4A 8118   9.696  27.981   7.660
  216POPC   C1B 8119  10.039  27.869   8.769
  216POPC   C2B 8120  10.101  27.684   8.353
  216POPC   C3B 8121  10.145  27.838   7.922
  216POPC   C4B 8122   9.971  27.572   7.577
  217POPC   NC3 8123  12.474   6.711   9.449
  217POPC   PO4 8124  13.054   6.387   9.233
  217POPC   GL1 8125  12.874   6.770   9.136
  217POPC   GL2 8126  13.184   6.907   9.260
  217POPC   C1A 8127  12.536   6.926   8.835
  217POPC   D2A 8128  12.545   6.633   8.531
  217POPC   C3A 8129  12.697   6.718   8.132
  217POPC   C4A 8130  12.723   6.409   7.843
  217POPC   C1B 8131  13.360   6.811   8.857
  217POPC   C2B 8132  13.092   6.736   8.510
  217POPC   C3B 8133  13.228   6.735   8.114
  217POPC   C4B 8134  13.256   6.435   7.809
  218POPC   NC3 8135   3.763  37.864   9.540
  218POPC   PO4 8136   3.390  37.380   9.535
  218POPC   GL1 8137   3.717  37.443   9.208
  218POPC   GL2 8138   3.777  37.799   9.042
  218POPC   C1A 8139   3.767  37.358   8.791
  218POPC   D2A 8140   3.753  37.705   8.490
  218POPC   C3A 8141   3.812  37.523   8.085
  218POPC   C4A 8142   3.539  37.536   7.761
  218POPC   C1B 8143   3.383  37.919   8.827
  218POPC   C2B 8144   3.303  38.110   8.382
  218POPC   C3B 8145   3.499  37.998   7.978
  218POPC   C4B 8146   3.466  38.001   7.494
  219POPC   NC3 8147  37.497  44.663   9.439
  219POPC   PO4 8148  38.142  44.473   9.449
  219POPC   GL1 8149  37.891  44.576   9.131
  219POPC   GL2 8150  37.977  44.866   9.124
  219POPC   C1A 8151  37.633  44.549   8.755
  219POPC   D2A 8152  37.780  44.493   8.331
  219POPC   C3A 8153  37.571  44.598   7.960
  219POPC   C4A 8154  37.700  44.607   7.548
  219POPC   C1B 8155  38.099   0.019   8.810
  219POPC   C2B 8156  37.834   0.000   8.481
  219POPC   C3B 8157  37.932  44.919   8.093
  219POPC   C4B 8158  37.949   0.020   7.728
  220POPC   NC3 8159  15.844   2.871   9.529
  220POPC   PO4 8160  15.596   2.254   9.387
  220POPC   GL1 8161  15.697   2.644   9.089
  220POPC   GL2 8162  16.010   2.896   9.055
  220POPC   C1A 8163  15.672   2.838   8.669
  220POPC   D2A 8164  15.787   2.544   8.345
  220POPC   C3A 8165  15.624   2.620   7.955
  220POPC   C4A 8166  15.743   2.582   7.531
  220POPC   C1B 8167  16.146   2.688   8.697
  220POPC   C2B 8168  16.074   2.946   8.281
  220POPC   C3B 8169  16.121   2.712   7.871
  220POPC   C4B 8170  16.116   2.865   7.399
  221POPC   NC3 8171  31.491   1.556   9.576
  221POPC   PO4 8172  31.092   2.095   9.641
  221POPC   GL1 8173  31.383   1.982   9.238
  221POPC   GL2 8174  31.611   2.250   9.097
  221POPC   C1A 8175  31.435   1.879   8.777
  221POPC   D2A 8176  31.209   1.882   8.361
  221POPC   C3A 8177  31.415   1.889   7.950
  221POPC   C4A 8178  31.817   1.720   7.770
  221POPC   C1B 8179  31.375   2.383   8.768
  221POPC   C2B 8180  31.490   2.401   8.350
  221POPC   C3B 8181  31.421   2.432   7.923
  221POPC   C4B 8182  31.473   2.240   7.554
  222POPC   NC3 8183   6.867  37.688   9.426
  222POPC   PO4 8184   7.362  37.964   9.847
  222POPC   GL1 8185   7.491  37.916   9.353
  222POPC   GL2 8186   7.211  37.845   9.108
  222POPC   C1A 8187   7.643  37.834   8.875
  222POPC   D2A 8188   7.389  37.708   8.480
  222POPC   C3A 8189   7.540  37.748   8.046
  222POPC   C4A 8190   7.370  37.695   7.616
  222POPC   C1B 8191   7.120  37.437   8.865
  222POPC   C2B 8192   7.046  37.213   8.478
  222POPC   C3B 8193   7.111  37.422   8.066
  222POPC   C4B 8194   7.037  37.319   7.642
  223POPC   NC3 8195  23.944  32.293   9.745
  223POPC   PO4 8196  23.522  32.130   9.310
  223POPC   GL1 8197  23.784  32.373   9.079
  223POPC   GL2 8198  24.003  32.158   8.955
  223POPC   C1A 8199  23.552  32.466   8.706
  223POPC   D2A 8200  23.494  32.226   8.312
  223POPC   C3A 8201  23.703  32.320   7.919
  223POPC   C4A 8202  23.981  32.554   7.679
  223POPC   C1B 8203  24.009  32.254   8.538
  223POPC   C2B 8204  23.925  31.962   8.234
  223POPC   C3B 8205  23.682  31.784   7.964
  223POPC   C4B 8206  23.676  31.951   7.562
  224POPC   NC3 8207  38.522  36.282   9.510
  224POPC   PO4 8208  38.345  35.492   9.487
  224POPC   GL1 8209  38.432  35.869   9.204
  224POPC   GL2 8210  38.169  36.175   9.175
  224POPC   C1A 8211  38.564  36.082   8.843
  224POPC   D2A 8212  38.392  36.073   8.461
  224POPC   C3A 8213  38.569  35.929   8.101
  224POPC   C4A 8214  38.480  36.098   7.714
  224POPC   C1B 8215  38.117  36.408   8.770
  224POPC   C2B 8216  38.060  36.493   8.326
  224POPC   C3B 8217  38.092  36.492   7.874
  224POPC   C4B 8218  38.169  36.553   7.443
  225POPC   NC3 8219  32.890  20.408   9.531
  225POPC   PO4 8220  33.153  20.881   9.394
  225POPC   GL1 8221  33.095  20.583   9.077
  225POPC   GL2 8222  33.383  20.691   8.929
  225POPC   C1A 8223  32.955  20.384   8.671
  225POPC   D2A 8224  32.617  20.545   8.372
  225POPC   C3A 8225  32.731  20.452   7.929
  225POPC   C4A 8226  32.847  20.625   7.530
  225POPC   C1B 8227  33.045  20.871   8.645
  225POPC   C2B 8228  33.095  20.661   8.242
  225POPC   C3B 8229  33.286  20.621   7.848
  225POPC   C4B 8230  33.678  20.433   7.718
  226POPC   NC3 8231  22.080  19.642   9.534
  226POPC   PO4 8232  22.290  20.237   9.187
  226POPC   GL1 8233  22.323  19.787   9.047
  226POPC   GL2 8234  22.022  19.618   9.043
  226POPC   C1A 8235  22.276  19.515   8.638
  226POPC   D2A 8236  22.279  19.399   8.220
  226POPC   C3A 8237  22.342  19.722   7.899
  226POPC   C4A 8238  22.498  20.139   7.925
  226POPC   C1B 8239  21.956  19.923   8.699
  226POPC   C2B 8240  22.016  19.870   8.275
  226POPC   C3B 8241  21.941  20.099   7.912
  226POPC   C4B 8242  21.585  20.062   7.648
  227POPC   NC3 8243  23.817  25.859   9.351
  227POPC   PO4 8244  23.838  26.536   9.419
  227POPC   GL1 8245  23.776  26.311   9.060
  227POPC   GL2 8246  24.120  26.221   9.065
  227POPC   C1A 8247  23.486  26.253   8.675
  227POPC   D2A 8248  23.378  25.821   8.526
  227POPC   C3A 8249  23.392  25.861   8.097
  227POPC   C4A 8250  23.480  26.250   7.905
  227POPC   C1B 8251  23.915  25.959   8.727
  227POPC   C2B 8252  23.805  26.076   8.333
  227POPC   C3B 8253  24.041  26.152   8.036
  227POPC   C4B 8254  24.038  25.819   7.841
  228POPC   NC3 8255   8.668   1.587   9.699
  228POPC   PO4 8256   8.166   2.096   9.494
  228POPC   GL1 8257   8.432   1.958   9.168
  228POPC   GL2 8258   8.144   1.940   8.966
  228POPC   C1A 8259   8.570   2.142   8.766
  228POPC   D2A 8260   8.421   1.996   8.398
  228POPC   C3A 8261   8.425   2.259   8.077
  228POPC   C4A 8262   8.296   2.017   7.738
  228POPC   C1B 8263   7.879   1.645   8.770
  228POPC   C2B 8264   7.946   1.427   8.371
  228POPC   C3B 8265   7.980   1.665   7.959
  228POPC   C4B 8266   7.948   1.728   7.499
  229POPC   NC3 8267  21.834   7.305   9.408
  229POPC   PO4 8268  21.191   7.584   9.541
  229POPC   GL1 8269  21.323   7.596   9.171
  229POPC   GL2 8270  21.017   7.400   9.086
  229POPC   C1A 8271  21.593   7.803   8.863
  229POPC   D2A 8272  21.749   7.584   8.506
  229POPC   C3A 8273  21.460   7.589   8.142
  229POPC   C4A 8274  21.584   7.734   7.716
  229POPC   C1B 8275  21.278   7.455   8.689
  229POPC   C2B 8276  21.483   7.148   8.421
  229POPC   C3B 8277  21.540   7.115   7.992
  229POPC   C4B 8278  21.456   6.896   7.617
  230POPC   NC3 8279  15.552  11.131   9.323
  230POPC   PO4 8280  16.212  11.233   9.526
  230POPC   GL1 8281  16.005  11.309   9.140
  230POPC   GL2 8282  16.052  10.984   9.053
  230POPC   C1A 8283  15.842  11.271   8.700
  230POPC   D2A 8284  16.057  11.403   8.337
  230POPC   C3A 8285  15.850  11.266   7.990
  230POPC   C4A 8286  15.674  11.369   7.650
  230POPC   C1B 8287  16.085  10.829   8.667
  230POPC   C2B 8288  15.873  10.884   8.302
  230POPC   C3B 8289  16.070  10.812   7.877
  230POPC   C4B 8290  15.963  10.978   7.457
  231POPC   NC3 8291  19.899  41.494   9.483
  231POPC   PO4 8292  19.947  42.092   9.717
  231POPC   GL1 8293  19.956  41.944   9.198
  231POPC   GL2 8294  19.734  41.669   9.058
  231POPC   C1A 8295  20.114  41.712   8.751
  231POPC   D2A 8296  19.879  41.369   8.515
  231POPC   C3A 8297  19.979  41.317   8.073
  231POPC   C4A 8298  20.023  41.638   7.768
  231POPC   C1B 8299  19.375  41.654   8.821
  231POPC   C2B 8300  19.397  41.690   8.424
  231POPC   C3B 8301  19.499  41.527   8.065
  231POPC   C4B 8302  19.536  41.738   7.720
  232POPC   NC3 8303  38.868  33.091   9.495
  232POPC   PO4 8304  39.220  32.562   9.573
  232POPC   GL1 8305  39.246  32.851   9.205
  232POPC   GL2 8306  39.262  33.234   9.197
  232POPC   C1A 8307  39.295  32.936   8.763
  232POPC   D2A 8308  39.413  32.926   8.325
  232POPC   C3A 8309  39.132  32.769   8.000
  232POPC   C4A 8310  39.101  32.977   7.582
  232POPC   C1B 8311  39.079  33.404   8.810
  232POPC   C2B 8312  39.115  33.375   8.358
  232POPC   C3B 8313  38.985  33.566   7.950
  232POPC   C4B 8314  39.008  33.476   7.493
  233POPC   NC3 8315   8.754  29.785   9.359
  233POPC   PO4 8316   9.345  30.004   9.636
  233POPC   GL1 8317   9.290  29.850   9.212
  233POPC   GL2 8318   9.124  29.549   9.072
  233POPC   C1A 8319   9.310  29.941   8.767
  233POPC   D2A 8320   9.168  29.711   8.436
  233POPC   C3A 8321   8.820  29.891   8.275
  233POPC   C4A 8322   8.735  30.069   7.899
  233POPC   C1B 8323   8.760  29.635   8.731
  233POPC   C2B 8324   8.465  29.551   8.355
  233POPC   C3B 8325   8.663  29.565   7.910
  233POPC   C4B 8326   9.123  29.660   7.906
  234POPC   NC3 8327  25.563   5.688   9.283
  234POPC   PO4 8328  25.489   6.274   9.643
  234POPC   GL1 8329  25.186   6.129   9.249
  234POPC   GL2 8330  25.244   5.889   8.960
  234POPC   C1A 8331  24.963   6.261   8.831
  234POPC   D2A 8332  24.916   5.896   8.509
  234POPC   C3A 8333  25.065   5.843   8.065
  234POPC   C4A 8334  25.121   5.964   7.618
  234POPC   C1B 8335  25.445   5.909   8.567
  234POPC   C2B 8336  25.555   5.952   8.146
  234POPC   C3B 8337  25.599   5.836   7.728
  234POPC   C4B 8338  25.544   5.987   7.305
  235POPC   NC3 8339  26.758   6.265   9.386
  235POPC   PO4 8340  27.141   6.763   9.578
  235POPC   GL1 8341  26.941   6.740   9.183
  235POPC   GL2 8342  27.076   6.470   9.029
  235POPC   C1A 8343  26.928   6.874   8.722
  235POPC   D2A 8344  27.095   6.813   8.290
  235POPC   C3A 8345  26.766   6.678   7.980
  235POPC   C4A 8346  26.646   6.693   7.525
  235POPC   C1B 8347  26.688   6.404   8.770
  235POPC   C2B 8348  26.707   6.320   8.351
  235POPC   C3B 8349  27.113   6.324   8.107
  235POPC   C4B 8350  27.328   6.379   7.709
  236POPC   NC3 8351  35.948  14.766   9.547
  236POPC   PO4 8352  36.026  15.435   9.529
  236POPC   GL1 8353  36.098  15.311   9.133
  236POPC   GL2 8354  36.244  14.981   9.129
  236POPC   C1A 8355  36.229  15.378   8.707
  236POPC   D2A 8356  36.194  15.135   8.334
  236POPC   C3A 8357  36.230  15.371   7.969
  236POPC   C4A 8358  36.297  15.549   7.539
  236POPC   C1B 8359  35.991  14.910   8.769
  236POPC   C2B 8360  35.810  14.797   8.353
  236POPC   C3B 8361  35.764  14.974   7.945
  236POPC   C4B 8362  35.996  15.141   7.597
  237POPC   NC3 8363  10.892  10.429   9.487
  237POPC   PO4 8364  11.491  10.248   9.256
  237POPC   GL1 8365  11.432  10.542   9.009
  237POPC   GL2 8366  11.076  10.654   9.048
  237POPC   C1A 8367  11.556  10.467   8.605
  237POPC   D2A 8368  11.650  10.311   8.229
  237POPC   C3A 8369  11.388  10.590   7.926
  237POPC   C4A 8370  11.266  11.017   7.752
  237POPC   C1B 8371  11.055  10.317   8.754
  237POPC   C2B 8372  11.127  10.325   8.334
  237POPC   C3B 8373  10.887  10.518   8.030
  237POPC   C4B 8374  10.944  10.661   7.625
  238POPC   NC3 8375   7.686  29.946   9.506
  238POPC   PO4 8376   6.985  29.986   9.485
  238POPC   GL1 8377   7.266  30.038   9.125
  238POPC   GL2 8378   7.595  30.218   9.076
  238POPC   C1A 8379   7.217  29.957   8.689
  238POPC   D2A 8380   7.171  29.625   8.420
  238POPC   C3A 8381   7.202  29.775   8.024
  238POPC   C4A 8382   7.374  30.051   7.722
  238POPC   C1B 8383   7.685  30.122   8.666
  238POPC   C2B 8384   7.495  30.159   8.263
  238POPC   C3B 8385   7.714  30.354   7.945
  238POPC   C4B 8386   7.918  30.190   7.626
  239POPC   NC3 8387   2.800   3.191   9.521
  239POPC   PO4 8388   2.654   2.572   9.383
  239POPC   GL1 8389   2.653   2.953   9.090
  239POPC   GL2 8390   2.945   3.181   9.014
  239POPC   C1A 8391   2.650   2.958   8.647
  239POPC   D2A 8392   2.483   2.714   8.325
  239POPC   C3A 8393   2.504   2.960   7.982
  239POPC   C4A 8394   2.564   2.801   7.586
  239POPC   C1B 8395   3.073   3.328   8.591
  239POPC   C2B 8396   2.857   3.293   8.165
  239POPC   C3B 8397   2.995   3.010   7.787
  239POPC   C4B 8398   3.002   2.822   7.345
  240POPC   NC3 8399  23.148   3.642   9.570
  240POPC   PO4 8400  23.427   4.123   9.310
  240POPC   GL1 8401  23.124   3.857   9.095
  240POPC   GL2 8402  22.822   3.776   9.186
  240POPC   C1A 8403  23.007   3.613   8.729
  240POPC   D2A 8404  23.222   3.671   8.330
  240POPC   C3A 8405  22.953   3.658   7.982
  240POPC   C4A 8406  22.873   3.488   7.571
  240POPC   C1B 8407  22.672   4.000   8.835
  240POPC   C2B 8408  22.672   3.955   8.412
  240POPC   C3B 8409  22.576   4.020   7.995
  240POPC   C4B 8410  22.794   3.994   7.634
  241POPC   NC3 8411  31.420  17.568   9.582
  241POPC   PO4 8412  31.361  17.053   9.363
  241POPC   GL1 8413  31.407  17.445   9.076
  241POPC   GL2 8414  31.378  17.824   9.131
  241POPC   C1A 8415  31.297  17.584   8.661
  241POPC   D2A 8416  31.344  17.387   8.261
  241POPC   C3A 8417  31.352  17.576   7.859
  241POPC   C4A 8418  31.445  17.366   7.427
  241POPC   C1B 8419  31.740  17.777   8.838
  241POPC   C2B 8420  31.753  17.704   8.382
  241POPC   C3B 8421  31.743  17.904   7.959
  241POPC   C4B 8422  31.575  17.858   7.498
  242POPC   NC3 8423  31.216   8.961   9.522
  242POPC   PO4 8424  31.880   8.814   9.423
  242POPC   GL1 8425  31.637   8.620   9.114
  242POPC   GL2 8426  31.331   8.755   9.064
  242POPC   C1A 8427  31.603   8.632   8.644
  242POPC   D2A 8428  31.642   8.974   8.351
  242POPC   C3A 8429  31.612   8.876   7.924
  242POPC   C4A 8430  31.764   8.627   7.587
  242POPC   C1B 8431  31.157   8.896   8.640
  242POPC   C2B 8432  31.151   9.104   8.194
  242POPC   C3B 8433  31.291   9.284   7.770
  242POPC   C4B 8434  31.205   9.302   7.305
  243POPC   NC3 8435  28.205   1.718   9.483
  243POPC   PO4 8436  28.228   2.332   9.600
  243POPC   GL1 8437  28.323   2.151   9.175
  243POPC   GL2 8438  28.553   1.884   9.083
  243POPC   C1A 8439  28.421   2.265   8.723
  243POPC   D2A 8440  28.303   2.435   8.291
  243POPC   C3A 8441  28.027   2.103   8.059
  243POPC   C4A 8442  27.844   1.977   7.614
  243POPC   C1B 8443  28.727   1.832   8.669
  243POPC   C2B 8444  28.522   1.972   8.291
  243POPC   C3B 8445  28.503   2.129   7.863
  243POPC   C4B 8446  28.338   1.887   7.511
  244POPC   NC3 8447  19.054  39.356   9.531
  244POPC   PO4 8448  18.672  38.745   9.513
  244POPC   GL1 8449  18.826  39.036   9.090
  244POPC   GL2 8450  18.935  39.402   9.055
  244POPC   C1A 8451  18.691  39.261   8.667
  244POPC   D2A 8452  19.021  39.373   8.364
  244POPC   C3A 8453  18.990  39.131   8.032
  244POPC   C4A 8454  19.062  38.866   7.705
  244POPC   C1B 8455  19.315  39.322   8.817
  244POPC   C2B 8456  19.542  39.576   8.509
  244POPC   C3B 8457  19.440  39.611   8.090
  244POPC   C4B 8458  19.355  39.328   7.747
  245POPC   NC3 8459  37.065  16.381   9.497
  245POPC   PO4 8460  37.519  15.780   9.572
  245POPC   GL1 8461  37.544  15.900   9.145
  245POPC   GL2 8462  37.875  15.955   9.030
  245POPC   C1A 8463  37.455  16.208   8.800
  245POPC   D2A 8464  37.610  16.351   8.402
  245POPC   C3A 8465  37.446  16.226   8.028
  245POPC   C4A 8466  37.617  16.076   7.679
  245POPC   C1B 8467  37.683  15.762   8.656
  245POPC   C2B 8468  37.724  15.790   8.226
  245POPC   C3B 8469  38.050  15.995   8.028
  245POPC   C4B 8470  38.159  15.909   7.621
  246POPC   NC3 8471  42.108  30.655   9.545
  246POPC   PO4 8472  42.777  30.303   9.593
  246POPC   GL1 8473  42.503  30.548   9.224
  246POPC   GL2 8474  42.232  30.849   9.110
  246POPC   C1A 8475  42.410  30.565   8.766
  246POPC   D2A 8476  42.549  30.761   8.414
  246POPC   C3A 8477  42.325  30.686   8.032
  246POPC   C4A 8478  42.483  30.582   7.644
  246POPC   C1B 8479  41.959  30.888   8.746
  246POPC   C2B 8480  41.946  30.718   8.389
  246POPC   C3B 8481  41.842  30.971   8.067
  246POPC   C4B 8482  41.885  30.793   7.700
  247POPC   NC3 8483  12.292  18.912   9.738
  247POPC   PO4 8484  12.941  18.957   9.457
  247POPC   GL1 8485  12.864  19.220   9.163
  247POPC   GL2 8486  12.897  18.925   8.942
  247POPC   C1A 8487  12.791  19.371   8.751
  247POPC   D2A 8488  12.877  19.075   8.418
  247POPC   C3A 8489  12.719  19.252   8.035
  247POPC   C4A 8490  12.636  19.131   7.638
  247POPC   C1B 8491  13.208  18.724   8.641
  247POPC   C2B 8492  13.488  18.663   8.292
  247POPC   C3B 8493  13.289  18.587   7.908
  247POPC   C4B 8494  13.061  18.894   7.681
  248POPC   NC3 8495  18.887  14.671   9.453
  248POPC   PO4 8496  18.764  13.992   9.474
  248POPC   GL1 8497  18.977  14.264   9.141
  248POPC   GL2 8498  18.817  14.537   8.962
  248POPC   C1A 8499  19.250  14.210   8.776
  248POPC   D2A 8500  19.060  14.321   8.397
  248POPC   C3A 8501  19.288  14.305   8.008
  248POPC   C4A 8502  19.176  14.293   7.579
  248POPC   C1B 8503  18.547  14.397   8.645
  248POPC   C2B 8504  18.535  14.498   8.257
  248POPC   C3B 8505  18.781  14.359   7.955
  248POPC   C4B 8506  18.735  14.551   7.584
  249POPC   NC3 8507   6.477  12.255   9.493
  249POPC   PO4 8508   6.343  12.816   9.395
  249POPC   GL1 8509   6.400  12.541   9.038
  249POPC   GL2 8510   6.741  12.397   9.069
  249POPC   C1A 8511   6.303  12.645   8.604
  249POPC   D2A 8512   6.506  12.931   8.319
  249POPC   C3A 8513   6.585  12.868   7.864
  249POPC   C4A 8514   6.477  13.027   7.427
  249POPC   C1B 8515   6.808  12.587   8.645
  249POPC   C2B 8516   6.801  12.513   8.193
  249POPC   C3B 8517   7.007  12.514   7.774
  249POPC   C4B 8518   7.050  12.386   7.295
  250POPC   NC3 8519  26.865  23.137   9.380
  250POPC   PO4 8520  26.405  22.589   9.395
  250POPC   GL1 8521  26.568  22.872   9.083
  250POPC   GL2 8522  26.934  22.763   8.999
  250POPC   C1A 8523  26.595  23.012   8.681
  250POPC   D2A 8524  26.472  23.225   8.322
  250POPC   C3A 8525  26.655  23.067   7.955
  250POPC   C4A 8526  26.975  23.284   7.672
  250POPC   C1B 8527  27.201  22.436   8.777
  250POPC   C2B 8528  27.440  22.411   8.386
  250POPC   C3B 8529  27.420  22.594   7.990
  250POPC   C4B 8530  27.063  22.790   7.829
  251POPC   NC3 8531   8.572  23.871   9.844
  251POPC   PO4 8532   8.132  23.414   9.562
  251POPC   GL1 8533   8.188  23.644   9.130
  251POPC   GL2 8534   8.340  23.457   8.898
  251POPC   C1A 8535   8.274  23.976   8.829
  251POPC   D2A 8536   8.207  24.142   8.436
  251POPC   C3A 8537   8.082  23.891   8.092
  251POPC   C4A 8538   8.279  23.831   7.678
  251POPC   C1B 8539   8.029  23.607   8.572
  251POPC   C2B 8540   7.809  23.468   8.205
  251POPC   C3B 8541   8.030  23.413   7.823
  251POPC   C4B 8542   8.022  23.519   7.372
  252POPC   NC3 8543  39.440  19.485   9.513
  252POPC   PO4 8544  38.791  19.776   9.675
  252POPC   GL1 8545  39.109  19.879   9.346
  252POPC   GL2 8546  39.123  19.598   9.120
  252POPC   C1A 8547  39.213  20.043   8.917
  252POPC   D2A 8548  39.081  19.789   8.536
  252POPC   C3A 8549  39.343  19.846   8.153
  252POPC   C4A 8550  39.314  20.136   7.777
  252POPC   C1B 8551  39.313  19.386   8.774
  252POPC   C2B 8552  39.209  19.258   8.361
  252POPC   C3B 8553  38.992  19.499   8.057
  252POPC   C4B 8554  39.123  19.666   7.657
  253POPC   NC3 8555  25.281  19.685   9.542
  253POPC   PO4 8556  25.065  20.285   9.806
  253POPC   GL1 8557  25.380  20.281   9.339
  253POPC   GL2 8558  25.437  19.943   9.136
  253POPC   C1A 8559  25.337  20.301   8.810
  253POPC   D2A 8560  25.031  20.178   8.440
  253POPC   C3A 8561  25.112  20.094   7.975
  253POPC   C4A 8562  25.363  19.751   7.773
  253POPC   C1B 8563  25.165  19.772   8.749
  253POPC   C2B 8564  25.135  19.655   8.275
  253POPC   C3B 8565  24.886  19.594   7.878
  253POPC   C4B 8566  24.919  19.601   7.394
  254POPC   NC3 8567  14.918  12.991   9.465
  254POPC   PO4 8568  15.485  12.805   9.727
  254POPC   GL1 8569  15.424  12.783   9.280
  254POPC   GL2 8570  15.142  12.578   9.265
  254POPC   C1A 8571  15.446  12.852   8.813
  254POPC   D2A 8572  15.215  12.901   8.410
  254POPC   C3A 8573  15.372  12.932   7.963
  254POPC   C4A 8574  14.957  12.929   7.730
  254POPC   C1B 8575  15.154  12.434   8.892
  254POPC   C2B 8576  15.109  12.396   8.470
  254POPC   C3B 8577  15.073  12.523   8.051
  254POPC   C4B 8578  15.275  12.541   7.646
  255POPC   NC3 8579   8.647  26.052   9.450
  255POPC   PO4 8580   9.273  25.852   9.290
  255POPC   GL1 8581   8.956  26.023   9.032
  255POPC   GL2 8582   8.751  26.317   9.035
  255POPC   C1A 8583   8.811  26.069   8.604
  255POPC   D2A 8584   8.776  25.802   8.296
  255POPC   C3A 8585   9.162  25.795   8.087
  255POPC   C4A 8586   9.088  26.005   7.731
  255POPC   C1B 8587   8.468  26.435   8.664
  255POPC   C2B 8588   8.668  26.594   8.341
  255POPC   C3B 8589   8.797  26.287   8.087
  255POPC   C4B 8590   8.659  26.248   7.704
  256POPC   NC3 8591   3.694  40.833   9.693
  256POPC   PO4 8592   4.160  40.441   9.482
  256POPC   GL1 8593   4.094  40.482   9.015
  256POPC   GL2 8594   4.396  40.689   8.928
  256POPC   C1A 8595   4.154  40.512   8.539
  256POPC   D2A 8596   4.472  40.586   8.196
  256POPC   C3A 8597   4.236  40.731   7.823
  256POPC   C4A 8598   3.894  40.721   7.546
  256POPC   C1B 8599   4.343  40.980   8.565
  256POPC   C2B 8600   4.567  41.115   8.215
  256POPC   C3B 8601   4.368  41.210   7.850
  256POPC   C4B 8602   4.389  41.103   7.416
  257POPC   NC3 8603  23.961  41.899   9.472
  257POPC   PO4 8604  23.659  41.320   9.492
  257POPC   GL1 8605  23.929  41.268   9.150
  257POPC   GL2 8606  23.891  41.604   9.054
  257POPC   C1A 8607  24.035  41.259   8.697
  257POPC   D2A 8608  23.818  41.132   8.301
  257POPC   C3A 8609  23.979  41.215   7.866
  257POPC   C4A 8610  23.875  41.507   7.517
  257POPC   C1B 8611  23.635  41.690   8.680
  257POPC   C2B 8612  23.361  41.647   8.309
  257POPC   C3B 8613  23.320  41.788   7.891
  257POPC   C4B 8614  23.579  41.935   7.527
  258POPC   NC3 8615   8.985  28.862   9.666
  258POPC   PO4 8616   9.492  29.206   9.378
  258POPC   GL1 8617   9.329  29.069   9.010
  258POPC   GL2 8618   9.029  28.999   9.172
  258POPC   C1A 8619   9.034  29.206   8.691
  258POPC   D2A 8620   8.904  29.312   8.277
  258POPC   C3A 8621   9.068  29.094   7.936
  258POPC   C4A 8622   9.166  28.860   7.564
  258POPC   C1B 8623   8.659  28.942   8.940
  258POPC   C2B 8624   8.549  29.008   8.507
  258POPC   C3B 8625   8.514  28.749   8.137
  258POPC   C4B 8626   8.693  28.753   7.721
  259POPC   NC3 8627  23.345  27.911   9.383
  259POPC   PO4 8628  23.849  27.526   9.419
  259POPC   GL1 8629  23.503  27.433   9.147
  259POPC   GL2 8630  23.553  27.743   8.946
  259POPC   C1A 8631  23.367  27.324   8.717
  259POPC   D2A 8632  23.579  27.421   8.353
  259POPC   C3A 8633  23.443  27.371   7.970
  259POPC   C4A 8634  23.535  27.744   7.755
  259POPC   C1B 8635  23.876  27.442   8.777
  259POPC   C2B 8636  24.095  27.434   8.395
  259POPC   C3B 8637  23.954  27.557   7.987
  259POPC   C4B 8638  23.828  27.312   7.625
  260POPC   NC3 8639  37.953  13.212   9.336
  260POPC   PO4 8640  37.587  12.598   9.409
  260POPC   GL1 8641  37.832  12.764   9.112
  260POPC   GL2 8642  37.648  13.059   8.946
  260POPC   C1A 8643  37.930  12.681   8.719
  260POPC   D2A 8644  37.694  12.650   8.357
  260POPC   C3A 8645  37.837  12.510   7.952
  260POPC   C4A 8646  37.702  12.642   7.520
  260POPC   C1B 8647  37.986  13.185   8.669
  260POPC   C2B 8648  37.959  13.063   8.239
  260POPC   C3B 8649  37.925  13.033   7.800
  260POPC   C4B 8650  38.033  13.379   7.599
  261POPC   NC3 8651  23.413  35.947   9.509
  261POPC   PO4 8652  23.903  36.440   9.510
  261POPC   GL1 8653  23.764  36.195   9.192
  261POPC   GL2 8654  23.442  36.335   9.159
  261POPC   C1A 8655  23.672  36.094   8.772
  261POPC   D2A 8656  23.784  36.178   8.380
  261POPC   C3A 8657  23.487  36.046   8.081
  261POPC   C4A 8658  23.570  36.006   7.681
  261POPC   C1B 8659  23.444  36.567   8.790
  261POPC   C2B 8660  23.353  36.440   8.392
  261POPC   C3B 8661  23.329  36.529   7.957
  261POPC   C4B 8662  23.142  36.305   7.636
  262POPC   NC3 8663  10.154  10.118   9.538
  262POPC   PO4 8664  10.476  10.640   9.450
  262POPC   GL1 8665  10.479  10.341   9.147
  262POPC   GL2 8666  10.621  10.504   8.909
  262POPC   C1A 8667  10.268  10.244   8.680
  262POPC   D2A 8668  10.562  10.294   8.385
  262POPC   C3A 8669  10.386  10.382   7.990
  262POPC   C4A 8670  10.548  10.318   7.585
  262POPC   C1B 8671  10.808  10.720   8.546
  262POPC   C2B 8672  10.529  10.845   8.204
  262POPC   C3B 8673  10.500  10.844   7.756
  262POPC   C4B 8674  10.548  10.753   7.299
  263POPC   NC3 8675  41.029  33.635   9.552
  263POPC   PO4 8676  40.670  34.170   9.462
  263POPC   GL1 8677  40.817  33.910   9.171
  263POPC   GL2 8678  41.088  34.094   9.111
  263POPC   C1A 8679  40.954  33.627   8.855
  263POPC   D2A 8680  40.754  33.601   8.453
  263POPC   C3A 8681  41.005  33.629   8.089
  263POPC   C4A 8682  40.861  33.641   7.671
  263POPC   C1B 8683  40.969  34.097   8.691
  263POPC   C2B 8684  41.101  34.124   8.266
  263POPC   C3B 8685  40.986  34.113   7.830
  263POPC   C4B 8686  41.123  34.189   7.385
  264POPC   NC3 8687  34.869  42.314   9.479
  264POPC   PO4 8688  35.529  42.213   9.438
  264POPC   GL1 8689  35.232  42.098   9.106
  264POPC   GL2 8690  35.073  42.435   9.002
  264POPC   C1A 8691  35.264  41.997   8.653
  264POPC   D2A 8692  35.087  42.062   8.201
  264POPC   C3A 8693  35.335  42.136   7.830
  264POPC   C4A 8694  35.484  41.887   7.451
  264POPC   C1B 8695  35.516  42.461   8.845
  264POPC   C2B 8696  35.765  42.467   8.489
  264POPC   C3B 8697  35.632  42.459   8.093
  264POPC   C4B 8698  35.712  42.533   7.703
  265POPC   NC3 8699  38.559   1.107   9.546
  265POPC   PO4 8700  37.904   1.273   9.455
  265POPC   GL1 8701  38.203   1.086   9.193
  265POPC   GL2 8702  38.378   1.351   9.141
  265POPC   C1A 8703  38.478   0.938   8.819
  265POPC   D2A 8704  38.339   0.814   8.370
  265POPC   C3A 8705  38.621   0.959   8.020
  265POPC   C4A 8706  38.516   1.108   7.614
  265POPC   C1B 8707  38.476   1.466   8.765
  265POPC   C2B 8708  38.522   1.303   8.387
  265POPC   C3B 8709  38.446   1.450   7.967
  265POPC   C4B 8710  38.580   1.608   7.511
  266POPC   NC3 8711  39.315  39.638   9.319
  266POPC   PO4 8712  39.082  40.113   9.743
  266POPC   GL1 8713  39.030  40.108   9.238
  266POPC   GL2 8714  39.333  40.114   9.096
  266POPC   C1A 8715  38.999  39.891   8.800
  266POPC   D2A 8716  39.179  39.613   8.500
  266POPC   C3A 8717  39.152  39.685   8.082
  266POPC   C4A 8718  39.054  40.082   7.935
  266POPC   C1B 8719  39.364  40.314   8.681
  266POPC   C2B 8720  39.455  40.097   8.262
  266POPC   C3B 8721  39.531  40.045   7.773
  266POPC   C4B 8722  39.583  40.204   7.306
  267POPC   NC3 8723  36.516  25.787   9.656
  267POPC   PO4 8724  36.973  26.280   9.630
  267POPC   GL1 8725  36.791  26.157   9.216
  267POPC   GL2 8726  36.784  25.796   9.200
  267POPC   C1A 8727  36.945  26.195   8.769
  267POPC   D2A 8728  37.243  25.985   8.480
  267POPC   C3A 8729  37.090  26.001   8.060
  267POPC   C4A 8730  36.722  26.244   7.903
  267POPC   C1B 8731  36.923  25.684   8.792
  267POPC   C2B 8732  36.666  25.600   8.460
  267POPC   C3B 8733  36.619  25.759   8.065
  267POPC   C4B 8734  36.565  25.785   7.626
  268POPC   NC3 8735  22.350   5.947   9.609
  268POPC   PO4 8736  21.739   6.148   9.524
  268POPC   GL1 8737  21.967   6.013   9.157
  268POPC   GL2 8738  22.261   5.787   9.134
  268POPC   C1A 8739  21.934   5.944   8.718
  268POPC   D2A 8740  22.051   5.771   8.330
  268POPC   C3A 8741  21.981   5.697   7.912
  268POPC   C4A 8742  22.041   6.005   7.573
  268POPC   C1B 8743  22.438   5.949   8.789
  268POPC   C2B 8744  22.555   5.794   8.430
  268POPC   C3B 8745  22.456   5.874   8.043
  268POPC   C4B 8746  22.547   5.949   7.661
  269POPC   NC3 8747  34.267   4.636   9.614
  269POPC   PO4 8748  34.229   5.318   9.500
  269POPC   GL1 8749  34.356   5.024   9.177
  269POPC   GL2 8750  34.586   5.209   8.956
  269POPC   C1A 8751  34.195   4.936   8.761
  269POPC   D2A 8752  34.498   5.001   8.471
  269POPC   C3A 8753  34.488   4.949   8.056
  269POPC   C4A 8754  34.820   4.857   7.780
  269POPC   C1B 8755  34.321   5.469   8.672
  269POPC   C2B 8756  34.237   5.500   8.231
  269POPC   C3B 8757  34.374   5.385   7.818
  269POPC   C4B 8758  34.415   5.059   7.560
  270POPC   NC3 8759   4.700  33.685   9.953
  270POPC   PO4 8760   4.316  33.753   9.391
  270POPC   GL1 8761   4.437  33.604   9.043
  270POPC   GL2 8762   4.688  33.855   9.067
  270POPC   C1A 8763   4.196  33.598   8.657
  270POPC   D2A 8764   4.152  33.915   8.350
  270POPC   C3A 8765   4.176  33.655   7.978
  270POPC   C4A 8766   4.419  33.605   7.581
  270POPC   C1B 8767   4.584  33.922   8.671
  270POPC   C2B 8768   4.611  33.660   8.317
  270POPC   C3B 8769   4.651  33.881   7.947
  270POPC   C4B 8770   4.731  34.272   7.734
  271POPC   NC3 8771  33.668  33.744   9.555
  271POPC   PO4 8772  34.186  34.069   9.420
  271POPC   GL1 8773  33.909  33.913   9.094
  271POPC   GL2 8774  33.899  33.573   9.126
  271POPC   C1A 8775  33.968  33.776   8.658
  271POPC   D2A 8776  34.082  33.595   8.286
  271POPC   C3A 8777  33.889  33.749   7.940
  271POPC   C4A 8778  33.799  34.141   7.747
  271POPC   C1B 8779  33.631  33.433   8.819
  271POPC   C2B 8780  33.420  33.461   8.419
  271POPC   C3B 8781  33.457  33.396   8.006
  271POPC   C4B 8782  33.768  33.315   7.679
  272POPC   NC3 8783  21.295  38.858   9.812
  272POPC   PO4 8784  21.496  38.293   9.465
  272POPC   GL1 8785  21.299  38.451   9.138
  272POPC   GL2 8786  21.277  38.808   9.269
  272POPC   C1A 8787  21.352  38.390   8.680
  272POPC   D2A 8788  21.496  38.484   8.250
  272POPC   C3A 8789  21.256  38.354   7.934
  272POPC   C4A 8790  21.228  38.281   7.509
  272POPC   C1B 8791  21.125  38.831   8.858
  272POPC   C2B 8792  21.045  38.747   8.424
  272POPC   C3B 8793  21.255  38.898   8.036
  272POPC   C4B 8794  21.385  38.767   7.650
  273POPC   NC3 8795   4.366   2.536   9.580
  273POPC   PO4 8796   4.111   3.194   9.592
  273POPC   GL1 8797   4.271   2.986   9.216
  273POPC   GL2 8798   4.616   3.013   9.141
  273POPC   C1A 8799   4.316   2.828   8.764
  273POPC   D2A 8800   4.584   2.777   8.400
  273POPC   C3A 8801   4.407   2.594   8.038
  273POPC   C4A 8802   4.154   2.768   7.708
  273POPC   C1B 8803   4.821   3.055   8.764
  273POPC   C2B 8804   4.906   3.175   8.335
  273POPC   C3B 8805   4.727   3.024   7.955
  273POPC   C4B 8806   4.706   2.726   7.627
  274POPC   NC3 8807  21.589  34.619   9.468
  274POPC   PO4 8808  21.089  34.175   9.495
  274POPC   GL1 8809  21.158  34.515   9.200
  274POPC   GL2 8810  21.002  34.364   8.993
  274POPC   C1A 8811  21.342  34.617   8.755
  274POPC   D2A 8812  21.141  34.597   8.329
  274POPC   C3A 8813  21.473  34.775   8.073
  274POPC   C4A 8814  21.448  34.778   7.652
  274POPC   C1B 8815  21.094  34.153   8.630
  274POPC   C2B 8816  21.379  34.167   8.307
  274POPC   C3B 8817  21.331  34.304   7.904
  274POPC   C4B 8818  21.284  34.296   7.478
  275POPC   NC3 8819  34.720   6.520   9.507
  275POPC   PO4 8820  34.437   7.103   9.596
  275POPC   GL1 8821  34.422   6.830   9.217
  275POPC   GL2 8822  34.227   6.584   9.252
  275POPC   C1A 8823  34.736   6.773   8.850
  275POPC   D2A 8824  34.871   6.688   8.442
  275POPC   C3A 8825  34.612   6.776   8.104
  275POPC   C4A 8826  34.753   7.016   7.771
  275POPC   C1B 8827  34.440   6.362   8.924
  275POPC   C2B 8828  34.473   6.397   8.473
  275POPC   C3B 8829  34.723   6.287   8.108
  275POPC   C4B 8830  34.670   6.474   7.681
  276POPC   NC3 8831   6.096   5.148   9.463
  276POPC   PO4 8832   5.444   5.060   9.639
  276POPC   GL1 8833   5.684   4.790   9.306
  276POPC   GL2 8834   6.053   4.718   9.212
  276POPC   C1A 8835   5.730   4.889   8.843
  276POPC   D2A 8836   5.823   5.128   8.462
  276POPC   C3A 8837   5.716   5.004   8.055
  276POPC   C4A 8838   5.875   5.323   7.748
  276POPC   C1B 8839   6.221   4.692   8.788
  276POPC   C2B 8840   6.086   4.653   8.367
  276POPC   C3B 8841   6.169   4.825   7.958
  276POPC   C4B 8842   5.960   4.806   7.612
  277POPC   NC3 8843  30.455  42.427   9.497
  277POPC   PO4 8844  29.946  42.001   9.509
  277POPC   GL1 8845  29.965  42.233   9.144
  277POPC   GL2 8846  30.148  42.543   9.082
  277POPC   C1A 8847  30.027  42.096   8.742
  277POPC   D2A 8848  30.143  42.143   8.321
  277POPC   C3A 8849  29.769  42.094   8.053
  277POPC   C4A 8850  30.078  42.077   7.716
  277POPC   C1B 8851  29.759  42.583   8.839
  277POPC   C2B 8852  29.750  42.438   8.439
  277POPC   C3B 8853  29.985  42.544   8.043
  277POPC   C4B 8854  29.880  42.528   7.611
  278POPC   NC3 8855  38.370  34.969   9.501
  278POPC   PO4 8856  38.908  35.079   9.201
  278POPC   GL1 8857  38.465  35.253   9.055
  278POPC   GL2 8858  38.092  35.166   9.105
  278POPC   C1A 8859  38.439  35.582   8.763
  278POPC   D2A 8860  38.731  35.550   8.456
  278POPC   C3A 8861  38.600  35.369   8.092
  278POPC   C4A 8862  38.544  35.562   7.723
  278POPC   C1B 8863  37.963  35.413   8.746
  278POPC   C2B 8864  38.107  35.554   8.290
  278POPC   C3B 8865  38.054  35.427   7.811
  278POPC   C4B 8866  38.213  35.539   7.350
  279POPC   NC3 8867   8.694  24.358   9.425
  279POPC   PO4 8868   9.288  24.615   9.401
  279POPC   GL1 8869   9.135  24.799   9.046
  279POPC   GL2 8870   8.857  24.584   8.993
  279POPC   C1A 8871   9.206  24.735   8.605
  279POPC   D2A 8872   9.115  24.359   8.381
  279POPC   C3A 8873   8.923  24.443   7.986
  279POPC   C4A 8874   9.063  24.514   7.585
  279POPC   C1B 8875   8.743  24.223   8.740
  279POPC   C2B 8876   8.730  24.016   8.357
  279POPC   C3B 8877   8.534  24.107   8.010
  279POPC   C4B 8878   8.638  24.195   7.606
  280POPC   NC3 8879  16.392  15.201   9.395
  280POPC   PO4 8880  17.086  15.456   9.357
  280POPC   GL1 8881  16.796  15.357   9.032
  280POPC   GL2 8882  16.651  15.018   8.983
  280POPC   C1A 8883  16.671  15.368   8.598
  280POPC   D2A 8884  16.670  15.095   8.268
  280POPC   C3A 8885  16.743  15.324   7.934
  280POPC   C4A 8886  16.669  15.244   7.521
  280POPC   C1B 8887  16.966  14.941   8.660
  280POPC   C2B 8888  17.114  14.843   8.217
  280POPC   C3B 8889  17.065  14.974   7.742
  280POPC   C4B 8890  17.059  15.071   7.242
  281POPC   NC3 8891  29.880  34.229   9.567
  281POPC   PO4 8892  30.220  34.646   9.438
  281POPC   GL1 8893  29.928  34.475   9.102
  281POPC   GL2 8894  29.881  34.108   9.070
  281POPC   C1A 8895  29.839  34.409   8.650
  281POPC   D2A 8896  29.671  34.563   8.261
  281POPC   C3A 8897  29.904  34.517   7.857
  281POPC   C4A 8898  29.785  34.607   7.412
  281POPC   C1B 8899  29.510  34.025   8.806
  281POPC   C2B 8900  29.419  34.057   8.366
  281POPC   C3B 8901  29.468  34.216   7.945
  281POPC   C4B 8902  29.705  34.130   7.574
  282POPC   NC3 8903  12.815  11.018   9.404
  282POPC   PO4 8904  12.458  11.524   9.575
  282POPC   GL1 8905  12.719  11.580   9.176
  282POPC   GL2 8906  12.939  11.333   9.022
  282POPC   C1A 8907  12.730  11.654   8.699
  282POPC   D2A 8908  12.947  11.634   8.302
  282POPC   C3A 8909  12.783  11.282   8.028
  282POPC   C4A 8910  12.524  11.185   7.633
  282POPC   C1B 8911  13.229  11.488   8.727
  282POPC   C2B 8912  13.339  11.248   8.367
  282POPC   C3B 8913  13.322  11.171   7.958
  282POPC   C4B 8914  13.289  10.787   7.775
  283POPC   NC3 8915  10.209  39.883   9.392
  283POPC   PO4 8916  10.859  40.225   9.345
  283POPC   GL1 8917  10.829  40.017   9.001
  283POPC   GL2 8918  10.546  39.858   9.018
  283POPC   C1A 8919  10.615  40.211   8.630
  283POPC   D2A 8920  10.352  40.018   8.316
  283POPC   C3A 8921  10.602  39.990   7.964
  283POPC   C4A 8922  10.700  40.247   7.637
  283POPC   C1B 8923  10.552  39.650   8.643
  283POPC   C2B 8924  10.627  39.550   8.228
  283POPC   C3B 8925  10.671  39.523   7.778
  283POPC   C4B 8926  10.390  39.477   7.467
  284POPC   NC3 8927   8.581  10.026   9.336
  284POPC   PO4 8928   8.966   9.497   9.659
  284POPC   GL1 8929   9.036   9.759   9.258
  284POPC   GL2 8930   8.831   9.712   8.988
  284POPC   C1A 8931   9.283   9.871   8.872
  284POPC   D2A 8932   9.146   9.684   8.475
  284POPC   C3A 8933   9.194   9.811   8.025
  284POPC   C4A 8934   9.556   9.846   7.777
  284POPC   C1B 8935   8.635   9.640   8.582
  284POPC   C2B 8936   8.721   9.649   8.157
  284POPC   C3B 8937   8.725   9.804   7.760
  284POPC   C4B 8938   8.628  10.001   7.353
  285POPC   NC3 8939  21.092  42.755   9.550
  285POPC   PO4 8940  21.631  42.292   9.433
  285POPC   GL1 8941  21.558  42.007   9.079
  285POPC   GL2 8942  21.213  42.142   9.120
  285POPC   C1A 8943  21.545  41.891   8.636
  285POPC   D2A 8944  21.261  42.090   8.337
  285POPC   C3A 8945  21.452  42.327   7.991
  285POPC   C4A 8946  21.615  42.168   7.619
  285POPC   C1B 8947  21.412  42.379   8.777
  285POPC   C2B 8948  21.126  42.536   8.514
  285POPC   C3B 8949  21.016  42.568   8.139
  285POPC   C4B 8950  21.035  42.473   7.718
  286POPC   NC3 8951   5.102  34.984   9.263
  286POPC   PO4 8952   5.464  35.478   9.356
  286POPC   GL1 8953   5.282  35.368   9.005
  286POPC   GL2 8954   5.505  35.116   8.934
  286POPC   C1A 8955   5.072  35.242   8.622
  286POPC   D2A 8956   4.799  35.533   8.438
  286POPC   C3A 8957   4.792  35.659   7.988
  286POPC   C4A 8958   5.130  35.752   7.691
  286POPC   C1B 8959   5.543  35.466   8.608
  286POPC   C2B 8960   5.305  35.554   8.233
  286POPC   C3B 8961   5.308  35.232   7.907
  286POPC   C4B 8962   5.413  35.307   7.457
  287POPC   NC3 8963  21.913  22.163   9.910
  287POPC   PO4 8964  22.277  22.389   9.438
  287POPC   GL1 8965  22.145  22.233   9.120
  287POPC   GL2 8966  21.984  21.952   9.221
  287POPC   C1A 8967  22.352  22.183   8.763
  287POPC   D2A 8968  22.183  22.267   8.391
  287POPC   C3A 8969  22.399  22.095   8.048
  287POPC   C4A 8970  22.266  22.310   7.680
  287POPC   C1B 8971  21.930  21.870   8.785
  287POPC   C2B 8972  21.798  21.913   8.354
  287POPC   C3B 8973  21.917  21.951   7.941
  287POPC   C4B 8974  21.910  21.985   7.509
  288POPC   NC3 8975  37.333  12.989   9.335
  288POPC   PO4 8976  36.760  13.129   9.510
  288POPC   GL1 8977  36.861  12.874   9.130
  288POPC   GL2 8978  37.123  12.575   9.125
  288POPC   C1A 8979  36.689  12.680   8.743
  288POPC   D2A 8980  36.836  12.487   8.343
  288POPC   C3A 8981  36.948  12.773   8.012
  288POPC   C4A 8982  36.758  12.973   7.667
  288POPC   C1B 8983  37.193  12.764   8.731
  288POPC   C2B 8984  37.286  12.947   8.364
  288POPC   C3B 8985  37.469  12.907   7.970
  288POPC   C4B 8986  37.282  12.951   7.572
  289POPC   NC3 8987  42.894  35.815   9.315
  289POPC   PO4 8988  43.193  36.332   9.565
  289POPC   GL1 8989  43.290  36.149   9.174
  289POPC   GL2 8990  42.990  36.284   9.058
  289POPC   C1A 8991  43.377  36.216   8.738
  289POPC   D2A 8992  43.151  36.117   8.351
  289POPC   C3A 8993  43.323  36.186   7.921
  289POPC   C4A 8994  43.275  36.002   7.497
  289POPC   C1B 8995  42.800  36.452   8.672
  289POPC   C2B 8996  42.650  36.263   8.289
  289POPC   C3B 8997  42.814  36.054   7.955
  289POPC   C4B 8998  42.883  36.291   7.629
  290POPC   NC3 8999   1.776   1.728   9.499
  290POPC   PO4 9000   2.362   1.736   9.437
  290POPC   GL1 9001   2.116   1.486   9.123
  290POPC   GL2 9002   1.762   1.510   9.043
  290POPC   C1A 9003   2.097   1.246   8.716
  290POPC   D2A 9004   1.962   1.386   8.289
  290POPC   C3A 9005   2.065   1.223   7.869
  290POPC   C4A 9006   2.018   1.083   7.416
  290POPC   C1B 9007   1.621   1.773   8.720
  290POPC   C2B 9008   1.759   1.869   8.318
  290POPC   C3B 9009   1.785   1.715   7.892
  290POPC   C4B 9010   2.008   1.603   7.523
  291POPC   NC3 9011  30.448  22.861   9.512
  291POPC   PO4 9012  31.007  23.070   9.526
  291POPC   GL1 9013  30.818  22.914   9.145
  291POPC   GL2 9014  30.656  22.600   9.121
  291POPC   C1A 9015  30.645  22.923   8.735
  291POPC   D2A 9016  30.639  22.626   8.424
  291POPC   C3A 9017  30.615  22.823   8.025
  291POPC   C4A 9018  30.474  22.836   7.632
  291POPC   C1B 9019  30.958  22.502   8.818
  291POPC   C2B 9020  31.129  22.462   8.379
  291POPC   C3B 9021  31.041  22.547   7.947
  291POPC   C4B 9022  30.816  22.434   7.581
  292POPC   NC3 9023  35.579  15.478   9.447
  292POPC   PO4 9024  35.487  14.897   9.540
  292POPC   GL1 9025  35.650  14.958   9.154
  292POPC   GL2 9026  35.390  15.214   9.062
  292POPC   C1A 9027  35.481  14.849   8.738
  292POPC   D2A 9028  35.433  15.157   8.410
  292POPC   C3A 9029  35.241  15.075   8.015
  292POPC   C4A 9030  35.288  14.732   7.775
  292POPC   C1B 9031  35.720  15.359   8.801
  292POPC   C2B 9032  35.824  15.502   8.405
  292POPC   C3B 9033  35.602  15.451   8.025
  292POPC   C4B 9034  35.488  15.277   7.598
  293POPC   NC3 9035   0.056  38.107   9.505
  293POPC   PO4 9036  44.796  38.616   9.739
  293POPC   GL1 9037  44.737  38.481   9.264
  293POPC   GL2 9038  44.393  38.525   9.232
  293POPC   C1A 9039  44.947  38.285   8.851
  293POPC   D2A 9040   0.032  38.101   8.402
  293POPC   C3A 9041  44.886  38.430   8.105
  293POPC   C4A 9042  44.929  38.568   7.696
  293POPC   C1B 9043  44.422  38.261   8.876
  293POPC   C2B 9044  44.535  38.239   8.457
  293POPC   C3B 9045  44.464  38.041   8.084
  293POPC   C4B 9046  44.499  38.285   7.732
  294POPC   NC3 9047  25.076  10.539   9.487
  294POPC   PO4 9048  25.500  10.015   9.465
  294POPC   GL1 9049  25.170  10.165   9.150
  294POPC   GL2 9050  24.940  10.447   9.015
  294POPC   C1A 9051  25.213  10.135   8.718
  294POPC   D2A 9052  25.470  10.287   8.386
  294POPC   C3A 9053  25.332  10.506   7.999
  294POPC   C4A 9054  25.103  10.400   7.585
  294POPC   C1B 9055  24.968  10.808   8.716
  294POPC   C2B 9056  25.023  10.908   8.272
  294POPC   C3B 9057  24.888  10.755   7.877
  294POPC   C4B 9058  24.852  10.837   7.418
  295POPC   NC3 9059  12.891  41.859   9.367
  295POPC   PO4 9060  12.791  42.398   9.732
  295POPC   GL1 9061  12.733  42.387   9.265
  295POPC   GL2 9062  12.468  42.583   9.106
  295POPC   C1A 9063  12.857  42.441   8.810
  295POPC   D2A 9064  13.135  42.218   8.526
  295POPC   C3A 9065  12.951  42.254   8.113
  295POPC   C4A 9066  13.147  42.393   7.780
  295POPC   C1B 9067  12.420  42.744   8.684
  295POPC   C2B 9068  12.585  42.664   8.253
  295POPC   C3B 9069  12.715  42.657   7.799
  295POPC   C4B 9070  12.519  42.692   7.341
  296POPC   NC3 9071  40.945   1.522   9.388
  296POPC   PO4 9072  40.972   0.849   9.471
  296POPC   GL1 9073  40.834   1.111   9.124
  296POPC   GL2 9074  40.488   1.073   8.996
  296POPC   C1A 9075  40.874   1.299   8.726
  296POPC   D2A 9076  40.677   0.994   8.490
  296POPC   C3A 9077  40.849   0.861   8.108
  296POPC   C4A 9078  40.872   1.103   7.753
  296POPC   C1B 9079  40.374   1.378   8.655
  296POPC   C2B 9080  40.519   1.392   8.222
  296POPC   C3B 9081  40.395   1.263   7.822
  296POPC   C4B 9082  40.499   1.267   7.364
  297POPC   NC3 9083  33.364   0.537   9.560
  297POPC   PO4 9084  32.616   0.633   9.440
  297POPC   GL1 9085  32.870   0.524   9.099
  297POPC   GL2 9086  33.215   0.453   9.078
  297POPC   C1A 9087  32.893   0.247   8.720
  297POPC   D2A 9088  33.184   0.311   8.379
  297POPC   C3A 9089  33.002   0.489   8.004
  297POPC   C4A 9090  32.910   0.279   7.646
  297POPC   C1B 9091  33.081   0.750   8.712
  297POPC   C2B 9092  33.261   0.821   8.321
  297POPC   C3B 9093  33.503   0.572   8.038
  297POPC   C4B 9094  33.411   0.463   7.607
  298POPC   NC3 9095  11.724  12.314   9.328
  298POPC   PO4 9096  11.357  11.847   9.729
  298POPC   GL1 9097  11.236  11.713   9.292
  298POPC   GL2 9098  11.087  11.996   9.173
  298POPC   C1A 9099  11.367  11.548   8.874
  298POPC   D2A 9100  11.629  11.580   8.458
  298POPC   C3A 9101  11.552  11.909   8.107
  298POPC   C4A 9102  11.315  12.152   7.796
  298POPC   C1B 9103  11.128  12.107   8.714
  298POPC   C2B 9104  11.226  12.337   8.287
  298POPC   C3B 9105  10.961  12.482   7.887
  298POPC   C4B 9106  10.977  12.307   7.418
  299POPC   NC3 9107  31.250  19.977   9.460
  299POPC   PO4 9108  31.667  19.486   9.568
  299POPC   GL1 9109  31.408  19.580   9.188
  299POPC   GL2 9110  31.617  19.849   9.067
  299POPC   C1A 9111  31.403  19.515   8.730
  299POPC   D2A 9112  31.394  19.727   8.336
  299POPC   C3A 9113  31.570  19.618   7.967
  299POPC   C4A 9114  31.274  19.545   7.662
  299POPC   C1B 9115  31.345  20.065   8.776
  299POPC   C2B 9116  31.175  20.176   8.346
  299POPC   C3B 9117  31.254  20.094   7.907
  299POPC   C4B 9118  31.619  20.212   7.678
  300POPC   NC3 9119   8.782  22.589   9.291
  300POPC   PO4 9120   8.881  21.929   9.359
  300POPC   GL1 9121   8.985  22.172   9.032
  300POPC   GL2 9122   9.225  22.396   9.157
  300POPC   C1A 9123   8.920  22.137   8.595
  300POPC   D2A 9124   8.642  21.876   8.353
  300POPC   C3A 9125   8.741  21.871   7.911
  300POPC   C4A 9126   9.143  21.914   7.669
  300POPC   C1B 9127   9.285  22.492   8.767
  300POPC   C2B 9128   9.333  22.328   8.374
  300POPC   C3B 9129   9.228  22.357   7.969
  300POPC   C4B 9130   9.593  22.497   7.834
  301POPC   NC3 9131  23.475   6.376   9.385
  301POPC   PO4 9132  24.007   6.804   9.566
  301POPC   GL1 9133  23.901   6.758   9.166
  301POPC   GL2 9134  24.026   7.090   9.092
  301POPC   C1A 9135  23.837   6.438   8.840
  301POPC   D2A 9136  23.561   6.370   8.482
  301POPC   C3A 9137  23.714   6.515   8.104
  301POPC   C4A 9138  23.671   6.242   7.731
  301POPC   C1B 9139  23.922   6.911   8.676
  301POPC   C2B 9140  23.535   6.898   8.478
  301POPC   C3B 9141  23.354   6.982   8.089
  301POPC   C4B 9142  23.367   6.664   7.774
  302POPC   NC3 9143   5.424   4.655   9.888
  302POPC   PO4 9144   5.009   4.332   9.452
  302POPC   GL1 9145   5.129   4.226   9.079
  302POPC   GL2 9146   4.966   3.882   9.108
  302POPC   C1A 9147   5.240   4.406   8.677
  302POPC   D2A 9148   5.112   4.554   8.278
  302POPC   C3A 9149   5.222   4.352   7.917
  302POPC   C4A 9150   5.522   4.596   7.718
  302POPC   C1B 9151   4.851   4.078   8.687
  302POPC   C2B 9152   4.940   4.087   8.290
  302POPC   C3B 9153   4.781   4.049   7.896
  302POPC   C4B 9154   4.997   3.918   7.520
  303POPC   NC3 9155  20.649  36.040   9.546
  303POPC   PO4 9156  21.118  35.669   9.236
  303POPC   GL1 9157  20.794  35.986   9.060
  303POPC   GL2 9158  20.414  35.901   9.125
  303POPC   C1A 9159  20.544  36.249   8.757
  303POPC   D2A 9160  20.390  36.140   8.348
  303POPC   C3A 9161  20.646  36.353   8.052
  303POPC   C4A 9162  20.702  36.198   7.652
  303POPC   C1B 9163  20.510  35.737   8.696
  303POPC   C2B 9164  20.501  35.634   8.319
  303POPC   C3B 9165  20.572  35.815   7.971
  303POPC   C4B 9166  20.385  35.595   7.656
  304POPC   NC3 9167  38.085  25.469   9.503
  304POPC   PO4 9168  38.522  24.983   9.558
  304POPC   GL1 9169  38.477  25.170   9.159
  304POPC   GL2 9170  38.153  25.042   9.140
  304POPC   C1A 9171  38.292  25.394   8.770
  304POPC   D2A 9172  38.139  25.587   8.350
  304POPC   C3A 9173  38.314  25.430   7.913
  304POPC   C4A 9174  38.355  25.440   7.423
  304POPC   C1B 9175  38.323  24.882   8.745
  304POPC   C2B 9176  38.228  25.054   8.354
  304POPC   C3B 9177  38.251  24.866   7.968
  304POPC   C4B 9178  38.476  24.980   7.606
  305POPC   NC3 9179  10.526  25.086   9.542
  305POPC   PO4 9180   9.906  25.377   9.594
  305POPC   GL1 9181  10.128  25.207   9.262
  305POPC   GL2 9182  10.027  24.932   9.160
  305POPC   C1A 9183  10.443  25.135   8.888
  305POPC   D2A 9184  10.664  24.934   8.534
  305POPC   C3A 9185  10.707  25.214   8.178
  305POPC   C4A 9186  10.539  25.137   7.761
  305POPC   C1B 9187   9.957  25.245   8.788
  305POPC   C2B 9188  10.227  25.339   8.424
  305POPC   C3B 9189  10.098  25.236   8.005
  305POPC   C4B 9190  10.113  25.451   7.602
  306POPC   NC3 9191  40.425  13.668   9.379
  306POPC   PO4 9192  40.950  14.004   9.327
  306POPC   GL1 9193  41.037  13.760   8.968
  306POPC   GL2 9194  40.828  13.504   9.024
  306POPC   C1A 9195  40.785  13.698   8.557
  306POPC   D2A 9196  40.454  13.801   8.223
  306POPC   C3A 9197  40.673  13.797   7.839
  306POPC   C4A 9198  41.140  13.729   7.774
  306POPC   C1B 9199  40.945  13.219   8.673
  306POPC   C2B 9200  40.984  13.206   8.208
  306POPC   C3B 9201  40.870  13.303   7.787
  306POPC   C4B 9202  40.534  13.288   7.482
  307POPC   NC3 9203  25.984  38.817   9.488
  307POPC   PO4 9204  26.345  39.368   9.543
  307POPC   GL1 9205  26.111  39.210   9.196
  307POPC   GL2 9206  25.750  39.230   9.296
  307POPC   C1A 9207  26.194  38.978   8.795
  307POPC   D2A 9208  26.087  38.858   8.360
  307POPC   C3A 9209  26.360  39.064   8.028
  307POPC   C4A 9210  26.210  39.012   7.601
  307POPC   C1B 9211  25.714  39.122   8.847
  307POPC   C2B 9212  25.878  39.325   8.466
  307POPC   C3B 9213  25.931  39.315   8.031
  307POPC   C4B 9214  25.691  39.024   7.822
  308POPC   NC3 9215  17.335   1.095   9.441
  308POPC   PO4 9216  17.930   1.372   9.602
  308POPC   GL1 9217  17.732   1.272   9.167
  308POPC   GL2 9218  17.648   1.576   8.942
  308POPC   C1A 9219  17.595   1.124   8.727
  308POPC   D2A 9220  17.515   1.430   8.390
  308POPC   C3A 9221  17.683   1.258   8.020
  308POPC   C4A 9222  17.743   0.864   7.812
  308POPC   C1B 9223  17.199   1.395   8.830
  308POPC   C2B 9224  17.159   1.070   8.452
  308POPC   C3B 9225  17.181   1.130   8.025
  308POPC   C4B 9226  17.088   1.437   7.721
  309POPC   NC3 9227  39.353  22.883   9.632
  309POPC   PO4 9228  38.735  23.086   9.638
  309POPC   GL1 9229  38.958  22.830   9.283
  309POPC   GL2 9230  39.305  22.909   9.135
  309POPC   C1A 9231  38.972  22.638   8.887
  309POPC   D2A 9232  39.249  22.801   8.567
  309POPC   C3A 9233  39.109  22.755   8.130
  309POPC   C4A 9234  39.198  23.010   7.802
  309POPC   C1B 9235  39.651  22.724   8.887
  309POPC   C2B 9236  39.800  22.817   8.502
  309POPC   C3B 9237  39.593  22.933   8.144
  309POPC   C4B 9238  39.707  23.103   7.770
  310POPC   NC3 9239   4.732  28.975   9.492
  310POPC   PO4 9240   5.281  28.711   9.589
  310POPC   GL1 9241   5.309  29.001   9.267
  310POPC   GL2 9242   5.051  28.842   9.089
  310POPC   C1A 9243   5.251  29.301   8.924
  310POPC   D2A 9244   5.095  29.358   8.493
  310POPC   C3A 9245   5.306  29.334   8.108
  310POPC   C4A 9246   5.254  29.105   7.761
  310POPC   C1B 9247   5.186  28.868   8.648
  310POPC   C2B 9248   5.148  28.828   8.184
  310POPC   C3B 9249   4.985  28.672   7.759
  310POPC   C4B 9250   4.953  28.678   7.306
  311POPC   NC3 9251  37.983  38.768   9.625
  311POPC   PO4 9252  37.401  38.362   9.536
  311POPC   GL1 9253  37.646  38.564   9.203
  311POPC   GL2 9254  37.872  38.297   9.168
  311POPC   C1A 9255  37.726  38.560   8.738
  311POPC   D2A 9256  37.481  38.416   8.373
  311POPC   C3A 9257  37.583  38.580   7.989
  311POPC   C4A 9258  37.537  38.483   7.566
  311POPC   C1B 9259  37.880  38.037   8.755
  311POPC   C2B 9260  37.926  38.176   8.327
  311POPC   C3B 9261  37.868  38.173   7.858
  311POPC   C4B 9262  37.928  38.145   7.389
  312POPC   NC3 9263   7.773  36.025   9.408
  312POPC   PO4 9264   8.326  36.339   9.639
  312POPC   GL1 9265   8.194  36.284   9.260
  312POPC   GL2 9266   8.272  35.964   9.239
  312POPC   C1A 9267   8.126  36.445   8.887
  312POPC   D2A 9268   7.940  36.455   8.495
  312POPC   C3A 9269   8.210  36.472   8.151
  312POPC   C4A 9270   8.208  36.465   7.724
  312POPC   C1B 9271   8.088  35.951   8.800
  312POPC   C2B 9272   8.112  36.003   8.335
  312POPC   C3B 9273   8.047  35.985   7.863
  312POPC   C4B 9274   8.242  35.690   7.566
  313POPC   NC3 9275  33.760  37.187  10.141
  313POPC   PO4 9276  33.922  36.985   9.595
  313POPC   GL1 9277  33.966  36.878   9.143
  313POPC   GL2 9278  34.197  36.601   9.078
  313POPC   C1A 9279  33.800  36.995   8.728
  313POPC   D2A 9280  33.959  36.977   8.300
  313POPC   C3A 9281  33.699  37.086   7.922
  313POPC   C4A 9282  33.825  37.234   7.515
  313POPC   C1B 9283  34.055  36.560   8.649
  313POPC   C2B 9284  33.923  36.472   8.210
  313POPC   C3B 9285  34.027  36.718   7.864
  313POPC   C4B 9286  33.783  36.745   7.484
  314POPC   NC3 9287  19.656  21.125   9.579
  314POPC   PO4 9288  19.928  21.647   9.481
  314POPC   GL1 9289  19.669  21.464   9.163
  314POPC   GL2 9290  19.962  21.232   9.171
  314POPC   C1A 9291  19.723  21.248   8.743
  314POPC   D2A 9292  20.084  21.227   8.482
  314POPC   C3A 9293  20.012  21.067   8.111
  314POPC   C4A 9294  19.825  21.260   7.789
  314POPC   C1B 9295  20.105  21.580   8.858
  314POPC   C2B 9296  20.119  21.758   8.454
  314POPC   C3B 9297  20.132  21.585   8.055
  314POPC   C4B 9298  20.048  21.710   7.630
  315POPC   NC3 9299  39.664  42.484   9.449
  315POPC   PO4 9300  40.288  42.328   9.451
  315POPC   GL1 9301  40.129  42.176   9.088
  315POPC   GL2 9302  39.771  42.114   9.097
  315POPC   C1A 9303  40.096  42.357   8.672
  315POPC   D2A 9304  40.241  42.732   8.465
  315POPC   C3A 9305  40.080  42.725   8.066
  315POPC   C4A 9306  40.140  42.326   7.859
  315POPC   C1B 9307  39.639  42.181   8.658
  315POPC   C2B 9308  39.895  42.127   8.255
  315POPC   C3B 9309  39.997  41.823   7.875
  315POPC   C4B 9310  39.839  41.798   7.443
  316POPC   NC3 9311  17.196  14.984   9.312
  316POPC   PO4 9312  17.829  15.137   9.592
  316POPC   GL1 9313  17.685  15.043   9.166
  316POPC   GL2 9314  17.478  15.321   9.033
  316POPC   C1A 9315  17.840  14.912   8.764
  316POPC   D2A 9316  17.835  15.037   8.329
  316POPC   C3A 9317  17.504  15.112   8.038
  316POPC   C4A 9318  17.628  15.400   7.709
  316POPC   C1B 9319  17.415  15.183   8.632
  316POPC   C2B 9320  17.134  15.332   8.347
  316POPC   C3B 9321  17.208  15.532   8.004
  316POPC   C4B 9322  17.132  15.479   7.588
  317POPC   NC3 9323  13.047  27.389   9.557
  317POPC   PO4 9324  12.496  27.700   9.459
  317POPC   GL1 9325  12.675  27.478   9.152
  317POPC   GL2 9326  12.952  27.651   9.120
  317POPC   C1A 9327  12.576  27.608   8.767
  317POPC   D2A 9328  12.737  27.747   8.425
  317POPC   C3A 9329  12.684  27.612   8.016
  317POPC   C4A 9330  12.600  27.906   7.720
  317POPC   C1B 9331  13.044  27.471   8.728
  317POPC   C2B 9332  13.095  27.371   8.318
  317POPC   C3B 9333  13.439  27.437   8.150
  317POPC   C4B 9334  13.522  27.473   7.737
  318POPC   NC3 9335  33.505  20.346   9.280
  318POPC   PO4 9336  34.075  20.557   9.606
  318POPC   GL1 9337  33.965  20.755   9.175
  318POPC   GL2 9338  33.688  20.968   9.293
  318POPC   C1A 9339  33.982  20.715   8.677
  318POPC   D2A 9340  33.944  20.418   8.348
  318POPC   C3A 9341  34.129  20.508   7.948
  318POPC   C4A 9342  34.127  20.543   7.473
  318POPC   C1B 9343  33.702  21.082   8.871
  318POPC   C2B 9344  33.534  20.898   8.492
  318POPC   C3B 9345  33.722  20.821   8.117
  318POPC   C4B 9346  33.613  21.023   7.772
  319POPC   NC3 9347   7.417  40.311   9.484
  319POPC   PO4 9348   7.116  39.693   9.491
  319POPC   GL1 9349   7.316  39.931   9.136
  319POPC   GL2 9350   7.607  40.202   9.051
  319POPC   C1A 9351   7.306  40.004   8.713
  319POPC   D2A 9352   7.435  39.816   8.404
  319POPC   C3A 9353   7.290  40.009   8.097
  319POPC   C4A 9354   7.416  39.901   7.725
  319POPC   C1B 9355   7.823  40.298   8.705
  319POPC   C2B 9356   7.647  40.313   8.303
  319POPC   C3B 9357   7.575  40.394   7.862
  319POPC   C4B 9358   7.430  40.326   7.439
  320POPC   NC3 9359  29.669  20.497   9.716
  320POPC   PO4 9360  30.216  20.238   9.420
  320POPC   GL1 9361  30.053  20.556   9.109
  320POPC   GL2 9362  30.185  20.327   8.891
  320POPC   C1A 9363  29.774  20.801   8.819
  320POPC   D2A 9364  29.966  20.956   8.468
  320POPC   C3A 9365  29.855  21.017   8.035
  320POPC   C4A 9366  30.178  20.934   7.735
  320POPC   C1B 9367  29.881  20.385   8.564
  320POPC   C2B 9368  29.902  20.531   8.161
  320POPC   C3B 9369  30.067  20.442   7.796
  320POPC   C4B 9370  29.799  20.265   7.506
  321POPC   NC3 9371   7.469  21.942   9.497
  321POPC   PO4 9372   7.463  22.671   9.589
  321POPC   GL1 9373   7.397  22.412   9.252
  321POPC   GL2 9374   7.082  22.289   9.298
  321POPC   C1A 9375   7.513  22.219   8.880
  321POPC   D2A 9376   7.445  22.364   8.470
  321POPC   C3A 9377   7.626  22.091   8.173
  321POPC   C4A 9378   7.694  22.158   7.739
  321POPC   C1B 9379   7.011  22.178   8.857
  321POPC   C2B 9380   7.198  21.896   8.548
  321POPC   C3B 9381   7.197  21.840   8.084
  321POPC   C4B 9382   7.128  22.037   7.688
  322POPC   NC3 9383  17.714   2.211   9.646
  322POPC   PO4 9384  17.431   1.693   9.386
  322POPC   GL1 9385  17.547   2.041   9.168
  322POPC   GL2 9386  17.293   2.001   8.959
  322POPC   C1A 9387  17.806   2.060   8.789
  322POPC   D2A 9388  17.953   1.759   8.512
  322POPC   C3A 9389  17.719   1.845   8.151
  322POPC   C4A 9390  17.502   1.707   7.804
  322POPC   C1B 9391  17.101   2.233   8.665
  322POPC   C2B 9392  17.266   2.281   8.261
  322POPC   C3B 9393  17.281   2.182   7.849
  322POPC   C4B 9394  17.293   2.066   7.405
  323POPC   NC3 9395  40.294  24.743   9.458
  323POPC   PO4 9396  39.864  24.283   9.489
  323POPC   GL1 9397  40.159  24.255   9.169
  323POPC   GL2 9398  40.153  24.572   9.003
  323POPC   C1A 9399  40.163  24.139   8.745
  323POPC   D2A 9400  40.108  24.458   8.452
  323POPC   C3A 9401  39.948  24.308   8.090
  323POPC   C4A 9402  40.173  24.159   7.703
  323POPC   C1B 9403  39.894  24.837   8.754
  323POPC   C2B 9404  39.699  24.842   8.369
  323POPC   C3B 9405  39.771  24.828   7.964
  323POPC   C4B 9406  40.154  24.692   7.849
  324POPC   NC3 9407  27.689  31.891   9.622
  324POPC   PO4 9408  27.332  31.306   9.438
  324POPC   GL1 9409  27.705  31.372   9.209
  324POPC   GL2 9410  27.632  31.719   9.149
  324POPC   C1A 9411  27.827  31.188   8.803
  324POPC   D2A 9412  28.050  31.170   8.438
  324POPC   C3A 9413  27.795  31.148   8.055
  324POPC   C4A 9414  27.862  31.306   7.689
  324POPC   C1B 9415  27.472  31.562   8.775
  324POPC   C2B 9416  27.620  31.479   8.384
  324POPC   C3B 9417  27.691  31.700   7.987
  324POPC   C4B 9418  27.662  31.734   7.530
  325POPC   NC3 9419  25.679  17.915   9.183
  325POPC   PO4 9420  26.263  17.978   9.505
  325POPC   GL1 9421  26.301  18.078   9.115
  325POPC   GL2 9422  26.025  18.304   9.153
  325POPC   C1A 9423  26.234  17.914   8.712
  325POPC   D2A 9424  26.111  18.117   8.336
  325POPC   C3A 9425  26.020  17.930   7.944
  325POPC   C4A 9426  26.175  18.019   7.526
  325POPC   C1B 9427  26.049  18.458   8.759
  325POPC   C2B 9428  25.901  18.632   8.392
  325POPC   C3B 9429  25.830  18.427   8.038
  325POPC   C4B 9430  26.160  18.465   7.791
  326POPC   NC3 9431  29.762  20.182   9.259
  326POPC   PO4 9432  30.053  19.455   9.206
  326POPC   GL1 9433  29.964  19.790   9.009
  326POPC   GL2 9434  29.622  19.709   9.156
  326POPC   C1A 9435  30.096  19.930   8.602
  326POPC   D2A 9436  30.201  20.112   8.196
  326POPC   C3A 9437  29.960  19.933   7.863
  326POPC   C4A 9438  30.004  19.803   7.419
  326POPC   C1B 9439  29.507  19.673   8.745
  326POPC   C2B 9440  29.693  19.745   8.344
  326POPC   C3B 9441  29.734  19.482   7.984
  326POPC   C4B 9442  29.567  19.593   7.580
  327POPC   NC3 9443   5.259  12.735   9.710
  327POPC   PO4 9444   4.719  12.943   9.548
  327POPC   GL1 9445   4.850  12.729   9.148
  327POPC   GL2 9446   5.205  12.688   9.163
  327POPC   C1A 9447   4.949  12.616   8.704
  327POPC   D2A 9448   4.721  12.611   8.286
  327POPC   C3A 9449   5.028  12.589   7.942
  327POPC   C4A 9450   5.448  12.561   7.780
  327POPC   C1B 9451   5.320  12.944   8.775
  327POPC   C2B 9452   5.250  12.878   8.307
  327POPC   C3B 9453   5.271  13.045   7.864
  327POPC   C4B 9454   5.246  13.380   7.532
  328POPC   NC3 9455  38.313   9.047   9.540
  328POPC   PO4 9456  38.503   8.591   9.283
  328POPC   GL1 9457  38.359   8.970   9.031
  328POPC   GL2 9458  38.535   9.282   9.136
  328POPC   C1A 9459  38.259   9.175   8.617
  328POPC   D2A 9460  38.286   9.418   8.206
  328POPC   C3A 9461  38.150   9.178   7.836
  328POPC   C4A 9462  38.342   8.891   7.506
  328POPC   C1B 9463  38.755   9.167   8.762
  328POPC   C2B 9464  38.714   9.159   8.319
  328POPC   C3B 9465  38.666   8.979   7.903
  328POPC   C4B 9466  38.851   8.982   7.472
  329POPC   NC3 9467  11.046   3.798   9.441
  329POPC   PO4 9468  11.443   3.237   9.483
  329POPC   GL1 9469  11.335   3.483   9.139
  329POPC   GL2 9470  11.483   3.814   9.049
  329POPC   C1A 9471  11.253   3.253   8.784
  329POPC   D2A 9472  11.176   3.198   8.357
  329POPC   C3A 9473  11.453   3.363   8.014
  329POPC   C4A 9474  11.422   3.769   7.801
  329POPC   C1B 9475  11.103   3.784   8.769
  329POPC   C2B 9476  10.873   3.830   8.374
  329POPC   C3B 9477  10.956   3.629   7.960
  329POPC   C4B 9478  10.987   3.798   7.517
  330POPC   NC3 9479  17.117  12.296   9.660
  330POPC   PO4 9480  17.653  11.899   9.467
  330POPC   GL1 9481  17.439  11.900   9.098
  330POPC   GL2 9482  17.316  12.238   9.132
  330POPC   C1A 9483  17.459  11.960   8.656
  330POPC   D2A 9484  17.802  12.004   8.345
  330POPC   C3A 9485  17.544  12.140   8.056
  330POPC   C4A 9486  17.239  12.247   7.779
  330POPC   C1B 9487  17.689  12.339   8.903
  330POPC   C2B 9488  17.757  12.493   8.494
  330POPC   C3B 9489  17.850  12.564   8.073
  330POPC   C4B 9490  17.683  12.478   7.692
  331POPC   NC3 9491  18.942  16.524   9.398
  331POPC   PO4 9492  19.412  16.923   9.422
  331POPC   GL1 9493  19.095  16.923   9.134
  331POPC   GL2 9494  19.269  16.602   8.997
  331POPC   C1A 9495  18.896  16.824   8.761
  331POPC   D2A 9496  19.088  16.773   8.366
  331POPC   C3A 9497  18.857  16.489   8.137
  331POPC   C4A 9498  18.537  16.608   7.846
  331POPC   C1B 9499  19.456  16.961   8.752
  331POPC   C2B 9500  19.384  17.200   8.378
  331POPC   C3B 9501  19.337  17.053   7.959
  331POPC   C4B 9502  19.516  16.892   7.579
  332POPC   NC3 9503   6.538  28.856   9.511
  332POPC   PO4 9504   6.801  28.134   9.517
  332POPC   GL1 9505   6.759  28.312   9.147
  332POPC   GL2 9506   6.899  28.638   9.184
  332POPC   C1A 9507   6.478  28.352   8.813
  332POPC   D2A 9508   6.646  28.381   8.440
  332POPC   C3A 9509   6.472  28.336   8.066
  332POPC   C4A 9510   6.693  28.179   7.734
  332POPC   C1B 9511   6.922  28.757   8.778
  332POPC   C2B 9512   7.080  28.627   8.389
  332POPC   C3B 9513   6.934  28.531   8.038
  332POPC   C4B 9514   6.724  28.673   7.708
  333POPC   NC3 9515   4.233   5.233   9.325
  333POPC   PO4 9516   4.670   4.791   9.656
  333POPC   GL1 9517   4.571   4.847   9.218
  333POPC   GL2 9518   4.264   4.681   9.272
  333POPC   C1A 9519   4.595   5.037   8.742
  333POPC   D2A 9520   4.436   5.011   8.274
  333POPC   C3A 9521   4.392   5.350   7.937
  333POPC   C4A 9522   4.644   5.322   7.499
  333POPC   C1B 9523   4.201   4.697   8.823
  333POPC   C2B 9524   4.140   4.583   8.370
  333POPC   C3B 9525   4.107   4.712   7.952
  333POPC   C4B 9526   3.952   5.079   7.755
  334POPC   NC3 9527  31.285  42.984   9.523
  334POPC   PO4 9528  31.627  42.390   9.510
  334POPC   GL1 9529  31.723  42.424   9.121
  334POPC   GL2 9530  31.690  42.778   9.119
  334POPC   C1A 9531  31.506  42.368   8.724
  334POPC   D2A 9532  31.149  42.368   8.426
  334POPC   C3A 9533  31.408  42.425   8.051
  334POPC   C4A 9534  31.760  42.134   7.944
  334POPC   C1B 9535  31.327  42.820   8.877
  334POPC   C2B 9536  31.319  42.857   8.436
  334POPC   C3B 9537  31.025  42.751   8.105
  334POPC   C4B 9538  31.184  42.765   7.679
  335POPC   NC3 9539  35.174  10.311   9.457
  335POPC   PO4 9540  35.016  10.926   9.392
  335POPC   GL1 9541  35.334  10.690   9.158
  335POPC   GL2 9542  35.681  10.531   9.238
  335POPC   C1A 9543  35.342  10.421   8.796
  335POPC   D2A 9544  35.486  10.385   8.371
  335POPC   C3A 9545  35.253  10.519   8.045
  335POPC   C4A 9546  35.191  10.451   7.638
  335POPC   C1B 9547  35.744  10.760   8.847
  335POPC   C2B 9548  35.824  10.764   8.396
  335POPC   C3B 9549  35.773  10.576   7.960
  335POPC   C4B 9550  35.956  10.699   7.547
  336POPC   NC3 9551  44.172  33.717   9.521
  336POPC   PO4 9552  44.801  33.618   9.568
  336POPC   GL1 9553  44.720  33.969   9.270
  336POPC   GL2 9554  44.530  33.712   9.134
  336POPC   C1A 9555  44.612  34.146   8.838
  336POPC   D2A 9556  44.545  34.368   8.441
  336POPC   C3A 9557  44.685  34.172   8.075
  336POPC   C4A 9558  44.778  33.944   7.671
  336POPC   C1B 9559  44.826  33.653   8.815
  336POPC   C2B 9560  44.942  33.781   8.450
  336POPC   C3B 9561  44.836  33.660   8.083
  336POPC   C4B 9562   0.109  33.514   7.815
  337POPC   NC3 9563  24.763   5.669   9.116
  337POPC   PO4 9564  24.680   6.218   9.452
  337POPC   GL1 9565  24.410   6.193   9.092
  337POPC   GL2 9566  24.164   5.901   9.146
  337POPC   C1A 9567  24.495   6.152   8.644
  337POPC   D2A 9568  24.613   6.177   8.181
  337POPC   C3A 9569  24.553   5.798   7.935
  337POPC   C4A 9570  24.830   5.534   7.659
  337POPC   C1B 9571  24.003   5.977   8.705
  337POPC   C2B 9572  24.094   6.325   8.395
  337POPC   C3B 9573  24.169   6.281   7.947
  337POPC   C4B 9574  24.166   6.247   7.509
  338POPC   NC3 9575  40.944  20.135   9.560
  338POPC   PO4 9576  41.554  20.259   9.443
  338POPC   GL1 9577  41.393  19.994   9.150
  338POPC   GL2 9578  41.111  20.121   9.094
  338POPC   C1A 9579  41.508  19.738   8.794
  338POPC   D2A 9580  41.739  19.786   8.399
  338POPC   C3A 9581  41.554  19.706   7.984
  338POPC   C4A 9582  41.535  19.921   7.599
  338POPC   C1B 9583  41.032  19.933   8.750
  338POPC   C2B 9584  41.206  19.789   8.369
  338POPC   C3B 9585  41.041  19.824   7.949
  338POPC   C4B 9586  40.960  19.973   7.520
  339POPC   NC3 9587  27.807  40.458   9.434
  339POPC   PO4 9588  28.312  40.804   9.702
  339POPC   GL1 9589  28.087  40.901   9.321
  339POPC   GL2 9590  28.395  40.876   9.159
  339POPC   C1A 9591  27.984  40.898   8.858
  339POPC   D2A 9592  28.167  40.781   8.473
  339POPC   C3A 9593  28.238  40.936   8.051
  339POPC   C4A 9594  28.334  40.774   7.603
  339POPC   C1B 9595  28.595  40.720   8.790
  339POPC   C2B 9596  28.576  40.505   8.383
  339POPC   C3B 9597  28.361  40.438   7.999
  339POPC   C4B 9598  28.655  40.371   7.668
  340POPC   NC3 9599  33.892   2.440   9.436
  340POPC   PO4 9600  33.881   3.126   9.476
  340POPC   GL1 9601  33.825   2.911   9.117
  340POPC   GL2 9602  34.137   2.765   9.105
  340POPC   C1A 9603  33.850   2.777   8.681
  340POPC   D2A 9604  33.705   2.525   8.351
  340POPC   C3A 9605  33.688   2.691   7.910
  340POPC   C4A 9606  33.555   2.544   7.491
  340POPC   C1B 9607  34.264   2.457   8.803
  340POPC   C2B 9608  34.194   2.267   8.413
  340POPC   C3B 9609  34.088   2.376   8.053
  340POPC   C4B 9610  34.193   2.736   7.809
  341POPC   NC3 9611  13.291  39.362   9.551
  341POPC   PO4 9612  12.870  38.808   9.387
  341POPC   GL1 9613  12.954  38.978   8.996
  341POPC   GL2 9614  13.077  39.302   9.087
  341POPC   C1A 9615  12.725  38.962   8.608
  341POPC   D2A 9616  12.779  38.797   8.188
  341POPC   C3A 9617  12.908  39.136   7.945
  341POPC   C4A 9618  13.137  39.183   7.614
  341POPC   C1B 9619  13.178  39.532   8.728
  341POPC   C2B 9620  13.104  39.478   8.293
  341POPC   C3B 9621  13.261  39.578   7.892
  341POPC   C4B 9622  13.314  39.606   7.403
  342POPC   NC3 9623  13.171  42.580   9.504
  342POPC   PO4 9624  12.621  42.962   9.424
  342POPC   GL1 9625  12.920  42.849   9.135
  342POPC   GL2 9626  13.233  42.993   9.205
  342POPC   C1A 9627  12.886  42.962   8.739
  342POPC   D2A 9628  12.801  43.271   8.470
  342POPC   C3A 9629  12.883  43.080   8.080
  342POPC   C4A 9630  13.043  43.160   7.686
  342POPC   C1B 9631  13.305  43.243   8.842
  342POPC   C2B 9632  13.301  43.468   8.469
  342POPC   C3B 9633  13.381  43.330   8.051
  342POPC   C4B 9634  13.357  43.558   7.671
  343POPC   NC3 9635  42.569  14.160   9.747
  343POPC   PO4 9636  42.299  14.700   9.484
  343POPC   GL1 9637  42.322  14.414   9.166
  343POPC   GL2 9638  42.543  14.140   9.244
  343POPC   C1A 9639  42.303  14.490   8.718
  343POPC   D2A 9640  42.195  14.521   8.310
  343POPC   C3A 9641  42.433  14.563   7.973
  343POPC   C4A 9642  42.358  14.527   7.574
  343POPC   C1B 9643  42.388  14.013   8.860
  343POPC   C2B 9644  42.361  14.006   8.445
  343POPC   C3B 9645  42.273  14.091   8.030
  343POPC   C4B 9646  42.530  14.068   7.672
  344POPC   NC3 9647  41.063  14.436   9.440
  344POPC   PO4 9648  40.537  14.882   9.421
  344POPC   GL1 9649  40.755  14.673   9.074
  344POPC   GL2 9650  40.702  14.315   9.014
  344POPC   C1A 9651  40.710  14.608   8.607
  344POPC   D2A 9652  40.526  14.717   8.219
  344POPC   C3A 9653  40.579  14.380   7.937
  344POPC   C4A 9654  40.616  14.204   7.510
  344POPC   C1B 9655  40.964  14.163   8.668
  344POPC   C2B 9656  40.914  14.084   8.225
  344POPC   C3B 9657  41.056  14.237   7.847
  344POPC   C4B 9658  41.107  14.128   7.419
  345POPC   NC3 9659  15.224   9.436   9.510
  345POPC   PO4 9660  14.723  10.030   9.509
  345POPC   GL1 9661  15.030   9.836   9.241
  345POPC   GL2 9662  15.329  10.025   9.115
  345POPC   C1A 9663  15.047   9.635   8.838
  345POPC   D2A 9664  14.968   9.814   8.424
  345POPC   C3A 9665  15.172   9.646   8.062
  345POPC   C4A 9666  15.367   9.239   7.996
  345POPC   C1B 9667  15.522   9.901   8.705
  345POPC   C2B 9668  15.778   9.951   8.337
  345POPC   C3B 9669  15.623   9.942   7.910
  345POPC   C4B 9670  15.441   9.658   7.613
  346POPC   NC3 9671  14.864  39.784   9.318
  346POPC   PO4 9672  15.213  40.267   9.555
  346POPC   GL1 9673  15.208  40.147   9.133
  346POPC   GL2 9674  15.332  39.804   9.101
  346POPC   C1A 9675  15.140  40.098   8.682
  346POPC   D2A 9676  14.877  39.968   8.325
  346POPC   C3A 9677  14.989  40.203   7.983
  346POPC   C4A 9678  15.393  40.053   7.865
  346POPC   C1B 9679  15.134  39.587   8.760
  346POPC   C2B 9680  15.290  39.632   8.376
  346POPC   C3B 9681  15.243  39.553   7.964
  346POPC   C4B 9682  14.968  39.773   7.721
  347POPC   NC3 9683  29.529   8.716   9.336
  347POPC   PO4 9684  29.046   9.077   9.732
  347POPC   GL1 9685  29.092   9.006   9.264
  347POPC   GL2 9686  29.399   9.160   9.111
  347POPC   C1A 9687  29.081   8.778   8.845
  347POPC   D2A 9688  28.914   8.882   8.438
  347POPC   C3A 9689  28.894   8.579   8.111
  347POPC   C4A 9690  29.164   8.692   7.801
  347POPC   C1B 9691  29.218   9.243   8.690
  347POPC   C2B 9692  29.260   9.180   8.211
  347POPC   C3B 9693  29.207   9.206   7.754
  347POPC   C4B 9694  29.344   9.382   7.315
  348POPC   NC3 9695   0.107  13.829   9.505
  348POPC   PO4 9696   0.820  13.884   9.460
  348POPC   GL1 9697   0.586  13.706   9.090
  348POPC   GL2 9698   0.759  13.461   8.958
  348POPC   C1A 9699   0.304  13.546   8.752
  348POPC   D2A 9700   0.113  13.644   8.394
  348POPC   C3A 9701   0.028  13.398   8.052
  348POPC   C4A 9702   0.152  13.504   7.671
  348POPC   C1B 9703   0.711  13.220   8.642
  348POPC   C2B 9704   0.465  13.263   8.336
  348POPC   C3B 9705   0.513  13.582   8.069
  348POPC   C4B 9706   0.643  13.615   7.684
  349POPC   NC3 9707  25.661  39.712   9.694
  349POPC   PO4 9708  25.147  40.126   9.375
  349POPC   GL1 9709  25.391  40.031   9.067
  349POPC   GL2 9710  25.079  39.859   8.907
  349POPC   C1A 9711  25.515  39.918   8.670
  349POPC   D2A 9712  25.286  39.912   8.317
  349POPC   C3A 9713  25.500  39.955   7.972
  349POPC   C4A 9714  25.189  39.916   7.704
  349POPC   C1B 9715  25.121  40.238   8.664
  349POPC   C2B 9716  24.919  40.325   8.313
  349POPC   C3B 9717  24.785  40.149   7.959
  349POPC   C4B 9718  24.993  40.367   7.654
  350POPC   NC3 9719   8.396  31.367   9.487
  350POPC   PO4 9720   7.756  31.433   9.499
  350POPC   GL1 9721   7.957  31.381   9.126
  350POPC   GL2 9722   8.280  31.237   9.014
  350POPC   C1A 9723   7.871  31.288   8.718
  350POPC   D2A 9724   8.098  30.993   8.527
  350POPC   C3A 9725   8.107  31.231   8.158
  350POPC   C4A 9726   8.202  31.177   7.751
  350POPC   C1B 9727   8.368  31.425   8.595
  350POPC   C2B 9728   8.500  31.554   8.163
  350POPC   C3B 9729   8.380  31.679   7.737
  350POPC   C4B 9730   8.472  31.864   7.312
  351POPC   NC3 9731  33.111   2.412   9.518
  351POPC   PO4 9732  33.046   3.130   9.540
  351POPC   GL1 9733  33.032   2.839   9.196
  351POPC   GL2 9734  32.711   2.623   9.249
  351POPC   C1A 9735  33.224   2.578   8.830
  351POPC   D2A 9736  33.244   2.320   8.419
  351POPC   C3A 9737  33.209   2.575   8.034
  351POPC   C4A 9738  33.069   2.533   7.607
  351POPC   C1B 9739  32.720   2.778   8.814
  351POPC   C2B 9740  32.955   2.802   8.413
  351POPC   C3B 9741  32.840   2.958   7.975
  351POPC   C4B 9742  32.818   2.975   7.517
  352POPC   NC3 9743  30.385   6.337   9.481
  352POPC   PO4 9744  30.884   6.967   9.462
  352POPC   GL1 9745  30.670   6.723   9.175
  352POPC   GL2 9746  30.791   6.394   9.155
  352POPC   C1A 9747  30.707   6.785   8.750
  352POPC   D2A 9748  30.489   6.826   8.374
  352POPC   C3A 9749  30.645   6.803   7.983
  352POPC   C4A 9750  30.303   6.537   7.869
  352POPC   C1B 9751  30.990   6.302   8.786
  352POPC   C2B 9752  30.928   6.489   8.383
  352POPC   C3B 9753  30.784   6.322   7.999
  352POPC   C4B 9754  31.005   6.166   7.668
  353POPC   NC3 9755   5.944   1.861   9.560
  353POPC   PO4 9756   5.626   2.398   9.507
  353POPC   GL1 9757   5.864   2.241   9.220
  353POPC   GL2 9758   5.618   1.962   9.186
  353POPC   C1A 9759   6.088   2.208   8.844
  353POPC   D2A 9760   6.221   2.301   8.442
  353POPC   C3A 9761   6.216   2.059   8.068
  353POPC   C4A 9762   6.013   1.920   7.701
  353POPC   C1B 9763   5.584   2.144   8.811
  353POPC   C2B 9764   5.788   1.985   8.463
  353POPC   C3B 9765   5.701   2.079   8.064
  353POPC   C4B 9766   5.541   2.169   7.671
  354POPC   NC3 9767  32.016  32.105   9.801
  354POPC   PO4 9768  32.384  32.588   9.430
  354POPC   GL1 9769  32.357  32.361   9.062
  354POPC   GL2 9770  32.532  32.078   9.183
  354POPC   C1A 9771  32.314  32.377   8.586
  354POPC   D2A 9772  32.646  32.443   8.327
  354POPC   C3A 9773  32.496  32.560   7.929
  354POPC   C4A 9774  32.064  32.534   7.755
  354POPC   C1B 9775  32.376  31.938   8.795
  354POPC   C2B 9776  32.575  31.943   8.426
  354POPC   C3B 9777  32.436  32.062   8.021
  354POPC   C4B 9778  32.067  32.029   7.835
  355POPC   NC3 9779  19.514  42.136   9.564
  355POPC   PO4 9780  18.806  42.374   9.541
  355POPC   GL1 9781  19.148  42.454   9.207
  355POPC   GL2 9782  18.932  42.408   8.963
  355POPC   C1A 9783  19.388  42.494   8.768
  355POPC   D2A 9784  19.320  42.215   8.411
  355POPC   C3A 9785  19.074  42.447   8.121
  355POPC   C4A 9786  19.025  42.655   7.748
  355POPC   C1B 9787  18.934  42.703   8.588
  355POPC   C2B 9788  18.707  42.841   8.198
  355POPC   C3B 9789  18.522  42.609   7.875
  355POPC   C4B 9790  18.736  42.233   7.756
  356POPC   NC3 9791  27.753  35.293   9.419
  356POPC   PO4 9792  27.139  35.241   9.477
  356POPC   GL1 9793  27.361  35.278   9.087
  356POPC   GL2 9794  27.142  35.123   8.922
  356POPC   C1A 9795  27.741  35.275   8.768
  356POPC   D2A 9796  27.924  35.067   8.377
  356POPC   C3A 9797  27.912  35.233   7.916
  356POPC   C4A 9798  27.641  35.193   7.537
  356POPC   C1B 9799  27.282  35.328   8.561
  356POPC   C2B 9800  27.446  35.190   8.171
  356POPC   C3B 9801  27.494  35.543   7.872
  356POPC   C4B 9802  27.267  35.673   7.519
  357POPC   NC3 9803  43.375  44.937   9.513
  357POPC   PO4 9804  43.476   0.604   9.651
  357POPC   GL1 9805  43.179   0.533   9.330
  357POPC   GL2 9806  43.036   0.851   9.206
  357POPC   C1A 9807  43.161   0.320   8.941
  357POPC   D2A 9808  42.965   0.328   8.535
  357POPC   C3A 9809  43.234   0.270   8.193
  357POPC   C4A 9810  43.095   0.230   7.803
  357POPC   C1B 9811  42.981   0.797   8.777
  357POPC   C2B 9812  43.241   0.747   8.411
  357POPC   C3B 9813  43.051   0.715   8.009
  357POPC   C4B 9814  43.183   0.864   7.628
  358POPC   NC3 9815  24.763  16.449   9.417
  358POPC   PO4 9816  24.697  17.085   9.632
  358POPC   GL1 9817  24.558  16.930   9.172
  358POPC   GL2 9818  24.504  16.583   9.004
  358POPC   C1A 9819  24.595  16.960   8.682
  358POPC   D2A 9820  24.280  16.847   8.326
  358POPC   C3A 9821  24.443  16.606   7.957
  358POPC   C4A 9822  24.701  16.763   7.627
  358POPC   C1B 9823  24.888  16.545   8.764
  358POPC   C2B 9824  24.908  16.667   8.347
  358POPC   C3B 9825  24.942  16.428   7.984
  358POPC   C4B 9826  24.740  16.272   7.631
  359POPC   NC3 9827  18.615  26.632   9.649
  359POPC   PO4 9828  18.020  26.589   9.485
  359POPC   GL1 9829  18.147  26.803   9.124
  359POPC   GL2 9830  18.497  26.892   9.166
  359POPC   C1A 9831  18.280  26.713   8.716
  359POPC   D2A 9832  18.166  26.491   8.394
  359POPC   C3A 9833  18.279  26.702   8.061
  359POPC   C4A 9834  18.253  26.674   7.662
  359POPC   C1B 9835  18.530  27.149   8.781
  359POPC   C2B 9836  18.431  27.129   8.320
  359POPC   C3B 9837  18.493  27.121   7.848
  359POPC   C4B 9838  18.523  26.994   7.386
  360POPC   NC3 9839  20.398  30.016   9.633
  360POPC   PO4 9840  21.014  29.758   9.767
  360POPC   GL1 9841  20.848  29.770   9.310
  360POPC   GL2 9842  20.695  30.096   9.175
  360POPC   C1A 9843  20.786  29.745   8.826
  360POPC   D2A 9844  20.780  30.002   8.412
  360POPC   C3A 9845  20.633  29.834   8.013
  360POPC   C4A 9846  20.752  29.815   7.568
  360POPC   C1B 9847  20.428  30.121   8.758
  360POPC   C2B 9848  20.150  30.135   8.370
  360POPC   C3B 9849  20.284  30.237   7.963
  360POPC   C4B 9850  20.279  29.957   7.640
  361POPC   NC3 9851   0.700  32.643   9.388
  361POPC   PO4 9852   1.169  33.097   9.474
  361POPC   GL1 9853   0.992  32.947   9.108
  361POPC   GL2 9854   0.779  33.173   9.150
  361POPC   C1A 9855   1.137  33.015   8.706
  361POPC   D2A 9856   1.112  32.838   8.341
  361POPC   C3A 9857   1.273  32.988   7.973
  361POPC   C4A 9858   1.259  32.795   7.585
  361POPC   C1B 9859   0.832  33.426   8.790
  361POPC   C2B 9860   0.812  33.312   8.358
  361POPC   C3B 9861   0.997  33.431   8.001
  361POPC   C4B 9862   1.061  33.303   7.582
  362POPC   NC3 9863  20.149  36.439   9.589
  362POPC   PO4 9864  19.646  36.817   9.641
  362POPC   GL1 9865  19.789  36.716   9.221
  362POPC   GL2 9866  19.865  37.052   9.098
  362POPC   C1A 9867  19.837  36.656   8.767
  362POPC   D2A 9868  19.798  36.848   8.382
  362POPC   C3A 9869  19.877  36.680   7.976
  362POPC   C4A 9870  20.009  37.012   7.724
  362POPC   C1B 9871  19.551  37.103   8.766
  362POPC   C2B 9872  19.324  37.040   8.378
  362POPC   C3B 9873  19.502  37.033   7.982
  362POPC   C4B 9874  19.560  36.847   7.566
  363POPC   NC3 9875  44.529  44.465  10.295
  363POPC   PO4 9876  44.511  44.534   9.680
  363POPC   GL1 9877  44.572  44.550   9.174
  363POPC   GL2 9878  44.475  44.857   8.971
  363POPC   C1A 9879  44.563  44.391   8.731
  363POPC   D2A 9880  44.693  44.395   8.275
  363POPC   C3A 9881  44.531  44.643   7.947
  363POPC   C4A 9882  44.635  44.381   7.563
  363POPC   C1B 9883  44.698   0.163   8.658
  363POPC   C2B 9884  44.824   0.047   8.199
  363POPC   C3B 9885  45.000  44.799   7.842
  363POPC   C4B 9886  44.883  44.804   7.381
  364POPC   NC3 9887  31.915  29.687   9.860
  364POPC   PO4 9888  32.136  30.116   9.581
  364POPC   GL1 9889  32.286  30.230   9.112
  364POPC   GL2 9890  32.621  30.402   9.110
  364POPC   C1A 9891  32.210  30.100   8.637
  364POPC   D2A 9892  32.219  29.755   8.320
  364POPC   C3A 9893  32.271  29.908   7.887
  364POPC   C4A 9894  31.993  30.073   7.562
  364POPC   C1B 9895  32.708  30.191   8.732
  364POPC   C2B 9896  32.663  30.017   8.328
  364POPC   C3B 9897  32.688  30.219   7.934
  364POPC   C4B 9898  32.502  30.227   7.521
  365POPC   NC3 9899   2.797  15.973   9.405
  365POPC   PO4 9900   2.260  16.113   9.760
  365POPC   GL1 9901   2.237  16.117   9.197
  365POPC   GL2 9902   2.533  15.971   8.976
  365POPC   C1A 9903   2.265  16.278   8.717
  365POPC   D2A 9904   2.261  16.149   8.283
  365POPC   C3A 9905   2.542  16.004   7.975
  365POPC   C4A 9906   2.476  15.545   7.823
  365POPC   C1B 9907   2.664  15.596   8.709
  365POPC   C2B 9908   2.703  15.582   8.270
  365POPC   C3B 9909   2.972  15.749   7.914
  365POPC   C4B 9910   3.077  16.213   7.911
  366POPC   NC3 9911  20.080   7.348   9.650
  366POPC   PO4 9912  19.654   7.810   9.441
  366POPC   GL1 9913  19.962   7.549   9.194
  366POPC   GL2 9914  19.993   7.205   9.165
  366POPC   C1A 9915  20.000   7.542   8.770
  366POPC   D2A 9916  19.660   7.577   8.495
  366POPC   C3A 9917  19.746   7.577   8.056
  366POPC   C4A 9918  20.154   7.597   7.819
  366POPC   C1B 9919  19.702   7.118   8.829
  366POPC   C2B 9920  19.869   7.112   8.410
  366POPC   C3B 9921  19.841   7.077   7.993
  366POPC   C4B 9922  19.438   7.207   7.850
  367POPC   NC3 9923  40.141  39.339   9.435
  367POPC   PO4 9924  39.868  38.750   9.541
  367POPC   GL1 9925  39.836  38.895   9.138
  367POPC   GL2 9926  39.761  39.250   9.041
  367POPC   C1A 9927  40.127  38.969   8.797
  367POPC   D2A 9928  39.968  39.178   8.446
  367POPC   C3A 9929  40.079  39.201   8.053
  367POPC   C4A 9930  39.850  39.048   7.746
  367POPC   C1B 9931  40.077  39.524   8.789
  367POPC   C2B 9932  40.203  39.629   8.376
  367POPC   C3B 9933  40.372  39.604   7.970
  367POPC   C4B 9934  40.145  39.442   7.595
  368POPC   NC3 9935  36.245   9.213   9.407
  368POPC   PO4 9936  36.310   9.827   9.699
  368POPC   GL1 9937  36.079   9.786   9.262
  368POPC   GL2 9938  36.266   9.600   9.050
  368POPC   C1A 9939  35.987   9.915   8.807
  368POPC   D2A 9940  35.932   9.741   8.387
  368POPC   C3A 9941  35.924   9.911   8.017
  368POPC   C4A 9942  36.183   9.863   7.720
  368POPC   C1B 9943  36.372   9.606   8.602
  368POPC   C2B 9944  36.310   9.436   8.159
  368POPC   C3B 9945  36.578   9.510   7.773
  368POPC   C4B 9946  36.513   9.466   7.293
  369POPC   NC3 9947  40.999  44.792   9.538
  369POPC   PO4 9948  40.369  44.944   9.525
  369POPC   GL1 9949  40.607  44.693   9.222
  369POPC   GL2 9950  40.419  44.471   9.048
  369POPC   C1A 9951  40.928  44.526   8.902
  369POPC   D2A 9952  41.014  44.585   8.453
  369POPC   C3A 9953  40.984  44.334   8.069
  369POPC   C4A 9954  41.149  44.505   7.674
  369POPC   C1B 9955  40.550  44.847   8.750
  369POPC   C2B 9956  40.657   0.013   8.363
  369POPC   C3B 9957  40.804  44.819   7.999
  369POPC   C4B 9958  40.832  44.972   7.596
  370POPC   NC3 9959  13.023   7.634   9.518
  370POPC   PO4 9960  12.516   7.175   9.533
  370POPC   GL1 9961  12.833   7.279   9.213
  370POPC   GL2 9962  12.804   7.593   9.036
  370POPC   C1A 9963  12.988   7.146   8.819
  370POPC   D2A 9964  12.780   7.161   8.416
  370POPC   C3A 9965  12.956   7.144   8.016
  370POPC   C4A 9966  12.948   6.874   7.697
  370POPC   C1B 9967  13.052   7.591   8.631
  370POPC   C2B 9968  13.135   7.567   8.215
  370POPC   C3B 9969  12.794   7.606   7.912
  370POPC   C4B 9970  12.730   7.760   7.517
  371POPC   NC3 9971  22.516  31.182   9.321
  371POPC   PO4 9972  22.016  31.711   9.527
  371POPC   GL1 9973  22.059  31.562   9.113
  371POPC   GL2 9974  22.394  31.656   9.097
  371POPC   C1A 9975  21.919  31.409   8.698
  371POPC   D2A 9976  21.935  31.084   8.402
  371POPC   C3A 9977  21.858  31.328   8.054
  371POPC   C4A 9978  21.927  31.435   7.643
  371POPC   C1B 9979  22.428  31.418   8.699
  371POPC   C2B 9980  22.279  31.498   8.289
  371POPC   C3B 9981  22.349  31.621   7.864
  371POPC   C4B 9982  22.361  31.576   7.366
  372POPC   NC3 9983  17.842   0.104   9.474
  372POPC   PO4 9984  18.366   0.493   9.569
  372POPC   GL1 9985  18.393   0.655   9.174
  372POPC   GL2 9986  18.042   0.787   9.185
  372POPC   C1A 9987  18.309   0.670   8.733
  372POPC   D2A 9988  18.338   0.573   8.302
  372POPC   C3A 9989  18.478   0.218   8.065
  372POPC   C4A 9990  18.760   0.407   7.760
  372POPC   C1B 9991  17.795   0.674   8.841
  372POPC   C2B 9992  17.846   0.764   8.412
  372POPC   C3B 9993  17.915   0.475   8.066
  372POPC   C4B 9994  18.228   0.545   7.757
  373POPC   NC3 9995  14.201  44.030   9.344
  373POPC   PO4 9996  14.706  43.609   9.527
  373POPC   GL1 9997  14.567  43.810   9.081
  373POPC   GL2 9998  14.209  43.753   8.929
  373POPC   C1A 9999  14.644  43.814   8.656
  373POPC   D2A10000  14.335  43.707   8.345
  373POPC   C3A10001  14.567  43.687   7.958
  373POPC   C4A10002  14.733  44.026   7.763
  373POPC   C1B10003  14.288  44.165   8.725
  373POPC   C2B10004  14.138  44.350   8.375
  373POPC   C3B10005  14.280  44.131   8.019
  373POPC   C4B10006  14.155  43.853   7.701
  374POPC   NC310007  27.082  25.559   9.191
  374POPC   PO410008  26.483  25.669   9.426
  374POPC   GL110009  26.588  25.686   9.028
  374POPC   GL210010  26.672  26.026   9.066
  374POPC   C1A10011  26.677  25.725   8.586
  374POPC   D2A10012  26.533  25.932   8.227
  374POPC   C3A10013  26.776  25.928   7.854
  374POPC   C4A10014  26.708  25.767   7.464
  374POPC   C1B10015  26.770  26.228   8.655
  374POPC   C2B10016  26.932  26.256   8.223
  374POPC   C3B10017  27.086  26.341   7.807
  374POPC   C4B10018  27.025  26.605   7.458
  375POPC   NC310019  38.247  42.978   9.529
  375POPC   PO410020  38.765  43.382   9.531
  375POPC   GL110021  38.478  43.328   9.209
  375POPC   GL210022  38.590  43.004   9.144
  375POPC   C1A10023  38.238  43.298   8.835
  375POPC   D2A10024  38.270  43.131   8.422
  375POPC   C3A10025  38.279  43.305   8.021
  375POPC   C4A10026  38.653  43.216   7.772
  375POPC   C1B10027  38.437  42.814   8.791
  375POPC   C2B10028  38.315  42.643   8.363
  375POPC   C3B10029  38.447  42.778   7.944
  375POPC   C4B10030  38.494  42.824   7.488
  376POPC   NC310031  30.401  19.158   9.318
  376POPC   PO410032  30.881  18.890   9.732
  376POPC   GL110033  30.951  18.961   9.255
  376POPC   GL210034  30.958  19.263   9.175
  376POPC   C1A10035  30.744  18.943   8.804
  376POPC   D2A10036  30.620  19.192   8.429
  376POPC   C3A10037  30.639  18.984   8.020
  376POPC   C4A10038  30.518  18.885   7.579
  376POPC   C1B10039  30.926  19.417   8.801
  376POPC   C2B10040  30.920  19.614   8.420
  376POPC   C3B10041  30.867  19.494   8.029
  376POPC   C4B10042  30.772  19.318   7.651
  377POPC   NC310043  16.361  12.126   9.545
  377POPC   PO410044  16.880  11.918   9.818
  377POPC   GL110045  16.855  12.083   9.301
  377POPC   GL210046  16.560  12.239   9.116
  377POPC   C1A10047  16.967  11.923   8.863
  377POPC   D2A10048  17.021  11.633   8.499
  377POPC   C3A10049  17.104  11.826   8.088
  377POPC   C4A10050  16.793  12.017   7.819
  377POPC   C1B10051  16.484  12.085   8.715
  377POPC   C2B10052  16.651  11.961   8.347
  377POPC   C3B10053  16.450  11.704   8.066
  377POPC   C4B10054  16.310  11.902   7.713
  378POPC   NC310055  24.087  31.835   9.333
  378POPC   PO410056  24.419  32.300   9.719
  378POPC   GL110057  24.381  32.303   9.283
  378POPC   GL210058  24.650  32.089   9.179
  378POPC   C1A10059  24.450  32.371   8.830
  378POPC   D2A10060  24.540  32.556   8.453
  378POPC   C3A10061  24.275  32.410   8.127
  378POPC   C4A10062  24.482  32.424   7.750
  378POPC   C1B10063  24.880  32.134   8.767
  378POPC   C2B10064  24.769  32.117   8.311
  378POPC   C3B10065  24.852  32.078   7.870
  378POPC   C4B10066  24.715  32.046   7.437
  379POPC   NC310067  35.413  22.941   9.798
  379POPC   PO410068  35.046  23.079   9.298
  379POPC   GL110069  35.425  23.103   9.038
  379POPC   GL210070  35.776  23.258   8.907
  379POPC   C1A10071  35.407  22.955   8.646
  379POPC   D2A10072  35.153  22.641   8.428
  379POPC   C3A10073  35.126  22.805   8.029
  379POPC   C4A10074  35.240  23.041   7.671
  379POPC   C1B10075  35.855  23.199   8.467
  379POPC   C2B10076  35.720  22.795   8.281
  379POPC   C3B10077  35.636  22.819   7.864
  379POPC   C4B10078  35.751  23.188   7.620
  380POPC   NC310079  14.217   2.677   9.795
  380POPC   PO410080  14.577   3.032   9.381
  380POPC   GL110081  14.357   2.793   9.138
  380POPC   GL210082  14.127   2.555   9.296
  380POPC   C1A10083  14.250   2.913   8.720
  380POPC   D2A10084  14.298   2.942   8.285
  380POPC   C3A10085  14.313   3.311   8.086
  380POPC   C4A10086  14.387   3.154   7.693
  380POPC   C1B10087  14.132   2.441   8.845
  380POPC   C2B10088  14.334   2.457   8.445
  380POPC   C3B10089  14.580   2.524   8.088
  380POPC   C4B10090  14.459   2.514   7.701
  381POPC   NC310091  15.599  13.658   9.414
  381POPC   PO410092  14.926  13.765   9.538
  381POPC   GL110093  15.110  13.502   9.233
  381POPC   GL210094  15.219  13.815   9.111
  381POPC   C1A10095  15.202  13.324   8.816
  381POPC   D2A10096  15.337  13.389   8.393
  381POPC   C3A10097  15.075  13.319   8.035
  381POPC   C4A10098  15.183  13.389   7.611
  381POPC   C1B10099  15.415  13.811   8.727
  381POPC   C2B10100  15.217  13.885   8.341
  381POPC   C3B10101  15.199  13.795   7.926
  381POPC   C4B10102  15.390  13.863   7.529
  382POPC   NC310103   0.081   4.768   9.442
  382POPC   PO410104   0.267   4.106   9.542
  382POPC   GL110105   0.398   4.409   9.213
  382POPC   GL210106   0.757   4.504   9.154
  382POPC   C1A10107   0.342   4.304   8.786
  382POPC   D2A10108   0.481   4.221   8.375
  382POPC   C3A10109   0.320   4.549   8.085
  382POPC   C4A10110  44.930   4.483   7.866
  382POPC   C1B10111   0.858   4.320   8.753
  382POPC   C2B10112   0.903   4.484   8.333
  382POPC   C3B10113   0.783   4.422   7.908
  382POPC   C4B10114   0.780   4.153   7.538
  383POPC   NC310115  43.442  11.627   9.308
  383POPC   PO410116  43.376  11.059   9.627
  383POPC   GL110117  43.194  11.169   9.194
  383POPC   GL210118  42.904  11.405   9.114
  383POPC   C1A10119  43.225  11.320   8.729
  383POPC   D2A10120  43.520  11.487   8.427
  383POPC   C3A10121  43.345  11.632   8.063
  383POPC   C4A10122  43.216  11.463   7.675
  383POPC   C1B10123  42.798  11.057   8.869
  383POPC   C2B10124  42.759  11.053   8.432
  383POPC   C3B10125  42.985  11.176   8.064
  383POPC   C4B10126  42.962  10.989   7.654
  384POPC   NC310127  11.536  38.864   9.399
  384POPC   PO410128  11.438  39.520   9.550
  384POPC   GL110129  11.333  39.298   9.176
  384POPC   GL210130  11.002  39.286   9.299
  384POPC   C1A10131  11.163  39.018   8.805
  384POPC   D2A10132  11.147  38.840   8.335
  384POPC   C3A10133  11.404  38.970   7.934
  384POPC   C4A10134  11.659  39.316   7.702
  384POPC   C1B10135  10.946  39.504   8.920
  384POPC   C2B10136  11.028  39.419   8.499
  384POPC   C3B10137  11.125  39.580   8.101
  384POPC   C4B10138  11.171  39.397   7.722
  385POPC   NC310139  16.938  24.827   9.460
  385POPC   PO410140  16.405  24.316   9.541
  385POPC   GL110141  16.603  24.253   9.168
  385POPC   GL210142  16.749  24.567   9.057
  385POPC   C1A10143  16.549  24.201   8.779
  385POPC   D2A10144  16.676  24.375   8.474
  385POPC   C3A10145  16.645  24.219   8.096
  385POPC   C4A10146  16.744  24.447   7.737
  385POPC   C1B10147  17.051  24.631   8.713
  385POPC   C2B10148  17.052  24.597   8.246
  385POPC   C3B10149  17.062  24.869   7.921
  385POPC   C4B10150  16.987  24.831   7.496
  386POPC   NC310151  36.132  36.634   9.470
  386POPC   PO410152  35.555  37.026   9.305
  386POPC   GL110153  36.011  36.995   9.098
  386POPC   GL210154  36.382  36.887   9.090
  386POPC   C1A10155  36.157  36.935   8.650
  386POPC   D2A10156  35.958  36.774   8.273
  386POPC   C3A10157  36.004  37.033   7.909
  386POPC   C4A10158  36.263  37.345   7.758
  386POPC   C1B10159  36.569  36.602   8.751
  386POPC   C2B10160  36.481  36.479   8.311
  386POPC   C3B10161  36.352  36.657   7.912
  386POPC   C4B10162  36.094  36.699   7.525
  387POPC   NC310163   3.057  40.254   9.382
  387POPC   PO410164   2.806  39.619   9.258
  387POPC   GL110165   2.819  39.918   8.997
  387POPC   GL210166   2.625  40.175   9.087
  387POPC   C1A10167   2.727  39.950   8.576
  387POPC   D2A10168   2.955  39.849   8.226
  387POPC   C3A10169   2.806  40.082   7.905
  387POPC   C4A10170   2.944  40.187   7.491
  387POPC   C1B10171   2.469  40.367   8.694
  387POPC   C2B10172   2.391  40.223   8.258
  387POPC   C3B10173   2.464  40.450   7.853
  387POPC   C4B10174   2.483  40.531   7.391
  388POPC   NC310175  21.611  36.274   9.692
  388POPC   PO410176  21.188  35.805   9.746
  388POPC   GL110177  21.282  36.128   9.322
  388POPC   GL210178  21.604  36.282   9.182
  388POPC   C1A10179  21.254  36.140   8.815
  388POPC   D2A10180  20.912  36.042   8.462
  388POPC   C3A10181  21.054  36.013   8.009
  388POPC   C4A10182  21.225  36.310   7.684
  388POPC   C1B10183  21.783  36.393   8.762
  388POPC   C2B10184  21.742  36.186   8.347
  388POPC   C3B10185  21.680  36.105   7.899
  388POPC   C4B10186  21.740  36.393   7.543
  389POPC   NC310187   2.325  14.088   9.273
  389POPC   PO410188   1.675  14.191   9.521
  389POPC   GL110189   1.852  14.208   9.111
  389POPC   GL210190   1.576  14.036   9.005
  389POPC   C1A10191   2.103  14.395   8.734
  389POPC   D2A10192   1.947  14.576   8.363
  389POPC   C3A10193   2.111  14.458   7.990
  389POPC   C4A10194   2.108  14.660   7.642
  389POPC   C1B10195   1.643  14.237   8.633
  389POPC   C2B10196   1.459  14.348   8.278
  389POPC   C3B10197   1.385  14.124   7.925
  389POPC   C4B10198   1.775  14.089   7.725
  390POPC   NC310199  34.048   9.118   9.596
  390POPC   PO410200  33.390   9.144   9.619
  390POPC   GL110201  33.698   9.176   9.227
  390POPC   GL210202  33.827   8.818   9.239
  390POPC   C1A10203  34.012   9.049   8.843
  390POPC   D2A10204  34.122   8.791   8.466
  390POPC   C3A10205  33.978   8.880   8.052
  390POPC   C4A10206  33.936   9.167   7.695
  390POPC   C1B10207  33.535   8.869   8.842
  390POPC   C2B10208  33.633   9.053   8.430
  390POPC   C3B10209  33.514   9.104   7.983
  390POPC   C4B10210  33.594   8.798   7.650
  391POPC   NC310211  12.512  29.712   9.546
  391POPC   PO410212  13.133  29.802   9.535
  391POPC   GL110213  13.012  29.865   9.122
  391POPC   GL210214  12.713  29.670   9.041
  391POPC   C1A10215  12.884  30.088   8.746
  391POPC   D2A10216  12.673  29.974   8.372
  391POPC   C3A10217  12.783  29.911   7.920
  391POPC   C4A10218  12.889  29.739   7.480
  391POPC   C1B10219  12.951  29.578   8.646
  391POPC   C2B10220  12.867  29.490   8.206
  391POPC   C3B10221  12.664  29.414   7.813
  391POPC   C4B10222  12.622  29.249   7.404
  392POPC   NC310223  36.798  23.258   9.506
  392POPC   PO410224  36.606  23.871   9.642
  392POPC   GL110225  36.742  23.747   9.177
  392POPC   GL210226  36.905  23.418   9.044
  392POPC   C1A10227  36.903  23.801   8.724
  392POPC   D2A10228  36.923  23.547   8.318
  392POPC   C3A10229  37.001  23.841   7.976
  392POPC   C4A10230  37.024  23.902   7.510
  392POPC   C1B10231  37.259  23.446   8.720
  392POPC   C2B10232  37.408  23.384   8.315
  392POPC   C3B10233  37.246  23.396   7.909
  392POPC   C4B10234  36.848  23.458   7.673
  393POPC   NC310235  13.108  13.325   9.479
  393POPC   PO410236  12.988  14.007   9.605
  393POPC   GL110237  12.809  13.665   9.287
  393POPC   GL210238  13.150  13.662   9.094
  393POPC   C1A10239  12.738  13.500   8.851
  393POPC   D2A10240  12.957  13.649   8.465
  393POPC   C3A10241  12.769  13.631   8.028
  393POPC   C4A10242  12.526  13.415   7.698
  393POPC   C1B10243  13.422  13.661   8.715
  393POPC   C2B10244  13.412  13.742   8.268
  393POPC   C3B10245  13.285  13.534   7.943
  393POPC   C4B10246  13.070  13.757   7.646
  394POPC   NC310247  37.952  29.239   9.544
  394POPC   PO410248  38.631  29.289   9.638
  394POPC   GL110249  38.505  29.038   9.244
  394POPC   GL210250  38.175  29.137   9.074
  394POPC   C1A10251  38.561  28.892   8.809
  394POPC   D2A10252  38.422  28.757   8.402
  394POPC   C3A10253  38.748  28.844   8.125
  394POPC   C4A10254  38.625  29.136   7.840
  394POPC   C1B10255  38.199  29.199   8.602
  394POPC   C2B10256  38.205  29.159   8.138
  394POPC   C3B10257  38.157  29.350   7.711
  394POPC   C4B10258  38.139  29.545   7.276
  395POPC   NC310259  20.981   4.742   9.782
  395POPC   PO410260  20.396   4.630   9.586
  395POPC   GL110261  20.580   4.391   9.236
  395POPC   GL210262  20.579   4.026   9.299
  395POPC   C1A10263  20.622   4.541   8.775
  395POPC   D2A10264  20.774   4.460   8.334
  395POPC   C3A10265  20.641   4.654   7.927
  395POPC   C4A10266  20.814   4.600   7.482
  395POPC   C1B10267  20.415   4.074   8.864
  395POPC   C2B10268  20.347   4.135   8.390
  395POPC   C3B10269  20.580   4.134   7.975
  395POPC   C4B10270  20.816   4.090   7.575
  396POPC   NC310271   3.819  18.841   9.349
  396POPC   PO410272   3.683  19.477   9.506
  396POPC   GL110273   3.518  19.241   9.145
  396POPC   GL210274   3.320  18.936   9.103
  396POPC   C1A10275   3.671  19.137   8.720
  396POPC   D2A10276   3.672  19.374   8.344
  396POPC   C3A10277   3.842  19.283   7.929
  396POPC   C4A10278   3.833  19.024   7.534
  396POPC   C1B10279   3.175  19.111   8.687
  396POPC   C2B10280   3.219  19.068   8.245
  396POPC   C3B10281   3.422  18.997   7.874
  396POPC   C4B10282   3.338  18.866   7.464
  397POPC   NC310283  12.393  41.632   9.802
  397POPC   PO410284  13.056  41.449   9.565
  397POPC   GL110285  12.945  41.446   9.113
  397POPC   GL210286  12.636  41.240   8.966
  397POPC   C1A10287  12.788  41.657   8.725
  397POPC   D2A10288  12.649  41.455   8.348
  397POPC   C3A10289  12.719  41.759   8.032
  397POPC   C4A10290  12.995  41.889   7.693
  397POPC   C1B10291  13.046  41.192   8.725
  397POPC   C2B10292  13.167  41.421   8.393
  397POPC   C3B10293  13.105  41.236   8.015
  397POPC   C4B10294  13.176  41.394   7.630
  398POPC   NC310295  23.766  22.045   9.642
  398POPC   PO410296  23.797  22.574   9.234
  398POPC   GL110297  23.573  22.171   9.185
  398POPC   GL210298  23.797  21.872   9.157
  398POPC   C1A10299  23.421  22.000   8.805
  398POPC   D2A10300  23.578  22.250   8.457
  398POPC   C3A10301  23.457  22.175   8.041
  398POPC   C4A10302  23.669  22.448   7.781
  398POPC   C1B10303  23.945  21.983   8.760
  398POPC   C2B10304  24.144  22.032   8.386
  398POPC   C3B10305  23.972  22.065   7.987
  398POPC   C4B10306  23.702  21.951   7.631
  399POPC   NC310307  20.929  14.025   9.261
  399POPC   PO410308  20.697  13.376   9.540
  399POPC   GL110309  20.737  13.548   9.143
  399POPC   GL210310  20.424  13.761   9.103
  399POPC   C1A10311  20.687  13.621   8.694
  399POPC   D2A10312  20.453  13.493   8.336
  399POPC   C3A10313  20.654  13.644   7.979
  399POPC   C4A10314  20.563  13.397   7.638
  399POPC   C1B10315  20.187  13.798   8.692
  399POPC   C2B10316  19.971  13.699   8.307
  399POPC   C3B10317  20.137  13.689   7.901
  399POPC   C4B10318  20.372  13.966   7.680
  400POPC   NC310319  11.481  26.713   9.409
  400POPC   PO410320  11.003  26.531   8.967
  400POPC   GL110321  11.413  26.700   8.899
  400POPC   GL210322  11.257  26.994   9.051
  400POPC   C1A10323  11.720  26.579   8.566
  400POPC   D2A10324  11.588  26.414   8.168
  400POPC   C3A10325  11.418  26.668   7.841
  400POPC   C4A10326  10.993  26.576   7.658
  400POPC   C1B10327  11.282  27.161   8.667
  400POPC   C2B10328  11.411  26.963   8.306
  400POPC   C3B10329  11.364  27.170   7.935
  400POPC   C4B10330  11.177  27.045   7.585
  401POPC   NC310331  36.919   2.804   9.528
  401POPC   PO410332  37.315   2.278   9.494
  401POPC   GL110333  37.031   2.372   9.153
  401POPC   GL210334  37.143   2.702   9.089
  401POPC   C1A10335  36.870   2.466   8.702
  401POPC   D2A10336  36.799   2.377   8.234
  401POPC   C3A10337  36.849   2.662   7.888
  401POPC   C4A10338  36.926   3.102   7.925
  401POPC   C1B10339  36.962   2.966   8.810
  401POPC   C2B10340  37.027   2.870   8.384
  401POPC   C3B10341  37.297   2.719   8.087
  401POPC   C4B10342  37.389   2.913   7.725
  402POPC   NC310343  39.038   2.168   9.615
  402POPC   PO410344  38.668   1.585   9.546
  402POPC   GL110345  38.624   1.806   9.193
  402POPC   GL210346  38.989   1.867   9.197
  402POPC   C1A10347  38.401   1.973   8.804
  402POPC   D2A10348  38.471   2.317   8.489
  402POPC   C3A10349  38.544   2.213   8.058
  402POPC   C4A10350  38.315   1.917   7.841
  402POPC   C1B10351  38.886   1.790   8.764
  402POPC   C2B10352  38.657   1.796   8.372
  402POPC   C3B10353  38.831   1.790   7.968
  402POPC   C4B10354  38.986   1.939   7.597
  403POPC   NC310355  31.940  32.476   9.351
  403POPC   PO410356  32.061  33.155   9.424
  403POPC   GL110357  32.161  32.873   9.075
  403POPC   GL210358  31.974  32.637   8.868
  403POPC   C1A10359  32.469  32.813   8.752
  403POPC   D2A10360  32.581  32.948   8.320
  403POPC   C3A10361  32.264  33.009   8.012
  403POPC   C4A10362  32.313  32.954   7.590
  403POPC   C1B10363  31.993  32.996   8.607
  403POPC   C2B10364  31.806  33.086   8.233
  403POPC   C3B10365  31.728  32.883   7.871
  403POPC   C4B10366  31.834  33.005   7.466
  404POPC   NC310367  20.901  30.870   9.600
  404POPC   PO410368  21.480  30.611   9.531
  404POPC   GL110369  21.659  30.772   9.120
  404POPC   GL210370  21.605  31.139   9.017
  404POPC   C1A10371  21.579  30.690   8.652
  404POPC   D2A10372  21.131  30.677   8.426
  404POPC   C3A10373  21.152  30.759   7.981
  404POPC   C4A10374  21.581  30.676   7.937
  404POPC   C1B10375  21.310  31.139   8.681
  404POPC   C2B10376  21.431  31.095   8.250
  404POPC   C3B10377  21.435  31.182   7.808
  404POPC   C4B10378  21.073  31.120   7.520
  405POPC   NC310379  10.051  21.636   9.492
  405POPC   PO410380  10.500  22.163   9.684
  405POPC   GL110381  10.445  22.093   9.273
  405POPC   GL210382  10.724  22.261   9.140
  405POPC   C1A10383  10.300  22.169   8.858
  405POPC   D2A10384  10.182  22.025   8.452
  405POPC   C3A10385  10.512  22.036   8.161
  405POPC   C4A10386  10.475  22.078   7.718
  405POPC   C1B10387  10.810  22.014   8.734
  405POPC   C2B10388  11.049  21.981   8.335
  405POPC   C3B10389  10.941  21.893   7.903
  405POPC   C4B10390  10.937  22.041   7.467
  406POPC   NC310391  13.133  12.709   9.530
  406POPC   PO410392  12.637  13.189   9.478
  406POPC   GL110393  12.895  13.028   9.131
  406POPC   GL210394  12.886  12.672   9.091
  406POPC   C1A10395  13.011  13.077   8.693
  406POPC   D2A10396  12.950  13.199   8.258
  406POPC   C3A10397  12.782  12.908   7.995
  406POPC   C4A10398  12.494  12.890   7.684
  406POPC   C1B10399  13.117  12.557   8.758
  406POPC   C2B10400  13.117  12.693   8.343
  406POPC   C3B10401  13.186  12.569   7.894
  406POPC   C4B10402  12.969  12.727   7.533
  407POPC   NC310403   7.048  36.779   9.397
  407POPC   PO410404   7.625  36.461   9.466
  407POPC   GL110405   7.511  36.786   9.180
  407POPC   GL210406   7.491  37.150   9.177
  407POPC   C1A10407   7.320  36.861   8.775
  407POPC   D2A10408   7.473  36.655   8.436
  407POPC   C3A10409   7.319  36.783   8.068
  407POPC   C4A10410   7.475  36.772   7.671
  407POPC   C1B10411   7.605  37.306   8.745
  407POPC   C2B10412   7.524  37.243   8.298
  407POPC   C3B10413   7.536  37.238   7.861
  407POPC   C4B10414   7.584  37.256   7.446
  408POPC   NC310415   9.441  24.152   9.436
  408POPC   PO410416   9.837  23.535   9.466
  408POPC   GL110417  10.013  23.779   9.139
  408POPC   GL210418   9.689  23.910   9.051
  408POPC   C1A10419  10.225  23.632   8.762
  408POPC   D2A10420  10.121  23.464   8.363
  408POPC   C3A10421   9.743  23.545   8.131
  408POPC   C4A10422   9.875  23.667   7.741
  408POPC   C1B10423   9.703  23.757   8.643
  408POPC   C2B10424   9.595  24.005   8.306
  408POPC   C3B10425   9.838  24.146   7.986
  408POPC   C4B10426   9.604  24.078   7.647
  409POPC   NC310427  40.452  35.205   9.509
  409POPC   PO410428  41.053  35.533   9.397
  409POPC   GL110429  40.750  35.553   9.114
  409POPC   GL210430  40.477  35.794   9.159
  409POPC   C1A10431  40.806  35.378   8.695
  409POPC   D2A10432  40.603  35.247   8.305
  409POPC   C3A10433  40.755  35.061   7.905
  409POPC   C4A10434  40.805  35.020   7.408
  409POPC   C1B10435  40.384  35.643   8.740
  409POPC   C2B10436  40.430  35.732   8.322
  409POPC   C3B10437  40.446  35.570   7.902
  409POPC   C4B10438  40.689  35.482   7.584
  410POPC   NC310439  35.799  19.957   9.628
  410POPC   PO410440  35.218  20.126   9.506
  410POPC   GL110441  35.206  19.894   9.168
  410POPC   GL210442  35.358  19.585   9.198
  410POPC   C1A10443  35.132  19.900   8.744
  410POPC   D2A10444  35.093  19.739   8.361
  410POPC   C3A10445  35.243  19.951   8.054
  410POPC   C4A10446  35.096  20.002   7.663
  410POPC   C1B10447  35.621  19.851   8.902
  410POPC   C2B10448  35.583  19.936   8.464
  410POPC   C3B10449  35.739  20.041   8.052
  410POPC   C4B10450  35.581  19.819   7.677
  411POPC   NC310451  26.088   8.505   9.311
  411POPC   PO410452  25.744   7.952   9.216
  411POPC   GL110453  25.817   8.175   8.935
  411POPC   GL210454  25.637   8.453   9.046
  411POPC   C1A10455  26.032   8.109   8.564
  411POPC   D2A10456  26.295   8.387   8.343
  411POPC   C3A10457  26.350   8.194   7.952
  411POPC   C4A10458  26.126   7.891   7.750
  411POPC   C1B10459  25.922   8.609   8.705
  411POPC   C2B10460  25.860   8.685   8.309
  411POPC   C3B10461  26.085   8.624   7.933
  411POPC   C4B10462  25.944   8.400   7.554
  412POPC   NC310463  43.093  24.645   9.601
  412POPC   PO410464  42.629  24.120   9.486
  412POPC   GL110465  42.857  24.433   9.190
  412POPC   GL210466  43.237  24.508   9.134
  412POPC   C1A10467  42.847  24.648   8.783
  412POPC   D2A10468  42.952  24.800   8.364
  412POPC   C3A10469  42.930  24.652   7.980
  412POPC   C4A10470  43.105  24.649   7.600
  412POPC   C1B10471  43.357  24.654   8.709
  412POPC   C2B10472  43.350  24.493   8.288
  412POPC   C3B10473  43.514  24.560   7.885
  412POPC   C4B10474  43.502  24.335   7.475
  413POPC   NC310475  27.031  15.351   9.557
  413POPC   PO410476  26.772  14.786   9.505
  413POPC   GL110477  26.656  15.134   9.246
  413POPC   GL210478  26.945  15.058   9.048
  413POPC   C1A10479  26.499  15.192   8.830
  413POPC   D2A10480  26.510  14.977   8.409
  413POPC   C3A10481  26.621  15.156   7.999
  413POPC   C4A10482  26.652  14.961   7.588
  413POPC   C1B10483  26.943  15.238   8.596
  413POPC   C2B10484  27.086  15.089   8.177
  413POPC   C3B10485  27.121  15.208   7.721
  413POPC   C4B10486  27.129  15.498   7.323
  414POPC   NC310487  13.792  20.034   9.479
  414POPC   PO410488  13.307  19.570   9.570
  414POPC   GL110489  13.546  19.556   9.176
  414POPC   GL210490  13.635  19.888   9.027
  414POPC   C1A10491  13.803  19.467   8.796
  414POPC   D2A10492  13.998  19.719   8.475
  414POPC   C3A10493  13.718  19.768   8.136
  414POPC   C4A10494  13.579  19.540   7.786
  414POPC   C1B10495  13.645  20.080   8.631
  414POPC   C2B10496  13.897  20.247   8.310
  414POPC   C3B10497  13.786  20.198   7.879
  414POPC   C4B10498  13.850  19.905   7.568
  415POPC   NC310499  39.851  20.396   9.528
  415POPC   PO410500  40.549  20.383   9.597
  415POPC   GL110501  40.234  20.440   9.209
  415POPC   GL210502  40.190  20.732   9.005
  415POPC   C1A10503  40.053  20.295   8.812
  415POPC   D2A10504  39.859  20.306   8.410
  415POPC   C3A10505  40.133  20.373   8.040
  415POPC   C4A10506  40.137  20.508   7.636
  415POPC   C1B10507  39.949  20.764   8.624
  415POPC   C2B10508  39.834  20.773   8.181
  415POPC   C3B10509  39.656  20.563   7.817
  415POPC   C4B10510  39.728  20.719   7.382
  416POPC   NC310511   1.240   8.542   9.657
  416POPC   PO410512   0.814   8.003   9.616
  416POPC   GL110513   1.045   8.273   9.276
  416POPC   GL210514   1.417   8.253   9.274
  416POPC   C1A10515   1.150   8.258   8.832
  416POPC   D2A10516   1.167   8.020   8.448
  416POPC   C3A10517   1.098   8.229   8.047
  416POPC   C4A10518   1.098   7.965   7.704
  416POPC   C1B10519   1.680   8.337   8.950
  416POPC   C2B10520   1.615   8.279   8.515
  416POPC   C3B10521   1.587   8.135   8.115
  416POPC   C4B10522   1.522   8.288   7.711
  417POPC   NC310523  30.278  19.745   9.482
  417POPC   PO410524  30.946  19.622   9.522
  417POPC   GL110525  30.843  19.785   9.137
  417POPC   GL210526  30.513  19.967   9.091
  417POPC   C1A10527  30.862  19.986   8.743
  417POPC   D2A10528  30.648  20.186   8.451
  417POPC   C3A10529  30.738  20.008   8.052
  417POPC   C4A10530  30.862  19.856   7.652
  417POPC   C1B10531  30.484  19.646   8.754
  417POPC   C2B10532  30.429  19.661   8.309
  417POPC   C3B10533  30.385  19.639   7.883
  417POPC   C4B10534  30.164  19.319   7.667
  418POPC   NC310535  39.089  39.648   9.906
  418POPC   PO410536  39.075  39.014   9.576
  418POPC   GL110537  39.261  39.066   9.185
  418POPC   GL210538  38.909  39.090   9.061
  418POPC   C1A10539  39.318  39.193   8.759
  418POPC   D2A10540  39.128  39.119   8.374
  418POPC   C3A10541  39.396  39.174   8.022
  418POPC   C4A10542  39.369  39.025   7.596
  418POPC   C1B10543  38.772  39.414   8.782
  418POPC   C2B10544  38.685  39.423   8.339
  418POPC   C3B10545  38.868  39.259   7.962
  418POPC   C4B10546  38.871  39.103   7.550
  419POPC   NC310547   4.555   3.326   9.541
  419POPC   PO410548   4.278   3.978   9.773
  419POPC   GL110549   4.474   3.807   9.360
  419POPC   GL210550   4.229   3.531   9.207
  419POPC   C1A10551   4.499   3.803   8.894
  419POPC   D2A10552   4.141   3.761   8.586
  419POPC   C3A10553   4.177   3.728   8.135
  419POPC   C4A10554   3.886   3.614   7.818
  419POPC   C1B10555   4.386   3.332   8.804
  419POPC   C2B10556   4.386   3.242   8.357
  419POPC   C3B10557   4.248   3.242   7.929
  419POPC   C4B10558   4.432   3.154   7.554
  420POPC   NC310559  32.731  33.954   9.835
  420POPC   PO410560  33.220  33.629   9.632
  420POPC   GL110561  33.350  33.538   9.218
  420POPC   GL210562  33.402  33.871   9.114
  420POPC   C1A10563  33.130  33.564   8.823
  420POPC   D2A10564  33.025  33.800   8.424
  420POPC   C3A10565  33.003  33.732   7.956
  420POPC   C4A10566  32.613  33.878   7.727
  420POPC   C1B10567  33.479  33.915   8.652
  420POPC   C2B10568  33.457  33.918   8.166
  420POPC   C3B10569  33.281  34.145   7.789
  420POPC   C4B10570  33.456  34.143   7.341
  421POPC   NC310571  10.427  40.374   9.252
  421POPC   PO410572  10.850  40.939   9.467
  421POPC   GL110573  10.762  40.727   9.119
  421POPC   GL210574  10.425  40.877   9.144
  421POPC   C1A10575  10.594  40.744   8.700
  421POPC   D2A10576  10.681  41.038   8.389
  421POPC   C3A10577  10.559  40.823   8.048
  421POPC   C4A10578  10.678  40.735   7.648
  421POPC   C1B10579  10.334  41.198   8.814
  421POPC   C2B10580  10.179  41.194   8.373
  421POPC   C3B10581  10.059  40.913   8.035
  421POPC   C4B10582  10.220  40.971   7.644
  422POPC   NC310583  21.964  15.240   9.579
  422POPC   PO410584  22.606  15.426   9.628
  422POPC   GL110585  22.365  15.336   9.230
  422POPC   GL210586  22.237  15.011   9.188
  422POPC   C1A10587  22.427  15.213   8.775
  422POPC   D2A10588  22.237  15.149   8.374
  422POPC   C3A10589  22.414  15.255   7.970
  422POPC   C4A10590  22.605  15.108   7.568
  422POPC   C1B10591  21.960  14.972   8.769
  422POPC   C2B10592  21.825  14.851   8.320
  422POPC   C3B10593  21.870  14.852   7.834
  422POPC   C4B10594  21.815  14.910   7.353
  423POPC   NC310595  42.184  24.175   9.326
  423POPC   PO410596  42.583  24.628   9.718
  423POPC   GL110597  42.408  24.656   9.276
  423POPC   GL210598  42.036  24.677   9.245
  423POPC   C1A10599  42.361  24.517   8.827
  423POPC   D2A10600  42.478  24.626   8.425
  423POPC   C3A10601  42.479  24.404   8.051
  423POPC   C4A10602  42.604  24.407   7.650
  423POPC   C1B10603  41.985  24.915   8.858
  423POPC   C2B10604  42.052  24.960   8.442
  423POPC   C3B10605  42.076  24.709   8.130
  423POPC   C4B10606  42.193  24.735   7.715
  424POPC   NC310607  29.712  40.880   9.773
  424POPC   PO410608  30.136  40.419   9.600
  424POPC   GL110609  30.097  40.791   9.274
  424POPC   GL210610  29.785  41.030   9.279
  424POPC   C1A10611  30.130  40.839   8.806
  424POPC   D2A10612  29.880  40.863   8.405
  424POPC   C3A10613  30.046  40.778   7.995
  424POPC   C4A10614  30.006  40.391   7.756
  424POPC   C1B10615  29.678  41.112   8.834
  424POPC   C2B10616  29.602  41.294   8.394
  424POPC   C3B10617  29.684  41.151   7.967
  424POPC   C4B10618  29.772  41.046   7.535
  425POPC   NC310619  15.719  18.821   9.430
  425POPC   PO410620  16.363  19.135   9.515
  425POPC   GL110621  16.179  18.940   9.205
  425POPC   GL210622  15.973  19.210   9.084
  425POPC   C1A10623  16.133  18.823   8.773
  425POPC   D2A10624  15.980  18.825   8.372
  425POPC   C3A10625  16.111  19.120   8.066
  425POPC   C4A10626  16.142  18.861   7.716
  425POPC   C1B10627  15.707  19.102   8.756
  425POPC   C2B10628  15.635  19.216   8.344
  425POPC   C3B10629  15.617  18.971   7.983
  425POPC   C4B10630  15.752  19.277   7.710
  426POPC   NC310631  10.333   9.314   9.467
  426POPC   PO410632  10.589   9.930   9.546
  426POPC   GL110633  10.353   9.797   9.192
  426POPC   GL210634  10.131   9.992   9.064
  426POPC   C1A10635  10.258   9.697   8.703
  426POPC   D2A10636  10.452   9.704   8.326
  426POPC   C3A10637  10.334   9.438   8.013
  426POPC   C4A10638  10.542   9.380   7.624
  426POPC   C1B10639  10.656   9.982   8.856
  426POPC   C2B10640  10.906   9.889   8.499
  426POPC   C3B10641  10.819   9.977   8.079
  426POPC   C4B10642  10.448   9.894   7.841
  427POPC   NC310643  14.259  21.636   9.513
  427POPC   PO410644  14.769  21.180   9.547
  427POPC   GL110645  14.498  21.309   9.209
  427POPC   GL210646  14.700  21.604   9.215
  427POPC   C1A10647  14.250  21.552   8.875
  427POPC   D2A10648  13.961  21.481   8.537
  427POPC   C3A10649  14.111  21.604   8.113
  427POPC   C4A10650  14.192  21.361   7.776
  427POPC   C1B10651  14.744  21.438   8.804
  427POPC   C2B10652  14.546  21.565   8.419
  427POPC   C3B10653  14.631  21.455   8.002
  427POPC   C4B10654  14.556  21.680   7.601
  428POPC   NC310655  21.963  38.274   9.494
  428POPC   PO410656  22.359  38.732   9.218
  428POPC   GL110657  22.142  38.368   9.002
  428POPC   GL210658  21.778  38.219   9.031
  428POPC   C1A10659  22.295  38.370   8.602
  428POPC   D2A10660  22.428  38.813   8.360
  428POPC   C3A10661  22.340  38.778   7.918
  428POPC   C4A10662  22.346  38.360   7.791
  428POPC   C1B10663  21.733  38.655   8.902
  428POPC   C2B10664  21.970  38.754   8.550
  428POPC   C3B10665  22.033  38.477   8.186
  428POPC   C4B10666  21.811  38.425   7.815
  429POPC   NC310667  11.783  26.037   9.500
  429POPC   PO410668  12.290  25.482   9.482
  429POPC   GL110669  12.387  25.812   9.146
  429POPC   GL210670  12.236  26.132   9.208
  429POPC   C1A10671  12.455  25.977   8.708
  429POPC   D2A10672  12.313  25.878   8.271
  429POPC   C3A10673  12.327  26.091   7.838
  429POPC   C4A10674  12.423  25.755   7.457
  429POPC   C1B10675  11.963  26.029   8.857
  429POPC   C2B10676  11.877  26.062   8.430
  429POPC   C3B10677  11.816  25.995   8.004
  429POPC   C4B10678  11.941  25.843   7.640
  430POPC   NC310679  27.128  11.434   9.929
  430POPC   PO410680  26.716  11.169   9.519
  430POPC   GL110681  26.724  10.969   9.157
  430POPC   GL210682  27.023  10.985   9.000
  430POPC   C1A10683  26.553  10.965   8.749
  430POPC   D2A10684  26.521  11.233   8.386
  430POPC   C3A10685  26.779  11.065   8.096
  430POPC   C4A10686  26.700  11.059   7.679
  430POPC   C1B10687  26.889  11.354   8.726
  430POPC   C2B10688  27.026  11.473   8.304
  430POPC   C3B10689  27.125  11.383   7.869
  430POPC   C4B10690  27.122  11.258   7.447
  431POPC   NC310691  30.178  31.016   9.419
  431POPC   PO410692  29.948  30.533   9.717
  431POPC   GL110693  29.875  30.636   9.258
  431POPC   GL210694  29.689  30.936   9.203
  431POPC   C1A10695  30.024  30.789   8.824
  431POPC   D2A10696  29.831  30.746   8.424
  431POPC   C3A10697  30.001  30.836   8.010
  431POPC   C4A10698  30.150  30.761   7.571
  431POPC   C1B10699  29.516  30.691   8.850
  431POPC   C2B10700  29.333  30.838   8.475
  431POPC   C3B10701  29.467  30.745   8.058
  431POPC   C4B10702  29.634  30.865   7.641
  432POPC   NC310703  28.289   3.495   9.675
  432POPC   PO410704  28.762   3.848   9.491
  432POPC   GL110705  28.510   3.633   9.175
  432POPC   GL210706  28.475   3.249   9.237
  432POPC   C1A10707  28.364   3.767   8.744
  432POPC   D2A10708  28.249   3.885   8.287
  432POPC   C3A10709  28.433   3.764   7.865
  432POPC   C4A10710  28.487   3.866   7.397
  432POPC   C1B10711  28.312   3.246   8.804
  432POPC   C2B10712  28.472   3.389   8.389
  432POPC   C3B10713  28.469   3.259   7.962
  432POPC   C4B10714  28.092   3.249   7.721
  433POPC   NC310715  34.286  41.899   9.546
  433POPC   PO410716  34.557  42.426   9.167
  433POPC   GL110717  34.711  42.058   9.048
  433POPC   GL210718  34.407  41.932   9.062
  433POPC   C1A10719  34.798  42.172   8.617
  433POPC   D2A10720  34.712  42.564   8.430
  433POPC   C3A10721  34.751  42.501   8.003
  433POPC   C4A10722  34.456  42.506   7.700
  433POPC   C1B10723  34.397  41.879   8.659
  433POPC   C2B10724  34.297  42.122   8.335
  433POPC   C3B10725  34.195  42.033   7.955
  433POPC   C4B10726  34.573  42.002   7.814
  434POPC   NC310727  38.483  11.576   9.237
  434POPC   PO410728  37.985  11.095   9.452
  434POPC   GL110729  38.278  11.050   9.090
  434POPC   GL210730  38.661  11.034   9.109
  434POPC   C1A10731  38.422  11.236   8.692
  434POPC   D2A10732  38.357  11.514   8.350
  434POPC   C3A10733  38.310  11.309   7.965
  434POPC   C4A10734  38.218  11.563   7.663
  434POPC   C1B10735  38.866  11.000   8.674
  434POPC   C2B10736  38.726  11.183   8.219
  434POPC   C3B10737  38.729  11.126   7.710
  434POPC   C4B10738  38.736  10.936   7.271
  435POPC   NC310739   4.247  26.662   9.864
  435POPC   PO410740   4.773  26.890   9.549
  435POPC   GL110741   4.634  26.793   9.137
  435POPC   GL210742   4.496  27.119   9.100
  435POPC   C1A10743   4.663  26.734   8.641
  435POPC   D2A10744   4.602  26.980   8.245
  435POPC   C3A10745   4.442  26.790   7.850
  435POPC   C4A10746   4.516  26.350   7.647
  435POPC   C1B10747   4.331  27.126   8.656
  435POPC   C2B10748   4.102  26.964   8.251
  435POPC   C3B10749   3.970  26.985   7.798
  435POPC   C4B10750   3.775  26.888   7.389
  436POPC   NC310751  31.912  18.299   9.577
  436POPC   PO410752  32.583  18.298   9.503
  436POPC   GL110753  32.550  18.451   9.061
  436POPC   GL210754  32.656  18.141   8.992
  436POPC   C1A10755  32.200  18.454   8.723
  436POPC   D2A10756  31.940  18.199   8.396
  436POPC   C3A10757  32.168  18.198   7.986
  436POPC   C4A10758  32.265  18.601   7.834
  436POPC   C1B10759  32.597  18.158   8.564
  436POPC   C2B10760  32.574  18.427   8.219
  436POPC   C3B10761  32.700  18.288   7.824
  436POPC   C4B10762  32.698  17.912   7.505
  437POPC   NC310763  40.217  40.205   9.503
  437POPC   PO410764  39.793  39.648   9.367
  437POPC   GL110765  40.068  39.889   9.138
  437POPC   GL210766  39.831  40.148   9.154
  437POPC   C1A10767  40.211  40.077   8.761
  437POPC   D2A10768  40.379  40.086   8.346
  437POPC   C3A10769  40.028  39.985   8.011
  437POPC   C4A10770  39.985  40.226   7.611
  437POPC   C1B10771  39.715  39.940   8.737
  437POPC   C2B10772  39.694  39.635   8.382
  437POPC   C3B10773  39.731  39.567   7.932
  437POPC   C4B10774  39.398  39.546   7.644
  438POPC   NC310775  40.298  36.734   9.389
  438POPC   PO410776  40.010  37.327   9.527
  438POPC   GL110777  40.001  37.073   9.130
  438POPC   GL210778  39.996  36.731   8.992
  438POPC   C1A10779  40.045  37.142   8.702
  438POPC   D2A10780  39.752  37.096   8.403
  438POPC   C3A10781  39.946  36.959   8.056
  438POPC   C4A10782  39.788  36.790   7.750
  438POPC   C1B10783  40.324  36.654   8.702
  438POPC   C2B10784  40.457  36.706   8.294
  438POPC   C3B10785  40.265  36.565   7.936
  438POPC   C4B10786  40.062  36.386   7.598
  439POPC   NC310787  26.767  41.911   9.361
  439POPC   PO410788  26.715  42.492   9.794
  439POPC   GL110789  26.705  42.427   9.333
  439POPC   GL210790  27.072  42.403   9.356
  439POPC   C1A10791  26.535  42.457   8.858
  439POPC   D2A10792  26.657  42.465   8.370
  439POPC   C3A10793  26.798  42.152   8.007
  439POPC   C4A10794  26.533  41.914   7.678
  439POPC   C1B10795  27.052  42.476   8.922
  439POPC   C2B10796  27.137  42.582   8.511
  439POPC   C3B10797  27.056  42.619   8.079
  439POPC   C4B10798  27.112  42.430   7.677
  440POPC   NC310799  24.142  28.507   9.706
  440POPC   PO410800  23.453  28.367   9.507
  440POPC   GL110801  23.608  28.352   9.102
  440POPC   GL210802  23.608  28.730   9.158
  440POPC   C1A10803  23.773  28.161   8.683
  440POPC   D2A10804  23.673  27.950   8.241
  440POPC   C3A10805  23.858  28.119   7.831
  440POPC   C4A10806  23.679  28.128   7.413
  440POPC   C1B10807  23.435  28.702   8.786
  440POPC   C2B10808  23.701  28.644   8.452
  440POPC   C3B10809  23.629  28.495   8.071
  440POPC   C4B10810  23.703  28.584   7.651
  441POPC   NC310811  28.878  24.686   9.342
  441POPC   PO410812  28.686  24.116   9.406
  441POPC   GL110813  28.822  24.268   9.022
  441POPC   GL210814  29.174  24.245   9.048
  441POPC   C1A10815  28.946  24.510   8.651
  441POPC   D2A10816  28.811  24.717   8.268
  441POPC   C3A10817  28.949  24.529   7.863
  441POPC   C4A10818  29.281  24.186   7.764
  441POPC   C1B10819  29.273  24.113   8.604
  441POPC   C2B10820  29.253  24.401   8.243
  441POPC   C3B10821  29.440  24.661   7.885
  441POPC   C4B10822  29.324  24.844   7.473
  442POPC   NC310823  36.137  35.636   9.538
  442POPC   PO410824  36.097  35.011   9.546
  442POPC   GL110825  36.234  35.167   9.122
  442POPC   GL210826  36.034  35.436   9.076
  442POPC   C1A10827  36.234  35.217   8.646
  442POPC   D2A10828  36.015  35.391   8.264
  442POPC   C3A10829  35.900  35.123   7.892
  442POPC   C4A10830  35.984  35.046   7.428
  442POPC   C1B10831  36.099  35.720   8.720
  442POPC   C2B10832  35.863  35.871   8.368
  442POPC   C3B10833  35.973  35.822   7.930
  442POPC   C4B10834  36.069  35.514   7.632
  443POPC   NC310835  28.345   1.045   9.638
  443POPC   PO410836  28.695   1.643   9.502
  443POPC   GL110837  28.773   1.410   9.127
  443POPC   GL210838  28.409   1.322   9.176
  443POPC   C1A10839  28.706   1.179   8.722
  443POPC   D2A10840  28.736   1.027   8.271
  443POPC   C3A10841  28.380   1.114   7.979
  443POPC   C4A10842  28.220   0.862   7.647
  443POPC   C1B10843  28.336   1.519   8.779
  443POPC   C2B10844  28.495   1.472   8.348
  443POPC   C3B10845  28.514   1.610   7.926
  443POPC   C4B10846  28.072   1.608   7.870
  444POPC   NC310847  12.223   0.861   9.622
  444POPC   PO410848  12.172   1.524   9.730
  444POPC   GL110849  12.015   1.268   9.294
  444POPC   GL210850  12.280   1.062   9.145
  444POPC   C1A10851  12.022   1.414   8.801
  444POPC   D2A10852  12.127   1.262   8.380
  444POPC   C3A10853  12.208   1.519   8.040
  444POPC   C4A10854  11.999   1.407   7.666
  444POPC   C1B10855  12.104   0.904   8.762
  444POPC   C2B10856  12.215   0.762   8.342
  444POPC   C3B10857  12.201   0.993   7.922
  444POPC   C4B10858  12.017   0.950   7.469
  445POPC   NC310859   1.398   3.491   9.912
  445POPC   PO410860   0.848   3.688   9.578
  445POPC   GL110861   1.021   3.565   9.193
  445POPC   GL210862   1.309   3.401   9.316
  445POPC   C1A10863   1.044   3.668   8.764
  445POPC   D2A10864   1.112   3.511   8.347
  445POPC   C3A10865   1.003   3.485   7.927
  445POPC   C4A10866   1.117   3.807   7.649
  445POPC   C1B10867   1.370   3.284   8.865
  445POPC   C2B10868   1.339   3.080   8.447
  445POPC   C3B10869   1.506   3.197   8.024
  445POPC   C4B10870   1.429   3.424   7.629
  446POPC   NC310871  41.124  38.275   9.358
  446POPC   PO410872  40.598  38.671   9.460
  446POPC   GL110873  40.636  38.355   9.176
  446POPC   GL210874  40.354  38.411   8.999
  446POPC   C1A10875  40.817  38.467   8.785
  446POPC   D2A10876  40.838  38.810   8.537
  446POPC   C3A10877  40.964  38.768   8.122
  446POPC   C4A10878  40.975  38.607   7.730
  446POPC   C1B10879  40.360  38.553   8.557
  446POPC   C2B10880  40.543  38.466   8.160
  446POPC   C3B10881  40.552  38.331   7.741
  446POPC   C4B10882  40.492  38.190   7.316
  447POPC   NC310883  25.845  26.977   9.493
  447POPC   PO410884  26.292  26.531   9.343
  447POPC   GL110885  25.941  26.650   9.125
  447POPC   GL210886  26.082  26.976   9.055
  447POPC   C1A10887  25.702  26.617   8.795
  447POPC   D2A10888  25.815  26.510   8.393
  447POPC   C3A10889  25.800  26.742   8.013
  447POPC   C4A10890  26.227  26.770   7.839
  447POPC   C1B10891  26.166  26.816   8.658
  447POPC   C2B10892  26.097  27.035   8.292
  447POPC   C3B10893  26.015  27.230   7.887
  447POPC   C4B10894  26.220  27.300   7.482
  448POPC   NC310895  38.091  17.699   9.568
  448POPC   PO410896  38.730  17.393   9.397
  448POPC   GL110897  38.426  17.533   9.181
  448POPC   GL210898  38.470  17.857   9.228
  448POPC   C1A10899  38.306  17.426   8.786
  448POPC   D2A10900  38.466  17.110   8.491
  448POPC   C3A10901  38.411  17.254   8.090
  448POPC   C4A10902  38.248  17.446   7.731
  448POPC   C1B10903  38.497  17.903   8.778
  448POPC   C2B10904  38.546  17.644   8.403
  448POPC   C3B10905  38.647  17.695   7.969
  448POPC   C4B10906  38.779  17.809   7.547
  449POPC   NC310907  26.837   3.586   9.588
  449POPC   PO410908  26.602   3.195   9.288
  449POPC   GL110909  26.716   3.599   9.072
  449POPC   GL210910  27.037   3.752   9.145
  449POPC   C1A10911  26.682   3.808   8.673
  449POPC   D2A10912  26.538   3.868   8.236
  449POPC   C3A10913  26.767   3.723   7.851
  449POPC   C4A10914  26.559   3.832   7.468
  449POPC   C1B10915  27.144   3.586   8.721
  449POPC   C2B10916  27.159   3.398   8.280
  449POPC   C3B10917  27.071   3.271   7.841
  449POPC   C4B10918  27.231   3.362   7.450
  450POPC   NC310919   5.379  15.442   9.393
  450POPC   PO410920   4.777  15.602   9.539
  450POPC   GL110921   4.870  15.872   9.166
  450POPC   GL210922   5.212  15.860   9.085
  450POPC   C1A10923   4.908  16.076   8.721
  450POPC   D2A10924   5.094  15.906   8.321
  450POPC   C3A10925   5.152  16.117   7.907
  450POPC   C4A10926   5.295  16.246   7.470
  450POPC   C1B10927   5.020  15.578   8.750
  450POPC   C2B10928   4.966  15.410   8.318
  450POPC   C3B10929   5.085  15.579   7.923
  450POPC   C4B10930   5.245  15.752   7.570
  451POPC   NC310931  26.695  37.273   9.545
  451POPC   PO410932  26.995  37.880   9.508
  451POPC   GL110933  27.092  37.671   9.134
  451POPC   GL210934  26.745  37.566   9.095
  451POPC   C1A10935  26.998  37.674   8.674
  451POPC   D2A10936  26.736  37.526   8.348
  451POPC   C3A10937  27.007  37.442   7.993
  451POPC   C4A10938  27.166  37.741   7.721
  451POPC   C1B10939  26.632  37.974   8.828
  451POPC   C2B10940  26.588  38.031   8.357
  451POPC   C3B10941  26.677  37.831   7.920
  451POPC   C4B10942  26.629  37.713   7.456
  452POPC   NC310943  17.147  31.312   9.928
  452POPC   PO410944  17.644  31.462   9.508
  452POPC   GL110945  17.417  31.358   9.154
  452POPC   GL210946  17.504  31.735   9.098
  452POPC   C1A10947  17.415  31.403   8.719
  452POPC   D2A10948  17.292  31.164   8.388
  452POPC   C3A10949  17.554  31.320   8.135
  452POPC   C4A10950  17.444  31.520   7.804
  452POPC   C1B10951  17.776  31.800   8.782
  452POPC   C2B10952  17.824  31.674   8.398
  452POPC   C3B10953  17.788  31.820   8.005
  452POPC   C4B10954  18.026  31.834   7.635
  453POPC   NC310955  40.274  31.132   9.559
  453POPC   PO410956  39.773  31.573   9.577
  453POPC   GL110957  39.882  31.345   9.232
  453POPC   GL210958  40.224  31.463   9.156
  453POPC   C1A10959  39.880  31.502   8.802
  453POPC   D2A10960  39.823  31.711   8.446
  453POPC   C3A10961  40.128  31.767   8.134
  453POPC   C4A10962  39.823  31.836   7.832
  453POPC   C1B10963  40.192  31.107   8.886
  453POPC   C2B10964  40.166  31.183   8.450
  453POPC   C3B10965  40.311  31.255   8.047
  453POPC   C4B10966  40.183  31.439   7.671
  454POPC   NC310967   8.850  40.343   9.372
  454POPC   PO410968   8.780  39.699   9.490
  454POPC   GL110969   8.888  39.883   9.135
  454POPC   GL210970   9.235  39.863   9.213
  454POPC   C1A10971   8.781  40.054   8.726
  454POPC   D2A10972   8.612  39.839   8.374
  454POPC   C3A10973   8.854  39.878   8.025
  454POPC   C4A10974   8.972  40.084   7.677
  454POPC   C1B10975   9.231  39.838   8.764
  454POPC   C2B10976   9.238  40.087   8.382
  454POPC   C3B10977   9.428  40.099   7.959
  454POPC   C4B10978   9.444  40.074   7.489
  455POPC   NC310979  28.767   8.180   9.416
  455POPC   PO410980  28.260   8.564   9.388
  455POPC   GL110981  28.103   8.431   9.025
  455POPC   GL210982  28.362   8.170   9.084
  455POPC   C1A10983  28.074   8.425   8.572
  455POPC   D2A10984  28.277   8.175   8.246
  455POPC   C3A10985  28.166   8.321   7.887
  455POPC   C4A10986  28.539   8.447   7.720
  455POPC   C1B10987  28.491   8.086   8.701
  455POPC   C2B10988  28.472   7.734   8.471
  455POPC   C3B10989  28.417   7.694   8.061
  455POPC   C4B10990  28.510   7.951   7.759
  456POPC   NC310991  35.710  34.764   9.477
  456POPC   PO410992  35.290  34.234   9.503
  456POPC   GL110993  35.414  34.385   9.112
  456POPC   GL210994  35.725  34.382   8.941
  456POPC   C1A10995  35.196  34.296   8.713
  456POPC   D2A10996  35.146  34.571   8.329
  456POPC   C3A10997  35.218  34.299   7.975
  456POPC   C4A10998  35.457  34.276   7.561
  456POPC   C1B10999  35.488  34.711   8.709
  456POPC   C2B11000  35.551  34.935   8.341
  456POPC   C3B11001  35.522  34.749   7.972
  456POPC   C4B11002  35.485  34.978   7.599
  457POPC   NC311003  29.283  37.552   9.576
  457POPC   PO411004  28.741  37.622   9.685
  457POPC   GL111005  28.893  37.666   9.241
  457POPC   GL211006  28.620  37.545   9.050
  457POPC   C1A11007  29.212  37.659   8.879
  457POPC   D2A11008  29.347  37.798   8.449
  457POPC   C3A11009  29.269  37.559   8.036
  457POPC   C4A11010  28.820  37.445   7.890
  457POPC   C1B11011  28.751  37.826   8.708
  457POPC   C2B11012  28.857  37.780   8.272
  457POPC   C3B11013  29.008  37.963   7.883
  457POPC   C4B11014  28.907  38.164   7.495
  458POPC   NC311015  43.336  23.007   9.599
  458POPC   PO411016  42.763  23.129   9.509
  458POPC   GL111017  43.005  22.911   9.209
  458POPC   GL211018  43.275  23.090   9.109
  458POPC   C1A11019  43.075  22.704   8.808
  458POPC   D2A11020  43.020  22.857   8.385
  458POPC   C3A11021  43.249  22.701   8.032
  458POPC   C4A11022  43.536  22.681   7.694
  458POPC   C1B11023  43.002  23.213   8.782
  458POPC   C2B11024  43.132  23.346   8.388
  458POPC   C3B11025  43.123  23.200   7.987
  458POPC   C4B11026  43.498  23.179   7.749
  459POPC   NC311027  39.145   1.422   9.513
  459POPC   PO411028  39.462   2.003   9.603
  459POPC   GL111029  39.522   1.890   9.193
  459POPC   GL211030  39.408   1.584   9.119
  459POPC   C1A11031  39.334   2.105   8.833
  459POPC   D2A11032  39.498   2.198   8.419
  459POPC   C3A11033  39.259   2.136   8.037
  459POPC   C4A11034  39.285   2.346   7.644
  459POPC   C1B11035  39.375   1.625   8.740
  459POPC   C2B11036  39.193   1.744   8.368
  459POPC   C3B11037  39.337   1.634   7.980
  459POPC   C4B11038  39.489   1.843   7.663
  460POPC   NC311039   7.331   6.036   9.380
  460POPC   PO411040   7.548   5.383   9.422
  460POPC   GL111041   7.528   5.661   9.086
  460POPC   GL211042   7.195   5.666   9.012
  460POPC   C1A11043   7.502   5.764   8.639
  460POPC   D2A11044   7.622   5.861   8.233
  460POPC   C3A11045   7.335   5.809   7.903
  460POPC   C4A11046   7.536   5.832   7.529
  460POPC   C1B11047   7.097   6.068   8.768
  460POPC   C2B11048   7.133   6.054   8.333
  460POPC   C3B11049   7.077   6.284   7.952
  460POPC   C4B11050   7.161   6.160   7.531
  461POPC   NC311051  11.711  10.635   9.457
  461POPC   PO411052  12.116  10.084   9.601
  461POPC   GL111053  12.092  10.236   9.182
  461POPC   GL211054  11.844  10.111   8.926
  461POPC   C1A11055  12.319  10.191   8.763
  461POPC   D2A11056  12.121  10.085   8.368
  461POPC   C3A11057  12.129  10.355   8.015
  461POPC   C4A11058  11.803  10.362   7.724
  461POPC   C1B11059  11.981  10.576   8.845
  461POPC   C2B11060  12.100  10.688   8.446
  461POPC   C3B11061  11.832  10.770   8.128
  461POPC   C4B11062  11.792  10.874   7.721
  462POPC   NC311063  35.395   6.077   9.465
  462POPC   PO411064  35.058   5.505   9.370
  462POPC   GL111065  35.074   5.876   9.093
  462POPC   GL211066  34.898   6.164   9.191
  462POPC   C1A11067  35.373   6.080   8.796
  462POPC   D2A11068  35.631   6.010   8.398
  462POPC   C3A11069  35.518   6.112   7.955
  462POPC   C4A11070  35.435   5.815   7.624
  462POPC   C1B11071  34.884   6.216   8.735
  462POPC   C2B11072  35.062   5.987   8.407
  462POPC   C3B11073  35.088   5.845   8.026
  462POPC   C4B11074  35.044   6.143   7.713
  463POPC   NC311075  15.741  42.712   9.463
  463POPC   PO411076  15.677  42.070   9.555
  463POPC   GL111077  15.785  42.284   9.157
  463POPC   GL211078  16.021  42.602   9.069
  463POPC   C1A11079  15.817  42.097   8.737
  463POPC   D2A11080  15.879  41.833   8.349
  463POPC   C3A11081  15.753  42.037   8.007
  463POPC   C4A11082  15.904  42.233   7.654
  463POPC   C1B11083  15.665  42.586   8.778
  463POPC   C2B11084  15.735  42.433   8.356
  463POPC   C3B11085  15.467  42.456   8.024
  463POPC   C4B11086  15.515  42.565   7.660
  464POPC   NC311087   3.010  12.659   9.661
  464POPC   PO411088   2.456  12.774   9.405
  464POPC   GL111089   2.709  13.049   9.139
  464POPC   GL211090   2.499  13.174   8.915
  464POPC   C1A11091   2.946  13.080   8.711
  464POPC   D2A11092   2.885  12.866   8.288
  464POPC   C3A11093   2.956  13.111   7.889
  464POPC   C4A11094   2.976  12.995   7.441
  464POPC   C1B11095   2.586  12.711   8.766
  464POPC   C2B11096   2.576  12.387   8.452
  464POPC   C3B11097   2.483  12.366   8.018
  464POPC   C4B11098   2.714  12.655   7.760
  465POPC   NC311099  23.803  16.188   9.314
  465POPC   PO411100  23.503  15.731   9.639
  465POPC   GL111101  23.654  15.675   9.212
  465POPC   GL211102  24.003  15.628   9.250
  465POPC   C1A11103  23.644  15.861   8.753
  465POPC   D2A11104  23.620  16.124   8.322
  465POPC   C3A11105  23.563  15.836   7.951
  465POPC   C4A11106  23.531  15.765   7.508
  465POPC   C1B11107  24.178  15.795   8.869
  465POPC   C2B11108  24.278  15.826   8.427
  465POPC   C3B11109  24.060  15.976   8.058
  465POPC   C4B11110  23.907  16.119   7.677
  466POPC   NC311111   0.360  10.082   9.516
  466POPC   PO411112   0.826   9.535   9.543
  466POPC   GL111113   0.499   9.571   9.220
  466POPC   GL211114   0.477   9.891   9.069
  466POPC   C1A11115   0.510   9.398   8.792
  466POPC   D2A11116   0.660   9.482   8.366
  466POPC   C3A11117   0.409   9.465   8.027
  466POPC   C4A11118   0.307   9.766   7.740
  466POPC   C1B11119   0.624   9.903   8.667
  466POPC   C2B11120   0.386   9.927   8.292
  466POPC   C3B11121   0.527  10.164   7.952
  466POPC   C4B11122   0.787   9.982   7.635
  467POPC   NC311123  34.837   7.281   9.746
  467POPC   PO411124  35.358   7.460   9.440
  467POPC   GL111125  35.148   7.463   9.070
  467POPC   GL211126  35.449   7.372   8.923
  467POPC   C1A11127  35.125   7.657   8.673
  467POPC   D2A11128  35.111   7.461   8.268
  467POPC   C3A11129  35.331   7.607   7.935
  467POPC   C4A11130  35.715   7.479   7.745
  467POPC   C1B11131  35.125   7.132   8.673
  467POPC   C2B11132  35.289   6.942   8.339
  467POPC   C3B11133  35.481   7.083   7.996
  467POPC   C4B11134  35.241   7.182   7.677
  468POPC   NC311135   3.409  21.252   9.508
  468POPC   PO411136   3.746  21.830   9.329
  468POPC   GL111137   3.494  21.557   9.116
  468POPC   GL211138   3.735  21.341   9.101
  468POPC   C1A11139   3.354  21.374   8.737
  468POPC   D2A11140   3.372  21.138   8.356
  468POPC   C3A11141   3.399  21.342   7.969
  468POPC   C4A11142   3.628  21.769   7.840
  468POPC   C1B11143   3.752  21.090   8.726
  468POPC   C2B11144   3.852  20.976   8.325
  468POPC   C3B11145   3.905  21.237   7.990
  468POPC   C4B11146   3.744  21.362   7.590
  469POPC   NC311147  42.493  11.916   9.436
  469POPC   PO411148  41.926  12.262   9.474
  469POPC   GL111149  42.093  12.021   9.145
  469POPC   GL211150  42.316  12.311   9.130
  469POPC   C1A11151  42.362  11.973   8.759
  469POPC   D2A11152  42.574  12.208   8.401
  469POPC   C3A11153  42.443  12.081   7.988
  469POPC   C4A11154  42.505  11.876   7.577
  469POPC   C1B11155  42.232  12.473   8.724
  469POPC   C2B11156  42.244  12.653   8.318
  469POPC   C3B11157  42.167  12.506   7.897
  469POPC   C4B11158  42.416  12.357   7.546
  470POPC   NC311159  43.261  29.642   9.775
  470POPC   PO411160  43.200  28.967   9.739
  470POPC   GL111161  43.080  29.038   9.270
  470POPC   GL211162  43.148  29.384   9.236
  470POPC   C1A11163  43.150  29.033   8.776
  470POPC   D2A11164  43.201  29.257   8.359
  470POPC   C3A11165  42.882  29.173   8.024
  470POPC   C4A11166  43.021  28.911   7.680
  470POPC   C1B11167  42.786  29.369   8.910
  470POPC   C2B11168  42.759  29.478   8.461
  470POPC   C3B11169  42.959  29.668   8.118
  470POPC   C4B11170  42.926  29.608   7.706
  471POPC   NC311171  25.462  22.198   9.627
  471POPC   PO411172  24.846  21.823   9.552
  471POPC   GL111173  25.084  22.092   9.197
  471POPC   GL211174  25.442  22.246   9.141
  471POPC   C1A11175  25.138  22.256   8.748
  471POPC   D2A11176  25.087  22.482   8.328
  471POPC   C3A11177  25.015  22.265   7.919
  471POPC   C4A11178  25.157  21.881   7.651
  471POPC   C1B11179  25.652  22.220   8.747
  471POPC   C2B11180  25.666  21.947   8.400
  471POPC   C3B11181  25.534  22.027   7.970
  471POPC   C4B11182  25.408  22.302   7.601
  472POPC   NC311183  24.287   6.419   9.576
  472POPC   PO411184  24.735   6.931   9.618
  472POPC   GL111185  24.733   6.975   9.194
  472POPC   GL211186  24.440   6.754   9.186
  472POPC   C1A11187  24.864   6.779   8.816
  472POPC   D2A11188  24.756   6.572   8.455
  472POPC   C3A11189  24.761   6.772   8.051
  472POPC   C4A11190  24.675   6.548   7.673
  472POPC   C1B11191  24.339   6.631   8.770
  472POPC   C2B11192  24.300   6.804   8.331
  472POPC   C3B11193  24.241   6.757   7.866
  472POPC   C4B11194  23.879   6.716   7.656
  473POPC   NC311195  35.576  40.940   9.610
  473POPC   PO411196  34.915  40.672   9.538
  473POPC   GL111197  35.227  40.761   9.240
  473POPC   GL211198  34.976  40.726   9.008
  473POPC   C1A11199  35.421  40.912   8.836
  473POPC   D2A11200  35.724  40.723   8.523
  473POPC   C3A11201  35.627  40.769   8.054
  473POPC   C4A11202  35.529  40.480   7.713
  473POPC   C1B11203  35.031  40.705   8.619
  473POPC   C2B11204  35.234  40.889   8.350
  473POPC   C3B11205  35.122  40.687   8.021
  473POPC   C4B11206  35.002  40.576   7.632
  474POPC   NC311207  15.132  23.948   9.326
  474POPC   PO411208  14.950  23.411   9.674
  474POPC   GL111209  15.182  23.480   9.145
  474POPC   GL211210  15.487  23.356   9.102
  474POPC   C1A11211  15.104  23.836   8.711
  474POPC   D2A11212  15.206  24.109   8.342
  474POPC   C3A11213  15.115  23.876   7.956
  474POPC   C4A11214  14.833  23.674   7.673
  474POPC   C1B11215  15.451  23.475   8.708
  474POPC   C2B11216  15.465  23.676   8.348
  474POPC   C3B11217  15.435  23.461   7.987
  474POPC   C4B11218  15.531  23.651   7.610
  475POPC   NC311219   9.463   4.880   9.530
  475POPC   PO411220  10.107   5.139   9.415
  475POPC   GL111221   9.968   5.208   9.047
  475POPC   GL211222   9.618   5.163   9.054
  475POPC   C1A11223  10.043   5.000   8.685
  475POPC   D2A11224  10.208   5.063   8.282
  475POPC   C3A11225   9.936   5.013   7.992
  475POPC   C4A11226  10.046   4.940   7.599
  475POPC   C1B11227   9.360   5.315   8.672
  475POPC   C2B11228   9.320   5.352   8.198
  475POPC   C3B11229   9.468   5.131   7.859
  475POPC   C4B11230   9.401   4.850   7.519
  476POPC   NC311231  10.800  12.721   9.519
  476POPC   PO411232  11.400  12.553   9.560
  476POPC   GL111233  11.266  12.474   9.135
  476POPC   GL211234  10.916  12.471   9.067
  476POPC   C1A11235  11.445  12.521   8.732
  476POPC   D2A11236  11.552  12.811   8.436
  476POPC   C3A11237  11.509  12.722   8.006
  476POPC   C4A11238  11.590  13.071   7.737
  476POPC   C1B11239  10.936  12.586   8.634
  476POPC   C2B11240  11.065  12.835   8.263
  476POPC   C3B11241  11.073  12.994   7.828
  476POPC   C4B11242  10.846  12.816   7.455
  477POPC   NC311243  19.182   1.291   9.566
  477POPC   PO411244  18.764   0.844   9.525
  477POPC   GL111245  18.972   1.017   9.190
  477POPC   GL211246  19.291   1.065   9.134
  477POPC   C1A11247  18.927   1.204   8.794
  477POPC   D2A11248  19.009   1.420   8.445
  477POPC   C3A11249  18.920   1.254   8.041
  477POPC   C4A11250  18.796   1.194   7.586
  477POPC   C1B11251  19.352   1.473   8.888
  477POPC   C2B11252  19.541   1.470   8.483
  477POPC   C3B11253  19.358   1.540   8.073
  477POPC   C4B11254  19.310   1.247   7.735
  478POPC   NC311255   9.496  10.425   9.386
  478POPC   PO411256   9.824  10.989   9.451
  478POPC   GL111257   9.774  10.743   9.090
  478POPC   GL211258  10.009  10.503   9.192
  478POPC   C1A11259   9.762  10.399   8.755
  478POPC   D2A11260   9.552  10.481   8.378
  478POPC   C3A11261   9.417  10.356   7.994
  478POPC   C4A11262   9.440  10.769   7.747
  478POPC   C1B11263  10.176  10.719   8.796
  478POPC   C2B11264  10.033  10.729   8.358
  478POPC   C3B11265   9.894  10.536   7.959
  478POPC   C4B11266  10.117  10.569   7.547
  479POPC   NC311267  14.210  26.382   9.565
  479POPC   PO411268  14.613  25.879   9.588
  479POPC   GL111269  14.438  26.013   9.214
  479POPC   GL211270  14.772  26.010   9.098
  479POPC   C1A11271  14.202  26.207   8.869
  479POPC   D2A11272  14.214  26.412   8.461
  479POPC   C3A11273  14.124  26.179   8.096
  479POPC   C4A11274  14.340  26.226   7.738
  479POPC   C1B11275  14.620  25.914   8.699
  479POPC   C2B11276  14.622  26.114   8.301
  479POPC   C3B11277  14.742  25.982   7.888
  479POPC   C4B11278  14.678  25.678   7.574
  480POPC   NC311279  13.510  41.314   9.591
  480POPC   PO411280  13.998  41.798   9.644
  480POPC   GL111281  13.809  41.741   9.243
  480POPC   GL211282  13.428  41.692   9.227
  480POPC   C1A11283  13.840  41.815   8.814
  480POPC   D2A11284  13.592  41.876   8.468
  480POPC   C3A11285  13.874  41.871   8.112
  480POPC   C4A11286  13.935  41.698   7.690
  480POPC   C1B11287  13.499  41.408   8.867
  480POPC   C2B11288  13.670  41.382   8.440
  480POPC   C3B11289  13.556  41.487   7.992
  480POPC   C4B11290  13.721  41.230   7.634
  481POPC   NC311291   8.599   8.483   9.351
  481POPC   PO411292   8.152   8.094   9.587
  481POPC   GL111293   8.216   8.177   9.181
  481POPC   GL211294   8.520   8.010   9.165
  481POPC   C1A11295   8.274   8.342   8.764
  481POPC   D2A11296   7.946   8.398   8.430
  481POPC   C3A11297   7.919   8.136   8.060
  481POPC   C4A11298   7.916   8.212   7.625
  481POPC   C1B11299   8.310   7.802   8.831
  481POPC   C2B11300   8.208   7.934   8.446
  481POPC   C3B11301   8.412   7.922   8.099
  481POPC   C4B11302   8.302   7.880   7.685
  482POPC   NC311303  13.628   9.959   9.630
  482POPC   PO411304  13.931   9.438   9.357
  482POPC   GL111305  13.631   9.659   9.077
  482POPC   GL211306  13.478   9.984   9.149
  482POPC   C1A11307  13.646   9.803   8.658
  482POPC   D2A11308  13.622   9.938   8.248
  482POPC   C3A11309  13.938   9.895   7.947
  482POPC   C4A11310  14.018   9.665   7.564
  482POPC   C1B11311  13.195   9.985   8.809
  482POPC   C2B11312  13.110   9.919   8.358
  482POPC   C3B11313  13.242   9.937   7.903
  482POPC   C4B11314  13.545   9.854   7.576
  483POPC   NC311315   7.033   1.844   9.411
  483POPC   PO411316   6.387   1.965   9.623
  483POPC   GL111317   6.573   2.044   9.229
  483POPC   GL211318   6.850   2.332   9.221
  483POPC   C1A11319   6.424   1.836   8.849
  483POPC   D2A11320   6.241   1.744   8.469
  483POPC   C3A11321   6.498   1.625   8.116
  483POPC   C4A11322   6.573   1.814   7.724
  483POPC   C1B11323   6.718   2.225   8.783
  483POPC   C2B11324   6.662   2.028   8.397
  483POPC   C3B11325   6.733   2.199   8.002
  483POPC   C4B11326   6.450   2.318   7.687
  484POPC   NC311327   0.218   3.266   9.675
  484POPC   PO411328   0.546   2.840   9.378
  484POPC   GL111329   0.146   2.853   9.170
  484POPC   GL211330   0.051   3.200   9.183
  484POPC   C1A11331   0.168   2.650   8.749
  484POPC   D2A11332   0.552   2.761   8.550
  484POPC   C3A11333   0.640   2.568   8.176
  484POPC   C4A11334   0.728   2.663   7.773
  484POPC   C1B11335   0.319   3.139   8.822
  484POPC   C2B11336   0.282   3.200   8.449
  484POPC   C3B11337   0.340   2.960   8.109
  484POPC   C4B11338   0.205   2.674   7.820
  485POPC   NC311339   8.508  43.932   9.546
  485POPC   PO411340   8.100  43.499   9.446
  485POPC   GL111341   8.171  43.863   9.129
  485POPC   GL211342   8.483  44.070   9.055
  485POPC   C1A11343   8.094  43.873   8.665
  485POPC   D2A11344   8.292  43.587   8.330
  485POPC   C3A11345   8.412  43.631   7.934
  485POPC   C4A11346   8.301  43.548   7.505
  485POPC   C1B11347   8.578  43.988   8.604
  485POPC   C2B11348   8.291  44.083   8.239
  485POPC   C3B11349   8.003  44.042   7.899
  485POPC   C4B11350   7.950  44.272   7.547
  486POPC   NC311351  43.177  37.681   9.528
  486POPC   PO411352  42.602  37.856   9.333
  486POPC   GL111353  42.879  37.779   9.117
  486POPC   GL211354  42.814  37.422   9.107
  486POPC   C1A11355  43.034  37.926   8.749
  486POPC   D2A11356  43.046  38.202   8.426
  486POPC   C3A11357  43.185  37.988   8.062
  486POPC   C4A11358  43.542  37.881   7.804
  486POPC   C1B11359  42.677  37.543   8.718
  486POPC   C2B11360  42.864  37.567   8.334
  486POPC   C3B11361  43.230  37.450   8.108
  486POPC   C4B11362  43.147  37.582   7.727
  487POPC   NC311363  17.798   5.325   9.531
  487POPC   PO411364  17.261   4.879   9.460
  487POPC   GL111365  17.493   5.138   9.162
  487POPC   GL211366  17.567   4.872   8.974
  487POPC   C1A11367  17.697   5.305   8.766
  487POPC   D2A11368  17.795   5.101   8.359
  487POPC   C3A11369  17.668   5.235   7.923
  487POPC   C4A11370  17.502   5.416   7.492
  487POPC   C1B11371  17.327   4.760   8.652
  487POPC   C2B11372  17.254   4.558   8.282
  487POPC   C3B11373  17.164   4.731   7.899
  487POPC   C4B11374  17.062   4.616   7.450
  488POPC   NC311375   9.044  36.703   9.538
  488POPC   PO411376   9.234  37.309   9.656
  488POPC   GL111377   8.979  37.203   9.204
  488POPC   GL211378   9.009  36.855   9.074
  488POPC   C1A11379   8.733  37.143   8.792
  488POPC   D2A11380   8.866  37.265   8.390
  488POPC   C3A11381   8.973  36.964   8.060
  488POPC   C4A11382   9.361  36.907   7.803
  488POPC   C1B11383   8.755  36.633   8.768
  488POPC   C2B11384   8.633  36.695   8.329
  488POPC   C3B11385   8.698  36.526   7.922
  488POPC   C4B11386   9.093  36.491   7.732
  489POPC   NC311387   1.891  33.611   9.622
  489POPC   PO411388   2.016  34.239   9.755
  489POPC   GL111389   1.953  33.952   9.251
  489POPC   GL211390   2.080  33.630   9.130
  489POPC   C1A11391   1.747  33.823   8.814
  489POPC   D2A11392   1.915  33.637   8.429
  489POPC   C3A11393   1.831  33.838   8.030
  489POPC   C4A11394   2.097  33.971   7.737
  489POPC   C1B11395   2.358  33.553   8.766
  489POPC   C2B11396   2.377  33.371   8.363
  489POPC   C3B11397   2.248  33.513   7.986
  489POPC   C4B11398   2.386  33.600   7.573
  490POPC   NC311399  13.598  23.441   9.530
  490POPC   PO411400  13.426  22.766   9.611
  490POPC   GL111401  13.588  22.997   9.234
  490POPC   GL211402  13.898  23.163   9.257
  490POPC   C1A11403  13.476  23.008   8.785
  490POPC   D2A11404  13.709  22.934   8.384
  490POPC   C3A11405  13.443  23.043   8.045
  490POPC   C4A11406  13.276  23.053   7.650
  490POPC   C1B11407  13.821  23.388   8.862
  490POPC   C2B11408  13.706  23.456   8.426
  490POPC   C3B11409  13.898  23.334   8.030
  490POPC   C4B11410  13.797  23.092   7.671
  491POPC   NC311411  18.579  19.786   9.228
  491POPC   PO411412  18.017  19.390   9.458
  491POPC   GL111413  18.217  19.490   9.068
  491POPC   GL211414  18.130  19.747   8.853
  491POPC   C1A11415  18.442  19.394   8.694
  491POPC   D2A11416  18.306  19.644   8.356
  491POPC   C3A11417  18.378  19.580   7.935
  491POPC   C4A11418  18.023  19.766   7.720
  491POPC   C1B11419  18.113  20.094   8.548
  491POPC   C2B11420  18.188  20.275   8.172
  491POPC   C3B11421  18.398  20.097   7.835
  491POPC   C4B11422  18.478  20.256   7.456
  492POPC   NC311423   3.544  10.371   9.564
  492POPC   PO411424   3.837  11.004   9.487
  492POPC   GL111425   3.543  10.735   9.210
  492POPC   GL211426   3.665  10.847   8.906
  492POPC   C1A11427   3.320  10.460   8.884
  492POPC   D2A11428   3.420  10.616   8.477
  492POPC   C3A11429   3.442  10.405   8.103
  492POPC   C4A11430   3.718  10.531   7.848
  492POPC   C1B11431   3.808  10.395   8.782
  492POPC   C2B11432   3.831  10.189   8.353
  492POPC   C3B11433   3.811  10.012   7.910
  492POPC   C4B11434   3.597  10.152   7.508
  493POPC   NC311435   3.065   6.585   9.450
  493POPC   PO411436   2.432   6.883   9.294
  493POPC   GL111437   2.743   6.655   9.061
  493POPC   GL211438   3.089   6.712   8.972
  493POPC   C1A11439   2.656   6.605   8.667
  493POPC   D2A11440   2.831   6.548   8.332
  493POPC   C3A11441   2.567   6.542   8.016
  493POPC   C4A11442   2.793   6.702   7.710
  493POPC   C1B11443   3.171   6.361   8.731
  493POPC   C2B11444   3.047   6.088   8.406
  493POPC   C3B11445   3.049   6.248   7.980
  493POPC   C4B11446   3.157   6.291   7.559
  494POPC   NC311447  21.672  21.466   9.612
  494POPC   PO411448  21.905  20.903   9.589
  494POPC   GL111449  21.641  21.151   9.228
  494POPC   GL211450  21.287  21.362   9.229
  494POPC   C1A11451  21.624  21.430   8.869
  494POPC   D2A11452  21.504  21.290   8.461
  494POPC   C3A11453  21.604  21.516   8.076
  494POPC   C4A11454  21.521  21.338   7.674
  494POPC   C1B11455  21.124  21.471   8.773
  494POPC   C2B11456  21.117  21.625   8.330
  494POPC   C3B11457  21.118  21.571   7.875
  494POPC   C4B11458  21.167  21.693   7.400
  495POPC   NC311459   6.474  24.598   9.467
  495POPC   PO411460   6.805  24.132   9.744
  495POPC   GL111461   6.883  24.322   9.294
  495POPC   GL211462   6.573  24.293   9.087
  495POPC   C1A11463   6.962  24.485   8.844
  495POPC   D2A11464   6.786  24.532   8.402
  495POPC   C3A11465   7.003  24.708   8.040
  495POPC   C4A11466   6.858  24.561   7.628
  495POPC   C1B11467   6.454  24.613   8.790
  495POPC   C2B11468   6.429  24.917   8.442
  495POPC   C3B11469   6.524  24.865   7.996
  495POPC   C4B11470   6.401  24.795   7.575
  496POPC   NC311471  16.656  44.751   9.539
  496POPC   PO411472  17.075  44.215   9.547
  496POPC   GL111473  16.889  44.488   9.185
  496POPC   GL211474  16.554  44.451   9.075
  496POPC   C1A11475  16.826  44.789   8.826
  496POPC   D2A11476  16.890   0.060   8.484
  496POPC   C3A11477  16.897  44.840   8.092
  496POPC   C4A11478  16.835  44.493   7.823
  496POPC   C1B11479  16.329  44.565   8.689
  496POPC   C2B11480  16.222  44.780   8.291
  496POPC   C3B11481  16.235  44.616   7.861
  496POPC   C4B11482  16.458  44.555   7.485
  497POPC   NC311483  43.394  40.271   9.567
  497POPC   PO411484  42.874  39.798   9.432
  497POPC   GL111485  43.079  40.070   9.160
  497POPC   GL211486  43.458  40.049   9.132
  497POPC   C1A11487  42.912  40.128   8.758
  497POPC   D2A11488  43.091  40.214   8.372
  497POPC   C3A11489  42.985  39.916   8.052
  497POPC   C4A11490  42.859  40.049   7.666
  497POPC   C1B11491  43.417  40.042   8.742
  497POPC   C2B11492  43.278  39.747   8.495
  497POPC   C3B11493  43.475  39.893   8.155
  497POPC   C4B11494  43.405  39.953   7.765
  498POPC   NC311495   2.273  12.440   9.681
  498POPC   PO411496   2.076  11.823   9.396
  498POPC   GL111497   2.021  12.242   9.225
  498POPC   GL211498   2.371  12.330   9.173
  498POPC   C1A11499   1.899  12.371   8.778
  498POPC   D2A11500   2.081  12.306   8.373
  498POPC   C3A11501   1.797  12.263   8.004
  498POPC   C4A11502   1.802  12.364   7.554
  498POPC   C1B11503   2.302  12.050   8.821
  498POPC   C2B11504   2.078  11.802   8.516
  498POPC   C3B11505   2.167  11.894   8.097
  498POPC   C4B11506   1.944  11.854   7.700
  499POPC   NC311507  10.106  25.807   9.603
  499POPC   PO411508  10.692  25.979   9.454
  499POPC   GL111509  10.338  26.042   9.178
  499POPC   GL211510  10.204  25.687   9.120
  499POPC   C1A11511  10.366  26.302   8.773
  499POPC   D2A11512  10.604  26.424   8.401
  499POPC   C3A11513  10.490  26.192   8.028
  499POPC   C4A11514  10.326  26.302   7.667
  499POPC   C1B11515  10.486  25.754   8.779
  499POPC   C2B11516  10.327  25.885   8.398
  499POPC   C3B11517  10.383  25.686   7.997
  499POPC   C4B11518  10.815  25.624   7.857
  500POPC   NC311519  42.555   2.391   9.553
  500POPC   PO411520  42.304   1.668   9.562
  500POPC   GL111521  42.462   1.880   9.145
  500POPC   GL211522  42.682   2.203   9.103
  500POPC   C1A11523  42.594   1.784   8.722
  500POPC   D2A11524  42.374   1.884   8.323
  500POPC   C3A11525  42.527   1.810   7.882
  500POPC   C4A11526  42.593   1.481   7.562
  500POPC   C1B11527  42.407   2.293   8.747
  500POPC   C2B11528  42.186   2.362   8.351
  500POPC   C3B11529  42.137   2.148   7.927
  500POPC   C4B11530  42.139   2.183   7.465
  501POPC   NC311531  14.421  25.468   9.659
  501POPC   PO411532  14.664  24.880   9.575
  501POPC   GL111533  14.479  25.185   9.254
  501POPC   GL211534  14.622  25.519   9.175
  501POPC   C1A11535  14.388  25.165   8.845
  501POPC   D2A11536  14.554  25.395   8.509
  501POPC   C3A11537  14.370  25.201   8.142
  501POPC   C4A11538  14.552  25.215   7.758
  501POPC   C1B11539  14.237  25.648   8.912
  501POPC   C2B11540  14.168  25.840   8.492
  501POPC   C3B11541  14.372  25.712   8.119
  501POPC   C4B11542  14.195  25.738   7.730
  502POPC   NC311543  11.163  40.562   9.440
  502POPC   PO411544  11.618  41.015   9.478
  502POPC   GL111545  11.342  40.920   9.143
  502POPC   GL211546  11.599  40.723   8.995
  502POPC   C1A11547  11.116  40.774   8.751
  502POPC   D2A11548  10.939  40.559   8.371
  502POPC   C3A11549  11.070  40.756   7.996
  502POPC   C4A11550  11.144  40.507   7.660
  502POPC   C1B11551  11.503  41.108   8.722
  502POPC   C2B11552  11.407  41.004   8.318
  502POPC   C3B11553  11.606  40.800   7.978
  502POPC   C4B11554  11.543  40.947   7.570
  503POPC   NC311555  37.959  12.214   9.421
  503POPC   PO411556  37.327  11.844   9.539
  503POPC   GL111557  37.611  11.870   9.228
  503POPC   GL211558  37.520  12.175   9.145
  503POPC   C1A11559  37.841  11.925   8.820
  503POPC   D2A11560  37.809  12.164   8.417
  503POPC   C3A11561  37.794  11.971   8.019
  503POPC   C4A11562  37.770  11.774   7.607
  503POPC   C1B11563  37.528  12.389   8.798
  503POPC   C2B11564  37.304  12.330   8.461
  503POPC   C3B11565  37.304  12.177   8.104
  503POPC   C4B11566  37.310  12.458   7.784
  504POPC   NC311567  29.567  44.017   9.573
  504POPC   PO411568  30.181  43.651   9.471
  504POPC   GL111569  29.860  43.731   9.165
  504POPC   GL211570  29.858  44.077   9.176
  504POPC   C1A11571  29.764  43.761   8.720
  504POPC   D2A11572  30.106  43.907   8.429
  504POPC   C3A11573  29.995  43.789   8.001
  504POPC   C4A11574  29.588  43.989   7.840
  504POPC   C1B11575  29.929  44.230   8.800
  504POPC   C2B11576  29.712  44.203   8.392
  504POPC   C3B11577  29.939  44.287   8.042
  504POPC   C4B11578  29.958  44.259   7.599
  505POPC   NC311579  36.156   3.243   9.540
  505POPC   PO411580  35.596   3.392   9.530
  505POPC   GL111581  35.833   3.314   9.126
  505POPC   GL211582  36.207   3.341   9.050
  505POPC   C1A11583  35.855   3.414   8.676
  505POPC   D2A11584  35.836   3.233   8.275
  505POPC   C3A11585  35.980   3.434   7.848
  505POPC   C4A11586  36.237   3.603   7.449
  505POPC   C1B11587  36.331   3.121   8.676
  505POPC   C2B11588  36.352   3.224   8.234
  505POPC   C3B11589  36.493   3.373   7.818
  505POPC   C4B11590  36.496   3.127   7.402
  506POPC   NC311591  41.411  20.673   9.548
  506POPC   PO411592  41.327  21.220   9.283
  506POPC   GL111593  41.302  20.855   8.995
  506POPC   GL211594  41.450  20.517   9.023
  506POPC   C1A11595  41.405  20.759   8.565
  506POPC   D2A11596  41.291  20.625   8.177
  506POPC   C3A11597  41.601  20.635   7.825
  506POPC   C4A11598  41.664  21.003   7.576
  506POPC   C1B11599  41.457  20.226   8.635
  506POPC   C2B11600  41.469  20.169   8.177
  506POPC   C3B11601  41.239  20.273   7.814
  506POPC   C4B11602  41.415  20.391   7.433
  507POPC   NC311603  28.818  22.996   9.548
  507POPC   PO411604  28.156  22.834   9.655
  507POPC   GL111605  28.380  22.825   9.222
  507POPC   GL211606  28.579  23.113   9.073
  507POPC   C1A11607  28.504  22.729   8.761
  507POPC   D2A11608  28.358  22.868   8.344
  507POPC   C3A11609  28.455  22.662   7.978
  507POPC   C4A11610  28.319  22.723   7.577
  507POPC   C1B11611  28.234  23.179   8.753
  507POPC   C2B11612  28.175  23.351   8.318
  507POPC   C3B11613  28.355  23.225   7.893
  507POPC   C4B11614  28.691  23.226   7.544
  508POPC   NC311615  23.606  38.539   9.470
  508POPC   PO411616  24.180  38.585   9.186
  508POPC   GL111617  23.934  38.302   8.981
  508POPC   GL211618  23.578  38.250   9.072
  508POPC   C1A11619  23.743  38.421   8.609
  508POPC   D2A11620  23.732  38.692   8.302
  508POPC   C3A11621  23.856  38.567   7.940
  508POPC   C4A11622  23.980  38.204   7.721
  508POPC   C1B11623  23.292  38.471   8.818
  508POPC   C2B11624  23.226  38.472   8.418
  508POPC   C3B11625  23.327  38.572   8.035
  508POPC   C4B11626  23.483  38.314   7.707
  509POPC   NC311627  19.100  32.716   9.383
  509POPC   PO411628  19.393  33.362   9.405
  509POPC   GL111629  19.109  33.348   9.078
  509POPC   GL211630  19.035  33.012   8.981
  509POPC   C1A11631  19.014  33.395   8.662
  509POPC   D2A11632  18.972  32.994   8.470
  509POPC   C3A11633  18.870  32.956   8.076
  509POPC   C4A11634  18.907  33.158   7.731
  509POPC   C1B11635  19.231  32.643   8.762
  509POPC   C2B11636  19.409  32.727   8.378
  509POPC   C3B11637  19.235  32.622   8.027
  509POPC   C4B11638  19.256  32.799   7.620
  510POPC   NC311639  37.549  42.197   9.441
  510POPC   PO411640  37.853  42.742   9.534
  510POPC   GL111641  37.838  42.514   9.163
  510POPC   GL211642  37.966  42.161   9.136
  510POPC   C1A11643  37.668  42.383   8.783
  510POPC   D2A11644  37.866  42.403   8.412
  510POPC   C3A11645  37.561  42.403   8.141
  510POPC   C4A11646  37.561  42.572   7.758
  510POPC   C1B11647  37.921  41.923   8.719
  510POPC   C2B11648  37.825  41.937   8.259
  510POPC   C3B11649  37.843  42.102   7.844
  510POPC   C4B11650  38.109  42.021   7.473
  511POPC   NC311651  36.021  10.171   9.590
  511POPC   PO411652  36.166  10.843   9.500
  511POPC   GL111653  36.239  10.760   9.127
  511POPC   GL211654  36.227  10.416   9.186
  511POPC   C1A11655  36.243  10.879   8.728
  511POPC   D2A11656  36.332  10.655   8.386
  511POPC   C3A11657  36.225  10.840   8.020
  511POPC   C4A11658  36.450  10.787   7.642
  511POPC   C1B11659  36.077  10.402   8.775
  511POPC   C2B11660  35.975  10.265   8.380
  511POPC   C3B11661  36.216  10.335   8.022
  511POPC   C4B11662  36.288  10.334   7.650
  512POPC   NC311663  28.952  32.911   9.560
  512POPC   PO411664  29.494  32.998   9.172
  512POPC   GL111665  29.028  33.013   9.064
  512POPC   GL211666  28.827  32.689   9.116
  512POPC   C1A11667  28.805  33.194   8.698
  512POPC   D2A11668  29.159  33.165   8.429
  512POPC   C3A11669  29.164  33.035   8.031
  512POPC   C4A11670  29.255  33.187   7.634
  512POPC   C1B11671  28.880  32.678   8.678
  512POPC   C2B11672  28.744  32.857   8.295
  512POPC   C3B11673  28.835  32.674   7.895
  512POPC   C4B11674  29.024  32.702   7.476
  513POPC   NC311675  34.311  32.978   9.563
  513POPC   PO411676  34.784  33.373   9.449
  513POPC   GL111677  34.614  33.102   9.137
  513POPC   GL211678  34.292  33.234   9.134
  513POPC   C1A11679  34.722  32.928   8.728
  513POPC   D2A11680  34.602  32.733   8.336
  513POPC   C3A11681  34.684  32.952   7.942
  513POPC   C4A11682  34.941  32.851   7.575
  513POPC   C1B11683  34.176  33.323   8.761
  513POPC   C2B11684  34.389  33.200   8.414
  513POPC   C3B11685  34.239  33.191   8.019
  513POPC   C4B11686  34.249  33.481   7.701
  514POPC   NC311687  21.824  20.502   9.831
  514POPC   PO411688  21.322  20.234   9.440
  514POPC   GL111689  21.275  20.667   9.230
  514POPC   GL211690  21.580  20.674   9.061
  514POPC   C1A11691  21.279  20.981   8.845
  514POPC   D2A11692  21.424  20.765   8.471
  514POPC   C3A11693  21.386  20.975   8.062
  514POPC   C4A11694  21.386  20.838   7.640
  514POPC   C1B11695  21.801  20.474   8.691
  514POPC   C2B11696  21.696  20.339   8.307
  514POPC   C3B11697  21.713  20.587   7.953
  514POPC   C4B11698  21.833  20.492   7.546
  515POPC   NC311699  26.194   6.109   9.554
  515POPC   PO411700  25.699   6.141   9.143
  515POPC   GL111701  26.065   5.842   9.132
  515POPC   GL211702  26.381   6.043   9.068
  515POPC   C1A11703  26.169   5.588   8.780
  515POPC   D2A11704  25.952   5.777   8.405
  515POPC   C3A11705  26.040   5.837   7.959
  515POPC   C4A11706  26.016   5.725   7.448
  515POPC   C1B11707  26.249   6.123   8.662
  515POPC   C2B11708  26.184   6.284   8.238
  515POPC   C3B11709  26.398   6.359   7.835
  515POPC   C4B11710  26.439   6.267   7.345
  516POPC   NC311711  14.580  23.268   9.451
  516POPC   PO411712  14.209  22.764   9.324
  516POPC   GL111713  14.284  22.990   8.990
  516POPC   GL211714  13.988  22.896   8.825
  516POPC   C1A11715  14.493  22.960   8.623
  516POPC   D2A11716  14.843  22.970   8.387
  516POPC   C3A11717  14.638  22.898   8.010
  516POPC   C4A11718  14.321  23.073   7.700
  516POPC   C1B11719  14.148  22.518   8.621
  516POPC   C2B11720  14.373  22.434   8.230
  516POPC   C3B11721  14.221  22.600   7.857
  516POPC   C4B11722  14.189  22.638   7.408
  517POPC   NC311723  33.546  18.817   9.442
  517POPC   PO411724  33.502  19.497   9.614
  517POPC   GL111725  33.726  19.301   9.283
  517POPC   GL211726  33.486  19.198   9.034
  517POPC   C1A11727  33.969  19.248   8.905
  517POPC   D2A11728  33.795  19.232   8.479
  517POPC   C3A11729  33.962  19.166   8.062
  517POPC   C4A11730  33.928  19.124   7.607
  517POPC   C1B11731  33.671  18.844   8.795
  517POPC   C2B11732  33.702  18.632   8.402
  517POPC   C3B11733  33.766  18.711   7.983
  517POPC   C4B11734  33.490  18.946   7.722
  518POPC   NC311735  39.954  10.695   9.381
  518POPC   PO411736  40.566  10.945   9.364
  518POPC   GL111737  40.279  10.860   9.002
  518POPC   GL211738  39.904  10.918   8.953
  518POPC   C1A11739  40.250  10.759   8.563
  518POPC   D2A11740  40.286  10.356   8.352
  518POPC   C3A11741  40.116  10.447   7.943
  518POPC   C4A11742  40.097  10.892   7.925
  518POPC   C1B11743  39.802  10.564   8.745
  518POPC   C2B11744  39.785  10.562   8.325
  518POPC   C3B11745  39.623  10.662   7.948
  518POPC   C4B11746  39.481  10.683   7.566
  519POPC   NC311747   9.598  11.411   9.515
  519POPC   PO411748  10.219  11.605   9.502
  519POPC   GL111749   9.977  11.427   9.162
  519POPC   GL211750  10.102  11.153   9.025
  519POPC   C1A11751   9.604  11.312   8.869
  519POPC   D2A11752   9.496  11.009   8.519
  519POPC   C3A11753   9.625  11.172   8.099
  519POPC   C4A11754   9.906  11.486   7.853
  519POPC   C1B11755  10.016  11.200   8.607
  519POPC   C2B11756  10.170  11.233   8.216
  519POPC   C3B11757  10.043  11.001   7.873
  519POPC   C4B11758  10.102  11.061   7.467
  520POPC   NC311759   4.481  23.277   9.815
  520POPC   PO411760   4.616  23.905   9.492
  520POPC   GL111761   4.473  23.696   9.175
  520POPC   GL211762   4.326  23.389   9.187
  520POPC   C1A11763   4.488  23.782   8.786
  520POPC   D2A11764   4.566  23.606   8.452
  520POPC   C3A11765   4.344  23.786   8.190
  520POPC   C4A11766   4.426  24.006   7.849
  520POPC   C1B11767   4.057  23.505   8.819
  520POPC   C2B11768   3.826  23.548   8.395
  520POPC   C3B11769   4.005  23.478   7.984
  520POPC   C4B11770   4.420  23.483   7.776
  521POPC   NC311771  44.164  22.449   9.539
  521POPC   PO411772  43.782  22.929   9.514
  521POPC   GL111773  43.776  22.999   9.058
  521POPC   GL211774  44.100  22.852   9.013
  521POPC   C1A11775  43.501  22.950   8.668
  521POPC   D2A11776  43.556  23.055   8.243
  521POPC   C3A11777  43.951  23.240   8.090
  521POPC   C4A11778  44.281  23.152   7.805
  521POPC   C1B11779  43.803  22.552   8.798
  521POPC   C2B11780  43.650  22.564   8.353
  521POPC   C3B11781  43.925  22.725   8.021
  521POPC   C4B11782  44.369  22.651   7.966
  522POPC   NC311783  39.015  42.642   9.339
  522POPC   PO411784  39.415  42.099   9.528
  522POPC   GL111785  39.035  42.124   9.229
  522POPC   GL211786  39.281  42.257   9.047
  522POPC   C1A11787  38.824  42.336   8.814
  522POPC   D2A11788  38.797  42.630   8.485
  522POPC   C3A11789  38.837  42.452   8.068
  522POPC   C4A11790  39.162  42.565   7.770
  522POPC   C1B11791  39.182  41.966   8.741
  522POPC   C2B11792  39.173  42.277   8.419
  522POPC   C3B11793  39.481  42.405   8.139
  522POPC   C4B11794  39.602  42.129   7.791
  523POPC   NC311795  38.777  23.554   9.625
  523POPC   PO411796  39.423  23.749   9.568
  523POPC   GL111797  39.178  23.645   9.207
  523POPC   GL211798  38.989  23.331   9.220
  523POPC   C1A11799  39.187  23.828   8.794
  523POPC   D2A11800  39.066  24.068   8.439
  523POPC   C3A11801  39.182  23.847   8.080
  523POPC   C4A11802  38.931  23.775   7.722
  523POPC   C1B11803  39.150  23.286   8.794
  523POPC   C2B11804  39.493  23.468   8.531
  523POPC   C3B11805  39.648  23.476   8.116
  523POPC   C4B11806  39.405  23.527   7.743
  524POPC   NC311807  32.800  18.730   9.416
  524POPC   PO411808  33.326  18.307   9.529
  524POPC   GL111809  33.094  18.343   9.172
  524POPC   GL211810  33.273  18.041   9.097
  524POPC   C1A11811  32.985  18.458   8.741
  524POPC   D2A11812  33.055  18.259   8.318
  524POPC   C3A11813  33.288  18.496   8.030
  524POPC   C4A11814  33.290  18.532   7.558
  524POPC   C1B11815  33.073  17.950   8.740
  524POPC   C2B11816  32.904  17.765   8.385
  524POPC   C3B11817  32.914  17.852   7.984
  524POPC   C4B11818  33.165  18.082   7.709
  525POPC   NC311819  41.116   3.031   9.636
  525POPC   PO411820  40.727   2.590   9.529
  525POPC   GL111821  40.959   2.467   9.144
  525POPC   GL211822  40.615   2.441   9.024
  525POPC   C1A11823  41.208   2.490   8.738
  525POPC   D2A11824  41.219   2.439   8.286
  525POPC   C3A11825  41.071   2.784   8.012
  525POPC   C4A11826  40.785   3.085   7.773
  525POPC   C1B11827  40.745   2.318   8.609
  525POPC   C2B11828  40.673   2.167   8.207
  525POPC   C3B11829  40.935   2.302   7.893
  525POPC   C4B11830  40.655   2.589   7.689
  526POPC   NC311831  22.881  27.125   9.461
  526POPC   PO411832  22.898  27.842   9.554
  526POPC   GL111833  23.001  27.594   9.186
  526POPC   GL211834  22.691  27.512   9.113
  526POPC   C1A11835  23.052  27.732   8.754
  526POPC   D2A11836  23.067  27.553   8.325
  526POPC   C3A11837  23.066  27.817   7.942
  526POPC   C4A11838  23.118  27.804   7.481
  526POPC   C1B11839  22.812  27.269   8.743
  526POPC   C2B11840  22.604  27.261   8.349
  526POPC   C3B11841  22.651  27.510   8.013
  526POPC   C4B11842  22.977  27.329   7.779
  527POPC   NC311843   2.640  10.769   9.716
  527POPC   PO411844   2.937  11.441   9.500
  527POPC   GL111845   2.843  11.318   9.119
  527POPC   GL211846   2.516  11.229   9.125
  527POPC   C1A11847   2.803  11.238   8.676
  527POPC   D2A11848   2.940  11.502   8.351
  527POPC   C3A11849   3.055  11.405   7.948
  527POPC   C4A11850   2.773  11.548   7.639
  527POPC   C1B11851   2.390  11.487   8.766
  527POPC   C2B11852   2.384  11.402   8.309
  527POPC   C3B11853   2.330  11.481   7.865
  527POPC   C4B11854   2.314  11.558   7.423
  528POPC   NC311855  24.022  20.925   9.512
  528POPC   PO411856  23.873  21.594   9.574
  528POPC   GL111857  23.807  21.341   9.177
  528POPC   GL211858  24.053  21.102   9.042
  528POPC   C1A11859  23.673  21.533   8.770
  528POPC   D2A11860  23.676  21.762   8.345
  528POPC   C3A11861  23.824  21.546   7.947
  528POPC   C4A11862  23.985  21.134   7.791
  528POPC   C1B11863  23.682  21.007   8.792
  528POPC   C2B11864  23.431  21.204   8.455
  528POPC   C3B11865  23.472  21.131   8.027
  528POPC   C4B11866  23.518  20.885   7.686
  529POPC   NC311867  15.519  31.154   9.486
  529POPC   PO411868  14.865  31.322   9.417
  529POPC   GL111869  15.230  31.383   9.141
  529POPC   GL211870  15.325  31.720   9.081
  529POPC   C1A11871  15.576  31.331   8.836
  529POPC   D2A11872  15.579  31.441   8.406
  529POPC   C3A11873  15.260  31.204   8.182
  529POPC   C4A11874  15.104  31.324   7.813
  529POPC   C1B11875  15.127  31.577   8.665
  529POPC   C2B11876  14.942  31.604   8.228
  529POPC   C3B11877  14.725  31.656   7.814
  529POPC   C4B11878  14.780  31.937   7.451
  530POPC   NC311879   8.182  26.510   9.758
  530POPC   PO411880   8.182  25.920   9.476
  530POPC   GL111881   8.235  26.124   9.127
  530POPC   GL211882   8.450  25.910   8.984
  530POPC   C1A11883   7.982  26.306   8.803
  530POPC   D2A11884   7.938  26.305   8.377
  530POPC   C3A11885   8.282  26.284   8.108
  530POPC   C4A11886   8.164  26.214   7.705
  530POPC   C1B11887   8.144  25.835   8.702
  530POPC   C2B11888   8.234  25.827   8.309
  530POPC   C3B11889   7.989  25.820   7.954
  530POPC   C4B11890   7.624  25.705   7.713
  531POPC   NC311891  43.304  39.645   9.396
  531POPC   PO411892  43.040  39.042   9.604
  531POPC   GL111893  43.272  39.122   9.233
  531POPC   GL211894  42.991  39.353   9.146
  531POPC   C1A11895  43.364  39.285   8.807
  531POPC   D2A11896  43.149  39.255   8.438
  531POPC   C3A11897  43.225  39.440   8.060
  531POPC   C4A11898  43.366  39.126   7.818
  531POPC   C1B11899  42.846  39.561   8.764
  531POPC   C2B11900  42.709  39.554   8.330
  531POPC   C3B11901  42.732  39.480   7.887
  531POPC   C4B11902  42.913  39.255   7.599
  532POPC   NC311903  28.773  44.548   9.469
  532POPC   PO411904  28.234  44.904   9.535
  532POPC   GL111905  28.312  44.632   9.189
  532POPC   GL211906  28.578  44.894   9.135
  532POPC   C1A11907  28.234  44.281   8.859
  532POPC   D2A11908  28.329  44.356   8.408
  532POPC   C3A11909  28.087  44.449   8.037
  532POPC   C4A11910  28.019  44.534   7.584
  532POPC   C1B11911  28.608  44.614   8.764
  532POPC   C2B11912  28.812  44.585   8.356
  532POPC   C3B11913  28.647  44.445   7.947
  532POPC   C4B11914  28.533  44.442   7.506
  533POPC   NC311915  11.840  41.588   9.586
  533POPC   PO411916  12.504  41.536   9.366
  533POPC   GL111917  12.138  41.653   9.131
  533POPC   GL211918  11.853  41.915   9.192
  533POPC   C1A11919  12.254  41.573   8.703
  533POPC   D2A11920  12.253  41.786   8.307
  533POPC   C3A11921  12.241  41.513   7.943
  533POPC   C4A11922  12.159  41.543   7.486
  533POPC   C1B11923  11.965  41.988   8.745
  533POPC   C2B11924  11.757  41.843   8.375
  533POPC   C3B11925  11.838  41.837   7.980
  533POPC   C4B11926  11.982  42.017   7.624
  534POPC   NC311927  18.174  18.935   9.562
  534POPC   PO411928  18.625  19.355   9.390
  534POPC   GL111929  18.356  19.020   9.083
  534POPC   GL211930  17.969  19.047   9.086
  534POPC   C1A11931  18.187  18.902   8.667
  534POPC   D2A11932  18.260  19.109   8.295
  534POPC   C3A11933  18.450  18.803   8.070
  534POPC   C4A11934  18.494  18.653   7.655
  534POPC   C1B11935  17.920  19.315   8.697
  534POPC   C2B11936  17.835  19.429   8.298
  534POPC   C3B11937  17.954  19.291   7.918
  534POPC   C4B11938  18.016  18.884   7.803
  535POPC   NC311939  24.000  19.320   9.605
  535POPC   PO411940  23.345  19.208   9.661
  535POPC   GL111941  23.530  19.026   9.269
  535POPC   GL211942  23.888  19.045   9.207
  535POPC   C1A11943  23.563  19.124   8.818
  535POPC   D2A11944  23.389  19.053   8.390
  535POPC   C3A11945  23.666  19.163   8.024
  535POPC   C4A11946  23.772  19.028   7.596
  535POPC   C1B11947  24.058  18.908   8.850
  535POPC   C2B11948  23.896  18.942   8.460
  535POPC   C3B11949  24.136  18.966   8.129
  535POPC   C4B11950  24.220  18.855   7.761
  536POPC   NC311951  26.979  12.427   9.551
  536POPC   PO411952  26.912  13.061   9.514
  536POPC   GL111953  26.698  13.025   9.110
  536POPC   GL211954  26.350  13.005   9.190
  536POPC   C1A11955  26.808  12.874   8.680
  536POPC   D2A11956  26.956  13.045   8.266
  536POPC   C3A11957  26.901  12.749   7.919
  536POPC   C4A11958  27.090  12.693   7.481
  536POPC   C1B11959  26.307  12.949   8.761
  536POPC   C2B11960  26.397  12.927   8.318
  536POPC   C3B11961  26.404  12.610   7.980
  536POPC   C4B11962  26.541  12.744   7.563
  537POPC   NC311963  32.393  23.648   9.502
  537POPC   PO411964  32.081  24.165   9.361
  537POPC   GL111965  32.266  23.784   9.042
  537POPC   GL211966  32.498  23.416   9.071
  537POPC   C1A11967  32.417  23.714   8.622
  537POPC   D2A11968  32.513  23.846   8.179
  537POPC   C3A11969  32.126  23.765   7.918
  537POPC   C4A11970  31.843  23.404   7.977
  537POPC   C1B11971  32.808  23.404   8.751
  537POPC   C2B11972  32.648  23.373   8.332
  537POPC   C3B11973  32.450  23.389   7.932
  537POPC   C4B11974  32.582  23.508   7.507
  538POPC   NC311975  38.812   0.480   9.477
  538POPC   PO411976  39.482   0.324   9.510
  538POPC   GL111977  39.213   0.298   9.200
  538POPC   GL211978  39.260   0.633   9.120
  538POPC   C1A11979  39.279   0.246   8.780
  538POPC   D2A11980  39.522   0.372   8.420
  538POPC   C3A11981  39.237   0.363   8.065
  538POPC   C4A11982  39.038   0.040   7.786
  538POPC   C1B11983  39.198   0.736   8.675
  538POPC   C2B11984  39.058   0.821   8.268
  538POPC   C3B11985  39.118   0.874   7.834
  538POPC   C4B11986  39.482   0.802   7.633
  539POPC   NC311987   8.792  43.259   9.565
  539POPC   PO411988   8.801  42.734   9.175
  539POPC   GL111989   9.133  43.047   9.164
  539POPC   GL211990   9.086  43.385   9.181
  539POPC   C1A11991   9.281  43.073   8.770
  539POPC   D2A11992   8.974  42.990   8.442
  539POPC   C3A11993   9.126  43.025   8.032
  539POPC   C4A11994   8.901  43.076   7.690
  539POPC   C1B11995   8.838  43.320   8.831
  539POPC   C2B11996   8.794  43.517   8.445
  539POPC   C3B11997   8.892  43.498   8.023
  539POPC   C4B11998   8.803  43.562   7.577
  540POPC   NC311999  14.558   5.222   9.654
  540POPC   PO412000  14.137   4.787   9.406
  540POPC   GL112001  14.204   5.187   9.178
  540POPC   GL212002  14.541   5.264   9.140
  540POPC   C1A12003  14.290   5.232   8.708
  540POPC   D2A12004  14.276   5.369   8.300
  540POPC   C3A12005  14.180   5.088   7.943
  540POPC   C4A12006  14.426   4.742   7.768
  540POPC   C1B12007  14.820   5.288   8.778
  540POPC   C2B12008  14.764   5.132   8.325
  540POPC   C3B12009  14.625   5.346   7.939
  540POPC   C4B12010  14.451   5.487   7.543
  541POPC   NC312011   3.344  41.613   9.733
  541POPC   PO412012   3.150  41.296   9.324
  541POPC   GL112013   3.251  41.670   9.122
  541POPC   GL212014   3.556  41.593   9.024
  541POPC   C1A12015   3.204  41.821   8.673
  541POPC   D2A12016   3.189  41.641   8.254
  541POPC   C3A12017   3.461  41.705   7.884
  541POPC   C4A12018   3.430  41.423   7.526
  541POPC   C1B12019   3.407  41.355   8.641
  541POPC   C2B12020   3.641  41.363   8.256
  541POPC   C3B12021   3.909  41.450   7.906
  541POPC   C4B12022   3.919  41.223   7.546
  542POPC   NC312023  42.677  11.245   9.545
  542POPC   PO412024  42.146  11.579   9.447
  542POPC   GL112025  42.390  11.498   9.113
  542POPC   GL212026  42.376  11.161   9.118
  542POPC   C1A12027  42.514  11.479   8.677
  542POPC   D2A12028  42.295  11.710   8.323
  542POPC   C3A12029  42.307  11.545   7.912
  542POPC   C4A12030  42.721  11.456   7.739
  542POPC   C1B12031  42.222  11.046   8.720
  542POPC   C2B12032  42.279  11.190   8.295
  542POPC   C3B12033  42.481  11.028   7.913
  542POPC   C4B12034  42.381  11.194   7.515
  543POPC   NC312035  25.233   8.902   9.564
  543POPC   PO412036  24.815   9.311   9.275
  543POPC   GL112037  25.029   8.974   9.001
  543POPC   GL212038  25.357   8.880   9.069
  543POPC   C1A12039  25.026   9.034   8.545
  543POPC   D2A12040  25.328   9.232   8.246
  543POPC   C3A12041  25.351   9.043   7.837
  543POPC   C4A12042  25.062   8.816   7.598
  543POPC   C1B12043  25.436   8.752   8.667
  543POPC   C2B12044  25.313   8.697   8.236
  543POPC   C3B12045  25.583   8.607   7.875
  543POPC   C4B12046  25.542   8.694   7.427
  544POPC   NC312047  12.948  22.715   9.753
  544POPC   PO412048  12.566  23.025   9.324
  544POPC   GL112049  12.868  23.068   9.045
  544POPC   GL212050  13.108  22.848   9.148
  544POPC   C1A12051  12.964  23.057   8.623
  544POPC   D2A12052  12.712  23.213   8.293
  544POPC   C3A12053  12.881  23.008   7.960
  544POPC   C4A12054  12.741  22.965   7.529
  544POPC   C1B12055  13.090  22.579   8.761
  544POPC   C2B12056  13.264  22.662   8.367
  544POPC   C3B12057  13.201  22.562   7.958
  544POPC   C4B12058  13.083  22.589   7.546
  545POPC   NC312059   4.514  12.529   9.478
  545POPC   PO412060   4.527  11.831   9.438
  545POPC   GL112061   4.303  11.858   9.127
  545POPC   GL212062   4.185  12.182   9.245
  545POPC   C1A12063   4.381  11.823   8.721
  545POPC   D2A12064   4.341  12.030   8.317
  545POPC   C3A12065   4.453  11.837   7.947
  545POPC   C4A12066   4.166  12.080   7.711
  545POPC   C1B12067   4.185  12.280   8.817
  545POPC   C2B12068   4.236  12.525   8.458
  545POPC   C3B12069   4.131  12.517   8.029
  545POPC   C4B12070   4.202  12.594   7.604
  546POPC   NC312071  15.678  16.340   9.154
  546POPC   PO412072  15.979  16.764   9.577
  546POPC   GL112073  16.182  16.790   9.170
  546POPC   GL212074  16.410  17.083   9.111
  546POPC   C1A12075  16.095  16.685   8.731
  546POPC   D2A12076  16.355  16.600   8.387
  546POPC   C3A12077  16.183  16.357   8.086
  546POPC   C4A12078  16.043  16.500   7.700
  546POPC   C1B12079  16.018  17.177   8.823
  546POPC   C2B12080  15.828  17.013   8.426
  546POPC   C3B12081  16.009  16.875   8.043
  546POPC   C4B12082  15.928  16.967   7.585
  547POPC   NC312083  38.988  25.047   9.416
  547POPC   PO412084  39.364  25.589   9.538
  547POPC   GL112085  39.431  25.298   9.141
  547POPC   GL212086  39.140  25.209   8.956
  547POPC   C1A12087  39.592  25.247   8.686
  547POPC   D2A12088  39.614  25.327   8.215
  547POPC   C3A12089  39.207  25.249   7.938
  547POPC   C4A12090  38.992  25.009   7.646
  547POPC   C1B12091  38.809  25.493   8.837
  547POPC   C2B12092  38.650  25.562   8.423
  547POPC   C3B12093  38.806  25.664   8.029
  547POPC   C4B12094  38.814  25.486   7.653
  548POPC   NC312095  15.346  23.180   9.546
  548POPC   PO412096  14.790  22.727   9.483
  548POPC   GL112097  14.984  23.012   9.222
  548POPC   GL212098  14.765  23.158   9.008
  548POPC   C1A12099  15.223  23.013   8.845
  548POPC   D2A12100  15.417  23.032   8.456
  548POPC   C3A12101  15.237  22.780   8.136
  548POPC   C4A12102  15.247  22.970   7.761
  548POPC   C1B12103  14.884  23.380   8.685
  548POPC   C2B12104  15.022  23.462   8.331
  548POPC   C3B12105  14.939  23.304   7.983
  548POPC   C4B12106  14.804  23.180   7.582
  549POPC   NC312107   8.693   9.244   9.120
  549POPC   PO412108   8.255   8.796   9.400
  549POPC   GL112109   8.179   9.106   9.086
  549POPC   GL212110   8.410   8.882   8.904
  549POPC   C1A12111   8.206   9.311   8.668
  549POPC   D2A12112   8.436   9.238   8.287
  549POPC   C3A12113   8.252   9.017   7.954
  549POPC   C4A12114   8.025   9.265   7.654
  549POPC   C1B12115   8.309   8.782   8.493
  549POPC   C2B12116   8.428   8.417   8.252
  549POPC   C3B12117   8.262   8.489   7.879
  549POPC   C4B12118   7.823   8.639   7.877
  550POPC   NC312119  18.862  19.653   9.672
  550POPC   PO412120  19.452  19.911   9.464
  550POPC   GL112121  19.104  19.845   9.236
  550POPC   GL212122  19.117  19.485   9.266
  550POPC   C1A12123  19.014  19.883   8.796
  550POPC   D2A12124  18.825  19.683   8.433
  550POPC   C3A12125  18.834  19.964   8.072
  550POPC   C4A12126  18.789  19.785   7.671
  550POPC   C1B12127  19.281  19.436   8.865
  550POPC   C2B12128  19.356  19.681   8.487
  550POPC   C3B12129  19.209  19.602   8.071
  550POPC   C4B12130  19.303  19.934   7.801
  551POPC   NC312131   6.247  37.282   9.525
  551POPC   PO412132   5.704  37.707   9.650
  551POPC   GL112133   5.931  37.598   9.298
  551POPC   GL212134   6.007  37.876   9.148
  551POPC   C1A12135   6.044  37.421   8.881
  551POPC   D2A12136   5.819  37.408   8.480
  551POPC   C3A12137   5.933  37.727   8.210
  551POPC   C4A12138   5.918  37.655   7.800
  551POPC   C1B12139   5.622  37.817   8.917
  551POPC   C2B12140   5.515  37.847   8.491
  551POPC   C3B12141   5.581  38.105   8.109
  551POPC   C4B12142   5.818  38.160   7.701
  552POPC   NC312143  23.541   7.076   9.472
  552POPC   PO412144  23.971   7.538   9.400
  552POPC   GL112145  23.575   7.481   9.160
  552POPC   GL212146  23.536   7.172   8.947
  552POPC   C1A12147  23.341   7.615   8.786
  552POPC   D2A12148  23.378   7.381   8.437
  552POPC   C3A12149  23.587   7.478   8.074
  552POPC   C4A12150  23.498   7.675   7.706
  552POPC   C1B12151  23.827   7.399   8.716
  552POPC   C2B12152  24.031   7.318   8.345
  552POPC   C3B12153  23.868   7.039   8.061
  552POPC   C4B12154  23.653   7.170   7.674
  553POPC   NC312155  23.068  16.588   9.458
  553POPC   PO412156  22.949  17.205   9.733
  553POPC   GL112157  22.870  17.095   9.276
  553POPC   GL212158  23.123  16.926   9.093
  553POPC   C1A12159  22.767  17.069   8.778
  553POPC   D2A12160  22.712  16.766   8.407
  553POPC   C3A12161  22.842  16.868   7.981
  553POPC   C4A12162  23.169  16.769   7.685
  553POPC   C1B12163  23.145  16.679   8.677
  553POPC   C2B12164  23.254  16.599   8.209
  553POPC   C3B12165  23.446  16.353   7.844
  553POPC   C4B12166  23.271  16.190   7.438
  554POPC   NC312167  22.970   8.656   9.508
  554POPC   PO412168  22.660   8.029   9.437
  554POPC   GL112169  22.915   8.247   9.179
  554POPC   GL212170  22.684   8.449   9.098
  554POPC   C1A12171  23.084   8.145   8.812
  554POPC   D2A12172  23.121   8.247   8.398
  554POPC   C3A12173  23.312   7.931   8.158
  554POPC   C4A12174  23.187   8.064   7.755
  554POPC   C1B12175  22.732   8.529   8.656
  554POPC   C2B12176  22.727   8.542   8.211
  554POPC   C3B12177  22.769   8.567   7.772
  554POPC   C4B12178  22.767   8.930   7.525
  555POPC   NC312179  30.220  18.779   9.731
  555POPC   PO412180  30.724  18.540   9.336
  555POPC   GL112181  30.666  18.427   8.965
  555POPC   GL212182  30.705  18.083   9.021
  555POPC   C1A12183  30.635  18.508   8.553
  555POPC   D2A12184  30.417  18.264   8.296
  555POPC   C3A12185  30.466  18.491   7.974
  555POPC   C4A12186  30.746  18.421   7.672
  555POPC   C1B12187  30.866  18.059   8.592
  555POPC   C2B12188  30.915  18.242   8.177
  555POPC   C3B12189  30.862  17.951   7.846
  555POPC   C4B12190  30.636  17.974   7.432
  556POPC   NC312191  37.076  40.999   9.637
  556POPC   PO412192  36.713  40.482   9.502
  556POPC   GL112193  36.942  40.725   9.162
  556POPC   GL212194  37.076  41.092   9.137
  556POPC   C1A12195  36.909  40.856   8.697
  556POPC   D2A12196  37.049  40.946   8.247
  556POPC   C3A12197  36.821  40.742   7.930
  556POPC   C4A12198  36.668  40.861   7.555
  556POPC   C1B12199  37.200  41.297   8.743
  556POPC   C2B12200  37.035  41.455   8.320
  556POPC   C3B12201  37.212  41.395   7.927
  556POPC   C4B12202  37.132  41.078   7.636
  557POPC   NC312203   8.550  42.466   9.459
  557POPC   PO412204   8.057  41.947   9.541
  557POPC   GL112205   8.224  42.150   9.207
  557POPC   GL212206   8.058  42.447   9.345
  557POPC   C1A12207   8.345  42.277   8.777
  557POPC   D2A12208   8.474  42.356   8.337
  557POPC   C3A12209   8.140  42.250   8.072
  557POPC   C4A12210   8.006  41.942   7.831
  557POPC   C1B12211   8.156  42.683   9.003
  557POPC   C2B12212   8.147  42.707   8.568
  557POPC   C3B12213   8.227  42.762   8.152
  557POPC   C4B12214   8.336  42.620   7.787
  558POPC   NC312215  23.085  34.298   9.305
  558POPC   PO412216  22.632  34.765   9.452
  558POPC   GL112217  22.682  34.567   9.093
  558POPC   GL212218  23.003  34.728   9.036
  558POPC   C1A12219  22.740  34.320   8.712
  558POPC   D2A12220  22.932  34.378   8.308
  558POPC   C3A12221  22.704  34.519   7.950
  558POPC   C4A12222  22.816  34.329   7.541
  558POPC   C1B12223  22.837  34.817   8.659
  558POPC   C2B12224  23.088  34.855   8.347
  558POPC   C3B12225  23.198  34.698   7.956
  558POPC   C4B12226  22.973  34.819   7.600
  559POPC   NC312227   4.891  35.955   9.372
  559POPC   PO412228   5.525  36.213   9.419
  559POPC   GL112229   5.254  36.250   9.081
  559POPC   GL212230   5.315  35.882   9.072
  559POPC   C1A12231   4.936  36.274   8.739
  559POPC   D2A12232   4.846  36.052   8.358
  559POPC   C3A12233   4.955  36.183   7.954
  559POPC   C4A12234   5.154  36.543   7.803
  559POPC   C1B12235   5.201  35.839   8.674
  559POPC   C2B12236   5.339  36.165   8.403
  559POPC   C3B12237   5.448  36.118   8.001
  559POPC   C4B12238   5.418  36.179   7.578
  560POPC   NC312239  15.277  14.856   9.345
  560POPC   PO412240  15.024  15.400   9.574
  560POPC   GL112241  15.073  15.267   9.129
  560POPC   GL212242  15.460  15.276   9.093
  560POPC   C1A12243  15.161  15.216   8.674
  560POPC   D2A12244  15.390  15.320   8.307
  560POPC   C3A12245  15.169  15.134   7.990
  560POPC   C4A12246  15.006  15.275   7.623
  560POPC   C1B12247  15.589  14.947   8.763
  560POPC   C2B12248  15.361  14.819   8.394
  560POPC   C3B12249  15.506  14.754   7.969
  560POPC   C4B12250  15.410  14.907   7.555
  561POPC   NC312251   4.177  21.691   9.314
  561POPC   PO412252   3.962  21.010   9.482
  561POPC   GL112253   4.175  21.093   9.089
  561POPC   GL212254   4.517  21.116   9.148
  561POPC   C1A12255   4.152  21.398   8.728
  561POPC   D2A12256   4.205  21.679   8.386
  561POPC   C3A12257   4.459  21.580   8.045
  561POPC   C4A12258   4.251  21.465   7.672
  561POPC   C1B12259   4.536  21.076   8.687
  561POPC   C2B12260   4.356  21.118   8.264
  561POPC   C3B12261   4.586  21.115   7.850
  561POPC   C4B12262   4.560  21.205   7.371
  562POPC   NC312263  22.281  14.245   9.875
  562POPC   PO412264  21.911  14.720   9.489
  562POPC   GL112265  22.098  14.554   9.044
  562POPC   GL212266  22.405  14.374   9.131
  562POPC   C1A12267  22.278  14.619   8.614
  562POPC   D2A12268  22.293  14.668   8.162
  562POPC   C3A12269  22.042  14.389   7.940
  562POPC   C4A12270  21.826  14.418   7.559
  562POPC   C1B12271  22.452  14.147   8.735
  562POPC   C2B12272  22.285  14.125   8.311
  562POPC   C3B12273  22.488  14.157   7.903
  562POPC   C4B12274  22.412  14.227   7.415
  563POPC   NC312275   7.261  28.179   9.437
  563POPC   PO412276   7.768  28.569   9.479
  563POPC   GL112277   7.507  28.530   9.143
  563POPC   GL212278   7.503  28.208   8.981
  563POPC   C1A12279   7.425  28.670   8.744
  563POPC   D2A12280   7.577  28.738   8.324
  563POPC   C3A12281   7.428  28.441   8.038
  563POPC   C4A12282   7.236  28.415   7.665
  563POPC   C1B12283   7.109  28.221   8.752
  563POPC   C2B12284   7.104  28.120   8.321
  563POPC   C3B12285   7.087  27.921   7.954
  563POPC   C4B12286   7.058  27.916   7.522
  564POPC   NC312287  14.468  10.172   9.887
  564POPC   PO412288  14.200  10.737   9.581
  564POPC   GL112289  14.422  10.761   9.199
  564POPC   GL212290  14.559  10.414   9.135
  564POPC   C1A12291  14.409  10.906   8.776
  564POPC   D2A12292  14.402  10.678   8.365
  564POPC   C3A12293  14.165  10.898   8.090
  564POPC   C4A12294  14.265  10.978   7.703
  564POPC   C1B12295  14.256  10.428   8.782
  564POPC   C2B12296  14.040  10.196   8.464
  564POPC   C3B12297  14.021  10.390   8.059
  564POPC   C4B12298  14.310  10.480   7.738
  565POPC   NC312299  24.561  12.095   9.409
  565POPC   PO412300  24.233  11.446   9.352
  565POPC   GL112301  24.533  11.690   9.086
  565POPC   GL212302  24.288  11.992   9.002
  565POPC   C1A12303  24.579  11.799   8.634
  565POPC   D2A12304  24.267  12.045   8.385
  565POPC   C3A12305  24.451  12.143   7.998
  565POPC   C4A12306  24.850  12.000   7.830
  565POPC   C1B12307  24.502  12.323   8.768
  565POPC   C2B12308  24.764  12.258   8.424
  565POPC   C3B12309  24.910  12.430   8.079
  565POPC   C4B12310  24.685  12.466   7.680
  566POPC   NC312311  18.616  24.505   9.639
  566POPC   PO412312  18.088  24.727   9.316
  566POPC   GL112313  18.191  24.501   9.041
  566POPC   GL212314  18.438  24.277   9.214
  566POPC   C1A12315  18.130  24.642   8.621
  566POPC   D2A12316  18.257  24.767   8.198
  566POPC   C3A12317  18.273  24.553   7.782
  566POPC   C4A12318  18.086  24.698   7.375
  566POPC   C1B12319  18.409  24.124   8.805
  566POPC   C2B12320  18.428  24.289   8.405
  566POPC   C3B12321  18.424  24.080   8.025
  566POPC   C4B12322  18.632  24.176   7.697
  567POPC   NC312323  39.919  17.824   9.608
  567POPC   PO412324  40.048  18.472   9.634
  567POPC   GL112325  40.118  18.321   9.224
  567POPC   GL212326  40.292  18.004   9.312
  567POPC   C1A12327  40.023  18.476   8.787
  567POPC   D2A12328  40.099  18.554   8.312
  567POPC   C3A12329  39.816  18.283   8.067
  567POPC   C4A12330  39.589  18.396   7.698
  567POPC   C1B12331  40.260  17.965   8.860
  567POPC   C2B12332  40.129  18.069   8.453
  567POPC   C3B12333  40.322  18.147   8.050
  567POPC   C4B12334  40.168  18.167   7.640
  568POPC   NC312335  41.036  16.943   9.519
  568POPC   PO412336  40.491  16.551   9.502
  568POPC   GL112337  40.702  16.735   9.161
  568POPC   GL212338  40.584  17.070   9.042
  568POPC   C1A12339  40.668  16.685   8.727
  568POPC   D2A12340  40.894  16.806   8.372
  568POPC   C3A12341  40.823  16.535   8.041
  568POPC   C4A12342  40.689  16.572   7.626
  568POPC   C1B12343  40.684  17.197   8.611
  568POPC   C2B12344  40.644  17.240   8.185
  568POPC   C3B12345  40.863  17.027   7.900
  568POPC   C4B12346  40.879  17.022   7.503
  569POPC   NC312347  13.886  22.561   9.581
  569POPC   PO412348  13.525  22.044   9.448
  569POPC   GL112349  13.637  22.188   9.085
  569POPC   GL212350  13.736  22.530   9.109
  569POPC   C1A12351  13.585  22.021   8.688
  569POPC   D2A12352  13.665  21.841   8.315
  569POPC   C3A12353  13.429  22.067   8.040
  569POPC   C4A12354  13.430  22.206   7.648
  569POPC   C1B12355  13.625  22.528   8.709
  569POPC   C2B12356  13.726  22.396   8.314
  569POPC   C3B12357  13.706  22.602   7.912
  569POPC   C4B12358  13.593  22.678   7.464
  570POPC   NC312359  11.751   3.579   9.463
  570POPC   PO412360  12.289   3.991   9.485
  570POPC   GL112361  12.120   3.671   9.137
  570POPC   GL212362  12.301   3.460   8.984
  570POPC   C1A12363  11.771   3.446   8.843
  570POPC   D2A12364  11.521   3.586   8.501
  570POPC   C3A12365  11.783   3.743   8.188
  570POPC   C4A12366  11.915   3.640   7.781
  570POPC   C1B12367  12.159   3.178   8.685
  570POPC   C2B12368  11.915   3.236   8.307
  570POPC   C3B12369  12.183   3.248   7.947
  570POPC   C4B12370  12.370   3.467   7.619
  571POPC   NC312371  43.067  30.622   9.827
  571POPC   PO412372  43.068  31.259   9.599
  571POPC   GL112373  42.913  30.929   9.324
  571POPC   GL212374  43.247  30.842   9.200
  571POPC   C1A12375  42.822  30.894   8.853
  571POPC   D2A12376  43.029  30.958   8.388
  571POPC   C3A12377  42.872  30.700   8.002
  571POPC   C4A12378  42.996  30.640   7.550
  571POPC   C1B12379  43.270  30.650   8.769
  571POPC   C2B12380  43.391  30.577   8.334
  571POPC   C3B12381  43.389  30.662   7.889
  571POPC   C4B12382  43.477  30.690   7.425
  572POPC   NC312383  37.311  23.194   9.307
  572POPC   PO412384  37.864  23.469   9.528
  572POPC   GL112385  37.818  23.024   9.285
  572POPC   GL212386  37.536  22.723   9.287
  572POPC   C1A12387  37.751  22.849   8.845
  572POPC   D2A12388  37.400  22.953   8.578
  572POPC   C3A12389  37.449  22.922   8.119
  572POPC   C4A12390  37.805  22.757   7.900
  572POPC   C1B12391  37.339  22.523   8.899
  572POPC   C2B12392  37.055  22.573   8.545
  572POPC   C3B12393  37.084  22.530   8.081
  572POPC   C4B12394  37.335  22.634   7.705
  573POPC   NC312395  39.408  36.331   9.434
  573POPC   PO412396  38.864  35.985   9.452
  573POPC   GL112397  39.003  36.226   9.129
  573POPC   GL212398  39.252  35.942   9.142
  573POPC   C1A12399  39.290  36.282   8.756
  573POPC   D2A12400  39.541  36.139   8.397
  573POPC   C3A12401  39.314  36.130   8.008
  573POPC   C4A12402  38.949  36.299   7.893
  573POPC   C1B12403  39.015  35.833   8.796
  573POPC   C2B12404  39.000  35.982   8.392
  573POPC   C3B12405  39.008  35.702   8.049
  573POPC   C4B12406  38.967  35.839   7.675
  574POPC   NC312407   3.908   8.963   9.314
  574POPC   PO412408   3.289   8.759   9.474
  574POPC   GL112409   3.307   8.701   9.024
  574POPC   GL212410   3.526   9.004   8.970
  574POPC   C1A12411   3.577   8.646   8.640
  574POPC   D2A12412   3.618   9.016   8.391
  574POPC   C3A12413   3.457   8.969   7.983
  574POPC   C4A12414   3.438   8.684   7.633
  574POPC   C1B12415   3.836   9.314   8.768
  574POPC   C2B12416   4.058   9.262   8.375
  574POPC   C3B12417   3.915   9.207   7.938
  574POPC   C4B12418   3.992   9.230   7.478
  575POPC   NC312419  29.596   3.895   9.226
  575POPC   PO412420  29.059   4.313   9.341
  575POPC   GL112421  29.193   4.106   9.027
  575POPC   GL212422  28.941   3.879   8.970
  575POPC   C1A12423  29.416   4.292   8.676
  575POPC   D2A12424  29.480   4.541   8.298
  575POPC   C3A12425  29.375   4.376   7.887
  575POPC   C4A12426  29.073   4.503   7.597
  575POPC   C1B12427  28.889   4.251   8.656
  575POPC   C2B12428  29.052   4.227   8.287
  575POPC   C3B12429  28.818   4.253   7.963
  575POPC   C4B12430  28.913   4.020   7.622
  576POPC   NC312431  29.449  44.700   9.590
  576POPC   PO412432  28.917   0.063   9.544
  576POPC   GL112433  29.103  44.830   9.211
  576POPC   GL212434  29.377  44.975   9.141
  576POPC   C1A12435  29.109  44.625   8.819
  576POPC   D2A12436  29.243  44.351   8.471
  576POPC   C3A12437  29.360  44.436   8.046
  576POPC   C4A12438  29.110  44.595   7.721
  576POPC   C1B12439  29.318   0.154   8.790
  576POPC   C2B12440  29.294  44.906   8.419
  576POPC   C3B12441  29.338  44.972   8.003
  576POPC   C4B12442  29.547   0.229   7.719
  577POPC   NC312443   7.441  28.980   9.594
  577POPC   PO412444   7.831  29.499   9.654
  577POPC   GL112445   7.601  29.281   9.225
  577POPC   GL212446   7.306  29.014   9.124
  577POPC   C1A12447   7.683  29.100   8.805
  577POPC   D2A12448   7.517  29.235   8.412
  577POPC   C3A12449   7.617  29.184   7.993
  577POPC   C4A12450   7.552  28.840   7.720
  577POPC   C1B12451   7.170  29.236   8.790
  577POPC   C2B12452   7.017  29.116   8.413
  577POPC   C3B12453   7.114  29.045   7.988
  577POPC   C4B12454   7.243  29.390   7.689
  578POPC   NC312455  38.088  13.506   9.803
  578POPC   PO412456  37.495  13.395   9.482
  578POPC   GL112457  37.557  13.565   9.126
  578POPC   GL212458  37.885  13.709   9.159
  578POPC   C1A12459  37.616  13.552   8.707
  578POPC   D2A12460  37.791  13.529   8.313
  578POPC   C3A12461  37.585  13.437   7.934
  578POPC   C4A12462  37.253  13.751   7.843
  578POPC   C1B12463  38.131  13.698   8.770
  578POPC   C2B12464  38.232  13.749   8.330
  578POPC   C3B12465  37.967  13.794   7.899
  578POPC   C4B12466  38.004  13.825   7.380
  579POPC   NC312467  14.410   1.770   9.419
  579POPC   PO412468  14.565   2.432   9.612
  579POPC   GL112469  14.506   2.220   9.167
  579POPC   GL212470  14.181   1.975   9.028
  579POPC   C1A12471  14.571   2.091   8.727
  579POPC   D2A12472  14.272   1.936   8.426
  579POPC   C3A12473  14.309   2.103   8.046
  579POPC   C4A12474  14.432   1.973   7.648
  579POPC   C1B12475  13.957   1.657   8.733
  579POPC   C2B12476  14.070   1.445   8.346
  579POPC   C3B12477  14.089   1.653   7.940
  579POPC   C4B12478  13.961   1.572   7.481
  580POPC   NC312479  39.240  44.914   9.557
  580POPC   PO412480  39.105  44.262   9.501
  580POPC   GL112481  39.336  44.548   9.203
  580POPC   GL212482  39.523  44.878   9.137
  580POPC   C1A12483  39.193  44.655   8.799
  580POPC   D2A12484  39.224  44.327   8.480
  580POPC   C3A12485  39.172  44.510   8.083
  580POPC   C4A12486  39.300  44.492   7.679
  580POPC   C1B12487  39.646  44.930   8.720
  580POPC   C2B12488  39.329  44.914   8.361
  580POPC   C3B12489  39.479  44.880   7.937
  580POPC   C4B12490  39.492  44.906   7.432
  581POPC   NC312491  33.866   6.368   9.535
  581POPC   PO412492  33.795   6.995   9.382
  581POPC   GL112493  33.668   6.663   9.066
  581POPC   GL212494  33.852   6.326   9.027
  581POPC   C1A12495  33.553   6.457   8.641
  581POPC   D2A12496  33.421   6.373   8.231
  581POPC   C3A12497  33.674   6.483   7.884
  581POPC   C4A12498  33.845   6.650   7.526
  581POPC   C1B12499  34.048   6.591   8.720
  581POPC   C2B12500  34.004   6.483   8.291
  581POPC   C3B12501  34.208   6.393   7.897
  581POPC   C4B12502  34.217   6.323   7.445
  582POPC   NC312503  25.443  30.457   9.498
  582POPC   PO412504  25.126  31.066   9.449
  582POPC   GL112505  25.208  30.773   9.133
  582POPC   GL212506  25.553  30.643   9.049
  582POPC   C1A12507  25.297  30.933   8.730
  582POPC   D2A12508  25.075  31.029   8.383
  582POPC   C3A12509  25.332  30.818   8.125
  582POPC   C4A12510  25.345  30.784   7.699
  582POPC   C1B12511  25.311  30.392   8.772
  582POPC   C2B12512  25.421  30.288   8.358
  582POPC   C3B12513  25.241  30.343   7.952
  582POPC   C4B12514  25.379  30.304   7.547
  583POPC   NC312515   0.873   9.355   9.972
  583POPC   PO412516   0.951   8.808   9.374
  583POPC   GL112517   1.333   8.781   9.171
  583POPC   GL212518   1.432   9.128   9.040
  583POPC   C1A12519   1.398   8.696   8.753
  583POPC   D2A12520   1.191   8.582   8.398
  583POPC   C3A12521   1.151   8.792   7.995
  583POPC   C4A12522   1.144   8.617   7.615
  583POPC   C1B12523   1.454   9.161   8.574
  583POPC   C2B12524   1.556   9.193   8.133
  583POPC   C3B12525   1.414   9.425   7.741
  583POPC   C4B12526   1.369   9.294   7.292
  584POPC   NC312527  44.703  23.941   9.485
  584POPC   PO412528  44.526  24.446   9.739
  584POPC   GL112529  44.538  24.424   9.284
  584POPC   GL212530  44.310  24.209   9.164
  584POPC   C1A12531  44.455  24.541   8.812
  584POPC   D2A12532  44.297  24.689   8.394
  584POPC   C3A12533  44.520  24.579   7.978
  584POPC   C4A12534  44.766  24.506   7.563
  584POPC   C1B12535  44.124  24.137   8.803
  584POPC   C2B12536  44.278  24.181   8.410
  584POPC   C3B12537  44.158  24.229   7.989
  584POPC   C4B12538  44.334  24.235   7.542
  585POPC   NC312539  38.307  10.027   9.344
  585POPC   PO412540  38.131   9.467   9.589
  585POPC   GL112541  38.137   9.598   9.119
  585POPC   GL212542  37.877   9.862   9.115
  585POPC   C1A12543  38.452   9.628   8.726
  585POPC   D2A12544  38.706   9.733   8.334
  585POPC   C3A12545  38.555   9.763   7.903
  585POPC   C4A12546  38.551   9.397   7.632
  585POPC   C1B12547  38.101   9.999   8.718
  585POPC   C2B12548  38.227   9.916   8.302
  585POPC   C3B12549  38.047   9.827   7.896
  585POPC   C4B12550  38.180   9.809   7.469
  586POPC   NC312551  26.997  40.623   9.616
  586POPC   PO412552  26.468  40.706   9.777
  586POPC   GL112553  26.671  40.641   9.240
  586POPC   GL212554  26.979  40.796   9.085
  586POPC   C1A12555  26.618  40.478   8.761
  586POPC   D2A12556  26.828  40.722   8.422
  586POPC   C3A12557  26.869  40.748   7.991
  586POPC   C4A12558  26.654  40.849   7.592
  586POPC   C1B12559  27.019  41.102   8.685
  586POPC   C2B12560  26.997  41.211   8.190
  586POPC   C3B12561  27.005  41.173   7.734
  586POPC   C4B12562  26.962  41.120   7.272
  587POPC   NC312563   6.160  40.632   9.494
  587POPC   PO412564   5.643  41.082   9.411
  587POPC   GL112565   5.723  40.720   9.159
  587POPC   GL212566   6.017  40.906   9.076
  587POPC   C1A12567   5.890  40.555   8.753
  587POPC   D2A12568   6.013  40.766   8.375
  587POPC   C3A12569   6.019  40.519   8.009
  587POPC   C4A12570   5.833  40.712   7.638
  587POPC   C1B12571   6.137  41.125   8.708
  587POPC   C2B12572   6.254  41.214   8.260
  587POPC   C3B12573   6.257  40.951   7.876
  587POPC   C4B12574   6.201  40.931   7.362
  588POPC   NC312575   9.639  40.950   9.467
  588POPC   PO412576  10.017  40.387   9.501
  588POPC   GL112577   9.778  40.589   9.112
  588POPC   GL212578   9.933  40.941   9.062
  588POPC   C1A12579   9.518  40.886   8.781
  588POPC   D2A12580   9.676  41.022   8.349
  588POPC   C3A12581   9.535  40.845   7.968
  588POPC   C4A12582   9.348  41.035   7.616
  588POPC   C1B12583  10.046  40.781   8.666
  588POPC   C2B12584  10.258  40.530   8.357
  588POPC   C3B12585  10.286  40.402   7.910
  588POPC   C4B12586  10.247  40.496   7.471
  589POPC   NC312587  17.708  36.744   9.232
  589POPC   PO412588  17.713  37.218   9.740
  589POPC   GL112589  17.494  37.230   9.305
  589POPC   GL212590  17.262  36.997   9.110
  589POPC   C1A12591  17.600  37.232   8.833
  589POPC   D2A12592  17.645  36.899   8.533
  589POPC   C3A12593  17.698  37.136   8.169
  589POPC   C4A12594  17.708  37.027   7.745
  589POPC   C1B12595  17.094  37.177   8.709
  589POPC   C2B12596  17.161  37.314   8.261
  589POPC   C3B12597  17.256  36.952   7.972
  589POPC   C4B12598  17.502  36.565   7.958
  590POPC   NC312599  34.223  43.714   9.322
  590POPC   PO412600  33.644  43.988   9.449
  590POPC   GL112601  33.766  43.854   9.062
  590POPC   GL212602  34.037  44.074   8.999
  590POPC   C1A12603  33.665  43.992   8.643
  590POPC   D2A12604  33.873  43.991   8.238
  590POPC   C3A12605  33.609  43.952   7.860
  590POPC   C4A12606  33.785  44.103   7.450
  590POPC   C1B12607  34.128  43.742   8.655
  590POPC   C2B12608  34.159  43.578   8.208
  590POPC   C3B12609  34.105  43.804   7.772
  590POPC   C4B12610  34.148  43.793   7.289
  591POPC   NC312611  18.305  13.997   9.511
  591POPC   PO412612  18.367  14.698   9.569
  591POPC   GL112613  18.319  14.490   9.184
  591POPC   GL212614  18.463  14.191   9.089
  591POPC   C1A12615  18.055  14.430   8.835
  591POPC   D2A12616  18.062  14.605   8.433
  591POPC   C3A12617  17.955  14.484   8.058
  591POPC   C4A12618  18.280  14.455   7.792
  591POPC   C1B12619  18.268  13.947   8.769
  591POPC   C2B12620  18.173  14.111   8.386
  591POPC   C3B12621  18.215  13.980   7.976
  591POPC   C4B12622  18.547  14.038   7.649
  592POPC   NC312623  17.890  37.545   9.428
  592POPC   PO412624  18.558  37.752   9.485
  592POPC   GL112625  18.239  37.859   9.214
  592POPC   GL212626  18.257  37.513   9.064
  592POPC   C1A12627  18.139  37.920   8.784
  592POPC   D2A12628  18.392  37.715   8.454
  592POPC   C3A12629  18.297  37.800   8.011
  592POPC   C4A12630  18.042  37.897   7.650
  592POPC   C1B12631  18.080  37.363   8.651
  592POPC   C2B12632  18.219  37.289   8.200
  592POPC   C3B12633  18.535  37.383   7.858
  592POPC   C4B12634  18.475  37.591   7.467
  593POPC   NC312635  33.772  15.642   9.474
  593POPC   PO412636  34.302  15.791   9.440
  593POPC   GL112637  33.992  15.954   9.123
  593POPC   GL212638  33.796  15.676   8.951
  593POPC   C1A12639  33.955  16.093   8.689
  593POPC   D2A12640  34.039  15.862   8.293
  593POPC   C3A12641  34.102  16.091   7.898
  593POPC   C4A12642  34.070  16.131   7.450
  593POPC   C1B12643  33.566  15.794   8.548
  593POPC   C2B12644  33.583  16.021   8.124
  593POPC   C3B12645  33.638  15.916   7.679
  593POPC   C4B12646  33.611  16.085   7.244
  594POPC   NC312647  16.098  35.627   9.604
  594POPC   PO412648  15.923  34.980   9.519
  594POPC   GL112649  16.109  35.240   9.224
  594POPC   GL212650  16.253  35.566   9.117
  594POPC   C1A12651  15.883  35.333   8.846
  594POPC   D2A12652  15.908  35.672   8.528
  594POPC   C3A12653  15.842  35.625   8.079
  594POPC   C4A12654  15.598  35.381   7.808
  594POPC   C1B12655  16.346  35.428   8.682
  594POPC   C2B12656  16.327  35.563   8.258
  594POPC   C3B12657  16.287  35.509   7.848
  594POPC   C4B12658  16.103  35.181   7.743
  595POPC   NC312659  23.668  33.311   9.335
  595POPC   PO412660  23.876  32.697   9.507
  595POPC   GL112661  23.680  32.877   9.061
  595POPC   GL212662  23.390  33.028   8.965
  595POPC   C1A12663  23.717  32.939   8.603
  595POPC   D2A12664  23.753  32.667   8.286
  595POPC   C3A12665  23.752  32.917   7.971
  595POPC   C4A12666  23.554  32.916   7.597
  595POPC   C1B12667  23.516  33.381   8.694
  595POPC   C2B12668  23.604  33.327   8.268
  595POPC   C3B12669  23.301  33.154   7.985
  595POPC   C4B12670  23.073  33.344   7.697
  596POPC   NC312671  41.996  27.361   9.602
  596POPC   PO412672  41.298  27.467   9.574
  596POPC   GL112673  41.496  27.428   9.176
  596POPC   GL212674  41.609  27.779   9.250
  596POPC   C1A12675  41.364  27.330   8.727
  596POPC   D2A12676  41.271  27.081   8.330
  596POPC   C3A12677  41.284  27.298   7.949
  596POPC   C4A12678  41.507  27.314   7.575
  596POPC   C1B12679  41.640  27.804   8.809
  596POPC   C2B12680  41.517  27.760   8.394
  596POPC   C3B12681  41.611  27.696   7.992
  596POPC   C4B12682  41.584  27.869   7.657
  597POPC   NC312683  36.877  20.950   9.299
  597POPC   PO412684  37.184  20.459   9.639
  597POPC   GL112685  37.139  20.498   9.186
  597POPC   GL212686  36.795  20.508   9.039
  597POPC   C1A12687  37.210  20.392   8.747
  597POPC   D2A12688  37.389  20.449   8.336
  597POPC   C3A12689  37.069  20.576   8.062
  597POPC   C4A12690  36.920  20.486   7.646
  597POPC   C1B12691  36.694  20.852   8.713
  597POPC   C2B12692  36.795  20.976   8.329
  597POPC   C3B12693  36.680  20.907   7.933
  597POPC   C4B12694  36.454  20.662   7.654
  598POPC   NC312695  15.131  40.746   9.477
  598POPC   PO412696  15.526  41.218   9.288
  598POPC   GL112697  15.155  41.019   9.024
  598POPC   GL212698  15.066  40.639   8.991
  598POPC   C1A12699  15.020  40.928   8.580
  598POPC   D2A12700  15.126  40.554   8.352
  598POPC   C3A12701  15.241  40.688   7.945
  598POPC   C4A12702  15.350  40.482   7.575
  598POPC   C1B12703  14.789  40.463   8.740
  598POPC   C2B12704  14.588  40.627   8.434
  598POPC   C3B12705  14.723  40.645   8.043
  598POPC   C4B12706  14.836  40.554   7.640
  599POPC   NC312707  21.313  41.187   9.615
  599POPC   PO412708  21.709  40.632   9.491
  599POPC   GL112709  21.414  40.894   9.208
  599POPC   GL212710  21.097  41.154   9.161
  599POPC   C1A12711  21.522  40.704   8.838
  599POPC   D2A12712  21.308  40.472   8.553
  599POPC   C3A12713  21.498  40.525   8.169
  599POPC   C4A12714  21.525  40.715   7.777
  599POPC   C1B12715  21.076  40.936   8.801
  599POPC   C2B12716  21.330  40.981   8.450
  599POPC   C3B12717  21.224  40.995   8.063
  599POPC   C4B12718  21.370  41.260   7.743
  600POPC   NC312719  38.309  21.410   9.685
  600POPC   PO412720  38.891  21.317   9.516
  600POPC   GL112721  38.550  21.371   9.220
  600POPC   GL212722  38.297  21.069   9.268
  600POPC   C1A12723  38.636  21.616   8.838
  600POPC   D2A12724  38.735  21.758   8.408
  600POPC   C3A12725  38.640  21.442   8.077
  600POPC   C4A12726  38.464  21.498   7.655
  600POPC   C1B12727  38.501  20.981   8.846
  600POPC   C2B12728  38.799  20.823   8.507
  600POPC   C3B12729  38.850  20.955   8.062
  600POPC   C4B12730  38.913  21.215   7.693
  601POPC   NC312731  17.527  34.903   9.496
  601POPC   PO412732  17.295  35.589   9.661
  601POPC   GL112733  17.477  35.378   9.311
  601POPC   GL212734  17.205  35.402   9.098
  601POPC   C1A12735  17.639  35.191   8.902
  601POPC   D2A12736  17.692  35.383   8.493
  601POPC   C3A12737  17.607  35.284   8.068
  601POPC   C4A12738  17.742  35.603   7.803
  601POPC   C1B12739  17.190  35.331   8.674
  601POPC   C2B12740  17.197  35.539   8.291
  601POPC   C3B12741  17.145  35.384   7.867
  601POPC   C4B12742  17.422  35.291   7.538
  602POPC   NC312743  13.234  28.664   9.590
  602POPC   PO412744  13.478  28.123   9.406
  602POPC   GL112745  13.639  28.202   9.049
  602POPC   GL212746  13.645  28.555   9.054
  602POPC   C1A12747  13.524  28.205   8.652
  602POPC   D2A12748  13.696  28.326   8.279
  602POPC   C3A12749  13.409  28.298   7.922
  602POPC   C4A12750  13.374  28.263   7.474
  602POPC   C1B12751  13.658  28.695   8.660
  602POPC   C2B12752  13.877  28.809   8.300
  602POPC   C3B12753  13.740  28.691   7.903
  602POPC   C4B12754  13.345  28.755   7.709
  603POPC   NC312755  32.823  32.419   9.422
  603POPC   PO412756  33.247  32.002   9.613
  603POPC   GL112757  33.163  32.111   9.171
  603POPC   GL212758  33.235  32.452   9.082
  603POPC   C1A12759  32.938  32.174   8.758
  603POPC   D2A12760  33.140  32.289   8.364
  603POPC   C3A12761  32.934  32.166   8.006
  603POPC   C4A12762  32.896  32.394   7.622
  603POPC   C1B12763  33.442  32.557   8.686
  603POPC   C2B12764  33.599  32.523   8.241
  603POPC   C3B12765  33.351  32.419   7.866
  603POPC   C4B12766  33.343  32.493   7.381
  604POPC   NC312767  16.712  26.388   9.293
  604POPC   PO412768  17.061  25.940   9.402
  604POPC   GL112769  16.882  26.022   8.986
  604POPC   GL212770  16.551  25.907   8.988
  604POPC   C1A12771  16.803  26.058   8.545
  604POPC   D2A12772  16.440  25.938   8.325
  604POPC   C3A12773  16.530  25.921   7.904
  604POPC   C4A12774  16.890  26.123   7.744
  604POPC   C1B12775  16.429  26.312   8.770
  604POPC   C2B12776  16.583  26.584   8.466
  604POPC   C3B12777  16.616  26.426   8.066
  604POPC   C4B12778  16.443  26.434   7.654
  605POPC   NC312779  30.916  21.163   9.724
  605POPC   PO412780  30.434  21.519   9.623
  605POPC   GL112781  30.556  21.483   9.198
  605POPC   GL212782  30.893  21.381   9.242
  605POPC   C1A12783  30.642  21.182   8.844
  605POPC   D2A12784  30.876  21.127   8.451
  605POPC   C3A12785  30.658  20.993   8.078
  605POPC   C4A12786  30.845  21.099   7.712
  605POPC   C1B12787  31.019  21.528   8.838
  605POPC   C2B12788  30.736  21.609   8.503
  605POPC   C3B12789  30.738  21.517   8.081
  605POPC   C4B12790  31.095  21.516   7.866
  606POPC   NC312791  12.435  15.715   9.538
  606POPC   PO412792  12.017  16.121   9.606
  606POPC   GL112793  12.100  15.901   9.176
  606POPC   GL212794  12.065  15.516   9.224
  606POPC   C1A12795  12.171  16.042   8.699
  606POPC   D2A12796  12.457  16.033   8.298
  606POPC   C3A12797  12.259  16.051   7.865
  606POPC   C4A12798  12.031  16.290   7.548
  606POPC   C1B12799  12.291  15.569   8.821
  606POPC   C2B12800  12.145  15.624   8.388
  606POPC   C3B12801  12.113  15.572   7.931
  606POPC   C4B12802  11.824  15.718   7.630
  607POPC   NC312803  20.578  16.154   9.494
  607POPC   PO412804  20.286  16.727   9.693
  607POPC   GL112805  20.563  16.675   9.342
  607POPC   GL212806  20.806  16.963   9.289
  607POPC   C1A12807  20.594  16.696   8.902
  607POPC   D2A12808  20.339  16.710   8.554
  607POPC   C3A12809  20.469  16.741   8.131
  607POPC   C4A12810  20.504  16.689   7.680
  607POPC   C1B12811  20.977  17.025   8.898
  607POPC   C2B12812  20.827  16.924   8.496
  607POPC   C3B12813  20.960  16.903   8.086
  607POPC   C4B12814  21.025  16.841   7.662
  608POPC   NC312815  42.602  44.472   9.422
  608POPC   PO412816  42.197  44.936   9.576
  608POPC   GL112817  42.227  44.710   9.186
  608POPC   GL212818  42.103  44.343   9.197
  608POPC   C1A12819  42.489  44.580   8.781
  608POPC   D2A12820  42.623  44.337   8.408
  608POPC   C3A12821  42.623  44.539   7.987
  608POPC   C4A12822  42.683  44.916   7.744
  608POPC   C1B12823  41.980  44.558   8.794
  608POPC   C2B12824  42.129  44.732   8.411
  608POPC   C3B12825  42.049  44.613   7.987
  608POPC   C4B12826  42.018  44.402   7.577
  609POPC   NC312827   9.825   5.504   9.454
  609POPC   PO412828   9.718   6.129   9.492
  609POPC   GL112829   9.651   6.027   9.101
  609POPC   GL212830   9.526   5.688   9.064
  609POPC   C1A12831   9.630   6.052   8.682
  609POPC   D2A12832   9.479   5.807   8.378
  609POPC   C3A12833   9.648   6.044   8.055
  609POPC   C4A12834   9.735   6.169   7.631
  609POPC   C1B12835   9.815   5.584   8.762
  609POPC   C2B12836   9.802   5.359   8.402
  609POPC   C3B12837   9.781   5.514   8.026
  609POPC   C4B12838   9.855   5.416   7.625
  610POPC   NC312839  26.303  42.622   9.630
  610POPC   PO412840  26.287  41.989   9.326
  610POPC   GL112841  25.924  42.113   9.036
  610POPC   GL212842  25.671  42.348   9.036
  610POPC   C1A12843  25.898  42.174   8.592
  610POPC   D2A12844  26.283  42.097   8.412
  610POPC   C3A12845  26.303  42.274   8.028
  610POPC   C4A12846  26.126  42.226   7.662
  610POPC   C1B12847  25.909  42.630   8.809
  610POPC   C2B12848  26.185  42.627   8.487
  610POPC   C3B12849  26.216  42.769   8.098
  610POPC   C4B12850  25.946  42.697   7.776
  611POPC   NC312851  10.220   6.292   9.431
  611POPC   PO412852  10.605   5.667   9.482
  611POPC   GL112853  10.503   5.912   9.135
  611POPC   GL212854  10.132   5.822   9.166
  611POPC   C1A12855  10.657   6.143   8.749
  611POPC   D2A12856  10.512   6.160   8.310
  611POPC   C3A12857  10.569   5.850   8.004
  611POPC   C4A12858  10.634   5.879   7.570
  611POPC   C1B12859  10.156   5.978   8.738
  611POPC   C2B12860  10.097   5.808   8.303
  611POPC   C3B12861  10.093   5.888   7.837
  611POPC   C4B12862  10.191   5.712   7.412
  612POPC   NC312863  36.993  38.657   9.537
  612POPC   PO412864  36.753  37.969   9.522
  612POPC   GL112865  36.789  38.314   9.220
  612POPC   GL212866  37.142  38.354   9.111
  612POPC   C1A12867  36.738  38.603   8.872
  612POPC   D2A12868  36.490  38.611   8.531
  612POPC   C3A12869  36.563  38.421   8.129
  612POPC   C4A12870  36.647  38.596   7.694
  612POPC   C1B12871  37.226  38.622   8.777
  612POPC   C2B12872  36.992  38.536   8.418
  612POPC   C3B12873  37.069  38.529   8.002
  612POPC   C4B12874  37.151  38.807   7.661
  613POPC   NC312875  34.373  44.375   9.481
  613POPC   PO412876  34.648  44.981   9.612
  613POPC   GL112877  34.573  44.773   9.214
  613POPC   GL212878  34.708  44.446   9.116
  613POPC   C1A12879  34.387  44.758   8.807
  613POPC   D2A12880  34.646  44.780   8.482
  613POPC   C3A12881  34.486  44.931   8.148
  613POPC   C4A12882  34.328  44.687   7.853
  613POPC   C1B12883  34.890  44.411   8.750
  613POPC   C2B12884  34.769  44.315   8.340
  613POPC   C3B12885  34.812  44.556   8.007
  613POPC   C4B12886  34.754  44.444   7.586
  614POPC   NC312887  17.844  41.803   9.446
  614POPC   PO412888  18.460  41.482   9.504
  614POPC   GL112889  18.214  41.552   9.173
  614POPC   GL212890  17.882  41.392   9.136
  614POPC   C1A12891  18.202  41.801   8.819
  614POPC   D2A12892  18.379  41.772   8.408
  614POPC   C3A12893  18.100  41.689   8.075
  614POPC   C4A12894  17.943  41.882   7.679
  614POPC   C1B12895  18.107  41.256   8.773
  614POPC   C2B12896  18.261  41.261   8.372
  614POPC   C3B12897  18.449  41.322   7.999
  614POPC   C4B12898  18.209  41.440   7.632
  615POPC   NC312899  38.925  27.299   9.516
  615POPC   PO412900  39.375  27.759   9.505
  615POPC   GL112901  39.217  27.560   9.162
  615POPC   GL212902  39.092  27.864   9.063
  615POPC   C1A12903  39.420  27.450   8.773
  615POPC   D2A12904  39.513  27.638   8.360
  615POPC   C3A12905  39.759  27.393   8.098
  615POPC   C4A12906  39.434  27.449   7.831
  615POPC   C1B12907  39.113  27.832   8.624
  615POPC   C2B12908  39.012  27.516   8.326
  615POPC   C3B12909  38.925  27.612   7.914
  615POPC   C4B12910  38.836  27.812   7.532
  616POPC   NC312911  23.792   9.484   9.546
  616POPC   PO412912  23.469  10.022   9.535
  616POPC   GL112913  23.605   9.763   9.138
  616POPC   GL212914  23.930   9.641   9.095
  616POPC   C1A12915  23.579   9.668   8.702
  616POPC   D2A12916  23.400   9.391   8.422
  616POPC   C3A12917  23.381   9.569   8.022
  616POPC   C4A12918  23.748   9.736   7.847
  616POPC   C1B12919  24.062   9.818   8.717
  616POPC   C2B12920  24.011   9.609   8.307
  616POPC   C3B12921  24.224   9.662   7.919
  616POPC   C4B12922  24.281   9.932   7.570
  617POPC   NC312923  14.197  24.811   9.438
  617POPC   PO412924  14.743  24.354   9.412
  617POPC   GL112925  14.398  24.418   9.140
  617POPC   GL212926  14.565  24.725   9.052
  617POPC   C1A12927  14.152  24.570   8.776
  617POPC   D2A12928  14.126  24.799   8.364
  617POPC   C3A12929  14.210  24.552   7.976
  617POPC   C4A12930  14.406  24.433   7.582
  617POPC   C1B12931  14.752  24.418   8.759
  617POPC   C2B12932  14.739  24.321   8.338
  617POPC   C3B12933  14.720  24.525   7.989
  617POPC   C4B12934  14.824  24.777   7.666
  618POPC   NC312935  33.562   3.826   9.684
  618POPC   PO412936  33.866   4.430   9.520
  618POPC   GL112937  33.752   4.402   9.127
  618POPC   GL212938  34.052   4.528   9.011
  618POPC   C1A12939  33.601   4.415   8.722
  618POPC   D2A12940  33.811   4.448   8.363
  618POPC   C3A12941  33.733   4.255   7.993
  618POPC   C4A12942  34.085   4.497   7.809
  618POPC   C1B12943  34.089   4.200   8.717
  618POPC   C2B12944  34.075   3.948   8.404
  618POPC   C3B12945  34.209   4.041   8.062
  618POPC   C4B12946  34.010   3.942   7.727
  619POPC   NC312947   9.447   1.992   9.510
  619POPC   PO412948   8.783   2.034   9.614
  619POPC   GL112949   8.939   1.825   9.272
  619POPC   GL212950   8.946   2.158   9.120
  619POPC   C1A12951   8.807   1.702   8.859
  619POPC   D2A12952   8.936   1.899   8.460
  619POPC   C3A12953   8.829   1.911   8.045
  619POPC   C4A12954   8.892   2.270   7.845
  619POPC   C1B12955   9.254   1.991   8.841
  619POPC   C2B12956   9.443   1.760   8.478
  619POPC   C3B12957   9.274   1.630   8.071
  619POPC   C4B12958   9.402   1.710   7.647
  620POPC   NC312959  42.031   3.242   9.600
  620POPC   PO412960  42.613   3.453   9.412
  620POPC   GL112961  42.709   3.246   9.038
  620POPC   GL212962  42.377   3.166   8.973
  620POPC   C1A12963  42.714   3.264   8.605
  620POPC   D2A12964  42.415   3.397   8.334
  620POPC   C3A12965  42.563   3.235   7.986
  620POPC   C4A12966  42.753   3.317   7.633
  620POPC   C1B12967  42.408   3.628   8.799
  620POPC   C2B12968  42.421   3.897   8.389
  620POPC   C3B12969  42.409   3.750   7.919
  620POPC   C4B12970  42.266   3.450   7.571
  621POPC   NC312971   9.553  38.120   9.628
  621POPC   PO412972   9.997  38.567   9.369
  621POPC   GL112973   9.927  38.334   9.061
  621POPC   GL212974   9.573  38.294   9.134
  621POPC   C1A12975   9.992  38.471   8.621
  621POPC   D2A12976   9.750  38.389   8.281
  621POPC   C3A12977   9.820  38.318   7.862
  621POPC   C4A12978   9.517  38.046   7.701
  621POPC   C1B12979   9.578  38.659   8.868
  621POPC   C2B12980   9.598  38.819   8.475
  621POPC   C3B12981   9.418  38.714   8.092
  621POPC   C4B12982   9.537  38.730   7.659
  622POPC   NC312983   0.619   9.117   9.465
  622POPC   PO412984  44.977   9.030   9.388
  622POPC   GL112985   0.296   8.765   9.183
  622POPC   GL212986   0.610   8.914   9.012
  622POPC   C1A12987   0.237   8.752   8.737
  622POPC   D2A12988   0.420   9.020   8.415
  622POPC   C3A12989   0.274   8.955   8.004
  622POPC   C4A12990   0.233   8.615   7.736
  622POPC   C1B12991   0.961   8.949   8.759
  622POPC   C2B12992   0.956   9.052   8.377
  622POPC   C3B12993   0.759   9.101   8.015
  622POPC   C4B12994   0.685   8.845   7.701
  623POPC   NC312995  30.832   9.344  10.110
  623POPC   PO412996  30.657   9.518   9.553
  623POPC   GL112997  30.479   9.541   9.120
  623POPC   GL212998  30.516   9.895   9.042
  623POPC   C1A12999  30.417   9.554   8.654
  623POPC   D2A13000  30.735   9.475   8.326
  623POPC   C3A13001  30.637   9.562   7.878
  623POPC   C4A13002  30.827   9.582   7.479
  623POPC   C1B13003  30.787   9.913   8.650
  623POPC   C2B13004  30.671   9.987   8.204
  623POPC   C3B13005  30.850  10.023   7.768
  623POPC   C4B13006  30.790  10.080   7.298
  624POPC   NC313007  10.125   1.716   9.573
  624POPC   PO413008  10.751   1.676   9.492
  624POPC   GL113009  10.688   1.958   9.139
  624POPC   GL213010  10.360   2.039   9.134
  624POPC   C1A13011  10.896   2.045   8.763
  624POPC   D2A13012  10.852   2.132   8.353
  624POPC   C3A13013  10.933   2.105   7.936
  624POPC   C4A13014  10.565   2.046   7.647
  624POPC   C1B13015  10.423   1.862   8.716
  624POPC   C2B13016  10.352   2.107   8.378
  624POPC   C3B13017  10.201   2.054   7.998
  624POPC   C4B13018  10.174   1.745   7.699
  625POPC   NC313019   5.778  25.830   9.433
  625POPC   PO413020   5.462  26.350   9.288
  625POPC   GL113021   5.904  26.126   9.051
  625POPC   GL213022   6.005  25.695   9.011
  625POPC   C1A13023   6.088  26.022   8.643
  625POPC   D2A13024   6.050  26.047   8.243
  625POPC   C3A13025   6.190  25.810   7.957
  625POPC   C4A13026   6.038  26.030   7.615
  625POPC   C1B13027   5.636  25.811   8.750
  625POPC   C2B13028   5.562  26.029   8.348
  625POPC   C3B13029   5.643  25.874   7.914
  625POPC   C4B13030   5.438  25.599   7.603
  626POPC   NC313031  12.488  44.185   9.411
  626POPC   PO413032  13.095  44.348   9.644
  626POPC   GL113033  12.993  43.987   9.307
  626POPC   GL213034  12.700  43.739   9.259
  626POPC   C1A13035  13.020  43.688   8.894
  626POPC   D2A13036  12.886  43.790   8.483
  626POPC   C3A13037  12.944  43.595   8.098
  626POPC   C4A13038  12.829  43.690   7.722
  626POPC   C1B13039  12.504  43.785   8.825
  626POPC   C2B13040  12.374  43.751   8.370
  626POPC   C3B13041  12.361  43.862   7.905
  626POPC   C4B13042  12.387  43.587   7.519
  627POPC   NC313043   0.448   3.796   9.838
  627POPC   PO413044  44.859   3.539   9.581
  627POPC   GL113045   0.280   3.664   9.309
  627POPC   GL213046   0.512   3.422   9.192
  627POPC   C1A13047   0.591   3.846   8.917
  627POPC   D2A13048   0.632   3.647   8.477
  627POPC   C3A13049   0.727   3.889   8.082
  627POPC   C4A13050   0.360   4.081   7.867
  627POPC   C1B13051   0.178   3.608   8.813
  627POPC   C2B13052   0.143   3.674   8.343
  627POPC   C3B13053   0.413   3.471   8.020
  627POPC   C4B13054   0.635   3.169   7.739
  628POPC   NC313055  31.851  15.151   9.770
  628POPC   PO413056  32.108  15.432   9.525
  628POPC   GL113057  32.033  15.192   9.125
  628POPC   GL213058  32.369  15.049   9.070
  628POPC   C1A13059  31.840  15.314   8.688
  628POPC   D2A13060  32.093  15.418   8.309
  628POPC   C3A13061  32.068  15.172   7.893
  628POPC   C4A13062  32.352  15.180   7.515
  628POPC   C1B13063  32.245  15.004   8.632
  628POPC   C2B13064  32.450  15.058   8.243
  628POPC   C3B13065  32.454  14.827   7.875
  628POPC   C4B13066  32.140  14.707   7.570
  629POPC   NC313067   7.941  40.704   9.579
  629POPC   PO413068   8.576  40.587   9.635
  629POPC   GL113069   8.433  40.699   9.192
  629POPC   GL213070   8.082  40.553   9.094
  629POPC   C1A13071   8.480  40.987   8.808
  629POPC   D2A13072   8.359  41.034   8.340
  629POPC   C3A13073   8.563  40.727   8.074
  629POPC   C4A13074   8.640  40.487   7.683
  629POPC   C1B13075   8.043  40.763   8.684
  629POPC   C2B13076   8.054  40.615   8.256
  629POPC   C3B13077   8.078  40.515   7.828
  629POPC   C4B13078   7.803  40.688   7.474
  630POPC   NC313079  28.098  10.009   9.430
  630POPC   PO413080  28.599   9.501   9.475
  630POPC   GL113081  28.405   9.735   9.159
  630POPC   GL213082  28.585  10.032   9.226
  630POPC   C1A13083  28.125   9.738   8.781
  630POPC   D2A13084  28.292   9.588   8.419
  630POPC   C3A13085  28.162   9.606   8.038
  630POPC   C4A13086  28.260   9.358   7.711
  630POPC   C1B13087  28.439  10.135   8.813
  630POPC   C2B13088  28.250  10.114   8.421
  630POPC   C3B13089  28.362  10.109   8.016
  630POPC   C4B13090  28.334   9.882   7.652
  631POPC   NC313091   0.213  35.580   9.365
  631POPC   PO413092   0.624  35.044   9.424
  631POPC   GL113093   0.677  35.111   8.990
  631POPC   GL213094   0.463  35.412   8.965
  631POPC   C1A13095   0.812  35.400   8.618
  631POPC   D2A13096   0.575  35.695   8.320
  631POPC   C3A13097   0.633  35.592   7.912
  631POPC   C4A13098   0.406  35.246   7.784
  631POPC   C1B13099   0.222  35.737   8.729
  631POPC   C2B13100   0.012  35.776   8.353
  631POPC   C3B13101   0.128  35.602   8.026
  631POPC   C4B13102   0.019  35.578   7.633
  632POPC   NC313103  44.321  12.698   9.541
  632POPC   PO413104  44.828  13.155   9.625
  632POPC   GL113105  44.636  12.993   9.226
  632POPC   GL213106  44.704  12.665   9.199
  632POPC   C1A13107  44.742  12.952   8.777
  632POPC   D2A13108  44.951  13.036   8.388
  632POPC   C3A13109  44.887  12.903   7.926
  632POPC   C4A13110   0.046  13.039   7.471
  632POPC   C1B13111  44.396  12.584   8.819
  632POPC   C2B13112  44.554  12.624   8.369
  632POPC   C3B13113  44.510  12.570   7.899
  632POPC   C4B13114  44.462  12.823   7.504
  633POPC   NC313115  20.341  28.506   9.365
  633POPC   PO413116  20.952  28.221   9.406
  633POPC   GL113117  20.849  27.999   9.030
  633POPC   GL213118  20.502  28.015   9.014
  633POPC   C1A13119  20.825  28.061   8.581
  633POPC   D2A13120  20.709  28.417   8.328
  633POPC   C3A13121  20.918  28.330   7.958
  633POPC   C4A13122  20.854  28.007   7.658
  633POPC   C1B13123  20.344  28.268   8.691
  633POPC   C2B13124  20.206  28.240   8.253
  633POPC   C3B13125  20.403  28.405   7.888
  633POPC   C4B13126  20.660  28.796   7.936
  634POPC   NC313127  20.681  38.762   9.695
  634POPC   PO413128  20.777  38.127   9.433
  634POPC   GL113129  20.771  38.564   9.186
  634POPC   GL213130  20.438  38.725   9.211
  634POPC   C1A13131  20.632  38.752   8.752
  634POPC   D2A13132  20.514  38.829   8.325
  634POPC   C3A13133  20.809  38.648   7.982
  634POPC   C4A13134  20.780  38.204   7.816
  634POPC   C1B13135  20.354  38.341   8.914
  634POPC   C2B13136  20.230  38.163   8.486
  634POPC   C3B13137  20.289  38.256   8.029
  634POPC   C4B13138  20.364  38.640   7.773
  635POPC   NC313139  14.250   6.122   9.459
  635POPC   PO413140  14.752   5.855   9.825
  635POPC   GL113141  14.593   5.798   9.330
  635POPC   GL213142  14.654   6.111   9.157
  635POPC   C1A13143  14.443   5.691   8.871
  635POPC   D2A13144  14.258   5.853   8.444
  635POPC   C3A13145  14.316   5.750   7.987
  635POPC   C4A13146  14.174   5.945   7.606
  635POPC   C1B13147  14.452   6.193   8.796
  635POPC   C2B13148  14.681   6.144   8.440
  635POPC   C3B13149  14.490   6.198   8.097
  635POPC   C4B13150  14.495   6.344   7.735
  636POPC   NC313151   1.262  10.057   9.375
  636POPC   PO413152   1.371  10.669   9.607
  636POPC   GL113153   1.284  10.673   9.186
  636POPC   GL213154   0.988  10.505   9.123
  636POPC   C1A13155   1.410  10.486   8.799
  636POPC   D2A13156   1.488  10.263   8.423
  636POPC   C3A13157   1.466  10.513   8.073
  636POPC   C4A13158   1.489  10.368   7.697
  636POPC   C1B13159   0.926  10.356   8.721
  636POPC   C2B13160   1.038  10.531   8.335
  636POPC   C3B13161   1.008  10.410   7.875
  636POPC   C4B13162   1.081  10.322   7.401
  637POPC   NC313163  24.837  20.564   9.475
  637POPC   PO413164  24.116  20.451   9.541
  637POPC   GL113165  24.319  20.668   9.198
  637POPC   GL213166  24.501  20.432   9.111
  637POPC   C1A13167  24.393  20.826   8.772
  637POPC   D2A13168  24.546  20.870   8.347
  637POPC   C3A13169  24.334  20.743   7.974
  637POPC   C4A13170  24.453  20.843   7.535
  637POPC   C1B13171  24.403  20.286   8.730
  637POPC   C2B13172  24.544  20.334   8.333
  637POPC   C3B13173  24.646  20.352   7.945
  637POPC   C4B13174  24.391  20.354   7.547
  638POPC   NC313175  33.216  39.735   9.590
  638POPC   PO413176  32.715  39.420   9.579
  638POPC   GL113177  32.981  39.388   9.200
  638POPC   GL213178  33.226  39.623   9.105
  638POPC   C1A13179  32.869  39.535   8.763
  638POPC   D2A13180  32.615  39.470   8.387
  638POPC   C3A13181  32.724  39.279   7.965
  638POPC   C4A13182  32.510  39.020   7.617
  638POPC   C1B13183  33.365  39.534   8.680
  638POPC   C2B13184  33.134  39.536   8.288
  638POPC   C3B13185  33.195  39.482   7.857
  638POPC   C4B13186  33.377  39.604   7.455
  639POPC   NC313187  28.032  32.522   9.513
  639POPC   PO413188  27.374  32.288   9.622
  639POPC   GL113189  27.549  32.424   9.267
  639POPC   GL213190  27.355  32.179   9.121
  639POPC   C1A13191  27.775  32.509   8.868
  639POPC   D2A13192  27.942  32.446   8.438
  639POPC   C3A13193  27.844  32.559   8.012
  639POPC   C4A13194  27.575  32.536   7.636
  639POPC   C1B13195  27.539  32.065   8.766
  639POPC   C2B13196  27.374  31.948   8.371
  639POPC   C3B13197  27.460  32.148   7.984
  639POPC   C4B13198  27.289  32.050   7.572
  640POPC   NC313199  21.315  19.761   9.525
  640POPC   PO413200  21.903  20.061   9.708
  640POPC   GL113201  21.736  19.941   9.297
  640POPC   GL213202  21.659  20.171   9.060
  640POPC   C1A13203  21.551  19.709   8.915
  640POPC   D2A13204  21.447  19.950   8.544
  640POPC   C3A13205  21.508  19.852   8.107
  640POPC   C4A13206  21.342  19.620   7.731
  640POPC   C1B13207  21.299  20.348   8.805
  640POPC   C2B13208  21.118  20.318   8.410
  640POPC   C3B13209  21.264  20.362   8.010
  640POPC   C4B13210  21.047  20.226   7.675
  641POPC   NC313211  28.044   5.661   9.432
  641POPC   PO413212  27.488   5.971   9.641
  641POPC   GL113213  27.617   5.794   9.209
  641POPC   GL213214  27.924   5.968   9.055
  641POPC   C1A13215  27.581   5.760   8.767
  641POPC   D2A13216  27.827   5.773   8.381
  641POPC   C3A13217  27.593   5.723   8.024
  641POPC   C4A13218  27.234   5.901   7.833
  641POPC   C1B13219  28.080   5.579   8.776
  641POPC   C2B13220  28.289   5.569   8.323
  641POPC   C3B13221  28.049   5.524   7.890
  641POPC   C4B13222  27.968   5.528   7.395
  642POPC   NC313223  44.383  42.917   9.503
  642POPC   PO413224  43.750  42.998   9.635
  642POPC   GL113225  43.834  42.870   9.218
  642POPC   GL213226  43.492  42.969   9.178
  642POPC   C1A13227  43.944  43.029   8.779
  642POPC   D2A13228  44.144  43.126   8.356
  642POPC   C3A13229  43.927  43.304   7.970
  642POPC   C4A13230  43.494  43.463   7.927
  642POPC   C1B13231  43.490  43.265   8.857
  642POPC   C2B13232  43.641  43.300   8.435
  642POPC   C3B13233  43.580  42.989   8.150
  642POPC   C4B13234  43.490  42.934   7.759
  643POPC   NC313235  15.583  41.324   9.743
  643POPC   PO413236  15.097  41.818   9.665
  643POPC   GL113237  14.899  41.768   9.239
  643POPC   GL213238  14.781  41.420   9.193
  643POPC   C1A13239  15.041  41.681   8.792
  643POPC   D2A13240  15.149  41.618   8.343
  643POPC   C3A13241  15.176  41.217   8.116
  643POPC   C4A13242  15.325  41.127   7.692
  643POPC   C1B13243  14.570  41.422   8.783
  643POPC   C2B13244  14.642  41.524   8.351
  643POPC   C3B13245  14.816  41.621   7.932
  643POPC   C4B13246  14.891  41.932   7.570
  644POPC   NC313247   2.286  34.787   9.427
  644POPC   PO413248   2.940  34.474   9.451
  644POPC   GL113249   2.808  34.349   9.062
  644POPC   GL213250   2.594  34.616   9.045
  644POPC   C1A13251   2.847  34.364   8.637
  644POPC   D2A13252   2.915  34.251   8.233
  644POPC   C3A13253   2.905  34.603   7.909
  644POPC   C4A13254   3.060  34.890   7.588
  644POPC   C1B13255   2.434  34.711   8.650
  644POPC   C2B13256   2.514  34.578   8.271
  644POPC   C3B13257   2.387  34.684   7.894
  644POPC   C4B13258   2.566  34.859   7.522
  645POPC   NC313259  18.468   4.568   9.986
  645POPC   PO413260  18.036   4.898   9.499
  645POPC   GL113261  18.237   4.641   9.173
  645POPC   GL213262  18.418   4.282   9.191
  645POPC   C1A13263  18.146   4.407   8.780
  645POPC   D2A13264  18.129   4.070   8.490
  645POPC   C3A13265  18.003   4.238   8.078
  645POPC   C4A13266  17.960   4.060   7.656
  645POPC   C1B13267  18.594   4.154   8.750
  645POPC   C2B13268  18.500   4.352   8.318
  645POPC   C3B13269  18.635   4.295   7.894
  645POPC   C4B13270  18.395   4.382   7.535
  646POPC   NC313271  13.480  37.422   9.514
  646POPC   PO413272  14.113  37.643   9.588
  646POPC   GL113273  13.736  37.818   9.270
  646POPC   GL213274  13.566  37.541   9.039
  646POPC   C1A13275  13.480  38.003   8.897
  646POPC   D2A13276  13.574  37.744   8.545
  646POPC   C3A13277  13.438  37.875   8.157
  646POPC   C4A13278  13.570  37.753   7.806
  646POPC   C1B13279  13.874  37.337   8.776
  646POPC   C2B13280  13.777  37.297   8.342
  646POPC   C3B13281  13.689  37.262   7.925
  646POPC   C4B13282  13.396  37.317   7.606
  647POPC   NC313283  28.693   5.621   9.484
  647POPC   PO413284  29.211   6.005   9.852
  647POPC   GL113285  29.222   5.988   9.334
  647POPC   GL213286  28.934   5.935   9.133
  647POPC   C1A13287  29.302   6.196   8.879
  647POPC   D2A13288  29.198   6.053   8.411
  647POPC   C3A13289  29.455   6.192   8.013
  647POPC   C4A13290  29.434   6.051   7.571
  647POPC   C1B13291  29.202   5.701   8.810
  647POPC   C2B13292  29.214   5.529   8.387
  647POPC   C3B13293  29.230   5.732   7.968
  647POPC   C4B13294  28.957   6.081   7.828
  648POPC   NC313295  19.289  14.013   9.450
  648POPC   PO413296  18.946  13.352   9.449
  648POPC   GL113297  19.149  13.415   9.098
  648POPC   GL213298  19.068  13.765   9.061
  648POPC   C1A13299  19.295  13.498   8.692
  648POPC   D2A13300  19.182  13.801   8.387
  648POPC   C3A13301  19.334  13.529   8.090
  648POPC   C4A13302  19.192  13.349   7.727
  648POPC   C1B13303  18.801  13.972   8.752
  648POPC   C2B13304  18.667  13.999   8.332
  648POPC   C3B13305  18.740  13.734   8.004
  648POPC   C4B13306  19.088  13.845   7.782
  649POPC   NC313307  23.054  28.254   9.730
  649POPC   PO413308  22.823  28.832   9.677
  649POPC   GL113309  22.964  28.536   9.288
  649POPC   GL213310  22.685  28.318   9.195
  649POPC   C1A13311  23.121  28.279   8.889
  649POPC   D2A13312  22.849  28.161   8.501
  649POPC   C3A13313  22.931  28.307   8.056
  649POPC   C4A13314  23.284  28.265   7.734
  649POPC   C1B13315  22.752  28.595   8.792
  649POPC   C2B13316  23.028  28.730   8.431
  649POPC   C3B13317  23.183  28.749   7.984
  649POPC   C4B13318  22.831  28.684   7.700
  650POPC   NC313319   8.628  22.874   9.900
  650POPC   PO413320   9.152  22.808   9.514
  650POPC   GL113321   9.181  22.922   9.101
  650POPC   GL213322   8.836  23.049   9.061
  650POPC   C1A13323   9.128  22.955   8.644
  650POPC   D2A13324   8.892  22.647   8.408
  650POPC   C3A13325   8.867  22.758   7.986
  650POPC   C4A13326   9.118  22.772   7.622
  650POPC   C1B13327   8.635  23.096   8.643
  650POPC   C2B13328   8.849  23.217   8.231
  650POPC   C3B13329   8.947  23.231   7.762
  650POPC   C4B13330   8.831  23.074   7.320
  651POPC   NC313331  14.434  11.172   9.638
  651POPC   PO413332  13.819  11.414   9.539
  651POPC   GL113333  14.197  11.490   9.251
  651POPC   GL213334  14.536  11.309   9.174
  651POPC   C1A13335  14.199  11.403   8.804
  651POPC   D2A13336  14.412  11.252   8.409
  651POPC   C3A13337  14.307  11.410   8.029
  651POPC   C4A13338  14.233  11.490   7.621
  651POPC   C1B13339  14.752  11.282   8.800
  651POPC   C2B13340  14.871  11.027   8.432
  651POPC   C3B13341  14.685  10.969   8.035
  651POPC   C4B13342  14.684  11.235   7.684
  652POPC   NC313343  41.988  40.011   9.428
  652POPC   PO413344  41.488  39.598   9.588
  652POPC   GL113345  41.595  39.745   9.191
  652POPC   GL213346  41.926  39.675   9.036
  652POPC   C1A13347  41.352  39.867   8.842
  652POPC   D2A13348  41.325  39.697   8.443
  652POPC   C3A13349  41.566  39.870   8.130
  652POPC   C4A13350  41.433  39.864   7.710
  652POPC   C1B13351  41.875  39.852   8.607
  652POPC   C2B13352  42.068  40.036   8.218
  652POPC   C3B13353  41.966  39.926   7.785
  652POPC   C4B13354  41.773  39.989   7.381
  653POPC   NC313355   8.770  37.408   9.609
  653POPC   PO413356   9.151  38.035   9.402
  653POPC   GL113357   8.867  37.745   9.193
  653POPC   GL213358   8.740  38.025   9.031
  653POPC   C1A13359   8.649  37.628   8.764
  653POPC   D2A13360   8.480  37.635   8.347
  653POPC   C3A13361   8.721  37.492   7.965
  653POPC   C4A13362   9.109  37.352   7.774
  653POPC   C1B13363   9.091  37.878   8.729
  653POPC   C2B13364   9.035  37.771   8.292
  653POPC   C3B13365   9.088  37.840   7.849
  653POPC   C4B13366   9.155  37.773   7.393
  654POPC   NC313367  12.566   1.829   9.614
  654POPC   PO413368  13.056   2.294   9.524
  654POPC   GL113369  12.861   2.027   9.193
  654POPC   GL213370  12.743   2.238   8.927
  654POPC   C1A13371  12.945   1.697   8.853
  654POPC   D2A13372  12.993   1.548   8.414
  654POPC   C3A13373  12.749   1.786   8.104
  654POPC   C4A13374  12.894   1.800   7.702
  654POPC   C1B13375  12.803   2.067   8.530
  654POPC   C2B13376  13.011   2.217   8.197
  654POPC   C3B13377  13.236   2.303   7.876
  654POPC   C4B13378  13.234   2.126   7.510
  655POPC   NC313379  30.319  41.641   9.543
  655POPC   PO413380  29.753  41.333   9.735
  655POPC   GL113381  29.771  41.558   9.281
  655POPC   GL213382  30.093  41.733   9.115
  655POPC   C1A13383  29.718  41.608   8.816
  655POPC   D2A13384  29.876  41.725   8.398
  655POPC   C3A13385  29.931  41.637   7.941
  655POPC   C4A13386  29.886  41.657   7.465
  655POPC   C1B13387  30.134  41.314   8.998
  655POPC   C2B13388  30.097  41.295   8.575
  655POPC   C3B13389  30.148  41.257   8.167
  655POPC   C4B13390  30.178  41.252   7.732
  656POPC   NC313391   8.277  26.981   9.418
  656POPC   PO413392   7.751  26.569   9.602
  656POPC   GL113393   8.020  26.590   9.211
  656POPC   GL213394   8.348  26.621   9.092
  656POPC   C1A13395   8.049  26.803   8.745
  656POPC   D2A13396   8.181  26.758   8.304
  656POPC   C3A13397   7.943  26.637   7.934
  656POPC   C4A13398   7.970  26.947   7.641
  656POPC   C1B13399   8.538  26.939   8.815
  656POPC   C2B13400   8.453  27.158   8.443
  656POPC   C3B13401   8.588  27.035   8.064
  656POPC   C4B13402   8.436  26.697   7.817
  657POPC   NC313403  41.884  39.337   9.636
  657POPC   PO413404  41.387  38.960   9.420
  657POPC   GL113405  41.654  39.231   9.191
  657POPC   GL213406  42.004  39.175   9.144
  657POPC   C1A13407  41.570  39.390   8.801
  657POPC   D2A13408  41.737  39.367   8.403
  657POPC   C3A13409  41.463  39.372   8.047
  657POPC   C4A13410  41.716  39.466   7.701
  657POPC   C1B13411  41.830  38.908   8.804
  657POPC   C2B13412  41.693  38.825   8.374
  657POPC   C3B13413  41.855  39.023   7.989
  657POPC   C4B13414  42.016  39.064   7.577
  658POPC   NC313415  19.366  26.675   9.649
  658POPC   PO413416  18.762  27.075   9.598
  658POPC   GL113417  18.973  26.767   9.299
  658POPC   GL213418  19.302  26.848   9.174
  658POPC   C1A13419  18.928  26.787   8.844
  658POPC   D2A13420  19.153  26.776   8.451
  658POPC   C3A13421  18.856  26.854   8.131
  658POPC   C4A13422  18.733  26.664   7.771
  658POPC   C1B13423  19.354  27.110   8.807
  658POPC   C2B13424  19.491  27.262   8.410
  658POPC   C3B13425  19.366  27.046   8.057
  658POPC   C4B13426  19.236  26.670   7.820
  659POPC   NC313427  29.614  19.367   9.542
  659POPC   PO413428  29.481  20.033   9.608
  659POPC   GL113429  29.193  19.946   9.217
  659POPC   GL213430  29.139  20.231   9.089
  659POPC   C1A13431  28.981  19.868   8.803
  659POPC   D2A13432  29.167  19.867   8.401
  659POPC   C3A13433  28.964  20.057   8.085
  659POPC   C4A13434  28.732  19.779   7.852
  659POPC   C1B13435  29.410  20.197   8.713
  659POPC   C2B13436  29.484  20.239   8.254
  659POPC   C3B13437  29.435  19.924   7.933
  659POPC   C4B13438  29.134  19.864   7.572
  660POPC   NC313439  37.932  23.861   9.290
  660POPC   PO413440  37.227  23.659   9.378
  660POPC   GL113441  37.468  23.806   9.092
  660POPC   GL213442  37.648  23.492   9.068
  660POPC   C1A13443  37.597  23.836   8.681
  660POPC   D2A13444  37.319  23.881   8.396
  660POPC   C3A13445  37.508  23.809   8.058
  660POPC   C4A13446  37.499  23.931   7.695
  660POPC   C1B13447  37.768  23.338   8.696
  660POPC   C2B13448  37.880  23.556   8.333
  660POPC   C3B13449  37.796  23.398   7.946
  660POPC   C4B13450  37.954  23.379   7.553
  661POPC   NC313451  33.774  24.444   9.625
  661POPC   PO413452  34.350  24.459   9.465
  661POPC   GL113453  34.090  24.376   9.124
  661POPC   GL213454  33.731  24.286   9.119
  661POPC   C1A13455  34.087  24.169   8.738
  661POPC   D2A13456  34.111  23.936   8.372
  661POPC   C3A13457  34.121  24.229   8.014
  661POPC   C4A13458  34.017  24.274   7.550
  661POPC   C1B13459  33.530  24.134   8.729
  661POPC   C2B13460  33.663  24.184   8.301
  661POPC   C3B13461  33.646  24.365   7.882
  661POPC   C4B13462  33.522  24.739   7.647
  662POPC   NC313463   5.373   3.201   9.586
  662POPC   PO413464   4.760   2.848   9.591
  662POPC   GL113465   5.116   2.885   9.243
  662POPC   GL213466   5.292   2.542   9.130
  662POPC   C1A13467   5.310   2.939   8.817
  662POPC   D2A13468   5.221   2.722   8.413
  662POPC   C3A13469   5.236   2.950   7.995
  662POPC   C4A13470   5.276   3.008   7.551
  662POPC   C1B13471   4.925   2.541   8.857
  662POPC   C2B13472   4.820   2.350   8.444
  662POPC   C3B13473   4.911   2.523   8.051
  662POPC   C4B13474   5.159   2.502   7.689
  663POPC   NC313475   2.264   3.896   9.619
  663POPC   PO413476   1.568   3.805   9.580
  663POPC   GL113477   1.867   3.842   9.224
  663POPC   GL213478   2.184   4.013   9.137
  663POPC   C1A13479   1.879   3.542   8.876
  663POPC   D2A13480   1.822   3.240   8.519
  663POPC   C3A13481   2.064   3.244   8.121
  663POPC   C4A13482   2.137   3.097   7.667
  663POPC   C1B13483   2.281   3.836   8.761
  663POPC   C2B13484   2.061   3.698   8.414
  663POPC   C3B13485   1.988   3.820   8.032
  663POPC   C4B13486   1.882   3.540   7.751
  664POPC   NC313487  21.696   5.666   9.470
  664POPC   PO413488  21.298   5.058   9.655
  664POPC   GL113489  21.432   5.267   9.264
  664POPC   GL213490  21.659   5.034   9.119
  664POPC   C1A13491  21.246   5.240   8.840
  664POPC   D2A13492  21.280   5.314   8.388
  664POPC   C3A13493  21.362   5.024   8.055
  664POPC   C4A13494  21.141   4.933   7.675
  664POPC   C1B13495  21.738   5.163   8.672
  664POPC   C2B13496  21.835   5.294   8.254
  664POPC   C3B13497  21.789   5.211   7.819
  664POPC   C4B13498  21.639   4.840   7.619
  665POPC   NC313499  21.591  39.503   9.601
  665POPC   PO413500  20.979  39.145   9.548
  665POPC   GL113501  21.243  39.346   9.198
  665POPC   GL213502  21.597  39.460   9.107
  665POPC   C1A13503  21.221  39.536   8.767
  665POPC   D2A13504  21.317  39.350   8.371
  665POPC   C3A13505  21.551  39.354   8.003
  665POPC   C4A13506  21.358  39.398   7.592
  665POPC   C1B13507  21.534  39.127   8.844
  665POPC   C2B13508  21.510  38.912   8.489
  665POPC   C3B13509  21.759  38.889   8.081
  665POPC   C4B13510  21.791  39.056   7.661
  666POPC   NC313511  20.747   7.768   9.535
  666POPC   PO413512  20.481   7.124   9.619
  666POPC   GL113513  20.491   7.331   9.228
  666POPC   GL213514  20.562   7.647   9.061
  666POPC   C1A13515  20.358   7.183   8.810
  666POPC   D2A13516  20.302   7.369   8.380
  666POPC   C3A13517  20.353   7.146   7.992
  666POPC   C4A13518  20.752   7.179   7.792
  666POPC   C1B13519  20.765   7.432   8.659
  666POPC   C2B13520  21.014   7.322   8.277
  666POPC   C3B13521  20.932   7.618   8.000
  666POPC   C4B13522  20.600   7.898   7.844
  667POPC   NC313523  10.564  36.509   9.523
  667POPC   PO413524  10.358  37.148   9.579
  667POPC   GL113525  10.403  36.939   9.180
  667POPC   GL213526  10.344  36.604   9.069
  667POPC   C1A13527  10.324  37.037   8.752
  667POPC   D2A13528  10.325  37.327   8.396
  667POPC   C3A13529  10.307  37.180   7.988
  667POPC   C4A13530  10.647  36.907   7.825
  667POPC   C1B13531  10.515  36.556   8.659
  667POPC   C2B13532  10.350  36.777   8.291
  667POPC   C3B13533  10.272  36.579   7.897
  667POPC   C4B13534  10.640  36.388   7.783
  668POPC   NC313535  21.516  25.462   9.454
  668POPC   PO413536  21.001  25.074   9.556
  668POPC   GL113537  21.150  25.281   9.142
  668POPC   GL213538  21.532  25.213   9.021
  668POPC   C1A13539  21.192  25.352   8.687
  668POPC   D2A13540  21.393  25.179   8.320
  668POPC   C3A13541  21.231  25.283   7.910
  668POPC   C4A13542  21.473  25.593   7.751
  668POPC   C1B13543  21.611  24.901   8.712
  668POPC   C2B13544  21.661  24.717   8.317
  668POPC   C3B13545  21.671  24.952   7.940
  668POPC   C4B13546  21.755  25.179   7.561
  669POPC   NC313547   0.793  13.415   9.457
  669POPC   PO413548   1.501  13.532   9.606
  669POPC   GL113549   1.499  13.582   9.195
  669POPC   GL213550   1.181  13.645   9.157
  669POPC   C1A13551   1.572  13.620   8.733
  669POPC   D2A13552   1.433  13.835   8.367
  669POPC   C3A13553   1.543  13.629   7.982
  669POPC   C4A13554   1.429  13.716   7.567
  669POPC   C1B13555   1.089  13.807   8.775
  669POPC   C2B13556   0.940  13.627   8.409
  669POPC   C3B13557   1.017  13.771   8.009
  669POPC   C4B13558   0.991  13.965   7.624
  670POPC   NC313559   5.455  23.444   9.968
  670POPC   PO413560   5.883  23.000   9.708
  670POPC   GL113561   6.015  23.152   9.311
  670POPC   GL213562   5.813  22.917   9.151
  670POPC   C1A13563   6.163  23.154   8.856
  670POPC   D2A13564   6.078  22.923   8.443
  670POPC   C3A13565   6.169  23.095   8.026
  670POPC   C4A13566   6.178  23.047   7.572
  670POPC   C1B13567   5.667  22.824   8.765
  670POPC   C2B13568   5.625  22.657   8.376
  670POPC   C3B13569   5.712  22.857   8.019
  670POPC   C4B13570   5.657  22.550   7.724
  671POPC   NC313571  18.517  13.476   9.564
  671POPC   PO413572  17.875  13.835   9.561
  671POPC   GL113573  18.163  13.617   9.188
  671POPC   GL213574  18.550  13.688   9.107
  671POPC   C1A13575  18.300  13.407   8.773
  671POPC   D2A13576  18.422  13.572   8.388
  671POPC   C3A13577  18.222  13.460   8.001
  671POPC   C4A13578  18.248  13.612   7.596
  671POPC   C1B13579  18.791  13.465   8.740
  671POPC   C2B13580  18.856  13.312   8.305
  671POPC   C3B13581  18.670  13.231   7.885
  671POPC   C4B13582  18.728  13.498   7.496
  672POPC   NC313583  20.460  43.262   9.509
  672POPC   PO413584  21.122  43.139   9.283
  672POPC   GL113585  20.698  42.956   9.177
  672POPC   GL213586  20.498  43.198   9.016
  672POPC   C1A13587  20.417  42.734   8.816
  672POPC   D2A13588  20.523  42.658   8.400
  672POPC   C3A13589  20.559  42.989   8.100
  672POPC   C4A13590  20.713  42.872   7.719
  672POPC   C1B13591  20.137  43.252   8.786
  672POPC   C2B13592  20.082  43.201   8.357
  672POPC   C3B13593  20.212  43.410   8.033
  672POPC   C4B13594  20.417  43.300   7.659
  673POPC   NC313595  37.275  10.577   9.428
  673POPC   PO413596  37.916  10.246   9.469
  673POPC   GL113597  37.711  10.567   9.153
  673POPC   GL213598  37.584  10.918   9.178
  673POPC   C1A13599  37.460  10.610   8.774
  673POPC   D2A13600  37.366  10.398   8.397
  673POPC   C3A13601  37.636  10.544   8.084
  673POPC   C4A13602  37.468  10.546   7.687
  673POPC   C1B13603  37.854  10.970   8.807
  673POPC   C2B13604  38.093  10.987   8.401
  673POPC   C3B13605  37.972  10.926   7.992
  673POPC   C4B13606  37.899  10.772   7.602
  674POPC   NC313607  17.338  25.704   9.727
  674POPC   PO413608  17.293  26.333   9.817
  674POPC   GL113609  17.498  26.211   9.385
  674POPC   GL213610  17.269  26.325   9.123
  674POPC   C1A13611  17.725  26.114   8.968
  674POPC   D2A13612  17.822  25.768   8.627
  674POPC   C3A13613  17.771  25.838   8.160
  674POPC   C4A13614  17.574  26.109   7.817
  674POPC   C1B13615  17.301  26.132   8.690
  674POPC   C2B13616  17.274  25.973   8.244
  674POPC   C3B13617  17.223  25.746   7.836
  674POPC   C4B13618  17.242  25.956   7.413
  675POPC   NC313619  36.288  41.335   9.331
  675POPC   PO413620  36.969  41.448   9.531
  675POPC   GL113621  37.031  41.632   9.142
  675POPC   GL213622  36.676  41.612   9.113
  675POPC   C1A13623  36.933  41.766   8.714
  675POPC   D2A13624  36.604  41.735   8.408
  675POPC   C3A13625  36.790  41.902   8.044
  675POPC   C4A13626  36.912  41.744   7.680
  675POPC   C1B13627  36.672  41.319   8.775
  675POPC   C2B13628  36.598  41.199   8.358
  675POPC   C3B13629  36.722  41.257   7.915
  675POPC   C4B13630  36.710  41.337   7.433
  676POPC   NC313631  18.759  11.088   9.997
  676POPC   PO413632  19.010  10.972   9.353
  676POPC   GL113633  19.040  11.366   9.178
  676POPC   GL213634  18.730  11.565   9.249
  676POPC   C1A13635  19.291  11.371   8.817
  676POPC   D2A13636  19.162  11.461   8.412
  676POPC   C3A13637  19.339  11.442   8.023
  676POPC   C4A13638  19.166  11.155   7.694
  676POPC   C1B13639  18.816  11.582   8.787
  676POPC   C2B13640  18.621  11.431   8.411
  676POPC   C3B13641  18.796  11.610   8.054
  676POPC   C4B13642  18.968  11.618   7.677
  677POPC   NC313643   2.041  36.521   9.421
  677POPC   PO413644   1.753  37.132   9.529
  677POPC   GL113645   1.951  36.946   9.159
  677POPC   GL213646   2.307  37.003   9.168
  677POPC   C1A13647   1.911  36.822   8.729
  677POPC   D2A13648   2.008  37.006   8.341
  677POPC   C3A13649   1.912  36.760   8.037
  677POPC   C4A13650   1.746  36.847   7.657
  677POPC   C1B13651   2.408  36.690   8.831
  677POPC   C2B13652   2.270  36.577   8.405
  677POPC   C3B13653   2.419  36.646   8.005
  677POPC   C4B13654   2.255  36.942   7.694
  678POPC   NC313655   7.895  23.817   9.489
  678POPC   PO413656   7.341  23.838   9.666
  678POPC   GL113657   7.347  23.556   9.284
  678POPC   GL213658   7.685  23.491   9.148
  678POPC   C1A13659   7.226  23.532   8.837
  678POPC   D2A13660   7.342  23.630   8.403
  678POPC   C3A13661   7.082  23.665   8.008
  678POPC   C4A13662   7.037  23.466   7.596
  678POPC   C1B13663   7.700  23.846   8.876
  678POPC   C2B13664   7.702  24.002   8.458
  678POPC   C3B13665   7.564  23.923   8.041
  678POPC   C4B13666   7.792  23.910   7.655
  679POPC   NC313667  32.590   6.998   9.443
  679POPC   PO413668  31.882   7.018   9.435
  679POPC   GL113669  32.195   7.264   9.151
  679POPC   GL213670  32.325   7.616   9.171
  679POPC   C1A13671  32.170   7.396   8.747
  679POPC   D2A13672  32.336   7.318   8.367
  679POPC   C3A13673  31.992   7.392   8.087
  679POPC   C4A13674  32.012   7.439   7.655
  679POPC   C1B13675  32.544   7.819   8.812
  679POPC   C2B13676  32.665   7.918   8.375
  679POPC   C3B13677  32.455   7.698   8.005
  679POPC   C4B13678  32.535   7.578   7.557
  680POPC   NC313679  40.840   9.199   9.584
  680POPC   PO413680  40.359   8.828   9.736
  680POPC   GL113681  40.496   8.933   9.252
  680POPC   GL213682  40.677   9.264   9.105
  680POPC   C1A13683  40.603   8.884   8.783
  680POPC   D2A13684  40.852   9.117   8.457
  680POPC   C3A13685  40.696   9.136   8.018
  680POPC   C4A13686  40.700   9.157   7.556
  680POPC   C1B13687  41.023   9.502   8.865
  680POPC   C2B13688  41.271   9.563   8.467
  680POPC   C3B13689  41.143   9.390   8.054
  680POPC   C4B13690  41.292   9.101   7.721
  681POPC   NC313691  13.371  19.127   9.491
  681POPC   PO413692  13.924  18.785   9.518
  681POPC   GL113693  13.794  18.862   9.100
  681POPC   GL213694  13.427  18.833   9.076
  681POPC   C1A13695  13.719  18.972   8.653
  681POPC   D2A13696  13.697  19.280   8.317
  681POPC   C3A13697  13.982  19.236   7.955
  681POPC   C4A13698  14.169  18.944   7.671
  681POPC   C1B13699  13.303  19.233   8.842
  681POPC   C2B13700  13.224  19.479   8.471
  681POPC   C3B13701  13.229  19.276   8.087
  681POPC   C4B13702  13.508  19.038   7.902
  682POPC   NC313703  22.746  29.588   9.525
  682POPC   PO413704  22.917  30.139   9.899
  682POPC   GL113705  22.820  30.084   9.399
  682POPC   GL213706  23.074  29.873   9.221
  682POPC   C1A13707  22.653  29.849   8.943
  682POPC   D2A13708  22.916  29.827   8.553
  682POPC   C3A13709  22.851  30.025   8.145
  682POPC   C4A13710  23.001  29.926   7.754
  682POPC   C1B13711  22.974  30.235   8.900
  682POPC   C2B13712  23.154  30.387   8.523
  682POPC   C3B13713  23.229  30.400   8.094
  682POPC   C4B13714  23.042  30.419   7.726
  683POPC   NC313715  22.909  11.143   9.311
  683POPC   PO413716  23.259  11.639   9.230
  683POPC   GL113717  23.197  11.363   8.946
  683POPC   GL213718  23.340  11.058   9.066
  683POPC   C1A13719  22.989  11.361   8.574
  683POPC   D2A13720  22.986  11.516   8.191
  683POPC   C3A13721  22.822  11.221   7.905
  683POPC   C4A13722  22.818  11.147   7.469
  683POPC   C1B13723  23.402  11.017   8.630
  683POPC   C2B13724  23.221  11.004   8.226
  683POPC   C3B13725  23.317  11.256   7.868
  683POPC   C4B13726  23.312  11.127   7.420
  684POPC   NC313727  43.352  38.664   9.585
  684POPC   PO413728  42.766  38.263   9.697
  684POPC   GL113729  43.024  38.360   9.337
  684POPC   GL213730  42.910  38.702   9.239
  684POPC   C1A13731  43.162  38.437   8.878
  684POPC   D2A13732  43.145  38.722   8.466
  684POPC   C3A13733  43.171  38.528   8.055
  684POPC   C4A13734  43.220  38.293   7.657
  684POPC   C1B13735  42.910  38.963   8.860
  684POPC   C2B13736  42.715  39.015   8.444
  684POPC   C3B13737  42.906  38.978   8.036
  684POPC   C4B13738  43.047  38.779   7.636
  685POPC   NC313739   9.515   7.582   9.442
  685POPC   PO413740  10.139   7.436   9.297
  685POPC   GL113741   9.786   7.393   9.044
  685POPC   GL213742   9.568   7.098   9.165
  685POPC   C1A13743   9.789   7.457   8.614
  685POPC   D2A13744   9.506   7.555   8.318
  685POPC   C3A13745   9.438   7.365   7.920
  685POPC   C4A13746   9.594   7.357   7.504
  685POPC   C1B13747   9.717   6.958   8.745
  685POPC   C2B13748   9.687   7.056   8.288
  685POPC   C3B13749   9.799   7.004   7.822
  685POPC   C4B13750  10.000   7.024   7.394
  686POPC   NC313751  41.470  30.384   9.373
  686POPC   PO413752  41.723  30.929   9.557
  686POPC   GL113753  41.691  30.805   9.155
  686POPC   GL213754  41.772  30.488   8.974
  686POPC   C1A13755  41.382  30.802   8.826
  686POPC   D2A13756  41.490  30.953   8.452
  686POPC   C3A13757  41.245  30.928   8.076
  686POPC   C4A13758  41.439  31.078   7.714
  686POPC   C1B13759  41.429  30.307   8.721
  686POPC   C2B13760  41.283  30.482   8.364
  686POPC   C3B13761  41.565  30.539   8.051
  686POPC   C4B13762  41.425  30.572   7.648
  687POPC   NC313763   7.613  18.495   9.441
  687POPC   PO413764   7.728  19.017   9.303
  687POPC   GL113765   7.444  18.751   9.002
  687POPC   GL213766   7.235  18.435   9.089
  687POPC   C1A13767   7.362  18.536   8.594
  687POPC   D2A13768   7.409  18.231   8.250
  687POPC   C3A13769   7.597  18.390   7.864
  687POPC   C4A13770   7.667  18.352   7.408
  687POPC   C1B13771   6.956  18.273   8.744
  687POPC   C2B13772   6.932  18.428   8.290
  687POPC   C3B13773   7.080  18.359   7.838
  687POPC   C4B13774   7.025  18.292   7.367
  688POPC   NC313775   6.623  41.489   9.718
  688POPC   PO413776   7.147  41.463   9.333
  688POPC   GL113777   6.720  41.408   9.152
  688POPC   GL213778   6.896  41.226   8.951
  688POPC   C1A13779   6.538  41.415   8.689
  688POPC   D2A13780   6.574  41.640   8.316
  688POPC   C3A13781   6.673  41.358   7.969
  688POPC   C4A13782   6.466  41.312   7.579
  688POPC   C1B13783   7.028  41.580   8.656
  688POPC   C2B13784   7.088  41.678   8.204
  688POPC   C3B13785   7.100  41.958   7.836
  688POPC   C4B13786   7.221  41.907   7.403
  689POPC   NC313787   1.467  32.816   9.244
  689POPC   PO413788   1.943  32.997   9.693
  689POPC   GL113789   2.014  33.131   9.244
  689POPC   GL213790   1.706  33.294   9.252
  689POPC   C1A13791   2.215  33.064   8.797
  689POPC   D2A13792   2.064  32.981   8.346
  689POPC   C3A13793   2.263  32.960   7.931
  689POPC   C4A13794   2.017  32.745   7.574
  689POPC   C1B13795   1.750  33.284   8.793
  689POPC   C2B13796   1.592  33.186   8.352
  689POPC   C3B13797   1.764  33.066   7.924
  689POPC   C4B13798   1.940  33.342   7.610
  690POPC   NC313799  32.425  21.293   9.516
  690POPC   PO413800  31.842  21.576   9.668
  690POPC   GL113801  32.068  21.516   9.234
  690POPC   GL213802  32.165  21.109   9.137
  690POPC   C1A13803  32.098  21.454   8.786
  690POPC   D2A13804  32.276  21.662   8.446
  690POPC   C3A13805  32.111  21.488   8.060
  690POPC   C4A13806  32.231  21.453   7.635
  690POPC   C1B13807  32.534  21.156   8.855
  690POPC   C2B13808  32.539  21.228   8.418
  690POPC   C3B13809  32.587  21.302   7.996
  690POPC   C4B13810  32.734  21.138   7.613
  691POPC   NC313811   0.712  34.597   9.506
  691POPC   PO413812   0.568  33.938   9.395
  691POPC   GL113813   0.335  34.322   9.224
  691POPC   GL213814   0.312  34.712   9.175
  691POPC   C1A13815   0.436  34.432   8.786
  691POPC   D2A13816   0.536  34.578   8.400
  691POPC   C3A13817   0.620  34.283   8.107
  691POPC   C4A13818   0.499  34.348   7.712
  691POPC   C1B13819   0.293  34.931   8.724
  691POPC   C2B13820   0.490  35.079   8.303
  691POPC   C3B13821   0.620  34.813   7.924
  691POPC   C4B13822   0.310  34.785   7.571
  692POPC   NC313823  27.220  19.827   9.733
  692POPC   PO413824  26.622  20.079   9.707
  692POPC   GL113825  26.833  20.073   9.256
  692POPC   GL213826  26.961  19.745   9.168
  692POPC   C1A13827  26.932  20.033   8.770
  692POPC   D2A13828  26.674  19.843   8.460
  692POPC   C3A13829  26.799  20.007   8.067
  692POPC   C4A13830  26.984  20.018   7.667
  692POPC   C1B13831  27.008  19.518   8.756
  692POPC   C2B13832  26.870  19.336   8.343
  692POPC   C3B13833  26.596  19.545   8.037
  692POPC   C4B13834  26.642  19.664   7.598
  693POPC   NC313835  27.834  23.115   9.416
  693POPC   PO413836  27.229  22.823   9.409
  693POPC   GL113837  27.526  22.683   9.101
  693POPC   GL213838  27.860  22.598   9.259
  693POPC   C1A13839  27.542  22.860   8.659
  693POPC   D2A13840  27.721  23.106   8.276
  693POPC   C3A13841  27.506  23.085   7.854
  693POPC   C4A13842  27.397  23.074   7.412
  693POPC   C1B13843  28.000  22.734   8.850
  693POPC   C2B13844  27.922  22.632   8.404
  693POPC   C3B13845  27.932  22.727   7.953
  693POPC   C4B13846  27.711  22.655   7.539
  694POPC   NC313847  16.012   6.111   9.585
  694POPC   PO413848  15.690   5.566   9.635
  694POPC   GL113849  15.778   5.806   9.256
  694POPC   GL213850  16.120   5.766   9.191
  694POPC   C1A13851  15.819   5.750   8.812
  694POPC   D2A13852  15.761   6.044   8.486
  694POPC   C3A13853  15.913   5.822   8.148
  694POPC   C4A13854  15.707   5.756   7.768
  694POPC   C1B13855  16.309   5.528   8.875
  694POPC   C2B13856  16.427   5.589   8.456
  694POPC   C3B13857  16.469   5.500   8.019
  694POPC   C4B13858  16.223   5.765   7.744
  695POPC   NC313859  16.856  24.022   9.529
  695POPC   PO413860  16.490  23.394   9.620
  695POPC   GL113861  16.541  23.702   9.273
  695POPC   GL213862  16.868  23.788   9.076
  695POPC   C1A13863  16.434  23.712   8.836
  695POPC   D2A13864  16.702  23.818   8.468
  695POPC   C3A13865  16.546  23.713   8.045
  695POPC   C4A13866  16.522  23.948   7.658
  695POPC   C1B13867  17.045  24.104   8.766
  695POPC   C2B13868  17.125  24.066   8.315
  695POPC   C3B13869  17.024  23.859   7.926
  695POPC   C4B13870  17.009  24.042   7.525
  696POPC   NC313871   6.978   9.177   9.579
  696POPC   PO413872   6.500   8.781   9.425
  696POPC   GL113873   6.435   9.109   9.102
  696POPC   GL213874   6.765   9.101   9.126
  696POPC   C1A13875   6.559   9.319   8.717
  696POPC   D2A13876   6.760   9.196   8.350
  696POPC   C3A13877   6.628   9.364   7.980
  696POPC   C4A13878   6.421   8.979   7.786
  696POPC   C1B13879   7.038   9.178   8.794
  696POPC   C2B13880   7.307   9.198   8.435
  696POPC   C3B13881   7.171   9.304   8.031
  696POPC   C4B13882   6.935   9.081   7.721
  697POPC   NC313883  26.511   9.558   9.366
  697POPC   PO413884  27.067   9.349   9.608
  697POPC   GL113885  26.932   9.514   9.125
  697POPC   GL213886  27.085   9.804   8.974
  697POPC   C1A13887  26.704   9.566   8.713
  697POPC   D2A13888  26.868   9.592   8.267
  697POPC   C3A13889  26.576   9.608   7.893
  697POPC   C4A13890  26.402   9.902   7.590
  697POPC   C1B13891  26.936  10.011   8.602
  697POPC   C2B13892  26.830  10.097   8.175
  697POPC   C3B13893  26.946   9.933   7.777
  697POPC   C4B13894  26.960  10.049   7.361
  698POPC   NC313895  25.154  23.096   9.456
  698POPC   PO413896  25.100  22.506   9.522
  698POPC   GL113897  25.233  22.705   9.109
  698POPC   GL213898  25.187  23.041   8.972
  698POPC   C1A13899  25.422  22.684   8.687
  698POPC   D2A13900  25.633  22.499   8.309
  698POPC   C3A13901  25.409  22.656   7.957
  698POPC   C4A13902  25.070  22.715   7.660
  698POPC   C1B13903  24.961  23.198   8.680
  698POPC   C2B13904  24.993  23.014   8.277
  698POPC   C3B13905  24.859  23.151   7.875
  698POPC   C4B13906  24.973  23.214   7.430
  699POPC   NC313907  23.021  14.076   9.503
  699POPC   PO413908  22.547  14.522   9.625
  699POPC   GL113909  22.868  14.580   9.252
  699POPC   GL213910  23.123  14.335   9.079
  699POPC   C1A13911  22.793  14.614   8.791
  699POPC   D2A13912  22.695  14.427   8.381
  699POPC   C3A13913  22.940  14.396   8.049
  699POPC   C4A13914  22.810  14.449   7.647
  699POPC   C1B13915  22.970  14.130   8.689
  699POPC   C2B13916  22.990  13.927   8.263
  699POPC   C3B13917  22.981  13.951   7.795
  699POPC   C4B13918  23.098  14.096   7.380
  700POPC   NC313919  36.490   1.662   9.567
  700POPC   PO413920  35.979   2.126   9.389
  700POPC   GL113921  36.183   1.898   9.084
  700POPC   GL213922  36.014   1.604   9.193
  700POPC   C1A13923  36.146   1.924   8.620
  700POPC   D2A13924  35.840   1.764   8.314
  700POPC   C3A13925  35.912   1.790   7.885
  700POPC   C4A13926  36.240   2.062   7.748
  700POPC   C1B13927  36.165   1.451   8.830
  700POPC   C2B13928  36.369   1.459   8.459
  700POPC   C3B13929  36.345   1.694   8.117
  700POPC   C4B13930  36.438   1.595   7.698
  701POPC   NC313931  18.300  33.150   9.511
  701POPC   PO413932  18.662  32.730   9.147
  701POPC   GL113933  18.454  33.104   9.036
  701POPC   GL213934  18.074  33.064   9.073
  701POPC   C1A13935  18.513  33.180   8.655
  701POPC   D2A13936  18.463  32.927   8.352
  701POPC   C3A13937  18.350  33.112   7.969
  701POPC   C4A13938  18.445  33.010   7.536
  701POPC   C1B13939  18.040  32.961   8.657
  701POPC   C2B13940  17.889  33.165   8.279
  701POPC   C3B13941  17.852  32.977   7.854
  701POPC   C4B13942  17.966  33.150   7.437
  702POPC   NC313943  17.077   2.005   9.421
  702POPC   PO413944  16.451   1.806   9.481
  702POPC   GL113945  16.654   2.013   9.134
  702POPC   GL213946  16.801   2.357   9.145
  702POPC   C1A13947  16.840   1.803   8.787
  702POPC   D2A13948  16.876   1.502   8.452
  702POPC   C3A13949  16.985   1.773   8.113
  702POPC   C4A13950  16.881   1.898   7.707
  702POPC   C1B13951  16.599   2.350   8.722
  702POPC   C2B13952  16.729   2.239   8.285
  702POPC   C3B13953  16.575   2.272   7.864
  702POPC   C4B13954  16.852   2.336   7.459
  703POPC   NC313955  38.646  38.870   9.464
  703POPC   PO413956  38.285  38.423   9.738
  703POPC   GL113957  38.287  38.570   9.249
  703POPC   GL213958  38.567  38.680   9.010
  703POPC   C1A13959  38.210  38.414   8.807
  703POPC   D2A13960  38.360  38.512   8.416
  703POPC   C3A13961  38.128  38.591   8.052
  703POPC   C4A13962  38.260  38.437   7.653
  703POPC   C1B13963  38.716  38.309   8.772
  703POPC   C2B13964  38.801  38.272   8.355
  703POPC   C3B13965  38.715  38.422   7.962
  703POPC   C4B13966  38.700  38.135   7.656
  704POPC   NC313967  23.017  11.619   9.617
  704POPC   PO413968  22.906  12.302   9.478
  704POPC   GL113969  22.991  12.044   9.112
  704POPC   GL213970  22.784  11.685   9.118
  704POPC   C1A13971  22.858  11.951   8.693
  704POPC   D2A13972  22.794  12.129   8.295
  704POPC   C3A13973  23.114  12.280   8.047
  704POPC   C4A13974  22.977  12.174   7.671
  704POPC   C1B13975  22.542  11.565   8.771
  704POPC   C2B13976  22.444  11.757   8.379
  704POPC   C3B13977  22.566  11.664   7.954
  704POPC   C4B13978  22.932  11.669   7.699
  705POPC   NC313979  15.301   5.313   9.623
  705POPC   PO413980  14.842   4.862   9.740
  705POPC   GL113981  14.966   4.957   9.253
  705POPC   GL213982  15.241   5.185   9.129
  705POPC   C1A13983  15.065   4.846   8.785
  705POPC   D2A13984  15.256   5.101   8.470
  705POPC   C3A13985  15.220   4.940   8.077
  705POPC   C4A13986  14.930   4.993   7.777
  705POPC   C1B13987  15.345   5.493   8.821
  705POPC   C2B13988  15.584   5.509   8.454
  705POPC   C3B13989  15.654   5.360   8.090
  705POPC   C4B13990  15.419   5.294   7.755
  706POPC   NC313991  42.431  35.489   9.511
  706POPC   PO413992  41.934  35.065   9.327
  706POPC   GL113993  42.271  35.256   9.085
  706POPC   GL213994  42.288  35.626   9.048
  706POPC   C1A13995  42.518  35.307   8.715
  706POPC   D2A13996  42.259  35.247   8.374
  706POPC   C3A13997  42.428  35.366   8.008
  706POPC   C4A13998  42.313  35.280   7.615
  706POPC   C1B13999  42.198  35.726   8.636
  706POPC   C2B14000  41.956  35.625   8.269
  706POPC   C3B14001  41.983  35.628   7.821
  706POPC   C4B14002  42.049  35.604   7.360
  707POPC   NC314003  11.010   4.565   9.469
  707POPC   PO414004  11.517   4.046   9.523
  707POPC   GL114005  11.364   4.290   9.207
  707POPC   GL214006  11.623   4.546   9.214
  707POPC   C1A14007  11.140   4.297   8.800
  707POPC   D2A14008  11.035   4.388   8.362
  707POPC   C3A14009  11.111   4.132   8.019
  707POPC   C4A14010  11.258   4.232   7.619
  707POPC   C1B14011  11.650   4.349   8.789
  707POPC   C2B14012  11.487   4.104   8.444
  707POPC   C3B14013  11.615   4.196   8.026
  707POPC   C4B14014  11.829   4.510   7.795
  708POPC   NC314015  12.343  43.330   9.464
  708POPC   PO414016  11.894  42.807   9.589
  708POPC   GL114017  12.090  42.930   9.173
  708POPC   GL214018  11.984  43.288   9.102
  708POPC   C1A14019  11.937  42.961   8.707
  708POPC   D2A14020  11.797  42.779   8.312
  708POPC   C3A14021  12.116  42.884   7.978
  708POPC   C4A14022  12.070  43.241   7.692
  708POPC   C1B14023  12.344  43.271   8.803
  708POPC   C2B14024  12.298  43.204   8.370
  708POPC   C3B14025  12.464  43.367   8.004
  708POPC   C4B14026  12.544  43.108   7.658
  709POPC   NC314027  20.432  18.812   9.578
  709POPC   PO414028  21.055  18.908   9.467
  709POPC   GL114029  20.733  19.157   9.208
  709POPC   GL214030  20.395  19.091   9.128
  709POPC   C1A14031  20.696  19.199   8.737
  709POPC   D2A14032  20.876  18.898   8.441
  709POPC   C3A14033  20.630  18.943   8.092
  709POPC   C4A14034  20.570  19.002   7.667
  709POPC   C1B14035  20.192  19.250   8.731
  709POPC   C2B14036  20.361  19.437   8.365
  709POPC   C3B14037  20.488  19.442   7.929
  709POPC   C4B14038  20.185  19.333   7.603
  710POPC   NC314039  43.108   0.880   9.710
  710POPC   PO414040  43.298   1.582   9.634
  710POPC   GL114041  43.133   1.405   9.262
  710POPC   GL214042  43.430   1.516   9.131
  710POPC   C1A14043  42.969   1.339   8.825
  710POPC   D2A14044  42.905   1.158   8.389
  710POPC   C3A14045  42.888   1.446   8.014
  710POPC   C4A14046  43.066   1.352   7.621
  710POPC   C1B14047  43.416   1.605   8.734
  710POPC   C2B14048  43.243   1.565   8.355
  710POPC   C3B14049  43.414   1.576   7.935
  710POPC   C4B14050  43.405   1.693   7.476
  711POPC   NC314051  25.042   7.279   9.555
  711POPC   PO414052  25.463   7.760   9.701
  711POPC   GL114053  25.317   7.638   9.214
  711POPC   GL214054  25.041   7.412   9.083
  711POPC   C1A14055  25.191   7.695   8.717
  711POPC   D2A14056  25.409   7.840   8.347
  711POPC   C3A14057  25.285   7.691   7.959
  711POPC   C4A14058  25.389   7.294   7.784
  711POPC   C1B14059  24.912   7.271   8.705
  711POPC   C2B14060  25.047   7.274   8.261
  711POPC   C3B14061  24.872   7.406   7.863
  711POPC   C4B14062  24.930   7.426   7.412
  712POPC   NC314063  20.017  15.879   9.437
  712POPC   PO414064  19.463  15.538   9.414
  712POPC   GL114065  19.674  15.826   9.078
  712POPC   GL214066  20.017  15.785   8.926
  712POPC   C1A14067  19.604  16.009   8.661
  712POPC   D2A14068  19.770  16.052   8.234
  712POPC   C3A14069  19.518  15.775   7.952
  712POPC   C4A14070  19.650  15.407   7.737
  712POPC   C1B14071  20.126  16.165   8.661
  712POPC   C2B14072  20.323  16.253   8.285
  712POPC   C3B14073  20.131  16.196   7.905
  712POPC   C4B14074  19.988  15.792   7.753
  713POPC   NC314075  38.604  44.390   9.494
  713POPC   PO414076  38.730   0.008   9.525
  713POPC   GL114077  38.498  44.754   9.141
  713POPC   GL214078  38.401  44.396   9.027
  713POPC   C1A14079  38.565  44.769   8.706
  713POPC   D2A14080  38.833  44.669   8.420
  713POPC   C3A14081  38.682  44.803   8.042
  713POPC   C4A14082  38.433   0.107   7.847
  713POPC   C1B14083  38.143  44.521   8.689
  713POPC   C2B14084  38.282  44.592   8.271
  713POPC   C3B14085  38.239  44.598   7.816
  713POPC   C4B14086  38.135  44.357   7.425
  714POPC   NC314087  21.963  42.685   9.874
  714POPC   PO414088  22.226  42.988   9.341
  714POPC   GL114089  22.126  43.047   8.936
  714POPC   GL214090  21.793  43.056   8.977
  714POPC   C1A14091  22.043  43.126   8.498
  714POPC   D2A14092  22.291  43.075   8.122
  714POPC   C3A14093  22.112  43.174   7.720
  714POPC   C4A14094  22.360  43.093   7.332
  714POPC   C1B14095  21.859  42.684   8.687
  714POPC   C2B14096  21.992  42.681   8.239
  714POPC   C3B14097  21.835  42.661   7.833
  714POPC   C4B14098  21.926  42.788   7.434
  715POPC   NC314099  16.760  10.186   9.580
  715POPC   PO414100  16.499  10.759   9.730
  715POPC   GL114101  16.591  10.636   9.298
  715POPC   GL214102  16.921  10.751   9.171
  715POPC   C1A14103  16.555  10.700   8.828
  715POPC   D2A14104  16.813  10.781   8.451
  715POPC   C3A14105  16.561  10.759   8.088
  715POPC   C4A14106  16.425  10.411   7.843
  715POPC   C1B14107  17.028  10.447   8.812
  715POPC   C2B14108  17.023  10.321   8.343
  715POPC   C3B14109  16.939  10.472   7.897
  715POPC   C4B14110  17.228  10.511   7.537
  716POPC   NC314111   5.928  31.994   9.344
  716POPC   PO414112   5.943  32.655   9.279
  716POPC   GL114113   5.827  32.359   9.010
  716POPC   GL214114   5.515  32.259   9.191
  716POPC   C1A14115   5.757  32.047   8.696
  716POPC   D2A14116   5.543  31.971   8.316
  716POPC   C3A14117   5.833  32.026   7.970
  716POPC   C4A14118   6.077  32.433   7.976
  716POPC   C1B14119   5.400  32.503   8.817
  716POPC   C2B14120   5.596  32.460   8.426
  716POPC   C3B14121   5.532  32.416   8.010
  716POPC   C4B14122   5.724  32.515   7.593
  717POPC   NC314123  24.219  24.250   9.556
  717POPC   PO414124  24.605  24.744   9.442
  717POPC   GL114125  24.462  24.451   9.162
  717POPC   GL214126  24.246  24.697   9.089
  717POPC   C1A14127  24.660  24.304   8.779
  717POPC   D2A14128  24.486  24.303   8.379
  717POPC   C3A14129  24.747  24.317   8.040
  717POPC   C4A14130  24.616  24.494   7.678
  717POPC   C1B14131  24.172  24.470   8.739
  717POPC   C2B14132  24.024  24.558   8.352
  717POPC   C3B14133  24.194  24.538   7.954
  717POPC   C4B14134  24.180  24.659   7.465
  718POPC   NC314135  27.916  21.606   9.517
  718POPC   PO414136  27.262  21.252   9.493
  718POPC   GL114137  27.652  21.250   9.231
  718POPC   GL214138  27.588  21.601   9.132
  718POPC   C1A14139  27.838  21.292   8.800
  718POPC   D2A14140  27.651  21.151   8.401
  718POPC   C3A14141  27.740  21.290   7.968
  718POPC   C4A14142  27.603  21.031   7.689
  718POPC   C1B14143  27.645  21.771   8.716
  718POPC   C2B14144  27.790  21.671   8.286
  718POPC   C3B14145  27.850  21.770   7.821
  718POPC   C4B14146  27.654  21.500   7.466
  719POPC   NC314147   0.773  14.487   9.480
  719POPC   PO414148   0.119  14.263   9.662
  719POPC   GL114149   0.274  14.358   9.221
  719POPC   GL214150   0.520  14.194   9.169
  719POPC   C1A14151   0.410  14.561   8.803
  719POPC   D2A14152   0.196  14.590   8.406
  719POPC   C3A14153   0.420  14.591   8.033
  719POPC   C4A14154   0.539  14.598   7.588
  719POPC   C1B14155   0.304  14.054   8.811
  719POPC   C2B14156   0.526  13.933   8.467
  719POPC   C3B14157   0.439  14.082   8.087
  719POPC   C4B14158   0.482  14.103   7.668
  720POPC   NC314159  14.621  27.268   9.351
  720POPC   PO414160  14.276  26.818   9.525
  720POPC   GL114161  14.436  26.717   9.162
  720POPC   GL214162  14.650  26.474   9.282
  720POPC   C1A14163  14.324  26.819   8.746
  720POPC   D2A14164  14.407  27.015   8.363
  720POPC   C3A14165  14.363  26.718   8.040
  720POPC   C4A14166  14.332  26.939   7.676
  720POPC   C1B14167  14.670  26.420   8.819
  720POPC   C2B14168  14.720  26.605   8.423
  720POPC   C3B14169  14.859  26.494   8.018
  720POPC   C4B14170  14.684  26.576   7.644
  721POPC   NC314171  22.206  10.074   9.489
  721POPC   PO414172  22.034   9.426   9.451
  721POPC   GL114173  21.989   9.752   9.154
  721POPC   GL214174  21.761  10.033   9.247
  721POPC   C1A14175  22.182   9.738   8.759
  721POPC   D2A14176  22.103   9.642   8.311
  721POPC   C3A14177  22.462   9.498   8.044
  721POPC   C4A14178  22.470   9.372   7.602
  721POPC   C1B14179  21.835  10.161   8.816
  721POPC   C2B14180  22.118  10.149   8.471
  721POPC   C3B14181  22.067  10.104   8.056
  721POPC   C4B14182  22.157   9.791   7.741
  722POPC   NC314183  18.194  43.380   9.412
  722POPC   PO414184  18.571  43.941   9.447
  722POPC   GL114185  18.336  43.957   9.094
  722POPC   GL214186  18.089  43.817   9.214
  722POPC   C1A14187  18.425  43.896   8.684
  722POPC   D2A14188  18.244  43.724   8.349
  722POPC   C3A14189  18.409  43.840   7.943
  722POPC   C4A14190  18.539  44.220   7.774
  722POPC   C1B14191  17.946  43.703   8.805
  722POPC   C2B14192  17.760  43.893   8.413
  722POPC   C3B14193  17.896  43.835   7.997
  722POPC   C4B14194  18.001  43.738   7.577
  723POPC   NC314195   5.522  40.213   9.224
  723POPC   PO414196   5.017  39.966   9.683
  723POPC   GL114197   4.897  39.852   9.238
  723POPC   GL214198   5.235  39.784   9.230
  723POPC   C1A14199   5.012  39.946   8.802
  723POPC   D2A14200   5.364  40.055   8.555
  723POPC   C3A14201   5.258  40.167   8.120
  723POPC   C4A14202   4.995  40.331   7.799
  723POPC   C1B14203   5.340  39.572   8.885
  723POPC   C2B14204   5.206  39.568   8.473
  723POPC   C3B14205   5.324  39.680   8.084
  723POPC   C4B14206   5.130  39.809   7.740
  724POPC   NC314207   0.891  10.665   9.597
  724POPC   PO414208   0.190  10.536   9.606
  724POPC   GL114209   0.225  10.551   9.197
  724POPC   GL214210   0.527  10.725   9.236
  724POPC   C1A14211   0.423  10.367   8.836
  724POPC   D2A14212   0.538  10.430   8.398
  724POPC   C3A14213   0.218  10.587   8.105
  724POPC   C4A14214   0.061  10.535   7.705
  724POPC   C1B14215   0.671  10.810   8.838
  724POPC   C2B14216   0.737  10.949   8.433
  724POPC   C3B14217   0.687  10.793   8.053
  724POPC   C4B14218   0.578  10.594   7.695
  725POPC   NC314219  37.534  39.486   9.680
  725POPC   PO414220  36.891  39.217   9.636
  725POPC   GL114221  36.938  39.221   9.222
  725POPC   GL214222  36.663  39.022   9.144
  725POPC   C1A14223  37.134  39.140   8.820
  725POPC   D2A14224  36.986  39.039   8.414
  725POPC   C3A14225  37.207  39.149   8.039
  725POPC   C4A14226  37.162  39.342   7.630
  725POPC   C1B14227  36.668  39.348   8.802
  725POPC   C2B14228  36.791  39.519   8.391
  725POPC   C3B14229  36.752  39.353   7.955
  725POPC   C4B14230  36.500  39.486   7.612
  726POPC   NC314231  12.678   6.147   9.358
  726POPC   PO414232  13.194   6.193   9.736
  726POPC   GL114233  13.103   5.881   9.297
  726POPC   GL214234  12.784   5.653   9.262
  726POPC   C1A14235  13.045   5.764   8.844
  726POPC   D2A14236  13.182   5.857   8.413
  726POPC   C3A14237  12.916   5.949   8.061
  726POPC   C4A14238  12.970   6.037   7.630
  726POPC   C1B14239  12.558   5.526   8.902
  726POPC   C2B14240  12.364   5.685   8.514
  726POPC   C3B14241  12.483   5.663   8.075
  726POPC   C4B14242  12.425   5.764   7.650
  727POPC   NC314243  32.402   9.477   9.543
  727POPC   PO414244  31.837   9.801   9.581
  727POPC   GL114245  32.159   9.870   9.204
  727POPC   GL214246  32.412   9.643   9.075
  727POPC   C1A14247  32.240   9.934   8.710
  727POPC   D2A14248  32.248   9.776   8.250
  727POPC   C3A14249  31.961  10.018   7.954
  727POPC   C4A14250  31.779  10.025   7.523
  727POPC   C1B14251  32.251   9.423   8.698
  727POPC   C2B14252  32.234   9.195   8.321
  727POPC   C3B14253  32.410   9.352   7.946
  727POPC   C4B14254  32.291   9.728   7.712
  728POPC   NC314255  36.282  16.696  10.034
  728POPC   PO414256  35.835  16.772   9.467
  728POPC   GL114257  35.940  16.712   9.079
  728POPC   GL214258  36.144  16.970   9.122
  728POPC   C1A14259  35.889  16.537   8.659
  728POPC   D2A14260  35.559  16.526   8.335
  728POPC   C3A14261  35.832  16.363   7.994
  728POPC   C4A14262  36.128  16.566   7.740
  728POPC   C1B14263  36.352  16.801   8.778
  728POPC   C2B14264  36.410  16.989   8.388
  728POPC   C3B14265  36.315  16.980   7.956
  728POPC   C4B14266  36.210  17.014   7.500
  729POPC   NC314267  21.386  17.584   9.622
  729POPC   PO414268  21.231  17.031   9.574
  729POPC   GL114269  21.265  17.318   9.199
  729POPC   GL214270  21.130  17.695   9.183
  729POPC   C1A14271  21.495  17.497   8.838
  729POPC   D2A14272  21.336  17.689   8.439
  729POPC   C3A14273  21.488  17.603   8.027
  729POPC   C4A14274  21.440  17.341   7.699
  729POPC   C1B14275  20.978  17.530   8.780
  729POPC   C2B14276  20.876  17.429   8.350
  729POPC   C3B14277  20.999  17.383   7.922
  729POPC   C4B14278  20.955  17.278   7.439
  730POPC   NC314279  42.556   5.514   9.434
  730POPC   PO414280  42.712   6.193   9.417
  730POPC   GL114281  42.663   5.887   9.081
  730POPC   GL214282  42.305   5.782   9.063
  730POPC   C1A14283  42.591   5.853   8.618
  730POPC   D2A14284  42.631   5.697   8.181
  730POPC   C3A14285  42.618   6.027   7.858
  730POPC   C4A14286  42.435   6.278   7.506
  730POPC   C1B14287  42.198   5.532   8.672
  730POPC   C2B14288  42.093   5.621   8.207
  730POPC   C3B14289  42.298   5.628   7.791
  730POPC   C4B14290  42.406   5.349   7.454
  731POPC   NC314291  13.931   8.394   9.488
  731POPC   PO414292  13.387   7.952   9.618
  731POPC   GL114293  13.545   8.164   9.260
  731POPC   GL214294  13.457   8.460   9.210
  731POPC   C1A14295  13.737   8.078   8.863
  731POPC   D2A14296  13.560   7.785   8.551
  731POPC   C3A14297  13.567   7.830   8.112
  731POPC   C4A14298  13.553   8.086   7.736
  731POPC   C1B14299  13.349   8.374   8.772
  731POPC   C2B14300  13.597   8.296   8.372
  731POPC   C3B14301  13.525   8.532   7.991
  731POPC   C4B14302  13.404   8.550   7.537
  732POPC   NC314303  24.244  18.244   9.557
  732POPC   PO414304  24.885  18.568   9.518
  732POPC   GL114305  24.627  18.295   9.168
  732POPC   GL214306  24.281  18.381   9.091
  732POPC   C1A14307  24.515  18.203   8.682
  732POPC   D2A14308  24.624  18.297   8.256
  732POPC   C3A14309  24.629  18.132   7.827
  732POPC   C4A14310  24.718  18.261   7.415
  732POPC   C1B14311  24.055  18.424   8.754
  732POPC   C2B14312  24.196  18.533   8.401
  732POPC   C3B14313  24.184  18.366   8.018
  732POPC   C4B14314  24.247  18.380   7.595
  733POPC   NC314315  36.985  24.106   9.499
  733POPC   PO414316  36.962  24.766   9.371
  733POPC   GL114317  36.773  24.641   9.050
  733POPC   GL214318  36.718  24.277   9.094
  733POPC   C1A14319  36.786  24.630   8.636
  733POPC   D2A14320  36.503  24.724   8.329
  733POPC   C3A14321  36.755  24.593   8.009
  733POPC   C4A14322  36.698  24.210   7.791
  733POPC   C1B14323  37.097  24.265   8.820
  733POPC   C2B14324  36.990  24.257   8.362
  733POPC   C3B14325  37.206  24.307   7.991
  733POPC   C4B14326  37.116  24.386   7.571
  734POPC   NC314327  18.822   7.137   9.279
  734POPC   PO414328  18.242   7.365   9.455
  734POPC   GL114329  18.451   7.401   9.055
  734POPC   GL214330  18.732   7.621   9.007
  734POPC   C1A14331  18.426   7.167   8.671
  734POPC   D2A14332  18.221   7.193   8.309
  734POPC   C3A14333  18.365   7.286   7.919
  734POPC   C4A14334  18.134   7.650   7.827
  734POPC   C1B14335  18.583   7.651   8.614
  734POPC   C2B14336  18.440   7.693   8.223
  734POPC   C3B14337  18.653   7.713   7.815
  734POPC   C4B14338  18.699   7.918   7.377
  735POPC   NC314339  33.550  31.616   9.589
  735POPC   PO414340  34.145  31.235   9.488
  735POPC   GL114341  33.887  31.478   9.181
  735POPC   GL214342  34.113  31.768   9.079
  735POPC   C1A14343  33.627  31.366   8.800
  735POPC   D2A14344  33.674  31.134   8.418
  735POPC   C3A14345  33.644  31.394   8.084
  735POPC   C4A14346  33.866  31.326   7.704
  735POPC   C1B14347  33.973  31.720   8.640
  735POPC   C2B14348  34.004  31.771   8.181
  735POPC   C3B14349  34.182  31.726   7.759
  735POPC   C4B14350  33.952  31.701   7.345
  736POPC   NC314351   4.540   7.129   9.522
  736POPC   PO414352   4.750   7.893   9.412
  736POPC   GL114353   4.544   7.607   9.088
  736POPC   GL214354   4.441   7.255   9.040
  736POPC   C1A14355   4.419   7.553   8.640
  736POPC   D2A14356   4.257   7.731   8.256
  736POPC   C3A14357   4.502   7.548   7.935
  736POPC   C4A14358   4.526   7.157   7.767
  736POPC   C1B14359   4.037   7.136   8.807
  736POPC   C2B14360   3.915   6.920   8.428
  736POPC   C3B14361   4.122   7.059   8.066
  736POPC   C4B14362   4.050   7.333   7.702
  737POPC   NC314363  21.178  13.152   9.411
  737POPC   PO414364  21.912  13.152   9.485
  737POPC   GL114365  21.574  12.875   9.250
  737POPC   GL214366  21.536  12.563   9.309
  737POPC   C1A14367  21.277  12.786   8.888
  737POPC   D2A14368  21.157  12.770   8.472
  737POPC   C3A14369  21.353  12.997   8.169
  737POPC   C4A14370  21.285  12.837   7.761
  737POPC   C1B14371  21.671  12.461   8.894
  737POPC   C2B14372  21.641  12.478   8.464
  737POPC   C3B14373  21.546  12.512   8.041
  737POPC   C4B14374  21.723  12.587   7.619
  738POPC   NC314375  42.194  28.095   9.537
  738POPC   PO414376  42.234  28.702   9.493
  738POPC   GL114377  42.149  28.568   9.086
  738POPC   GL214378  42.110  28.190   9.047
  738POPC   C1A14379  42.526  28.640   8.834
  738POPC   D2A14380  42.718  28.443   8.473
  738POPC   C3A14381  42.501  28.400   8.083
  738POPC   C4A14382  42.316  28.115   7.769
  738POPC   C1B14383  42.251  28.272   8.651
  738POPC   C2B14384  42.162  28.626   8.434
  738POPC   C3B14385  41.950  28.661   8.038
  738POPC   C4B14386  42.227  28.629   7.717
  739POPC   NC314387   4.954  32.049   9.535
  739POPC   PO414388   5.282  32.557   9.553
  739POPC   GL114389   4.990  32.475   9.225
  739POPC   GL214390   5.043  32.158   9.052
  739POPC   C1A14391   4.911  32.593   8.804
  739POPC   D2A14392   5.041  32.374   8.438
  739POPC   C3A14393   5.052  32.611   8.064
  739POPC   C4A14394   5.209  32.490   7.646
  739POPC   C1B14395   5.103  31.895   8.722
  739POPC   C2B14396   5.019  31.867   8.319
  739POPC   C3B14397   5.147  32.072   8.000
  739POPC   C4B14398   4.910  32.078   7.701
  740POPC   NC314399  32.896  31.655   9.767
  740POPC   PO414400  33.276  31.312   9.350
  740POPC   GL114401  32.901  31.311   9.214
  740POPC   GL214402  32.875  31.687   9.255
  740POPC   C1A14403  32.941  31.171   8.796
  740POPC   D2A14404  33.194  31.288   8.425
  740POPC   C3A14405  33.202  31.160   7.978
  740POPC   C4A14406  33.372  31.405   7.641
  740POPC   C1B14407  33.054  31.674   8.817
  740POPC   C2B14408  33.062  31.777   8.372
  740POPC   C3B14409  33.038  31.662   7.929
  740POPC   C4B14410  32.734  31.867   7.627
  741POPC   NC314411  24.334  38.207   9.411
  741POPC   PO414412  24.644  38.879   9.463
  741POPC   GL114413  24.635  38.691   9.008
  741POPC   GL214414  24.695  38.337   9.081
  741POPC   C1A14415  24.447  38.415   8.642
  741POPC   D2A14416  24.210  38.546   8.315
  741POPC   C3A14417  24.380  38.641   7.961
  741POPC   C4A14418  24.478  38.325   7.725
  741POPC   C1B14419  24.945  38.421   8.683
  741POPC   C2B14420  24.777  38.375   8.233
  741POPC   C3B14421  24.936  38.166   7.864
  741POPC   C4B14422  24.775  38.049   7.422
  742POPC   NC314423  29.758  17.958   9.397
  742POPC   PO414424  29.784  18.612   9.671
  742POPC   GL114425  29.903  18.456   9.201
  742POPC   GL214426  30.199  18.220   9.185
  742POPC   C1A14427  29.673  18.358   8.756
  742POPC   D2A14428  29.562  18.071   8.364
  742POPC   C3A14429  29.486  18.238   7.979
  742POPC   C4A14430  29.675  18.622   7.947
  742POPC   C1B14431  30.176  18.350   8.742
  742POPC   C2B14432  29.941  18.441   8.331
  742POPC   C3B14433  30.006  18.242   7.914
  742POPC   C4B14434  30.359  18.001   7.853
  743POPC   NC314435  18.196  26.145   9.465
  743POPC   PO414436  17.798  25.617   9.409
  743POPC   GL114437  18.113  25.793   9.090
  743POPC   GL214438  18.499  25.940   9.117
  743POPC   C1A14439  18.191  26.104   8.745
  743POPC   D2A14440  18.277  25.976   8.330
  743POPC   C3A14441  18.077  26.201   7.980
  743POPC   C4A14442  18.022  25.940   7.628
  743POPC   C1B14443  18.598  26.373   8.917
  743POPC   C2B14444  18.688  26.498   8.477
  743POPC   C3B14445  18.576  26.305   8.087
  743POPC   C4B14446  18.489  26.143   7.692
  744POPC   NC314447  15.857  15.640   9.568
  744POPC   PO414448  15.943  15.067   9.366
  744POPC   GL114449  15.963  15.399   9.076
  744POPC   GL214450  16.284  15.484   9.003
  744POPC   C1A14451  15.786  15.400   8.639
  744POPC   D2A14452  15.831  15.074   8.292
  744POPC   C3A14453  15.730  15.218   7.881
  744POPC   C4A14454  15.432  15.529   7.817
  744POPC   C1B14455  16.227  15.169   8.688
  744POPC   C2B14456  16.240  15.382   8.267
  744POPC   C3B14457  16.231  15.372   7.808
  744POPC   C4B14458  16.176  15.202   7.395
  745POPC   NC314459  42.002  40.894   9.497
  745POPC   PO414460  41.342  40.997   9.427
  745POPC   GL114461  41.588  40.804   9.116
  745POPC   GL214462  41.866  40.581   9.104
  745POPC   C1A14463  41.500  40.677   8.708
  745POPC   D2A14464  41.592  40.883   8.337
  745POPC   C3A14465  41.296  41.048   8.072
  745POPC   C4A14466  41.394  40.740   7.768
  745POPC   C1B14467  41.990  40.505   8.693
  745POPC   C2B14468  41.794  40.430   8.314
  745POPC   C3B14469  41.663  40.324   7.901
  745POPC   C4B14470  41.227  40.261   7.896
  746POPC   NC314471  11.259  20.353   9.353
  746POPC   PO414472  11.469  19.753   9.374
  746POPC   GL114473  11.306  19.956   8.985
  746POPC   GL214474  10.944  20.162   8.998
  746POPC   C1A14475  11.491  19.776   8.583
  746POPC   D2A14476  11.565  19.440   8.269
  746POPC   C3A14477  11.298  19.619   7.957
  746POPC   C4A14478  11.144  20.064   8.041
  746POPC   C1B14479  11.033  20.051   8.562
  746POPC   C2B14480  10.964  19.638   8.353
  746POPC   C3B14481  10.804  19.544   7.927
  746POPC   C4B14482  10.754  19.965   7.749
  747POPC   NC314483  31.633  33.100   9.560
  747POPC   PO414484  31.515  32.465   9.551
  747POPC   GL114485  31.332  32.786   9.275
  747POPC   GL214486  31.631  32.948   9.073
  747POPC   C1A14487  31.207  32.856   8.831
  747POPC   D2A14488  31.421  32.810   8.428
  747POPC   C3A14489  31.262  32.991   8.043
  747POPC   C4A14490  31.344  33.019   7.558
  747POPC   C1B14491  31.529  33.239   8.686
  747POPC   C2B14492  31.445  33.431   8.250
  747POPC   C3B14493  31.616  33.383   7.809
  747POPC   C4B14494  31.571  33.423   7.324
  748POPC   NC314495  40.804  43.655   9.452
  748POPC   PO414496  40.827  44.340   9.517
  748POPC   GL114497  40.755  44.085   9.153
  748POPC   GL214498  41.060  44.011   8.960
  748POPC   C1A14499  40.505  43.806   8.875
  748POPC   D2A14500  40.544  43.581   8.480
  748POPC   C3A14501  40.664  43.893   8.181
  748POPC   C4A14502  40.601  43.985   7.761
  748POPC   C1B14503  41.013  43.767   8.596
  748POPC   C2B14504  41.021  43.505   8.248
  748POPC   C3B14505  40.970  43.602   7.843
  748POPC   C4B14506  41.120  43.988   7.710
  749POPC   NC314507  27.459  34.340   9.426
  749POPC   PO414508  27.970  34.876   9.382
  749POPC   GL114509  27.617  34.822   9.085
  749POPC   GL214510  27.490  34.480   8.959
  749POPC   C1A14511  27.490  34.862   8.651
  749POPC   D2A14512  27.688  34.596   8.404
  749POPC   C3A14513  27.756  34.752   8.009
  749POPC   C4A14514  27.576  34.694   7.645
  749POPC   C1B14515  27.530  34.080   8.765
  749POPC   C2B14516  27.626  34.029   8.358
  749POPC   C3B14517  27.490  34.307   8.047
  749POPC   C4B14518  27.272  34.278   7.712
  750POPC   NC314519  17.175  27.392   9.479
  750POPC   PO414520  17.828  27.505   9.515
  750POPC   GL114521  17.531  27.684   9.243
  750POPC   GL214522  17.602  28.020   9.156
  750POPC   C1A14523  17.395  27.495   8.834
  750POPC   D2A14524  17.578  27.317   8.463
  750POPC   C3A14525  17.416  27.554   8.119
  750POPC   C4A14526  17.185  27.575   7.731
  750POPC   C1B14527  17.797  27.826   8.831
  750POPC   C2B14528  17.791  27.758   8.426
  750POPC   C3B14529  17.950  27.477   8.114
  750POPC   C4B14530  17.727  27.481   7.705
  751POPC   NC314531  16.963   5.358   9.463
  751POPC   PO414532  16.417   5.847   9.569
  751POPC   GL114533  16.659   5.704   9.225
  751POPC   GL214534  16.872   5.999   9.182
  751POPC   C1A14535  16.869   5.647   8.796
  751POPC   D2A14536  16.916   5.503   8.346
  751POPC   C3A14537  16.960   5.806   8.019
  751POPC   C4A14538  16.720   5.787   7.647
  751POPC   C1B14539  16.533   6.018   8.856
  751POPC   C2B14540  16.696   6.013   8.435
  751POPC   C3B14541  16.495   6.020   8.078
  751POPC   C4B14542  16.481   6.235   7.695
  752POPC   NC314543  31.663   0.786   9.824
  752POPC   PO414544  31.182   0.370   9.537
  752POPC   GL114545  31.348   0.365   9.134
  752POPC   GL214546  31.674   0.410   9.094
  752POPC   C1A14547  31.420   0.258   8.696
  752POPC   D2A14548  31.588   0.519   8.396
  752POPC   C3A14549  31.418   0.358   8.057
  752POPC   C4A14550  31.492   0.255   7.650
  752POPC   C1B14551  31.914   0.701   8.783
  752POPC   C2B14552  32.077   0.663   8.343
  752POPC   C3B14553  31.892   0.531   7.927
  752POPC   C4B14554  31.839   0.554   7.435
  753POPC   NC314555  18.301   0.988   9.558
  753POPC   PO414556  18.410   1.711   9.357
  753POPC   GL114557  18.242   1.342   9.178
  753POPC   GL214558  18.501   1.145   9.087
  753POPC   C1A14559  18.080   1.122   8.818
  753POPC   D2A14560  18.012   1.257   8.416
  753POPC   C3A14561  18.169   1.017   8.086
  753POPC   C4A14562  18.286   1.129   7.690
  753POPC   C1B14563  18.462   1.416   8.692
  753POPC   C2B14564  18.480   1.420   8.246
  753POPC   C3B14565  18.536   1.562   7.833
  753POPC   C4B14566  18.481   1.574   7.413
  754POPC   NC314567  19.587  29.773   9.586
  754POPC   PO414568  19.946  30.335   9.626
  754POPC   GL114569  19.839  30.112   9.247
  754POPC   GL214570  20.173  30.091   9.182
  754POPC   C1A14571  19.876  30.027   8.792
  754POPC   D2A14572  19.651  30.341   8.512
  754POPC   C3A14573  19.516  30.149   8.155
  754POPC   C4A14574  19.802  29.962   7.887
  754POPC   C1B14575  20.280  29.686   8.923
  754POPC   C2B14576  20.374  29.658   8.463
  754POPC   C3B14577  20.158  29.644   8.056
  754POPC   C4B14578  20.037  29.523   7.610
  755POPC   NC314579  36.289  18.556   9.760
  755POPC   PO414580  36.298  17.980   9.322
  755POPC   GL114581  36.309  18.106   8.954
  755POPC   GL214582  35.991  18.269   9.052
  755POPC   C1A14583  36.402  18.319   8.597
  755POPC   D2A14584  36.115  18.186   8.311
  755POPC   C3A14585  36.167  17.882   8.042
  755POPC   C4A14586  36.287  18.083   7.693
  755POPC   C1B14587  35.900  18.424   8.694
  755POPC   C2B14588  35.796  18.608   8.318
  755POPC   C3B14589  36.001  18.520   7.942
  755POPC   C4B14590  35.822  18.330   7.602
  756POPC   NC314591  41.245  26.223   9.542
  756POPC   PO414592  41.865  26.125   9.617
  756POPC   GL114593  41.646  26.160   9.204
  756POPC   GL214594  41.415  25.888   9.188
  756POPC   C1A14595  41.590  26.048   8.755
  756POPC   D2A14596  41.366  26.052   8.416
  756POPC   C3A14597  41.573  25.891   8.109
  756POPC   C4A14598  41.633  26.022   7.707
  756POPC   C1B14599  41.133  25.851   8.838
  756POPC   C2B14600  40.916  25.828   8.472
  756POPC   C3B14601  41.085  25.686   8.078
  756POPC   C4B14602  41.073  25.705   7.620
  757POPC   NC314603  16.992  37.978   9.359
  757POPC   PO414604  16.830  37.373   9.613
  757POPC   GL114605  16.740  37.571   9.171
  757POPC   GL214606  16.416  37.690   9.053
  757POPC   C1A14607  16.794  37.598   8.728
  757POPC   D2A14608  16.881  37.823   8.373
  757POPC   C3A14609  16.760  37.661   8.002
  757POPC   C4A14610  16.868  37.881   7.626
  757POPC   C1B14611  16.333  37.350   8.789
  757POPC   C2B14612  16.519  37.312   8.369
  757POPC   C3B14613  16.326  37.265   7.980
  757POPC   C4B14614  16.393  37.549   7.669
  758POPC   NC314615   0.030  33.204   9.495
  758POPC   PO414616  44.566  32.646   9.546
  758POPC   GL114617  44.433  32.968   9.198
  758POPC   GL214618  44.685  33.213   9.107
  758POPC   C1A14619  44.459  32.855   8.730
  758POPC   D2A14620  44.384  32.991   8.321
  758POPC   C3A14621  44.477  32.765   7.968
  758POPC   C4A14622  44.316  32.507   7.646
  758POPC   C1B14623  44.448  33.354   8.741
  758POPC   C2B14624  44.760  33.295   8.457
  758POPC   C3B14625  44.824  33.151   8.098
  758POPC   C4B14626  44.520  33.279   7.843
  759POPC   NC314627   6.304  23.581   9.463
  759POPC   PO414628   5.594  23.745   9.626
  759POPC   GL114629   5.816  23.705   9.220
  759POPC   GL214630   5.662  23.977   8.996
  759POPC   C1A14631   6.021  23.662   8.829
  759POPC   D2A14632   5.868  23.396   8.516
  759POPC   C3A14633   5.791  23.463   8.081
  759POPC   C4A14634   6.084  23.526   7.753
  759POPC   C1B14635   5.731  23.951   8.537
  759POPC   C2B14636   5.921  23.993   8.119
  759POPC   C3B14637   5.760  24.065   7.700
  759POPC   C4B14638   5.702  24.153   7.247
  760POPC   NC314639  42.364  10.285   9.819
  760POPC   PO414640  42.403  10.883   9.547
  760POPC   GL114641  42.547  10.673   9.179
  760POPC   GL214642  42.203  10.624   9.079
  760POPC   C1A14643  42.574  10.632   8.717
  760POPC   D2A14644  42.391  10.693   8.307
  760POPC   C3A14645  42.019  10.819   8.029
  760POPC   C4A14646  42.115  10.759   7.552
  760POPC   C1B14647  42.149  10.347   8.701
  760POPC   C2B14648  41.999  10.362   8.277
  760POPC   C3B14649  42.246  10.397   7.889
  760POPC   C4B14650  42.428  10.338   7.503
  761POPC   NC314651  19.472  43.926   9.536
  761POPC   PO414652  20.045  43.527   9.519
  761POPC   GL114653  19.950  43.721   9.110
  761POPC   GL214654  19.717  44.013   9.101
  761POPC   C1A14655  19.992  43.940   8.694
  761POPC   D2A14656  19.817  44.094   8.330
  761POPC   C3A14657  19.994  43.939   7.954
  761POPC   C4A14658  20.003  43.640   7.644
  761POPC   C1B14659  19.448  43.981   8.728
  761POPC   C2B14660  19.307  44.146   8.310
  761POPC   C3B14661  19.487  43.948   7.968
  761POPC   C4B14662  19.675  44.035   7.566
  762POPC   NC314663  32.079  43.581   9.414
  762POPC   PO414664  32.360  43.051   9.674
  762POPC   GL114665  32.256  43.131   9.218
  762POPC   GL214666  32.364  43.459   9.022
  762POPC   C1A14667  32.336  42.994   8.785
  762POPC   D2A14668  32.251  42.847   8.374
  762POPC   C3A14669  32.210  43.041   7.975
  762POPC   C4A14670  32.430  43.145   7.585
  762POPC   C1B14671  32.160  43.445   8.616
  762POPC   C2B14672  31.886  43.576   8.306
  762POPC   C3B14673  31.695  43.459   7.916
  762POPC   C4B14674  31.920  43.211   7.593
  763POPC   NC314675  22.636   5.326   9.490
  763POPC   PO414676  22.856   4.746   9.546
  763POPC   GL114677  22.842   4.902   9.124
  763POPC   GL214678  23.024   5.222   9.091
  763POPC   C1A14679  22.767   4.932   8.673
  763POPC   D2A14680  22.984   4.911   8.275
  763POPC   C3A14681  22.756   5.011   7.929
  763POPC   C4A14682  22.843   5.154   7.577
  763POPC   C1B14683  23.229   5.447   8.730
  763POPC   C2B14684  23.307   5.363   8.277
  763POPC   C3B14685  23.287   5.277   7.811
  763POPC   C4B14686  23.228   5.349   7.325
  764POPC   NC314687  13.475  21.581   9.458
  764POPC   PO414688  14.043  21.193   9.457
  764POPC   GL114689  13.791  21.307   9.091
  764POPC   GL214690  13.752  21.672   9.032
  764POPC   C1A14691  13.509  21.122   8.762
  764POPC   D2A14692  13.456  21.005   8.316
  764POPC   C3A14693  13.789  21.208   8.090
  764POPC   C4A14694  13.701  21.510   7.741
  764POPC   C1B14695  13.305  21.617   8.849
  764POPC   C2B14696  13.176  21.437   8.485
  764POPC   C3B14697  13.343  21.490   8.103
  764POPC   C4B14698  13.208  21.690   7.747
  765POPC   NC314699  10.464  20.955   9.428
  765POPC   PO414700   9.941  20.532   9.571
  765POPC   GL114701  10.138  20.577   9.179
  765POPC   GL214702  10.475  20.440   9.101
  765POPC   C1A14703  10.219  20.774   8.785
  765POPC   D2A14704  10.287  20.598   8.395
  765POPC   C3A14705  10.473  20.772   8.044
  765POPC   C4A14706  10.357  20.634   7.639
  765POPC   C1B14707  10.708  20.530   8.698
  765POPC   C2B14708  10.909  20.491   8.272
  765POPC   C3B14709  10.907  20.466   7.802
  765POPC   C4B14710  10.752  20.505   7.370
  766POPC   NC314711  42.707  31.425   9.353
  766POPC   PO414712  43.148  31.767   9.766
  766POPC   GL114713  43.271  31.627   9.290
  766POPC   GL214714  43.128  31.332   9.075
  766POPC   C1A14715  43.349  31.691   8.804
  766POPC   D2A14716  43.142  31.700   8.384
  766POPC   C3A14717  43.266  31.419   8.033
  766POPC   C4A14718  43.130  31.095   7.819
  766POPC   C1B14719  42.860  31.366   8.664
  766POPC   C2B14720  42.773  31.392   8.184
  766POPC   C3B14721  42.855  31.790   7.970
  766POPC   C4B14722  43.246  31.867   7.786
  767POPC   NC314723  15.680  28.697   9.478
  767POPC   PO414724  15.762  28.009   9.687
  767POPC   GL114725  15.774  28.295   9.217
  767POPC   GL214726  16.028  28.462   9.132
  767POPC   C1A14727  15.655  28.264   8.769
  767POPC   D2A14728  15.820  28.459   8.385
  767POPC   C3A14729  16.095  28.237   8.129
  767POPC   C4A14730  15.889  28.170   7.756
  767POPC   C1B14731  16.147  28.671   8.765
  767POPC   C2B14732  16.371  28.631   8.370
  767POPC   C3B14733  16.335  28.696   7.949
  767POPC   C4B14734  15.944  28.695   7.882
  768POPC   NC314735   6.802  30.296   9.197
  768POPC   PO414736   6.524  30.839   9.491
  768POPC   GL114737   6.385  30.734   9.114
  768POPC   GL214738   6.294  30.406   9.081
  768POPC   C1A14739   6.567  30.667   8.716
  768POPC   D2A14740   6.886  30.775   8.453
  768POPC   C3A14741   6.765  30.837   8.040
  768POPC   C4A14742   6.911  30.813   7.628
  768POPC   C1B14743   6.191  30.321   8.673
  768POPC   C2B14744   6.243  30.566   8.295
  768POPC   C3B14745   6.432  30.438   7.912
  768POPC   C4B14746   6.567  30.483   7.488
  769POPC   NC314747  22.029  12.628   9.420
  769POPC   PO414748  22.527  12.942   9.646
  769POPC   GL114749  22.356  12.986   9.202
  769POPC   GL214750  22.025  12.976   9.039
  769POPC   C1A14751  22.391  12.738   8.809
  769POPC   D2A14752  22.109  12.698   8.458
  769POPC   C3A14753  22.258  12.847   8.083
  769POPC   C4A14754  22.254  12.760   7.696
  769POPC   C1B14755  21.752  12.950   8.718
  769POPC   C2B14756  21.808  13.158   8.324
  769POPC   C3B14757  21.800  13.029   7.882
  769POPC   C4B14758  21.927  13.031   7.432
  770POPC   NC314759   5.627  37.327   9.915
  770POPC   PO414760   5.231  37.083   9.384
  770POPC   GL114761   5.043  36.804   9.108
  770POPC   GL214762   4.805  37.068   9.038
  770POPC   C1A14763   5.058  36.766   8.674
  770POPC   D2A14764   4.936  36.595   8.290
  770POPC   C3A14765   5.043  36.966   8.044
  770POPC   C4A14766   5.383  37.034   7.736
  770POPC   C1B14767   4.647  37.340   8.727
  770POPC   C2B14768   4.711  37.287   8.308
  770POPC   C3B14769   4.614  37.209   7.886
  770POPC   C4B14770   4.815  36.978   7.569
  771POPC   NC314771  39.409  38.663   9.521
  771POPC   PO414772  38.772  38.420   9.407
  771POPC   GL114773  39.051  38.593   9.135
  771POPC   GL214774  39.252  38.330   9.011
  771POPC   C1A14775  38.971  38.741   8.689
  771POPC   D2A14776  39.169  38.606   8.308
  771POPC   C3A14777  39.074  38.774   7.923
  771POPC   C4A14778  39.131  38.470   7.634
  771POPC   C1B14779  39.450  38.707   8.820
  771POPC   C2B14780  39.602  38.843   8.392
  771POPC   C3B14781  39.578  38.653   7.957
  771POPC   C4B14782  39.585  38.234   7.765
  772POPC   NC314783  16.980  36.924   9.515
  772POPC   PO414784  16.336  36.824   9.596
  772POPC   GL114785  16.398  36.906   9.127
  772POPC   GL214786  16.723  37.067   9.073
  772POPC   C1A14787  16.496  36.881   8.647
  772POPC   D2A14788  16.846  36.905   8.334
  772POPC   C3A14789  16.794  37.137   7.933
  772POPC   C4A14790  16.634  37.123   7.502
  772POPC   C1B14791  16.919  36.693   8.863
  772POPC   C2B14792  17.173  36.548   8.517
  772POPC   C3B14793  17.031  36.487   8.083
  772POPC   C4B14794  16.830  36.674   7.735
  773POPC   NC314795  38.251  27.284   9.387
  773POPC   PO414796  38.656  27.711   9.524
  773POPC   GL114797  38.627  27.642   9.123
  773POPC   GL214798  38.264  27.629   9.008
  773POPC   C1A14799  38.611  27.872   8.725
  773POPC   D2A14800  38.520  27.697   8.298
  773POPC   C3A14801  38.508  27.938   7.909
  773POPC   C4A14802  38.332  27.866   7.488
  773POPC   C1B14803  38.534  27.348   8.731
  773POPC   C2B14804  38.385  27.179   8.369
  773POPC   C3B14805  38.158  27.400   8.055
  773POPC   C4B14806  38.469  27.446   7.776
  774POPC   NC314807  23.611  14.852   9.582
  774POPC   PO414808  23.485  14.206   9.483
  774POPC   GL114809  23.609  14.505   9.170
  774POPC   GL214810  23.349  14.817   9.144
  774POPC   C1A14811  23.821  14.370   8.766
  774POPC   D2A14812  23.770  14.041   8.414
  774POPC   C3A14813  23.893  14.212   8.000
  774POPC   C4A14814  23.810  14.281   7.619
  774POPC   C1B14815  23.389  14.626   8.721
  774POPC   C2B14816  23.336  14.329   8.389
  774POPC   C3B14817  23.397  14.222   7.952
  774POPC   C4B14818  23.336  14.479   7.595
  775POPC   NC314819  21.980  23.848   9.446
  775POPC   PO414820  22.376  23.332   9.332
  775POPC   GL114821  22.178  23.586   9.056
  775POPC   GL214822  22.263  23.958   9.036
  775POPC   C1A14823  22.278  23.608   8.658
  775POPC   D2A14824  22.195  23.807   8.319
  775POPC   C3A14825  22.034  23.634   7.936
  775POPC   C4A14826  22.348  23.454   7.661
  775POPC   C1B14827  21.938  24.011   8.729
  775POPC   C2B14828  21.827  24.164   8.295
  775POPC   C3B14829  22.150  24.133   7.940
  775POPC   C4B14830  22.209  23.952   7.532
  776POPC   NC314831   7.109  43.835   9.558
  776POPC   PO414832   6.542  43.494   9.458
  776POPC   GL114833   6.597  43.853   9.146
  776POPC   GL214834   6.914  44.015   9.082
  776POPC   C1A14835   6.464  43.967   8.747
  776POPC   D2A14836   6.578  43.705   8.405
  776POPC   C3A14837   6.407  43.722   7.996
  776POPC   C4A14838   6.512  43.353   7.724
  776POPC   C1B14839   6.861  44.271   8.706
  776POPC   C2B14840   6.691  44.169   8.280
  776POPC   C3B14841   6.902  43.910   7.972
  776POPC   C4B14842   7.077  44.039   7.591
  777POPC   NC314843  26.268  26.086   9.433
  777POPC   PO414844  25.585  25.851   9.534
  777POPC   GL114845  25.786  26.046   9.174
  777POPC   GL214846  26.066  25.824   9.055
  777POPC   C1A14847  25.793  26.106   8.720
  777POPC   D2A14848  26.012  25.969   8.322
  777POPC   C3A14849  25.980  26.256   7.981
  777POPC   C4A14850  25.681  26.364   7.686
  777POPC   C1B14851  26.296  26.055   8.731
  777POPC   C2B14852  26.340  26.386   8.383
  777POPC   C3B14853  26.483  26.344   7.938
  777POPC   C4B14854  26.297  25.972   7.710
  778POPC   NC314855  40.612  25.449   9.515
  778POPC   PO414856  41.137  25.027   9.412
  778POPC   GL114857  40.932  25.254   9.070
  778POPC   GL214858  40.796  25.598   9.084
  778POPC   C1A14859  41.063  25.363   8.653
  778POPC   D2A14860  41.148  25.199   8.243
  778POPC   C3A14861  40.898  25.247   7.865
  778POPC   C4A14862  40.928  25.049   7.455
  778POPC   C1B14863  40.570  25.514   8.715
  778POPC   C2B14864  40.643  25.437   8.284
  778POPC   C3B14865  40.470  25.511   7.871
  778POPC   C4B14866  40.650  25.485   7.455
  779POPC   NC314867  14.824   8.583   9.380
  779POPC   PO414868  14.755   9.237   9.479
  779POPC   GL114869  15.050   8.995   9.180
  779POPC   GL214870  15.280   8.664   9.134
  779POPC   C1A14871  15.000   8.906   8.742
  779POPC   D2A14872  15.057   9.275   8.438
  779POPC   C3A14873  14.862   9.210   8.031
  779POPC   C4A14874  14.980   8.919   7.745
  779POPC   C1B14875  15.490   8.817   8.743
  779POPC   C2B14876  15.309   8.826   8.318
  779POPC   C3B14877  15.492   8.735   7.918
  779POPC   C4B14878  15.395   8.840   7.496
  780POPC   NC314879  24.549  15.815   9.649
  780POPC   PO414880  24.234  16.402   9.390
  780POPC   GL114881  24.465  16.066   9.191
  780POPC   GL214882  24.740  15.820   9.159
  780POPC   C1A14883  24.590  16.106   8.768
  780POPC   D2A14884  24.492  16.354   8.413
  780POPC   C3A14885  24.553  16.096   8.061
  780POPC   C4A14886  24.389  15.921   7.639
  780POPC   C1B14887  24.938  15.726   8.762
  780POPC   C2B14888  24.769  15.658   8.368
  780POPC   C3B14889  24.722  15.641   7.931
  780POPC   C4B14890  24.356  15.438   7.777
  781POPC   NC314891  35.870  26.419   9.846
  781POPC   PO414892  36.234  26.949   9.554
  781POPC   GL114893  36.315  26.893   9.112
  781POPC   GL214894  36.289  26.543   9.138
  781POPC   C1A14895  36.078  26.947   8.703
  781POPC   D2A14896  35.978  27.240   8.310
  781POPC   C3A14897  36.157  27.128   7.898
  781POPC   C4A14898  35.943  26.856   7.581
  781POPC   C1B14899  36.562  26.532   8.798
  781POPC   C2B14900  36.625  26.638   8.354
  781POPC   C3B14901  36.368  26.659   7.981
  781POPC   C4B14902  36.198  26.423   7.641
  782POPC   NC314903  15.426   4.224   9.735
  782POPC   PO414904  14.973   4.446   9.283
  782POPC   GL114905  15.047   4.193   8.989
  782POPC   GL214906  14.973   3.928   9.104
  782POPC   C1A14907  15.145   4.235   8.607
  782POPC   D2A14908  15.355   4.561   8.432
  782POPC   C3A14909  15.397   4.456   8.019
  782POPC   C4A14910  15.292   4.663   7.631
  782POPC   C1B14911  14.759   3.843   8.723
  782POPC   C2B14912  14.776   4.035   8.298
  782POPC   C3B14913  14.995   3.987   7.914
  782POPC   C4B14914  15.105   4.206   7.540
  783POPC   NC314915  41.078  34.426   9.526
  783POPC   PO414916  40.481  34.781   9.725
  783POPC   GL114917  40.576  34.745   9.250
  783POPC   GL214918  40.667  34.430   9.040
  783POPC   C1A14919  40.754  34.876   8.825
  783POPC   D2A14920  40.890  34.563   8.512
  783POPC   C3A14921  40.982  34.637   8.090
  783POPC   C4A14922  40.870  34.594   7.668
  783POPC   C1B14923  40.408  34.525   8.672
  783POPC   C2B14924  40.443  34.748   8.274
  783POPC   C3B14925  40.401  34.653   7.840
  783POPC   C4B14926  40.374  34.667   7.379
  784POPC   NC314927  40.709   2.135   9.455
  784POPC   PO414928  41.318   1.787   9.450
  784POPC   GL114929  41.162   1.952   9.084
  784POPC   GL214930  40.824   1.980   8.980
  784POPC   C1A14931  41.138   1.739   8.683
  784POPC   D2A14932  41.136   1.933   8.295
  784POPC   C3A14933  40.841   1.733   8.002
  784POPC   C4A14934  40.830   1.605   7.573
  784POPC   C1B14935  40.635   1.810   8.583
  784POPC   C2B14936  40.242   1.794   8.335
  784POPC   C3B14937  40.334   1.787   7.891
  784POPC   C4B14938  40.615   2.060   7.622
  785POPC   NC314939  42.780   1.758   9.526
  785POPC   PO414940  43.031   2.283   9.868
  785POPC   GL114941  43.165   2.050   9.396
  785POPC   GL214942  43.516   2.014   9.356
  785POPC   C1A14943  43.069   1.923   8.945
  785POPC   D2A14944  42.908   2.145   8.555
  785POPC   C3A14945  42.998   1.950   8.125
  785POPC   C4A14946  42.983   1.907   7.665
  785POPC   C1B14947  43.542   2.095   8.897
  785POPC   C2B14948  43.398   2.075   8.442
  785POPC   C3B14949  43.473   2.076   7.950
  785POPC   C4B14950  43.395   2.190   7.486
  786POPC   NC314951  29.212   3.908   9.564
  786POPC   PO414952  29.566   3.344   9.288
  786POPC   GL114953  29.285   3.501   9.041
  786POPC   GL214954  28.987   3.395   9.209
  786POPC   C1A14955  29.238   3.531   8.605
  786POPC   D2A14956  28.965   3.268   8.322
  786POPC   C3A14957  29.161   3.292   7.933
  786POPC   C4A14958  29.298   3.696   7.702
  786POPC   C1B14959  28.789   3.422   8.803
  786POPC   C2B14960  28.800   3.767   8.476
  786POPC   C3B14961  28.908   3.734   8.056
  786POPC   C4B14962  28.816   3.509   7.654
  787POPC   NC314963  14.826  36.695   9.432
  787POPC   PO414964  14.307  36.993   9.777
  787POPC   GL114965  14.422  36.999   9.287
  787POPC   GL214966  14.737  37.067   9.071
  787POPC   C1A14967  14.299  36.954   8.835
  787POPC   D2A14968  14.249  37.137   8.418
  787POPC   C3A14969  14.353  37.060   7.974
  787POPC   C4A14970  14.073  37.099   7.633
  787POPC   C1B14971  14.784  36.923   8.641
  787POPC   C2B14972  14.722  36.779   8.216
  787POPC   C3B14973  14.754  36.791   7.769
  787POPC   C4B14974  14.526  37.008   7.437
  788POPC   NC314975  12.882  18.032   9.484
  788POPC   PO414976  12.449  18.486   9.599
  788POPC   GL114977  12.791  18.489   9.276
  788POPC   GL214978  13.128  18.468   9.287
  788POPC   C1A14979  12.812  18.453   8.849
  788POPC   D2A14980  12.796  18.403   8.419
  788POPC   C3A14981  12.805  18.670   8.079
  788POPC   C4A14982  12.834  18.435   7.696
  788POPC   C1B14983  13.253  18.248   8.884
  788POPC   C2B14984  13.292  18.212   8.442
  788POPC   C3B14985  13.096  18.133   8.037
  788POPC   C4B14986  13.252  18.181   7.601
  789POPC   NC314987  14.851  28.669   9.313
  789POPC   PO414988  15.434  29.139   9.466
  789POPC   GL114989  15.278  29.296   9.087
  789POPC   GL214990  14.964  29.135   9.136
  789POPC   C1A14991  15.201  29.118   8.683
  789POPC   D2A14992  15.429  29.070   8.332
  789POPC   C3A14993  15.279  29.168   7.927
  789POPC   C4A14994  15.286  29.172   7.503
  789POPC   C1B14995  14.729  28.969   8.752
  789POPC   C2B14996  14.855  29.069   8.306
  789POPC   C3B14997  14.759  29.100   7.872
  789POPC   C4B14998  14.984  28.780   7.651
  790POPC   NC314999   9.909  37.199   9.472
  790POPC   PO415000   9.470  37.154   9.117
  790POPC   GL115001   9.869  37.214   8.962
  790POPC   GL215002   9.916  36.876   9.027
  790POPC   C1A15003   9.872  37.108   8.537
  790POPC   D2A15004   9.549  37.105   8.251
  790POPC   C3A15005   9.790  37.146   7.903
  790POPC   C4A15006   9.714  37.083   7.464
  790POPC   C1B15007   9.987  36.632   8.639
  790POPC   C2B15008   9.853  36.687   8.178
  790POPC   C3B15009   9.799  36.643   7.705
  790POPC   C4B15010   9.903  36.659   7.238
  791POPC   NC315011  25.042  28.671   9.389
  791POPC   PO415012  25.202  29.312   9.520
  791POPC   GL115013  25.447  29.254   9.194
  791POPC   GL215014  25.253  29.001   9.057
  791POPC   C1A15015  25.446  29.453   8.796
  791POPC   D2A15016  25.279  29.447   8.419
  791POPC   C3A15017  25.398  29.115   8.190
  791POPC   C4A15018  25.198  29.119   7.823
  791POPC   C1B15019  25.137  28.991   8.639
  791POPC   C2B15020  24.898  29.123   8.311
  791POPC   C3B15021  24.564  28.987   8.080
  791POPC   C4B15022  24.626  29.150   7.703
  792POPC   NC315023  21.188  30.184   9.585
  792POPC   PO415024  21.372  29.593   9.306
  792POPC   GL115025  21.284  29.968   9.100
  792POPC   GL215026  21.588  30.191   9.219
  792POPC   C1A15027  21.237  29.874   8.644
  792POPC   D2A15028  21.480  29.582   8.413
  792POPC   C3A15029  21.397  29.705   8.014
  792POPC   C4A15030  21.110  30.017   7.893
  792POPC   C1B15031  21.658  30.105   8.776
  792POPC   C2B15032  21.510  30.244   8.336
  792POPC   C3B15033  21.659  30.149   7.902
  792POPC   C4B15034  21.986  30.006   7.614
  793POPC   NC315035   3.938  14.761   9.379
  793POPC   PO415036   3.365  14.494   9.532
  793POPC   GL115037   3.474  14.628   9.131
  793POPC   GL215038   3.326  14.284   9.058
  793POPC   C1A15039   3.615  14.559   8.703
  793POPC   D2A15040   3.443  14.372   8.326
  793POPC   C3A15041   3.623  14.385   7.888
  793POPC   C4A15042   3.980  14.343   7.569
  793POPC   C1B15043   3.052  14.079   8.754
  793POPC   C2B15044   2.891  14.015   8.336
  793POPC   C3B15045   3.122  14.159   7.984
  793POPC   C4B15046   3.166  14.011   7.609
  794POPC   NC315047   6.407   1.543   9.808
  794POPC   PO415048   6.939   1.408   9.537
  794POPC   GL115049   6.730   1.532   9.135
  794POPC   GL215050   6.372   1.568   9.281
  794POPC   C1A15051   6.763   1.530   8.628
  794POPC   D2A15052   6.841   1.250   8.248
  794POPC   C3A15053   6.684   1.224   7.803
  794POPC   C4A15054   6.866   0.977   7.415
  794POPC   C1B15055   6.331   1.341   8.878
  794POPC   C2B15056   6.331   1.243   8.450
  794POPC   C3B15057   6.219   1.195   8.027
  794POPC   C4B15058   6.231   1.454   7.678
  795POPC   NC315059  38.576  24.533   9.656
  795POPC   PO415060  37.994  24.291   9.488
  795POPC   GL115061  38.158  24.474   9.124
  795POPC   GL215062  38.475  24.633   9.161
  795POPC   C1A15063  38.225  24.366   8.715
  795POPC   D2A15064  38.411  24.508   8.324
  795POPC   C3A15065  38.180  24.322   7.973
  795POPC   C4A15066  38.020  23.874   7.947
  795POPC   C1B15067  38.726  24.479   8.787
  795POPC   C2B15068  38.941  24.577   8.401
  795POPC   C3B15069  38.761  24.736   8.021
  795POPC   C4B15070  38.589  24.472   7.716
  796POPC   NC315071  43.673  15.444   9.372
  796POPC   PO415072  44.134  14.877   9.455
  796POPC   GL115073  43.982  15.107   9.081
  796POPC   GL215074  43.621  15.016   9.093
  796POPC   C1A15075  43.876  15.356   8.700
  796POPC   D2A15076  43.650  15.418   8.264
  796POPC   C3A15077  43.931  15.412   7.882
  796POPC   C4A15078  43.922  15.478   7.415
  796POPC   C1B15079  43.764  14.831   8.705
  796POPC   C2B15080  43.870  14.969   8.317
  796POPC   C3B15081  43.653  14.983   7.927
  796POPC   C4B15082  43.687  15.007   7.481
  797POPC   NC315083  11.285   0.569   9.654
  797POPC   PO415084  11.790   0.206   9.328
  797POPC   GL115085  11.321   0.310   9.182
  797POPC   GL215086  11.212   0.666   9.157
  797POPC   C1A15087  11.081   0.303   8.777
  797POPC   D2A15088  11.160   0.112   8.386
  797POPC   C3A15089  11.462   0.214   8.083
  797POPC   C4A15090  11.276   0.351   7.731
  797POPC   C1B15091  11.293   0.775   8.749
  797POPC   C2B15092  11.301   0.642   8.337
  797POPC   C3B15093  11.316   0.805   7.934
  797POPC   C4B15094  11.032   0.782   7.542
  798POPC   NC315095  12.527  10.061   9.395
  798POPC   PO415096  13.185   9.756   9.520
  798POPC   GL115097  12.921   9.614   9.196
  798POPC   GL215098  13.044   9.263   9.125
  798POPC   C1A15099  12.718   9.730   8.798
  798POPC   D2A15100  12.581   9.868   8.410
  798POPC   C3A15101  12.736   9.875   7.994
  798POPC   C4A15102  12.538  10.182   7.752
  798POPC   C1B15103  13.161   9.485   8.754
  798POPC   C2B15104  12.913   9.451   8.362
  798POPC   C3B15105  13.053   9.464   7.937
  798POPC   C4B15106  13.033   9.466   7.483
  799POPC   NC315107  37.786   3.261   9.391
  799POPC   PO415108  37.851   3.789   9.237
  799POPC   GL115109  37.644   3.444   8.950
  799POPC   GL215110  37.354   3.230   9.065
  799POPC   C1A15111  37.793   3.246   8.588
  799POPC   D2A15112  37.812   3.573   8.306
  799POPC   C3A15113  37.804   3.478   7.888
  799POPC   C4A15114  37.683   3.736   7.519
  799POPC   C1B15115  37.293   3.299   8.592
  799POPC   C2B15116  37.443   3.213   8.159
  799POPC   C3B15117  37.293   3.418   7.757
  799POPC   C4B15118  36.894   3.428   7.506
  800POPC   NC315119   9.163  21.570   9.472
  800POPC   PO415120   8.571  21.251   9.260
  800POPC   GL115121   8.917  21.385   9.073
  800POPC   GL215122   9.180  21.167   9.131
  800POPC   C1A15123   9.028  21.621   8.723
  800POPC   D2A15124   8.915  21.408   8.343
  800POPC   C3A15125   9.128  21.501   7.980
  800POPC   C4A15126   8.883  21.468   7.597
  800POPC   C1B15127   9.225  21.143   8.703
  800POPC   C2B15128   9.186  20.942   8.314
  800POPC   C3B15129   9.145  21.001   7.860
  800POPC   C4B15130   9.036  20.992   7.409
  801POPC   NC315131  11.023  23.470   9.515
  801POPC   PO415132  11.517  23.959   9.439
  801POPC   GL115133  11.378  23.625   9.195
  801POPC   GL215134  11.106  23.822   9.117
  801POPC   C1A15135  11.301  23.470   8.783
  801POPC   D2A15136  11.176  23.517   8.351
  801POPC   C3A15137  11.467  23.760   8.057
  801POPC   C4A15138  11.622  23.585   7.656
  801POPC   C1B15139  10.839  23.934   8.794
  801POPC   C2B15140  10.684  24.001   8.396
  801POPC   C3B15141  10.952  23.873   8.061
  801POPC   C4B15142  11.112  23.741   7.668
  802POPC   NC315143  19.946  11.836   9.754
  802POPC   PO415144  19.538  12.254   9.510
  802POPC   GL115145  19.673  12.093   9.120
  802POPC   GL215146  19.960  11.922   9.184
  802POPC   C1A15147  19.764  12.141   8.692
  802POPC   D2A15148  19.546  11.961   8.346
  802POPC   C3A15149  19.661  12.198   8.012
  802POPC   C4A15150  19.623  12.058   7.582
  802POPC   C1B15151  20.198  11.831   8.810
  802POPC   C2B15152  20.379  11.984   8.440
  802POPC   C3B15153  20.167  12.081   8.091
  802POPC   C4B15154  20.269  11.964   7.704
  803POPC   NC315155  36.364  13.231   9.275
  803POPC   PO415156  36.075  13.818   9.400
  803POPC   GL115157  36.184  13.648   9.015
  803POPC   GL215158  36.497  13.691   9.073
  803POPC   C1A15159  36.256  13.616   8.561
  803POPC   D2A15160  36.354  13.345   8.211
  803POPC   C3A15161  36.068  13.371   7.851
  803POPC   C4A15162  36.194  13.410   7.384
  803POPC   C1B15163  36.497  14.016   8.782
  803POPC   C2B15164  36.613  14.003   8.380
  803POPC   C3B15165  36.360  13.841   8.069
  803POPC   C4B15166  36.221  13.817   7.691
  804POPC   NC315167   9.477  22.450   9.583
  804POPC   PO415168   9.594  21.753   9.571
  804POPC   GL115169   9.430  21.930   9.213
  804POPC   GL215170   9.700  22.166   9.154
  804POPC   C1A15171   9.399  21.991   8.775
  804POPC   D2A15172   9.678  21.913   8.430
  804POPC   C3A15173   9.524  21.925   8.015
  804POPC   C4A15174   9.636  22.058   7.589
  804POPC   C1B15175   9.799  22.344   8.724
  804POPC   C2B15176   9.836  22.378   8.279
  804POPC   C3B15177  10.001  22.113   7.965
  804POPC   C4B15178  10.050  22.375   7.631
  805POPC   NC315179  39.231  21.030   9.605
  805POPC   PO415180  39.544  21.639   9.439
  805POPC   GL115181  39.345  21.322   9.192
  805POPC   GL215182  39.441  21.452   8.911
  805POPC   C1A15183  39.011  21.200   8.869
  805POPC   D2A15184  38.966  21.299   8.434
  805POPC   C3A15185  39.225  21.444   8.075
  805POPC   C4A15186  39.642  21.397   7.869
  805POPC   C1B15187  39.159  21.711   8.703
  805POPC   C2B15188  39.200  21.999   8.354
  805POPC   C3B15189  39.258  21.964   7.910
  805POPC   C4B15190  38.884  21.763   7.782
  806POPC   NC315191  11.826  18.138   9.555
  806POPC   PO415192  12.002  18.744   9.395
  806POPC   GL115193  12.019  18.437   9.106
  806POPC   GL215194  12.339  18.448   9.055
  806POPC   C1A15195  12.008  18.505   8.665
  806POPC   D2A15196  11.820  18.346   8.331
  806POPC   C3A15197  11.932  18.530   7.969
  806POPC   C4A15198  11.852  18.442   7.542
  806POPC   C1B15199  12.422  18.184   8.714
  806POPC   C2B15200  12.313  18.177   8.303
  806POPC   C3B15201  12.406  18.354   7.930
  806POPC   C4B15202  12.351  18.291   7.485
  807POPC   NC315203  26.068  13.949   9.393
  807POPC   PO415204  26.085  13.294   9.521
  807POPC   GL115205  26.119  13.496   9.139
  807POPC   GL215206  26.420  13.458   8.971
  807POPC   C1A15207  25.958  13.720   8.784
  807POPC   D2A15208  25.676  13.634   8.445
  807POPC   C3A15209  25.660  13.947   8.134
  807POPC   C4A15210  25.929  13.882   7.800
  807POPC   C1B15211  26.474  13.737   8.646
  807POPC   C2B15212  26.204  13.812   8.271
  807POPC   C3B15213  26.353  13.651   7.879
  807POPC   C4B15214  26.316  13.794   7.455
  808POPC   NC315215  13.357  30.182   9.429
  808POPC   PO415216  13.914  29.763   9.531
  808POPC   GL115217  13.899  29.848   9.140
  808POPC   GL215218  13.539  29.827   9.129
  808POPC   C1A15219  13.834  29.698   8.732
  808POPC   D2A15220  13.698  29.952   8.382
  808POPC   C3A15221  13.771  29.715   8.024
  808POPC   C4A15222  13.880  29.577   7.633
  808POPC   C1B15223  13.344  29.888   8.731
  808POPC   C2B15224  13.187  29.890   8.289
  808POPC   C3B15225  13.283  29.830   7.836
  808POPC   C4B15226  13.415  29.617   7.438
  809POPC   NC315227   6.866  41.866   9.333
  809POPC   PO415228   6.902  42.525   9.210
  809POPC   GL115229   6.903  42.135   8.899
  809POPC   GL215230   6.642  41.861   8.890
  809POPC   C1A15231   6.944  42.111   8.464
  809POPC   D2A15232   6.709  42.425   8.234
  809POPC   C3A15233   6.596  42.251   7.886
  809POPC   C4A15234   6.620  41.842   7.843
  809POPC   C1B15235   6.423  42.063   8.571
  809POPC   C2B15236   6.210  42.029   8.180
  809POPC   C3B15237   6.130  42.122   7.758
  809POPC   C4B15238   6.299  42.325   7.412
  810POPC   NC315239  32.600   4.797   9.564
  810POPC   PO415240  33.219   5.110   9.825
  810POPC   GL115241  33.252   5.152   9.263
  810POPC   GL215242  32.889   5.196   9.230
  810POPC   C1A15243  33.144   5.014   8.805
  810POPC   D2A15244  32.949   5.092   8.385
  810POPC   C3A15245  33.178   5.038   8.025
  810POPC   C4A15246  33.215   4.785   7.649
  810POPC   C1B15247  32.924   5.524   8.892
  810POPC   C2B15248  32.708   5.556   8.486
  810POPC   C3B15249  32.718   5.414   8.050
  810POPC   C4B15250  33.056   5.434   7.730
  811POPC   NC315251  34.883  13.737   9.820
  811POPC   PO415252  34.284  13.611   9.491
  811POPC   GL115253  34.742  13.640   9.276
  811POPC   GL215254  34.897  13.318   9.303
  811POPC   C1A15255  34.909  13.731   8.804
  811POPC   D2A15256  34.725  13.762   8.345
  811POPC   C3A15257  34.795  13.915   7.885
  811POPC   C4A15258  34.659  13.947   7.466
  811POPC   C1B15259  34.858  13.220   8.847
  811POPC   C2B15260  35.012  13.319   8.409
  811POPC   C3B15261  34.840  13.398   7.994
  811POPC   C4B15262  34.471  13.526   7.712
  812POPC   NC315263  37.464  20.878   9.625
  812POPC   PO415264  37.713  20.297   9.297
  812POPC   GL115265  37.745  20.736   9.193
  812POPC   GL215266  37.419  20.929   9.114
  812POPC   C1A15267  37.930  20.915   8.814
  812POPC   D2A15268  37.877  20.926   8.332
  812POPC   C3A15269  37.620  20.728   7.970
  812POPC   C4A15270  37.726  20.517   7.563
  812POPC   C1B15271  37.435  20.870   8.662
  812POPC   C2B15272  37.288  21.016   8.256
  812POPC   C3B15273  37.192  20.992   7.792
  812POPC   C4B15274  37.262  20.767   7.406
  813POPC   NC315275  40.049  43.524  10.024
  813POPC   PO415276  39.676  43.059   9.628
  813POPC   GL115277  39.890  42.956   9.205
  813POPC   GL215278  39.919  42.644   9.034
  813POPC   C1A15279  40.003  43.116   8.764
  813POPC   D2A15280  40.208  43.228   8.339
  813POPC   C3A15281  39.986  43.293   7.944
  813POPC   C4A15282  40.008  42.993   7.619
  813POPC   C1B15283  39.731  42.703   8.598
  813POPC   C2B15284  39.704  43.041   8.338
  813POPC   C3B15285  39.622  42.928   7.973
  813POPC   C4B15286  39.687  42.615   7.709
  814POPC   NC315287   6.303   4.362   9.512
  814POPC   PO415288   5.624   4.346   9.613
  814POPC   GL115289   5.668   4.294   9.152
  814POPC   GL215290   6.009   4.227   9.128
  814POPC   C1A15291   5.752   4.406   8.713
  814POPC   D2A15292   5.615   4.509   8.275
  814POPC   C3A15293   5.714   4.177   7.968
  814POPC   C4A15294   5.876   4.210   7.579
  814POPC   C1B15295   6.292   4.142   8.811
  814POPC   C2B15296   6.425   4.277   8.414
  814POPC   C3B15297   6.249   4.340   7.977
  814POPC   C4B15298   6.323   4.445   7.520
  815POPC   NC315299  39.648  13.812   9.715
  815POPC   PO415300  40.044  13.244   9.712
  815POPC   GL115301  39.999  13.396   9.300
  815POPC   GL215302  40.195  13.166   9.174
  815POPC   C1A15303  39.966  13.580   8.839
  815POPC   D2A15304  40.021  13.526   8.363
  815POPC   C3A15305  39.804  13.795   8.034
  815POPC   C4A15306  39.844  13.843   7.539
  815POPC   C1B15307  40.407  13.350   8.803
  815POPC   C2B15308  40.512  13.293   8.408
  815POPC   C3B15309  40.426  13.321   8.017
  815POPC   C4B15310  40.148  13.522   7.807
  816POPC   NC315311  27.478  33.345   9.431
  816POPC   PO415312  27.771  33.978   9.481
  816POPC   GL115313  27.628  33.771   9.152
  816POPC   GL215314  27.305  33.854   9.234
  816POPC   C1A15315  27.746  33.511   8.802
  816POPC   D2A15316  27.888  33.338   8.409
  816POPC   C3A15317  27.726  33.583   8.072
  816POPC   C4A15318  27.694  33.934   7.787
  816POPC   C1B15319  27.187  33.648   8.855
  816POPC   C2B15320  27.088  33.823   8.453
  816POPC   C3B15321  27.268  33.833   8.061
  816POPC   C4B15322  27.190  33.764   7.661
  817POPC   NC315323  16.861  13.104   9.465
  817POPC   PO415324  16.442  12.573   9.551
  817POPC   GL115325  16.653  12.737   9.194
  817POPC   GL215326  16.952  12.591   9.203
  817POPC   C1A15327  16.836  12.934   8.807
  817POPC   D2A15328  16.868  12.876   8.350
  817POPC   C3A15329  16.612  13.066   8.039
  817POPC   C4A15330  16.626  12.869   7.660
  817POPC   C1B15331  16.879  12.418   8.779
  817POPC   C2B15332  17.019  12.339   8.359
  817POPC   C3B15333  16.833  12.501   7.974
  817POPC   C4B15334  16.878  12.464   7.495
  818POPC   NC315335  24.708  34.429   9.600
  818POPC   PO415336  24.040  34.664   9.557
  818POPC   GL115337  24.296  34.629   9.169
  818POPC   GL215338  24.524  34.319   9.139
  818POPC   C1A15339  24.214  34.467   8.744
  818POPC   D2A15340  23.949  34.407   8.392
  818POPC   C3A15341  24.213  34.290   8.072
  818POPC   C4A15342  24.355  34.547   7.754
  818POPC   C1B15343  24.715  34.579   8.825
  818POPC   C2B15344  24.632  34.540   8.389
  818POPC   C3B15345  24.745  34.336   8.011
  818POPC   C4B15346  24.695  34.191   7.599
  819POPC   NC315347  35.628   7.049   9.423
  819POPC   PO415348  35.191   6.486   9.512
  819POPC   GL115349  35.106   6.633   9.146
  819POPC   GL215350  35.241   6.944   9.115
  819POPC   C1A15351  35.251   6.584   8.750
  819POPC   D2A15352  35.350   6.424   8.360
  819POPC   C3A15353  35.129   6.578   8.007
  819POPC   C4A15354  35.120   6.691   7.609
  819POPC   C1B15355  35.616   6.924   8.767
  819POPC   C2B15356  35.764   6.762   8.352
  819POPC   C3B15357  35.641   6.608   7.958
  819POPC   C4B15358  35.611   6.814   7.562
  820POPC   NC315359  20.969  36.975   9.389
  820POPC   PO415360  20.554  36.479   9.392
  820POPC   GL115361  20.333  36.802   9.167
  820POPC   GL215362  20.603  36.972   9.040
  820POPC   C1A15363  20.317  36.742   8.711
  820POPC   D2A15364  20.261  36.620   8.314
  820POPC   C3A15365  20.420  36.843   7.988
  820POPC   C4A15366  20.453  36.699   7.611
  820POPC   C1B15367  20.681  37.083   8.592
  820POPC   C2B15368  20.850  36.820   8.267
  820POPC   C3B15369  20.922  36.769   7.822
  820POPC   C4B15370  20.793  37.054   7.466
  821POPC   NC315371  29.230   0.436   9.504
  821POPC   PO415372  28.674   0.726   9.593
  821POPC   GL115373  28.892   0.663   9.161
  821POPC   GL215374  28.920   0.309   9.106
  821POPC   C1A15375  28.955   0.577   8.677
  821POPC   D2A15376  29.261   0.437   8.360
  821POPC   C3A15377  29.126   0.451   7.948
  821POPC   C4A15378  29.324   0.690   7.605
  821POPC   C1B15379  28.836   0.071   8.743
  821POPC   C2B15380  28.824   0.141   8.326
  821POPC   C3B15381  28.831  44.930   7.960
  821POPC   C4B15382  29.053   0.087   7.594
  822POPC   NC315383   4.875  38.510   9.563
  822POPC   PO415384   5.508  38.498   9.541
  822POPC   GL115385   5.193  38.424   9.153
  822POPC   GL215386   4.945  38.708   9.103
  822POPC   C1A15387   5.035  38.187   8.756
  822POPC   D2A15388   5.098  38.065   8.316
  822POPC   C3A15389   5.130  38.354   7.976
  822POPC   C4A15390   5.058  38.369   7.532
  822POPC   C1B15391   5.071  38.706   8.684
  822POPC   C2B15392   4.916  38.728   8.269
  822POPC   C3B15393   4.706  38.600   7.877
  822POPC   C4B15394   4.683  38.690   7.402
  823POPC   NC315395  23.428  21.436   9.504
  823POPC   PO415396  22.815  21.310   9.510
  823POPC   GL115397  23.013  21.403   9.130
  823POPC   GL215398  23.317  21.246   9.046
  823POPC   C1A15399  22.979  21.574   8.709
  823POPC   D2A15400  22.628  21.621   8.396
  823POPC   C3A15401  22.830  21.544   8.014
  823POPC   C4A15402  23.303  21.621   8.015
  823POPC   C1B15403  23.049  21.049   8.754
  823POPC   C2B15404  22.904  21.147   8.364
  823POPC   C3B15405  22.954  21.030   7.957
  823POPC   C4B15406  23.123  21.261   7.667
  824POPC   NC315407  12.488   2.682   9.431
  824POPC   PO415408  12.075   3.224   9.408
  824POPC   GL115409  12.169   2.914   9.108
  824POPC   GL215410  12.523   3.013   9.064
  824POPC   C1A15411  12.093   2.614   8.754
  824POPC   D2A15412  11.756   2.464   8.497
  824POPC   C3A15413  11.931   2.530   8.095
  824POPC   C4A15414  11.863   2.877   7.805
  824POPC   C1B15415  12.550   2.812   8.699
  824POPC   C2B15416  12.286   2.865   8.315
  824POPC   C3B15417  12.336   2.767   7.902
  824POPC   C4B15418  12.289   2.901   7.465
  825POPC   NC315419  40.520  37.504   9.362
  825POPC   PO415420  41.186  37.294   9.538
  825POPC   GL115421  41.060  37.558   9.181
  825POPC   GL215422  40.821  37.861   9.194
  825POPC   C1A15423  40.864  37.520   8.779
  825POPC   D2A15424  40.477  37.558   8.537
  825POPC   C3A15425  40.546  37.611   8.096
  825POPC   C4A15426  40.797  37.463   7.750
  825POPC   C1B15427  40.620  37.984   8.802
  825POPC   C2B15428  40.805  38.099   8.426
  825POPC   C3B15429  40.977  38.187   8.045
  825POPC   C4B15430  40.902  37.958   7.671
  826POPC   NC315431  22.701  41.020   9.498
  826POPC   PO415432  23.265  40.690   9.626
  826POPC   GL115433  23.036  40.776   9.232
  826POPC   GL215434  23.087  40.544   9.055
  826POPC   C1A15435  22.726  40.801   8.835
  826POPC   D2A15436  22.633  40.937   8.390
  826POPC   C3A15437  22.800  40.752   7.954
  826POPC   C4A15438  22.831  40.700   7.446
  826POPC   C1B15439  23.240  40.763   8.726
  826POPC   C2B15440  23.439  40.667   8.361
  826POPC   C3B15441  23.316  40.793   7.997
  826POPC   C4B15442  23.290  40.650   7.636
  827POPC   NC315443  12.192  13.043   9.591
  827POPC   PO415444  12.028  12.421   9.678
  827POPC   GL115445  12.202  12.496   9.265
  827POPC   GL215446  12.403  12.794   9.206
  827POPC   C1A15447  12.046  12.628   8.849
  827POPC   D2A15448  12.073  12.776   8.442
  827POPC   C3A15449  12.218  12.585   8.073
  827POPC   C4A15450  11.980  12.740   7.730
  827POPC   C1B15451  12.501  12.984   8.810
  827POPC   C2B15452  12.469  13.085   8.370
  827POPC   C3B15453  12.181  13.147   8.018
  827POPC   C4B15454  12.098  13.194   7.571
  828POPC   NC315455  22.510  17.389   9.613
  828POPC   PO415456  21.787  17.381   9.490
  828POPC   GL115457  22.159  17.454   9.200
  828POPC   GL215458  22.377  17.744   9.277
  828POPC   C1A15459  22.129  17.393   8.742
  828POPC   D2A15460  21.827  17.482   8.402
  828POPC   C3A15461  22.000  17.299   8.040
  828POPC   C4A15462  22.348  17.070   7.837
  828POPC   C1B15463  22.287  17.879   8.864
  828POPC   C2B15464  22.188  17.862   8.438
  828POPC   C3B15465  22.389  17.686   8.122
  828POPC   C4B15466  22.604  17.879   7.823
  829POPC   NC315467   6.355  20.418   9.636
  829POPC   PO415468   6.897  20.790   9.473
  829POPC   GL115469   6.678  20.626   9.151
  829POPC   GL215470   6.309  20.624   9.192
  829POPC   C1A15471   6.510  20.743   8.747
  829POPC   D2A15472   6.341  20.972   8.439
  829POPC   C3A15473   6.548  20.831   8.083
  829POPC   C4A15474   6.553  20.956   7.682
  829POPC   C1B15475   6.441  20.251   8.922
  829POPC   C2B15476   6.488  20.291   8.486
  829POPC   C3B15477   6.449  20.176   8.067
  829POPC   C4B15478   6.429  20.451   7.737
  830POPC   NC315479   7.116  33.594   9.465
  830POPC   PO415480   7.584  33.983   9.440
  830POPC   GL115481   7.459  33.735   9.128
  830POPC   GL215482   7.162  33.946   9.054
  830POPC   C1A15483   7.351  33.575   8.760
  830POPC   D2A15484   7.141  33.444   8.440
  830POPC   C3A15485   7.337  33.654   8.125
  830POPC   C4A15486   7.192  33.737   7.721
  830POPC   C1B15487   7.484  34.114   8.773
  830POPC   C2B15488   7.621  34.215   8.346
  830POPC   C3B15489   7.474  34.122   7.947
  830POPC   C4B15490   7.622  33.958   7.563
  831POPC   NC315491   8.543  38.136   9.479
  831POPC   PO415492   7.895  38.332   9.597
  831POPC   GL115493   7.892  38.299   9.157
  831POPC   GL215494   8.242  38.254   9.075
  831POPC   C1A15495   7.825  38.289   8.702
  831POPC   D2A15496   7.793  38.191   8.249
  831POPC   C3A15497   7.855  38.548   7.971
  831POPC   C4A15498   7.769  38.815   7.617
  831POPC   C1B15499   8.276  38.558   8.750
  831POPC   C2B15500   8.497  38.666   8.410
  831POPC   C3B15501   8.359  38.457   8.062
  831POPC   C4B15502   8.287  38.625   7.670
  832POPC   NC315503   7.241  10.436   9.833
  832POPC   PO415504   7.378   9.788   9.547
  832POPC   GL115505   7.417   9.949   9.157
  832POPC   GL215506   7.559   9.646   9.057
  832POPC   C1A15507   7.237  10.176   8.800
  832POPC   D2A15508   7.105  10.143   8.371
  832POPC   C3A15509   7.395  10.083   8.011
  832POPC   C4A15510   7.332   9.935   7.596
  832POPC   C1B15511   7.681   9.532   8.657
  832POPC   C2B15512   7.493   9.664   8.294
  832POPC   C3B15513   7.601   9.601   7.886
  832POPC   C4B15514   7.365   9.400   7.571
  833POPC   NC315515   4.144  11.602   9.544
  833POPC   PO415516   4.701  11.188   9.611
  833POPC   GL115517   4.472  11.332   9.230
  833POPC   GL215518   4.140  11.219   9.140
  833POPC   C1A15519   4.589  11.058   8.875
  833POPC   D2A15520   4.448  10.973   8.442
  833POPC   C3A15521   4.647  11.220   8.123
  833POPC   C4A15522   4.542  11.351   7.715
  833POPC   C1B15523   4.210  11.355   8.724
  833POPC   C2B15524   4.255  11.506   8.296
  833POPC   C3B15525   4.090  11.486   7.867
  833POPC   C4B15526   4.004  11.289   7.459
  834POPC   NC315527   1.809  34.619   9.848
  834POPC   PO415528   2.223  34.360   9.287
  834POPC   GL115529   2.080  34.676   9.000
  834POPC   GL215530   1.813  34.589   9.023
  834POPC   C1A15531   1.927  34.893   8.644
  834POPC   D2A15532   1.971  34.623   8.306
  834POPC   C3A15533   1.890  34.820   7.941
  834POPC   C4A15534   2.050  34.796   7.533
  834POPC   C1B15535   1.841  34.312   8.707
  834POPC   C2B15536   1.600  34.152   8.387
  834POPC   C3B15537   1.561  34.409   8.034
  834POPC   C4B15538   1.807  34.371   7.680
  835POPC   NC315539  28.706  30.524   9.865
  835POPC   PO415540  28.277  30.714   9.409
  835POPC   GL115541  28.373  30.875   9.054
  835POPC   GL215542  28.195  31.157   9.131
  835POPC   C1A15543  28.478  30.798   8.634
  835POPC   D2A15544  28.278  30.745   8.262
  835POPC   C3A15545  28.477  30.536   7.914
  835POPC   C4A15546  28.175  30.297   7.614
  835POPC   C1B15547  28.466  31.286   8.781
  835POPC   C2B15548  28.533  31.239   8.290
  835POPC   C3B15549  28.299  31.083   7.897
  835POPC   C4B15550  28.010  30.762   7.805
  836POPC   NC315551  17.368  25.636   9.229
  836POPC   PO415552  17.448  24.968   9.470
  836POPC   GL115553  17.455  25.143   9.089
  836POPC   GL215554  17.744  25.356   8.971
  836POPC   C1A15555  17.282  25.110   8.706
  836POPC   D2A15556  17.429  24.941   8.311
  836POPC   C3A15557  17.423  25.248   7.955
  836POPC   C4A15558  17.191  25.291   7.574
  836POPC   C1B15559  17.843  25.106   8.612
  836POPC   C2B15560  17.904  25.173   8.168
  836POPC   C3B15561  17.883  25.471   7.806
  836POPC   C4B15562  17.600  25.627   7.494
  837POPC   NC315563  41.919  12.733   9.492
  837POPC   PO415564  42.478  13.096   9.463
  837POPC   GL115565  42.277  13.160   9.054
  837POPC   GL215566  42.212  12.832   9.073
  837POPC   C1A15567  42.071  13.056   8.638
  837POPC   D2A15568  41.872  13.023   8.236
  837POPC   C3A15569  42.126  13.245   7.979
  837POPC   C4A15570  42.512  13.094   7.790
  837POPC   C1B15571  42.561  12.868   8.756
  837POPC   C2B15572  42.782  12.750   8.371
  837POPC   C3B15573  42.674  12.598   7.963
  837POPC   C4B15574  42.802  12.721   7.537
  838POPC   NC315575   8.572  11.440   9.179
  838POPC   PO415576   8.223  11.044   9.540
  838POPC   GL115577   8.133  11.144   9.116
  838POPC   GL215578   7.940  11.423   9.118
  838POPC   C1A15579   7.962  11.023   8.721
  838POPC   D2A15580   7.767  10.920   8.318
  838POPC   C3A15581   7.812  11.238   8.023
  838POPC   C4A15582   8.138  11.343   7.749
  838POPC   C1B15583   8.144  11.502   8.683
  838POPC   C2B15584   8.279  11.430   8.245
  838POPC   C3B15585   8.534  11.613   7.888
  838POPC   C4B15586   8.446  11.773   7.452
  839POPC   NC315587  28.333  43.706   9.605
  839POPC   PO415588  28.736  44.101   9.338
  839POPC   GL115589  28.507  43.753   9.114
  839POPC   GL215590  28.192  43.519   9.160
  839POPC   C1A15591  28.536  43.868   8.685
  839POPC   D2A15592  28.722  44.050   8.312
  839POPC   C3A15593  28.415  43.986   7.999
  839POPC   C4A15594  28.550  43.931   7.604
  839POPC   C1B15595  28.058  43.773   8.828
  839POPC   C2B15596  28.102  43.902   8.412
  839POPC   C3B15597  27.952  43.724   8.049
  839POPC   C4B15598  28.113  43.666   7.646
  840POPC   NC315599  42.339  32.352   9.416
  840POPC   PO415600  42.378  31.685   9.573
  840POPC   GL115601  42.428  31.913   9.183
  840POPC   GL215602  42.092  32.081   9.059
  840POPC   C1A15603  42.497  32.165   8.784
  840POPC   D2A15604  42.279  32.195   8.416
  840POPC   C3A15605  42.532  32.212   8.066
  840POPC   C4A15606  42.318  32.134   7.719
  840POPC   C1B15607  42.069  32.471   8.798
  840POPC   C2B15608  41.883  32.571   8.391
  840POPC   C3B15609  42.201  32.596   8.085
  840POPC   C4B15610  42.281  32.664   7.669
  841POPC   NC315611   3.020  37.140   9.700
  841POPC   PO415612   2.521  36.665   9.503
  841POPC   GL115613   2.908  36.787   9.301
  841POPC   GL215614   2.954  37.118   9.199
  841POPC   C1A15615   2.956  36.732   8.849
  841POPC   D2A15616   2.795  36.582   8.450
  841POPC   C3A15617   2.893  36.842   8.111
  841POPC   C4A15618   2.758  36.852   7.681
  841POPC   C1B15619   2.660  37.176   8.855
  841POPC   C2B15620   2.512  37.037   8.452
  841POPC   C3B15621   2.512  37.210   8.041
  841POPC   C4B15622   2.779  37.370   7.694
  842POPC   NC315623  13.038  20.687   9.412
  842POPC   PO415624  12.483  20.798   9.698
  842POPC   GL115625  12.519  20.783   9.250
  842POPC   GL215626  12.636  20.446   9.148
  842POPC   C1A15627  12.452  20.792   8.793
  842POPC   D2A15628  12.504  20.591   8.390
  842POPC   C3A15629  12.422  20.764   7.987
  842POPC   C4A15630  12.589  20.734   7.565
  842POPC   C1B15631  12.842  20.356   8.729
  842POPC   C2B15632  12.957  20.399   8.267
  842POPC   C3B15633  12.954  20.432   7.806
  842POPC   C4B15634  13.056  20.381   7.355
  843POPC   NC315635  28.131  20.630   9.492
  843POPC   PO415636  28.531  20.201   9.663
  843POPC   GL115637  28.719  20.444   9.301
  843POPC   GL215638  28.572  20.757   9.238
  843POPC   C1A15639  28.749  20.458   8.840
  843POPC   D2A15640  28.547  20.634   8.473
  843POPC   C3A15641  28.677  20.514   8.086
  843POPC   C4A15642  28.510  20.671   7.733
  843POPC   C1B15643  28.291  20.802   8.890
  843POPC   C2B15644  28.140  20.955   8.499
  843POPC   C3B15645  27.998  20.880   8.103
  843POPC   C4B15646  28.105  20.961   7.719
  844POPC   NC315647  41.152  35.959   9.523
  844POPC   PO415648  40.651  36.441   9.513
  844POPC   GL115649  40.828  36.177   9.186
  844POPC   GL215650  41.150  36.321   9.155
  844POPC   C1A15651  40.825  35.923   8.788
  844POPC   D2A15652  40.975  35.768   8.389
  844POPC   C3A15653  40.798  35.906   8.016
  844POPC   C4A15654  40.593  36.107   7.677
  844POPC   C1B15655  41.269  36.155   8.744
  844POPC   C2B15656  41.256  36.258   8.291
  844POPC   C3B15657  41.195  36.154   7.835
  844POPC   C4B15658  41.015  35.862   7.554
  845POPC   NC315659   8.542  44.925   9.515
  845POPC   PO415660   9.240  44.681   9.495
  845POPC   GL115661   9.019  44.910   9.174
  845POPC   GL215662   8.723  44.791   9.065
  845POPC   C1A15663   9.077  44.914   8.726
  845POPC   D2A15664   9.113  44.689   8.348
  845POPC   C3A15665   9.169  44.914   7.939
  845POPC   C4A15666   9.068  44.766   7.509
  845POPC   C1B15667   8.712  44.524   8.708
  845POPC   C2B15668   8.665  44.422   8.321
  845POPC   C3B15669   8.792  44.577   7.964
  845POPC   C4B15670   8.695  44.447   7.612
  846POPC   NC315671  22.620  14.978   9.545
  846POPC   PO415672  23.298  15.182   9.597
  846POPC   GL115673  23.088  15.309   9.191
  846POPC   GL215674  22.817  15.088   9.095
  846POPC   C1A15675  22.887  15.479   8.773
  846POPC   D2A15676  22.754  15.250   8.381
  846POPC   C3A15677  22.972  15.318   7.997
  846POPC   C4A15678  23.179  15.407   7.618
  846POPC   C1B15679  23.091  15.028   8.744
  846POPC   C2B15680  23.046  14.814   8.360
  846POPC   C3B15681  22.757  14.857   8.012
  846POPC   C4B15682  23.055  14.900   7.686
  847POPC   NC315683  37.546  17.697   9.309
  847POPC   PO415684  38.004  17.230   9.515
  847POPC   GL115685  37.923  17.392   9.113
  847POPC   GL215686  37.980  17.762   9.075
  847POPC   C1A15687  37.679  17.301   8.729
  847POPC   D2A15688  37.507  17.493   8.360
  847POPC   C3A15689  37.757  17.439   7.972
  847POPC   C4A15690  37.627  17.145   7.649
  847POPC   C1B15691  37.742  17.809   8.696
  847POPC   C2B15692  38.004  17.641   8.409
  847POPC   C3B15693  38.152  17.809   8.073
  847POPC   C4B15694  37.940  17.862   7.686
  848POPC   NC315695  37.500  31.699   9.693
  848POPC   PO415696  36.798  31.577   9.628
  848POPC   GL115697  36.686  31.463   9.197
  848POPC   GL215698  36.977  31.296   9.072
  848POPC   C1A15699  36.541  31.248   8.822
  848POPC   D2A15700  36.645  31.421   8.458
  848POPC   C3A15701  36.820  31.355   8.074
  848POPC   C4A15702  36.680  31.565   7.730
  848POPC   C1B15703  36.961  31.654   8.796
  848POPC   C2B15704  37.139  31.649   8.363
  848POPC   C3B15705  37.176  31.714   7.890
  848POPC   C4B15706  37.123  31.481   7.488
  849POPC   NC315707  26.975  14.354   9.513
  849POPC   PO415708  26.536  13.860   9.295
  849POPC   GL115709  26.774  14.168   9.049
  849POPC   GL215710  26.775  14.535   9.061
  849POPC   C1A15711  26.730  14.233   8.622
  849POPC   D2A15712  26.682  14.001   8.244
  849POPC   C3A15713  26.849  14.218   7.898
  849POPC   C4A15714  26.633  14.429   7.552
  849POPC   C1B15715  26.890  14.718   8.663
  849POPC   C2B15716  26.875  14.612   8.240
  849POPC   C3B15717  27.004  14.699   7.826
  849POPC   C4B15718  27.128  14.425   7.473
  850POPC   NC315719  21.126   8.627   9.878
  850POPC   PO415720  20.941   9.190   9.575
  850POPC   GL115721  21.265   8.966   9.257
  850POPC   GL215722  21.540   9.084   9.086
  850POPC   C1A15723  21.193   8.765   8.833
  850POPC   D2A15724  21.028   8.861   8.410
  850POPC   C3A15725  21.183   8.758   7.980
  850POPC   C4A15726  21.450   8.839   7.625
  850POPC   C1B15727  21.388   9.225   8.693
  850POPC   C2B15728  21.510   9.427   8.334
  850POPC   C3B15729  21.500   9.259   7.926
  850POPC   C4B15730  21.116   9.221   7.721
  851POPC   NC315731  17.745  15.554   9.386
  851POPC   PO415732  17.700  16.242   9.434
  851POPC   GL115733  17.450  15.916   9.186
  851POPC   GL215734  17.142  15.883   9.031
  851POPC   C1A15735  17.545  15.762   8.755
  851POPC   D2A15736  17.354  15.939   8.382
  851POPC   C3A15737  17.575  16.143   8.071
  851POPC   C4A15738  17.480  15.879   7.754
  851POPC   C1B15739  17.042  15.685   8.707
  851POPC   C2B15740  16.872  15.783   8.319
  851POPC   C3B15741  17.019  15.991   7.922
  851POPC   C4B15742  17.087  15.974   7.448
  852POPC   NC315743  20.166   8.209   9.681
  852POPC   PO415744  20.878   8.320   9.624
  852POPC   GL115745  20.601   8.215   9.247
  852POPC   GL215746  20.804   8.404   9.029
  852POPC   C1A15747  20.531   8.087   8.760
  852POPC   D2A15748  20.358   8.411   8.464
  852POPC   C3A15749  20.344   8.320   8.021
  852POPC   C4A15750  20.470   8.470   7.623
  852POPC   C1B15751  20.912   8.378   8.605
  852POPC   C2B15752  20.806   8.199   8.235
  852POPC   C3B15753  20.912   8.322   7.827
  852POPC   C4B15754  21.039   8.523   7.470
  853POPC   NC315755  24.136  43.517   9.902
  853POPC   PO415756  24.599  43.432   9.604
  853POPC   GL115757  24.547  43.149   9.180
  853POPC   GL215758  24.259  42.990   9.059
  853POPC   C1A15759  24.692  42.997   8.753
  853POPC   D2A15760  24.842  43.117   8.323
  853POPC   C3A15761  24.685  42.909   7.929
  853POPC   C4A15762  24.427  42.783   7.558
  853POPC   C1B15763  24.231  43.202   8.639
  853POPC   C2B15764  24.326  43.218   8.176
  853POPC   C3B15765  24.102  43.102   7.785
  853POPC   C4B15766  24.125  43.136   7.315
  854POPC   NC315767  17.685  13.218   9.412
  854POPC   PO415768  17.217  12.790   9.598
  854POPC   GL115769  17.288  12.984   9.188
  854POPC   GL215770  17.559  12.757   9.173
  854POPC   C1A15771  17.550  13.112   8.780
  854POPC   D2A15772  17.836  13.004   8.401
  854POPC   C3A15773  17.639  13.039   7.996
  854POPC   C4A15774  17.322  13.350   7.879
  854POPC   C1B15775  17.311  12.658   8.813
  854POPC   C2B15776  17.353  12.789   8.431
  854POPC   C3B15777  17.338  12.638   8.072
  854POPC   C4B15778  17.134  12.861   7.782
  855POPC   NC315779  20.139  35.207   9.756
  855POPC   PO415780  19.584  35.283   9.401
  855POPC   GL115781  19.709  35.384   9.003
  855POPC   GL215782  19.452  35.291   8.823
  855POPC   C1A15783  20.029  35.460   8.713
  855POPC   D2A15784  20.131  35.286   8.318
  855POPC   C3A15785  19.997  35.377   7.901
  855POPC   C4A15786  20.201  35.095   7.560
  855POPC   C1B15787  19.533  35.682   8.589
  855POPC   C2B15788  19.562  35.638   8.141
  855POPC   C3B15789  19.484  35.316   7.837
  855POPC   C4B15790  19.696  35.071   7.539
  856POPC   NC315791  42.658  38.707   9.710
  856POPC   PO415792  42.186  38.620   9.300
  856POPC   GL115793  42.318  38.467   8.965
  856POPC   GL215794  42.634  38.294   9.034
  856POPC   C1A15795  42.214  38.554   8.536
  856POPC   D2A15796  42.211  38.652   8.103
  856POPC   C3A15797  42.254  38.256   7.967
  856POPC   C4A15798  42.333  38.112   7.602
  856POPC   C1B15799  42.711  38.537   8.672
  856POPC   C2B15800  42.681  38.529   8.249
  856POPC   C3B15801  42.686  38.473   7.821
  856POPC   C4B15802  42.772  38.435   7.387
  857POPC   NC315803  21.014   6.148   9.335
  857POPC   PO415804  21.390   6.718   9.526
  857POPC   GL115805  21.392   6.790   9.077
  857POPC   GL215806  21.429   7.109   9.026
  857POPC   C1A15807  21.539   6.696   8.673
  857POPC   D2A15808  21.806   6.709   8.326
  857POPC   C3A15809  21.545   6.581   8.005
  857POPC   C4A15810  21.309   6.416   7.674
  857POPC   C1B15811  21.092   6.994   8.701
  857POPC   C2B15812  21.136   6.733   8.358
  857POPC   C3B15813  21.100   6.859   7.988
  857POPC   C4B15814  20.946   6.737   7.626
  858POPC   NC315815  17.467  42.543   9.534
  858POPC   PO415816  17.413  41.886   9.323
  858POPC   GL115817  17.551  42.233   9.109
  858POPC   GL215818  17.280  42.505   9.071
  858POPC   C1A15819  17.761  42.116   8.743
  858POPC   D2A15820  17.788  42.355   8.350
  858POPC   C3A15821  17.644  42.149   7.995
  858POPC   C4A15822  17.557  42.310   7.586
  858POPC   C1B15823  17.336  42.383   8.646
  858POPC   C2B15824  17.209  42.233   8.257
  858POPC   C3B15825  17.144  42.171   7.822
  858POPC   C4B15826  17.120  42.324   7.343
  859POPC   NC315827  28.290  37.618   9.714
  859POPC   PO415828  27.926  38.173   9.506
  859POPC   GL115829  28.190  37.891   9.223
  859POPC   GL215830  28.517  38.032   9.181
  859POPC   C1A15831  28.227  37.735   8.748
  859POPC   D2A15832  28.067  37.654   8.276
  859POPC   C3A15833  28.286  37.435   7.893
  859POPC   C4A15834  28.305  37.522   7.430
  859POPC   C1B15835  28.413  38.213   8.771
  859POPC   C2B15836  28.423  38.045   8.330
  859POPC   C3B15837  28.498  37.897   7.875
  859POPC   C4B15838  28.414  38.018   7.428
  860POPC   NC315839  25.394   3.168   9.390
  860POPC   PO415840  25.711   3.614   9.465
  860POPC   GL115841  25.495   3.777   9.109
  860POPC   GL215842  25.397   3.458   8.969
  860POPC   C1A15843  25.371   3.840   8.655
  860POPC   D2A15844  25.552   3.686   8.265
  860POPC   C3A15845  25.269   3.569   7.940
  860POPC   C4A15846  24.916   3.770   7.755
  860POPC   C1B15847  25.320   3.319   8.533
  860POPC   C2B15848  25.529   3.178   8.136
  860POPC   C3B15849  25.602   3.274   7.668
  860POPC   C4B15850  25.570   3.381   7.191
  861POPC   NC315851  35.333  21.135   9.569
  861POPC   PO415852  35.330  21.755   9.481
  861POPC   GL115853  35.524  21.564   9.135
  861POPC   GL215854  35.657  21.211   9.113
  861POPC   C1A15855  35.273  21.350   8.836
  861POPC   D2A15856  35.186  21.156   8.449
  861POPC   C3A15857  35.336  21.297   8.072
  861POPC   C4A15858  35.204  21.300   7.639
  861POPC   C1B15859  35.777  21.404   8.697
  861POPC   C2B15860  35.827  21.215   8.264
  861POPC   C3B15861  35.743  21.200   7.787
  861POPC   C4B15862  35.754  21.118   7.309
  862POPC   NC315863  24.607  14.830   9.491
  862POPC   PO415864  24.262  15.441   9.663
  862POPC   GL115865  24.468  15.400   9.287
  862POPC   GL215866  24.304  15.116   9.199
  862POPC   C1A15867  24.605  15.367   8.853
  862POPC   D2A15868  24.790  15.144   8.518
  862POPC   C3A15869  24.638  15.187   8.122
  862POPC   C4A15870  24.586  14.962   7.750
  862POPC   C1B15871  24.109  15.293   8.852
  862POPC   C2B15872  24.249  15.272   8.447
  862POPC   C3B15873  24.018  15.153   8.079
  862POPC   C4B15874  24.095  15.020   7.653
  863POPC   NC315875   9.772   3.269   9.530
  863POPC   PO415876   9.871   3.924   9.567
  863POPC   GL115877   9.822   3.775   9.160
  863POPC   GL215878  10.013   3.480   9.114
  863POPC   C1A15879   9.571   3.625   8.811
  863POPC   D2A15880   9.524   3.802   8.410
  863POPC   C3A15881   9.445   3.608   8.028
  863POPC   C4A15882   9.704   3.393   7.764
  863POPC   C1B15883   9.926   3.250   8.723
  863POPC   C2B15884   9.825   3.278   8.274
  863POPC   C3B15885  10.066   3.092   7.912
  863POPC   C4B15886  10.204   3.294   7.560
  864POPC   NC315887   7.894  19.448   9.328
  864POPC   PO415888   7.324  19.922   9.435
  864POPC   GL115889   7.439  20.105   9.054
  864POPC   GL215890   7.487  19.745   8.957
  864POPC   C1A15891   7.541  20.078   8.594
  864POPC   D2A15892   7.317  19.775   8.348
  864POPC   C3A15893   7.363  19.863   7.909
  864POPC   C4A15894   7.713  19.833   7.625
  864POPC   C1B15895   7.069  19.558   8.764
  864POPC   C2B15896   6.916  19.411   8.331
  864POPC   C3B15897   6.999  19.508   7.905
  864POPC   C4B15898   7.171  19.618   7.486
  865POPC   NC315899  44.330  11.197   9.421
  865POPC   PO415900  44.965  11.476   9.370
  865POPC   GL115901  44.765  11.417   9.037
  865POPC   GL215902  44.683  11.093   9.077
  865POPC   C1A15903  44.393  11.414   8.776
  865POPC   D2A15904  44.292  11.214   8.385
  865POPC   C3A15905  44.459  11.337   7.986
  865POPC   C4A15906  44.211  11.449   7.623
  865POPC   C1B15907  44.793  11.117   8.637
  865POPC   C2B15908  44.756  10.866   8.295
  865POPC   C3B15909  44.887  10.991   7.900
  865POPC   C4B15910  44.932  11.423   7.807
  866POPC   NC315911   3.393  22.028   9.539
  866POPC   PO415912   3.854  22.448   9.553
  866POPC   GL115913   3.617  22.340   9.157
  866POPC   GL215914   3.405  22.064   9.025
  866POPC   C1A15915   3.706  22.332   8.694
  866POPC   D2A15916   3.756  22.106   8.288
  866POPC   C3A15917   3.510  22.255   7.953
  866POPC   C4A15918   3.405  22.344   7.543
  866POPC   C1B15919   3.656  21.809   8.707
  866POPC   C2B15920   3.539  21.643   8.344
  866POPC   C3B15921   3.221  21.854   8.114
  866POPC   C4B15922   3.113  21.941   7.696
  867POPC   NC315923  23.027  12.740   9.577
  867POPC   PO415924  23.053  13.346   9.211
  867POPC   GL115925  22.870  12.962   9.108
  867POPC   GL215926  22.989  12.615   9.088
  867POPC   C1A15927  22.825  12.974   8.678
  867POPC   D2A15928  23.012  12.932   8.286
  867POPC   C3A15929  22.710  13.120   8.022
  867POPC   C4A15930  22.725  12.988   7.621
  867POPC   C1B15931  22.872  12.465   8.704
  867POPC   C2B15932  22.623  12.609   8.360
  867POPC   C3B15933  22.736  12.606   7.949
  867POPC   C4B15934  23.111  12.656   7.651
  868POPC   NC315935   9.835  21.064   9.746
  868POPC   PO415936  10.253  21.308   9.228
  868POPC   GL115937   9.955  21.377   9.008
  868POPC   GL215938   9.630  21.425   9.182
  868POPC   C1A15939  10.062  21.250   8.599
  868POPC   D2A15940  10.104  21.186   8.187
  868POPC   C3A15941   9.921  21.583   8.111
  868POPC   C4A15942   9.894  21.661   7.710
  868POPC   C1B15943   9.567  21.505   8.731
  868POPC   C2B15944   9.578  21.278   8.337
  868POPC   C3B15945   9.592  21.260   7.887
  868POPC   C4B15946   9.366  21.367   7.514
  869POPC   NC315947  31.079  32.314   9.834
  869POPC   PO415948  31.640  31.938   9.582
  869POPC   GL115949  31.631  32.103   9.154
  869POPC   GL215950  31.526  32.418   8.996
  869POPC   C1A15951  31.903  32.122   8.786
  869POPC   D2A15952  32.034  31.990   8.369
  869POPC   C3A15953  31.650  32.039   8.128
  869POPC   C4A15954  31.536  32.099   7.709
  869POPC   C1B15955  31.208  32.376   8.640
  869POPC   C2B15956  31.204  32.408   8.173
  869POPC   C3B15957  31.194  32.573   7.761
  869POPC   C4B15958  31.100  32.663   7.292
  870POPC   NC315959  10.738  42.941   9.460
  870POPC   PO415960  10.205  43.361   9.580
  870POPC   GL115961  10.403  43.248   9.179
  870POPC   GL215962  10.073  43.332   9.068
  870POPC   C1A15963  10.731  43.142   8.815
  870POPC   D2A15964  11.001  43.182   8.402
  870POPC   C3A15965  10.818  43.110   7.978
  870POPC   C4A15966  10.532  43.227   7.640
  870POPC   C1B15967  10.224  43.160   8.684
  870POPC   C2B15968  10.414  43.021   8.282
  870POPC   C3B15969  10.361  42.817   7.883
  870POPC   C4B15970  10.026  42.996   7.676
  871POPC   NC315971  34.581  40.311   9.616
  871POPC   PO415972  34.991  39.958   9.940
  871POPC   GL115973  34.936  39.985   9.441
  871POPC   GL215974  34.999  40.278   9.247
  871POPC   C1A15975  34.635  40.002   9.028
  871POPC   D2A15976  34.660  39.905   8.552
  871POPC   C3A15977  34.561  39.977   8.077
  871POPC   C4A15978  34.551  39.709   7.683
  871POPC   C1B15979  35.006  40.234   8.780
  871POPC   C2B15980  34.864  40.323   8.343
  871POPC   C3B15981  34.989  40.203   7.946
  871POPC   C4B15982  34.755  40.149   7.561
  872POPC   NC315983  39.087  21.725   9.422
  872POPC   PO415984  39.182  22.441   9.536
  872POPC   GL115985  39.084  22.186   9.174
  872POPC   GL215986  39.393  21.982   9.080
  872POPC   C1A15987  38.866  22.133   8.778
  872POPC   D2A15988  38.902  22.412   8.435
  872POPC   C3A15989  38.853  22.283   8.006
  872POPC   C4A15990  39.148  22.447   7.711
  872POPC   C1B15991  39.370  22.302   8.745
  872POPC   C2B15992  39.484  22.430   8.320
  872POPC   C3B15993  39.628  22.404   7.898
  872POPC   C4B15994  39.560  22.209   7.505
  873POPC   NC315995  25.783  33.698   9.573
  873POPC   PO415996  26.418  33.672   9.930
  873POPC   GL115997  26.320  33.705   9.427
  873POPC   GL215998  26.331  33.999   9.311
  873POPC   C1A15999  26.158  33.677   8.971
  873POPC   D2A16000  25.881  33.601   8.593
  873POPC   C3A16001  25.899  33.659   8.114
  873POPC   C4A16002  26.057  33.474   7.705
  873POPC   C1B16003  26.432  34.094   8.867
  873POPC   C2B16004  26.265  34.259   8.473
  873POPC   C3B16005  26.442  34.200   8.095
  873POPC   C4B16006  26.298  33.896   7.869
  874POPC   NC316007  34.868   1.260   9.291
  874POPC   PO416008  34.351   1.193   9.716
  874POPC   GL116009  34.355   1.160   9.226
  874POPC   GL216010  34.297   1.488   9.029
  874POPC   C1A16011  34.516   0.987   8.804
  874POPC   D2A16012  34.818   0.994   8.449
  874POPC   C3A16013  34.586   0.934   8.072
  874POPC   C4A16014  34.483   1.138   7.710
  874POPC   C1B16015  34.526   1.462   8.642
  874POPC   C2B16016  34.653   1.417   8.219
  874POPC   C3B16017  34.916   1.349   7.877
  874POPC   C4B16018  34.751   1.700   7.712
  875POPC   NC316019   6.898  10.863   9.490
  875POPC   PO416020   7.570  10.752   9.735
  875POPC   GL116021   7.467  10.473   9.335
  875POPC   GL216022   7.245  10.664   9.193
  875POPC   C1A16023   7.606  10.525   8.846
  875POPC   D2A16024   7.436  10.542   8.417
  875POPC   C3A16025   7.707  10.494   8.028
  875POPC   C4A16026   7.545  10.410   7.594
  875POPC   C1B16027   7.096  10.700   8.794
  875POPC   C2B16028   7.083  10.895   8.383
  875POPC   C3B16029   7.278  10.775   7.967
  875POPC   C4B16030   7.312  11.003   7.569
  876POPC   NC316031  25.401  31.456   9.537
  876POPC   PO416032  24.838  31.854   9.576
  876POPC   GL116033  25.103  31.811   9.162
  876POPC   GL216034  25.145  31.436   9.080
  876POPC   C1A16035  25.202  31.755   8.684
  876POPC   D2A16036  25.200  31.512   8.285
  876POPC   C3A16037  25.082  31.618   7.863
  876POPC   C4A16038  24.947  31.521   7.423
  876POPC   C1B16039  25.538  31.383   8.824
  876POPC   C2B16040  25.593  31.201   8.399
  876POPC   C3B16041  25.521  31.251   7.944
  876POPC   C4B16042  25.736  31.074   7.554
  877POPC   NC316043   1.283  13.950   9.534
  877POPC   PO416044   1.247  14.661   9.519
  877POPC   GL116045   1.312  14.413   9.206
  877POPC   GL216046   1.059  14.185   9.136
  877POPC   C1A16047   1.267  14.493   8.785
  877POPC   D2A16048   1.312  14.802   8.501
  877POPC   C3A16049   1.320  14.766   8.046
  877POPC   C4A16050   1.587  14.546   7.750
  877POPC   C1B16051   0.824  14.250   8.764
  877POPC   C2B16052   0.987  14.157   8.369
  877POPC   C3B16053   0.882  14.315   7.984
  877POPC   C4B16054   1.087  14.481   7.670
  878POPC   NC316055  43.573  14.644   9.456
  878POPC   PO416056  42.890  14.463   9.588
  878POPC   GL116057  42.979  14.412   9.168
  878POPC   GL216058  43.312  14.318   9.137
  878POPC   C1A16059  42.951  14.475   8.723
  878POPC   D2A16060  42.699  14.367   8.384
  878POPC   C3A16061  42.926  14.409   8.041
  878POPC   C4A16062  43.275  14.623   7.891
  878POPC   C1B16063  43.327  14.108   8.782
  878POPC   C2B16064  43.311  14.283   8.381
  878POPC   C3B16065  43.436  14.117   8.010
  878POPC   C4B16066  43.390  14.136   7.595
  879POPC   NC316067  34.796  41.065   9.335
  879POPC   PO416068  34.333  40.680   9.700
  879POPC   GL116069  34.502  40.646   9.223
  879POPC   GL216070  34.488  40.943   8.962
  879POPC   C1A16071  34.571  40.493   8.771
  879POPC   D2A16072  34.574  40.765   8.386
  879POPC   C3A16073  34.602  40.578   7.952
  879POPC   C4A16074  34.526  40.608   7.482
  879POPC   C1B16075  34.838  41.160   8.701
  879POPC   C2B16076  34.838  41.184   8.258
  879POPC   C3B16077  34.823  41.053   7.829
  879POPC   C4B16078  34.791  41.324   7.498
  880POPC   NC316079  10.018  28.798   9.712
  880POPC   PO416080   9.972  28.173   9.613
  880POPC   GL116081   9.835  28.262   9.212
  880POPC   GL216082  10.180  28.290   9.044
  880POPC   C1A16083   9.486  28.116   8.894
  880POPC   D2A16084   9.424  28.344   8.469
  880POPC   C3A16085   9.403  28.179   8.036
  880POPC   C4A16086   9.508  28.471   7.657
  880POPC   C1B16087   9.886  28.360   8.724
  880POPC   C2B16088   9.919  28.179   8.332
  880POPC   C3B16089   9.878  28.351   7.979
  880POPC   C4B16090   9.975  28.701   7.758
  881POPC   NC316091  25.093  24.091   9.384
  881POPC   PO416092  25.438  23.451   9.384
  881POPC   GL116093  25.105  23.598   9.144
  881POPC   GL216094  25.314  23.543   8.865
  881POPC   C1A16095  24.889  23.808   8.773
  881POPC   D2A16096  25.021  23.633   8.368
  881POPC   C3A16097  24.860  23.793   7.977
  881POPC   C4A16098  24.999  23.719   7.555
  881POPC   C1B16099  25.621  23.850   8.713
  881POPC   C2B16100  25.836  23.859   8.312
  881POPC   C3B16101  25.660  23.617   7.995
  881POPC   C4B16102  25.371  23.917   7.841
  882POPC   NC316103   0.236  31.510   9.608
  882POPC   PO416104   0.892  31.533   9.652
  882POPC   GL116105   0.607  31.675   9.254
  882POPC   GL216106   0.344  31.444   9.126
  882POPC   C1A16107   0.568  31.682   8.761
  882POPC   D2A16108   0.273  31.780   8.439
  882POPC   C3A16109   0.494  31.811   8.058
  882POPC   C4A16110   0.460  31.761   7.608
  882POPC   C1B16111   0.027  31.439   8.778
  882POPC   C2B16112   0.046  31.342   8.328
  882POPC   C3B16113   0.152  31.454   7.906
  882POPC   C4B16114   0.253  31.304   7.492
  883POPC   NC316115  10.767   5.278   9.704
  883POPC   PO416116  11.423   5.019   9.508
  883POPC   GL116117  11.191   5.039   9.176
  883POPC   GL216118  11.194   4.746   9.036
  883POPC   C1A16119  11.061   5.150   8.748
  883POPC   D2A16120  11.114   4.897   8.365
  883POPC   C3A16121  11.195   5.113   7.974
  883POPC   C4A16122  10.957   5.102   7.599
  883POPC   C1B16123  11.471   4.817   8.722
  883POPC   C2B16124  11.532   4.609   8.335
  883POPC   C3B16125  11.338   4.620   7.950
  883POPC   C4B16126  11.497   4.866   7.629
  884POPC   NC316127  28.214  34.005   9.590
  884POPC   PO416128  28.637  33.481   9.542
  884POPC   GL116129  28.493  33.705   9.189
  884POPC   GL216130  28.137  33.665   9.211
  884POPC   C1A16131  28.546  33.780   8.724
  884POPC   D2A16132  28.546  33.920   8.290
  884POPC   C3A16133  28.653  33.633   7.953
  884POPC   C4A16134  28.685  33.182   7.898
  884POPC   C1B16135  28.059  33.920   8.845
  884POPC   C2B16136  28.078  33.789   8.403
  884POPC   C3B16137  28.180  33.833   7.949
  884POPC   C4B16138  28.441  34.165   7.785
  885POPC   NC316139  19.715  35.728   9.377
  885POPC   PO416140  20.209  36.004   9.699
  885POPC   GL116141  19.953  36.139   9.240
  885POPC   GL216142  20.139  36.349   9.047
  885POPC   C1A16143  19.645  36.194   8.825
  885POPC   D2A16144  19.851  36.300   8.375
  885POPC   C3A16145  19.687  36.187   7.940
  885POPC   C4A16146  19.632  35.788   7.654
  885POPC   C1B16147  20.085  35.989   8.749
  885POPC   C2B16148  20.001  35.797   8.346
  885POPC   C3B16149  20.080  35.888   7.948
  885POPC   C4B16150  20.196  36.306   7.807
  886POPC   NC316151  10.957  43.774   9.586
  886POPC   PO416152  11.408  44.289   9.479
  886POPC   GL116153  11.334  43.978   9.185
  886POPC   GL216154  11.001  43.990   9.129
  886POPC   C1A16155  11.441  43.905   8.738
  886POPC   D2A16156  11.376  44.109   8.318
  886POPC   C3A16157  11.478  43.916   7.927
  886POPC   C4A16158  11.210  44.026   7.564
  886POPC   C1B16159  10.921  43.683   8.826
  886POPC   C2B16160  10.982  43.770   8.406
  886POPC   C3B16161  10.980  43.871   7.992
  886POPC   C4B16162  10.880  43.605   7.631
  887POPC   NC316163  31.063  22.617   9.505
  887POPC   PO416164  31.713  22.362   9.514
  887POPC   GL116165  31.443  22.552   9.191
  887POPC   GL216166  31.337  22.886   9.148
  887POPC   C1A16167  31.462  22.555   8.761
  887POPC   D2A16168  31.664  22.824   8.466
  887POPC   C3A16169  31.496  22.824   8.055
  887POPC   C4A16170  31.630  23.041   7.691
  887POPC   C1B16171  31.164  22.964   8.719
  887POPC   C2B16172  31.045  22.965   8.272
  887POPC   C3B16173  31.088  23.030   7.791
  887POPC   C4B16174  31.254  23.196   7.381
  888POPC   NC316175   1.428   6.655   9.462
  888POPC   PO416176   0.922   6.594   9.819
  888POPC   GL116177   0.902   6.732   9.338
  888POPC   GL216178   1.103   7.031   9.244
  888POPC   C1A16179   0.916   6.651   8.853
  888POPC   D2A16180   1.273   6.501   8.558
  888POPC   C3A16181   1.200   6.358   8.117
  888POPC   C4A16182   1.031   6.567   7.758
  888POPC   C1B16183   1.273   6.991   8.793
  888POPC   C2B16184   1.127   6.947   8.329
  888POPC   C3B16185   1.347   6.959   7.919
  888POPC   C4B16186   1.500   6.695   7.586
  889POPC   NC316187  17.428  34.371   9.549
  889POPC   PO416188  17.130  34.940   9.271
  889POPC   GL116189  17.471  34.724   9.035
  889POPC   GL216190  17.508  34.375   9.054
  889POPC   C1A16191  17.634  34.606   8.629
  889POPC   D2A16192  17.423  34.268   8.403
  889POPC   C3A16193  17.224  34.473   8.065
  889POPC   C4A16194  17.452  34.823   7.771
  889POPC   C1B16195  17.816  34.150   8.764
  889POPC   C2B16196  17.923  34.177   8.304
  889POPC   C3B16197  17.710  34.374   7.941
  889POPC   C4B16198  17.527  34.396   7.512
  890POPC   NC316199  36.575  25.013   9.402
  890POPC   PO416200  35.905  25.295   9.496
  890POPC   GL116201  36.168  25.237   9.175
  890POPC   GL216202  36.299  25.561   9.225
  890POPC   C1A16203  36.268  25.026   8.766
  890POPC   D2A16204  36.322  25.208   8.350
  890POPC   C3A16205  36.015  25.066   8.057
  890POPC   C4A16206  36.062  25.120   7.621
  890POPC   C1B16207  36.208  25.548   8.771
  890POPC   C2B16208  36.166  25.706   8.347
  890POPC   C3B16209  36.191  25.538   7.916
  890POPC   C4B16210  36.091  25.600   7.485
  891POPC   NC316211   2.328   6.430   9.245
  891POPC   PO416212   1.861   6.702   9.630
  891POPC   GL116213   1.849   6.716   9.134
  891POPC   GL216214   1.892   6.428   8.951
  891POPC   C1A16215   1.753   6.804   8.648
  891POPC   D2A16216   1.640   6.658   8.201
  891POPC   C3A16217   1.945   6.717   7.833
  891POPC   C4A16218   2.328   6.975   7.796
  891POPC   C1B16219   2.120   6.322   8.612
  891POPC   C2B16220   2.113   6.361   8.177
  891POPC   C3B16221   2.157   6.267   7.755
  891POPC   C4B16222   1.900   6.399   7.379
  892POPC   NC316223  16.308   1.373   9.517
  892POPC   PO416224  16.842   0.886   9.437
  892POPC   GL116225  16.643   1.141   9.160
  892POPC   GL216226  16.678   1.486   9.149
  892POPC   C1A16227  16.774   1.062   8.770
  892POPC   D2A16228  16.547   0.860   8.487
  892POPC   C3A16229  16.697   0.804   8.065
  892POPC   C4A16230  16.830   0.967   7.691
  892POPC   C1B16231  16.423   1.422   8.776
  892POPC   C2B16232  16.374   1.329   8.338
  892POPC   C3B16233  16.666   1.344   8.008
  892POPC   C4B16234  16.587   1.496   7.587
  893POPC   NC316235  17.588   2.865   9.435
  893POPC   PO416236  17.264   2.372   9.616
  893POPC   GL116237  17.300   2.506   9.120
  893POPC   GL216238  17.400   2.851   8.987
  893POPC   C1A16239  17.545   2.485   8.671
  893POPC   D2A16240  17.789   2.351   8.259
  893POPC   C3A16241  17.757   2.632   7.864
  893POPC   C4A16242  17.715   3.100   7.662
  893POPC   C1B16243  17.350   2.975   8.585
  893POPC   C2B16244  17.476   2.781   8.263
  893POPC   C3B16245  17.343   2.903   7.919
  893POPC   C4B16246  17.296   2.601   7.560
  894POPC   NC316247  23.751  31.205   9.562
  894POPC   PO416248  23.850  31.838   9.728
  894POPC   GL116249  23.592  31.627   9.325
  894POPC   GL216250  23.822  31.485   9.088
  894POPC   C1A16251  23.381  31.335   8.955
  894POPC   D2A16252  23.565  31.150   8.569
  894POPC   C3A16253  23.505  31.325   8.159
  894POPC   C4A16254  23.697  31.311   7.739
  894POPC   C1B16255  23.726  31.664   8.694
  894POPC   C2B16256  23.953  31.457   8.385
  894POPC   C3B16257  24.138  31.456   8.016
  894POPC   C4B16258  24.067  31.638   7.625
  895POPC   NC316259  42.932  25.805   9.581
  895POPC   PO416260  43.020  25.115   9.602
  895POPC   GL116261  42.901  24.965   9.189
  895POPC   GL216262  42.765  25.282   9.150
  895POPC   C1A16263  43.031  25.118   8.746
  895POPC   D2A16264  43.365  25.079   8.394
  895POPC   C3A16265  43.288  25.033   7.927
  895POPC   C4A16266  43.423  25.309   7.556
  895POPC   C1B16267  42.660  25.503   8.771
  895POPC   C2B16268  42.896  25.507   8.402
  895POPC   C3B16269  42.716  25.472   8.023
  895POPC   C4B16270  42.925  25.315   7.693
  896POPC   NC316271  32.014  19.753   9.424
  896POPC   PO416272  32.592  20.072   9.578
  896POPC   GL116273  32.475  19.814   9.219
  896POPC   GL216274  32.247  20.117   9.156
  896POPC   C1A16275  32.430  19.622   8.802
  896POPC   D2A16276  32.217  19.719   8.409
  896POPC   C3A16277  32.417  19.631   8.050
  896POPC   C4A16278  32.543  19.485   7.699
  896POPC   C1B16279  32.064  19.981   8.822
  896POPC   C2B16280  31.776  19.975   8.552
  896POPC   C3B16281  31.718  20.094   8.166
  896POPC   C4B16282  32.030  19.969   7.874
  897POPC   NC316283  37.872  35.370   9.537
  897POPC   PO416284  37.397  34.943   9.589
  897POPC   GL116285  37.571  35.048   9.201
  897POPC   GL216286  37.563  35.388   9.143
  897POPC   C1A16287  37.650  35.015   8.764
  897POPC   D2A16288  37.817  35.134   8.369
  897POPC   C3A16289  37.625  35.183   8.026
  897POPC   C4A16290  37.791  34.967   7.715
  897POPC   C1B16291  37.506  35.680   8.818
  897POPC   C2B16292  37.572  35.597   8.415
  897POPC   C3B16293  37.671  35.736   8.036
  897POPC   C4B16294  37.581  35.640   7.648
  898POPC   NC316295  34.710  43.245   9.485
  898POPC   PO416296  34.600  43.963   9.428
  898POPC   GL116297  34.696  43.639   9.111
  898POPC   GL216298  34.550  43.924   8.917
  898POPC   C1A16299  34.636  43.509   8.666
  898POPC   D2A16300  34.559  43.852   8.365
  898POPC   C3A16301  34.602  43.703   7.937
  898POPC   C4A16302  34.500  43.521   7.542
  898POPC   C1B16303  34.388  44.265   8.692
  898POPC   C2B16304  34.275  44.414   8.293
  898POPC   C3B16305  34.430  44.193   7.929
  898POPC   C4B16306  34.288  44.243   7.501
  899POPC   NC316307  28.008  39.512   9.527
  899POPC   PO416308  27.331  39.528   9.563
  899POPC   GL116309  27.581  39.591   9.192
  899POPC   GL216310  27.608  39.265   9.148
  899POPC   C1A16311  27.627  39.552   8.713
  899POPC   D2A16312  27.627  39.267   8.350
  899POPC   C3A16313  27.410  39.340   7.963
  899POPC   C4A16314  27.559  39.416   7.536
  899POPC   C1B16315  27.513  39.010   8.785
  899POPC   C2B16316  27.289  38.893   8.393
  899POPC   C3B16317  27.345  38.821   7.939
  899POPC   C4B16318  27.624  38.683   7.581
  900POPC   NC316319   4.217  32.708   9.689
  900POPC   PO416320   4.633  33.143   9.745
  900POPC   GL116321   4.306  33.134   9.370
  900POPC   GL216322   4.188  32.770   9.202
  900POPC   C1A16323   4.233  33.157   8.908
  900POPC   D2A16324   4.189  32.997   8.480
  900POPC   C3A16325   4.411  33.210   8.129
  900POPC   C4A16326   4.348  33.106   7.681
  900POPC   C1B16327   4.419  32.663   8.823
  900POPC   C2B16328   4.619  32.714   8.384
  900POPC   C3B16329   4.359  32.714   8.018
  900POPC   C4B16330   4.219  32.586   7.603
  901POPC   NC316331  20.272   6.465   9.224
  901POPC   PO416332  19.850   6.924   9.565
  901POPC   GL116333  19.851   6.722   9.154
  901POPC   GL216334  19.595   6.593   9.014
  901POPC   C1A16335  20.061   6.772   8.731
  901POPC   D2A16336  20.217   6.748   8.321
  901POPC   C3A16337  20.075   6.602   7.913
  901POPC   C4A16338  19.972   6.808   7.523
  901POPC   C1B16339  19.612   6.601   8.594
  901POPC   C2B16340  19.640   6.644   8.196
  901POPC   C3B16341  19.559   6.704   7.789
  901POPC   C4B16342  19.505   6.937   7.396
  902POPC   NC316343  38.778  30.553   9.511
  902POPC   PO416344  38.300  31.073   9.388
  902POPC   GL116345  38.156  30.706   9.178
  902POPC   GL216346  38.432  30.518   9.062
  902POPC   C1A16347  38.061  30.773   8.740
  902POPC   D2A16348  38.173  31.042   8.385
  902POPC   C3A16349  38.252  30.862   7.975
  902POPC   C4A16350  38.583  30.986   7.708
  902POPC   C1B16351  38.268  30.313   8.704
  902POPC   C2B16352  38.534  30.233   8.358
  902POPC   C3B16353  38.589  30.425   7.949
  902POPC   C4B16354  38.354  30.324   7.585
  903POPC   NC316355  37.368  28.610   9.299
  903POPC   PO416356  37.723  28.065   9.584
  903POPC   GL116357  37.700  28.201   9.168
  903POPC   GL216358  37.934  28.469   9.157
  903POPC   C1A16359  37.654  28.370   8.740
  903POPC   D2A16360  37.606  28.280   8.320
  903POPC   C3A16361  37.499  28.601   8.048
  903POPC   C4A16362  37.669  28.393   7.716
  903POPC   C1B16363  38.062  28.701   8.802
  903POPC   C2B16364  37.896  28.793   8.398
  903POPC   C3B16365  38.013  28.661   8.014
  903POPC   C4B16366  38.165  28.850   7.669
  904POPC   NC316367  13.769  25.713   9.375
  904POPC   PO416368  13.779  26.382   9.359
  904POPC   GL116369  13.590  26.268   8.966
  904POPC   GL216370  13.584  25.897   8.948
  904POPC   C1A16371  13.768  26.161   8.551
  904POPC   D2A16372  13.682  25.898   8.204
  904POPC   C3A16373  13.658  26.162   7.836
  904POPC   C4A16374  13.926  26.123   7.476
  904POPC   C1B16375  13.324  25.925   8.596
  904POPC   C2B16376  13.244  26.160   8.239
  904POPC   C3B16377  13.206  25.901   7.937
  904POPC   C4B16378  13.419  25.779   7.624
  905POPC   NC316379  42.957  34.895   9.493
  905POPC   PO416380  43.568  34.749   9.521
  905POPC   GL116381  43.267  34.523   9.283
  905POPC   GL216382  43.224  34.784   9.039
  905POPC   C1A16383  42.914  34.350   9.012
  905POPC   D2A16384  42.722  34.492   8.626
  905POPC   C3A16385  42.845  34.428   8.172
  905POPC   C4A16386  42.692  34.368   7.732
  905POPC   C1B16387  43.413  34.405   8.807
  905POPC   C2B16388  43.500  34.246   8.375
  905POPC   C3B16389  43.339  34.530   8.034
  905POPC   C4B16390  42.994  34.772   7.814
  906POPC   NC316391   3.306  14.952   9.536
  906POPC   PO416392   3.928  15.237   9.451
  906POPC   GL116393   3.617  15.194   9.163
  906POPC   GL216394   3.299  15.377   9.208
  906POPC   C1A16395   3.643  15.080   8.757
  906POPC   D2A16396   3.403  14.945   8.402
  906POPC   C3A16397   3.629  15.016   8.004
  906POPC   C4A16398   3.786  14.823   7.639
  906POPC   C1B16399   3.156  15.266   8.773
  906POPC   C2B16400   3.187  15.428   8.332
  906POPC   C3B16401   3.388  15.455   7.919
  906POPC   C4B16402   3.318  15.557   7.487
  907POPC   NC316403  20.651  21.225   9.557
  907POPC   PO416404  20.644  21.798   9.497
  907POPC   GL116405  20.471  21.535   9.182
  907POPC   GL216406  20.764  21.357   9.081
  907POPC   C1A16407  20.368  21.122   8.907
  907POPC   D2A16408  20.504  20.927   8.526
  907POPC   C3A16409  20.522  21.211   8.165
  907POPC   C4A16410  20.354  21.223   7.746
  907POPC   C1B16411  20.596  21.542   8.667
  907POPC   C2B16412  20.597  21.798   8.267
  907POPC   C3B16413  20.548  21.758   7.816
  907POPC   C4B16414  20.741  21.504   7.550
  908POPC   NC316415  28.968  33.821   9.613
  908POPC   PO416416  29.286  33.186   9.726
  908POPC   GL116417  29.227  33.445   9.303
  908POPC   GL216418  29.236  33.820   9.195
  908POPC   C1A16419  29.194  33.508   8.821
  908POPC   D2A16420  28.968  33.652   8.439
  908POPC   C3A16421  29.152  33.540   8.043
  908POPC   C4A16422  29.382  33.757   7.759
  908POPC   C1B16423  28.979  34.005   8.881
  908POPC   C2B16424  28.943  34.179   8.478
  908POPC   C3B16425  28.987  34.033   8.046
  908POPC   C4B16426  28.941  34.088   7.602
  909POPC   NC316427   8.636   9.101   9.630
  909POPC   PO416428   9.135   9.224   9.192
  909POPC   GL116429   9.222   8.843   9.015
  909POPC   GL216430   8.918   8.700   9.012
  909POPC   C1A16431   9.162   8.918   8.587
  909POPC   D2A16432   8.937   9.233   8.381
  909POPC   C3A16433   8.841   9.188   7.946
  909POPC   C4A16434   9.029   9.094   7.510
  909POPC   C1B16435   8.766   8.570   8.641
  909POPC   C2B16436   8.811   8.747   8.246
  909POPC   C3B16437   8.940   8.699   7.848
  909POPC   C4B16438   8.630   8.751   7.568
  910POPC   NC316439  17.106   7.376   9.431
  910POPC   PO416440  16.449   7.576   9.399
  910POPC   GL116441  16.702   7.271   9.120
  910POPC   GL216442  17.062   7.320   8.935
  910POPC   C1A16443  16.596   7.227   8.712
  910POPC   D2A16444  16.744   7.492   8.380
  910POPC   C3A16445  16.565   7.489   7.982
  910POPC   C4A16446  16.588   7.143   7.733
  910POPC   C1B16447  17.001   7.737   8.804
  910POPC   C2B16448  17.004   7.927   8.405
  910POPC   C3B16449  17.066   7.739   8.000
  910POPC   C4B16450  16.993   7.467   7.667
  911POPC   NC316451  13.363  44.761   9.539
  911POPC   PO416452  13.889  44.317   9.519
  911POPC   GL116453  13.665  44.469   9.189
  911POPC   GL216454  13.321  44.381   9.182
  911POPC   C1A16455  13.779  44.758   8.841
  911POPC   D2A16456  13.609  44.937   8.465
  911POPC   C3A16457  13.653  44.800   8.061
  911POPC   C4A16458  13.848  44.967   7.705
  911POPC   C1B16459  13.343  44.492   8.775
  911POPC   C2B16460  13.502  44.410   8.389
  911POPC   C3B16461  13.280  44.460   8.017
  911POPC   C4B16462  13.537  44.497   7.656
  912POPC   NC316463  22.315   8.348   9.449
  912POPC   PO416464  21.928   7.773   9.434
  912POPC   GL116465  22.158   7.980   9.084
  912POPC   GL216466  22.201   8.333   8.965
  912POPC   C1A16467  22.029   8.007   8.622
  912POPC   D2A16468  21.729   8.034   8.268
  912POPC   C3A16469  21.886   8.126   7.846
  912POPC   C4A16470  21.876   8.530   7.578
  912POPC   C1B16471  22.548   8.079   8.780
  912POPC   C2B16472  22.475   8.115   8.366
  912POPC   C3B16473  22.232   8.412   8.118
  912POPC   C4B16474  22.320   8.368   7.700
  913POPC   NC316475  41.125  21.618   9.387
  913POPC   PO416476  40.499  21.348   9.496
  913POPC   GL116477  40.670  21.492   9.127
  913POPC   GL216478  40.474  21.793   9.109
  913POPC   C1A16479  40.745  21.309   8.707
  913POPC   D2A16480  40.545  21.483   8.310
  913POPC   C3A16481  40.549  21.311   7.936
  913POPC   C4A16482  40.928  21.219   7.752
  913POPC   C1B16483  40.648  21.811   8.667
  913POPC   C2B16484  40.883  21.881   8.293
  913POPC   C3B16485  40.875  21.734   7.865
  913POPC   C4B16486  40.834  21.615   7.422
  914POPC   NC316487  37.560  11.354   9.474
  914POPC   PO416488  38.134  11.763   9.469
  914POPC   GL116489  37.953  11.492   9.113
  914POPC   GL216490  37.571  11.431   8.975
  914POPC   C1A16491  37.954  11.448   8.666
  914POPC   D2A16492  37.671  11.271   8.386
  914POPC   C3A16493  37.823  11.428   8.020
  914POPC   C4A16494  37.808  11.275   7.617
  914POPC   C1B16495  37.335  11.093   8.762
  914POPC   C2B16496  37.324  10.897   8.337
  914POPC   C3B16497  37.465  11.021   7.915
  914POPC   C4B16498  37.437  11.006   7.441
  915POPC   NC316499  27.802  19.213   9.477
  915POPC   PO416500  27.676  18.590   9.729
  915POPC   GL116501  27.542  18.644   9.273
  915POPC   GL216502  27.335  18.910   9.250
  915POPC   C1A16503  27.588  18.687   8.820
  915POPC   D2A16504  27.800  18.987   8.523
  915POPC   C3A16505  27.681  18.925   8.106
  915POPC   C4A16506  27.904  18.957   7.757
  915POPC   C1B16507  27.487  19.180   8.893
  915POPC   C2B16508  27.402  19.329   8.494
  915POPC   C3B16509  27.512  19.433   8.105
  915POPC   C4B16510  27.406  19.203   7.764
  916POPC   NC316511   8.689  33.371   9.526
  916POPC   PO416512   8.089  33.143   9.638
  916POPC   GL116513   7.969  33.038   9.218
  916POPC   GL216514   8.245  33.173   9.069
  916POPC   C1A16515   7.912  32.950   8.740
  916POPC   D2A16516   8.108  32.950   8.291
  916POPC   C3A16517   8.088  32.992   7.817
  916POPC   C4A16518   8.041  32.735   7.426
  916POPC   C1B16519   8.418  32.989   8.698
  916POPC   C2B16520   8.583  33.149   8.280
  916POPC   C3B16521   8.544  33.214   7.812
  916POPC   C4B16522   8.882  33.362   7.542
  917POPC   NC316523   0.652   8.488   9.526
  917POPC   PO416524   0.089   8.108   9.585
  917POPC   GL116525   0.338   8.166   9.164
  917POPC   GL216526   0.619   8.388   9.022
  917POPC   C1A16527   0.253   8.243   8.692
  917POPC   D2A16528   0.218   8.508   8.288
  917POPC   C3A16529   0.316   8.178   7.994
  917POPC   C4A16530   0.605   7.862   7.793
  917POPC   C1B16531   0.697   8.548   8.592
  917POPC   C2B16532   0.703   8.578   8.139
  917POPC   C3B16533   0.726   8.352   7.727
  917POPC   C4B16534   0.759   8.496   7.302
  918POPC   NC316535  38.380  20.018   9.455
  918POPC   PO416536  38.281  19.317   9.470
  918POPC   GL116537  38.276  19.598   9.201
  918POPC   GL216538  38.626  19.635   9.218
  918POPC   C1A16539  38.283  19.657   8.774
  918POPC   D2A16540  38.110  19.855   8.406
  918POPC   C3A16541  38.353  20.009   8.083
  918POPC   C4A16542  38.585  19.776   7.763
  918POPC   C1B16543  38.714  19.930   8.908
  918POPC   C2B16544  38.606  20.058   8.520
  918POPC   C3B16545  38.856  20.028   8.138
  918POPC   C4B16546  38.805  20.218   7.751
  919POPC   NC316547  20.866  18.038   9.499
  919POPC   PO416548  20.259  18.308   9.537
  919POPC   GL116549  20.533  18.484   9.235
  919POPC   GL216550  20.614  18.223   9.090
  919POPC   C1A16551  20.643  18.700   8.877
  919POPC   D2A16552  20.637  18.399   8.583
  919POPC   C3A16553  20.497  18.423   8.197
  919POPC   C4A16554  20.685  18.513   7.805
  919POPC   C1B16555  20.923  18.051   8.832
  919POPC   C2B16556  20.876  17.950   8.412
  919POPC   C3B16557  21.094  17.917   8.037
  919POPC   C4B16558  21.029  17.797   7.618
  920POPC   NC316559  25.421  11.598   9.518
  920POPC   PO416560  25.111  11.001   9.462
  920POPC   GL116561  25.150  11.335   9.177
  920POPC   GL216562  25.515  11.295   9.128
  920POPC   C1A16563  25.235  11.512   8.768
  920POPC   D2A16564  25.279  11.331   8.362
  920POPC   C3A16565  25.400  11.541   8.003
  920POPC   C4A16566  25.414  11.404   7.591
  920POPC   C1B16567  25.438  11.027   8.765
  920POPC   C2B16568  25.543  10.857   8.352
  920POPC   C3B16569  25.407  11.006   7.936
  920POPC   C4B16570  25.372  10.879   7.495
  921POPC   NC316571  41.203  27.962   9.499
  921POPC   PO416572  41.778  28.241   9.435
  921POPC   GL116573  41.426  28.390   9.209
  921POPC   GL216574  41.329  28.141   9.018
  921POPC   C1A16575  41.328  28.661   8.836
  921POPC   D2A16576  41.529  28.674   8.407
  921POPC   C3A16577  41.273  28.559   8.059
  921POPC   C4A16578  41.210  28.232   7.734
  921POPC   C1B16579  41.701  28.321   8.779
  921POPC   C2B16580  41.819  28.195   8.398
  921POPC   C3B16581  41.652  28.222   8.020
  921POPC   C4B16582  41.862  28.295   7.646
  922POPC   NC316583  22.421  32.063   9.526
  922POPC   PO416584  22.195  32.638   9.587
  922POPC   GL116585  22.206  32.423   9.186
  922POPC   GL216586  22.012  32.094   9.200
  922POPC   C1A16587  22.262  32.412   8.728
  922POPC   D2A16588  22.272  32.159   8.345
  922POPC   C3A16589  22.159  32.335   7.961
  922POPC   C4A16590  22.365  32.412   7.592
  922POPC   C1B16591  22.084  31.932   8.773
  922POPC   C2B16592  21.862  31.854   8.378
  922POPC   C3B16593  21.929  31.875   7.955
  922POPC   C4B16594  22.118  31.966   7.566
  923POPC   NC316595  41.276  27.022   9.447
  923POPC   PO416596  41.894  27.062   9.269
  923POPC   GL116597  41.585  26.914   9.048
  923POPC   GL216598  41.398  26.616   9.189
  923POPC   C1A16599  41.639  26.910   8.639
  923POPC   D2A16600  41.841  26.798   8.293
  923POPC   C3A16601  41.620  26.890   7.932
  923POPC   C4A16602  41.832  26.911   7.535
  923POPC   C1B16603  41.426  26.494   8.810
  923POPC   C2B16604  41.363  26.571   8.392
  923POPC   C3B16605  41.487  26.409   8.035
  923POPC   C4B16606  41.437  26.482   7.619
  924POPC   NC316607  35.035  30.600   9.439
  924POPC   PO416608  35.581  31.012   9.449
  924POPC   GL116609  35.420  30.813   9.120
  924POPC   GL216610  35.096  30.909   9.038
  924POPC   C1A16611  35.507  30.613   8.752
  924POPC   D2A16612  35.578  30.347   8.441
  924POPC   C3A16613  35.648  30.538   8.067
  924POPC   C4A16614  35.379  30.581   7.706
  924POPC   C1B16615  35.152  30.978   8.619
  924POPC   C2B16616  35.170  30.674   8.305
  924POPC   C3B16617  34.943  30.808   7.989
  924POPC   C4B16618  34.971  30.859   7.564
  925POPC   NC316619   7.225  24.291   9.687
  925POPC   PO416620   7.634  24.608   9.389
  925POPC   GL116621   7.416  24.404   9.096
  925POPC   GL216622   7.374  24.077   9.203
  925POPC   C1A16623   7.437  24.523   8.666
  925POPC   D2A16624   7.485  24.416   8.264
  925POPC   C3A16625   7.533  24.778   8.043
  925POPC   C4A16626   7.344  24.801   7.645
  925POPC   C1B16627   7.247  24.050   8.745
  925POPC   C2B16628   7.070  24.094   8.323
  925POPC   C3B16629   7.153  24.240   7.925
  925POPC   C4B16630   7.532  24.337   7.739
  926POPC   NC316631  10.464  15.007  10.151
  926POPC   PO416632  10.863  15.237   9.793
  926POPC   GL116633  10.883  15.137   9.310
  926POPC   GL216634  10.556  15.014   9.164
  926POPC   C1A16635  10.902  15.143   8.809
  926POPC   D2A16636  10.706  15.317   8.373
  926POPC   C3A16637  10.688  15.161   7.920
  926POPC   C4A16638  10.623  15.371   7.492
  926POPC   C1B16639  10.426  14.983   8.688
  926POPC   C2B16640  10.301  15.015   8.226
  926POPC   C3B16641  10.035  15.233   7.916
  926POPC   C4B16642   9.857  15.274   7.478
  927POPC   NC316643  27.522  16.453   9.535
  927POPC   PO416644  27.835  17.088   9.590
  927POPC   GL116645  27.707  16.876   9.203
  927POPC   GL216646  27.357  16.811   9.123
  927POPC   C1A16647  27.693  16.792   8.748
  927POPC   D2A16648  27.653  16.574   8.380
  927POPC   C3A16649  27.491  16.791   8.031
  927POPC   C4A16650  27.751  17.127   7.903
  927POPC   C1B16651  27.357  16.402   8.809
  927POPC   C2B16652  27.235  16.312   8.314
  927POPC   C3B16653  27.583  16.303   7.932
  927POPC   C4B16654  27.680  16.251   7.467
  928POPC   NC316655  25.332  18.567   9.660
  928POPC   PO416656  25.331  19.209   9.521
  928POPC   GL116657  25.363  19.129   9.135
  928POPC   GL216658  25.323  18.804   9.216
  928POPC   C1A16659  25.151  19.234   8.754
  928POPC   D2A16660  25.302  19.174   8.355
  928POPC   C3A16661  25.057  19.103   8.013
  928POPC   C4A16662  25.200  19.261   7.616
  928POPC   C1B16663  25.110  18.743   8.873
  928POPC   C2B16664  25.117  18.704   8.449
  928POPC   C3B16665  25.411  18.723   8.114
  928POPC   C4B16666  25.247  18.759   7.682
  929POPC   NC316667  37.757  23.968   9.756
  929POPC   PO416668  38.361  23.714   9.515
  929POPC   GL116669  38.490  23.460   9.169
  929POPC   GL216670  38.157  23.357   9.091
  929POPC   C1A16671  38.713  23.595   8.777
  929POPC   D2A16672  38.552  23.981   8.522
  929POPC   C3A16673  38.652  24.074   8.074
  929POPC   C4A16674  38.462  23.981   7.663
  929POPC   C1B16675  38.214  23.583   8.723
  929POPC   C2B16676  38.389  23.441   8.328
  929POPC   C3B16677  38.406  23.525   7.882
  929POPC   C4B16678  38.439  23.321   7.486
  930POPC   NC316679   7.252  35.172   9.445
  930POPC   PO416680   7.518  35.752   9.672
  930POPC   GL116681   7.539  35.553   9.254
  930POPC   GL216682   7.320  35.356   8.991
  930POPC   C1A16683   7.632  35.707   8.841
  930POPC   D2A16684   7.377  35.545   8.517
  930POPC   C3A16685   7.506  35.557   8.111
  930POPC   C4A16686   7.772  35.510   7.760
  930POPC   C1B16687   7.199  35.053   8.676
  930POPC   C2B16688   7.077  35.137   8.270
  930POPC   C3B16689   7.321  35.096   7.901
  930POPC   C4B16690   7.323  35.002   7.465
  931POPC   NC316691  24.966  43.207   9.439
  931POPC   PO416692  25.583  43.504   9.441
  931POPC   GL116693  25.385  43.174   9.139
  931POPC   GL216694  25.478  42.807   9.160
  931POPC   C1A16695  25.192  43.141   8.719
  931POPC   D2A16696  25.381  43.269   8.310
  931POPC   C3A16697  25.151  43.177   7.911
  931POPC   C4A16698  24.989  42.988   7.512
  931POPC   C1B16699  25.411  42.676   8.704
  931POPC   C2B16700  25.244  42.778   8.286
  931POPC   C3B16701  25.422  42.753   7.862
  931POPC   C4B16702  25.239  42.538   7.474
  932POPC   NC316703  34.920  19.572   9.485
  932POPC   PO416704  34.404  19.932   9.662
  932POPC   GL116705  34.706  19.986   9.259
  932POPC   GL216706  34.753  19.701   9.025
  932POPC   C1A16707  34.672  20.118   8.793
  932POPC   D2A16708  34.612  19.812   8.483
  932POPC   C3A16709  34.719  19.945   8.071
  932POPC   C4A16710  34.554  19.938   7.677
  932POPC   C1B16711  34.959  19.419   8.745
  932POPC   C2B16712  34.794  19.282   8.365
  932POPC   C3B16713  34.759  19.411   7.973
  932POPC   C4B16714  34.883  19.534   7.569
  933POPC   NC316715  33.074  19.663   9.691
  933POPC   PO416716  33.126  19.062   9.351
  933POPC   GL116717  32.996  18.942   8.973
  933POPC   GL216718  32.640  18.986   8.987
  933POPC   C1A16719  33.196  19.098   8.614
  933POPC   D2A16720  33.407  19.010   8.238
  933POPC   C3A16721  33.300  19.322   7.981
  933POPC   C4A16722  33.027  19.365   7.646
  933POPC   C1B16723  32.614  18.783   8.608
  933POPC   C2B16724  32.941  18.777   8.310
  933POPC   C3B16725  33.013  18.902   7.906
  933POPC   C4B16726  32.736  18.776   7.659
  934POPC   NC316727  26.185  22.281   9.704
  934POPC   PO416728  26.818  22.028   9.482
  934POPC   GL116729  26.851  22.197   9.065
  934POPC   GL216730  26.598  22.388   8.962
  934POPC   C1A16731  26.654  21.989   8.663
  934POPC   D2A16732  26.552  21.902   8.199
  934POPC   C3A16733  26.647  22.086   7.833
  934POPC   C4A16734  27.059  22.237   7.818
  934POPC   C1B16735  26.711  22.503   8.559
  934POPC   C2B16736  26.690  22.524   8.108
  934POPC   C3B16737  26.581  22.613   7.682
  934POPC   C4B16738  26.471  22.702   7.248
  935POPC   NC316739   5.669  31.464   9.640
  935POPC   PO416740   6.181  31.763   9.662
  935POPC   GL116741   6.006  31.388   9.276
  935POPC   GL216742   5.637  31.384   9.153
  935POPC   C1A16743   5.964  31.328   8.765
  935POPC   D2A16744   5.894  31.586   8.373
  935POPC   C3A16745   6.025  31.542   7.927
  935POPC   C4A16746   5.868  31.732   7.524
  935POPC   C1B16747   5.527  31.598   8.788
  935POPC   C2B16748   5.387  31.500   8.383
  935POPC   C3B16749   5.496  31.618   7.953
  935POPC   C4B16750   5.522  31.356   7.610
  936POPC   NC316751  44.964  32.462   9.749
  936POPC   PO416752  44.577  31.978   9.528
  936POPC   GL116753  44.417  32.235   9.167
  936POPC   GL216754  44.597  32.513   9.053
  936POPC   C1A16755  44.459  32.167   8.731
  936POPC   D2A16756  44.571  32.449   8.426
  936POPC   C3A16757  44.419  32.256   8.075
  936POPC   C4A16758  44.574  32.058   7.716
  936POPC   C1B16759  44.944  32.709   8.830
  936POPC   C2B16760   0.028  32.725   8.389
  936POPC   C3B16761  44.897  32.495   8.015
  936POPC   C4B16762  44.986  32.824   7.767
  937POPC   NC316763  40.179  38.407   9.469
  937POPC   PO416764  39.482  38.168   9.475
  937POPC   GL116765  39.734  38.373   9.192
  937POPC   GL216766  39.925  38.094   9.125
  937POPC   C1A16767  39.896  38.507   8.802
  937POPC   D2A16768  39.881  38.397   8.377
  937POPC   C3A16769  40.073  38.690   8.117
  937POPC   C4A16770  40.144  38.632   7.687
  937POPC   C1B16771  40.133  38.082   8.709
  937POPC   C2B16772  40.288  38.022   8.311
  937POPC   C3B16773  40.097  38.180   7.942
  937POPC   C4B16774  40.010  38.155   7.497
  938POPC   NC316775  15.409   1.803   9.432
  938POPC   PO416776  14.802   1.674   9.205
  938POPC   GL116777  15.002   2.063   9.061
  938POPC   GL216778  15.358   2.059   8.993
  938POPC   C1A16779  15.066   2.226   8.622
  938POPC   D2A16780  15.114   1.951   8.282
  938POPC   C3A16781  14.856   2.035   7.944
  938POPC   C4A16782  14.927   2.300   7.600
  938POPC   C1B16783  15.504   1.857   8.635
  938POPC   C2B16784  15.604   2.084   8.270
  938POPC   C3B16785  15.365   2.185   7.905
  938POPC   C4B16786  15.294   1.938   7.560
  939POPC   NC316787  12.998  15.298   9.443
  939POPC   PO416788  13.312  14.730   9.619
  939POPC   GL116789  13.208  14.861   9.186
  939POPC   GL216790  12.851  14.931   9.117
  939POPC   C1A16791  13.248  15.118   8.782
  939POPC   D2A16792  13.076  15.303   8.357
  939POPC   C3A16793  12.762  15.138   8.056
  939POPC   C4A16794  12.482  15.270   7.719
  939POPC   C1B16795  12.744  15.016   8.686
  939POPC   C2B16796  12.644  14.725   8.337
  939POPC   C3B16797  12.806  14.640   7.905
  939POPC   C4B16798  12.704  14.854   7.511
  940POPC   NC316799  43.294  10.646   9.432
  940POPC   PO416800  42.890  10.213   9.339
  940POPC   GL116801  42.995  10.426   9.011
  940POPC   GL216802  43.351  10.371   8.990
  940POPC   C1A16803  43.037  10.434   8.576
  940POPC   D2A16804  42.997  10.246   8.219
  940POPC   C3A16805  42.743  10.487   7.963
  940POPC   C4A16806  42.900  10.473   7.593
  940POPC   C1B16807  43.273  10.809   8.813
  940POPC   C2B16808  43.260  10.905   8.402
  940POPC   C3B16809  43.204  10.705   8.000
  940POPC   C4B16810  43.361  10.666   7.577
  941POPC   NC316811  38.691  19.081   9.527
  941POPC   PO416812  39.346  18.959   9.514
  941POPC   GL116813  39.341  19.027   9.133
  941POPC   GL216814  39.011  19.110   9.128
  941POPC   C1A16815  39.563  18.934   8.767
  941POPC   D2A16816  39.390  18.741   8.419
  941POPC   C3A16817  39.517  18.910   8.062
  941POPC   C4A16818  39.215  19.116   7.777
  941POPC   C1B16819  39.008  18.930   8.740
  941POPC   C2B16820  38.843  18.751   8.401
  941POPC   C3B16821  38.838  18.987   8.086
  941POPC   C4B16822  38.780  18.817   7.715
  942POPC   NC316823  10.885  11.888   9.667
  942POPC   PO416824  10.484  12.395   9.617
  942POPC   GL116825  10.573  12.149   9.259
  942POPC   GL216826  10.605  11.818   9.243
  942POPC   C1A16827  10.590  12.092   8.812
  942POPC   D2A16828  10.604  12.263   8.399
  942POPC   C3A16829  10.299  12.186   8.056
  942POPC   C4A16830  10.302  12.389   7.641
  942POPC   C1B16831  10.863  11.654   8.882
  942POPC   C2B16832  10.831  11.774   8.463
  942POPC   C3B16833  10.901  11.996   8.098
  942POPC   C4B16834  10.684  12.048   7.741
  943POPC   NC316835  40.172  11.707   9.522
  943POPC   PO416836  39.956  11.059   9.675
  943POPC   GL116837  40.115  11.251   9.280
  943POPC   GL216838  39.869  11.485   9.162
  943POPC   C1A16839  40.182  11.313   8.794
  943POPC   D2A16840  40.039  11.571   8.466
  943POPC   C3A16841  40.120  11.391   8.064
  943POPC   C4A16842  40.426  11.525   7.771
  943POPC   C1B16843  39.680  11.313   8.795
  943POPC   C2B16844  39.845  11.083   8.451
  943POPC   C3B16845  39.675  11.146   8.078
  943POPC   C4B16846  39.704  11.123   7.659
  944POPC   NC316847  13.811   1.233   9.409
  944POPC   PO416848  13.237   0.863   9.471
  944POPC   GL116849  13.406   1.077   9.101
  944POPC   GL216850  13.205   1.343   9.139
  944POPC   C1A16851  13.640   1.038   8.682
  944POPC   D2A16852  13.609   0.715   8.317
  944POPC   C3A16853  13.528   0.898   7.910
  944POPC   C4A16854  13.787   1.258   7.909
  944POPC   C1B16855  13.434   1.519   8.770
  944POPC   C2B16856  13.514   1.438   8.324
  944POPC   C3B16857  13.268   1.345   7.935
  944POPC   C4B16858  13.010   1.298   7.599
  945POPC   NC316859  42.511  30.009   9.352
  945POPC   PO416860  41.911  30.236   9.396
  945POPC   GL116861  42.156  30.172   9.033
  945POPC   GL216862  42.134  29.831   9.028
  945POPC   C1A16863  42.374  30.084   8.627
  945POPC   D2A16864  42.512  29.913   8.209
  945POPC   C3A16865  42.289  30.156   7.871
  945POPC   C4A16866  42.256  30.213   7.389
  945POPC   C1B16867  42.350  29.599   8.728
  945POPC   C2B16868  42.276  29.411   8.326
  945POPC   C3B16869  42.466  29.476   7.924
  945POPC   C4B16870  42.463  29.791   7.572
  946POPC   NC316871  43.234   9.919   9.488
  946POPC   PO416872  42.560   9.902   9.661
  946POPC   GL116873  42.798   9.752   9.193
  946POPC   GL216874  43.136   9.805   9.025
  946POPC   C1A16875  42.765   9.617   8.734
  946POPC   D2A16876  42.775   9.792   8.315
  946POPC   C3A16877  42.796   9.479   7.995
  946POPC   C4A16878  42.948   9.469   7.579
  946POPC   C1B16879  43.181   9.904   8.610
  946POPC   C2B16880  43.220   9.592   8.263
  946POPC   C3B16881  43.097   9.860   7.894
  946POPC   C4B16882  43.334  10.217   7.805
  947POPC   NC316883  25.849  17.833   9.686
  947POPC   PO416884  26.205  17.272   9.471
  947POPC   GL116885  26.141  17.535   9.148
  947POPC   GL216886  25.791  17.412   9.138
  947POPC   C1A16887  26.116  17.400   8.717
  947POPC   D2A16888  25.969  17.572   8.356
  947POPC   C3A16889  26.122  17.340   7.995
  947POPC   C4A16890  26.070  17.525   7.601
  947POPC   C1B16891  25.596  17.435   8.729
  947POPC   C2B16892  25.521  17.321   8.342
  947POPC   C3B16893  25.638  17.551   7.968
  947POPC   C4B16894  25.597  17.391   7.583
  948POPC   NC316895  21.951  20.505   9.324
  948POPC   PO416896  22.578  20.696   9.543
  948POPC   GL116897  22.472  20.864   9.135
  948POPC   GL216898  22.124  20.975   9.135
  948POPC   C1A16899  22.309  20.788   8.701
  948POPC   D2A16900  22.391  20.600   8.297
  948POPC   C3A16901  22.211  20.600   7.889
  948POPC   C4A16902  22.289  20.697   7.463
  948POPC   C1B16903  21.836  20.982   8.769
  948POPC   C2B16904  21.910  20.885   8.360
  948POPC   C3B16905  21.912  21.102   8.016
  948POPC   C4B16906  21.900  20.980   7.625
  949POPC   NC316907  24.281  29.311   9.482
  949POPC   PO416908  24.503  28.631   9.396
  949POPC   GL116909  24.609  28.860   9.051
  949POPC   GL216910  24.282  29.027   9.062
  949POPC   C1A16911  24.521  29.000   8.621
  949POPC   D2A16912  24.353  29.369   8.401
  949POPC   C3A16913  24.235  29.368   7.969
  949POPC   C4A16914  24.184  29.357   7.510
  949POPC   C1B16915  23.952  29.020   8.761
  949POPC   C2B16916  23.899  29.130   8.356
  949POPC   C3B16917  23.881  28.947   8.010
  949POPC   C4B16918  24.167  28.901   7.718
  950POPC   NC316919   5.539  12.002   9.329
  950POPC   PO416920   6.162  11.837   9.486
  950POPC   GL116921   5.921  11.765   9.068
  950POPC   GL216922   6.131  11.725   8.761
  950POPC   C1A16923   5.665  11.873   8.685
  950POPC   D2A16924   5.941  11.921   8.308
  950POPC   C3A16925   5.837  11.844   7.880
  950POPC   C4A16926   5.588  12.118   7.591
  950POPC   C1B16927   6.017  12.213   8.763
  950POPC   C2B16928   5.865  12.440   8.393
  950POPC   C3B16929   5.910  12.351   7.940
  950POPC   C4B16930   6.079  12.175   7.538
  951POPC   NC316931  21.428  10.421   9.569
  951POPC   PO416932  21.740  11.136   9.448
  951POPC   GL116933  21.567  10.784   9.131
  951POPC   GL216934  21.451  10.399   9.085
  951POPC   C1A16935  21.547  10.638   8.673
  951POPC   D2A16936  21.746  10.461   8.341
  951POPC   C3A16937  21.540  10.647   8.057
  951POPC   C4A16938  21.507  10.615   7.682
  951POPC   C1B16939  21.178  10.258   8.751
  951POPC   C2B16940  21.243  10.335   8.320
  951POPC   C3B16941  21.342  10.144   7.937
  951POPC   C4B16942  20.901  10.040   7.840
  952POPC   NC316943  10.307  22.575   9.722
  952POPC   PO416944  10.683  23.118   9.453
  952POPC   GL116945  10.769  23.011   9.061
  952POPC   GL216946  11.089  23.160   9.128
  952POPC   C1A16947  10.585  22.746   8.747
  952POPC   D2A16948  10.281  22.521   8.497
  952POPC   C3A16949  10.315  22.502   8.079
  952POPC   C4A16950  10.444  22.666   7.727
  952POPC   C1B16951  11.190  22.955   8.785
  952POPC   C2B16952  10.962  22.902   8.429
  952POPC   C3B16953  10.654  22.919   8.127
  952POPC   C4B16954  10.817  22.990   7.719
  953POPC   NC316955  11.027   6.290   9.403
  953POPC   PO416956  11.433   6.814   9.646
  953POPC   GL116957  11.548   6.750   9.216
  953POPC   GL216958  11.464   6.413   9.102
  953POPC   C1A16959  11.600   6.804   8.795
  953POPC   D2A16960  11.526   6.614   8.402
  953POPC   C3A16961  11.429   6.870   8.064
  953POPC   C4A16962  11.240   6.804   7.675
  953POPC   C1B16963  11.152   6.523   8.790
  953POPC   C2B16964  10.999   6.382   8.391
  953POPC   C3B16965  11.148   6.375   7.969
  953POPC   C4B16966  11.116   6.056   7.637
  954POPC   NC316967  43.519  34.075   9.380
  954POPC   PO416968  43.821  33.422   9.551
  954POPC   GL116969  43.796  33.712   9.175
  954POPC   GL216970  44.053  33.542   9.033
  954POPC   C1A16971  43.731  33.928   8.761
  954POPC   D2A16972  43.864  33.672   8.389
  954POPC   C3A16973  43.854  33.886   7.986
  954POPC   C4A16974  44.034  34.001   7.552
  954POPC   C1B16975  44.226  33.824   8.759
  954POPC   C2B16976  44.437  33.813   8.381
  954POPC   C3B16977  44.350  33.800   7.938
  954POPC   C4B16978  44.393  33.643   7.528
  955POPC   NC316979  44.265   2.690   9.416
  955POPC   PO416980  44.698   2.900   9.905
  955POPC   GL116981  44.712   2.919   9.416
  955POPC   GL216982  44.532   3.120   9.226
  955POPC   C1A16983  44.717   2.788   8.912
  955POPC   D2A16984  44.566   2.858   8.481
  955POPC   C3A16985  44.458   2.579   8.106
  955POPC   C4A16986  44.677   2.744   7.747
  955POPC   C1B16987  44.336   3.119   8.860
  955POPC   C2B16988  44.250   3.259   8.438
  955POPC   C3B16989  44.393   3.089   8.064
  955POPC   C4B16990  44.320   3.130   7.686
  956POPC   NC316991  43.387  33.188   9.511
  956POPC   PO416992  43.051  33.847   9.428
  956POPC   GL116993  43.006  33.765   9.025
  956POPC   GL216994  43.142  33.435   9.092
  956POPC   C1A16995  43.117  33.995   8.673
  956POPC   D2A16996  42.905  33.946   8.316
  956POPC   C3A16997  43.105  33.982   7.948
  956POPC   C4A16998  43.016  33.642   7.671
  956POPC   C1B16999  43.383  33.564   8.739
  956POPC   C2B17000  43.340  33.647   8.323
  956POPC   C3B17001  43.458  33.569   7.926
  956POPC   C4B17002  43.506  33.892   7.612
  957POPC   NC317003  43.778   6.423   9.702
  957POPC   PO417004  44.425   6.448   9.624
  957POPC   GL117005  44.144   6.619   9.254
  957POPC   GL217006  43.765   6.666   9.230
  957POPC   C1A17007  44.108   6.805   8.831
  957POPC   D2A17008  43.923   6.587   8.456
  957POPC   C3A17009  43.940   6.739   8.027
  957POPC   C4A17010  43.856   6.717   7.566
  957POPC   C1B17011  43.591   6.795   8.796
  957POPC   C2B17012  43.528   6.886   8.318
  957POPC   C3B17013  43.447   6.755   7.862
  957POPC   C4B17014  43.405   6.885   7.400
  958POPC   NC317015  42.585  33.974   9.604
  958POPC   PO417016  42.540  34.698   9.545
  958POPC   GL117017  42.422  34.713   9.100
  958POPC   GL217018  42.370  34.366   9.083
  958POPC   C1A17019  42.316  34.816   8.659
  958POPC   D2A17020  42.616  34.898   8.280
  958POPC   C3A17021  42.472  34.843   7.848
  958POPC   C4A17022  42.517  34.892   7.356
  958POPC   C1B17023  42.194  34.297   8.693
  958POPC   C2B17024  42.344  34.443   8.289
  958POPC   C3B17025  42.235  34.264   7.946
  958POPC   C4B17026  41.835  34.251   7.832
  959POPC   NC317027  27.413  44.058   9.502
  959POPC   PO417028  27.884  43.640   9.587
  959POPC   GL117029  27.744  43.771   9.227
  959POPC   GL217030  27.952  44.069   9.250
  959POPC   C1A17031  27.565  43.620   8.839
  959POPC   D2A17032  27.609  43.788   8.428
  959POPC   C3A17033  27.460  43.626   8.004
  959POPC   C4A17034  27.312  43.928   7.701
  959POPC   C1B17035  27.726  44.164   8.866
  959POPC   C2B17036  27.778  44.305   8.449
  959POPC   C3B17037  27.637  44.167   8.067
  959POPC   C4B17038  27.841  44.079   7.711
  960POPC   NC317039  43.940   9.231   9.656
  960POPC   PO417040  43.549   8.663   9.615
  960POPC   GL117041  43.833   8.842   9.273
  960POPC   GL217042  43.894   9.208   9.136
  960POPC   C1A17043  43.739   8.763   8.834
  960POPC   D2A17044  43.876   8.825   8.416
  960POPC   C3A17045  43.716   8.653   8.058
  960POPC   C4A17046  43.628   8.906   7.722
  960POPC   C1B17047  44.146   9.072   8.769
  960POPC   C2B17048  44.353   8.981   8.366
  960POPC   C3B17049  44.110   8.985   7.974
  960POPC   C4B17050  43.918   9.330   7.779
  961POPC   NC317051  36.836  41.963   9.523
  961POPC   PO417052  37.214  42.500   9.311
  961POPC   GL117053  37.181  42.176   9.042
  961POPC   GL217054  36.851  42.136   9.050
  961POPC   C1A17055  37.225  42.166   8.582
  961POPC   D2A17056  37.058  42.355   8.218
  961POPC   C3A17057  37.168  42.241   7.801
  961POPC   C4A17058  37.180  42.489   7.432
  961POPC   C1B17059  36.701  42.353   8.699
  961POPC   C2B17060  36.566  42.293   8.313
  961POPC   C3B17061  36.641  42.394   7.903
  961POPC   C4B17062  36.747  42.205   7.524
  962POPC   NC317063  40.386  27.386   9.495
  962POPC   PO417064  40.775  27.900   9.335
  962POPC   GL117065  41.062  27.674   9.105
  962POPC   GL217066  40.983  27.301   9.068
  962POPC   C1A17067  41.116  27.773   8.710
  962POPC   D2A17068  41.046  27.543   8.343
  962POPC   C3A17069  41.103  27.803   8.003
  962POPC   C4A17070  40.763  27.932   7.736
  962POPC   C1B17071  40.617  27.087   8.784
  962POPC   C2B17072  40.405  26.976   8.350
  962POPC   C3B17073  40.592  26.984   7.932
  962POPC   C4B17074  40.786  27.384   7.802
  963POPC   NC317075  11.420   8.995   9.608
  963POPC   PO417076  10.758   9.144   9.599
  963POPC   GL117077  11.086   9.119   9.221
  963POPC   GL217078  11.286   8.782   9.160
  963POPC   C1A17079  11.047   9.003   8.767
  963POPC   D2A17080  10.968   8.790   8.355
  963POPC   C3A17081  11.137   9.024   8.022
  963POPC   C4A17082  11.281   9.182   7.652
  963POPC   C1B17083  11.328   8.584   8.707
  963POPC   C2B17084  11.466   8.688   8.248
  963POPC   C3B17085  11.601   8.828   7.812
  963POPC   C4B17086  11.633   8.944   7.361
  964POPC   NC317087  16.348   3.735   9.558
  964POPC   PO417088  16.944   3.313   9.505
  964POPC   GL117089  16.931   3.458   9.133
  964POPC   GL217090  16.800   3.784   9.174
  964POPC   C1A17091  16.758   3.469   8.746
  964POPC   D2A17092  16.938   3.583   8.393
  964POPC   C3A17093  16.951   3.254   8.103
  964POPC   C4A17094  16.782   3.476   7.757
  964POPC   C1B17095  16.440   3.851   8.896
  964POPC   C2B17096  16.469   3.830   8.457
  964POPC   C3B17097  16.291   3.786   8.047
  964POPC   C4B17098  16.348   3.699   7.621
  965POPC   NC317099  36.745  14.977   9.341
  965POPC   PO417100  36.669  15.661   9.326
  965POPC   GL117101  36.621  15.355   9.029
  965POPC   GL217102  36.971  15.312   9.039
  965POPC   C1A17103  36.585  15.005   8.704
  965POPC   D2A17104  36.702  15.050   8.264
  965POPC   C3A17105  36.734  15.422   8.014
  965POPC   C4A17106  36.608  15.145   7.665
  965POPC   C1B17107  36.929  15.381   8.610
  965POPC   C2B17108  37.256  15.412   8.355
  965POPC   C3B17109  37.200  15.245   7.971
  965POPC   C4B17110  37.101  15.206   7.552
  966POPC   NC317111  36.840  31.100   9.522
  966POPC   PO417112  36.732  30.364   9.467
  966POPC   GL117113  36.950  30.564   9.139
  966POPC   GL217114  36.752  30.829   9.120
  966POPC   C1A17115  37.080  30.775   8.750
  966POPC   D2A17116  37.271  30.621   8.405
  966POPC   C3A17117  37.083  30.762   8.015
  966POPC   C4A17118  36.790  30.607   7.755
  966POPC   C1B17119  36.571  30.752   8.737
  966POPC   C2B17120  36.720  30.905   8.372
  966POPC   C3B17121  36.527  30.946   7.998
  966POPC   C4B17122  36.347  31.158   7.660
  967POPC   NC317123  33.339  21.306   9.468
  967POPC   PO417124  32.757  21.630   9.441
  967POPC   GL117125  32.982  21.463   9.053
  967POPC   GL217126  33.224  21.182   8.995
  967POPC   C1A17127  32.988  21.392   8.590
  967POPC   D2A17128  33.065  21.156   8.212
  967POPC   C3A17129  33.173  21.325   7.832
  967POPC   C4A17130  32.866  21.641   7.742
  967POPC   C1B17131  33.440  21.512   8.792
  967POPC   C2B17132  33.372  21.758   8.468
  967POPC   C3B17133  33.259  21.782   8.051
  967POPC   C4B17134  33.336  21.766   7.600
  968POPC   NC317135  34.731  41.274   9.825
  968POPC   PO417136  34.750  41.857   9.553
  968POPC   GL117137  34.633  41.546   9.303
  968POPC   GL217138  34.966  41.528   9.173
  968POPC   C1A17139  34.437  41.438   8.918
  968POPC   D2A17140  34.392  41.306   8.504
  968POPC   C3A17141  34.260  41.592   8.214
  968POPC   C4A17142  34.353  41.538   7.779
  968POPC   C1B17143  34.868  41.675   8.765
  968POPC   C2B17144  34.732  41.703   8.340
  968POPC   C3B17145  34.849  41.584   7.951
  968POPC   C4B17146  35.032  41.787   7.652
  969POPC   NC317147  40.452  13.019   9.716
  969POPC   PO417148  39.893  12.739   9.390
  969POPC   GL117149  39.844  12.791   9.030
  969POPC   GL217150  39.704  13.105   9.011
  969POPC   C1A17151  39.945  12.581   8.682
  969POPC   D2A17152  40.206  12.495   8.345
  969POPC   C3A17153  39.992  12.596   7.945
  969POPC   C4A17154  40.080  12.441   7.509
  969POPC   C1B17155  39.974  13.101   8.662
  969POPC   C2B17156  40.112  13.000   8.281
  969POPC   C3B17157  39.819  13.154   8.046
  969POPC   C4B17158  39.624  12.914   7.733
  970POPC   NC317159   5.282  37.543   9.491
  970POPC   PO417160   4.887  38.055   9.422
  970POPC   GL117161   5.070  37.826   9.118
  970POPC   GL217162   4.809  37.572   9.187
  970POPC   C1A17163   5.086  37.636   8.704
  970POPC   D2A17164   5.245  37.367   8.362
  970POPC   C3A17165   5.431  37.610   8.034
  970POPC   C4A17166   5.254  37.922   7.745
  970POPC   C1B17167   4.633  37.868   8.856
  970POPC   C2B17168   4.673  37.792   8.432
  970POPC   C3B17169   4.888  37.679   8.045
  970POPC   C4B17170   5.052  37.423   7.741
  971POPC   NC317171  25.530   4.964   9.465
  971POPC   PO417172  25.152   5.449   9.190
  971POPC   GL117173  25.332   5.094   9.005
  971POPC   GL217174  25.617   5.237   9.024
  971POPC   C1A17175  25.424   5.014   8.574
  971POPC   D2A17176  25.099   5.043   8.255
  971POPC   C3A17177  25.273   4.929   7.897
  971POPC   C4A17178  25.702   4.935   7.898
  971POPC   C1B17179  25.658   5.453   8.656
  971POPC   C2B17180  25.472   5.438   8.243
  971POPC   C3B17181  25.307   5.428   7.837
  971POPC   C4B17182  25.362   5.522   7.417
  972POPC   NC317183  19.344  34.635   9.552
  972POPC   PO417184  18.658  34.465   9.563
  972POPC   GL117185  18.749  34.674   9.158
  972POPC   GL217186  19.103  34.615   9.118
  972POPC   C1A17187  18.839  34.525   8.711
  972POPC   D2A17188  19.082  34.376   8.366
  972POPC   C3A17189  18.924  34.564   8.037
  972POPC   C4A17190  18.915  34.658   7.627
  972POPC   C1B17191  19.354  34.593   8.750
  972POPC   C2B17192  19.580  34.547   8.344
  972POPC   C3B17193  19.428  34.724   7.957
  972POPC   C4B17194  19.431  34.625   7.561
  973POPC   NC317195  14.285  30.068   9.558
  973POPC   PO417196  14.756  29.814   9.496
  973POPC   GL117197  14.438  29.727   9.203
  973POPC   GL217198  14.568  29.434   9.171
  973POPC   C1A17199  14.361  29.753   8.766
  973POPC   D2A17200  14.178  29.817   8.356
  973POPC   C3A17201  14.339  29.934   7.958
  973POPC   C4A17202  14.550  30.185   7.642
  973POPC   C1B17203  14.787  29.468   8.782
  973POPC   C2B17204  14.815  29.836   8.515
  973POPC   C3B17205  14.839  29.925   8.078
  973POPC   C4B17206  14.746  29.682   7.718
  974POPC   NC317207   3.543  35.725   9.509
  974POPC   PO417208   3.359  35.159   9.491
  974POPC   GL117209   3.479  35.353   9.178
  974POPC   GL217210   3.222  35.598   9.127
  974POPC   C1A17211   3.715  35.295   8.828
  974POPC   D2A17212   3.613  35.489   8.475
  974POPC   C3A17213   3.695  35.234   8.123
  974POPC   C4A17214   3.894  35.319   7.769
  974POPC   C1B17215   3.199  35.339   8.770
  974POPC   C2B17216   3.260  35.138   8.400
  974POPC   C3B17217   3.209  35.198   7.980
  974POPC   C4B17218   3.235  35.412   7.611
  975POPC   NC317219   9.382   0.213   9.363
  975POPC   PO417220   8.684   0.438   9.533
  975POPC   GL117221   8.933   0.468   9.183
  975POPC   GL217222   9.165   0.740   9.285
  975POPC   C1A17223   8.931   0.408   8.735
  975POPC   D2A17224   9.099   0.250   8.343
  975POPC   C3A17225   8.850   0.312   7.986
  975POPC   C4A17226   8.908   0.238   7.542
  975POPC   C1B17227   9.181   0.856   8.854
  975POPC   C2B17228   9.359   0.689   8.464
  975POPC   C3B17229   9.299   0.621   8.011
  975POPC   C4B17230   8.981   0.731   7.721
  976POPC   NC317231  31.644   4.897   9.838
  976POPC   PO417232  31.524   4.219   9.589
  976POPC   GL117233  31.469   4.299   9.197
  976POPC   GL217234  31.696   4.594   9.244
  976POPC   C1A17235  31.294   4.090   8.837
  976POPC   D2A17236  31.335   4.220   8.405
  976POPC   C3A17237  31.217   4.106   8.008
  976POPC   C4A17238  31.597   4.062   7.782
  976POPC   C1B17239  31.436   4.720   8.898
  976POPC   C2B17240  31.506   4.708   8.459
  976POPC   C3B17241  31.479   4.567   8.016
  976POPC   C4B17242  31.488   4.607   7.591
  977POPC   NC317243  41.886  16.441   9.676
  977POPC   PO417244  41.188  16.522   9.637
  977POPC   GL117245  41.218  16.566   9.193
  977POPC   GL217246  41.569  16.518   9.129
  977POPC   C1A17247  41.218  16.648   8.750
  977POPC   D2A17248  41.249  16.460   8.364
  977POPC   C3A17249  41.292  16.760   8.036
  977POPC   C4A17250  41.636  16.682   7.791
  977POPC   C1B17251  41.741  16.611   8.687
  977POPC   C2B17252  41.731  16.860   8.278
  977POPC   C3B17253  42.016  16.982   7.914
  977POPC   C4B17254  42.212  16.967   7.498
  978POPC   NC317255   3.315  24.349   9.218
  978POPC   PO417256   2.864  24.112   9.477
  978POPC   GL117257   2.853  24.218   9.035
  978POPC   GL217258   2.876  24.585   9.037
  978POPC   C1A17259   2.828  24.224   8.563
  978POPC   D2A17260   2.743  24.474   8.174
  978POPC   C3A17261   2.666  24.312   7.733
  978POPC   C4A17262   2.347  24.282   7.367
  978POPC   C1B17263   3.084  24.658   8.642
  978POPC   C2B17264   3.247  24.453   8.265
  978POPC   C3B17265   3.130  24.535   7.824
  978POPC   C4B17266   2.973  24.612   7.399
  979POPC   NC317267  15.443  12.365   9.617
  979POPC   PO417268  15.542  11.654   9.506
  979POPC   GL117269  15.363  12.014   9.213
  979POPC   GL217270  15.596  12.317   9.134
  979POPC   C1A17271  15.076  11.920   8.827
  979POPC   D2A17272  14.815  11.983   8.430
  979POPC   C3A17273  14.990  12.003   8.016
  979POPC   C4A17274  14.965  11.838   7.603
  979POPC   C1B17275  15.533  12.129   8.737
  979POPC   C2B17276  15.358  11.968   8.383
  979POPC   C3B17277  15.485  12.193   8.047
  979POPC   C4B17278  15.503  12.113   7.629
  980POPC   NC317279  37.833  31.037   9.429
  980POPC   PO417280  37.556  30.441   9.482
  980POPC   GL117281  37.513  30.484   9.076
  980POPC   GL217282  37.843  30.343   8.995
  980POPC   C1A17283  37.569  30.841   8.834
  980POPC   D2A17284  37.674  30.997   8.455
  980POPC   C3A17285  37.593  30.813   8.075
  980POPC   C4A17286  37.788  30.872   7.747
  980POPC   C1B17287  37.717  30.388   8.590
  980POPC   C2B17288  37.973  30.537   8.269
  980POPC   C3B17289  37.937  30.403   7.843
  980POPC   C4B17290  37.764  30.511   7.410
  981POPC   NC317291  14.164  14.529   9.402
  981POPC   PO417292  14.873  14.622   9.503
  981POPC   GL117293  14.611  14.573   9.184
  981POPC   GL217294  14.626  14.204   9.217
  981POPC   C1A17295  14.458  14.544   8.779
  981POPC   D2A17296  14.652  14.550   8.392
  981POPC   C3A17297  14.456  14.544   8.004
  981POPC   C4A17298  14.478  14.494   7.567
  981POPC   C1B17299  14.382  14.033   8.864
  981POPC   C2B17300  14.198  14.134   8.462
  981POPC   C3B17301  14.322  14.044   8.058
  981POPC   C4B17302  14.361  14.011   7.634
  982POPC   NC317303  40.906  17.775   9.452
  982POPC   PO417304  41.093  17.161   9.115
  982POPC   GL117305  40.838  17.511   9.017
  982POPC   GL217306  40.516  17.569   9.131
  982POPC   C1A17307  40.745  17.694   8.668
  982POPC   D2A17308  40.908  17.682   8.279
  982POPC   C3A17309  40.992  17.519   7.898
  982POPC   C4A17310  40.923  17.776   7.570
  982POPC   C1B17311  40.292  17.470   8.756
  982POPC   C2B17312  40.372  17.653   8.327
  982POPC   C3B17313  40.506  17.681   7.901
  982POPC   C4B17314  40.490  17.336   7.595
  983POPC   NC317315  15.378  19.928   9.391
  983POPC   PO417316  14.820  19.518   9.470
  983POPC   GL117317  15.050  19.619   9.081
  983POPC   GL217318  15.448  19.627   8.994
  983POPC   C1A17319  15.065  19.742   8.655
  983POPC   D2A17320  15.391  19.671   8.352
  983POPC   C3A17321  15.287  19.835   7.948
  983POPC   C4A17322  15.329  19.669   7.534
  983POPC   C1B17323  15.484  20.026   8.729
  983POPC   C2B17324  15.371  20.181   8.324
  983POPC   C3B17325  15.622  20.225   7.960
  983POPC   C4B17326  15.543  20.110   7.550
  984POPC   NC317327   6.804  27.691   9.669
  984POPC   PO417328   7.071  27.144   9.428
  984POPC   GL117329   6.800  27.434   9.197
  984POPC   GL217330   6.695  27.781   9.142
  984POPC   C1A17331   6.716  27.462   8.753
  984POPC   D2A17332   6.723  27.866   8.535
  984POPC   C3A17333   6.594  27.842   8.101
  984POPC   C4A17334   6.693  27.623   7.715
  984POPC   C1B17335   6.320  27.816   8.838
  984POPC   C2B17336   6.251  28.031   8.444
  984POPC   C3B17337   6.081  27.994   8.053
  984POPC   C4B17338   6.186  28.116   7.646
  985POPC   NC317339   6.069   8.847   9.322
  985POPC   PO417340   5.684   9.287   9.707
  985POPC   GL117341   5.801   9.317   9.181
  985POPC   GL217342   5.821   9.005   8.905
  985POPC   C1A17343   5.558   9.409   8.789
  985POPC   D2A17344   5.473   9.132   8.449
  985POPC   C3A17345   5.753   9.152   8.110
  985POPC   C4A17346   5.647   9.092   7.684
  985POPC   C1B17347   6.200   8.918   8.669
  985POPC   C2B17348   6.335   8.760   8.297
  985POPC   C3B17349   6.315   8.495   7.928
  985POPC   C4B17350   6.177   8.598   7.477
  986POPC   NC317351  10.167   7.889   9.421
  986POPC   PO417352  10.682   8.342   9.467
  986POPC   GL117353  10.598   8.477   9.055
  986POPC   GL217354  10.327   8.246   9.027
  986POPC   C1A17355  10.656   8.349   8.629
  986POPC   D2A17356  10.479   8.135   8.285
  986POPC   C3A17357  10.573   8.349   7.930
  986POPC   C4A17358  10.824   8.013   7.838
  986POPC   C1B17359  10.110   8.096   8.654
  986POPC   C2B17360   9.999   7.943   8.239
  986POPC   C3B17361  10.314   7.818   7.893
  986POPC   C4B17362  10.382   7.715   7.421
  987POPC   NC317363  19.752   3.418   9.686
  987POPC   PO417364  20.219   3.781   9.597
  987POPC   GL117365  19.982   3.873   9.202
  987POPC   GL217366  19.614   3.796   9.250
  987POPC   C1A17367  19.943   3.952   8.739
  987POPC   D2A17368  19.869   3.811   8.302
  987POPC   C3A17369  20.046   3.619   7.917
  987POPC   C4A17370  19.837   3.750   7.532
  987POPC   C1B17371  19.500   3.686   8.814
  987POPC   C2B17372  19.435   3.504   8.397
  987POPC   C3B17373  19.525   3.571   7.955
  987POPC   C4B17374  19.347   3.554   7.561
  988POPC   NC317375   4.675  24.371   9.514
  988POPC   PO417376   5.340  24.399   9.434
  988POPC   GL117377   5.179  24.186   9.050
  988POPC   GL217378   4.882  23.996   9.050
  988POPC   C1A17379   4.969  24.387   8.677
  988POPC   D2A17380   4.872  24.581   8.259
  988POPC   C3A17381   5.154  24.663   7.891
  988POPC   C4A17382   5.158  24.846   7.477
  988POPC   C1B17383   4.987  23.891   8.611
  988POPC   C2B17384   4.754  24.086   8.303
  988POPC   C3B17385   4.891  24.199   7.902
  988POPC   C4B17386   5.277  24.185   7.755
  989POPC   NC317387   0.911  33.620   9.426
  989POPC   PO417388   1.523  33.886   9.509
  989POPC   GL117389   1.365  33.738   9.130
  989POPC   GL217390   1.249  33.403   9.073
  989POPC   C1A17391   1.197  33.969   8.770
  989POPC   D2A17392   0.937  33.814   8.431
  989POPC   C3A17393   1.041  33.985   8.053
  989POPC   C4A17394   1.387  34.000   7.781
  989POPC   C1B17395   1.315  33.501   8.640
  989POPC   C2B17396   1.404  33.665   8.244
  989POPC   C3B17397   1.485  33.491   7.826
  989POPC   C4B17398   1.488  33.487   7.363
  990POPC   NC317399  12.774  25.652   9.456
  990POPC   PO417400  12.880  26.278   9.350
  990POPC   GL117401  13.077  26.052   9.033
  990POPC   GL217402  13.137  25.660   9.076
  990POPC   C1A17403  12.913  26.201   8.634
  990POPC   D2A17404  12.630  26.287   8.286
  990POPC   C3A17405  12.834  26.306   7.903
  990POPC   C4A17406  13.145  26.275   7.591
  990POPC   C1B17407  12.883  25.696   8.719
  990POPC   C2B17408  12.838  25.814   8.293
  990POPC   C3B17409  12.722  25.799   7.864
  990POPC   C4B17410  12.936  25.826   7.446
  991POPC   NC317411  19.422  44.796   9.503
  991POPC   PO417412  19.829  44.253   9.553
  991POPC   GL117413  19.799  44.522   9.157
  991POPC   GL217414  19.584  44.830   9.032
  991POPC   C1A17415  19.677  44.425   8.724
  991POPC   D2A17416  19.705  44.605   8.313
  991POPC   C3A17417  19.674  44.435   7.912
  991POPC   C4A17418  19.617  44.552   7.458
  991POPC   C1B17419  19.358  44.848   8.633
  991POPC   C2B17420  19.413  44.996   8.167
  991POPC   C3B17421  19.707  44.983   7.771
  991POPC   C4B17422  19.880   0.226   7.396
  992POPC   NC317423  24.111  36.870   9.569
  992POPC   PO417424  24.763  36.939   9.403
  992POPC   GL117425  24.671  36.938   9.033
  992POPC   GL217426  24.350  36.889   9.107
  992POPC   C1A17427  24.684  37.035   8.628
  992POPC   D2A17428  24.444  36.815   8.325
  992POPC   C3A17429  24.612  36.824   7.921
  992POPC   C4A17430  24.966  37.094   7.796
  992POPC   C1B17431  24.193  36.999   8.761
  992POPC   C2B17432  24.041  37.135   8.406
  992POPC   C3B17433  24.130  37.037   8.011
  992POPC   C4B17434  24.131  36.831   7.644
  993POPC   NC317435   9.557  19.465   9.658
  993POPC   PO417436   9.870  19.986   9.501
  993POPC   GL117437   9.669  19.913   9.136
  993POPC   GL217438   9.515  19.611   9.184
  993POPC   C1A17439   9.778  19.947   8.681
  993POPC   D2A17440  10.061  19.956   8.304
  993POPC   C3A17441   9.863  19.935   7.880
  993POPC   C4A17442   9.948  19.889   7.394
  993POPC   C1B17443   9.525  19.505   8.771
  993POPC   C2B17444   9.410  19.725   8.387
  993POPC   C3B17445   9.414  19.646   7.956
  993POPC   C4B17446   9.595  19.592   7.592
  994POPC   NC317447   4.381  34.218   9.457
  994POPC   PO417448   4.670  34.846   9.320
  994POPC   GL117449   4.361  34.550   9.062
  994POPC   GL217450   4.241  34.152   8.986
  994POPC   C1A17451   4.285  34.674   8.640
  994POPC   D2A17452   4.010  34.970   8.430
  994POPC   C3A17453   4.104  34.907   7.997
  994POPC   C4A17454   4.475  34.737   7.767
  994POPC   C1B17455   3.906  34.332   8.716
  994POPC   C2B17456   3.952  34.436   8.295
  994POPC   C3B17457   4.292  34.318   8.041
  994POPC   C4B17458   4.232  34.080   7.692
  995POPC   NC317459   6.984  44.805   9.768
  995POPC   PO417460   6.743  44.174   9.537
  995POPC   GL117461   6.542  44.375   9.106
  995POPC   GL217462   6.731  44.691   8.973
  995POPC   C1A17463   6.431  44.487   8.616
  995POPC   D2A17464   6.816  44.648   8.341
  995POPC   C3A17465   6.967  44.443   7.940
  995POPC   C4A17466   6.738  44.539   7.548
  995POPC   C1B17467   6.869   0.034   8.684
  995POPC   C2B17468   7.076   0.082   8.268
  995POPC   C3B17469   6.853  44.949   7.874
  995POPC   C4B17470   6.493  44.999   7.560
  996POPC   NC317471  24.083  28.563   9.204
  996POPC   PO417472  24.417  28.118   9.594
  996POPC   GL117473  24.431  28.178   9.137
  996POPC   GL217474  24.685  27.989   9.018
  996POPC   C1A17475  24.317  28.320   8.683
  996POPC   D2A17476  24.217  28.646   8.376
  996POPC   C3A17477  24.241  28.468   7.972
  996POPC   C4A17478  24.590  28.598   7.710
  996POPC   C1B17479  24.661  27.952   8.580
  996POPC   C2B17480  24.617  28.198   8.254
  996POPC   C3B17481  24.821  28.177   7.886
  996POPC   C4B17482  25.014  28.229   7.507
  997POPC   NC317483  26.848  34.961   9.683
  997POPC   PO417484  26.896  34.315   9.494
  997POPC   GL117485  26.800  34.768   9.205
  997POPC   GL217486  27.140  34.753   9.255
  997POPC   C1A17487  26.692  35.028   8.753
  997POPC   D2A17488  26.930  35.055   8.344
  997POPC   C3A17489  26.734  34.966   7.957
  997POPC   C4A17490  26.740  34.580   7.793
  997POPC   C1B17491  27.032  34.631   8.792
  997POPC   C2B17492  27.170  34.571   8.378
  997POPC   C3B17493  27.195  34.725   7.969
  997POPC   C4B17494  27.117  34.724   7.467
  998POPC   NC317495  43.374   2.900   9.818
  998POPC   PO417496  43.039   2.529   9.375
  998POPC   GL117497  43.123   2.533   8.954
  998POPC   GL217498  43.106   2.900   8.995
  998POPC   C1A17499  43.138   2.632   8.501
  998POPC   D2A17500  42.928   2.964   8.253
  998POPC   C3A17501  42.814   2.762   7.898
  998POPC   C4A17502  43.085   2.405   7.840
  998POPC   C1B17503  43.406   2.979   8.732
  998POPC   C2B17504  43.514   2.992   8.314
  998POPC   C3B17505  43.337   2.907   7.927
  998POPC   C4B17506  43.626   3.063   7.651
  999POPC   NC317507   5.853  20.137   9.502
  999POPC   PO417508   5.691  19.530   9.612
  999POPC   GL117509   5.847  19.711   9.232
  999POPC   GL217510   5.507  19.782   9.189
  999POPC   C1A17511   6.025  19.933   8.878
  999POPC   D2A17512   5.964  19.699   8.485
  999POPC   C3A17513   6.073  19.810   8.085
  999POPC   C4A17514   5.965  20.175   7.862
  999POPC   C1B17515   5.540  19.877   8.757
  999POPC   C2B17516   5.465  19.666   8.404
  999POPC   C3B17517   5.587  19.894   8.089
  999POPC   C4B17518   5.435  19.822   7.763
 1000POPC   NC317519   9.913  42.689   9.540
 1000POPC   PO417520   9.563  42.143   9.439
 1000POPC   GL117521   9.640  42.319   9.053
 1000POPC   GL217522   9.952  42.499   9.067
 1000POPC   C1A17523   9.799  42.346   8.610
 1000POPC   D2A17524   9.918  42.083   8.268
 1000POPC   C3A17525   9.533  42.064   8.032
 1000POPC   C4A17526   9.532  42.263   7.635
 1000POPC   C1B17527  10.215  42.652   8.707
 1000POPC   C2B17528  10.212  42.521   8.272
 1000POPC   C3B17529   9.896  42.543   7.909
 1000POPC   C4B17530   9.831  42.619   7.418
 1001POPC   NC317531   8.256  29.480   9.840
 1001POPC   PO417532   8.355  29.991   9.496
 1001POPC   GL117533   8.267  29.813   9.117
 1001POPC   GL217534   7.975  29.619   9.156
 1001POPC   C1A17535   8.127  29.843   8.676
 1001POPC   D2A17536   8.026  30.061   8.279
 1001POPC   C3A17537   8.259  29.888   7.956
 1001POPC   C4A17538   8.388  29.990   7.525
 1001POPC   C1B17539   7.645  29.622   8.821
 1001POPC   C2B17540   7.676  29.702   8.380
 1001POPC   C3B17541   7.726  29.774   7.967
 1001POPC   C4B17542   7.943  29.660   7.639
 1002POPC   NC317543  35.976  42.180   9.457
 1002POPC   PO417544  36.645  42.384   9.529
 1002POPC   GL117545  36.400  42.337   9.193
 1002POPC   GL217546  36.391  41.996   9.254
 1002POPC   C1A17547  36.173  42.421   8.812
 1002POPC   D2A17548  36.229  42.674   8.431
 1002POPC   C3A17549  36.141  42.443   8.042
 1002POPC   C4A17550  36.213  42.551   7.602
 1002POPC   C1B17551  36.403  41.961   8.825
 1002POPC   C2B17552  36.164  42.041   8.453
 1002POPC   C3B17553  36.278  41.945   8.066
 1002POPC   C4B17554  36.283  42.070   7.675
 1003POPC   NC317555  16.374  34.832   9.478
 1003POPC   PO417556  17.054  34.608   9.686
 1003POPC   GL117557  17.008  34.478   9.201
 1003POPC   GL217558  16.711  34.672   9.123
 1003POPC   C1A17559  17.085  34.533   8.720
 1003POPC   D2A17560  16.862  34.798   8.363
 1003POPC   C3A17561  16.973  34.885   7.899
 1003POPC   C4A17562  17.026  34.545   7.607
 1003POPC   C1B17563  16.572  34.533   8.727
 1003POPC   C2B17564  16.456  34.443   8.312
 1003POPC   C3B17565  16.660  34.501   7.976
 1003POPC   C4B17566  16.473  34.714   7.702
 1004POPC   NC317567  22.942  33.443   9.501
 1004POPC   PO417568  22.695  34.044   9.334
 1004POPC   GL117569  23.101  33.822   9.135
 1004POPC   GL217570  23.253  33.504   9.114
 1004POPC   C1A17571  23.317  33.849   8.726
 1004POPC   D2A17572  23.124  33.894   8.323
 1004POPC   C3A17573  23.271  33.754   7.927
 1004POPC   C4A17574  22.954  33.835   7.630
 1004POPC   C1B17575  23.006  33.302   8.787
 1004POPC   C2B17576  23.062  33.382   8.364
 1004POPC   C3B17577  22.783  33.583   8.083
 1004POPC   C4B17578  22.582  33.511   7.725
 1005POPC   NC317579  17.583  38.444   9.515
 1005POPC   PO417580  17.407  39.078   9.618
 1005POPC   GL117581  17.323  38.739   9.208
 1005POPC   GL217582  17.350  38.340   9.085
 1005POPC   C1A17583  17.571  38.708   8.802
 1005POPC   D2A17584  17.605  38.882   8.385
 1005POPC   C3A17585  17.427  38.585   8.079
 1005POPC   C4A17586  17.186  38.281   7.811
 1005POPC   C1B17587  17.660  38.196   8.778
 1005POPC   C2B17588  17.769  38.338   8.359
 1005POPC   C3B17589  17.679  38.134   7.958
 1005POPC   C4B17590  17.635  38.247   7.551
 1006POPC   NC317591  12.511  11.969   9.466
 1006POPC   PO417592  13.042  12.277   9.406
 1006POPC   GL117593  12.871  12.075   9.040
 1006POPC   GL217594  12.487  11.994   8.969
 1006POPC   C1A17595  12.847  12.143   8.607
 1006POPC   D2A17596  12.552  12.011   8.348
 1006POPC   C3A17597  12.732  11.967   7.961
 1006POPC   C4A17598  12.973  11.682   7.794
 1006POPC   C1B17599  12.510  12.415   8.877
 1006POPC   C2B17600  12.573  12.588   8.498
 1006POPC   C3B17601  12.731  12.434   8.145
 1006POPC   C4B17602  12.619  12.405   7.741
 1007POPC   NC317603  32.185   0.905   9.437
 1007POPC   PO417604  32.666   1.384   9.518
 1007POPC   GL117605  32.551   1.248   9.134
 1007POPC   GL217606  32.442   1.572   9.043
 1007POPC   C1A17607  32.310   1.105   8.758
 1007POPC   D2A17608  32.353   1.170   8.297
 1007POPC   C3A17609  32.326   0.904   7.935
 1007POPC   C4A17610  32.685   0.828   7.657
 1007POPC   C1B17611  32.045   1.589   8.859
 1007POPC   C2B17612  32.076   1.599   8.433
 1007POPC   C3B17613  32.266   1.613   8.038
 1007POPC   C4B17614  32.263   1.360   7.696
 1008POPC   NC317615  44.328  34.465   9.362
 1008POPC   PO417616  44.965  34.443   9.580
 1008POPC   GL117617  44.807  34.584   9.191
 1008POPC   GL217618  44.575  34.869   9.171
 1008POPC   C1A17619  44.918  34.566   8.784
 1008POPC   D2A17620  44.922  34.745   8.366
 1008POPC   C3A17621   0.149  34.596   8.035
 1008POPC   C4A17622  44.969  34.411   7.699
 1008POPC   C1B17623  44.392  34.740   8.774
 1008POPC   C2B17624  44.399  34.870   8.338
 1008POPC   C3B17625  44.569  34.675   7.964
 1008POPC   C4B17626  44.440  34.351   7.660
 1009POPC   NC317627   1.239  23.601   9.857
 1009POPC   PO417628   1.706  23.333   9.701
 1009POPC   GL117629   1.529  23.525   9.256
 1009POPC   GL217630   1.333  23.854   9.171
 1009POPC   C1A17631   1.476  23.594   8.762
 1009POPC   D2A17632   1.189  23.646   8.383
 1009POPC   C3A17633   1.355  23.663   7.925
 1009POPC   C4A17634   1.281  23.753   7.458
 1009POPC   C1B17635   1.216  24.052   8.732
 1009POPC   C2B17636   1.276  24.123   8.242
 1009POPC   C3B17637   1.391  24.161   7.791
 1009POPC   C4B17638   1.715  24.087   7.455
 1010POPC   NC317639  34.773  16.904   9.666
 1010POPC   PO417640  34.987  16.340   9.577
 1010POPC   GL117641  34.707  16.459   9.187
 1010POPC   GL217642  34.604  16.835   9.183
 1010POPC   C1A17643  34.678  16.614   8.728
 1010POPC   D2A17644  34.649  16.980   8.414
 1010POPC   C3A17645  34.548  16.837   7.979
 1010POPC   C4A17646  34.705  16.682   7.545
 1010POPC   C1B17647  34.319  17.022   8.817
 1010POPC   C2B17648  34.131  17.092   8.355
 1010POPC   C3B17649  34.122  17.108   7.873
 1010POPC   C4B17650  34.150  17.013   7.408
 1011POPC   NC317651  17.336  33.376   9.579
 1011POPC   PO417652  17.631  33.979   9.621
 1011POPC   GL117653  17.653  33.894   9.180
 1011POPC   GL217654  17.649  33.543   9.122
 1011POPC   C1A17655  17.339  33.975   8.827
 1011POPC   D2A17656  17.203  33.792   8.443
 1011POPC   C3A17657  17.269  33.939   8.025
 1011POPC   C4A17658  17.304  33.601   7.719
 1011POPC   C1B17659  17.675  33.657   8.666
 1011POPC   C2B17660  17.683  33.698   8.226
 1011POPC   C3B17661  17.781  33.481   7.858
 1011POPC   C4B17662  18.116  33.613   7.619
 1012POPC   NC317663  17.236  40.148   9.468
 1012POPC   PO417664  17.851  39.875   9.486
 1012POPC   GL117665  17.635  40.018   9.115
 1012POPC   GL217666  17.652  39.682   9.038
 1012POPC   C1A17667  17.227  40.116   8.849
 1012POPC   D2A17668  17.005  40.012   8.485
 1012POPC   C3A17669  17.169  40.248   8.141
 1012POPC   C4A17670  17.413  40.130   7.787
 1012POPC   C1B17671  17.557  39.827   8.635
 1012POPC   C2B17672  17.633  40.046   8.273
 1012POPC   C3B17673  17.734  39.767   7.948
 1012POPC   C4B17674  17.590  39.588   7.600
 1013POPC   NC317675   3.820  37.117   9.606
 1013POPC   PO417676   3.198  36.722   9.791
 1013POPC   GL117677   3.412  36.861   9.400
 1013POPC   GL217678   3.720  36.641   9.362
 1013POPC   C1A17679   3.409  36.974   8.932
 1013POPC   D2A17680   3.432  37.148   8.478
 1013POPC   C3A17681   3.563  37.040   8.042
 1013POPC   C4A17682   3.268  36.810   7.754
 1013POPC   C1B17683   3.850  36.711   8.931
 1013POPC   C2B17684   3.855  36.812   8.479
 1013POPC   C3B17685   3.925  36.625   8.060
 1013POPC   C4B17686   3.787  36.778   7.654
 1014POPC   NC317687  31.191   0.812   9.383
 1014POPC   PO417688  31.783   1.167   9.591
 1014POPC   GL117689  31.521   1.165   9.251
 1014POPC   GL217690  31.663   0.886   9.184
 1014POPC   C1A17691  31.378   1.321   8.861
 1014POPC   D2A17692  31.549   1.490   8.462
 1014POPC   C3A17693  31.271   1.408   8.113
 1014POPC   C4A17694  31.403   1.281   7.716
 1014POPC   C1B17695  31.417   0.783   8.808
 1014POPC   C2B17696  31.375   1.003   8.444
 1014POPC   C3B17697  31.608   0.956   8.077
 1014POPC   C4B17698  31.461   0.758   7.721
 1015POPC   NC317699  26.627   4.544   9.396
 1015POPC   PO417700  27.020   4.010   9.690
 1015POPC   GL117701  27.080   4.245   9.289
 1015POPC   GL217702  27.088   4.592   9.185
 1015POPC   C1A17703  27.007   4.164   8.851
 1015POPC   D2A17704  26.797   4.285   8.481
 1015POPC   C3A17705  26.923   4.168   8.095
 1015POPC   C4A17706  26.607   4.215   7.818
 1015POPC   C1B17707  26.867   4.662   8.814
 1015POPC   C2B17708  26.897   4.819   8.438
 1015POPC   C3B17709  26.763   4.653   8.065
 1015POPC   C4B17710  26.979   4.592   7.737
 1016POPC   NC317711  16.385  37.530   9.520
 1016POPC   PO417712  15.801  37.623   9.743
 1016POPC   GL117713  15.927  37.797   9.338
 1016POPC   GL217714  15.637  38.004   9.236
 1016POPC   C1A17715  15.955  37.728   8.884
 1016POPC   D2A17716  15.798  37.584   8.480
 1016POPC   C3A17717  16.042  37.648   8.117
 1016POPC   C4A17718  15.890  37.504   7.714
 1016POPC   C1B17719  15.693  38.149   8.821
 1016POPC   C2B17720  15.951  38.065   8.477
 1016POPC   C3B17721  15.994  38.152   8.083
 1016POPC   C4B17722  15.919  37.999   7.697
 1017POPC   NC317723  19.400  13.159   9.472
 1017POPC   PO417724  18.972  12.697   9.670
 1017POPC   GL117725  19.144  12.778   9.241
 1017POPC   GL217726  19.514  12.699   9.254
 1017POPC   C1A17727  19.209  12.977   8.800
 1017POPC   D2A17728  19.306  13.073   8.336
 1017POPC   C3A17729  19.088  12.907   7.928
 1017POPC   C4A17730  18.894  12.995   7.482
 1017POPC   C1B17731  19.479  12.543   8.855
 1017POPC   C2B17732  19.279  12.359   8.536
 1017POPC   C3B17733  19.207  12.460   8.144
 1017POPC   C4B17734  19.404  12.536   7.730
 1018POPC   NC317735  37.786   9.757   9.686
 1018POPC   PO417736  37.209   9.689   9.906
 1018POPC   GL117737  37.262   9.830   9.414
 1018POPC   GL217738  37.438  10.126   9.244
 1018POPC   C1A17739  37.288   9.758   8.928
 1018POPC   D2A17740  37.307   9.863   8.437
 1018POPC   C3A17741  37.582   9.624   8.094
 1018POPC   C4A17742  37.735   9.501   7.642
 1018POPC   C1B17743  37.604  10.132   8.786
 1018POPC   C2B17744  37.759  10.095   8.321
 1018POPC   C3B17745  37.596  10.079   7.873
 1018POPC   C4B17746  37.706   9.999   7.446
 1019POPC   NC317747  19.731  38.167   9.515
 1019POPC   PO417748  20.147  38.648   9.627
 1019POPC   GL117749  19.977  38.488   9.216
 1019POPC   GL217750  19.625  38.584   9.219
 1019POPC   C1A17751  19.821  38.375   8.784
 1019POPC   D2A17752  19.547  38.499   8.413
 1019POPC   C3A17753  19.747  38.304   8.039
 1019POPC   C4A17754  19.963  38.352   7.636
 1019POPC   C1B17755  19.584  38.842   8.838
 1019POPC   C2B17756  19.541  39.040   8.427
 1019POPC   C3B17757  19.450  38.901   8.032
 1019POPC   C4B17758  19.498  38.595   7.694
 1020POPC   NC317759  43.110  44.177   9.620
 1020POPC   PO417760  42.925  44.802   9.421
 1020POPC   GL117761  43.171  44.725   9.070
 1020POPC   GL217762  43.201  44.349   9.133
 1020POPC   C1A17763  43.193  44.875   8.603
 1020POPC   D2A17764  42.959  44.860   8.202
 1020POPC   C3A17765  43.147  44.696   7.815
 1020POPC   C4A17766  42.872  44.513   7.496
 1020POPC   C1B17767  43.078  44.388   8.688
 1020POPC   C2B17768  43.141  44.391   8.264
 1020POPC   C3B17769  43.294  44.205   7.909
 1020POPC   C4B17770  43.298  44.273   7.519
 1021POPC   NC317771   6.543  31.962   9.457
 1021POPC   PO417772   6.649  32.629   9.485
 1021POPC   GL117773   6.659  32.393   9.153
 1021POPC   GL217774   6.323  32.306   9.150
 1021POPC   C1A17775   6.781  32.342   8.746
 1021POPC   D2A17776   6.617  32.333   8.320
 1021POPC   C3A17777   6.798  32.005   8.094
 1021POPC   C4A17778   7.008  32.113   7.737
 1021POPC   C1B17779   6.256  32.280   8.708
 1021POPC   C2B17780   6.171  32.023   8.345
 1021POPC   C3B17781   6.340  31.965   7.924
 1021POPC   C4B17782   6.559  32.365   7.797
 1022POPC   NC317783  14.425  20.881   9.476
 1022POPC   PO417784  14.187  20.292   9.481
 1022POPC   GL117785  14.226  20.512   9.106
 1022POPC   GL217786  14.082  20.850   9.079
 1022POPC   C1A17787  14.468  20.544   8.724
 1022POPC   D2A17788  14.385  20.597   8.302
 1022POPC   C3A17789  14.682  20.484   7.978
 1022POPC   C4A17790  14.672  20.271   7.591
 1022POPC   C1B17791  14.329  21.058   8.739
 1022POPC   C2B17792  14.303  21.136   8.290
 1022POPC   C3B17793  14.398  20.925   7.927
 1022POPC   C4B17794  14.161  20.911   7.589
 1023POPC   NC317795  17.819  29.587   9.313
 1023POPC   PO417796  17.592  30.132   9.564
 1023POPC   GL117797  17.386  29.994   9.199
 1023POPC   GL217798  17.680  29.967   9.023
 1023POPC   C1A17799  17.242  29.887   8.768
 1023POPC   D2A17800  17.322  29.579   8.431
 1023POPC   C3A17801  17.243  29.758   8.023
 1023POPC   C4A17802  17.241  30.109   7.723
 1023POPC   C1B17803  17.740  29.895   8.618
 1023POPC   C2B17804  17.703  29.906   8.215
 1023POPC   C3B17805  17.864  29.770   7.871
 1023POPC   C4B17806  17.516  29.688   7.587
 1024POPC   NC317807   3.620   8.453   9.660
 1024POPC   PO417808   3.752   7.873   9.461
 1024POPC   GL117809   3.500   8.203   9.230
 1024POPC   GL217810   3.738   8.483   9.160
 1024POPC   C1A17811   3.386   8.187   8.798
 1024POPC   D2A17812   3.522   7.874   8.442
 1024POPC   C3A17813   3.530   8.043   8.034
 1024POPC   C4A17814   3.321   8.177   7.669
 1024POPC   C1B17815   3.884   8.170   8.862
 1024POPC   C2B17816   3.865   8.269   8.432
 1024POPC   C3B17817   3.727   8.506   8.057
 1024POPC   C4B17818   3.801   8.289   7.644
 1025POPC   NC317819  33.170  17.093   9.657
 1025POPC   PO417820  32.881  16.654   9.492
 1025POPC   GL117821  33.002  17.013   9.175
 1025POPC   GL217822  33.370  17.101   9.127
 1025POPC   C1A17823  33.099  16.922   8.721
 1025POPC   D2A17824  33.304  16.830   8.296
 1025POPC   C3A17825  33.093  16.941   7.876
 1025POPC   C4A17826  32.944  16.724   7.466
 1025POPC   C1B17827  33.539  17.210   8.681
 1025POPC   C2B17828  33.636  17.229   8.224
 1025POPC   C3B17829  33.663  16.879   7.929
 1025POPC   C4B17830  33.448  16.779   7.553
 1026POPC   NC317831   6.978   2.838   9.506
 1026POPC   PO417832   6.371   2.961   9.532
 1026POPC   GL117833   6.605   2.921   9.155
 1026POPC   GL217834   6.741   3.209   9.035
 1026POPC   C1A17835   6.757   2.727   8.779
 1026POPC   D2A17836   6.646   2.548   8.388
 1026POPC   C3A17837   6.619   2.730   8.003
 1026POPC   C4A17838   6.415   2.821   7.612
 1026POPC   C1B17839   6.517   3.177   8.669
 1026POPC   C2B17840   6.675   3.204   8.264
 1026POPC   C3B17841   6.768   3.191   7.838
 1026POPC   C4B17842   6.814   3.133   7.439
 1027POPC   NC317843  10.773   1.099   9.652
 1027POPC   PO417844  10.071   1.276   9.731
 1027POPC   GL117845  10.158   1.299   9.241
 1027POPC   GL217846  10.387   1.533   9.140
 1027POPC   C1A17847  10.383   1.139   8.817
 1027POPC   D2A17848  10.516   1.320   8.400
 1027POPC   C3A17849  10.582   1.145   7.951
 1027POPC   C4A17850  10.496   0.792   7.653
 1027POPC   C1B17851  10.772   1.522   8.867
 1027POPC   C2B17852  10.918   1.626   8.465
 1027POPC   C3B17853  10.631   1.728   8.119
 1027POPC   C4B17854  10.762   1.593   7.745
 1028POPC   NC317855  43.680  42.542   9.621
 1028POPC   PO417856  44.279  42.462   9.367
 1028POPC   GL117857  43.857  42.300   9.177
 1028POPC   GL217858  43.522  42.458   9.132
 1028POPC   C1A17859  43.751  42.242   8.725
 1028POPC   D2A17860  44.006  42.389   8.377
 1028POPC   C3A17861  44.112  42.286   7.940
 1028POPC   C4A17862  44.161  42.557   7.565
 1028POPC   C1B17863  43.525  42.705   8.735
 1028POPC   C2B17864  43.521  42.512   8.312
 1028POPC   C3B17865  43.628  42.455   7.862
 1028POPC   C4B17866  43.670  42.599   7.418
 1029POPC   NC317867  16.447  38.525   9.446
 1029POPC   PO417868  17.113  38.362   9.560
 1029POPC   GL117869  16.874  38.469   9.165
 1029POPC   GL217870  16.697  38.195   9.002
 1029POPC   C1A17871  17.031  38.508   8.716
 1029POPC   D2A17872  16.950  38.398   8.259
 1029POPC   C3A17873  16.567  38.556   8.018
 1029POPC   C4A17874  16.463  38.873   7.702
 1029POPC   C1B17875  16.441  38.029   8.679
 1029POPC   C2B17876  16.466  38.099   8.248
 1029POPC   C3B17877  16.425  38.057   7.807
 1029POPC   C4B17878  16.481  38.096   7.357
 1030POPC   NC317879  42.821  42.521   9.488
 1030POPC   PO417880  43.388  42.177   9.551
 1030POPC   GL117881  43.094  42.149   9.194
 1030POPC   GL217882  42.722  42.018   9.221
 1030POPC   C1A17883  43.235  42.145   8.766
 1030POPC   D2A17884  43.418  41.990   8.378
 1030POPC   C3A17885  43.240  42.134   7.970
 1030POPC   C4A17886  43.340  42.206   7.499
 1030POPC   C1B17887  42.712  42.267   8.844
 1030POPC   C2B17888  42.858  42.143   8.408
 1030POPC   C3B17889  42.718  42.247   7.964
 1030POPC   C4B17890  42.842  42.233   7.522
 1031POPC   NC317891  30.349   3.397   9.657
 1031POPC   PO417892  29.806   3.730   9.601
 1031POPC   GL117893  30.033   3.660   9.193
 1031POPC   GL217894  29.800   3.560   8.903
 1031POPC   C1A17895  30.258   3.687   8.776
 1031POPC   D2A17896  29.969   3.610   8.404
 1031POPC   C3A17897  30.128   3.405   8.014
 1031POPC   C4A17898  30.555   3.333   7.842
 1031POPC   C1B17899  29.678   3.198   8.652
 1031POPC   C2B17900  29.466   3.170   8.322
 1031POPC   C3B17901  29.611   3.475   8.047
 1031POPC   C4B17902  29.741   3.416   7.632
 1032POPC   NC317903  12.454   5.186   9.523
 1032POPC   PO417904  13.076   5.403   9.571
 1032POPC   GL117905  12.908   5.140   9.215
 1032POPC   GL217906  12.548   5.015   9.040
 1032POPC   C1A17907  12.968   5.197   8.782
 1032POPC   D2A17908  12.843   5.470   8.454
 1032POPC   C3A17909  12.871   5.299   8.051
 1032POPC   C4A17910  12.869   5.494   7.674
 1032POPC   C1B17911  12.449   4.794   8.599
 1032POPC   C2B17912  12.678   4.805   8.132
 1032POPC   C3B17913  12.676   4.977   7.668
 1032POPC   C4B17914  12.464   4.831   7.246
 1033POPC   NC317915  43.839  44.243   9.832
 1033POPC   PO417916  44.088  44.144   9.214
 1033POPC   GL117917  43.626  44.043   9.156
 1033POPC   GL217918  43.511  43.678   9.171
 1033POPC   C1A17919  43.406  43.991   8.754
 1033POPC   D2A17920  43.469  43.877   8.302
 1033POPC   C3A17921  43.761  44.114   8.032
 1033POPC   C4A17922  43.766  44.068   7.581
 1033POPC   C1B17923  43.807  43.662   8.776
 1033POPC   C2B17924  43.963  43.687   8.316
 1033POPC   C3B17925  44.103  43.793   7.880
 1033POPC   C4B17926  44.247  43.920   7.472
 1034POPC   NC317927  16.088  11.677   9.496
 1034POPC   PO417928  15.905  12.294   9.560
 1034POPC   GL117929  16.035  12.068   9.175
 1034POPC   GL217930  15.815  11.814   9.100
 1034POPC   C1A17931  16.013  12.239   8.796
 1034POPC   D2A17932  16.013  12.430   8.433
 1034POPC   C3A17933  16.211  12.171   8.140
 1034POPC   C4A17934  15.949  12.255   7.810
 1034POPC   C1B17935  16.053  11.732   8.761
 1034POPC   C2B17936  15.876  11.891   8.395
 1034POPC   C3B17937  15.894  11.770   7.967
 1034POPC   C4B17938  15.867  11.801   7.507
 1035POPC   NC317939  36.370  22.510   9.364
 1035POPC   PO417940  37.057  22.858   9.491
 1035POPC   GL117941  36.990  22.858   9.067
 1035POPC   GL217942  36.813  22.544   9.073
 1035POPC   C1A17943  36.906  23.069   8.680
 1035POPC   D2A17944  36.806  22.959   8.277
 1035POPC   C3A17945  36.957  22.982   7.862
 1035POPC   C4A17946  36.660  23.007   7.515
 1035POPC   C1B17947  36.577  22.658   8.718
 1035POPC   C2B17948  36.588  22.480   8.321
 1035POPC   C3B17949  36.536  22.656   7.933
 1035POPC   C4B17950  36.823  22.542   7.620
 1036POPC   NC317951  24.079  34.214   9.380
 1036POPC   PO417952  23.566  33.771   9.482
 1036POPC   GL117953  23.712  33.769   9.064
 1036POPC   GL217954  23.989  33.579   9.066
 1036POPC   C1A17955  23.851  33.760   8.617
 1036POPC   D2A17956  23.635  33.846   8.272
 1036POPC   C3A17957  23.810  33.882   7.879
 1036POPC   C4A17958  23.792  33.903   7.419
 1036POPC   C1B17959  24.063  33.287   8.771
 1036POPC   C2B17960  24.196  33.390   8.373
 1036POPC   C3B17961  24.047  33.427   7.964
 1036POPC   C4B17962  23.649  33.423   7.739
 1037POPC   NC317963  31.275   5.940   9.456
 1037POPC   PO417964  31.938   5.976   9.570
 1037POPC   GL117965  31.715   5.843   9.169
 1037POPC   GL217966  31.511   5.574   9.182
 1037POPC   C1A17967  31.403   5.897   8.795
 1037POPC   D2A17968  31.319   6.149   8.432
 1037POPC   C3A17969  31.258   5.945   8.078
 1037POPC   C4A17970  31.512   6.031   7.740
 1037POPC   C1B17971  31.717   5.493   8.792
 1037POPC   C2B17972  31.642   5.360   8.375
 1037POPC   C3B17973  31.480   5.484   7.971
 1037POPC   C4B17974  31.666   5.384   7.564
 1038POPC   NC317975  33.731  30.094   9.694
 1038POPC   PO417976  33.711  30.430   9.166
 1038POPC   GL117977  33.837  30.024   9.090
 1038POPC   GL217978  33.557  29.880   9.227
 1038POPC   C1A17979  34.060  29.926   8.717
 1038POPC   D2A17980  33.834  29.867   8.328
 1038POPC   C3A17981  33.761  30.191   8.032
 1038POPC   C4A17982  33.990  30.081   7.661
 1038POPC   C1B17983  33.470  29.898   8.759
 1038POPC   C2B17984  33.310  29.828   8.338
 1038POPC   C3B17985  33.476  29.784   7.912
 1038POPC   C4B17986  33.502  30.043   7.548
 1039POPC   NC317987   5.525   7.278   9.614
 1039POPC   PO417988   6.175   7.186   9.606
 1039POPC   GL117989   5.918   7.175   9.241
 1039POPC   GL217990   6.117   7.414   9.091
 1039POPC   C1A17991   5.742   7.238   8.812
 1039POPC   D2A17992   5.842   7.094   8.430
 1039POPC   C3A17993   5.602   7.201   8.074
 1039POPC   C4A17994   5.806   7.070   7.744
 1039POPC   C1B17995   6.340   7.651   8.827
 1039POPC   C2B17996   6.268   7.506   8.449
 1039POPC   C3B17997   6.076   7.384   8.078
 1039POPC   C4B17998   5.870   7.642   7.776
 1040POPC   NC317999  29.825   1.467   9.618
 1040POPC   PO418000  30.355   1.097   9.410
 1040POPC   GL118001  29.953   1.198   9.212
 1040POPC   GL218002  30.068   1.412   8.977
 1040POPC   C1A18003  29.656   1.132   8.877
 1040POPC   D2A18004  29.820   1.291   8.507
 1040POPC   C3A18005  29.772   1.145   8.122
 1040POPC   C4A18006  29.883   1.380   7.768
 1040POPC   C1B18007  30.137   0.997   8.787
 1040POPC   C2B18008  30.192   0.927   8.377
 1040POPC   C3B18009  30.288   1.033   7.958
 1040POPC   C4B18010  30.285   0.848   7.557
 1041POPC   NC318011   2.575   5.463   9.305
 1041POPC   PO418012   2.879   4.959   9.657
 1041POPC   GL118013   2.780   4.987   9.228
 1041POPC   GL218014   3.017   5.225   9.103
 1041POPC   C1A18015   2.620   4.999   8.784
 1041POPC   D2A18016   2.836   5.132   8.392
 1041POPC   C3A18017   2.658   5.049   7.965
 1041POPC   C4A18018   2.744   5.224   7.545
 1041POPC   C1B18019   3.088   4.805   8.849
 1041POPC   C2B18020   3.097   4.649   8.425
 1041POPC   C3B18021   3.119   4.855   8.047
 1041POPC   C4B18022   2.995   4.775   7.652
 1042POPC   NC318023  14.813  16.646   9.554
 1042POPC   PO418024  14.268  17.103   9.493
 1042POPC   GL118025  14.247  16.731   9.182
 1042POPC   GL218026  14.581  16.532   9.099
 1042POPC   C1A18027  14.173  16.683   8.733
 1042POPC   D2A18028  14.419  16.875   8.444
 1042POPC   C3A18029  14.291  16.969   8.038
 1042POPC   C4A18030  14.337  16.630   7.760
 1042POPC   C1B18031  14.578  16.400   8.654
 1042POPC   C2B18032  14.523  16.417   8.198
 1042POPC   C3B18033  14.712  16.276   7.795
 1042POPC   C4B18034  14.692  16.494   7.396
 1043POPC   NC318035  38.911  12.016   9.653
 1043POPC   PO418036  39.627  11.799   9.510
 1043POPC   GL118037  39.359  12.049   9.201
 1043POPC   GL218038  39.000  11.925   9.169
 1043POPC   C1A18039  39.489  12.330   8.837
 1043POPC   D2A18040  39.273  12.410   8.428
 1043POPC   C3A18041  39.331  12.026   8.140
 1043POPC   C4A18042  39.289  11.986   7.666
 1043POPC   C1B18043  39.063  12.054   8.774
 1043POPC   C2B18044  38.894  12.072   8.401
 1043POPC   C3B18045  38.864  12.099   7.964
 1043POPC   C4B18046  38.891  12.311   7.547
 1044POPC   NC318047  42.696  33.538   9.361
 1044POPC   PO418048  42.166  34.104   9.476
 1044POPC   GL118049  42.160  33.872   9.150
 1044POPC   GL218050  42.467  33.859   9.084
 1044POPC   C1A18051  42.077  33.775   8.724
 1044POPC   D2A18052  41.994  33.519   8.360
 1044POPC   C3A18053  42.021  33.752   7.977
 1044POPC   C4A18054  42.242  33.600   7.631
 1044POPC   C1B18055  42.592  33.987   8.721
 1044POPC   C2B18056  42.386  33.931   8.321
 1044POPC   C3B18057  42.577  33.874   7.908
 1044POPC   C4B18058  42.650  33.926   7.467
 1045POPC   NC318059   0.568  38.786   9.443
 1045POPC   PO418060   0.521  38.118   9.495
 1045POPC   GL118061   0.472  38.354   9.133
 1045POPC   GL218062   0.205  38.606   9.155
 1045POPC   C1A18063   0.771  38.383   8.786
 1045POPC   D2A18064   0.865  38.646   8.423
 1045POPC   C3A18065   0.750  38.426   8.032
 1045POPC   C4A18066   0.372  38.285   7.790
 1045POPC   C1B18067   0.342  38.691   8.754
 1045POPC   C2B18068   0.360  38.512   8.357
 1045POPC   C3B18069   0.321  38.738   7.988
 1045POPC   C4B18070   0.266  38.950   7.614
 1046POPC   NC318071  44.309  39.874   9.641
 1046POPC   PO418072  43.691  39.801   9.596
 1046POPC   GL118073  43.921  40.079   9.337
 1046POPC   GL218074  44.069  39.821   9.192
 1046POPC   C1A18075  43.898  40.194   8.877
 1046POPC   D2A18076  43.896  39.973   8.474
 1046POPC   C3A18077  43.893  40.157   8.074
 1046POPC   C4A18078  43.922  39.959   7.716
 1046POPC   C1B18079  44.246  39.612   8.884
 1046POPC   C2B18080  44.205  39.503   8.477
 1046POPC   C3B18081  44.130  39.677   8.081
 1046POPC   C4B18082  44.184  39.500   7.677
 1047POPC   NC318083   7.143  39.324   9.758
 1047POPC   PO418084   6.446  39.350   9.590
 1047POPC   GL118085   6.558  39.271   9.163
 1047POPC   GL218086   6.737  39.579   9.115
 1047POPC   C1A18087   6.609  39.325   8.703
 1047POPC   D2A18088   6.743  39.135   8.322
 1047POPC   C3A18089   6.684  39.335   7.957
 1047POPC   C4A18090   6.662  39.216   7.502
 1047POPC   C1B18091   6.862  39.769   8.785
 1047POPC   C2B18092   6.957  39.611   8.392
 1047POPC   C3B18093   7.158  39.524   8.017
 1047POPC   C4B18094   7.013  39.552   7.620
 1048POPC   NC318095   6.637  31.297   9.455
 1048POPC   PO418096   6.270  31.773   9.133
 1048POPC   GL118097   6.615  31.897   8.968
 1048POPC   GL218098   6.742  31.570   9.016
 1048POPC   C1A18099   6.618  31.886   8.568
 1048POPC   D2A18100   6.434  31.570   8.341
 1048POPC   C3A18101   6.747  31.455   8.087
 1048POPC   C4A18102   6.824  31.642   7.706
 1048POPC   C1B18103   6.476  31.213   8.827
 1048POPC   C2B18104   6.405  31.052   8.426
 1048POPC   C3B18105   6.344  31.144   8.030
 1048POPC   C4B18106   6.582  31.196   7.673
 1049POPC   NC318107  37.439  26.893   9.382
 1049POPC   PO418108  37.811  26.294   9.576
 1049POPC   GL118109  37.815  26.572   9.190
 1049POPC   GL218110  38.076  26.821   9.176
 1049POPC   C1A18111  37.684  26.764   8.782
 1049POPC   D2A18112  37.418  26.950   8.448
 1049POPC   C3A18113  37.474  26.829   8.038
 1049POPC   C4A18114  37.723  26.628   7.770
 1049POPC   C1B18115  38.085  27.086   8.795
 1049POPC   C2B18116  37.892  27.088   8.397
 1049POPC   C3B18117  38.042  26.901   8.056
 1049POPC   C4B18118  38.166  27.025   7.677
 1050POPC   NC318119  42.829  36.633   9.594
 1050POPC   PO418120  42.943  37.285   9.587
 1050POPC   GL118121  43.012  36.968   9.244
 1050POPC   GL218122  42.709  36.815   9.129
 1050POPC   C1A18123  43.194  36.718   8.896
 1050POPC   D2A18124  43.269  36.622   8.448
 1050POPC   C3A18125  43.023  36.590   8.052
 1050POPC   C4A18126  43.257  36.655   7.648
 1050POPC   C1B18127  42.777  37.022   8.749
 1050POPC   C2B18128  42.950  37.033   8.334
 1050POPC   C3B18129  42.904  37.101   7.901
 1050POPC   C4B18130  43.074  37.143   7.496
 1051POPC   NC318131  32.731  42.062   9.528
 1051POPC   PO418132  33.306  41.799   9.370
 1051POPC   GL118133  33.098  41.740   9.026
 1051POPC   GL218134  33.077  41.371   9.045
 1051POPC   C1A18135  32.996  41.825   8.604
 1051POPC   D2A18136  32.820  42.008   8.259
 1051POPC   C3A18137  33.074  42.033   7.900
 1051POPC   C4A18138  33.217  41.768   7.621
 1051POPC   C1B18139  33.322  41.439   8.673
 1051POPC   C2B18140  33.342  41.643   8.230
 1051POPC   C3B18141  33.427  41.376   7.841
 1051POPC   C4B18142  33.446  41.151   7.421
 1052POPC   NC318143   5.051  26.540   9.385
 1052POPC   PO418144   5.364  26.916   9.874
 1052POPC   GL118145   5.239  27.009   9.379
 1052POPC   GL218146   5.414  26.851   9.132
 1052POPC   C1A18147   5.016  26.995   8.890
 1052POPC   D2A18148   5.089  27.005   8.384
 1052POPC   C3A18149   4.972  26.910   7.910
 1052POPC   C4A18150   4.789  26.752   7.494
 1052POPC   C1B18151   5.416  26.737   8.699
 1052POPC   C2B18152   5.573  26.915   8.329
 1052POPC   C3B18153   5.470  26.826   7.922
 1052POPC   C4B18154   5.487  27.019   7.528
 1053POPC   NC318155   3.694   5.977   9.534
 1053POPC   PO418156   3.170   5.499   9.619
 1053POPC   GL118157   3.350   5.646   9.223
 1053POPC   GL218158   3.688   5.752   9.080
 1053POPC   C1A18159   3.262   5.774   8.796
 1053POPC   D2A18160   3.156   5.567   8.420
 1053POPC   C3A18161   3.298   5.794   8.074
 1053POPC   C4A18162   3.445   5.742   7.686
 1053POPC   C1B18163   3.635   6.142   8.803
 1053POPC   C2B18164   3.546   6.188   8.351
 1053POPC   C3B18165   3.663   6.174   7.897
 1053POPC   C4B18166   3.666   6.295   7.446
 1054POPC   NC318167  26.632   7.007   9.565
 1054POPC   PO418168  27.074   7.420   9.429
 1054POPC   GL118169  26.804   7.480   9.092
 1054POPC   GL218170  26.673   7.163   9.079
 1054POPC   C1A18171  26.809   7.367   8.620
 1054POPC   D2A18172  27.075   7.331   8.245
 1054POPC   C3A18173  26.927   7.584   7.895
 1054POPC   C4A18174  26.687   7.903   7.698
 1054POPC   C1B18175  26.434   6.848   8.857
 1054POPC   C2B18176  26.421   6.802   8.420
 1054POPC   C3B18177  26.594   7.143   8.174
 1054POPC   C4B18178  26.770   7.132   7.758
 1055POPC   NC318179   0.964   7.538   9.531
 1055POPC   PO418180   1.590   7.384   9.495
 1055POPC   GL118181   1.342   7.483   9.170
 1055POPC   GL218182   1.206   7.805   9.172
 1055POPC   C1A18183   1.185   7.491   8.773
 1055POPC   D2A18184   0.900   7.545   8.494
 1055POPC   C3A18185   1.162   7.479   8.144
 1055POPC   C4A18186   1.237   7.416   7.719
 1055POPC   C1B18187   1.549   7.853   8.877
 1055POPC   C2B18188   1.596   7.735   8.462
 1055POPC   C3B18189   1.648   7.624   8.037
 1055POPC   C4B18190   1.557   7.771   7.615
 1056POPC   NC318191  20.224  29.119   9.282
 1056POPC   PO418192  20.044  29.723   9.526
 1056POPC   GL118193  19.807  29.601   9.124
 1056POPC   GL218194  19.566  29.312   9.150
 1056POPC   C1A18195  19.919  29.399   8.697
 1056POPC   D2A18196  19.748  29.158   8.331
 1056POPC   C3A18197  20.044  29.153   7.997
 1056POPC   C4A18198  20.187  28.869   7.739
 1056POPC   C1B18199  19.420  29.461   8.739
 1056POPC   C2B18200  19.562  29.637   8.308
 1056POPC   C3B18201  19.629  29.432   7.882
 1056POPC   C4B18202  19.643  29.275   7.403
 1057POPC   NC318203  19.227  22.587   9.465
 1057POPC   PO418204  19.226  23.235   9.583
 1057POPC   GL118205  19.095  23.011   9.217
 1057POPC   GL218206  18.859  23.255   9.186
 1057POPC   C1A18207  19.165  22.706   8.818
 1057POPC   D2A18208  19.435  22.717   8.430
 1057POPC   C3A18209  19.211  22.762   8.018
 1057POPC   C4A18210  19.202  22.821   7.560
 1057POPC   C1B18211  18.789  23.053   8.811
 1057POPC   C2B18212  19.007  23.048   8.429
 1057POPC   C3B18213  18.814  23.103   8.037
 1057POPC   C4B18214  18.714  22.925   7.631
 1058POPC   NC318215  25.297  29.729   9.364
 1058POPC   PO418216  24.997  30.288   9.451
 1058POPC   GL118217  24.907  29.954   9.102
 1058POPC   GL218218  24.840  29.573   9.211
 1058POPC   C1A18219  25.145  29.890   8.676
 1058POPC   D2A18220  25.145  29.900   8.190
 1058POPC   C3A18221  25.399  29.600   7.922
 1058POPC   C4A18222  25.583  29.608   7.514
 1058POPC   C1B18223  24.885  29.424   8.797
 1058POPC   C2B18224  24.791  29.615   8.416
 1058POPC   C3B18225  24.902  29.503   7.987
 1058POPC   C4B18226  25.040  29.503   7.540
 1059POPC   NC318227  13.330  16.237   9.382
 1059POPC   PO418228  12.931  15.717   9.641
 1059POPC   GL118229  12.811  15.877   9.217
 1059POPC   GL218230  13.110  15.927   9.029
 1059POPC   C1A18231  12.675  15.942   8.762
 1059POPC   D2A18232  12.990  15.833   8.419
 1059POPC   C3A18233  13.024  16.011   7.998
 1059POPC   C4A18234  12.716  16.211   7.716
 1059POPC   C1B18235  12.917  15.514   8.821
 1059POPC   C2B18236  12.616  15.475   8.454
 1059POPC   C3B18237  12.637  15.640   8.034
 1059POPC   C4B18238  13.028  15.531   7.853
 1060POPC   NC318239   1.982   7.100   9.435
 1060POPC   PO418240   2.296   7.617   9.598
 1060POPC   GL118241   2.286   7.462   9.189
 1060POPC   GL218242   1.924   7.520   9.128
 1060POPC   C1A18243   2.209   7.284   8.775
 1060POPC   D2A18244   2.012   7.443   8.410
 1060POPC   C3A18245   2.208   7.487   7.989
 1060POPC   C4A18246   2.385   7.748   7.658
 1060POPC   C1B18247   1.679   7.323   8.812
 1060POPC   C2B18248   1.544   7.221   8.405
 1060POPC   C3B18249   1.801   7.135   8.069
 1060POPC   C4B18250   1.839   7.308   7.680
 1061POPC   NC318251  10.669  39.017   9.589
 1061POPC   PO418252  10.624  39.686   9.498
 1061POPC   GL118253  10.506  39.367   9.199
 1061POPC   GL218254  10.239  39.112   9.234
 1061POPC   C1A18255  10.629  39.116   8.845
 1061POPC   D2A18256  10.615  39.015   8.401
 1061POPC   C3A18257  10.867  39.122   8.033
 1061POPC   C4A18258  10.816  39.052   7.583
 1061POPC   C1B18259  10.122  39.439   8.874
 1061POPC   C2B18260  10.098  39.568   8.407
 1061POPC   C3B18261  10.197  39.436   7.999
 1061POPC   C4B18262  10.383  39.062   7.860
 1062POPC   NC318263  39.034  38.046   9.418
 1062POPC   PO418264  39.335  37.410   9.497
 1062POPC   GL118265  39.198  37.544   9.139
 1062POPC   GL218266  39.423  37.826   9.088
 1062POPC   C1A18267  38.926  37.610   8.783
 1062POPC   D2A18268  38.975  37.790   8.363
 1062POPC   C3A18269  39.150  37.582   7.985
 1062POPC   C4A18270  39.295  37.473   7.549
 1062POPC   C1B18271  39.611  37.995   8.715
 1062POPC   C2B18272  39.432  38.140   8.314
 1062POPC   C3B18273  39.130  38.107   7.986
 1062POPC   C4B18274  39.179  37.955   7.566
 1063POPC   NC318275  36.034  22.157   9.787
 1063POPC   PO418276  35.896  22.558   9.294
 1063POPC   GL118277  36.052  22.351   9.003
 1063POPC   GL218278  36.130  22.081   9.161
 1063POPC   C1A18279  36.252  22.252   8.660
 1063POPC   D2A18280  36.077  22.434   8.336
 1063POPC   C3A18281  36.091  22.260   7.976
 1063POPC   C4A18282  35.808  22.400   7.656
 1063POPC   C1B18283  35.839  21.925   8.818
 1063POPC   C2B18284  35.914  21.892   8.439
 1063POPC   C3B18285  35.668  21.902   8.129
 1063POPC   C4B18286  35.785  21.919   7.762
 1064POPC   NC318287  28.839  17.334   9.368
 1064POPC   PO418288  29.403  17.682   9.619
 1064POPC   GL118289  29.302  17.820   9.201
 1064POPC   GL218290  29.037  17.645   9.014
 1064POPC   C1A18291  29.357  17.964   8.803
 1064POPC   D2A18292  29.158  17.742   8.475
 1064POPC   C3A18293  29.282  17.757   8.050
 1064POPC   C4A18294  29.047  17.662   7.704
 1064POPC   C1B18295  28.994  17.310   8.685
 1064POPC   C2B18296  28.893  17.375   8.224
 1064POPC   C3B18297  29.095  17.174   7.876
 1064POPC   C4B18298  29.134  17.137   7.425
 1065POPC   NC318299  12.009   9.393   9.569
 1065POPC   PO418300  12.341   8.844   9.600
 1065POPC   GL118301  12.168   8.992   9.224
 1065POPC   GL218302  11.801   9.007   9.246
 1065POPC   C1A18303  12.111   9.148   8.813
 1065POPC   D2A18304  11.916   9.078   8.425
 1065POPC   C3A18305  12.131   9.129   8.050
 1065POPC   C4A18306  12.060   9.026   7.640
 1065POPC   C1B18307  11.542   9.116   8.886
 1065POPC   C2B18308  11.412   9.172   8.445
 1065POPC   C3B18309  11.595   9.276   8.060
 1065POPC   C4B18310  11.736   9.424   7.679
 1066POPC   NC318311  36.216  41.351  10.007
 1066POPC   PO418312  36.004  41.703   9.461
 1066POPC   GL118313  36.034  41.681   9.054
 1066POPC   GL218314  35.713  41.690   8.975
 1066POPC   C1A18315  36.180  41.529   8.676
 1066POPC   D2A18316  35.961  41.588   8.327
 1066POPC   C3A18317  36.236  41.443   8.071
 1066POPC   C4A18318  36.409  41.598   7.705
 1066POPC   C1B18319  35.766  42.017   8.748
 1066POPC   C2B18320  35.643  42.003   8.306
 1066POPC   C3B18321  35.811  42.007   7.897
 1066POPC   C4B18322  35.904  41.643   7.691
 1067POPC   NC318323  29.237  27.701   9.437
 1067POPC   PO418324  29.741  27.651   9.226
 1067POPC   GL118325  29.380  27.587   8.912
 1067POPC   GL218326  29.023  27.485   9.035
 1067POPC   C1A18327  29.350  27.432   8.459
 1067POPC   D2A18328  29.511  27.301   8.040
 1067POPC   C3A18329  29.276  27.510   7.680
 1067POPC   C4A18330  29.073  27.920   7.646
 1067POPC   C1B18331  28.845  27.418   8.630
 1067POPC   C2B18332  28.924  27.290   8.191
 1067POPC   C3B18333  28.795  27.520   7.832
 1067POPC   C4B18334  28.876  27.492   7.382
 1068POPC   NC318335  44.335  15.290   9.401
 1068POPC   PO418336  44.924  15.478   9.580
 1068POPC   GL118337  44.877  15.101   9.290
 1068POPC   GL218338  44.596  15.067   9.046
 1068POPC   C1A18339   0.029  14.885   8.904
 1068POPC   D2A18340  44.781  14.896   8.539
 1068POPC   C3A18341  44.994  14.981   8.149
 1068POPC   C4A18342  44.822  15.110   7.762
 1068POPC   C1B18343  44.442  15.276   8.720
 1068POPC   C2B18344  44.248  15.324   8.353
 1068POPC   C3B18345  44.433  15.369   7.990
 1068POPC   C4B18346  44.362  15.313   7.586
 1069POPC   NC318347  16.574  33.269   9.672
 1069POPC   PO418348  17.144  32.900   9.611
 1069POPC   GL118349  16.934  32.928   9.246
 1069POPC   GL218350  17.173  32.657   9.139
 1069POPC   C1A18351  16.651  33.024   8.880
 1069POPC   D2A18352  16.520  32.954   8.429
 1069POPC   C3A18353  16.578  33.161   8.015
 1069POPC   C4A18354  16.604  32.846   7.661
 1069POPC   C1B18355  17.143  32.965   8.800
 1069POPC   C2B18356  17.072  32.901   8.386
 1069POPC   C3B18357  16.985  32.863   7.983
 1069POPC   C4B18358  16.973  33.199   7.677
 1070POPC   NC318359  23.105   7.868   9.477
 1070POPC   PO418360  23.074   7.162   9.580
 1070POPC   GL118361  23.078   7.230   9.171
 1070POPC   GL218362  22.725   7.231   9.129
 1070POPC   C1A18363  23.035   7.132   8.730
 1070POPC   D2A18364  22.806   7.271   8.381
 1070POPC   C3A18365  23.051   7.452   8.062
 1070POPC   C4A18366  23.166   7.286   7.696
 1070POPC   C1B18367  22.834   7.608   8.880
 1070POPC   C2B18368  22.889   7.790   8.471
 1070POPC   C3B18369  22.801   7.892   8.038
 1070POPC   C4B18370  22.684   7.564   7.715
 1071POPC   NC318371  11.511  25.122   9.373
 1071POPC   PO418372  10.883  25.322   9.387
 1071POPC   GL118373  11.116  25.237   9.040
 1071POPC   GL218374  11.376  25.455   9.001
 1071POPC   C1A18375  11.050  25.337   8.608
 1071POPC   D2A18376  11.325  25.421   8.273
 1071POPC   C3A18377  11.206  25.276   7.858
 1071POPC   C4A18378  11.241  25.199   7.419
 1071POPC   C1B18379  11.644  25.628   8.697
 1071POPC   C2B18380  11.826  25.571   8.298
 1071POPC   C3B18381  11.694  25.481   7.892
 1071POPC   C4B18382  11.619  25.526   7.420
 1072POPC   NC318383  21.598  41.842   9.547
 1072POPC   PO418384  20.985  41.546   9.637
 1072POPC   GL118385  21.249  41.631   9.241
 1072POPC   GL218386  21.550  41.444   9.171
 1072POPC   C1A18387  21.101  41.763   8.802
 1072POPC   D2A18388  21.201  41.576   8.378
 1072POPC   C3A18389  21.334  41.739   7.967
 1072POPC   C4A18390  21.009  41.769   7.649
 1072POPC   C1B18391  21.436  41.371   8.774
 1072POPC   C2B18392  21.678  41.448   8.366
 1072POPC   C3B18393  21.808  41.475   7.932
 1072POPC   C4B18394  21.781  41.365   7.458
 1073POPC   NC318395  26.587  16.982   9.590
 1073POPC   PO418396  27.069  16.490   9.417
 1073POPC   GL118397  26.906  16.598   9.026
 1073POPC   GL218398  26.633  16.739   9.138
 1073POPC   C1A18399  27.058  16.739   8.620
 1073POPC   D2A18400  26.938  16.900   8.271
 1073POPC   C3A18401  26.986  16.619   7.962
 1073POPC   C4A18402  26.934  16.877   7.678
 1073POPC   C1B18403  26.592  16.942   8.743
 1073POPC   C2B18404  26.431  17.097   8.381
 1073POPC   C3B18405  26.468  16.903   7.993
 1073POPC   C4B18406  26.495  16.597   7.679
 1074POPC   NC318407  38.612  32.395   9.903
 1074POPC   PO418408  38.264  32.073   9.385
 1074POPC   GL118409  38.497  32.370   9.120
 1074POPC   GL218410  38.824  32.506   9.194
 1074POPC   C1A18411  38.520  32.271   8.689
 1074POPC   D2A18412  38.436  32.074   8.303
 1074POPC   C3A18413  38.562  31.925   7.922
 1074POPC   C4A18414  38.455  32.182   7.546
 1074POPC   C1B18415  38.933  32.570   8.750
 1074POPC   C2B18416  38.744  32.568   8.341
 1074POPC   C3B18417  38.650  32.434   7.945
 1074POPC   C4B18418  38.791  32.574   7.522
 1075POPC   NC318419  39.766  25.813   9.748
 1075POPC   PO418420  40.170  25.266   9.495
 1075POPC   GL118421  40.102  25.141   9.101
 1075POPC   GL218422  40.445  25.133   9.072
 1075POPC   C1A18423  40.100  25.305   8.672
 1075POPC   D2A18424  40.135  25.515   8.272
 1075POPC   C3A18425  40.031  25.256   7.925
 1075POPC   C4A18426  39.643  25.307   7.679
 1075POPC   C1B18427  40.406  24.902   8.714
 1075POPC   C2B18428  40.212  24.943   8.326
 1075POPC   C3B18429  40.496  25.002   8.041
 1075POPC   C4B18430  40.444  25.050   7.626
 1076POPC   NC318431  26.518  33.249   9.498
 1076POPC   PO418432  26.887  32.797   9.815
 1076POPC   GL118433  26.830  32.892   9.285
 1076POPC   GL218434  26.522  32.909   9.123
 1076POPC   C1A18435  26.842  33.138   8.826
 1076POPC   D2A18436  26.852  33.358   8.399
 1076POPC   C3A18437  26.738  33.235   7.970
 1076POPC   C4A18438  26.986  33.281   7.578
 1076POPC   C1B18439  26.393  32.754   8.768
 1076POPC   C2B18440  26.504  32.901   8.387
 1076POPC   C3B18441  26.744  32.737   8.087
 1076POPC   C4B18442  26.800  32.815   7.664
 1077POPC   NC318443  39.481  33.806   9.511
 1077POPC   PO418444  38.775  33.553   9.523
 1077POPC   GL118445  39.062  33.755   9.187
 1077POPC   GL218446  39.441  33.696   9.027
 1077POPC   C1A18447  39.072  33.946   8.776
 1077POPC   D2A18448  39.229  33.870   8.375
 1077POPC   C3A18449  39.146  34.065   7.995
 1077POPC   C4A18450  39.359  33.873   7.662
 1077POPC   C1B18451  39.608  33.354   8.739
 1077POPC   C2B18452  39.794  33.246   8.318
 1077POPC   C3B18453  39.489  33.348   7.992
 1077POPC   C4B18454  39.515  33.401   7.554
 1078POPC   NC318455   7.793  30.965   9.465
 1078POPC   PO418456   7.423  30.402   9.517
 1078POPC   GL118457   7.227  30.565   9.176
 1078POPC   GL218458   7.433  30.802   9.124
 1078POPC   C1A18459   7.250  30.471   8.722
 1078POPC   D2A18460   7.355  30.638   8.322
 1078POPC   C3A18461   7.229  30.531   7.924
 1078POPC   C4A18462   7.486  30.594   7.546
 1078POPC   C1B18463   7.427  30.978   8.716
 1078POPC   C2B18464   7.650  31.028   8.331
 1078POPC   C3B18465   7.599  30.947   7.893
 1078POPC   C4B18466   7.752  31.128   7.481
 1079POPC   NC318467  43.131  14.041   9.540
 1079POPC   PO418468  43.415  13.444   9.431
 1079POPC   GL118469  43.099  13.598   9.117
 1079POPC   GL218470  42.963  13.897   9.089
 1079POPC   C1A18471  43.223  13.621   8.679
 1079POPC   D2A18472  43.374  13.345   8.368
 1079POPC   C3A18473  43.217  13.524   8.020
 1079POPC   C4A18474  42.836  13.488   7.786
 1079POPC   C1B18475  42.843  13.958   8.672
 1079POPC   C2B18476  42.919  13.901   8.246
 1079POPC   C3B18477  42.991  13.953   7.815
 1079POPC   C4B18478  43.005  13.894   7.347
 1080POPC   NC318479  12.370  21.988   9.546
 1080POPC   PO418480  11.813  22.389   9.488
 1080POPC   GL118481  11.872  22.310   9.071
 1080POPC   GL218482  12.221  22.259   9.128
 1080POPC   C1A18483  12.055  22.281   8.660
 1080POPC   D2A18484  12.067  22.134   8.262
 1080POPC   C3A18485  12.151  22.469   7.978
 1080POPC   C4A18486  11.910  22.665   7.658
 1080POPC   C1B18487  12.409  21.981   8.867
 1080POPC   C2B18488  12.558  22.024   8.456
 1080POPC   C3B18489  12.520  22.108   8.034
 1080POPC   C4B18490  12.243  22.014   7.739
 1081POPC   NC318491  14.464  13.825   9.569
 1081POPC   PO418492  14.277  13.181   9.557
 1081POPC   GL118493  14.553  13.306   9.196
 1081POPC   GL218494  14.632  13.672   9.133
 1081POPC   C1A18495  14.435  13.414   8.767
 1081POPC   D2A18496  14.379  13.675   8.456
 1081POPC   C3A18497  14.240  13.483   8.097
 1081POPC   C4A18498  14.173  13.550   7.680
 1081POPC   C1B18499  14.859  13.713   8.777
 1081POPC   C2B18500  14.848  13.533   8.415
 1081POPC   C3B18501  14.702  13.671   8.013
 1081POPC   C4B18502  14.668  13.418   7.672
 1082POPC   NC318503   9.199  42.586   9.359
 1082POPC   PO418504   8.820  42.055   9.524
 1082POPC   GL118505   8.740  42.101   9.084
 1082POPC   GL218506   9.008  42.321   8.966
 1082POPC   C1A18507   8.789  42.063   8.606
 1082POPC   D2A18508   9.065  42.332   8.355
 1082POPC   C3A18509   8.832  42.608   8.079
 1082POPC   C4A18510   8.696  42.285   7.812
 1082POPC   C1B18511   9.324  42.560   8.737
 1082POPC   C2B18512   9.431  42.750   8.380
 1082POPC   C3B18513   9.383  42.568   8.019
 1082POPC   C4B18514   9.127  42.563   7.667
 1083POPC   NC318515   8.950  44.359   9.267
 1083POPC   PO418516   8.922  43.733   9.529
 1083POPC   GL118517   8.960  43.866   9.074
 1083POPC   GL218518   9.333  43.857   9.084
 1083POPC   C1A18519   9.085  44.084   8.651
 1083POPC   D2A18520   9.100  44.186   8.194
 1083POPC   C3A18521   8.734  44.045   7.947
 1083POPC   C4A18522   8.419  44.027   7.619
 1083POPC   C1B18523   9.255  43.596   8.721
 1083POPC   C2B18524   9.331  43.357   8.358
 1083POPC   C3B18525   9.392  43.487   7.975
 1083POPC   C4B18526   9.184  43.839   7.810
 1084POPC   NC318527  35.666  22.061   9.394
 1084POPC   PO418528  35.748  22.597   9.821
 1084POPC   GL118529  35.400  22.558   9.396
 1084POPC   GL218530  35.169  22.237   9.281
 1084POPC   C1A18531  35.357  22.493   8.893
 1084POPC   D2A18532  35.535  22.252   8.512
 1084POPC   C3A18533  35.474  22.377   8.073
 1084POPC   C4A18534  35.270  22.481   7.659
 1084POPC   C1B18535  35.285  21.964   8.879
 1084POPC   C2B18536  35.377  21.723   8.512
 1084POPC   C3B18537  35.171  21.773   8.123
 1084POPC   C4B18538  35.292  21.987   7.773
 1085POPC   NC318539  42.086  13.324   9.487
 1085POPC   PO418540  42.706  13.758   9.570
 1085POPC   GL118541  42.551  13.585   9.204
 1085POPC   GL218542  42.205  13.681   9.166
 1085POPC   C1A18543  42.531  13.509   8.767
 1085POPC   D2A18544  42.245  13.502   8.429
 1085POPC   C3A18545  42.464  13.634   8.095
 1085POPC   C4A18546  42.362  13.599   7.690
 1085POPC   C1B18547  41.955  13.752   8.785
 1085POPC   C2B18548  41.875  13.919   8.357
 1085POPC   C3B18549  41.908  13.742   7.900
 1085POPC   C4B18550  41.978  13.689   7.395
 1086POPC   NC318551   0.990   5.035   9.516
 1086POPC   PO418552   1.373   5.595   9.527
 1086POPC   GL118553   1.082   5.440   9.202
 1086POPC   GL218554   1.252   5.111   9.084
 1086POPC   C1A18555   0.924   5.343   8.780
 1086POPC   D2A18556   1.084   5.151   8.412
 1086POPC   C3A18557   1.054   5.349   8.031
 1086POPC   C4A18558   1.373   5.296   7.720
 1086POPC   C1B18559   1.114   4.786   8.761
 1086POPC   C2B18560   1.345   4.699   8.350
 1086POPC   C3B18561   1.199   4.789   7.934
 1086POPC   C4B18562   1.471   4.774   7.581
 1087POPC   NC318563  10.274  20.189   9.540
 1087POPC   PO418564  10.504  19.614   9.554
 1087POPC   GL118565  10.474  19.876   9.174
 1087POPC   GL218566  10.156  20.028   9.078
 1087POPC   C1A18567  10.593  19.775   8.757
 1087POPC   D2A18568  10.435  19.592   8.373
 1087POPC   C3A18569  10.336  19.727   7.958
 1087POPC   C4A18570  10.417  19.650   7.510
 1087POPC   C1B18571  10.263  20.194   8.716
 1087POPC   C2B18572  10.547  20.128   8.394
 1087POPC   C3B18573  10.481  20.266   8.030
 1087POPC   C4B18574  10.289  20.136   7.676
 1088POPC   NC318575  31.990   7.484   9.553
 1088POPC   PO418576  31.299   7.519   9.474
 1088POPC   GL118577  31.610   7.382   9.198
 1088POPC   GL218578  31.805   7.622   9.108
 1088POPC   C1A18579  31.667   7.190   8.802
 1088POPC   D2A18580  31.384   7.236   8.441
 1088POPC   C3A18581  31.334   7.030   8.039
 1088POPC   C4A18582  31.556   7.165   7.674
 1088POPC   C1B18583  31.520   7.676   8.754
 1088POPC   C2B18584  31.582   7.740   8.317
 1088POPC   C3B18585  31.579   7.655   7.873
 1088POPC   C4B18586  31.635   7.743   7.454
 1089POPC   NC318587  20.889  20.270   9.562
 1089POPC   PO418588  20.496  20.791   9.512
 1089POPC   GL118589  20.549  20.586   9.113
 1089POPC   GL218590  20.852  20.378   9.077
 1089POPC   C1A18591  20.450  20.343   8.742
 1089POPC   D2A18592  20.594  20.423   8.339
 1089POPC   C3A18593  20.376  20.693   8.067
 1089POPC   C4A18594  20.280  20.326   7.860
 1089POPC   C1B18595  20.894  20.660   8.732
 1089POPC   C2B18596  20.946  20.787   8.305
 1089POPC   C3B18597  20.854  20.653   7.917
 1089POPC   C4B18598  20.855  21.052   7.765
 1090POPC   NC318599  31.347   6.973   9.399
 1090POPC   PO418600  31.544   6.287   9.335
 1090POPC   GL118601  31.304   6.555   9.095
 1090POPC   GL218602  31.510   6.397   8.832
 1090POPC   C1A18603  31.242   6.804   8.715
 1090POPC   D2A18604  31.493   6.655   8.367
 1090POPC   C3A18605  31.285   6.482   8.006
 1090POPC   C4A18606  31.242   6.705   7.623
 1090POPC   C1B18607  31.831   6.705   8.770
 1090POPC   C2B18608  31.923   6.979   8.413
 1090POPC   C3B18609  31.823   6.872   8.018
 1090POPC   C4B18610  31.730   6.512   7.765
 1091POPC   NC318611  33.374   7.205   9.296
 1091POPC   PO418612  32.701   7.465   9.473
 1091POPC   GL118613  32.872   7.386   9.058
 1091POPC   GL218614  32.695   7.096   8.975
 1091POPC   C1A18615  33.221   7.384   8.713
 1091POPC   D2A18616  33.559   7.401   8.392
 1091POPC   C3A18617  33.294   7.457   8.028
 1091POPC   C4A18618  32.939   7.701   7.847
 1091POPC   C1B18619  32.779   7.116   8.592
 1091POPC   C2B18620  32.845   7.440   8.341
 1091POPC   C3B18621  32.741   7.265   8.001
 1091POPC   C4B18622  32.992   7.180   7.723
 1092POPC   NC318623  39.453  31.228   9.603
 1092POPC   PO418624  38.885  31.770   9.670
 1092POPC   GL118625  38.996  31.664   9.247
 1092POPC   GL218626  39.360  31.527   9.186
 1092POPC   C1A18627  38.962  31.555   8.821
 1092POPC   D2A18628  39.330  31.604   8.568
 1092POPC   C3A18629  39.323  31.520   8.110
 1092POPC   C4A18630  39.031  31.385   7.773
 1092POPC   C1B18631  39.491  31.176   8.889
 1092POPC   C2B18632  39.634  31.210   8.449
 1092POPC   C3B18633  39.813  31.342   8.092
 1092POPC   C4B18634  39.650  31.368   7.723
 1093POPC   NC318635  28.650  19.136   9.410
 1093POPC   PO418636  28.022  18.835   9.311
 1093POPC   GL118637  28.337  18.983   9.010
 1093POPC   GL218638  28.503  19.315   8.956
 1093POPC   C1A18639  28.277  18.796   8.622
 1093POPC   D2A18640  28.198  18.791   8.202
 1093POPC   C3A18641  28.438  19.069   8.020
 1093POPC   C4A18642  28.331  19.244   7.691
 1093POPC   C1B18643  28.059  19.411   8.831
 1093POPC   C2B18644  27.879  19.541   8.463
 1093POPC   C3B18645  27.994  19.327   8.092
 1093POPC   C4B18646  27.848  19.450   7.681
 1094POPC   NC318647  38.167  32.522   9.505
 1094POPC   PO418648  37.559  32.140   9.546
 1094POPC   GL118649  37.731  32.347   9.203
 1094POPC   GL218650  37.798  32.694   9.178
 1094POPC   C1A18651  37.595  32.383   8.789
 1094POPC   D2A18652  37.739  32.186   8.427
 1094POPC   C3A18653  37.632  32.352   8.036
 1094POPC   C4A18654  37.626  31.993   7.730
 1094POPC   C1B18655  38.077  32.495   8.836
 1094POPC   C2B18656  38.159  32.485   8.378
 1094POPC   C3B18657  38.133  32.313   7.943
 1094POPC   C4B18658  37.864  32.492   7.602
 1095POPC   NC318659  29.626  30.884   9.713
 1095POPC   PO418660  28.987  30.780   9.596
 1095POPC   GL118661  28.940  30.818   9.122
 1095POPC   GL218662  29.203  31.040   9.000
 1095POPC   C1A18663  28.966  30.576   8.716
 1095POPC   D2A18664  29.113  30.404   8.297
 1095POPC   C3A18665  29.040  30.535   7.859
 1095POPC   C4A18666  29.307  30.481   7.503
 1095POPC   C1B18667  28.906  31.072   8.657
 1095POPC   C2B18668  28.833  30.838   8.237
 1095POPC   C3B18669  28.792  30.976   7.781
 1095POPC   C4B18670  28.706  31.115   7.345
 1096POPC   NC318671  39.902   1.772   9.561
 1096POPC   PO418672  40.531   1.659   9.223
 1096POPC   GL118673  40.145   1.785   9.094
 1096POPC   GL218674  40.222   2.105   9.217
 1096POPC   C1A18675  39.825   1.902   8.768
 1096POPC   D2A18676  39.711   1.754   8.344
 1096POPC   C3A18677  39.828   2.021   8.008
 1096POPC   C4A18678  39.979   1.942   7.573
 1096POPC   C1B18679  40.279   2.146   8.750
 1096POPC   C2B18680  40.158   2.294   8.325
 1096POPC   C3B18681  40.242   2.309   7.867
 1096POPC   C4B18682  40.240   2.343   7.392
 1097POPC   NC318683  25.434  12.303   9.379
 1097POPC   PO418684  24.961  11.736   9.485
 1097POPC   GL118685  25.195  11.887   9.144
 1097POPC   GL218686  24.925  12.039   8.915
 1097POPC   C1A18687  25.408  11.996   8.779
 1097POPC   D2A18688  25.135  11.882   8.431
 1097POPC   C3A18689  25.278  12.053   8.096
 1097POPC   C4A18690  25.345  11.939   7.690
 1097POPC   C1B18691  25.155  12.422   8.705
 1097POPC   C2B18692  25.516  12.419   8.429
 1097POPC   C3B18693  25.447  12.515   7.979
 1097POPC   C4B18694  25.186  12.410   7.664
 1098POPC   NC318695  12.954  16.823   9.971
 1098POPC   PO418696  12.541  16.970   9.520
 1098POPC   GL118697  12.728  16.756   9.100
 1098POPC   GL218698  12.962  16.468   9.116
 1098POPC   C1A18699  12.911  16.850   8.663
 1098POPC   D2A18700  12.693  16.939   8.253
 1098POPC   C3A18701  12.917  16.935   7.859
 1098POPC   C4A18702  12.935  16.799   7.440
 1098POPC   C1B18703  13.013  16.321   8.675
 1098POPC   C2B18704  12.911  16.451   8.239
 1098POPC   C3B18705  13.139  16.479   7.832
 1098POPC   C4B18706  13.151  16.295   7.442
 1099POPC   NC318707  26.311  11.848   9.528
 1099POPC   PO418708  25.892  12.361   9.468
 1099POPC   GL118709  25.860  12.099   9.094
 1099POPC   GL218710  26.140  11.847   9.045
 1099POPC   C1A18711  25.906  12.100   8.626
 1099POPC   D2A18712  26.232  12.086   8.321
 1099POPC   C3A18713  26.205  12.097   7.850
 1099POPC   C4A18714  26.254  12.326   7.438
 1099POPC   C1B18715  25.775  11.647   8.860
 1099POPC   C2B18716  25.631  11.691   8.447
 1099POPC   C3B18717  25.770  11.924   8.109
 1099POPC   C4B18718  25.803  11.737   7.715
 1100POPC   NC318719  31.163  32.250   9.325
 1100POPC   PO418720  30.638  32.125   9.725
 1100POPC   GL118721  30.640  32.129   9.270
 1100POPC   GL218722  30.567  32.416   9.127
 1100POPC   C1A18723  30.748  32.101   8.790
 1100POPC   D2A18724  30.624  32.326   8.398
 1100POPC   C3A18725  30.777  32.166   8.003
 1100POPC   C4A18726  30.562  32.019   7.647
 1100POPC   C1B18727  30.763  32.615   8.786
 1100POPC   C2B18728  30.903  32.765   8.404
 1100POPC   C3B18729  30.726  32.672   8.032
 1100POPC   C4B18730  30.731  32.496   7.602
 1101POPC   NC318731   2.762   5.677   9.739
 1101POPC   PO418732   2.701   6.258   9.441
 1101POPC   GL118733   2.871   5.869   9.214
 1101POPC   GL218734   3.118   6.111   9.149
 1101POPC   C1A18735   2.778   5.633   8.750
 1101POPC   D2A18736   2.550   5.574   8.345
 1101POPC   C3A18737   2.835   5.536   8.018
 1101POPC   C4A18738   2.944   5.816   7.695
 1101POPC   C1B18739   2.732   6.128   8.814
 1101POPC   C2B18740   2.539   6.120   8.412
 1101POPC   C3B18741   2.573   6.018   8.009
 1101POPC   C4B18742   2.646   6.227   7.622
 1102POPC   NC318743   0.194   5.523   9.462
 1102POPC   PO418744   0.530   4.903   9.524
 1102POPC   GL118745   0.582   5.234   9.239
 1102POPC   GL218746   0.748   4.996   9.066
 1102POPC   C1A18747   0.402   5.306   8.826
 1102POPC   D2A18748   0.173   5.109   8.475
 1102POPC   C3A18749   0.229   5.185   8.028
 1102POPC   C4A18750   0.171   4.906   7.667
 1102POPC   C1B18751   0.600   4.794   8.699
 1102POPC   C2B18752   0.634   4.927   8.275
 1102POPC   C3B18753   0.665   4.939   7.841
 1102POPC   C4B18754   0.907   5.182   7.562
 1103POPC   NC318755  44.160   4.401   9.532
 1103POPC   PO418756  43.653   4.031   9.431
 1103POPC   GL118757  43.967   4.150   9.132
 1103POPC   GL218758  43.887   4.499   9.094
 1103POPC   C1A18759  44.105   4.196   8.691
 1103POPC   D2A18760  43.858   4.192   8.325
 1103POPC   C3A18761  43.958   4.392   7.947
 1103POPC   C4A18762  44.062   4.322   7.526
 1103POPC   C1B18763  43.602   4.280   8.778
 1103POPC   C2B18764  43.379   4.352   8.365
 1103POPC   C3B18765  43.489   4.572   7.967
 1103POPC   C4B18766  43.636   4.612   7.520
 1104POPC   NC318767  35.667  17.195   9.547
 1104POPC   PO418768  35.326  17.798   9.470
 1104POPC   GL118769  35.347  17.420   9.156
 1104POPC   GL218770  35.690  17.255   9.036
 1104POPC   C1A18771  35.139  17.474   8.731
 1104POPC   D2A18772  35.328  17.637   8.317
 1104POPC   C3A18773  35.204  17.492   7.895
 1104POPC   C4A18774  35.371  17.607   7.472
 1104POPC   C1B18775  35.923  17.062   8.675
 1104POPC   C2B18776  35.906  16.901   8.264
 1104POPC   C3B18777  35.825  17.036   7.855
 1104POPC   C4B18778  35.450  17.118   7.611
 1105POPC   NC318779  26.446  32.900   9.893
 1105POPC   PO418780  26.061  33.330   9.633
 1105POPC   GL118781  26.104  33.215   9.200
 1105POPC   GL218782  26.028  32.868   9.269
 1105POPC   C1A18783  26.289  33.242   8.756
 1105POPC   D2A18784  26.061  33.168   8.360
 1105POPC   C3A18785  26.243  33.044   7.941
 1105POPC   C4A18786  26.468  33.155   7.516
 1105POPC   C1B18787  25.888  32.884   8.841
 1105POPC   C2B18788  25.559  32.722   8.574
 1105POPC   C3B18789  25.515  32.711   8.117
 1105POPC   C4B18790  25.787  32.786   7.755
 1106POPC   NC318791  38.947  17.910   9.390
 1106POPC   PO418792  39.271  17.475   9.702
 1106POPC   GL118793  39.153  17.513   9.158
 1106POPC   GL218794  38.896  17.660   8.957
 1106POPC   C1A18795  39.359  17.525   8.752
 1106POPC   D2A18796  39.394  17.332   8.382
 1106POPC   C3A18797  39.280  17.517   7.999
 1106POPC   C4A18798  39.552  17.627   7.701
 1106POPC   C1B18799  38.901  17.305   8.693
 1106POPC   C2B18800  38.894  17.286   8.255
 1106POPC   C3B18801  38.849  17.254   7.825
 1106POPC   C4B18802  39.084  17.420   7.505
 1107POPC   NC318803  12.461  18.867   9.297
 1107POPC   PO418804  11.941  19.209   9.757
 1107POPC   GL118805  11.952  19.180   9.180
 1107POPC   GL218806  12.097  18.928   8.941
 1107POPC   C1A18807  12.228  19.387   8.818
 1107POPC   D2A18808  12.395  19.231   8.445
 1107POPC   C3A18809  12.193  19.391   8.109
 1107POPC   C4A18810  12.164  19.281   7.705
 1107POPC   C1B18811  12.449  18.779   8.678
 1107POPC   C2B18812  12.346  18.687   8.323
 1107POPC   C3B18813  12.337  18.900   8.009
 1107POPC   C4B18814  12.253  18.767   7.649
 1108POPC   NC318815  35.438   3.830   9.604
 1108POPC   PO418816  34.910   3.499   9.815
 1108POPC   GL118817  35.079   3.662   9.324
 1108POPC   GL218818  34.844   3.730   9.074
 1108POPC   C1A18819  35.267   3.477   8.913
 1108POPC   D2A18820  35.369   3.247   8.516
 1108POPC   C3A18821  35.428   3.504   8.142
 1108POPC   C4A18822  35.371   3.489   7.712
 1108POPC   C1B18823  35.021   3.895   8.721
 1108POPC   C2B18824  35.152   4.023   8.319
 1108POPC   C3B18825  35.275   3.948   7.913
 1108POPC   C4B18826  35.390   3.976   7.512
 1109POPC   NC318827   8.191  28.645   9.644
 1109POPC   PO418828   8.587  29.157   9.745
 1109POPC   GL118829   8.385  29.320   9.339
 1109POPC   GL218830   8.089  29.096   9.269
 1109POPC   C1A18831   8.347  29.381   8.867
 1109POPC   D2A18832   8.021  29.360   8.536
 1109POPC   C3A18833   8.085  29.366   8.080
 1109POPC   C4A18834   8.398  29.145   7.842
 1109POPC   C1B18835   8.153  28.929   8.836
 1109POPC   C2B18836   8.061  28.864   8.418
 1109POPC   C3B18837   7.987  28.795   8.004
 1109POPC   C4B18838   8.188  28.676   7.659
 1110POPC   NC318839  31.838  31.494   9.510
 1110POPC   PO418840  32.401  31.870   9.704
 1110POPC   GL118841  32.342  31.622   9.305
 1110POPC   GL218842  32.068  31.839   9.199
 1110POPC   C1A18843  32.575  31.515   8.896
 1110POPC   D2A18844  32.675  31.408   8.450
 1110POPC   C3A18845  32.574  31.581   8.085
 1110POPC   C4A18846  32.316  31.585   7.773
 1110POPC   C1B18847  32.073  31.514   8.847
 1110POPC   C2B18848  32.161  31.487   8.391
 1110POPC   C3B18849  31.885  31.573   8.016
 1110POPC   C4B18850  31.844  31.677   7.544
 1111POPC   NC318851   7.886  10.743   9.387
 1111POPC   PO418852   8.123  10.097   9.311
 1111POPC   GL118853   8.187  10.362   8.962
 1111POPC   GL218854   8.309  10.664   9.128
 1111POPC   C1A18855   8.192  10.345   8.496
 1111POPC   D2A18856   8.462  10.085   8.207
 1111POPC   C3A18857   8.326  10.116   7.791
 1111POPC   C4A18858   8.065  10.458   7.652
 1111POPC   C1B18859   8.425  10.779   8.720
 1111POPC   C2B18860   8.294  10.916   8.330
 1111POPC   C3B18861   8.135  10.868   7.948
 1111POPC   C4B18862   8.306  10.896   7.523
 1112POPC   NC318863  31.988  42.731   9.537
 1112POPC   PO418864  32.587  42.490   9.393
 1112POPC   GL118865  32.254  42.323   9.217
 1112POPC   GL218866  32.195  42.621   9.080
 1112POPC   C1A18867  32.151  42.169   8.814
 1112POPC   D2A18868  32.395  41.934   8.533
 1112POPC   C3A18869  32.240  42.045   8.136
 1112POPC   C4A18870  32.205  42.143   7.686
 1112POPC   C1B18871  31.954  42.622   8.717
 1112POPC   C2B18872  31.839  42.516   8.319
 1112POPC   C3B18873  32.129  42.526   7.999
 1112POPC   C4B18874  32.363  42.649   7.633
 1113POPC   NC318875  24.301  23.494   9.512
 1113POPC   PO418876  24.644  24.052   9.482
 1113POPC   GL118877  24.396  23.875   9.175
 1113POPC   GL218878  24.590  23.540   9.097
 1113POPC   C1A18879  24.323  23.944   8.755
 1113POPC   D2A18880  24.519  23.798   8.385
 1113POPC   C3A18881  24.352  23.991   7.993
 1113POPC   C4A18882  24.572  23.999   7.600
 1113POPC   C1B18883  24.238  23.466   8.839
 1113POPC   C2B18884  24.095  23.519   8.414
 1113POPC   C3B18885  24.346  23.487   8.013
 1113POPC   C4B18886  24.557  23.491   7.651
 1114POPC   NC318887  11.792  37.917   9.593
 1114POPC   PO418888  12.228  37.446   9.662
 1114POPC   GL118889  12.149  37.716   9.296
 1114POPC   GL218890  11.843  37.566   9.215
 1114POPC   C1A18891  12.150  37.703   8.834
 1114POPC   D2A18892  12.241  37.879   8.433
 1114POPC   C3A18893  12.227  37.682   8.050
 1114POPC   C4A18894  12.010  37.845   7.717
 1114POPC   C1B18895  11.711  37.423   8.829
 1114POPC   C2B18896  11.893  37.490   8.430
 1114POPC   C3B18897  11.726  37.617   8.068
 1114POPC   C4B18898  11.693  37.467   7.663
 1115POPC   NC318899  18.801  29.685   9.474
 1115POPC   PO418900  19.089  30.326   9.488
 1115POPC   GL118901  19.310  30.009   9.219
 1115POPC   GL218902  19.114  29.701   9.081
 1115POPC   C1A18903  19.386  29.974   8.778
 1115POPC   D2A18904  19.104  29.794   8.495
 1115POPC   C3A18905  19.030  29.993   8.119
 1115POPC   C4A18906  19.277  29.778   7.829
 1115POPC   C1B18907  18.716  29.667   8.820
 1115POPC   C2B18908  18.670  29.561   8.392
 1115POPC   C3B18909  18.891  29.484   8.042
 1115POPC   C4B18910  18.791  29.569   7.662
 1116POPC   NC318911  19.197  36.742   9.637
 1116POPC   PO418912  18.535  36.754   9.545
 1116POPC   GL118913  18.865  36.933   9.196
 1116POPC   GL218914  19.282  36.913   9.175
 1116POPC   C1A18915  19.032  37.109   8.786
 1116POPC   D2A18916  18.818  37.272   8.402
 1116POPC   C3A18917  19.021  37.255   7.977
 1116POPC   C4A18918  19.076  36.980   7.621
 1116POPC   C1B18919  19.345  36.640   8.832
 1116POPC   C2B18920  19.385  36.519   8.386
 1116POPC   C3B18921  19.309  36.551   7.913
 1116POPC   C4B18922  19.217  36.515   7.419
 1117POPC   NC318923   2.808  23.831   9.833
 1117POPC   PO418924   3.484  24.001   9.467
 1117POPC   GL118925   3.194  23.820   9.181
 1117POPC   GL218926   2.981  23.536   9.262
 1117POPC   C1A18927   3.100  23.841   8.767
 1117POPC   D2A18928   2.900  23.729   8.388
 1117POPC   C3A18929   2.952  23.883   7.953
 1117POPC   C4A18930   2.698  23.849   7.544
 1117POPC   C1B18931   2.770  23.451   8.857
 1117POPC   C2B18932   2.855  23.222   8.472
 1117POPC   C3B18933   2.777  23.357   8.048
 1117POPC   C4B18934   2.479  23.432   7.735
 1118POPC   NC318935  20.459  10.668   9.556
 1118POPC   PO418936  20.591   9.981   9.651
 1118POPC   GL118937  20.693  10.268   9.271
 1118POPC   GL218938  20.973  10.484   9.321
 1118POPC   C1A18939  20.685  10.467   8.823
 1118POPC   D2A18940  20.533  10.691   8.417
 1118POPC   C3A18941  20.582  10.493   7.998
 1118POPC   C4A18942  20.655  10.367   7.542
 1118POPC   C1B18943  21.085  10.749   8.971
 1118POPC   C2B18944  21.053  10.757   8.547
 1118POPC   C3B18945  20.962  10.832   8.143
 1118POPC   C4B18946  21.046  10.548   7.830
 1119POPC   NC318947  20.549  25.233   9.563
 1119POPC   PO418948  20.567  24.581   9.411
 1119POPC   GL118949  20.536  24.927   9.105
 1119POPC   GL218950  20.446  25.314   9.078
 1119POPC   C1A18951  20.745  25.092   8.731
 1119POPC   D2A18952  20.872  25.241   8.309
 1119POPC   C3A18953  20.642  25.189   7.935
 1119POPC   C4A18954  20.861  24.987   7.619
 1119POPC   C1B18955  20.757  25.610   8.880
 1119POPC   C2B18956  20.800  25.746   8.434
 1119POPC   C3B18957  20.864  25.661   7.989
 1119POPC   C4B18958  20.883  25.526   7.561
 1120POPC   NC318959  11.872   4.855   9.546
 1120POPC   PO418960  12.072   5.458   9.497
 1120POPC   GL118961  12.062   5.186   9.154
 1120POPC   GL218962  11.745   5.030   9.090
 1120POPC   C1A18963  12.181   5.227   8.716
 1120POPC   D2A18964  12.418   5.208   8.317
 1120POPC   C3A18965  12.269   5.224   7.895
 1120POPC   C4A18966  12.278   5.294   7.452
 1120POPC   C1B18967  11.972   4.768   8.835
 1120POPC   C2B18968  11.970   4.883   8.408
 1120POPC   C3B18969  11.824   4.977   8.009
 1120POPC   C4B18970  11.801   5.278   7.664
 1121POPC   NC318971  23.568  11.912   9.427
 1121POPC   PO418972  24.114  12.266   9.435
 1121POPC   GL118973  23.795  12.320   9.139
 1121POPC   GL218974  23.435  12.375   9.197
 1121POPC   C1A18975  23.871  12.132   8.746
 1121POPC   D2A18976  23.754  11.896   8.410
 1121POPC   C3A18977  23.643  12.213   8.141
 1121POPC   C4A18978  23.950  12.208   7.849
 1121POPC   C1B18979  23.355  12.150   8.783
 1121POPC   C2B18980  23.256  11.912   8.390
 1121POPC   C3B18981  23.354  11.835   7.945
 1121POPC   C4B18982  23.479  12.180   7.644
 1122POPC   NC318983   0.309  36.325   9.465
 1122POPC   PO418984   0.640  35.757   9.382
 1122POPC   GL118985   0.517  35.943   9.087
 1122POPC   GL218986   0.635  36.278   9.078
 1122POPC   C1A18987   0.740  35.916   8.732
 1122POPC   D2A18988   0.780  36.230   8.399
 1122POPC   C3A18989   0.703  36.087   7.994
 1122POPC   C4A18990   0.325  36.011   7.768
 1122POPC   C1B18991   0.352  36.234   8.696
 1122POPC   C2B18992   0.237  36.216   8.236
 1122POPC   C3B18993   0.173  36.584   7.926
 1122POPC   C4B18994   0.082  36.749   7.465
 1123POPC   NC318995  34.769  24.602   9.633
 1123POPC   PO418996  34.876  23.949   9.442
 1123POPC   GL118997  34.831  24.195   9.053
 1123POPC   GL218998  34.737  24.493   9.147
 1123POPC   C1A18999  34.621  24.192   8.642
 1123POPC   D2A19000  34.589  24.081   8.219
 1123POPC   C3A19001  34.835  24.257   7.920
 1123POPC   C4A19002  34.506  24.289   7.693
 1123POPC   C1B19003  34.499  24.628   8.845
 1123POPC   C2B19004  34.609  24.733   8.467
 1123POPC   C3B19005  34.481  24.618   8.090
 1123POPC   C4B19006  34.579  24.802   7.736
 1124POPC   NC319007  20.670  27.832   9.468
 1124POPC   PO419008  20.384  27.213   9.465
 1124POPC   GL119009  20.536  27.453   9.145
 1124POPC   GL219010  20.846  27.400   9.128
 1124POPC   C1A19011  20.627  27.602   8.736
 1124POPC   D2A19012  20.377  27.797   8.469
 1124POPC   C3A19013  20.588  27.939   8.107
 1124POPC   C4A19014  20.351  27.874   7.730
 1124POPC   C1B19015  21.004  27.200   8.735
 1124POPC   C2B19016  21.060  27.452   8.342
 1124POPC   C3B19017  20.853  27.526   7.934
 1124POPC   C4B19018  20.706  27.533   7.503
 1125POPC   NC319019  28.999  20.150   9.623
 1125POPC   PO419020  29.408  20.563   9.346
 1125POPC   GL119021  29.119  20.737   9.080
 1125POPC   GL219022  28.986  21.036   9.148
 1125POPC   C1A19023  29.193  20.667   8.656
 1125POPC   D2A19024  29.493  20.787   8.356
 1125POPC   C3A19025  29.450  20.673   7.929
 1125POPC   C4A19026  29.284  20.341   7.699
 1125POPC   C1B19027  28.786  20.984   8.759
 1125POPC   C2B19028  28.957  20.988   8.334
 1125POPC   C3B19029  28.975  20.893   7.890
 1125POPC   C4B19030  28.950  20.687   7.487
 1126POPC   NC319031  14.512  17.599   9.588
 1126POPC   PO419032  14.018  18.054   9.312
 1126POPC   GL119033  14.208  17.647   9.148
 1126POPC   GL219034  14.582  17.555   9.111
 1126POPC   C1A19035  14.234  17.289   8.843
 1126POPC   D2A19036  14.078  17.253   8.442
 1126POPC   C3A19037  14.305  17.481   8.177
 1126POPC   C4A19038  14.520  17.369   7.811
 1126POPC   C1B19039  14.854  17.741   8.884
 1126POPC   C2B19040  14.632  17.716   8.521
 1126POPC   C3B19041  14.755  17.728   8.133
 1126POPC   C4B19042  14.836  17.744   7.740
 1127POPC   NC319043  36.650  10.939   9.468
 1127POPC   PO419044  36.917  10.283   9.488
 1127POPC   GL119045  36.749  10.518   9.185
 1127POPC   GL219046  37.024  10.723   9.021
 1127POPC   C1A19047  36.606  10.548   8.796
 1127POPC   D2A19048  36.861  10.669   8.458
 1127POPC   C3A19049  36.727  10.591   8.031
 1127POPC   C4A19050  37.005  10.815   7.709
 1127POPC   C1B19051  37.044  10.293   8.784
 1127POPC   C2B19052  36.914  10.174   8.314
 1127POPC   C3B19053  37.111  10.271   7.913
 1127POPC   C4B19054  37.222  10.146   7.469
 1128POPC   NC319055  22.611   4.363   9.684
 1128POPC   PO419056  22.006   4.519   9.703
 1128POPC   GL119057  22.249   4.371   9.315
 1128POPC   GL219058  22.391   4.693   9.301
 1128POPC   C1A19059  22.188   4.219   8.855
 1128POPC   D2A19060  22.306   4.423   8.447
 1128POPC   C3A19061  22.245   4.419   7.967
 1128POPC   C4A19062  22.316   4.190   7.566
 1128POPC   C1B19063  22.029   4.694   8.981
 1128POPC   C2B19064  21.824   4.658   8.559
 1128POPC   C3B19065  21.841   4.728   8.099
 1128POPC   C4B19066  21.781   4.375   7.774
 1129POPC   NC319067  10.362   7.024   9.270
 1129POPC   PO419068  10.700   7.431   9.720
 1129POPC   GL119069  10.660   7.478   9.244
 1129POPC   GL219070  10.471   7.739   9.042
 1129POPC   C1A19071  10.790   7.400   8.818
 1129POPC   D2A19072  10.650   7.231   8.428
 1129POPC   C3A19073  10.702   7.549   8.139
 1129POPC   C4A19074  10.719   7.518   7.727
 1129POPC   C1B19075  10.467   7.722   8.595
 1129POPC   C2B19076  10.220   7.490   8.331
 1129POPC   C3B19077   9.932   7.459   8.048
 1129POPC   C4B19078  10.118   7.384   7.701
 1130POPC   NC319079  40.301  29.655   9.576
 1130POPC   PO419080  39.883  30.167   9.407
 1130POPC   GL119081  39.897  29.980   9.063
 1130POPC   GL219082  40.224  29.878   9.092
 1130POPC   C1A19083  39.896  30.097   8.642
 1130POPC   D2A19084  40.046  30.146   8.214
 1130POPC   C3A19085  39.711  30.100   7.905
 1130POPC   C4A19086  39.792  29.864   7.537
 1130POPC   C1B19087  39.975  29.561   8.801
 1130POPC   C2B19088  39.782  29.649   8.402
 1130POPC   C3B19089  39.941  29.653   8.009
 1130POPC   C4B19090  39.901  29.380   7.699
 1131POPC   NC319091  27.443   6.442   9.720
 1131POPC   PO419092  27.902   6.859   9.438
 1131POPC   GL119093  27.531   6.664   9.227
 1131POPC   GL219094  27.554   6.314   9.246
 1131POPC   C1A19095  27.421   6.786   8.807
 1131POPC   D2A19096  27.601   6.619   8.437
 1131POPC   C3A19097  27.564   6.721   8.028
 1131POPC   C4A19098  27.932   6.847   7.848
 1131POPC   C1B19099  27.580   6.280   8.825
 1131POPC   C2B19100  27.474   6.130   8.417
 1131POPC   C3B19101  27.640   6.214   8.054
 1131POPC   C4B19102  27.852   6.372   7.703
 1132POPC   NC319103  10.322  24.107   9.512
 1132POPC   PO419104  10.305  24.712   9.662
 1132POPC   GL119105  10.409  24.570   9.244
 1132POPC   GL219106  10.691  24.304   9.208
 1132POPC   C1A19107  10.269  24.630   8.822
 1132POPC   D2A19108  10.417  24.477   8.431
 1132POPC   C3A19109  10.412  24.723   8.061
 1132POPC   C4A19110  10.273  24.368   7.801
 1132POPC   C1B19111  10.774  24.473   8.817
 1132POPC   C2B19112  10.937  24.473   8.416
 1132POPC   C3B19113  10.772  24.356   8.024
 1132POPC   C4B19114  10.835  24.417   7.586
 1133POPC   NC319115  15.580   7.748   9.407
 1133POPC   PO419116  15.044   8.240   9.590
 1133POPC   GL119117  15.052   8.192   9.158
 1133POPC   GL219118  15.336   8.095   9.098
 1133POPC   C1A19119  14.963   7.939   8.773
 1133POPC   D2A19120  15.206   7.927   8.405
 1133POPC   C3A19121  15.054   8.023   8.006
 1133POPC   C4A19122  15.118   8.409   7.780
 1133POPC   C1B19123  15.316   8.336   8.740
 1133POPC   C2B19124  15.497   8.356   8.355
 1133POPC   C3B19125  15.559   8.206   7.970
 1133POPC   C4B19126  15.588   8.369   7.560
 1134POPC   NC319127  38.870  26.575   9.471
 1134POPC   PO419128  39.351  26.993   9.495
 1134POPC   GL119129  39.125  26.883   9.141
 1134POPC   GL219130  39.281  26.558   9.160
 1134POPC   C1A19131  39.224  26.953   8.707
 1134POPC   D2A19132  39.410  27.126   8.357
 1134POPC   C3A19133  39.452  26.945   7.960
 1134POPC   C4A19134  39.051  27.126   7.884
 1134POPC   C1B19135  39.109  26.469   8.781
 1134POPC   C2B19136  39.013  26.514   8.391
 1134POPC   C3B19137  39.039  26.631   7.983
 1134POPC   C4B19138  38.752  26.530   7.642
 1135POPC   NC319139  29.963  21.500   9.646
 1135POPC   PO419140  29.898  20.856   9.510
 1135POPC   GL119141  29.894  21.258   9.184
 1135POPC   GL219142  30.033  21.630   9.154
 1135POPC   C1A19143  29.727  21.424   8.782
 1135POPC   D2A19144  29.889  21.442   8.378
 1135POPC   C3A19145  29.775  21.528   7.959
 1135POPC   C4A19146  29.761  21.269   7.563
 1135POPC   C1B19147  30.257  21.550   8.760
 1135POPC   C2B19148  30.367  21.272   8.416
 1135POPC   C3B19149  30.255  21.359   8.014
 1135POPC   C4B19150  30.398  21.361   7.616
 1136POPC   NC319151  18.549   7.868   9.422
 1136POPC   PO419152  17.983   8.227   9.431
 1136POPC   GL119153  18.191   8.131   9.076
 1136POPC   GL219154  18.140   7.794   9.085
 1136POPC   C1A19155  18.248   8.039   8.638
 1136POPC   D2A19156  18.532   8.175   8.310
 1136POPC   C3A19157  18.390   8.132   7.873
 1136POPC   C4A19158  18.383   8.403   7.527
 1136POPC   C1B19159  18.081   7.553   8.711
 1136POPC   C2B19160  17.924   7.636   8.335
 1136POPC   C3B19161  18.006   8.029   8.190
 1136POPC   C4B19162  17.883   8.073   7.811
 1137POPC   NC319163   3.211  36.325   9.563
 1137POPC   PO419164   3.780  36.081   9.375
 1137POPC   GL119165   3.393  36.093   9.144
 1137POPC   GL219166   3.317  36.452   9.091
 1137POPC   C1A19167   3.381  35.907   8.740
 1137POPC   D2A19168   3.570  35.981   8.339
 1137POPC   C3A19169   3.488  35.693   8.010
 1137POPC   C4A19170   3.321  35.922   7.737
 1137POPC   C1B19171   3.441  36.462   8.667
 1137POPC   C2B19172   3.419  36.571   8.230
 1137POPC   C3B19173   3.526  36.374   7.836
 1137POPC   C4B19174   3.722  36.255   7.447
 1138POPC   NC319175  10.894   9.576   9.408
 1138POPC   PO419176  11.548   9.447   9.514
 1138POPC   GL119177  11.361   9.602   9.119
 1138POPC   GL219178  11.144   9.911   9.077
 1138POPC   C1A19179  11.155   9.505   8.729
 1138POPC   D2A19180  10.852   9.325   8.402
 1138POPC   C3A19181  10.897   9.485   7.978
 1138POPC   C4A19182  11.197   9.667   7.690
 1138POPC   C1B19183  11.402   9.955   8.680
 1138POPC   C2B19184  11.382   9.795   8.267
 1138POPC   C3B19185  11.340  10.073   7.930
 1138POPC   C4B19186  11.035  10.171   7.681
 1139POPC   NC319187  16.636  44.082   9.427
 1139POPC   PO419188  16.945  43.525   9.624
 1139POPC   GL119189  16.824  43.676   9.197
 1139POPC   GL219190  16.954  44.011   9.024
 1139POPC   C1A19191  16.626  43.674   8.799
 1139POPC   D2A19192  16.550  43.779   8.365
 1139POPC   C3A19193  16.368  43.552   8.030
 1139POPC   C4A19194  16.575  43.566   7.672
 1139POPC   C1B19195  16.722  44.202   8.675
 1139POPC   C2B19196  16.516  44.280   8.265
 1139POPC   C3B19197  16.691  44.015   7.921
 1139POPC   C4B19198  16.836  44.092   7.480
 1140POPC   NC319199  26.467  34.464   9.421
 1140POPC   PO419200  25.905  34.279   9.360
 1140POPC   GL119201  26.022  34.616   9.046
 1140POPC   GL219202  26.282  34.855   9.130
 1140POPC   C1A19203  25.736  34.758   8.715
 1140POPC   D2A19204  25.952  34.670   8.354
 1140POPC   C3A19205  25.878  34.384   8.017
 1140POPC   C4A19206  25.884  34.662   7.666
 1140POPC   C1B19207  26.476  34.593   8.790
 1140POPC   C2B19208  26.545  34.691   8.360
 1140POPC   C3B19209  26.300  34.665   7.998
 1140POPC   C4B19210  26.284  34.353   7.634
 1141POPC   NC319211   7.854  32.754   9.640
 1141POPC   PO419212   7.432  33.250   9.459
 1141POPC   GL119213   7.438  33.064   9.095
 1141POPC   GL219214   7.128  33.207   9.045
 1141POPC   C1A19215   7.433  33.077   8.643
 1141POPC   D2A19216   7.688  33.328   8.370
 1141POPC   C3A19217   7.677  33.296   7.926
 1141POPC   C4A19218   7.623  32.985   7.587
 1141POPC   C1B19219   7.060  32.786   8.849
 1141POPC   C2B19220   7.006  32.677   8.403
 1141POPC   C3B19221   7.019  32.589   7.939
 1141POPC   C4B19222   7.158  32.795   7.533
 1142POPC   NC319223  13.613  35.635   9.615
 1142POPC   PO419224  13.422  35.134   9.467
 1142POPC   GL119225  13.614  35.425   9.097
 1142POPC   GL219226  13.862  35.707   9.107
 1142POPC   C1A19227  13.798  35.470   8.644
 1142POPC   D2A19228  13.772  35.398   8.190
 1142POPC   C3A19229  13.401  35.510   7.934
 1142POPC   C4A19230  13.140  35.400   7.544
 1142POPC   C1B19231  13.990  35.953   8.708
 1142POPC   C2B19232  14.137  35.780   8.292
 1142POPC   C3B19233  13.919  35.758   7.857
 1142POPC   C4B19234  14.101  35.689   7.411
 1143POPC   NC319235  44.568   1.128   9.414
 1143POPC   PO419236  44.186   1.646   9.524
 1143POPC   GL119237  44.304   1.480   9.092
 1143POPC   GL219238  44.276   1.134   8.990
 1143POPC   C1A19239  44.539   1.444   8.676
 1143POPC   D2A19240  44.893   1.487   8.387
 1143POPC   C3A19241  44.838   1.394   7.943
 1143POPC   C4A19242  44.967   1.074   7.622
 1143POPC   C1B19243  44.362   0.922   8.597
 1143POPC   C2B19244  44.415   0.800   8.134
 1143POPC   C3B19245  44.450   1.087   7.813
 1143POPC   C4B19246  44.331   1.530   7.877
 1144POPC   NC319247  31.467   2.371   9.558
 1144POPC   PO419248  31.406   3.021   9.431
 1144POPC   GL119249  31.476   2.766   9.107
 1144POPC   GL219250  31.761   2.952   9.032
 1144POPC   C1A19251  31.368   2.882   8.680
 1144POPC   D2A19252  31.155   2.774   8.295
 1144POPC   C3A19253  31.389   2.944   7.968
 1144POPC   C4A19254  31.451   2.829   7.556
 1144POPC   C1B19255  31.818   2.625   8.731
 1144POPC   C2B19256  32.001   2.525   8.377
 1144POPC   C3B19257  31.839   2.712   8.038
 1144POPC   C4B19258  31.874   2.592   7.634
 1145POPC   NC319259  36.436  39.144   9.606
 1145POPC   PO419260  35.826  39.382   9.443
 1145POPC   GL119261  36.215  39.297   9.172
 1145POPC   GL219262  36.526  39.531   9.278
 1145POPC   C1A19263  36.288  39.021   8.793
 1145POPC   D2A19264  36.481  39.105   8.372
 1145POPC   C3A19265  36.277  39.122   7.973
 1145POPC   C4A19266  36.244  39.030   7.546
 1145POPC   C1B19267  36.330  39.730   8.928
 1145POPC   C2B19268  36.284  39.589   8.527
 1145POPC   C3B19269  36.351  39.619   8.111
 1145POPC   C4B19270  36.031  39.557   7.787
 1146POPC   NC319271  24.964  18.099   9.526
 1146POPC   PO419272  25.644  18.256   9.511
 1146POPC   GL119273  25.305  18.289   9.213
 1146POPC   GL219274  25.528  18.392   9.006
 1146POPC   C1A19275  25.026  18.258   8.840
 1146POPC   D2A19276  25.097  18.188   8.393
 1146POPC   C3A19277  25.065  18.373   8.014
 1146POPC   C4A19278  25.175  18.271   7.618
 1146POPC   C1B19279  25.508  18.403   8.615
 1146POPC   C2B19280  25.601  18.067   8.361
 1146POPC   C3B19281  25.503  18.047   7.954
 1146POPC   C4B19282  25.697  18.185   7.579
 1147POPC   NC319283   7.854   9.746   9.448
 1147POPC   PO419284   8.492   9.567   9.365
 1147POPC   GL119285   8.332   9.782   8.965
 1147POPC   GL219286   8.049   9.677   8.992
 1147POPC   C1A19287   8.147   9.815   8.528
 1147POPC   D2A19288   8.000   9.527   8.233
 1147POPC   C3A19289   8.261   9.618   7.914
 1147POPC   C4A19290   8.262   9.689   7.469
 1147POPC   C1B19291   7.772  10.026   8.803
 1147POPC   C2B19292   7.699  10.117   8.432
 1147POPC   C3B19293   7.919  10.014   8.088
 1147POPC   C4B19294   7.847   9.991   7.670
 1148POPC   NC319295   3.982   0.900   9.820
 1148POPC   PO419296   4.342   1.293   9.578
 1148POPC   GL119297   4.374   1.424   9.128
 1148POPC   GL219298   4.119   1.673   9.121
 1148POPC   C1A19299   4.465   1.247   8.687
 1148POPC   D2A19300   4.248   1.087   8.309
 1148POPC   C3A19301   4.436   1.221   7.910
 1148POPC   C4A19302   4.741   1.565   7.855
 1148POPC   C1B19303   4.119   1.600   8.667
 1148POPC   C2B19304   4.369   1.596   8.280
 1148POPC   C3B19305   4.229   1.679   7.876
 1148POPC   C4B19306   3.882   1.453   7.666
 1149POPC   NC319307   6.300  36.115   9.399
 1149POPC   PO419308   6.812  36.460   9.640
 1149POPC   GL119309   6.753  36.235   9.223
 1149POPC   GL219310   6.683  35.876   9.153
 1149POPC   C1A19311   6.562  36.303   8.811
 1149POPC   D2A19312   6.702  36.180   8.402
 1149POPC   C3A19313   6.730  36.345   7.982
 1149POPC   C4A19314   6.847  35.968   7.733
 1149POPC   C1B19315   6.487  35.780   8.756
 1149POPC   C2B19316   6.230  35.994   8.452
 1149POPC   C3B19317   6.363  35.958   8.025
 1149POPC   C4B19318   6.387  36.168   7.645
 1150POPC   NC319319  21.257  40.454   9.478
 1150POPC   PO419320  21.113  39.832   9.560
 1150POPC   GL119321  21.261  39.878   9.148
 1150POPC   GL219322  21.216  40.225   9.024
 1150POPC   C1A19323  21.580  39.900   8.804
 1150POPC   D2A19324  21.492  40.029   8.373
 1150POPC   C3A19325  21.323  39.801   8.025
 1150POPC   C4A19326  21.527  39.883   7.608
 1150POPC   C1B19327  21.064  40.026   8.663
 1150POPC   C2B19328  20.997  40.169   8.242
 1150POPC   C3B19329  21.198  40.258   7.834
 1150POPC   C4B19330  20.997  40.337   7.453
 1151POPC   NC319331  18.308  15.177   9.614
 1151POPC   PO419332  18.044  15.420   9.072
 1151POPC   GL119333  18.202  14.997   9.147
 1151POPC   GL219334  18.575  14.984   9.199
 1151POPC   C1A19335  18.350  14.830   8.781
 1151POPC   D2A19336  18.355  15.083   8.424
 1151POPC   C3A19337  18.294  14.909   8.053
 1151POPC   C4A19338  17.937  14.951   7.832
 1151POPC   C1B19339  18.705  15.168   8.820
 1151POPC   C2B19340  18.676  15.483   8.502
 1151POPC   C3B19341  18.373  15.573   8.174
 1151POPC   C4B19342  18.283  15.369   7.760
 1152POPC   NC319343   6.102  29.754   9.456
 1152POPC   PO419344   5.708  30.261   9.471
 1152POPC   GL119345   5.920  30.054   9.070
 1152POPC   GL219346   5.903  29.659   8.999
 1152POPC   C1A19347   5.807  29.990   8.615
 1152POPC   D2A19348   5.916  29.723   8.252
 1152POPC   C3A19349   6.018  30.010   7.936
 1152POPC   C4A19350   5.958  29.879   7.543
 1152POPC   C1B19351   5.643  29.498   8.652
 1152POPC   C2B19352   5.417  29.752   8.362
 1152POPC   C3B19353   5.504  29.833   7.934
 1152POPC   C4B19354   5.552  30.210   7.732
 1153POPC   NC319355  11.821  23.495   9.457
 1153POPC   PO419356  12.319  23.963   9.468
 1153POPC   GL119357  12.083  23.778   9.087
 1153POPC   GL219358  11.817  23.518   8.969
 1153POPC   C1A19359  12.115  23.681   8.625
 1153POPC   D2A19360  12.181  23.361   8.302
 1153POPC   C3A19361  12.048  23.621   7.953
 1153POPC   C4A19362  12.291  23.769   7.609
 1153POPC   C1B19363  11.627  23.885   8.793
 1153POPC   C2B19364  11.728  24.102   8.423
 1153POPC   C3B19365  11.801  24.179   8.008
 1153POPC   C4B19366  11.868  24.032   7.612
 1154POPC   NC319367  41.513  35.267   9.430
 1154POPC   PO419368  42.028  35.722   9.515
 1154POPC   GL119369  41.797  35.578   9.140
 1154POPC   GL219370  41.427  35.601   9.041
 1154POPC   C1A19371  41.857  35.373   8.738
 1154POPC   D2A19372  41.736  35.119   8.387
 1154POPC   C3A19373  41.573  35.365   8.040
 1154POPC   C4A19374  41.666  35.307   7.593
 1154POPC   C1B19375  41.340  35.306   8.706
 1154POPC   C2B19376  41.132  35.277   8.310
 1154POPC   C3B19377  41.090  35.454   7.906
 1154POPC   C4B19378  41.238  35.060   7.717
 1155POPC   NC319379  19.968  12.409   9.408
 1155POPC   PO419380  19.860  13.079   9.418
 1155POPC   GL119381  19.915  12.965   9.032
 1155POPC   GL219382  19.962  12.621   8.966
 1155POPC   C1A19383  19.719  12.962   8.650
 1155POPC   D2A19384  19.636  12.682   8.320
 1155POPC   C3A19385  19.629  12.947   7.945
 1155POPC   C4A19386  19.836  12.858   7.576
 1155POPC   C1B19387  20.243  12.364   8.759
 1155POPC   C2B19388  20.319  12.508   8.366
 1155POPC   C3B19389  20.060  12.615   8.034
 1155POPC   C4B19390  19.999  12.398   7.677
 1156POPC   NC319391  43.819  37.154   9.472
 1156POPC   PO419392  44.083  36.401   9.462
 1156POPC   GL119393  43.829  36.671   9.223
 1156POPC   GL219394  44.098  36.878   9.154
 1156POPC   C1A19395  43.717  36.846   8.803
 1156POPC   D2A19396  43.757  36.796   8.354
 1156POPC   C3A19397  43.434  36.939   8.056
 1156POPC   C4A19398  43.548  37.113   7.657
 1156POPC   C1B19399  44.280  36.895   8.767
 1156POPC   C2B19400  44.549  37.025   8.419
 1156POPC   C3B19401  44.293  36.930   8.070
 1156POPC   C4B19402  44.057  37.009   7.707
 1157POPC   NC319403  29.020   9.646   9.624
 1157POPC   PO419404  29.704   9.818   9.595
 1157POPC   GL119405  29.355   9.713   9.239
 1157POPC   GL219406  29.013   9.515   9.136
 1157POPC   C1A19407  29.292   9.784   8.797
 1157POPC   D2A19408  29.133   9.655   8.405
 1157POPC   C3A19409  29.141   9.909   8.060
 1157POPC   C4A19410  29.334   9.714   7.710
 1157POPC   C1B19411  28.781   9.741   8.822
 1157POPC   C2B19412  28.703   9.903   8.417
 1157POPC   C3B19413  28.675   9.710   8.027
 1157POPC   C4B19414  28.846   9.881   7.628
 1158POPC   NC319415  21.707  22.343   9.402
 1158POPC   PO419416  21.346  21.782   9.557
 1158POPC   GL119417  21.471  21.871   9.147
 1158POPC   GL219418  21.350  22.207   9.050
 1158POPC   C1A19419  21.427  21.862   8.693
 1158POPC   D2A19420  21.294  22.118   8.370
 1158POPC   C3A19421  21.408  22.096   7.955
 1158POPC   C4A19422  21.278  22.512   7.741
 1158POPC   C1B19423  21.686  22.326   8.703
 1158POPC   C2B19424  21.705  22.409   8.231
 1158POPC   C3B19425  21.775  22.412   7.769
 1158POPC   C4B19426  21.907  22.455   7.325
 1159POPC   NC319427  39.832  43.427   9.390
 1159POPC   PO419428  40.058  44.004   9.660
 1159POPC   GL119429  40.088  43.865   9.237
 1159POPC   GL219430  39.778  43.999   9.146
 1159POPC   C1A19431  39.987  43.651   8.809
 1159POPC   D2A19432  39.810  43.550   8.418
 1159POPC   C3A19433  40.128  43.733   8.176
 1159POPC   C4A19434  40.138  43.783   7.717
 1159POPC   C1B19435  40.082  44.153   8.823
 1159POPC   C2B19436  40.279  44.211   8.424
 1159POPC   C3B19437  40.178  44.203   7.988
 1159POPC   C4B19438  40.148  44.314   7.536
 1160POPC   NC319439  18.510  10.304   9.571
 1160POPC   PO419440  18.034  10.775   9.449
 1160POPC   GL119441  18.340  10.609   9.181
 1160POPC   GL219442  18.363  10.255   9.080
 1160POPC   C1A19443  18.476  10.670   8.761
 1160POPC   D2A19444  18.413  10.352   8.449
 1160POPC   C3A19445  18.491  10.521   8.029
 1160POPC   C4A19446  18.259  10.828   7.779
 1160POPC   C1B19447  18.028  10.041   8.820
 1160POPC   C2B19448  17.908  10.119   8.413
 1160POPC   C3B19449  18.146  10.144   8.062
 1160POPC   C4B19450  18.140  10.341   7.666
 1161POPC   NC319451  15.861  34.692   9.869
 1161POPC   PO419452  16.344  34.367   9.498
 1161POPC   GL119453  16.207  34.500   9.083
 1161POPC   GL219454  15.954  34.744   9.082
 1161POPC   C1A19455  16.060  34.542   8.613
 1161POPC   D2A19456  15.942  34.356   8.181
 1161POPC   C3A19457  16.222  34.279   7.815
 1161POPC   C4A19458  16.233  34.407   7.351
 1161POPC   C1B19459  16.267  34.950   8.850
 1161POPC   C2B19460  16.373  34.953   8.446
 1161POPC   C3B19461  16.164  34.809   8.088
 1161POPC   C4B19462  15.933  34.694   7.702
 1162POPC   NC319463  43.867  10.909   9.628
 1162POPC   PO419464  43.646  10.333   9.432
 1162POPC   GL119465  43.859  10.397   9.041
 1162POPC   GL219466  44.129  10.633   9.095
 1162POPC   C1A19467  43.751  10.273   8.642
 1162POPC   D2A19468  43.488  10.432   8.325
 1162POPC   C3A19469  43.709  10.619   7.989
 1162POPC   C4A19470  43.996  10.556   7.653
 1162POPC   C1B19471  44.303  10.845   8.746
 1162POPC   C2B19472  44.200  10.725   8.304
 1162POPC   C3B19473  44.107  10.978   7.932
 1162POPC   C4B19474  44.190  10.978   7.450
 1163POPC   NC319475  17.890   6.013   9.500
 1163POPC   PO419476  17.388   5.554   9.464
 1163POPC   GL119477  17.651   5.706   9.146
 1163POPC   GL219478  17.524   6.073   9.150
 1163POPC   C1A19479  17.645   5.814   8.703
 1163POPC   D2A19480  17.424   5.593   8.371
 1163POPC   C3A19481  17.462   5.710   7.945
 1163POPC   C4A19482  17.226   5.814   7.548
 1163POPC   C1B19483  17.392   6.281   8.774
 1163POPC   C2B19484  17.189   6.126   8.389
 1163POPC   C3B19485  17.348   6.193   7.999
 1163POPC   C4B19486  17.780   6.221   7.973
 1164POPC   NC319487  36.545  19.449   9.391
 1164POPC   PO419488  36.217  20.100   9.520
 1164POPC   GL119489  36.043  19.899   9.163
 1164POPC   GL219490  35.899  19.555   9.278
 1164POPC   C1A19491  36.064  20.057   8.728
 1164POPC   D2A19492  36.376  20.018   8.381
 1164POPC   C3A19493  36.301  19.780   8.049
 1164POPC   C4A19494  36.087  19.909   7.689
 1164POPC   C1B19495  35.978  19.459   8.847
 1164POPC   C2B19496  35.996  19.636   8.455
 1164POPC   C3B19497  35.836  19.550   8.067
 1164POPC   C4B19498  36.107  19.410   7.741
 1165POPC   NC319499  10.598  36.047  10.088
 1165POPC   PO419500  10.904  36.214   9.537
 1165POPC   GL119501  11.182  36.078   9.171
 1165POPC   GL219502  11.059  35.868   8.921
 1165POPC   C1A19503  11.467  36.261   8.834
 1165POPC   D2A19504  11.459  36.479   8.423
 1165POPC   C3A19505  11.582  36.309   8.004
 1165POPC   C4A19506  11.682  36.457   7.547
 1165POPC   C1B19507  11.005  36.225   8.623
 1165POPC   C2B19508  11.057  36.295   8.167
 1165POPC   C3B19509  11.127  36.268   7.736
 1165POPC   C4B19510  11.037  35.899   7.486
 1166POPC   NC319511  33.476   4.815   9.567
 1166POPC   PO419512  33.562   5.493   9.864
 1166POPC   GL119513  33.731   5.252   9.431
 1166POPC   GL219514  33.880   4.925   9.297
 1166POPC   C1A19515  33.908   5.331   8.966
 1166POPC   D2A19516  33.839   5.221   8.526
 1166POPC   C3A19517  34.000   4.943   8.226
 1166POPC   C4A19518  33.957   5.003   7.772
 1166POPC   C1B19519  33.645   4.897   8.888
 1166POPC   C2B19520  33.481   4.854   8.431
 1166POPC   C3B19521  33.584   4.733   7.987
 1166POPC   C4B19522  33.678   4.577   7.533
 1167POPC   NC319523  26.818   7.850   9.510
 1167POPC   PO419524  26.507   8.527   9.511
 1167POPC   GL119525  26.770   8.420   9.085
 1167POPC   GL219526  26.963   8.113   9.081
 1167POPC   C1A19527  26.969   8.369   8.628
 1167POPC   D2A19528  26.944   8.681   8.256
 1167POPC   C3A19529  26.599   8.653   8.016
 1167POPC   C4A19530  26.723   8.429   7.696
 1167POPC   C1B19531  27.018   7.815   8.759
 1167POPC   C2B19532  26.930   7.829   8.346
 1167POPC   C3B19533  26.937   8.163   8.076
 1167POPC   C4B19534  27.210   8.233   7.741
 1168POPC   NC319535  20.682  39.768   9.924
 1168POPC   PO419536  20.264  40.088   9.454
 1168POPC   GL119537  20.355  39.954   9.062
 1168POPC   GL219538  20.728  40.001   9.062
 1168POPC   C1A19539  20.428  40.134   8.652
 1168POPC   D2A19540  20.500  39.930   8.288
 1168POPC   C3A19541  20.560  40.188   7.952
 1168POPC   C4A19542  20.427  40.168   7.550
 1168POPC   C1B19543  20.682  39.689   8.721
 1168POPC   C2B19544  20.915  39.653   8.346
 1168POPC   C3B19545  20.776  39.677   7.931
 1168POPC   C4B19546  21.017  39.818   7.593
 1169POPC   NC319547  30.267   9.275   9.497
 1169POPC   PO419548  30.844   8.969   9.823
 1169POPC   GL119549  30.736   9.071   9.334
 1169POPC   GL219550  30.834   8.828   9.137
 1169POPC   C1A19551  30.725   9.188   8.829
 1169POPC   D2A19552  30.705   8.966   8.419
 1169POPC   C3A19553  30.639   9.070   8.000
 1169POPC   C4A19554  30.845   9.081   7.616
 1169POPC   C1B19555  30.559   8.652   8.797
 1169POPC   C2B19556  30.379   8.591   8.356
 1169POPC   C3B19557  30.457   8.605   7.903
 1169POPC   C4B19558  30.435   8.809   7.482
 1170POPC   NC319559  20.843   9.603   9.809
 1170POPC   PO419560  21.227  10.016   9.414
 1170POPC   GL119561  21.435   9.663   9.181
 1170POPC   GL219562  21.202   9.457   9.127
 1170POPC   C1A19563  21.656   9.669   8.770
 1170POPC   D2A19564  21.646   9.942   8.379
 1170POPC   C3A19565  21.694   9.749   7.964
 1170POPC   C4A19566  21.709   9.772   7.508
 1170POPC   C1B19567  21.139   9.689   8.742
 1170POPC   C2B19568  21.143   9.834   8.347
 1170POPC   C3B19569  21.191   9.650   7.989
 1170POPC   C4B19570  21.220   9.729   7.586
 1171POPC   NC319571  23.915  40.234   9.332
 1171POPC   PO419572  23.678  39.706   9.704
 1171POPC   GL119573  23.779  39.660   9.262
 1171POPC   GL219574  23.464  39.737   9.120
 1171POPC   C1A19575  23.901  39.784   8.818
 1171POPC   D2A19576  23.919  40.029   8.408
 1171POPC   C3A19577  23.936  39.853   7.975
 1171POPC   C4A19578  23.993  40.118   7.607
 1171POPC   C1B19579  23.351  39.879   8.685
 1171POPC   C2B19580  23.424  39.957   8.269
 1171POPC   C3B19581  23.616  40.269   8.022
 1171POPC   C4B19582  23.474  40.175   7.634
 1172POPC   NC319583   8.285  39.726   9.557
 1172POPC   PO419584   7.893  40.251   9.478
 1172POPC   GL119585   8.067  40.004   9.181
 1172POPC   GL219586   7.825  39.764   9.251
 1172POPC   C1A19587   8.270  40.035   8.795
 1172POPC   D2A19588   8.421  40.382   8.531
 1172POPC   C3A19589   8.423  40.237   8.101
 1172POPC   C4A19590   8.354  39.924   7.796
 1172POPC   C1B19591   7.779  39.785   8.811
 1172POPC   C2B19592   7.946  39.912   8.403
 1172POPC   C3B19593   7.881  39.992   7.987
 1172POPC   C4B19594   7.898  39.709   7.647
 1173POPC   NC319595  39.719  25.711   9.255
 1173POPC   PO419596  40.176  26.170   9.582
 1173POPC   GL119597  40.214  26.011   9.168
 1173POPC   GL219598  40.180  25.675   9.014
 1173POPC   C1A19599  40.054  26.184   8.784
 1173POPC   D2A19600  40.010  26.369   8.390
 1173POPC   C3A19601  40.153  26.148   8.009
 1173POPC   C4A19602  40.038  26.200   7.602
 1173POPC   C1B19603  39.847  25.742   8.637
 1173POPC   C2B19604  39.755  25.913   8.234
 1173POPC   C3B19605  39.850  25.762   7.797
 1173POPC   C4B19606  39.738  25.695   7.333
 1174POPC   NC319607   4.751  23.105   9.350
 1174POPC   PO419608   4.286  22.853   9.740
 1174POPC   GL119609   4.278  22.870   9.283
 1174POPC   GL219610   4.492  22.633   9.131
 1174POPC   C1A19611   4.249  23.018   8.819
 1174POPC   D2A19612   4.231  23.245   8.395
 1174POPC   C3A19613   4.280  23.034   7.983
 1174POPC   C4A19614   4.310  22.657   7.749
 1174POPC   C1B19615   4.732  22.809   8.763
 1174POPC   C2B19616   4.661  22.987   8.353
 1174POPC   C3B19617   4.742  22.782   7.962
 1174POPC   C4B19618   4.818  22.867   7.491
 1175POPC   NC319619  38.027  26.102   9.214
 1175POPC   PO419620  38.616  26.188   9.571
 1175POPC   GL119621  38.642  25.969   9.179
 1175POPC   GL219622  38.888  26.196   9.126
 1175POPC   C1A19623  38.442  25.883   8.767
 1175POPC   D2A19624  38.219  26.097   8.418
 1175POPC   C3A19625  38.363  25.962   7.998
 1175POPC   C4A19626  38.358  25.923   7.531
 1175POPC   C1B19627  38.938  25.996   8.735
 1175POPC   C2B19628  38.740  26.060   8.371
 1175POPC   C3B19629  38.845  26.173   7.997
 1175POPC   C4B19630  38.851  25.993   7.616
 1176POPC   NC319631  37.379  14.030   9.331
 1176POPC   PO419632  37.483  14.604   9.497
 1176POPC   GL119633  37.646  14.473   9.152
 1176POPC   GL219634  37.867  14.216   9.267
 1176POPC   C1A19635  37.563  14.590   8.732
 1176POPC   D2A19636  37.395  14.467   8.332
 1176POPC   C3A19637  37.578  14.726   8.017
 1176POPC   C4A19638  37.728  14.609   7.599
 1176POPC   C1B19639  37.856  14.143   8.808
 1176POPC   C2B19640  37.858  14.105   8.340
 1176POPC   C3B19641  37.632  14.199   7.955
 1176POPC   C4B19642  37.588  14.049   7.556
 1177POPC   NC319643  12.581  23.498   9.374
 1177POPC   PO419644  13.252  23.739   9.455
 1177POPC   GL119645  13.040  23.842   9.075
 1177POPC   GL219646  12.771  24.092   9.147
 1177POPC   C1A19647  12.991  23.580   8.687
 1177POPC   D2A19648  13.194  23.401   8.310
 1177POPC   C3A19649  12.991  23.506   7.903
 1177POPC   C4A19650  12.985  23.433   7.453
 1177POPC   C1B19651  12.566  23.866   8.805
 1177POPC   C2B19652  12.528  23.772   8.348
 1177POPC   C3B19653  12.342  24.058   8.041
 1177POPC   C4B19654  12.633  24.126   7.707
 1178POPC   NC319655  14.553  22.521   9.150
 1178POPC   PO419656  14.525  22.014   9.585
 1178POPC   GL119657  14.418  22.023   9.183
 1178POPC   GL219658  14.129  22.223   9.251
 1178POPC   C1A19659  14.606  21.943   8.767
 1178POPC   D2A19660  14.811  22.007   8.348
 1178POPC   C3A19661  14.506  21.963   8.020
 1178POPC   C4A19662  14.414  22.193   7.635
 1178POPC   C1B19663  14.066  22.046   8.837
 1178POPC   C2B19664  14.161  22.001   8.421
 1178POPC   C3B19665  14.003  22.111   7.995
 1178POPC   C4B19666  13.917  22.268   7.582
 1179POPC   NC319667  16.937   4.540   9.493
 1179POPC   PO419668  16.503   5.070   9.466
 1179POPC   GL119669  16.663   5.191   9.090
 1179POPC   GL219670  16.996   5.019   9.054
 1179POPC   C1A19671  16.681   5.191   8.685
 1179POPC   D2A19672  16.539   5.011   8.384
 1179POPC   C3A19673  16.751   5.024   8.056
 1179POPC   C4A19674  16.499   5.007   7.717
 1179POPC   C1B19675  17.192   5.243   8.722
 1179POPC   C2B19676  17.261   5.115   8.282
 1179POPC   C3B19677  17.155   5.308   7.902
 1179POPC   C4B19678  16.981   5.097   7.592
 1180POPC   NC319679  21.110  28.724   9.367
 1180POPC   PO419680  21.562  29.088   9.701
 1180POPC   GL119681  21.623  29.074   9.226
 1180POPC   GL219682  21.458  28.775   8.979
 1180POPC   C1A19683  21.575  29.228   8.802
 1180POPC   D2A19684  21.482  29.003   8.455
 1180POPC   C3A19685  21.645  29.205   8.116
 1180POPC   C4A19686  21.456  29.264   7.765
 1180POPC   C1B19687  21.055  28.841   8.747
 1180POPC   C2B19688  20.847  28.976   8.410
 1180POPC   C3B19689  21.097  29.056   8.092
 1180POPC   C4B19690  21.045  28.988   7.659
 1181POPC   NC319691   2.580  36.284   9.749
 1181POPC   PO419692   3.106  35.858   9.584
 1181POPC   GL119693   2.874  35.952   9.250
 1181POPC   GL219694   2.815  36.297   9.231
 1181POPC   C1A19695   2.499  35.965   9.007
 1181POPC   D2A19696   2.496  36.197   8.627
 1181POPC   C3A19697   2.582  36.134   8.173
 1181POPC   C4A19698   2.440  35.824   7.834
 1181POPC   C1B19699   2.975  36.218   8.808
 1181POPC   C2B19700   3.093  36.171   8.369
 1181POPC   C3B19701   3.022  36.344   7.955
 1181POPC   C4B19702   2.687  36.297   7.675
 1182POPC   NC319703  18.521  18.021   9.350
 1182POPC   PO419704  18.453  18.589   9.701
 1182POPC   GL119705  18.260  18.538   9.234
 1182POPC   GL219706  17.988  18.288   9.174
 1182POPC   C1A19707  18.412  18.470   8.769
 1182POPC   D2A19708  18.470  18.183   8.444
 1182POPC   C3A19709  18.602  18.318   8.063
 1182POPC   C4A19710  18.581  18.139   7.690
 1182POPC   C1B19711  17.906  18.447   8.745
 1182POPC   C2B19712  18.091  18.508   8.305
 1182POPC   C3B19713  18.104  18.369   7.843
 1182POPC   C4B19714  17.968  18.555   7.423
 1183POPC   NC319715  17.996   3.698   9.436
 1183POPC   PO419716  18.603   3.358   9.434
 1183POPC   GL119717  18.588   3.484   9.050
 1183POPC   GL219718  18.234   3.514   9.016
 1183POPC   C1A19719  18.582   3.611   8.643
 1183POPC   D2A19720  18.624   3.859   8.304
 1183POPC   C3A19721  18.356   3.884   7.984
 1183POPC   C4A19722  18.458   3.877   7.541
 1183POPC   C1B19723  18.172   3.313   8.618
 1183POPC   C2B19724  18.384   3.307   8.210
 1183POPC   C3B19725  18.246   3.440   7.792
 1183POPC   C4B19726  18.045   3.566   7.434
 1184POPC   NC319727  18.341   2.762   9.495
 1184POPC   PO419728  17.774   2.479   9.282
 1184POPC   GL119729  18.059   2.696   9.081
 1184POPC   GL219730  18.052   3.027   9.110
 1184POPC   C1A19731  18.301   2.683   8.721
 1184POPC   D2A19732  18.145   2.715   8.335
 1184POPC   C3A19733  18.310   2.501   7.975
 1184POPC   C4A19734  18.131   2.497   7.559
 1184POPC   C1B19735  17.836   2.950   8.698
 1184POPC   C2B19736  17.849   3.127   8.247
 1184POPC   C3B19737  18.131   2.972   7.904
 1184POPC   C4B19738  18.166   3.011   7.455
 1185POPC   NC319739  16.240   9.732   9.348
 1185POPC   PO419740  15.581   9.733   9.476
 1185POPC   GL119741  15.801   9.700   9.075
 1185POPC   GL219742  15.997   9.388   9.004
 1185POPC   C1A19743  16.087   9.835   8.730
 1185POPC   D2A19744  16.270   9.699   8.333
 1185POPC   C3A19745  16.164   9.977   7.983
 1185POPC   C4A19746  16.240  10.066   7.521
 1185POPC   C1B19747  15.847   9.423   8.538
 1185POPC   C2B19748  15.873   9.493   8.065
 1185POPC   C3B19749  15.950   9.645   7.634
 1185POPC   C4B19750  15.785   9.586   7.193
 1186POPC   NC319751  29.550  42.273   9.447
 1186POPC   PO419752  28.997  42.615   9.548
 1186POPC   GL119753  29.156  42.478   9.096
 1186POPC   GL219754  29.425  42.195   8.971
 1186POPC   C1A19755  29.240  42.519   8.637
 1186POPC   D2A19756  29.315  42.307   8.252
 1186POPC   C3A19757  29.478  42.522   7.933
 1186POPC   C4A19758  29.150  42.551   7.683
 1186POPC   C1B19759  29.466  41.980   8.597
 1186POPC   C2B19760  29.290  41.781   8.226
 1186POPC   C3B19761  29.246  42.013   7.831
 1186POPC   C4B19762  29.575  42.124   7.580
 1187POPC   NC319763  35.151  26.118   9.653
 1187POPC   PO419764  35.809  26.272   9.412
 1187POPC   GL119765  35.553  26.146   9.097
 1187POPC   GL219766  35.351  25.902   9.220
 1187POPC   C1A19767  35.604  26.105   8.659
 1187POPC   D2A19768  35.441  26.411   8.362
 1187POPC   C3A19769  35.244  26.388   7.961
 1187POPC   C4A19770  34.959  26.324   7.609
 1187POPC   C1B19771  35.431  25.629   8.881
 1187POPC   C2B19772  35.546  25.616   8.451
 1187POPC   C3B19773  35.325  25.796   8.101
 1187POPC   C4B19774  35.378  25.981   7.702
 1188POPC   NC319775  33.471   3.342   9.450
 1188POPC   PO419776  34.019   3.759   9.616
 1188POPC   GL119777  33.745   3.758   9.208
 1188POPC   GL219778  33.688   3.421   9.008
 1188POPC   C1A19779  33.652   3.902   8.758
 1188POPC   D2A19780  33.717   3.559   8.425
 1188POPC   C3A19781  33.994   3.552   8.048
 1188POPC   C4A19782  34.018   3.430   7.606
 1188POPC   C1B19783  33.419   3.081   8.795
 1188POPC   C2B19784  33.450   2.969   8.339
 1188POPC   C3B19785  33.554   3.282   8.002
 1188POPC   C4B19786  33.542   3.753   7.900
 1189POPC   NC319787  39.084  14.612   9.510
 1189POPC   PO419788  39.685  14.366   9.514
 1189POPC   GL119789  39.460  14.527   9.114
 1189POPC   GL219790  39.151  14.285   8.991
 1189POPC   C1A19791  39.478  14.452   8.643
 1189POPC   D2A19792  39.144  14.175   8.463
 1189POPC   C3A19793  39.007  14.331   8.039
 1189POPC   C4A19794  39.219  14.361   7.649
 1189POPC   C1B19795  39.057  14.664   8.826
 1189POPC   C2B19796  39.110  14.890   8.436
 1189POPC   C3B19797  38.957  14.903   8.006
 1189POPC   C4B19798  38.970  14.785   7.557
 1190POPC   NC319799  23.609  13.807   9.679
 1190POPC   PO419800  23.932  13.248   9.408
 1190POPC   GL119801  23.881  13.619   9.146
 1190POPC   GL219802  23.775  13.963   9.135
 1190POPC   C1A19803  23.767  13.619   8.730
 1190POPC   D2A19804  23.763  13.467   8.327
 1190POPC   C3A19805  23.542  13.735   8.039
 1190POPC   C4A19806  23.385  13.693   7.614
 1190POPC   C1B19807  24.120  13.967   8.831
 1190POPC   C2B19808  24.241  13.743   8.469
 1190POPC   C3B19809  24.079  13.750   8.056
 1190POPC   C4B19810  23.880  13.772   7.649
 1191POPC   NC319811  38.273  23.238   9.575
 1191POPC   PO419812  38.241  22.629   9.500
 1191POPC   GL119813  38.454  22.907   9.240
 1191POPC   GL219814  38.230  22.844   9.027
 1191POPC   C1A19815  38.675  23.074   8.891
 1191POPC   D2A19816  38.770  22.953   8.475
 1191POPC   C3A19817  38.707  23.113   8.046
 1191POPC   C4A19818  38.636  22.886   7.667
 1191POPC   C1B19819  38.215  23.056   8.656
 1191POPC   C2B19820  37.991  23.054   8.290
 1191POPC   C3B19821  38.202  23.060   7.893
 1191POPC   C4B19822  38.137  22.881   7.480
 1192POPC   NC319823  44.321   2.089   9.542
 1192POPC   PO419824  44.790   2.439   9.451
 1192POPC   GL119825  44.627   2.177   9.114
 1192POPC   GL219826  44.402   2.405   9.023
 1192POPC   C1A19827  44.404   1.915   8.807
 1192POPC   D2A19828  44.268   1.828   8.359
 1192POPC   C3A19829  44.415   2.032   7.977
 1192POPC   C4A19830  44.709   1.853   7.701
 1192POPC   C1B19831  44.575   2.367   8.600
 1192POPC   C2B19832  44.911   2.493   8.298
 1192POPC   C3B19833  44.905   2.288   7.883
 1192POPC   C4B19834   0.079   2.137   7.480
 1193POPC   NC319835  18.351  35.582   9.550
 1193POPC   PO419836  17.908  35.124   9.624
 1193POPC   GL119837  18.025  35.283   9.248
 1193POPC   GL219838  18.350  35.154   9.157
 1193POPC   C1A19839  18.081  35.443   8.833
 1193POPC   D2A19840  18.184  35.175   8.465
 1193POPC   C3A19841  18.126  35.307   8.038
 1193POPC   C4A19842  18.220  35.494   7.619
 1193POPC   C1B19843  18.573  35.319   8.783
 1193POPC   C2B19844  18.614  35.513   8.372
 1193POPC   C3B19845  18.619  35.390   7.947
 1193POPC   C4B19846  18.679  35.283   7.505
 1194POPC   NC319847   6.247   6.730   9.627
 1194POPC   PO419848   5.680   6.454   9.635
 1194POPC   GL119849   5.839   6.667   9.280
 1194POPC   GL219850   6.116   6.487   9.179
 1194POPC   C1A19851   5.814   6.703   8.828
 1194POPC   D2A19852   5.766   6.475   8.464
 1194POPC   C3A19853   5.826   6.696   8.101
 1194POPC   C4A19854   5.833   6.573   7.679
 1194POPC   C1B19855   6.301   6.523   8.754
 1194POPC   C2B19856   6.292   6.537   8.331
 1194POPC   C3B19857   6.475   6.285   8.053
 1194POPC   C4B19858   6.305   6.397   7.707
 1195POPC   NC319859  35.535  31.464   9.502
 1195POPC   PO419860  34.894  31.782   9.447
 1195POPC   GL119861  35.287  31.717   9.117
 1195POPC   GL219862  35.391  31.344   9.044
 1195POPC   C1A19863  35.456  31.663   8.668
 1195POPC   D2A19864  35.315  31.400   8.300
 1195POPC   C3A19865  35.311  31.609   7.890
 1195POPC   C4A19866  35.657  31.805   7.643
 1195POPC   C1B19867  35.610  31.127   8.740
 1195POPC   C2B19868  35.600  30.978   8.314
 1195POPC   C3B19869  35.374  31.064   7.888
 1195POPC   C4B19870  35.413  31.030   7.394
 1196POPC   NC319871  13.716  13.698   9.665
 1196POPC   PO419872  13.525  13.224   9.293
 1196POPC   GL119873  13.721  13.627   9.155
 1196POPC   GL219874  14.087  13.552   9.161
 1196POPC   C1A19875  13.890  13.874   8.804
 1196POPC   D2A19876  13.884  13.687   8.406
 1196POPC   C3A19877  13.873  13.836   8.022
 1196POPC   C4A19878  13.681  13.715   7.678
 1196POPC   C1B19879  13.919  13.329   8.746
 1196POPC   C2B19880  13.938  13.121   8.322
 1196POPC   C3B19881  13.780  13.279   7.907
 1196POPC   C4B19882  13.831  13.274   7.419
 1197POPC   NC319883   6.044   2.594   9.599
 1197POPC   PO419884   5.468   2.833   9.850
 1197POPC   GL119885   5.646   2.864   9.325
 1197POPC   GL219886   5.998   2.920   9.195
 1197POPC   C1A19887   5.725   2.641   8.877
 1197POPC   D2A19888   5.747   2.486   8.430
 1197POPC   C3A19889   5.586   2.578   8.005
 1197POPC   C4A19890   5.763   2.911   7.730
 1197POPC   C1B19891   6.232   2.750   8.820
 1197POPC   C2B19892   6.231   2.841   8.369
 1197POPC   C3B19893   6.118   2.585   8.012
 1197POPC   C4B19894   5.968   2.438   7.629
 1198POPC   NC319895  40.333  23.076   9.585
 1198POPC   PO419896  39.771  22.748   9.533
 1198POPC   GL119897  40.053  22.859   9.199
 1198POPC   GL219898  40.136  22.538   9.108
 1198POPC   C1A19899  40.061  23.146   8.837
 1198POPC   D2A19900  40.337  23.172   8.482
 1198POPC   C3A19901  40.118  23.242   8.106
 1198POPC   C4A19902  40.202  23.114   7.708
 1198POPC   C1B19903  40.307  22.706   8.726
 1198POPC   C2B19904  40.202  22.583   8.321
 1198POPC   C3B19905  40.026  22.720   7.979
 1198POPC   C4B19906  39.998  22.605   7.571
 1199POPC   NC319907  17.585  44.404   9.666
 1199POPC   PO419908  17.375   0.045   9.525
 1199POPC   GL119909  17.544  44.711   9.229
 1199POPC   GL219910  17.388  44.377   9.193
 1199POPC   C1A19911  17.718  44.614   8.819
 1199POPC   D2A19912  17.695  44.438   8.395
 1199POPC   C3A19913  17.738  44.739   8.044
 1199POPC   C4A19914  17.718  44.607   7.637
 1199POPC   C1B19915  17.225  44.441   8.810
 1199POPC   C2B19916  17.140  44.523   8.409
 1199POPC   C3B19917  17.315  44.457   8.006
 1199POPC   C4B19918  17.276  44.812   7.757
 1200POPC   NC319919  25.805  23.848   9.358
 1200POPC   PO419920  26.394  23.372   9.393
 1200POPC   GL119921  26.223  23.620   9.108
 1200POPC   GL219922  25.907  23.448   9.071
 1200POPC   C1A19923  26.161  23.780   8.696
 1200POPC   D2A19924  26.356  23.722   8.288
 1200POPC   C3A19925  26.149  23.824   7.898
 1200POPC   C4A19926  26.270  24.017   7.482
 1200POPC   C1B19927  26.137  23.257   8.745
 1200POPC   C2B19928  25.982  23.360   8.370
 1200POPC   C3B19929  26.099  23.334   7.969
 1200POPC   C4B19930  25.840  23.217   7.647
 1201POPC   NC319931   5.539  32.892   9.379
 1201POPC   PO419932   6.009  33.340   9.559
 1201POPC   GL119933   5.894  33.181   9.184
 1201POPC   GL219934   5.611  33.380   9.143
 1201POPC   C1A19935   5.725  33.063   8.758
 1201POPC   D2A19936   5.933  32.841   8.443
 1201POPC   C3A19937   5.764  32.850   8.053
 1201POPC   C4A19938   5.958  32.945   7.682
 1201POPC   C1B19939   5.954  33.533   8.846
 1201POPC   C2B19940   5.822  33.466   8.426
 1201POPC   C3B19941   5.890  33.337   8.030
 1201POPC   C4B19942   5.652  33.343   7.687
 1202POPC   NC319943  21.349  27.992   9.525
 1202POPC   PO419944  21.544  28.617   9.444
 1202POPC   GL119945  21.617  28.281   9.202
 1202POPC   GL219946  21.361  28.101   9.033
 1202POPC   C1A19947  21.782  28.316   8.815
 1202POPC   D2A19948  21.679  28.502   8.441
 1202POPC   C3A19949  21.544  28.256   8.103
 1202POPC   C4A19950  21.701  28.336   7.703
 1202POPC   C1B19951  21.245  28.363   8.704
 1202POPC   C2B19952  21.195  28.591   8.311
 1202POPC   C3B19953  21.316  28.640   7.882
 1202POPC   C4B19954  21.248  28.419   7.475
 1203POPC   NC319955  37.539  36.313   9.530
 1203POPC   PO419956  37.528  35.697   9.559
 1203POPC   GL119957  37.698  35.916   9.221
 1203POPC   GL219958  37.967  35.693   9.163
 1203POPC   C1A19959  37.606  36.201   8.859
 1203POPC   D2A19960  37.381  36.134   8.470
 1203POPC   C3A19961  37.596  36.321   8.152
 1203POPC   C4A19962  37.664  36.215   7.777
 1203POPC   C1B19963  38.028  35.899   8.794
 1203POPC   C2B19964  37.883  36.013   8.438
 1203POPC   C3B19965  38.075  36.029   8.055
 1203POPC   C4B19966  38.021  35.901   7.647
 1204POPC   NC319967   2.917  10.124   9.549
 1204POPC   PO419968   2.601   9.483   9.530
 1204POPC   GL119969   2.937   9.607   9.218
 1204POPC   GL219970   3.006   9.939   9.095
 1204POPC   C1A19971   2.843   9.533   8.775
 1204POPC   D2A19972   2.470   9.570   8.525
 1204POPC   C3A19973   2.540   9.608   8.083
 1204POPC   C4A19974   2.954   9.533   7.879
 1204POPC   C1B19975   3.189   9.921   8.695
 1204POPC   C2B19976   2.934   9.800   8.329
 1204POPC   C3B19977   2.776  10.036   7.943
 1204POPC   C4B19978   2.928  10.106   7.492
 1205POPC   NC319979   5.957  11.404   9.423
 1205POPC   PO419980   5.789  10.808   9.661
 1205POPC   GL119981   6.012  10.932   9.239
 1205POPC   GL219982   5.777  11.145   9.063
 1205POPC   C1A19983   6.146  11.012   8.771
 1205POPC   D2A19984   5.976  10.974   8.348
 1205POPC   C3A19985   6.049  11.263   8.033
 1205POPC   C4A19986   5.869  11.352   7.647
 1205POPC   C1B19987   5.590  11.374   8.762
 1205POPC   C2B19988   5.727  11.445   8.391
 1205POPC   C3B19989   5.548  11.433   8.035
 1205POPC   C4B19990   5.370  11.696   7.756
 1206POPC   NC319991  42.565  29.013   9.430
 1206POPC   PO419992  42.309  29.603   9.424
 1206POPC   GL119993  42.210  29.303   9.121
 1206POPC   GL219994  41.977  29.066   9.196
 1206POPC   C1A19995  42.300  29.088   8.746
 1206POPC   D2A19996  42.616  28.981   8.455
 1206POPC   C3A19997  42.417  28.944   8.076
 1206POPC   C4A19998  42.518  29.029   7.647
 1206POPC   C1B19999  41.832  28.888   8.796
 1206POPC   C2B20000  41.891  29.046   8.365
 1206POPC   C3B20001  41.984  29.210   7.959
 1206POPC   C4B20002  41.910  28.977   7.576
 1207POPC   NC320003  29.343  41.424   9.561
 1207POPC   PO420004  29.146  42.035   9.362
 1207POPC   GL120005  29.190  41.674   9.109
 1207POPC   GL220006  28.895  41.496   9.234
 1207POPC   C1A20007  29.214  41.509   8.685
 1207POPC   D2A20008  29.092  41.235   8.337
 1207POPC   C3A20009  29.194  41.322   7.945
 1207POPC   C4A20010  29.470  41.566   7.748
 1207POPC   C1B20011  28.698  41.666   8.851
 1207POPC   C2B20012  28.769  41.645   8.389
 1207POPC   C3B20013  28.859  41.692   7.932
 1207POPC   C4B20014  28.884  41.705   7.488
 1208POPC   NC320015  16.629  42.768   9.555
 1208POPC   PO420016  16.673  42.113   9.624
 1208POPC   GL120017  16.833  42.364   9.298
 1208POPC   GL220018  16.497  42.440   9.200
 1208POPC   C1A20019  16.843  42.375   8.839
 1208POPC   D2A20020  16.724  42.170   8.464
 1208POPC   C3A20021  16.735  42.398   8.075
 1208POPC   C4A20022  16.704  42.334   7.639
 1208POPC   C1B20023  16.295  42.200   8.890
 1208POPC   C2B20024  16.224  42.178   8.455
 1208POPC   C3B20025  16.278  42.106   8.031
 1208POPC   C4B20026  16.274  42.505   7.855
 1209POPC   NC320027  44.089  32.721   9.555
 1209POPC   PO420028  43.552  32.823   9.275
 1209POPC   GL120029  43.869  33.069   9.185
 1209POPC   GL220030  43.625  33.263   9.043
 1209POPC   C1A20031  44.015  33.093   8.777
 1209POPC   D2A20032  43.885  33.027   8.376
 1209POPC   C3A20033  44.045  33.274   8.058
 1209POPC   C4A20034  44.120  33.005   7.688
 1209POPC   C1B20035  43.455  33.060   8.659
 1209POPC   C2B20036  43.416  33.105   8.210
 1209POPC   C3B20037  43.637  33.102   7.810
 1209POPC   C4B20038  43.907  33.481   7.612
 1210POPC   NC320039  17.273   6.764   9.592
 1210POPC   PO420040  17.812   6.462   9.416
 1210POPC   GL120041  17.547   6.743   9.142
 1210POPC   GL220042  17.176   6.616   9.118
 1210POPC   C1A20043  17.440   6.830   8.712
 1210POPC   D2A20044  17.444   6.589   8.332
 1210POPC   C3A20045  17.690   6.750   8.006
 1210POPC   C4A20046  17.854   6.607   7.631
 1210POPC   C1B20047  16.937   6.856   8.822
 1210POPC   C2B20048  17.000   7.037   8.426
 1210POPC   C3B20049  17.007   6.922   7.998
 1210POPC   C4B20050  17.267   6.647   7.745
 1211POPC   NC320051  22.832  23.324   9.414
 1211POPC   PO420052  23.131  23.928   9.605
 1211POPC   GL120053  23.024  23.791   9.198
 1211POPC   GL220054  22.694  23.696   9.098
 1211POPC   C1A20055  23.073  23.883   8.766
 1211POPC   D2A20056  22.996  23.702   8.353
 1211POPC   C3A20057  23.053  23.865   7.966
 1211POPC   C4A20058  23.419  23.847   7.776
 1211POPC   C1B20059  22.758  23.466   8.729
 1211POPC   C2B20060  22.610  23.386   8.307
 1211POPC   C3B20061  22.809  23.404   7.883
 1211POPC   C4B20062  22.801  23.348   7.412
 1212POPC   NC320063   5.768  35.836   9.365
 1212POPC   PO420064   6.119  36.523   9.437
 1212POPC   GL120065   5.921  36.281   9.100
 1212POPC   GL220066   6.073  35.968   8.974
 1212POPC   C1A20067   5.988  36.384   8.704
 1212POPC   D2A20068   5.833  36.332   8.318
 1212POPC   C3A20069   6.100  36.408   8.004
 1212POPC   C4A20070   6.016  36.498   7.568
 1212POPC   C1B20071   5.728  35.944   8.682
 1212POPC   C2B20072   5.790  35.824   8.235
 1212POPC   C3B20073   5.888  36.028   7.778
 1212POPC   C4B20074   6.081  35.854   7.412
 1213POPC   NC320075  23.962  12.737   9.506
 1213POPC   PO420076  24.530  12.964   9.673
 1213POPC   GL120077  24.597  12.991   9.184
 1213POPC   GL220078  24.254  13.000   9.126
 1213POPC   C1A20079  24.499  12.869   8.718
 1213POPC   D2A20080  24.664  12.799   8.310
 1213POPC   C3A20081  24.491  12.875   7.899
 1213POPC   C4A20082  24.727  12.934   7.485
 1213POPC   C1B20083  24.087  13.179   8.728
 1213POPC   C2B20084  24.155  13.116   8.273
 1213POPC   C3B20085  24.164  13.275   7.842
 1213POPC   C4B20086  24.248  13.049   7.435
 1214POPC   NC320087  11.062   2.036   9.455
 1214POPC   PO420088  11.575   1.636   9.429
 1214POPC   GL120089  11.510   1.991   9.171
 1214POPC   GL220090  11.216   1.780   9.046
 1214POPC   C1A20091  11.365   2.223   8.812
 1214POPC   D2A20092  11.341   1.968   8.463
 1214POPC   C3A20093  11.587   2.124   8.156
 1214POPC   C4A20094  11.414   2.074   7.768
 1214POPC   C1B20095  11.502   1.578   8.771
 1214POPC   C2B20096  11.419   1.456   8.363
 1214POPC   C3B20097  11.208   1.662   8.023
 1214POPC   C4B20098  11.358   1.607   7.586
 1215POPC   NC320099  35.731  29.727   9.489
 1215POPC   PO420100  35.069  29.797   9.809
 1215POPC   GL120101  35.262  29.939   9.376
 1215POPC   GL220102  35.339  29.647   9.161
 1215POPC   C1A20103  35.308  30.116   8.915
 1215POPC   D2A20104  35.069  30.190   8.503
 1215POPC   C3A20105  35.270  30.186   8.080
 1215POPC   C4A20106  35.337  30.036   7.666
 1215POPC   C1B20107  35.485  29.644   8.737
 1215POPC   C2B20108  35.541  29.821   8.343
 1215POPC   C3B20109  35.449  29.623   7.920
 1215POPC   C4B20110  35.561  29.602   7.452
 1216POPC   NC320111  13.820   4.451   9.470
 1216POPC   PO420112  13.396   4.726   9.087
 1216POPC   GL120113  13.579   4.300   9.023
 1216POPC   GL220114  13.805   4.024   9.142
 1216POPC   C1A20115  13.608   4.268   8.602
 1216POPC   D2A20116  13.577   4.656   8.399
 1216POPC   C3A20117  13.674   4.567   8.000
 1216POPC   C4A20118  13.501   4.342   7.713
 1216POPC   C1B20119  13.523   3.814   8.816
 1216POPC   C2B20120  13.414   3.852   8.371
 1216POPC   C3B20121  13.696   4.041   8.079
 1216POPC   C4B20122  14.031   4.222   7.826
 1217POPC   NC320123   8.285  20.901   9.350
 1217POPC   PO420124   8.268  20.240   9.351
 1217POPC   GL120125   8.277  20.502   9.037
 1217POPC   GL220126   7.955  20.604   9.099
 1217POPC   C1A20127   8.363  20.682   8.652
 1217POPC   D2A20128   8.340  20.570   8.238
 1217POPC   C3A20129   8.568  20.317   7.958
 1217POPC   C4A20130   8.320  20.479   7.604
 1217POPC   C1B20131   7.877  20.495   8.680
 1217POPC   C2B20132   7.857  20.367   8.275
 1217POPC   C3B20133   7.937  20.620   7.920
 1217POPC   C4B20134   7.663  20.852   7.710
 1218POPC   NC320135  28.158  41.274   9.699
 1218POPC   PO420136  28.660  41.705   9.790
 1218POPC   GL120137  28.418  41.710   9.350
 1218POPC   GL220138  28.366  41.381   9.239
 1218POPC   C1A20139  28.181  41.773   8.922
 1218POPC   D2A20140  28.030  41.795   8.461
 1218POPC   C3A20141  28.324  41.835   8.111
 1218POPC   C4A20142  28.387  41.748   7.701
 1218POPC   C1B20143  28.333  41.263   8.818
 1218POPC   C2B20144  28.297  41.376   8.405
 1218POPC   C3B20145  28.508  41.362   8.043
 1218POPC   C4B20146  28.715  41.263   7.688
 1219POPC   NC320147  13.244  26.564   9.382
 1219POPC   PO420148  12.684  26.993   9.439
 1219POPC   GL120149  12.885  26.823   9.095
 1219POPC   GL220150  13.055  27.125   9.079
 1219POPC   C1A20151  12.672  26.628   8.710
 1219POPC   D2A20152  12.473  26.769   8.326
 1219POPC   C3A20153  12.757  26.812   7.984
 1219POPC   C4A20154  12.711  26.727   7.551
 1219POPC   C1B20155  13.046  26.963   8.641
 1219POPC   C2B20156  13.054  26.614   8.352
 1219POPC   C3B20157  13.261  26.637   7.956
 1219POPC   C4B20158  13.194  27.083   7.852
 1220POPC   NC320159  40.706  20.314  10.037
 1220POPC   PO420160  40.733  19.746   9.696
 1220POPC   GL120161  40.750  19.786   9.238
 1220POPC   GL220162  40.500  20.010   9.203
 1220POPC   C1A20163  40.608  19.644   8.827
 1220POPC   D2A20164  40.709  19.746   8.405
 1220POPC   C3A20165  40.632  19.480   8.079
 1220POPC   C4A20166  40.604  19.663   7.710
 1220POPC   C1B20167  40.553  20.162   8.775
 1220POPC   C2B20168  40.330  20.066   8.396
 1220POPC   C3B20169  40.569  20.075   8.020
 1220POPC   C4B20170  40.582  20.289   7.628
 1221POPC   NC320171  30.196   4.083   9.587
 1221POPC   PO420172  29.633   4.340   9.353
 1221POPC   GL120173  29.838   4.307   8.996
 1221POPC   GL220174  30.150   4.131   9.073
 1221POPC   C1A20175  29.874   4.609   8.650
 1221POPC   D2A20176  30.119   4.560   8.283
 1221POPC   C3A20177  29.926   4.355   7.956
 1221POPC   C4A20178  29.889   4.315   7.509
 1221POPC   C1B20179  30.139   4.152   8.602
 1221POPC   C2B20180  30.248   3.994   8.184
 1221POPC   C3B20181  30.346   3.812   7.777
 1221POPC   C4B20182  30.466   3.907   7.345
 1222POPC   NC320183  43.826   3.588   9.441
 1222POPC   PO420184  43.405   3.064   9.382
 1222POPC   GL120185  43.601   3.340   9.053
 1222POPC   GL220186  43.956   3.393   9.011
 1222POPC   C1A20187  43.662   3.387   8.595
 1222POPC   D2A20188  43.631   3.516   8.194
 1222POPC   C3A20189  43.952   3.361   8.007
 1222POPC   C4A20190  43.958   3.456   7.615
 1222POPC   C1B20191  43.880   3.771   8.801
 1222POPC   C2B20192  44.055   3.739   8.381
 1222POPC   C3B20193  44.030   3.875   7.939
 1222POPC   C4B20194  44.303   3.853   7.586
 1223POPC   NC320195  25.448  15.392   9.536
 1223POPC   PO420196  25.075  14.815   9.580
 1223POPC   GL120197  25.123  15.071   9.269
 1223POPC   GL220198  25.441  14.939   9.179
 1223POPC   C1A20199  25.128  15.257   8.889
 1223POPC   D2A20200  25.288  15.079   8.512
 1223POPC   C3A20201  25.152  15.364   8.201
 1223POPC   C4A20202  25.167  15.435   7.781
 1223POPC   C1B20203  25.630  15.217   8.878
 1223POPC   C2B20204  25.697  15.389   8.471
 1223POPC   C3B20205  25.617  15.166   8.117
 1223POPC   C4B20206  25.693  15.267   7.718
 1224POPC   NC320207  42.900  13.265   9.449
 1224POPC   PO420208  43.288  12.737   9.329
 1224POPC   GL120209  43.168  13.065   9.058
 1224POPC   GL220210  43.419  13.244   8.947
 1224POPC   C1A20211  42.963  13.184   8.673
 1224POPC   D2A20212  42.798  13.271   8.258
 1224POPC   C3A20213  43.014  13.026   7.933
 1224POPC   C4A20214  43.183  12.622   7.863
 1224POPC   C1B20215  43.537  12.943   8.683
 1224POPC   C2B20216  43.350  12.827   8.322
 1224POPC   C3B20217  43.626  12.601   8.105
 1224POPC   C4B20218  43.640  12.424   7.727
 1225POPC   NC320219  40.931  30.266   9.818
 1225POPC   PO420220  40.725  30.870   9.542
 1225POPC   GL120221  40.766  30.595   9.191
 1225POPC   GL220222  40.474  30.700   9.017
 1225POPC   C1A20223  40.923  30.544   8.753
 1225POPC   D2A20224  40.720  30.477   8.355
 1225POPC   C3A20225  40.945  30.525   7.956
 1225POPC   C4A20226  40.976  30.819   7.624
 1225POPC   C1B20227  40.596  30.921   8.606
 1225POPC   C2B20228  40.711  30.954   8.141
 1225POPC   C3B20229  40.480  30.876   7.757
 1225POPC   C4B20230  40.364  31.072   7.345
 1226POPC   NC320231  32.101   8.539   9.720
 1226POPC   PO420232  32.460   9.030   9.450
 1226POPC   GL120233  32.228   9.137   9.113
 1226POPC   GL220234  32.497   9.032   8.929
 1226POPC   C1A20235  32.025   8.929   8.720
 1226POPC   D2A20236  32.062   8.664   8.322
 1226POPC   C3A20237  32.168   8.874   7.917
 1226POPC   C4A20238  31.960   9.230   7.752
 1226POPC   C1B20239  32.506   8.796   8.568
 1226POPC   C2B20240  32.648   8.933   8.165
 1226POPC   C3B20241  32.664   8.971   7.711
 1226POPC   C4B20242  32.608   8.888   7.279
 1227POPC   NC320243  36.316  38.156   9.513
 1227POPC   PO420244  36.528  38.704   9.541
 1227POPC   GL120245  36.344  38.583   9.178
 1227POPC   GL220246  36.061  38.795   9.216
 1227POPC   C1A20247  36.376  38.220   8.856
 1227POPC   D2A20248  36.057  37.995   8.588
 1227POPC   C3A20249  36.085  38.100   8.130
 1227POPC   C4A20250  36.309  38.190   7.751
 1227POPC   C1B20251  36.016  38.578   8.783
 1227POPC   C2B20252  36.042  38.575   8.317
 1227POPC   C3B20253  36.087  38.643   7.869
 1227POPC   C4B20254  35.783  38.806   7.524
 1228POPC   NC320255  43.408  41.713   9.547
 1228POPC   PO420256  43.142  41.141   9.565
 1228POPC   GL120257  43.160  41.399   9.235
 1228POPC   GL220258  42.846  41.341   9.155
 1228POPC   C1A20259  43.192  41.634   8.868
 1228POPC   D2A20260  43.033  41.616   8.459
 1228POPC   C3A20261  43.247  41.622   8.048
 1228POPC   C4A20262  43.026  41.764   7.670
 1228POPC   C1B20263  42.643  41.369   8.794
 1228POPC   C2B20264  42.661  41.229   8.416
 1228POPC   C3B20265  42.825  41.367   8.035
 1228POPC   C4B20266  42.742  41.287   7.639
 1229POPC   NC320267  35.263  32.077   9.486
 1229POPC   PO420268  35.475  32.650   9.430
 1229POPC   GL120269  35.168  32.513   9.137
 1229POPC   GL220270  34.919  32.219   9.143
 1229POPC   C1A20271  35.164  32.659   8.726
 1229POPC   D2A20272  35.110  32.870   8.338
 1229POPC   C3A20273  35.269  32.684   7.968
 1229POPC   C4A20274  35.357  32.509   7.557
 1229POPC   C1B20275  35.204  32.121   8.784
 1229POPC   C2B20276  35.448  32.110   8.391
 1229POPC   C3B20277  35.367  32.151   7.939
 1229POPC   C4B20278  35.208  31.996   7.517
 1230POPC   NC320279   7.803   5.017   9.299
 1230POPC   PO420280   8.400   5.405   9.301
 1230POPC   GL120281   8.283   5.032   9.082
 1230POPC   GL220282   8.480   4.743   9.187
 1230POPC   C1A20283   8.132   5.037   8.649
 1230POPC   D2A20284   8.096   5.363   8.309
 1230POPC   C3A20285   8.186   5.189   7.938
 1230POPC   C4A20286   8.475   5.298   7.601
 1230POPC   C1B20287   8.595   4.814   8.735
 1230POPC   C2B20288   8.469   4.819   8.279
 1230POPC   C3B20289   8.521   4.827   7.812
 1230POPC   C4B20290   8.401   4.826   7.357
 1231POPC   NC320291   9.856   2.544   9.555
 1231POPC   PO420292   9.486   3.061   9.895
 1231POPC   GL120293   9.460   2.953   9.351
 1231POPC   GL220294   9.712   2.760   9.125
 1231POPC   C1A20295   9.438   3.098   8.872
 1231POPC   D2A20296   9.435   2.846   8.467
 1231POPC   C3A20297   9.612   2.871   8.026
 1231POPC   C4A20298   9.650   2.543   7.695
 1231POPC   C1B20299  10.023   2.501   8.902
 1231POPC   C2B20300  10.116   2.542   8.481
 1231POPC   C3B20301  10.066   2.585   8.040
 1231POPC   C4B20302  10.166   2.412   7.635
 1232POPC   NC320303  21.943  14.255   9.410
 1232POPC   PO420304  21.272  14.194   9.522
 1232POPC   GL120305  21.435  14.465   9.179
 1232POPC   GL220306  21.185  14.738   9.098
 1232POPC   C1A20307  21.641  14.565   8.781
 1232POPC   D2A20308  21.833  14.354   8.416
 1232POPC   C3A20309  21.552  14.450   8.045
 1232POPC   C4A20310  21.360  14.205   7.708
 1232POPC   C1B20311  21.110  14.561   8.689
 1232POPC   C2B20312  21.018  14.387   8.284
 1232POPC   C3B20313  21.065  14.583   7.898
 1232POPC   C4B20314  21.397  14.717   7.591
 1233POPC   NC320315   1.070  35.911   9.368
 1233POPC   PO420316   1.582  36.328   9.447
 1233POPC   GL120317   1.320  36.287   9.128
 1233POPC   GL220318   1.079  36.529   9.174
 1233POPC   C1A20319   1.154  36.203   8.746
 1233POPC   D2A20320   1.291  36.313   8.358
 1233POPC   C3A20321   1.418  36.099   8.001
 1233POPC   C4A20322   1.124  36.101   7.686
 1233POPC   C1B20323   0.859  36.628   8.793
 1233POPC   C2B20324   0.988  36.734   8.393
 1233POPC   C3B20325   0.916  36.551   8.001
 1233POPC   C4B20326   0.610  36.495   7.679
 1234POPC   NC320327  39.688  32.619   9.453
 1234POPC   PO420328  39.698  33.354   9.462
 1234POPC   GL120329  39.936  33.248   9.114
 1234POPC   GL220330  39.983  32.881   9.144
 1234POPC   C1A20331  40.090  33.127   8.718
 1234POPC   D2A20332  40.386  33.087   8.421
 1234POPC   C3A20333  40.218  33.112   8.036
 1234POPC   C4A20334  39.970  33.380   7.826
 1234POPC   C1B20335  39.778  32.712   8.773
 1234POPC   C2B20336  39.956  32.737   8.375
 1234POPC   C3B20337  39.848  32.762   7.968
 1234POPC   C4B20338  39.583  32.923   7.706
 1235POPC   NC320339   8.824   0.874   9.656
 1235POPC   PO420340   9.166   1.385   9.863
 1235POPC   GL120341   9.181   1.352   9.401
 1235POPC   GL220342   8.832   1.301   9.285
 1235POPC   C1A20343   9.180   1.379   8.939
 1235POPC   D2A20344   9.063   1.396   8.511
 1235POPC   C3A20345   9.238   1.120   8.214
 1235POPC   C4A20346   9.266   1.175   7.779
 1235POPC   C1B20347   8.702   1.140   8.866
 1235POPC   C2B20348   8.829   0.933   8.479
 1235POPC   C3B20349   8.763   1.110   8.068
 1235POPC   C4B20350   8.642   1.116   7.670
 1236POPC   NC320351  13.407  36.531   9.316
 1236POPC   PO420352  13.847  36.036   9.533
 1236POPC   GL120353  13.801  36.221   9.149
 1236POPC   GL220354  13.477  36.049   9.143
 1236POPC   C1A20355  13.656  36.336   8.747
 1236POPC   D2A20356  13.678  36.418   8.351
 1236POPC   C3A20357  13.981  36.240   8.173
 1236POPC   C4A20358  13.905  36.288   7.782
 1236POPC   C1B20359  13.478  35.847   8.754
 1236POPC   C2B20360  13.637  35.877   8.338
 1236POPC   C3B20361  13.493  36.020   7.967
 1236POPC   C4B20362  13.212  35.902   7.613
 1237POPC   NC320363  20.993  24.616   9.554
 1237POPC   PO420364  21.517  24.218   9.525
 1237POPC   GL120365  21.448  24.473   9.166
 1237POPC   GL220366  21.394  24.816   9.295
 1237POPC   C1A20367  21.464  24.396   8.711
 1237POPC   D2A20368  21.286  24.358   8.288
 1237POPC   C3A20369  21.562  24.409   7.914
 1237POPC   C4A20370  21.712  24.033   7.710
 1237POPC   C1B20371  21.155  24.829   8.928
 1237POPC   C2B20372  21.110  24.800   8.503
 1237POPC   C3B20373  21.139  24.805   8.064
 1237POPC   C4B20374  21.061  24.467   7.810
 1238POPC   NC320375  11.646  18.866   9.649
 1238POPC   PO420376  10.980  18.999   9.574
 1238POPC   GL120377  11.237  18.994   9.188
 1238POPC   GL220378  11.450  19.282   9.166
 1238POPC   C1A20379  11.551  18.866   8.841
 1238POPC   D2A20380  11.521  18.771   8.368
 1238POPC   C3A20381  11.281  19.053   8.066
 1238POPC   C4A20382  10.896  18.965   7.831
 1238POPC   C1B20383  11.713  19.346   8.773
 1238POPC   C2B20384  11.924  19.060   8.467
 1238POPC   C3B20385  11.831  19.023   8.025
 1238POPC   C4B20386  11.667  19.322   7.771
 1239POPC   NC320387  40.749  28.764   9.506
 1239POPC   PO420388  40.684  29.390   9.599
 1239POPC   GL120389  40.785  29.187   9.192
 1239POPC   GL220390  40.498  28.928   9.086
 1239POPC   C1A20391  40.954  29.317   8.782
 1239POPC   D2A20392  40.771  29.160   8.391
 1239POPC   C3A20393  40.861  29.321   7.970
 1239POPC   C4A20394  40.698  29.425   7.544
 1239POPC   C1B20395  40.828  28.804   8.826
 1239POPC   C2B20396  40.969  28.688   8.438
 1239POPC   C3B20397  40.835  28.814   8.024
 1239POPC   C4B20398  41.089  28.918   7.694
 1240POPC   NC320399  19.547   6.491   9.519
 1240POPC   PO420400  19.192   7.068   9.555
 1240POPC   GL120401  19.183   6.782   9.234
 1240POPC   GL220402  19.073   6.441   9.331
 1240POPC   C1A20403  19.222   6.863   8.789
 1240POPC   D2A20404  19.372   7.028   8.438
 1240POPC   C3A20405  19.162   6.883   8.127
 1240POPC   C4A20406  19.090   6.839   7.721
 1240POPC   C1B20407  19.022   6.430   8.893
 1240POPC   C2B20408  19.126   6.443   8.424
 1240POPC   C3B20409  18.972   6.418   7.989
 1240POPC   C4B20410  19.256   6.320   7.649
 1241POPC   NC320411   5.756  27.413   9.645
 1241POPC   PO420412   6.391  27.584   9.521
 1241POPC   GL120413   6.092  27.493   9.231
 1241POPC   GL220414   6.298  27.281   9.094
 1241POPC   C1A20415   5.824  27.580   8.869
 1241POPC   D2A20416   5.775  27.840   8.480
 1241POPC   C3A20417   5.685  27.677   8.047
 1241POPC   C4A20418   5.753  27.841   7.653
 1241POPC   C1B20419   6.232  27.325   8.709
 1241POPC   C2B20420   6.310  27.530   8.399
 1241POPC   C3B20421   6.302  27.420   8.029
 1241POPC   C4B20422   6.194  27.601   7.705
 1242POPC   NC320423  31.360  43.660   9.576
 1242POPC   PO420424  31.744  43.128   9.480
 1242POPC   GL120425  31.514  43.291   9.172
 1242POPC   GL220426  31.812  43.418   9.012
 1242POPC   C1A20427  31.328  43.319   8.775
 1242POPC   D2A20428  31.409  43.384   8.358
 1242POPC   C3A20429  31.277  43.170   7.997
 1242POPC   C4A20430  31.437  43.180   7.549
 1242POPC   C1B20431  31.781  43.095   8.715
 1242POPC   C2B20432  31.786  43.051   8.286
 1242POPC   C3B20433  31.668  42.860   7.936
 1242POPC   C4B20434  31.863  42.713   7.621
 1243POPC   NC320435  19.224   4.676   9.538
 1243POPC   PO420436  18.741   4.201   9.622
 1243POPC   GL120437  18.923   4.365   9.237
 1243POPC   GL220438  18.764   4.674   9.239
 1243POPC   C1A20439  19.069   4.394   8.798
 1243POPC   D2A20440  18.982   4.253   8.378
 1243POPC   C3A20441  19.074   4.499   8.046
 1243POPC   C4A20442  19.253   4.441   7.662
 1243POPC   C1B20443  18.607   4.663   8.821
 1243POPC   C2B20444  18.797   4.750   8.436
 1243POPC   C3B20445  18.712   4.903   8.042
 1243POPC   C4B20446  18.782   4.725   7.633
 1244POPC   NC320447   1.975  35.534   9.480
 1244POPC   PO420448   1.812  34.842   9.456
 1244POPC   GL120449   1.770  35.118   9.126
 1244POPC   GL220450   2.099  35.187   9.086
 1244POPC   C1A20451   1.723  35.449   8.808
 1244POPC   D2A20452   1.941  35.424   8.414
 1244POPC   C3A20453   1.723  35.298   8.042
 1244POPC   C4A20454   1.781  35.242   7.584
 1244POPC   C1B20455   2.329  35.210   8.715
 1244POPC   C2B20456   2.271  35.052   8.269
 1244POPC   C3B20457   2.238  35.192   7.822
 1244POPC   C4B20458   2.237  35.219   7.341
 1245POPC   NC320459  13.431  24.911   9.314
 1245POPC   PO420460  13.986  25.317   9.507
 1245POPC   GL120461  13.863  25.118   9.164
 1245POPC   GL220462  13.566  25.332   9.059
 1245POPC   C1A20463  13.892  25.031   8.762
 1245POPC   D2A20464  14.047  25.356   8.506
 1245POPC   C3A20465  13.928  25.467   8.085
 1245POPC   C4A20466  14.048  25.239   7.724
 1245POPC   C1B20467  13.565  25.486   8.636
 1245POPC   C2B20468  13.234  25.455   8.326
 1245POPC   C3B20469  13.246  25.103   8.053
 1245POPC   C4B20470  13.539  25.295   7.789
 1246POPC   NC320471  19.633   1.748   9.476
 1246POPC   PO420472  20.123   2.121   9.500
 1246POPC   GL120473  19.986   1.940   9.116
 1246POPC   GL220474  20.071   1.608   9.209
 1246POPC   C1A20475  19.717   1.988   8.702
 1246POPC   D2A20476  19.695   1.880   8.246
 1246POPC   C3A20477  19.699   2.059   7.826
 1246POPC   C4A20478  19.626   1.957   7.387
 1246POPC   C1B20479  19.968   1.564   8.783
 1246POPC   C2B20480  20.057   1.509   8.372
 1246POPC   C3B20481  20.083   1.710   7.973
 1246POPC   C4B20482  20.109   1.822   7.541
 1247POPC   NC320483  33.559  22.566   9.456
 1247POPC   PO420484  33.774  23.208   9.609
 1247POPC   GL120485  33.842  22.940   9.222
 1247POPC   GL220486  33.557  23.089   9.137
 1247POPC   C1A20487  34.126  22.793   8.859
 1247POPC   D2A20488  33.981  22.860   8.433
 1247POPC   C3A20489  34.157  22.856   8.034
 1247POPC   C4A20490  33.943  22.940   7.651
 1247POPC   C1B20491  33.613  22.757   8.803
 1247POPC   C2B20492  33.548  22.610   8.375
 1247POPC   C3B20493  33.579  22.808   7.979
 1247POPC   C4B20494  33.450  22.962   7.527
 1248POPC   NC320495  14.047  15.873   9.530
 1248POPC   PO420496  14.669  16.197   9.624
 1248POPC   GL120497  14.483  16.001   9.260
 1248POPC   GL220498  14.189  16.206   9.174
 1248POPC   C1A20499  14.439  15.915   8.822
 1248POPC   D2A20500  14.292  16.040   8.429
 1248POPC   C3A20501  14.451  15.890   8.029
 1248POPC   C4A20502  14.561  15.711   7.648
 1248POPC   C1B20503  13.990  16.219   8.800
 1248POPC   C2B20504  13.869  16.300   8.379
 1248POPC   C3B20505  14.082  16.231   7.976
 1248POPC   C4B20506  14.284  16.156   7.556
 1249POPC   NC320507  25.904  32.187   9.415
 1249POPC   PO420508  26.434  32.637   9.523
 1249POPC   GL120509  26.283  32.431   9.145
 1249POPC   GL220510  26.336  32.101   9.129
 1249POPC   C1A20511  26.046  32.366   8.746
 1249POPC   D2A20512  26.038  32.653   8.394
 1249POPC   C3A20513  26.109  32.500   8.024
 1249POPC   C4A20514  25.827  32.274   7.855
 1249POPC   C1B20515  26.322  31.860   8.760
 1249POPC   C2B20516  26.144  31.866   8.349
 1249POPC   C3B20517  26.192  31.930   7.902
 1249POPC   C4B20518  26.283  32.167   7.503
 1250POPC   NC320519   1.589  39.100   9.581
 1250POPC   PO420520   1.000  38.862   9.276
 1250POPC   GL120521   1.250  39.240   9.177
 1250POPC   GL220522   1.596  39.343   9.133
 1250POPC   C1A20523   1.204  39.397   8.781
 1250POPC   D2A20524   0.878  39.415   8.437
 1250POPC   C3A20525   0.899  39.657   8.084
 1250POPC   C4A20526   1.021  39.407   7.745
 1250POPC   C1B20527   1.732  39.477   8.742
 1250POPC   C2B20528   1.676  39.332   8.345
 1250POPC   C3B20529   1.563  39.149   7.959
 1250POPC   C4B20530   1.672  39.158   7.523
 1251POPC   NC320531   3.976   4.312   9.617
 1251POPC   PO420532   3.476   3.960   9.685
 1251POPC   GL120533   3.461   4.295   9.320
 1251POPC   GL220534   3.776   4.446   9.175
 1251POPC   C1A20535   3.357   4.322   8.853
 1251POPC   D2A20536   3.349   4.171   8.402
 1251POPC   C3A20537   3.205   4.347   8.009
 1251POPC   C4A20538   3.342   4.403   7.590
 1251POPC   C1B20539   3.862   4.310   8.743
 1251POPC   C2B20540   3.881   4.143   8.323
 1251POPC   C3B20541   3.737   4.329   7.943
 1251POPC   C4B20542   3.850   4.513   7.528
 1252POPC   NC320543  22.686  20.202   9.422
 1252POPC   PO420544  22.720  19.523   9.592
 1252POPC   GL120545  22.832  19.744   9.180
 1252POPC   GL220546  23.175  19.892   9.054
 1252POPC   C1A20547  22.751  19.784   8.751
 1252POPC   D2A20548  22.546  19.876   8.379
 1252POPC   C3A20549  22.817  19.743   8.087
 1252POPC   C4A20550  22.841  19.697   7.666
 1252POPC   C1B20551  23.136  20.127   8.660
 1252POPC   C2B20552  23.213  20.044   8.213
 1252POPC   C3B20553  23.021  20.152   7.804
 1252POPC   C4B20554  23.103  20.132   7.342
 1253POPC   NC320555  26.481  20.506   9.566
 1253POPC   PO420556  27.127  20.441   9.473
 1253POPC   GL120557  26.817  20.583   9.152
 1253POPC   GL220558  26.439  20.649   9.075
 1253POPC   C1A20559  26.911  20.532   8.728
 1253POPC   D2A20560  26.697  20.416   8.345
 1253POPC   C3A20561  26.968  20.481   7.955
 1253POPC   C4A20562  27.194  20.748   7.651
 1253POPC   C1B20563  26.581  20.899   8.698
 1253POPC   C2B20564  26.887  20.908   8.345
 1253POPC   C3B20565  26.777  20.972   7.915
 1253POPC   C4B20566  26.725  20.925   7.455
 1254POPC   NC320567   3.352  11.135   9.466
 1254POPC   PO420568   3.785  11.524   9.830
 1254POPC   GL120569   3.707  11.466   9.294
 1254POPC   GL220570   3.356  11.533   9.147
 1254POPC   C1A20571   3.708  11.420   8.794
 1254POPC   D2A20572   3.473  11.581   8.380
 1254POPC   C3A20573   3.585  11.381   7.960
 1254POPC   C4A20574   3.879  11.022   7.926
 1254POPC   C1B20575   3.271  11.179   8.831
 1254POPC   C2B20576   3.252  11.097   8.390
 1254POPC   C3B20577   3.334  10.903   8.010
 1254POPC   C4B20578   3.081  10.962   7.681
 1255POPC   NC320579   7.583  41.289   9.362
 1255POPC   PO420580   7.319  41.803   9.731
 1255POPC   GL120581   7.482  41.820   9.212
 1255POPC   GL220582   7.458  41.528   8.953
 1255POPC   C1A20583   7.414  41.952   8.728
 1255POPC   D2A20584   7.588  41.675   8.402
 1255POPC   C3A20585   7.550  41.748   7.965
 1255POPC   C4A20586   7.658  41.720   7.547
 1255POPC   C1B20587   7.639  41.243   8.687
 1255POPC   C2B20588   7.328  41.208   8.413
 1255POPC   C3B20589   7.407  41.269   8.016
 1255POPC   C4B20590   7.188  41.465   7.719
 1256POPC   NC320591  17.940   1.759   9.358
 1256POPC   PO420592  18.181   2.339   9.642
 1256POPC   GL120593  18.191   2.186   9.207
 1256POPC   GL220594  18.451   2.375   9.081
 1256POPC   C1A20595  18.322   2.007   8.783
 1256POPC   D2A20596  18.296   2.204   8.395
 1256POPC   C3A20597  18.240   1.881   8.107
 1256POPC   C4A20598  18.033   1.589   7.828
 1256POPC   C1B20599  18.721   2.342   8.696
 1256POPC   C2B20600  18.792   2.333   8.231
 1256POPC   C3B20601  18.627   2.108   7.875
 1256POPC   C4B20602  18.265   2.008   7.609
 1257POPC   NC320603  26.259  11.059   9.607
 1257POPC   PO420604  25.892  11.622   9.527
 1257POPC   GL120605  26.026  11.361   9.228
 1257POPC   GL220606  26.356  11.387   9.239
 1257POPC   C1A20607  25.930  11.161   8.845
 1257POPC   D2A20608  26.032  11.073   8.455
 1257POPC   C3A20609  25.799  11.274   8.184
 1257POPC   C4A20610  25.833  11.229   7.776
 1257POPC   C1B20611  26.358  11.431   8.826
 1257POPC   C2B20612  26.134  11.594   8.489
 1257POPC   C3B20613  26.167  11.600   8.050
 1257POPC   C4B20614  26.246  11.507   7.636
 1258POPC   NC320615  34.138   4.103   9.336
 1258POPC   PO420616  34.682   4.436   9.550
 1258POPC   GL120617  34.539   4.470   9.155
 1258POPC   GL220618  34.536   4.132   9.045
 1258POPC   C1A20619  34.493   4.512   8.705
 1258POPC   D2A20620  34.311   4.517   8.315
 1258POPC   C3A20621  34.561   4.443   7.967
 1258POPC   C4A20622  34.445   4.165   7.642
 1258POPC   C1B20623  34.516   3.881   8.695
 1258POPC   C2B20624  34.622   4.067   8.355
 1258POPC   C3B20625  34.784   3.994   7.965
 1258POPC   C4B20626  34.933   4.231   7.567
 1259POPC   NC320627  25.643  29.311   9.676
 1259POPC   PO420628  26.215  28.932   9.677
 1259POPC   GL120629  26.076  29.198   9.346
 1259POPC   GL220630  26.365  29.309   9.150
 1259POPC   C1A20631  25.880  29.215   8.939
 1259POPC   D2A20632  25.843  29.314   8.482
 1259POPC   C3A20633  25.899  29.006   8.167
 1259POPC   C4A20634  25.712  28.983   7.796
 1259POPC   C1B20635  26.360  29.083   8.790
 1259POPC   C2B20636  26.365  28.997   8.374
 1259POPC   C3B20637  26.317  29.210   7.978
 1259POPC   C4B20638  25.942  29.495   7.890
 1260POPC   NC320639  30.868  15.789   9.611
 1260POPC   PO420640  30.435  16.141   9.541
 1260POPC   GL120641  30.743  16.078   9.176
 1260POPC   GL220642  30.872  15.739   9.092
 1260POPC   C1A20643  30.810  16.075   8.707
 1260POPC   D2A20644  30.570  15.941   8.325
 1260POPC   C3A20645  30.638  16.186   7.939
 1260POPC   C4A20646  30.887  16.109   7.546
 1260POPC   C1B20647  30.736  15.558   8.695
 1260POPC   C2B20648  30.827  15.485   8.264
 1260POPC   C3B20649  30.789  15.695   7.862
 1260POPC   C4B20650  30.739  15.601   7.411
 1261POPC   NC320651  41.307  42.284   9.628
 1261POPC   PO420652  41.799  42.718   9.417
 1261POPC   GL120653  41.485  42.626   9.051
 1261POPC   GL220654  41.281  42.342   9.087
 1261POPC   C1A20655  41.774  42.659   8.687
 1261POPC   D2A20656  41.902  42.927   8.364
 1261POPC   C3A20657  41.663  42.829   8.024
 1261POPC   C4A20658  41.792  42.613   7.689
 1261POPC   C1B20659  41.439  42.287   8.673
 1261POPC   C2B20660  41.524  42.394   8.261
 1261POPC   C3B20661  41.669  42.144   7.902
 1261POPC   C4B20662  41.571  42.219   7.469
 1262POPC   NC320663   0.856   3.212   9.544
 1262POPC   PO420664   1.356   2.836   9.704
 1262POPC   GL120665   1.303   2.874   9.251
 1262POPC   GL220666   0.991   3.002   9.112
 1262POPC   C1A20667   1.313   2.726   8.815
 1262POPC   D2A20668   1.033   2.569   8.495
 1262POPC   C3A20669   1.148   2.493   8.046
 1262POPC   C4A20670   1.517   2.620   7.809
 1262POPC   C1B20671   0.820   3.212   8.759
 1262POPC   C2B20672   0.765   3.162   8.321
 1262POPC   C3B20673   1.009   2.979   8.064
 1262POPC   C4B20674   1.174   2.989   7.679
 1263POPC   NC320675  17.053   0.384   9.589
 1263POPC   PO420676  17.594   0.710   9.469
 1263POPC   GL120677  17.252   0.640   9.203
 1263POPC   GL220678  17.185   0.279   9.091
 1263POPC   C1A20679  17.260   0.719   8.815
 1263POPC   D2A20680  17.447   0.449   8.513
 1263POPC   C3A20681  17.412   0.676   8.153
 1263POPC   C4A20682  17.255   0.671   7.754
 1263POPC   C1B20683  17.321  44.974   8.753
 1263POPC   C2B20684  17.356  44.991   8.279
 1263POPC   C3B20685  17.517   0.218   7.908
 1263POPC   C4B20686  17.917   0.093   7.680
 1264POPC   NC320687  34.156  42.595   9.321
 1264POPC   PO420688  34.193  43.280   9.491
 1264POPC   GL120689  34.345  43.260   9.100
 1264POPC   GL220690  34.472  42.947   9.131
 1264POPC   C1A20691  34.212  43.218   8.703
 1264POPC   D2A20692  34.367  42.978   8.357
 1264POPC   C3A20693  34.456  43.205   8.009
 1264POPC   C4A20694  34.502  43.011   7.639
 1264POPC   C1B20695  34.692  42.979   8.762
 1264POPC   C2B20696  34.874  43.081   8.376
 1264POPC   C3B20697  34.925  43.002   7.958
 1264POPC   C4B20698  34.967  43.289   7.634
 1265POPC   NC320699  16.576   6.278   9.524
 1265POPC   PO420700  16.851   6.916   9.487
 1265POPC   GL120701  16.553   6.758   9.154
 1265POPC   GL220702  16.659   6.466   9.078
 1265POPC   C1A20703  16.437   6.724   8.702
 1265POPC   D2A20704  16.488   6.953   8.293
 1265POPC   C3A20705  16.472   6.674   7.970
 1265POPC   C4A20706  16.756   6.682   7.626
 1265POPC   C1B20707  16.888   6.367   8.748
 1265POPC   C2B20708  16.846   6.544   8.364
 1265POPC   C3B20709  16.878   6.351   7.997
 1265POPC   C4B20710  16.988   6.243   7.581
 1266POPC   NC320711  16.573  27.116   9.379
 1266POPC   PO420712  16.860  27.743   9.443
 1266POPC   GL120713  16.848  27.782   9.040
 1266POPC   GL220714  17.144  27.906   8.986
 1266POPC   C1A20715  16.847  27.638   8.607
 1266POPC   D2A20716  16.603  27.303   8.375
 1266POPC   C3A20717  16.691  27.371   7.965
 1266POPC   C4A20718  16.678  27.731   7.749
 1266POPC   C1B20719  17.290  27.947   8.550
 1266POPC   C2B20720  17.040  27.926   8.160
 1266POPC   C3B20721  17.044  28.071   7.729
 1266POPC   C4B20722  16.971  27.843   7.315
 1267POPC   NC320723  11.928   4.227   9.635
 1267POPC   PO420724  12.344   4.725   9.516
 1267POPC   GL120725  12.150   4.431   9.199
 1267POPC   GL220726  11.903   4.121   9.143
 1267POPC   C1A20727  12.217   4.325   8.762
 1267POPC   D2A20728  11.974   4.360   8.387
 1267POPC   C3A20729  12.227   4.567   8.115
 1267POPC   C4A20730  12.347   4.605   7.721
 1267POPC   C1B20731  11.930   3.912   8.703
 1267POPC   C2B20732  12.242   3.941   8.329
 1267POPC   C3B20733  12.107   4.101   7.912
 1267POPC   C4B20734  11.768   4.055   7.550
 1268POPC   NC320735   7.002  30.399   9.699
 1268POPC   PO420736   6.464  30.039   9.396
 1268POPC   GL120737   6.474  29.920   9.025
 1268POPC   GL220738   6.401  29.575   9.055
 1268POPC   C1A20739   6.674  30.044   8.605
 1268POPC   D2A20740   6.976  30.244   8.300
 1268POPC   C3A20741   6.850  30.137   7.866
 1268POPC   C4A20742   6.462  30.006   7.620
 1268POPC   C1B20743   6.260  29.730   8.627
 1268POPC   C2B20744   6.424  29.802   8.189
 1268POPC   C3B20745   6.262  29.566   7.823
 1268POPC   C4B20746   6.359  29.502   7.373
 1269POPC   NC320747   9.136  38.533   9.337
 1269POPC   PO420748   8.523  38.587   9.341
 1269POPC   GL120749   8.754  38.521   8.945
 1269POPC   GL220750   9.124  38.353   8.887
 1269POPC   C1A20751   8.774  38.262   8.559
 1269POPC   D2A20752   9.201  38.294   8.380
 1269POPC   C3A20753   9.143  38.318   7.959
 1269POPC   C4A20754   8.736  38.358   7.734
 1269POPC   C1B20755   9.126  38.742   8.668
 1269POPC   C2B20756   9.093  39.016   8.359
 1269POPC   C3B20757   8.852  38.837   8.050
 1269POPC   C4B20758   9.049  38.749   7.723
 1270POPC   NC320759  39.015  34.743   9.506
 1270POPC   PO420760  39.145  34.130   9.528
 1270POPC   GL120761  39.294  34.235   9.133
 1270POPC   GL220762  39.657  34.169   9.136
 1270POPC   C1A20763  39.140  34.441   8.726
 1270POPC   D2A20764  38.910  34.400   8.306
 1270POPC   C3A20765  38.969  34.775   7.990
 1270POPC   C4A20766  38.980  34.802   7.502
 1270POPC   C1B20767  39.550  34.100   8.699
 1270POPC   C2B20768  39.610  34.202   8.242
 1270POPC   C3B20769  39.666  34.394   7.840
 1270POPC   C4B20770  39.441  34.799   7.787
 1271POPC   NC320771  19.134  18.044   9.631
 1271POPC   PO420772  18.757  18.437   9.282
 1271POPC   GL120773  18.993  18.152   9.140
 1271POPC   GL220774  19.289  18.358   9.172
 1271POPC   C1A20775  18.864  18.037   8.741
 1271POPC   D2A20776  18.997  18.130   8.358
 1271POPC   C3A20777  18.932  17.893   8.011
 1271POPC   C4A20778  19.072  18.254   7.818
 1271POPC   C1B20779  19.108  18.478   8.748
 1271POPC   C2B20780  18.913  18.632   8.334
 1271POPC   C3B20781  18.942  18.746   7.898
 1271POPC   C4B20782  19.282  18.726   7.608
 1272POPC   NC320783  13.899   7.340   9.414
 1272POPC   PO420784  14.541   7.376   9.583
 1272POPC   GL120785  14.389   7.624   9.241
 1272POPC   GL220786  14.292   7.373   9.094
 1272POPC   C1A20787  14.454   7.764   8.813
 1272POPC   D2A20788  14.350   7.618   8.446
 1272POPC   C3A20789  14.504   7.847   8.097
 1272POPC   C4A20790  14.532   7.562   7.768
 1272POPC   C1B20791  14.315   7.190   8.728
 1272POPC   C2B20792  14.169   6.999   8.386
 1272POPC   C3B20793  14.018   7.092   8.015
 1272POPC   C4B20794  14.280   7.124   7.713
 1273POPC   NC320795  21.770  27.475   9.411
 1273POPC   PO420796  21.090  27.602   9.543
 1273POPC   GL120797  21.305  27.605   9.189
 1273POPC   GL220798  21.338  27.267   9.139
 1273POPC   C1A20799  21.153  27.690   8.795
 1273POPC   D2A20800  21.359  27.900   8.484
 1273POPC   C3A20801  21.164  27.902   8.096
 1273POPC   C4A20802  21.363  27.946   7.706
 1273POPC   C1B20803  21.581  27.421   8.782
 1273POPC   C2B20804  21.770  27.516   8.386
 1273POPC   C3B20805  21.602  27.574   7.979
 1273POPC   C4B20806  21.292  27.425   7.691
 1274POPC   NC320807  40.952  38.968   9.535
 1274POPC   PO420808  40.574  39.532   9.524
 1274POPC   GL120809  40.798  39.335   9.222
 1274POPC   GL220810  41.166  39.379   9.180
 1274POPC   C1A20811  40.645  39.107   8.902
 1274POPC   D2A20812  40.488  39.236   8.525
 1274POPC   C3A20813  40.505  38.981   8.195
 1274POPC   C4A20814  40.531  38.968   7.764
 1274POPC   C1B20815  41.021  39.451   8.770
 1274POPC   C2B20816  41.052  39.244   8.376
 1274POPC   C3B20817  40.936  39.249   7.953
 1274POPC   C4B20818  41.159  39.453   7.626
 1275POPC   NC320819  20.093  31.402   9.515
 1275POPC   PO420820  19.494  31.716   9.553
 1275POPC   GL120821  19.735  31.570   9.200
 1275POPC   GL220822  20.099  31.770   9.184
 1275POPC   C1A20823  19.606  31.350   8.819
 1275POPC   D2A20824  19.568  31.357   8.371
 1275POPC   C3A20825  19.872  31.348   8.027
 1275POPC   C4A20826  19.610  31.484   7.678
 1275POPC   C1B20827  20.089  31.493   8.833
 1275POPC   C2B20828  20.022  31.685   8.432
 1275POPC   C3B20829  20.191  31.879   8.085
 1275POPC   C4B20830  20.236  31.686   7.715
 1276POPC   NC320831  35.644  43.447   9.190
 1276POPC   PO420832  36.001  43.063   9.668
 1276POPC   GL120833  36.145  43.146   9.229
 1276POPC   GL220834  36.315  42.847   9.083
 1276POPC   C1A20835  36.211  43.251   8.765
 1276POPC   D2A20836  36.376  43.168   8.330
 1276POPC   C3A20837  36.139  43.316   7.956
 1276POPC   C4A20838  35.991  43.492   7.586
 1276POPC   C1B20839  35.881  42.848   8.892
 1276POPC   C2B20840  35.730  42.979   8.489
 1276POPC   C3B20841  35.890  42.892   8.067
 1276POPC   C4B20842  35.917  42.988   7.619
 1277POPC   NC320843  12.709  44.550   9.858
 1277POPC   PO420844  13.052   0.098   9.639
 1277POPC   GL120845  12.963  44.868   9.233
 1277POPC   GL220846  12.830  44.523   9.252
 1277POPC   C1A20847  12.773  44.758   8.810
 1277POPC   D2A20848  12.537  44.564   8.477
 1277POPC   C3A20849  12.763  44.597   8.084
 1277POPC   C4A20850  12.755  44.721   7.675
 1277POPC   C1B20851  12.905  44.239   8.872
 1277POPC   C2B20852  12.990  44.286   8.434
 1277POPC   C3B20853  12.791  44.095   8.078
 1277POPC   C4B20854  12.751  44.204   7.648
 1278POPC   NC320855   3.705  13.745   9.575
 1278POPC   PO420856   3.334  13.348   9.270
 1278POPC   GL120857   3.378  13.698   9.037
 1278POPC   GL220858   3.707  13.864   9.079
 1278POPC   C1A20859   3.565  13.509   8.663
 1278POPC   D2A20860   3.699  13.292   8.315
 1278POPC   C3A20861   3.526  13.386   7.911
 1278POPC   C4A20862   3.754  13.457   7.518
 1278POPC   C1B20863   3.568  14.028   8.698
 1278POPC   C2B20864   3.364  13.866   8.372
 1278POPC   C3B20865   3.578  13.875   8.065
 1278POPC   C4B20866   3.672  13.913   7.694
 1279POPC   NC320867  39.100  10.400   9.374
 1279POPC   PO420868  39.519  10.835   9.348
 1279POPC   GL120869  39.285  10.895   9.016
 1279POPC   GL220870  39.290  10.523   8.924
 1279POPC   C1A20871  39.413  10.871   8.609
 1279POPC   D2A20872  39.222  10.605   8.295
 1279POPC   C3A20873  39.060  10.772   7.905
 1279POPC   C4A20874  38.944  10.547   7.526
 1279POPC   C1B20875  38.873  10.467   8.740
 1279POPC   C2B20876  38.606  10.234   8.427
 1279POPC   C3B20877  38.803  10.289   7.991
 1279POPC   C4B20878  39.268  10.296   7.832
 1280POPC   NC320879  37.314  29.375   9.589
 1280POPC   PO420880  37.752  28.828   9.462
 1280POPC   GL120881  37.678  28.973   9.086
 1280POPC   GL220882  37.611  29.313   9.154
 1280POPC   C1A20883  37.494  28.914   8.693
 1280POPC   D2A20884  37.529  29.171   8.329
 1280POPC   C3A20885  37.719  29.073   7.938
 1280POPC   C4A20886  37.656  28.855   7.539
 1280POPC   C1B20887  37.744  29.399   8.745
 1280POPC   C2B20888  37.890  29.534   8.323
 1280POPC   C3B20889  37.752  29.592   7.896
 1280POPC   C4B20890  37.693  29.357   7.495
 1281POPC   NC320891  18.249  38.800   9.741
 1281POPC   PO420892  18.353  39.391   9.538
 1281POPC   GL120893  18.412  39.494   9.107
 1281POPC   GL220894  18.063  39.367   9.091
 1281POPC   C1A20895  18.224  39.535   8.669
 1281POPC   D2A20896  18.234  39.256   8.342
 1281POPC   C3A20897  18.160  39.476   7.987
 1281POPC   C4A20898  18.127  39.658   7.613
 1281POPC   C1B20899  18.010  39.003   8.726
 1281POPC   C2B20900  18.104  38.757   8.302
 1281POPC   C3B20901  18.252  38.973   7.910
 1281POPC   C4B20902  18.582  39.259   7.767
 1282POPC   NC320903  35.186  26.957   9.590
 1282POPC   PO420904  34.563  27.194   9.675
 1282POPC   GL120905  34.677  26.983   9.254
 1282POPC   GL220906  34.974  27.184   9.164
 1282POPC   C1A20907  34.719  26.682   8.841
 1282POPC   D2A20908  34.926  26.616   8.385
 1282POPC   C3A20909  34.634  26.559   8.025
 1282POPC   C4A20910  34.416  26.378   7.662
 1282POPC   C1B20911  34.722  27.181   8.783
 1282POPC   C2B20912  34.539  26.943   8.405
 1282POPC   C3B20913  34.431  27.019   7.983
 1282POPC   C4B20914  34.590  27.116   7.579
 1283POPC   NC320915  10.866  26.421   9.391
 1283POPC   PO420916  10.397  26.814   9.710
 1283POPC   GL120917  10.381  26.918   9.236
 1283POPC   GL220918  10.736  26.933   9.164
 1283POPC   C1A20919  10.347  26.855   8.776
 1283POPC   D2A20920  10.024  26.717   8.472
 1283POPC   C3A20921  10.220  26.616   8.094
 1283POPC   C4A20922  10.464  26.825   7.791
 1283POPC   C1B20923  10.775  27.144   8.804
 1283POPC   C2B20924  10.857  26.923   8.443
 1283POPC   C3B20925  10.924  26.924   8.034
 1283POPC   C4B20926  10.771  27.240   7.789
 1284POPC   NC320927  22.190  13.216   9.847
 1284POPC   PO420928  22.163  13.864   9.595
 1284POPC   GL120929  22.240  13.564   9.233
 1284POPC   GL220930  22.401  13.832   9.122
 1284POPC   C1A20931  22.269  13.365   8.827
 1284POPC   D2A20932  22.395  13.166   8.453
 1284POPC   C3A20933  22.211  13.358   8.070
 1284POPC   C4A20934  22.336  13.290   7.648
 1284POPC   C1B20935  22.047  13.835   8.806
 1284POPC   C2B20936  21.870  13.755   8.379
 1284POPC   C3B20937  21.755  13.946   7.982
 1284POPC   C4B20938  22.058  13.957   7.666
 1285POPC   NC320939  41.203  24.326   9.443
 1285POPC   PO420940  40.538  24.337   9.508
 1285POPC   GL120941  40.657  24.552   9.126
 1285POPC   GL220942  41.002  24.653   9.087
 1285POPC   C1A20943  40.595  24.431   8.709
 1285POPC   D2A20944  40.553  24.121   8.396
 1285POPC   C3A20945  40.492  24.352   8.050
 1285POPC   C4A20946  40.652  24.604   7.724
 1285POPC   C1B20947  40.928  24.855   8.704
 1285POPC   C2B20948  40.884  24.709   8.275
 1285POPC   C3B20949  41.114  24.765   7.891
 1285POPC   C4B20950  41.098  24.534   7.494
 1286POPC   NC320951  40.868  31.884   9.601
 1286POPC   PO420952  41.143  32.480   9.560
 1286POPC   GL120953  40.887  32.273   9.248
 1286POPC   GL220954  41.031  31.953   9.138
 1286POPC   C1A20955  40.738  32.269   8.812
 1286POPC   D2A20956  41.009  32.258   8.457
 1286POPC   C3A20957  40.888  32.463   8.098
 1286POPC   C4A20958  41.046  32.528   7.695
 1286POPC   C1B20959  41.247  31.899   8.777
 1286POPC   C2B20960  41.038  31.746   8.422
 1286POPC   C3B20961  40.998  31.927   8.047
 1286POPC   C4B20962  40.867  32.051   7.663
 1287POPC   NC320963   0.101  39.513   9.464
 1287POPC   PO420964  44.690  40.107   9.477
 1287POPC   GL120965  44.578  39.911   9.150
 1287POPC   GL220966  44.901  39.811   9.049
 1287POPC   C1A20967  44.398  40.092   8.790
 1287POPC   D2A20968  44.397  40.011   8.368
 1287POPC   C3A20969  44.381  40.281   8.006
 1287POPC   C4A20970  44.415  39.962   7.698
 1287POPC   C1B20971  44.906  40.070   8.668
 1287POPC   C2B20972  44.816  40.287   8.279
 1287POPC   C3B20973  44.864  40.129   7.856
 1287POPC   C4B20974  44.943  39.950   7.452
 1288POPC   NC320975  14.715   7.852   9.547
 1288POPC   PO420976  14.055   7.919   9.517
 1288POPC   GL120977  14.192   8.098   9.136
 1288POPC   GL220978  14.559   8.134   9.120
 1288POPC   C1A20979  14.214   8.241   8.717
 1288POPC   D2A20980  14.008   7.992   8.417
 1288POPC   C3A20981  13.977   8.134   8.016
 1288POPC   C4A20982  14.177   7.926   7.680
 1288POPC   C1B20983  14.760   8.409   8.772
 1288POPC   C2B20984  14.961   8.415   8.364
 1288POPC   C3B20985  14.671   8.394   8.023
 1288POPC   C4B20986  14.326   8.400   7.767
 1289POPC   NC320987  28.923  23.696   9.472
 1289POPC   PO420988  29.518  23.365   9.353
 1289POPC   GL120989  29.323  23.609   8.944
 1289POPC   GL220990  28.990  23.770   8.966
 1289POPC   C1A20991  29.104  23.631   8.498
 1289POPC   D2A20992  29.138  23.842   8.122
 1289POPC   C3A20993  29.493  23.715   7.850
 1289POPC   C4A20994  29.550  23.875   7.422
 1289POPC   C1B20995  28.767  24.005   8.591
 1289POPC   C2B20996  28.713  24.121   8.137
 1289POPC   C3B20997  28.800  24.088   7.675
 1289POPC   C4B20998  28.585  24.210   7.294
 1290POPC   NC320999   7.900  28.140   9.306
 1290POPC   PO421000   8.521  28.172   9.584
 1290POPC   GL121001   8.398  28.293   9.151
 1290POPC   GL221002   8.155  28.549   9.140
 1290POPC   C1A21003   8.440  28.503   8.710
 1290POPC   D2A21004   8.216  28.373   8.338
 1290POPC   C3A21005   8.383  28.290   7.927
 1290POPC   C4A21006   8.214  28.205   7.474
 1290POPC   C1B21007   7.900  28.485   8.750
 1290POPC   C2B21008   7.724  28.233   8.408
 1290POPC   C3B21009   7.884  28.263   7.959
 1290POPC   C4B21010   7.757  28.409   7.546
 1291POPC   NC321011   7.870   6.782   9.361
 1291POPC   PO421012   8.145   6.273   9.674
 1291POPC   GL121013   8.186   6.442   9.192
 1291POPC   GL221014   7.872   6.548   8.938
 1291POPC   C1A21015   8.335   6.674   8.810
 1291POPC   D2A21016   8.493   6.461   8.425
 1291POPC   C3A21017   8.387   6.627   8.005
 1291POPC   C4A21018   8.309   6.419   7.609
 1291POPC   C1B21019   7.902   6.973   8.733
 1291POPC   C2B21020   7.794   7.005   8.311
 1291POPC   C3B21021   7.881   7.063   7.889
 1291POPC   C4B21022   7.576   7.123   7.549
 1292POPC   NC321023  42.250  26.395   9.650
 1292POPC   PO421024  42.435  27.071   9.592
 1292POPC   GL121025  42.228  26.689   9.193
 1292POPC   GL221026  42.118  26.904   8.825
 1292POPC   C1A21027  41.946  26.433   8.851
 1292POPC   D2A21028  41.831  26.300   8.390
 1292POPC   C3A21029  41.991  26.426   7.945
 1292POPC   C4A21030  42.286  26.635   7.642
 1292POPC   C1B21031  42.343  27.296   8.572
 1292POPC   C2B21032  42.217  27.166   8.241
 1292POPC   C3B21033  42.375  27.074   7.873
 1292POPC   C4B21034  42.702  27.266   7.732
 1293POPC   NC321035  40.454  42.785   9.485
 1293POPC   PO421036  41.159  42.674   9.445
 1293POPC   GL121037  40.790  42.469   9.224
 1293POPC   GL221038  40.646  42.144   9.135
 1293POPC   C1A21039  40.529  42.512   8.838
 1293POPC   D2A21040  40.494  42.099   8.538
 1293POPC   C3A21041  40.560  42.109   8.087
 1293POPC   C4A21042  40.705  42.283   7.686
 1293POPC   C1B21043  40.924  42.199   8.777
 1293POPC   C2B21044  41.074  42.135   8.348
 1293POPC   C3B21045  41.162  42.269   7.907
 1293POPC   C4B21046  41.118  42.025   7.512
 1294POPC   NC321047  18.611  37.267   9.484
 1294POPC   PO421048  17.997  37.086   9.333
 1294POPC   GL121049  18.317  37.015   9.139
 1294POPC   GL221050  18.080  36.897   8.874
 1294POPC   C1A21051  18.535  37.050   8.776
 1294POPC   D2A21052  18.476  36.746   8.448
 1294POPC   C3A21053  18.609  36.913   8.073
 1294POPC   C4A21054  18.273  36.951   7.806
 1294POPC   C1B21055  18.078  36.520   8.703
 1294POPC   C2B21056  17.878  36.417   8.393
 1294POPC   C3B21057  17.956  36.702   8.117
 1294POPC   C4B21058  17.939  36.583   7.700
 1295POPC   NC321059  35.543   2.251   9.515
 1295POPC   PO421060  35.181   1.611   9.520
 1295POPC   GL121061  35.502   1.856   9.219
 1295POPC   GL221062  35.271   2.033   9.026
 1295POPC   C1A21063  35.673   1.781   8.810
 1295POPC   D2A21064  35.361   1.837   8.482
 1295POPC   C3A21065  35.134   1.767   8.104
 1295POPC   C4A21066  35.204   1.932   7.679
 1295POPC   C1B21067  35.130   2.250   8.649
 1295POPC   C2B21068  35.218   2.310   8.257
 1295POPC   C3B21069  35.527   2.088   8.026
 1295POPC   C4B21070  35.723   2.184   7.629
 1296POPC   NC321071  17.037   9.030   9.451
 1296POPC   PO421072  16.429   9.264   9.285
 1296POPC   GL121073  16.734   8.927   9.071
 1296POPC   GL221074  17.126   9.039   8.964
 1296POPC   C1A21075  16.901   8.650   8.760
 1296POPC   D2A21076  16.766   8.852   8.428
 1296POPC   C3A21077  16.940   8.725   8.063
 1296POPC   C4A21078  16.819   8.878   7.691
 1296POPC   C1B21079  17.099   9.329   8.624
 1296POPC   C2B21080  16.987   9.244   8.208
 1296POPC   C3B21081  17.214   9.143   7.847
 1296POPC   C4B21082  17.095   9.229   7.450
 1297POPC   NC321083  23.286  39.483   9.549
 1297POPC   PO421084  22.739  39.095   9.761
 1297POPC   GL121085  22.832  39.014   9.266
 1297POPC   GL221086  22.944  39.294   9.199
 1297POPC   C1A21087  23.041  38.970   8.802
 1297POPC   D2A21088  22.941  38.886   8.375
 1297POPC   C3A21089  23.053  39.049   7.994
 1297POPC   C4A21090  22.737  39.059   7.713
 1297POPC   C1B21091  23.051  39.485   8.819
 1297POPC   C2B21092  23.142  39.487   8.378
 1297POPC   C3B21093  23.017  39.570   7.940
 1297POPC   C4B21094  22.961  39.462   7.485
 1298POPC   NC321095  34.053   1.546   9.508
 1298POPC   PO421096  33.523   2.141   9.508
 1298POPC   GL121097  33.767   1.999   9.178
 1298POPC   GL221098  33.624   1.693   9.129
 1298POPC   C1A21099  33.802   2.188   8.764
 1298POPC   D2A21100  33.740   2.010   8.360
 1298POPC   C3A21101  33.565   2.187   7.987
 1298POPC   C4A21102  33.874   2.190   7.646
 1298POPC   C1B21103  33.865   1.653   8.743
 1298POPC   C2B21104  33.748   1.504   8.305
 1298POPC   C3B21105  33.822   1.746   7.915
 1298POPC   C4B21106  33.800   1.714   7.461
 1299POPC   NC321107  42.362  24.247   9.849
 1299POPC   PO421108  42.163  23.748   9.497
 1299POPC   GL121109  42.429  23.783   9.107
 1299POPC   GL221110  42.608  23.470   9.017
 1299POPC   C1A21111  42.200  23.851   8.726
 1299POPC   D2A21112  42.095  23.698   8.322
 1299POPC   C3A21113  42.366  23.908   8.037
 1299POPC   C4A21114  42.731  23.932   7.789
 1299POPC   C1B21115  42.575  23.499   8.586
 1299POPC   C2B21116  42.728  23.590   8.194
 1299POPC   C3B21117  42.541  23.450   7.813
 1299POPC   C4B21118  42.618  23.164   7.455
 1300POPC   NC321119  29.276  18.451   9.761
 1300POPC   PO421120  29.159  19.096   9.471
 1300POPC   GL121121  29.128  19.103   9.091
 1300POPC   GL221122  29.159  19.449   9.076
 1300POPC   C1A21123  28.858  18.977   8.810
 1300POPC   D2A21124  28.646  19.136   8.483
 1300POPC   C3A21125  28.931  19.071   8.153
 1300POPC   C4A21126  28.865  18.932   7.739
 1300POPC   C1B21127  29.076  19.396   8.645
 1300POPC   C2B21128  29.308  19.399   8.298
 1300POPC   C3B21129  29.173  19.463   7.882
 1300POPC   C4B21130  29.253  19.193   7.488
 1301POPC   NC321131  24.973  12.997   9.544
 1301POPC   PO421132  24.981  12.325   9.329
 1301POPC   GL121133  25.085  12.751   9.107
 1301POPC   GL221134  25.249  13.106   9.119
 1301POPC   C1A21135  24.991  12.946   8.700
 1301POPC   D2A21136  25.191  12.804   8.331
 1301POPC   C3A21137  25.056  12.892   7.928
 1301POPC   C4A21138  25.229  12.936   7.552
 1301POPC   C1B21139  25.478  12.857   8.768
 1301POPC   C2B21140  25.712  12.921   8.367
 1301POPC   C3B21141  25.630  12.978   7.926
 1301POPC   C4B21142  25.729  13.000   7.494
 1302POPC   NC321143   7.131   3.803   9.558
 1302POPC   PO421144   7.793   3.518   9.422
 1302POPC   GL121145   7.437   3.679   9.148
 1302POPC   GL221146   7.253   3.428   8.951
 1302POPC   C1A21147   7.298   3.890   8.765
 1302POPC   D2A21148   7.178   3.817   8.344
 1302POPC   C3A21149   7.536   3.670   8.066
 1302POPC   C4A21150   7.900   3.527   7.847
 1302POPC   C1B21151   7.573   3.237   8.707
 1302POPC   C2B21152   7.479   3.104   8.321
 1302POPC   C3B21153   7.161   3.341   8.125
 1302POPC   C4B21154   7.222   3.521   7.690
 1303POPC   NC321155  39.663  26.624   9.495
 1303POPC   PO421156  40.211  26.957   9.412
 1303POPC   GL121157  39.953  26.837   9.100
 1303POPC   GL221158  39.633  26.991   9.056
 1303POPC   C1A21159  40.075  26.801   8.688
 1303POPC   D2A21160  39.873  26.926   8.312
 1303POPC   C3A21161  40.058  26.978   7.911
 1303POPC   C4A21162  40.255  26.656   7.678
 1303POPC   C1B21163  39.611  26.618   8.774
 1303POPC   C2B21164  39.525  26.543   8.340
 1303POPC   C3B21165  39.786  26.536   7.955
 1303POPC   C4B21166  39.631  26.625   7.555
 1304POPC   NC321167  12.020   1.769   9.353
 1304POPC   PO421168  12.078   2.468   9.413
 1304POPC   GL121169  12.030   2.212   9.079
 1304POPC   GL221170  12.354   2.081   9.184
 1304POPC   C1A21171  11.817   2.005   8.726
 1304POPC   D2A21172  11.871   1.717   8.390
 1304POPC   C3A21173  11.716   1.687   7.964
 1304POPC   C4A21174  11.862   1.884   7.566
 1304POPC   C1B21175  12.337   1.960   8.746
 1304POPC   C2B21176  12.195   2.186   8.387
 1304POPC   C3B21177  12.094   2.052   7.981
 1304POPC   C4B21178  12.371   1.857   7.669
 1305POPC   NC321179   6.292  18.713   9.569
 1305POPC   PO421180   6.602  19.268   9.531
 1305POPC   GL121181   6.481  19.220   9.131
 1305POPC   GL221182   6.494  18.858   9.088
 1305POPC   C1A21183   6.633  19.163   8.687
 1305POPC   D2A21184   6.553  18.948   8.299
 1305POPC   C3A21185   6.600  19.169   7.912
 1305POPC   C4A21186   6.867  19.187   7.541
 1305POPC   C1B21187   6.916  18.780   8.851
 1305POPC   C2B21188   7.062  18.919   8.429
 1305POPC   C3B21189   6.998  18.856   7.963
 1305POPC   C4B21190   6.769  18.694   7.577
 1306POPC   NC321191  40.413  28.128   9.485
 1306POPC   PO421192  41.057  28.437   9.575
 1306POPC   GL121193  40.906  28.389   9.175
 1306POPC   GL221194  40.581  28.429   9.130
 1306POPC   C1A21195  40.930  28.280   8.754
 1306POPC   D2A21196  41.165  28.181   8.382
 1306POPC   C3A21197  40.829  28.299   8.085
 1306POPC   C4A21198  40.743  28.456   7.666
 1306POPC   C1B21199  40.385  28.537   8.759
 1306POPC   C2B21200  40.453  28.763   8.405
 1306POPC   C3B21201  40.357  28.639   7.999
 1306POPC   C4B21202  40.287  28.693   7.567
 1307POPC   NC321203  40.517   8.482   9.503
 1307POPC   PO421204  41.003   8.854   9.349
 1307POPC   GL121205  40.810   8.530   9.085
 1307POPC   GL221206  40.837   8.175   9.163
 1307POPC   C1A21207  40.483   8.358   8.788
 1307POPC   D2A21208  40.531   8.064   8.425
 1307POPC   C3A21209  40.573   8.291   8.015
 1307POPC   C4A21210  40.271   8.415   7.675
 1307POPC   C1B21211  40.967   8.230   8.696
 1307POPC   C2B21212  41.023   8.074   8.258
 1307POPC   C3B21213  40.995   8.086   7.786
 1307POPC   C4B21214  40.942   8.062   7.313
 1308POPC   NC321215  39.701  37.707   9.510
 1308POPC   PO421216  40.355  37.950   9.406
 1308POPC   GL121217  40.225  37.692   9.004
 1308POPC   GL221218  39.908  37.571   9.073
 1308POPC   C1A21219  39.981  37.633   8.576
 1308POPC   D2A21220  40.064  37.436   8.192
 1308POPC   C3A21221  40.051  37.660   7.810
 1308POPC   C4A21222  40.404  37.847   7.671
 1308POPC   C1B21223  39.587  37.409   8.809
 1308POPC   C2B21224  39.509  37.547   8.362
 1308POPC   C3B21225  39.617  37.338   7.928
 1308POPC   C4B21226  39.851  37.285   7.506
 1309POPC   NC321227  42.215  41.868   9.565
 1309POPC   PO421228  42.310  41.242   9.482
 1309POPC   GL121229  42.396  41.585   9.179
 1309POPC   GL221230  42.151  41.504   8.990
 1309POPC   C1A21231  42.450  41.841   8.750
 1309POPC   D2A21232  42.556  41.737   8.321
 1309POPC   C3A21233  42.337  41.440   8.055
 1309POPC   C4A21234  42.377  41.645   7.654
 1309POPC   C1B21235  42.186  41.437   8.570
 1309POPC   C2B21236  42.046  41.745   8.314
 1309POPC   C3B21237  41.913  41.670   7.888
 1309POPC   C4B21238  41.954  41.418   7.482
 1310POPC   NC321239  15.565  16.517   9.684
 1310POPC   PO421240  15.087  17.010   9.730
 1310POPC   GL121241  15.332  16.891   9.330
 1310POPC   GL221242  15.054  16.795   9.133
 1310POPC   C1A21243  15.469  16.889   8.834
 1310POPC   D2A21244  15.439  16.624   8.406
 1310POPC   C3A21245  15.516  16.765   7.954
 1310POPC   C4A21246  15.549  16.596   7.515
 1310POPC   C1B21247  15.048  16.569   8.763
 1310POPC   C2B21248  14.912  16.760   8.405
 1310POPC   C3B21249  14.779  16.808   7.998
 1310POPC   C4B21250  15.058  16.818   7.703
 1311POPC   NC321251  42.923   3.062   9.455
 1311POPC   PO421252  42.270   2.843   9.547
 1311POPC   GL121253  42.347   2.661   9.128
 1311POPC   GL221254  42.645   2.737   9.149
 1311POPC   C1A21255  42.182   2.765   8.709
 1311POPC   D2A21256  42.339   2.907   8.339
 1311POPC   C3A21257  42.298   2.685   7.961
 1311POPC   C4A21258  42.372   2.945   7.613
 1311POPC   C1B21259  42.692   2.770   8.729
 1311POPC   C2B21260  42.663   2.543   8.370
 1311POPC   C3B21261  42.623   2.281   8.092
 1311POPC   C4B21262  42.589   2.310   7.699
 1312POPC   NC321263   4.923  19.951   9.646
 1312POPC   PO421264   5.418  20.365   9.503
 1312POPC   GL121265   5.129  20.120   9.182
 1312POPC   GL221266   4.904  19.808   9.175
 1312POPC   C1A21267   5.046  19.996   8.742
 1312POPC   D2A21268   5.233  20.104   8.356
 1312POPC   C3A21269   5.054  20.103   7.971
 1312POPC   C4A21270   5.160  20.154   7.506
 1312POPC   C1B21271   4.766  19.557   8.844
 1312POPC   C2B21272   4.935  19.601   8.439
 1312POPC   C3B21273   5.078  19.577   8.046
 1312POPC   C4B21274   4.936  19.732   7.649
 1313POPC   NC321275  22.465  30.108   9.885
 1313POPC   PO421276  21.963  29.992   9.557
 1313POPC   GL121277  22.093  29.978   9.160
 1313POPC   GL221278  22.361  30.176   9.189
 1313POPC   C1A21279  22.109  29.825   8.747
 1313POPC   D2A21280  21.885  29.892   8.338
 1313POPC   C3A21281  21.899  29.646   7.972
 1313POPC   C4A21282  22.234  29.570   7.668
 1313POPC   C1B21283  22.459  30.290   8.788
 1313POPC   C2B21284  22.435  30.051   8.438
 1313POPC   C3B21285  22.307  29.977   8.030
 1313POPC   C4B21286  22.523  30.070   7.671
 1314POPC   NC321287  11.092  28.320   9.660
 1314POPC   PO421288  11.586  27.961   9.781
 1314POPC   GL121289  11.451  28.169   9.341
 1314POPC   GL221290  11.221  27.978   9.128
 1314POPC   C1A21291  11.459  28.372   8.884
 1314POPC   D2A21292  11.434  28.313   8.387
 1314POPC   C3A21293  11.567  28.527   7.982
 1314POPC   C4A21294  11.304  28.675   7.652
 1314POPC   C1B21295  11.343  27.910   8.707
 1314POPC   C2B21296  11.382  27.819   8.279
 1314POPC   C3B21297  11.268  28.100   7.929
 1314POPC   C4B21298  10.973  28.021   7.587
 1315POPC   NC321299  11.123  24.209   9.505
 1315POPC   PO421300  11.662  24.714   9.540
 1315POPC   GL121301  11.474  24.456   9.230
 1315POPC   GL221302  11.359  24.735   9.070
 1315POPC   C1A21303  11.258  24.275   8.847
 1315POPC   D2A21304  11.223  24.031   8.476
 1315POPC   C3A21305  11.286  24.260   8.110
 1315POPC   C4A21306  11.352  24.203   7.713
 1315POPC   C1B21307  11.155  24.836   8.720
 1315POPC   C2B21308  11.153  24.934   8.294
 1315POPC   C3B21309  10.956  24.823   7.931
 1315POPC   C4B21310  11.251  24.717   7.646
 1316POPC   NC321311  38.078  39.665   9.300
 1316POPC   PO421312  37.878  39.201   9.800
 1316POPC   GL121313  37.656  39.108   9.339
 1316POPC   GL221314  37.427  39.388   9.205
 1316POPC   C1A21315  37.653  39.098   8.845
 1316POPC   D2A21316  37.506  38.946   8.417
 1316POPC   C3A21317  37.710  39.062   7.990
 1316POPC   C4A21318  37.595  39.021   7.522
 1316POPC   C1B21319  37.371  39.616   8.834
 1316POPC   C2B21320  37.317  39.470   8.431
 1316POPC   C3B21321  37.558  39.535   8.066
 1316POPC   C4B21322  37.654  39.514   7.636
 1317POPC   NC321323  13.225   0.407   9.328
 1317POPC   PO421324  12.649   0.662   9.560
 1317POPC   GL121325  12.609   0.518   9.140
 1317POPC   GL221326  12.913   0.353   8.940
 1317POPC   C1A21327  12.560   0.668   8.742
 1317POPC   D2A21328  12.871   0.637   8.458
 1317POPC   C3A21329  12.669   0.530   8.073
 1317POPC   C4A21330  12.590   0.190   7.779
 1317POPC   C1B21331  13.225  44.999   8.816
 1317POPC   C2B21332  13.126  44.798   8.406
 1317POPC   C3B21333  13.125  44.962   7.976
 1317POPC   C4B21334  13.339  44.967   7.585
 1318POPC   NC321335  42.638   9.453   9.552
 1318POPC   PO421336  42.690   8.790   9.439
 1318POPC   GL121337  42.388   9.080   9.247
 1318POPC   GL221338  42.497   9.358   9.074
 1318POPC   C1A21339  42.133   9.013   8.870
 1318POPC   D2A21340  42.197   9.024   8.399
 1318POPC   C3A21341  42.228   8.693   8.076
 1318POPC   C4A21342  42.062   8.655   7.639
 1318POPC   C1B21343  42.622   9.119   8.721
 1318POPC   C2B21344  42.733   9.043   8.280
 1318POPC   C3B21345  42.470   9.110   7.917
 1318POPC   C4B21346  42.444   9.461   7.617
 1319POPC   NC321347  35.212  36.794   9.517
 1319POPC   PO421348  35.811  36.759   9.782
 1319POPC   GL121349  35.690  36.557   9.268
 1319POPC   GL221350  35.357  36.564   9.095
 1319POPC   C1A21351  35.708  36.682   8.754
 1319POPC   D2A21352  35.438  36.843   8.373
 1319POPC   C3A21353  35.512  36.935   7.904
 1319POPC   C4A21354  35.622  36.860   7.456
 1319POPC   C1B21355  35.090  36.758   8.763
 1319POPC   C2B21356  34.899  36.801   8.320
 1319POPC   C3B21357  35.008  37.001   7.920
 1319POPC   C4B21358  35.222  37.184   7.530
 1320POPC   NC321359  22.999  20.874   9.483
 1320POPC   PO421360  23.165  20.172   9.468
 1320POPC   GL121361  23.016  20.468   9.124
 1320POPC   GL221362  23.244  20.742   9.084
 1320POPC   C1A21363  22.835  20.577   8.703
 1320POPC   D2A21364  22.844  20.375   8.279
 1320POPC   C3A21365  22.730  20.589   7.890
 1320POPC   C4A21366  22.673  20.391   7.498
 1320POPC   C1B21367  23.362  20.620   8.703
 1320POPC   C2B21368  23.228  20.736   8.335
 1320POPC   C3B21369  23.260  20.561   7.975
 1320POPC   C4B21370  23.124  20.597   7.552
 1321POPC   NC321371  19.227   7.869   9.628
 1321POPC   PO421372  18.761   8.313   9.504
 1321POPC   GL121373  18.952   8.110   9.176
 1321POPC   GL221374  19.309   8.172   9.251
 1321POPC   C1A21375  18.832   8.087   8.732
 1321POPC   D2A21376  18.940   7.880   8.312
 1321POPC   C3A21377  18.911   8.118   7.949
 1321POPC   C4A21378  18.894   8.329   7.602
 1321POPC   C1B21379  19.334   8.162   8.836
 1321POPC   C2B21380  19.454   8.062   8.447
 1321POPC   C3B21381  19.412   8.154   8.049
 1321POPC   C4B21382  19.454   8.329   7.678
 1322POPC   NC321383  19.130  31.394   9.535
 1322POPC   PO421384  18.926  31.972   9.744
 1322POPC   GL121385  18.886  31.781   9.300
 1322POPC   GL221386  19.213  31.673   9.110
 1322POPC   C1A21387  18.748  31.690   8.865
 1322POPC   D2A21388  19.026  31.689   8.502
 1322POPC   C3A21389  18.817  31.808   8.127
 1322POPC   C4A21390  18.971  31.774   7.731
 1322POPC   C1B21391  19.089  31.280   8.840
 1322POPC   C2B21392  19.095  31.148   8.393
 1322POPC   C3B21393  19.108  31.356   7.992
 1322POPC   C4B21394  18.803  31.301   7.634
 1323POPC   NC321395   9.314   5.873   9.489
 1323POPC   PO421396   8.720   6.077   9.523
 1323POPC   GL121397   8.833   5.945   9.139
 1323POPC   GL221398   8.558   6.142   9.038
 1323POPC   C1A21399   9.081   5.752   8.802
 1323POPC   D2A21400   8.947   5.627   8.404
 1323POPC   C3A21401   9.089   5.824   8.023
 1323POPC   C4A21402   9.431   5.727   7.737
 1323POPC   C1B21403   8.609   5.961   8.647
 1323POPC   C2B21404   8.606   5.990   8.201
 1323POPC   C3B21405   8.745   6.226   7.845
 1323POPC   C4B21406   8.755   6.221   7.367
 1324POPC   NC321407   3.823   3.637   9.557
 1324POPC   PO421408   3.179   3.422   9.401
 1324POPC   GL121409   3.371   3.522   9.034
 1324POPC   GL221410   3.510   3.823   9.147
 1324POPC   C1A21411   3.627   3.363   8.673
 1324POPC   D2A21412   3.881   3.306   8.283
 1324POPC   C3A21413   3.598   3.220   7.916
 1324POPC   C4A21414   3.224   3.463   7.851
 1324POPC   C1B21415   3.630   3.865   8.711
 1324POPC   C2B21416   3.590   3.721   8.275
 1324POPC   C3B21417   3.459   3.907   7.899
 1324POPC   C4B21418   3.640   4.010   7.506
 1325POPC   NC321419   0.772  37.725   9.469
 1325POPC   PO421420   0.119  37.398   9.546
 1325POPC   GL121421   0.288  37.679   9.232
 1325POPC   GL221422   0.563  37.855   9.045
 1325POPC   C1A21423   0.194  37.642   8.791
 1325POPC   D2A21424   0.416  37.481   8.446
 1325POPC   C3A21425   0.230  37.451   8.063
 1325POPC   C4A21426   0.195  37.586   7.646
 1325POPC   C1B21427   0.883  37.845   8.756
 1325POPC   C2B21428   0.863  37.737   8.377
 1325POPC   C3B21429   0.538  37.889   8.115
 1325POPC   C4B21430   0.628  37.851   7.702
 1326POPC   NC321431  28.607   9.038   9.551
 1326POPC   PO421432  27.956   8.830   9.757
 1326POPC   GL121433  28.199   9.025   9.254
 1326POPC   GL221434  28.100   9.324   9.093
 1326POPC   C1A21435  28.541   8.840   8.887
 1326POPC   D2A21436  28.558   8.551   8.514
 1326POPC   C3A21437  28.384   8.720   8.115
 1326POPC   C4A21438  28.184   8.822   7.675
 1326POPC   C1B21439  28.477   9.340   8.854
 1326POPC   C2B21440  28.733   9.352   8.482
 1326POPC   C3B21441  28.628   9.190   8.081
 1326POPC   C4B21442  28.697   8.915   7.731
 1327POPC   NC321443  17.599  26.639   9.665
 1327POPC   PO421444  17.000  26.946   9.543
 1327POPC   GL121445  17.413  26.977   9.275
 1327POPC   GL221446  17.627  26.690   9.161
 1327POPC   C1A21447  17.415  26.978   8.814
 1327POPC   D2A21448  17.440  26.791   8.414
 1327POPC   C3A21449  17.445  27.027   8.050
 1327POPC   C4A21450  17.423  26.881   7.668
 1327POPC   C1B21451  17.775  26.567   8.753
 1327POPC   C2B21452  17.679  26.328   8.375
 1327POPC   C3B21453  17.728  26.575   8.014
 1327POPC   C4B21454  17.803  26.512   7.600
 1328POPC   NC321455  27.351  20.087   9.296
 1328POPC   PO421456  27.680  19.680   9.721
 1328POPC   GL121457  27.787  19.725   9.267
 1328POPC   GL221458  27.505  19.655   9.061
 1328POPC   C1A21459  27.907  19.921   8.841
 1328POPC   D2A21460  27.754  20.087   8.408
 1328POPC   C3A21461  27.825  19.858   8.020
 1328POPC   C4A21462  27.857  20.040   7.617
 1328POPC   C1B21463  27.411  19.826   8.667
 1328POPC   C2B21464  27.161  19.758   8.320
 1328POPC   C3B21465  27.086  19.599   7.923
 1328POPC   C4B21466  27.422  19.733   7.648
 1329POPC   NC321467   1.859   7.759   9.592
 1329POPC   PO421468   1.717   8.431   9.641
 1329POPC   GL121469   2.011   8.235   9.335
 1329POPC   GL221470   2.161   8.472   9.078
 1329POPC   C1A21471   2.073   7.975   8.979
 1329POPC   D2A21472   2.247   7.879   8.606
 1329POPC   C3A21473   2.043   7.921   8.238
 1329POPC   C4A21474   1.962   7.973   7.817
 1329POPC   C1B21475   2.091   8.380   8.645
 1329POPC   C2B21476   2.040   8.419   8.207
 1329POPC   C3B21477   2.011   8.488   7.791
 1329POPC   C4B21478   1.827   8.569   7.402
 1330POPC   NC321479  34.563  27.660   9.728
 1330POPC   PO421480  35.015  28.072   9.587
 1330POPC   GL121481  34.896  27.709   9.257
 1330POPC   GL221482  34.546  27.497   9.202
 1330POPC   C1A21483  34.807  27.696   8.794
 1330POPC   D2A21484  34.970  27.678   8.378
 1330POPC   C3A21485  34.767  27.762   7.986
 1330POPC   C4A21486  34.806  27.567   7.582
 1330POPC   C1B21487  34.334  27.482   8.738
 1330POPC   C2B21488  34.510  27.424   8.286
 1330POPC   C3B21489  34.358  27.493   7.837
 1330POPC   C4B21490  34.029  27.690   7.628
 1331POPC   NC321491  41.337  15.608   9.621
 1331POPC   PO421492  41.326  14.925   9.438
 1331POPC   GL121493  41.533  14.930   9.055
 1331POPC   GL221494  41.688  15.267   9.025
 1331POPC   C1A21495  41.497  14.966   8.623
 1331POPC   D2A21496  41.613  15.303   8.387
 1331POPC   C3A21497  41.781  15.233   7.952
 1331POPC   C4A21498  41.854  15.133   7.510
 1331POPC   C1B21499  41.284  15.390   8.795
 1331POPC   C2B21500  41.090  15.354   8.358
 1331POPC   C3B21501  41.246  15.195   7.961
 1331POPC   C4B21502  41.418  15.415   7.607
 1332POPC   NC321503  41.073  36.749   9.504
 1332POPC   PO421504  40.521  37.079   9.191
 1332POPC   GL121505  40.913  37.052   9.127
 1332POPC   GL221506  40.827  36.699   9.071
 1332POPC   C1A21507  41.058  37.022   8.732
 1332POPC   D2A21508  41.020  36.738   8.356
 1332POPC   C3A21509  40.825  36.960   7.995
 1332POPC   C4A21510  40.412  37.110   7.913
 1332POPC   C1B21511  40.823  36.444   8.749
 1332POPC   C2B21512  40.740  36.257   8.383
 1332POPC   C3B21513  40.802  36.436   8.001
 1332POPC   C4B21514  41.109  36.639   7.717
 1333POPC   NC321515  16.936  19.723   9.625
 1333POPC   PO421516  16.495  20.126   9.488
 1333POPC   GL121517  16.801  19.989   9.192
 1333POPC   GL221518  16.830  19.608   9.155
 1333POPC   C1A21519  16.826  20.124   8.776
 1333POPC   D2A21520  16.792  19.962   8.362
 1333POPC   C3A21521  16.740  20.192   8.011
 1333POPC   C4A21522  16.765  19.943   7.655
 1333POPC   C1B21523  16.925  19.375   8.811
 1333POPC   C2B21524  16.830  19.471   8.422
 1333POPC   C3B21525  16.809  19.532   7.999
 1333POPC   C4B21526  17.094  19.312   7.772
 1334POPC   NC321527  28.095  18.460   9.568
 1334POPC   PO421528  28.810  18.390   9.697
 1334POPC   GL121529  28.553  18.240   9.286
 1334POPC   GL221530  28.335  18.478   9.126
 1334POPC   C1A21531  28.388  18.078   8.830
 1334POPC   D2A21532  28.373  18.323   8.441
 1334POPC   C3A21533  28.258  18.156   8.051
 1334POPC   C4A21534  28.263  18.167   7.599
 1334POPC   C1B21535  28.646  18.534   8.852
 1334POPC   C2B21536  28.797  18.630   8.435
 1334POPC   C3B21537  28.632  18.551   8.035
 1334POPC   C4B21538  28.338  18.676   7.713
 1335POPC   NC321539  37.228  35.354   9.541
 1335POPC   PO421540  36.591  35.518   9.452
 1335POPC   GL121541  36.778  35.234   9.153
 1335POPC   GL221542  37.052  35.003   9.195
 1335POPC   C1A21543  36.734  35.186   8.716
 1335POPC   D2A21544  36.590  35.489   8.409
 1335POPC   C3A21545  36.464  35.312   8.017
 1335POPC   C4A21546  36.830  35.236   7.803
 1335POPC   C1B21547  37.207  35.241   8.840
 1335POPC   C2B21548  37.244  35.189   8.391
 1335POPC   C3B21549  37.214  35.488   8.029
 1335POPC   C4B21550  37.070  35.635   7.599
 1336POPC   NC321551  39.616  16.364   9.425
 1336POPC   PO421552  40.093  15.863   9.574
 1336POPC   GL121553  39.968  16.017   9.185
 1336POPC   GL221554  40.106  16.319   9.201
 1336POPC   C1A21555  39.858  16.041   8.753
 1336POPC   D2A21556  40.085  15.984   8.352
 1336POPC   C3A21557  39.918  16.082   7.951
 1336POPC   C4A21558  39.929  15.906   7.556
 1336POPC   C1B21559  40.183  16.432   8.749
 1336POPC   C2B21560  40.020  16.479   8.316
 1336POPC   C3B21561  40.346  16.348   7.999
 1336POPC   C4B21562  40.318  16.231   7.580
 1337POPC   NC321563   3.101  31.636   9.829
 1337POPC   PO421564   2.653  31.426   9.402
 1337POPC   GL121565   3.046  31.469   9.163
 1337POPC   GL221566   3.167  31.758   9.291
 1337POPC   C1A21567   3.125  31.446   8.706
 1337POPC   D2A21568   3.053  31.334   8.251
 1337POPC   C3A21569   2.714  31.378   7.910
 1337POPC   C4A21570   2.534  31.225   7.489
 1337POPC   C1B21571   3.111  31.937   8.866
 1337POPC   C2B21572   2.876  31.927   8.462
 1337POPC   C3B21573   2.998  31.826   8.036
 1337POPC   C4B21574   3.198  31.485   7.791
 1338POPC   NC321575   8.327  25.474   9.583
 1338POPC   PO421576   8.546  24.822   9.394
 1338POPC   GL121577   8.275  25.134   9.166
 1338POPC   GL221578   8.138  25.499   9.128
 1338POPC   C1A21579   8.085  25.020   8.787
 1338POPC   D2A21580   8.295  24.947   8.400
 1338POPC   C3A21581   8.082  24.947   8.054
 1338POPC   C4A21582   8.273  25.009   7.659
 1338POPC   C1B21583   8.422  25.421   8.795
 1338POPC   C2B21584   8.530  25.377   8.409
 1338POPC   C3B21585   8.336  25.415   8.022
 1338POPC   C4B21586   8.495  25.810   7.852
 1339POPC   NC321587  11.200  41.287   9.469
 1339POPC   PO421588  11.439  41.954   9.536
 1339POPC   GL121589  11.364  41.712   9.197
 1339POPC   GL221590  11.596  41.423   9.168
 1339POPC   C1A21591  11.208  41.662   8.792
 1339POPC   D2A21592  11.386  41.513   8.414
 1339POPC   C3A21593  11.329  41.679   8.012
 1339POPC   C4A21594  11.173  41.343   7.759
 1339POPC   C1B21595  11.733  41.555   8.802
 1339POPC   C2B21596  11.880  41.352   8.418
 1339POPC   C3B21597  11.702  41.320   8.020
 1339POPC   C4B21598  11.681  41.518   7.631
 1340POPC   NC321599  27.864  14.807   9.464
 1340POPC   PO421600  28.338  15.084   9.486
 1340POPC   GL121601  28.275  15.134   9.033
 1340POPC   GL221602  28.074  14.836   8.952
 1340POPC   C1A21603  28.340  15.417   8.643
 1340POPC   D2A21604  28.192  15.401   8.179
 1340POPC   C3A21605  28.380  15.178   7.805
 1340POPC   C4A21606  28.637  15.208   7.412
 1340POPC   C1B21607  28.212  14.952   8.521
 1340POPC   C2B21608  28.016  14.911   8.109
 1340POPC   C3B21609  27.935  14.975   7.671
 1340POPC   C4B21610  28.188  14.992   7.300
 1341POPC   NC321611  15.430   4.470   9.214
 1341POPC   PO421612  15.810   3.998   9.597
 1341POPC   GL121613  15.854   4.153   9.170
 1341POPC   GL221614  16.205   4.256   9.129
 1341POPC   C1A21615  15.871   4.285   8.719
 1341POPC   D2A21616  16.129   4.196   8.336
 1341POPC   C3A21617  15.847   4.088   8.019
 1341POPC   C4A21618  15.736   4.361   7.671
 1341POPC   C1B21619  16.339   4.486   8.736
 1341POPC   C2B21620  16.155   4.699   8.372
 1341POPC   C3B21621  16.162   4.617   7.917
 1341POPC   C4B21622  16.251   4.221   7.742
 1342POPC   NC321623  20.073   5.682   9.199
 1342POPC   PO421624  19.976   6.282   9.556
 1342POPC   GL121625  20.469   6.028   9.309
 1342POPC   GL221626  20.696   5.735   9.224
 1342POPC   C1A21627  20.666   6.125   8.805
 1342POPC   D2A21628  20.545   6.315   8.361
 1342POPC   C3A21629  20.433   5.983   8.024
 1342POPC   C4A21630  20.535   5.535   7.896
 1342POPC   C1B21631  20.965   5.691   8.830
 1342POPC   C2B21632  20.846   5.587   8.399
 1342POPC   C3B21633  20.929   5.820   8.048
 1342POPC   C4B21634  21.175   5.944   7.740
 1343POPC   NC321635   4.645  17.664   9.664
 1343POPC   PO421636   4.216  17.192   9.533
 1343POPC   GL121637   4.215  17.618   9.261
 1343POPC   GL221638   4.535  17.861   9.201
 1343POPC   C1A21639   4.181  17.740   8.804
 1343POPC   D2A21640   4.410  17.535   8.416
 1343POPC   C3A21641   4.226  17.367   8.015
 1343POPC   C4A21642   4.047  17.598   7.683
 1343POPC   C1B21643   4.551  18.073   8.767
 1343POPC   C2B21644   4.310  18.031   8.362
 1343POPC   C3B21645   4.455  17.824   7.957
 1343POPC   C4B21646   4.736  17.451   7.864
 1344POPC   NC321647   4.201  31.750   9.975
 1344POPC   PO421648   4.633  31.423   9.603
 1344POPC   GL121649   4.391  31.364   9.204
 1344POPC   GL221650   4.303  31.703   9.155
 1344POPC   C1A21651   4.181  31.119   8.848
 1344POPC   D2A21652   4.391  31.324   8.491
 1344POPC   C3A21653   4.358  31.257   8.076
 1344POPC   C4A21654   4.617  31.261   7.739
 1344POPC   C1B21655   4.087  31.601   8.808
 1344POPC   C2B21656   3.989  31.698   8.412
 1344POPC   C3B21657   4.093  31.825   8.031
 1344POPC   C4B21658   4.213  31.614   7.691
 1345POPC   NC321659  11.075  39.812   9.471
 1345POPC   PO421660  11.585  40.262   9.526
 1345POPC   GL121661  11.353  40.165   9.151
 1345POPC   GL221662  11.452  39.826   9.136
 1345POPC   C1A21663  11.166  40.261   8.736
 1345POPC   D2A21664  10.986  39.979   8.406
 1345POPC   C3A21665  11.120  40.117   8.017
 1345POPC   C4A21666  11.044  39.875   7.674
 1345POPC   C1B21667  11.325  39.785   8.741
 1345POPC   C2B21668  11.493  39.866   8.341
 1345POPC   C3B21669  11.546  39.813   7.892
 1345POPC   C4B21670  11.481  40.122   7.579
 1346POPC   NC321671  42.412  10.189   9.318
 1346POPC   PO421672  42.167   9.533   9.460
 1346POPC   GL121673  42.128   9.717   9.098
 1346POPC   GL221674  42.376   9.879   8.936
 1346POPC   C1A21675  42.177   9.495   8.699
 1346POPC   D2A21676  42.415   9.465   8.348
 1346POPC   C3A21677  42.132   9.481   8.028
 1346POPC   C4A21678  41.946   9.528   7.646
 1346POPC   C1B21679  42.639  10.121   8.689
 1346POPC   C2B21680  42.482  10.190   8.290
 1346POPC   C3B21681  42.511   9.943   7.889
 1346POPC   C4B21682  42.765   9.945   7.504
 1347POPC   NC321683   6.677  21.892   9.585
 1347POPC   PO421684   6.471  22.545   9.621
 1347POPC   GL121685   6.600  22.370   9.163
 1347POPC   GL221686   6.594  21.992   9.103
 1347POPC   C1A21687   6.532  22.284   8.691
 1347POPC   D2A21688   6.467  22.054   8.295
 1347POPC   C3A21689   6.628  22.288   7.949
 1347POPC   C4A21690   6.777  22.398   7.574
 1347POPC   C1B21691   6.688  21.778   8.710
 1347POPC   C2B21692   6.798  21.625   8.321
 1347POPC   C3B21693   6.719  21.777   7.917
 1347POPC   C4B21694   6.685  21.873   7.489
 1348POPC   NC321695  11.522  22.026   9.458
 1348POPC   PO421696  11.295  21.398   9.564
 1348POPC   GL121697  11.202  21.549   9.203
 1348POPC   GL221698  11.515  21.645   9.111
 1348POPC   C1A21699  11.135  21.605   8.778
 1348POPC   D2A21700  10.879  21.504   8.466
 1348POPC   C3A21701  11.129  21.466   8.131
 1348POPC   C4A21702  11.117  21.437   7.721
 1348POPC   C1B21703  11.648  21.385   8.787
 1348POPC   C2B21704  11.735  21.201   8.411
 1348POPC   C3B21705  11.520  21.136   8.043
 1348POPC   C4B21706  11.637  21.402   7.733
 1349POPC   NC321707  22.330  34.337   9.417
 1349POPC   PO421708  21.964  34.882   9.544
 1349POPC   GL121709  22.155  34.749   9.168
 1349POPC   GL221710  21.962  34.445   9.076
 1349POPC   C1A21711  22.345  34.751   8.753
 1349POPC   D2A21712  22.438  34.947   8.339
 1349POPC   C3A21713  22.200  34.723   8.020
 1349POPC   C4A21714  22.314  34.523   7.618
 1349POPC   C1B21715  21.854  34.597   8.676
 1349POPC   C2B21716  21.810  34.443   8.260
 1349POPC   C3B21717  21.821  34.440   7.810
 1349POPC   C4B21718  21.850  34.607   7.419
 1350POPC   NC321719  18.582  44.342   9.719
 1350POPC   PO421720  17.984  44.630   9.517
 1350POPC   GL121721  18.123  44.467   9.155
 1350POPC   GL221722  17.865  44.252   9.161
 1350POPC   C1A21723  18.251  44.630   8.733
 1350POPC   D2A21724  18.175  44.763   8.311
 1350POPC   C3A21725  18.517  44.664   8.061
 1350POPC   C4A21726  18.712  44.685   7.659
 1350POPC   C1B21727  18.009  44.192   8.742
 1350POPC   C2B21728  18.212  44.237   8.344
 1350POPC   C3B21729  18.072  44.357   7.955
 1350POPC   C4B21730  18.213  44.662   7.639
 1351POPC   NC321731  21.192  37.966   9.371
 1351POPC   PO421732  21.784  37.698   9.600
 1351POPC   GL121733  21.606  37.692   9.173
 1351POPC   GL221734  21.275  37.597   9.050
 1351POPC   C1A21735  21.592  37.851   8.745
 1351POPC   D2A21736  21.786  38.163   8.497
 1351POPC   C3A21737  21.631  38.019   8.077
 1351POPC   C4A21738  21.745  37.624   7.862
 1351POPC   C1B21739  21.372  37.395   8.663
 1351POPC   C2B21740  21.448  37.576   8.290
 1351POPC   C3B21741  21.180  37.786   7.993
 1351POPC   C4B21742  21.303  37.783   7.572
 1352POPC   NC321743  41.216  41.391   9.187
 1352POPC   PO421744  41.542  41.909   9.480
 1352POPC   GL121745  41.682  41.655   9.150
 1352POPC   GL221746  41.752  41.284   9.217
 1352POPC   C1A21747  41.726  41.655   8.717
 1352POPC   D2A21748  41.558  41.873   8.335
 1352POPC   C3A21749  41.431  41.607   7.968
 1352POPC   C4A21750  41.526  41.703   7.520
 1352POPC   C1B21751  41.789  41.148   8.758
 1352POPC   C2B21752  41.742  41.349   8.316
 1352POPC   C3B21753  41.769  41.187   7.916
 1352POPC   C4B21754  41.492  41.199   7.577
 1353POPC   NC321755  24.680  31.052   9.321
 1353POPC   PO421756  24.255  30.575   9.463
 1353POPC   GL121757  24.391  30.654   9.108
 1353POPC   GL221758  24.710  30.559   9.144
 1353POPC   C1A21759  24.349  30.668   8.710
 1353POPC   D2A21760  24.542  30.838   8.365
 1353POPC   C3A21761  24.316  30.685   8.032
 1353POPC   C4A21762  24.432  30.652   7.633
 1353POPC   C1B21763  24.861  30.672   8.753
 1353POPC   C2B21764  24.967  30.536   8.350
 1353POPC   C3B21765  24.871  30.732   7.938
 1353POPC   C4B21766  24.908  30.511   7.526
 1354POPC   NC321767  16.648  21.628   9.457
 1354POPC   PO421768  16.445  21.009   9.571
 1354POPC   GL121769  16.616  21.137   9.199
 1354POPC   GL221770  16.973  21.229   9.287
 1354POPC   C1A21771  16.457  21.275   8.812
 1354POPC   D2A21772  16.332  21.166   8.401
 1354POPC   C3A21773  16.599  21.133   8.063
 1354POPC   C4A21774  16.360  21.338   7.773
 1354POPC   C1B21775  16.919  21.469   8.900
 1354POPC   C2B21776  16.777  21.463   8.468
 1354POPC   C3B21777  17.012  21.420   8.115
 1354POPC   C4B21778  16.784  21.594   7.816
 1355POPC   NC321779   9.760  43.504   9.497
 1355POPC   PO421780   9.490  42.911   9.528
 1355POPC   GL121781   9.658  43.025   9.154
 1355POPC   GL221782   9.568  43.369   9.056
 1355POPC   C1A21783   9.757  42.869   8.763
 1355POPC   D2A21784   9.917  42.931   8.347
 1355POPC   C3A21785   9.662  43.064   8.040
 1355POPC   C4A21786   9.490  42.921   7.676
 1355POPC   C1B21787   9.745  43.375   8.663
 1355POPC   C2B21788  10.048  43.571   8.403
 1355POPC   C3B21789  10.075  43.403   7.994
 1355POPC   C4B21790   9.773  43.442   7.646
 1356POPC   NC321791  36.572   0.039   9.485
 1356POPC   PO421792  35.917   0.311   9.470
 1356POPC   GL121793  36.141   0.487   9.109
 1356POPC   GL221794  36.450   0.282   9.053
 1356POPC   C1A21795  36.202   0.460   8.648
 1356POPC   D2A21796  36.206   0.175   8.307
 1356POPC   C3A21797  35.975   0.346   7.992
 1356POPC   C4A21798  36.119   0.729   7.908
 1356POPC   C1B21799  36.593  44.975   8.717
 1356POPC   C2B21800  36.705   0.005   8.253
 1356POPC   C3B21801  36.505   0.280   7.881
 1356POPC   C4B21802  36.380   0.555   7.510
 1357POPC   NC321803   7.755   6.451   9.827
 1357POPC   PO421804   7.370   6.901   9.548
 1357POPC   GL121805   7.399   6.789   9.118
 1357POPC   GL221806   7.349   6.427   9.038
 1357POPC   C1A21807   7.448   6.758   8.677
 1357POPC   D2A21808   7.296   6.543   8.347
 1357POPC   C3A21809   7.484   6.710   7.993
 1357POPC   C4A21810   7.318   6.640   7.616
 1357POPC   C1B21811   7.584   6.255   8.662
 1357POPC   C2B21812   7.771   6.354   8.247
 1357POPC   C3B21813   7.630   6.254   7.789
 1357POPC   C4B21814   7.571   6.302   7.280
 1358POPC   NC321815  31.933  19.112   9.565
 1358POPC   PO421816  32.549  19.291   9.389
 1358POPC   GL121817  32.189  19.210   9.102
 1358POPC   GL221818  31.879  19.359   9.127
 1358POPC   C1A21819  32.239  19.165   8.654
 1358POPC   D2A21820  32.588  19.284   8.406
 1358POPC   C3A21821  32.543  19.069   8.033
 1358POPC   C4A21822  32.293  19.061   7.660
 1358POPC   C1B21823  31.899  19.521   8.778
 1358POPC   C2B21824  31.798  19.415   8.400
 1358POPC   C3B21825  32.065  19.259   8.134
 1358POPC   C4B21826  32.024  19.464   7.769
 1359POPC   NC321827   5.463  39.912   9.715
 1359POPC   PO421828   5.959  40.217   9.410
 1359POPC   GL121829   5.953  40.076   8.995
 1359POPC   GL221830   5.773  39.771   9.125
 1359POPC   C1A21831   6.050  40.103   8.548
 1359POPC   D2A21832   5.748  39.949   8.244
 1359POPC   C3A21833   5.715  40.129   7.875
 1359POPC   C4A21834   6.110  40.015   7.697
 1359POPC   C1B21835   5.801  39.665   8.690
 1359POPC   C2B21836   5.699  39.444   8.313
 1359POPC   C3B21837   5.767  39.551   7.848
 1359POPC   C4B21838   5.602  39.799   7.493
 1360POPC   NC321839  41.503  37.651   9.473
 1360POPC   PO421840  41.249  38.029   9.006
 1360POPC   GL121841  41.493  37.747   8.930
 1360POPC   GL221842  41.784  37.764   9.068
 1360POPC   C1A21843  41.748  37.899   8.582
 1360POPC   D2A21844  41.451  38.035   8.317
 1360POPC   C3A21845  41.607  37.878   7.987
 1360POPC   C4A21846  41.296  37.672   7.774
 1360POPC   C1B21847  41.796  37.422   8.735
 1360POPC   C2B21848  41.542  37.473   8.355
 1360POPC   C3B21849  41.660  37.359   7.950
 1360POPC   C4B21850  42.026  37.360   7.702
 1361POPC   NC321851   8.552  23.371   9.357
 1361POPC   PO421852   8.952  23.927   9.580
 1361POPC   GL121853   9.002  24.053   9.149
 1361POPC   GL221854   8.649  23.918   9.153
 1361POPC   C1A21855   9.216  23.978   8.735
 1361POPC   D2A21856   9.159  23.724   8.354
 1361POPC   C3A21857   9.178  23.995   7.988
 1361POPC   C4A21858   9.110  24.014   7.538
 1361POPC   C1B21859   8.770  23.703   8.782
 1361POPC   C2B21860   8.521  23.566   8.451
 1361POPC   C3B21861   8.496  23.581   8.059
 1361POPC   C4B21862   8.790  23.722   7.788
 1362POPC   NC321863  21.913  36.645   9.360
 1362POPC   PO421864  22.435  37.055   9.414
 1362POPC   GL121865  22.114  37.064   9.134
 1362POPC   GL221866  21.806  37.204   9.290
 1362POPC   C1A21867  22.165  36.896   8.730
 1362POPC   D2A21868  22.407  36.738   8.385
 1362POPC   C3A21869  22.243  36.916   8.045
 1362POPC   C4A21870  21.980  36.797   7.693
 1362POPC   C1B21871  21.854  37.377   8.839
 1362POPC   C2B21872  21.822  37.235   8.408
 1362POPC   C3B21873  21.766  37.128   8.003
 1362POPC   C4B21874  21.711  37.206   7.565
 1363POPC   NC321875  30.689   0.970   9.691
 1363POPC   PO421876  30.390   0.371   9.515
 1363POPC   GL121877  30.453   0.656   9.184
 1363POPC   GL221878  30.777   0.592   9.228
 1363POPC   C1A21879  30.506   0.644   8.757
 1363POPC   D2A21880  30.639   0.354   8.463
 1363POPC   C3A21881  30.609   0.582   8.117
 1363POPC   C4A21882  30.508   0.442   7.737
 1363POPC   C1B21883  30.948   0.423   8.855
 1363POPC   C2B21884  31.083   0.581   8.460
 1363POPC   C3B21885  31.096   0.762   8.079
 1363POPC   C4B21886  31.023   0.476   7.732
 1364POPC   NC321887  28.634   4.193   9.226
 1364POPC   PO421888  28.429   4.791   9.496
 1364POPC   GL121889  28.293   4.646   9.114
 1364POPC   GL221890  28.061   4.438   9.271
 1364POPC   C1A21891  28.282   4.494   8.695
 1364POPC   D2A21892  28.465   4.352   8.332
 1364POPC   C3A21893  28.348   4.540   7.945
 1364POPC   C4A21894  28.570   4.388   7.540
 1364POPC   C1B21895  27.971   4.174   8.933
 1364POPC   C2B21896  27.809   4.247   8.516
 1364POPC   C3B21897  27.919   4.278   8.081
 1364POPC   C4B21898  28.137   4.134   7.718
 1365POPC   NC321899   6.101  34.427   9.231
 1365POPC   PO421900   5.471  34.743   9.402
 1365POPC   GL121901   5.604  34.423   9.151
 1365POPC   GL221902   5.764  34.670   8.943
 1365POPC   C1A21903   5.519  34.252   8.753
 1365POPC   D2A21904   5.391  34.380   8.314
 1365POPC   C3A21905   5.696  34.268   7.956
 1365POPC   C4A21906   5.718  34.364   7.471
 1365POPC   C1B21907   5.850  34.556   8.518
 1365POPC   C2B21908   5.999  34.780   8.160
 1365POPC   C3B21909   6.000  34.666   7.748
 1365POPC   C4B21910   5.994  34.870   7.359
 1366POPC   NC321911  16.202  30.265   9.298
 1366POPC   PO421912  15.660  30.716   9.443
 1366POPC   GL121913  15.863  30.560   9.120
 1366POPC   GL221914  15.701  30.269   9.122
 1366POPC   C1A21915  15.995  30.430   8.690
 1366POPC   D2A21916  16.065  30.685   8.306
 1366POPC   C3A21917  16.245  30.558   7.916
 1366POPC   C4A21918  16.265  30.780   7.467
 1366POPC   C1B21919  15.502  30.520   8.784
 1366POPC   C2B21920  15.537  30.442   8.362
 1366POPC   C3B21921  15.500  30.661   7.995
 1366POPC   C4B21922  15.808  30.686   7.698
 1367POPC   NC321923  18.715  21.435   9.711
 1367POPC   PO421924  19.324  21.438   9.619
 1367POPC   GL121925  19.077  21.488   9.238
 1367POPC   GL221926  18.748  21.267   9.197
 1367POPC   C1A21927  19.247  21.499   8.832
 1367POPC   D2A21928  19.290  21.242   8.496
 1367POPC   C3A21929  19.254  21.349   8.093
 1367POPC   C4A21930  19.312  21.303   7.691
 1367POPC   C1B21931  18.740  21.463   8.765
 1367POPC   C2B21932  18.992  21.671   8.404
 1367POPC   C3B21933  18.863  21.653   7.946
 1367POPC   C4B21934  18.780  21.893   7.572
 1368POPC   NC321935  20.092  26.542   9.515
 1368POPC   PO421936  19.654  27.012   9.528
 1368POPC   GL121937  19.797  26.893   9.129
 1368POPC   GL221938  20.158  26.872   9.125
 1368POPC   C1A21939  19.570  26.651   8.760
 1368POPC   D2A21940  19.462  26.351   8.401
 1368POPC   C3A21941  19.640  26.408   7.996
 1368POPC   C4A21942  19.736  26.796   7.768
 1368POPC   C1B21943  20.040  26.844   8.695
 1368POPC   C2B21944  19.803  26.841   8.300
 1368POPC   C3B21945  20.141  26.959   8.014
 1368POPC   C4B21946  20.277  26.824   7.612
 1369POPC   NC321947   6.351  28.041   9.426
 1369POPC   PO421948   5.838  28.398   9.572
 1369POPC   GL121949   5.724  28.311   9.175
 1369POPC   GL221950   5.483  28.548   9.109
 1369POPC   C1A21951   5.954  28.237   8.791
 1369POPC   D2A21952   6.102  28.520   8.435
 1369POPC   C3A21953   6.024  28.524   7.974
 1369POPC   C4A21954   5.968  28.579   7.538
 1369POPC   C1B21955   5.580  28.536   8.632
 1369POPC   C2B21956   5.653  28.293   8.233
 1369POPC   C3B21957   5.584  28.315   7.764
 1369POPC   C4B21958   5.448  28.535   7.368
 1370POPC   NC321959  33.811  10.294   9.527
 1370POPC   PO421960  33.902   9.621   9.546
 1370POPC   GL121961  33.881   9.686   9.136
 1370POPC   GL221962  34.034  10.020   9.111
 1370POPC   C1A21963  33.780   9.480   8.735
 1370POPC   D2A21964  34.060   9.356   8.372
 1370POPC   C3A21965  33.933   9.590   7.989
 1370POPC   C4A21966  33.559   9.552   7.701
 1370POPC   C1B21967  33.727   9.989   8.754
 1370POPC   C2B21968  33.633   9.834   8.364
 1370POPC   C3B21969  33.637  10.012   7.953
 1370POPC   C4B21970  33.986  10.026   7.676
 1371POPC   NC321971  20.263  40.562   9.461
 1371POPC   PO421972  20.948  40.818   9.507
 1371POPC   GL121973  20.675  40.781   9.153
 1371POPC   GL221974  20.498  40.464   9.039
 1371POPC   C1A21975  20.558  40.913   8.751
 1371POPC   D2A21976  20.353  41.118   8.427
 1371POPC   C3A21977  20.541  41.025   8.029
 1371POPC   C4A21978  20.268  41.020   7.709
 1371POPC   C1B21979  20.823  40.470   8.750
 1371POPC   C2B21980  20.879  40.693   8.378
 1371POPC   C3B21981  20.867  40.617   7.975
 1371POPC   C4B21982  20.618  40.642   7.637
 1372POPC   NC321983  16.459  25.647   9.442
 1372POPC   PO421984  17.086  25.389   9.515
 1372POPC   GL121985  16.811  25.302   9.212
 1372POPC   GL221986  16.925  25.516   8.985
 1372POPC   C1A21987  16.733  25.053   8.854
 1372POPC   D2A21988  16.841  25.043   8.444
 1372POPC   C3A21989  16.561  24.852   8.219
 1372POPC   C4A21990  16.574  24.986   7.807
 1372POPC   C1B21991  16.643  25.552   8.631
 1372POPC   C2B21992  16.500  25.412   8.203
 1372POPC   C3B21993  16.782  25.453   7.853
 1372POPC   C4B21994  16.831  25.663   7.459
 1373POPC   NC321995  26.191  15.461   9.547
 1373POPC   PO421996  25.662  15.798   9.616
 1373POPC   GL121997  25.728  15.917   9.198
 1373POPC   GL221998  25.813  15.578   9.168
 1373POPC   C1A21999  25.746  16.071   8.754
 1373POPC   D2A22000  25.881  15.878   8.374
 1373POPC   C3A22001  25.881  16.112   7.980
 1373POPC   C4A22002  26.293  16.102   7.757
 1373POPC   C1B22003  26.068  15.569   8.795
 1373POPC   C2B22004  26.291  15.451   8.393
 1373POPC   C3B22005  26.358  15.600   7.974
 1373POPC   C4B22006  26.011  15.671   7.759
 1374POPC   NC322007  27.434  18.244   9.552
 1374POPC   PO422008  27.096  17.657   9.249
 1374POPC   GL122009  27.346  18.039   9.060
 1374POPC   GL222010  27.716  18.174   9.125
 1374POPC   C1A22011  27.510  18.174   8.638
 1374POPC   D2A22012  27.833  17.972   8.347
 1374POPC   C3A22013  27.590  18.085   7.987
 1374POPC   C4A22014  27.400  18.493   8.041
 1374POPC   C1B22015  27.967  18.359   8.769
 1374POPC   C2B22016  27.832  18.481   8.342
 1374POPC   C3B22017  27.893  18.468   7.869
 1374POPC   C4B22018  27.918  18.592   7.415
 1375POPC   NC322019  41.714  23.587   9.468
 1375POPC   PO422020  41.076  23.861   9.465
 1375POPC   GL122021  41.371  23.913   9.139
 1375POPC   GL222022  41.388  23.574   9.043
 1375POPC   C1A22023  41.522  24.043   8.706
 1375POPC   D2A22024  41.631  23.934   8.274
 1375POPC   C3A22025  41.282  23.695   8.102
 1375POPC   C4A22026  41.219  23.554   7.680
 1375POPC   C1B22027  41.694  23.562   8.683
 1375POPC   C2B22028  41.628  23.344   8.281
 1375POPC   C3B22029  41.685  23.432   7.881
 1375POPC   C4B22030  41.931  23.748   7.831
 1376POPC   NC322031  34.440  32.044   9.436
 1376POPC   PO422032  34.675  32.711   9.481
 1376POPC   GL122033  34.543  32.564   9.088
 1376POPC   GL222034  34.276  32.307   9.045
 1376POPC   C1A22035  34.724  32.396   8.703
 1376POPC   D2A22036  35.008  32.359   8.342
 1376POPC   C3A22037  34.825  32.455   7.972
 1376POPC   C4A22038  34.871  32.349   7.584
 1376POPC   C1B22039  34.382  32.023   8.696
 1376POPC   C2B22040  34.556  32.113   8.278
 1376POPC   C3B22041  34.418  32.185   7.845
 1376POPC   C4B22042  34.232  32.121   7.439
 1377POPC   NC322043  26.356  18.445   9.520
 1377POPC   PO422044  27.002  18.484   9.570
 1377POPC   GL122045  27.055  18.432   9.195
 1377POPC   GL222046  26.835  18.154   9.174
 1377POPC   C1A22047  27.117  18.480   8.782
 1377POPC   D2A22048  26.936  18.459   8.373
 1377POPC   C3A22049  27.033  18.136   8.063
 1377POPC   C4A22050  26.967  18.449   7.763
 1377POPC   C1B22051  26.870  18.025   8.746
 1377POPC   C2B22052  26.623  18.060   8.398
 1377POPC   C3B22053  26.524  18.179   7.988
 1377POPC   C4B22054  26.702  18.069   7.588
 1378POPC   NC322055  40.481  22.380   9.447
 1378POPC   PO422056  41.138  22.126   9.428
 1378POPC   GL122057  40.812  22.184   9.106
 1378POPC   GL222058  40.980  21.896   8.998
 1378POPC   C1A22059  40.420  22.219   8.807
 1378POPC   D2A22060  40.421  22.122   8.333
 1378POPC   C3A22061  40.717  22.252   7.958
 1378POPC   C4A22062  40.929  22.200   7.518
 1378POPC   C1B22063  41.154  22.136   8.694
 1378POPC   C2B22064  41.135  22.331   8.292
 1378POPC   C3B22065  41.230  22.116   7.915
 1378POPC   C4B22066  41.293  21.831   7.546
 1379POPC   NC322067   2.602  32.431   9.486
 1379POPC   PO422068   3.050  32.074   9.699
 1379POPC   GL122069   3.018  32.269   9.234
 1379POPC   GL222070   3.243  32.544   9.106
 1379POPC   C1A22071   2.736  32.301   8.824
 1379POPC   D2A22072   2.680  32.415   8.342
 1379POPC   C3A22073   2.542  32.127   7.971
 1379POPC   C4A22074   2.663  32.099   7.508
 1379POPC   C1B22075   3.125  32.559   8.642
 1379POPC   C2B22076   3.166  32.554   8.214
 1379POPC   C3B22077   2.998  32.340   7.843
 1379POPC   C4B22078   2.991  32.442   7.371
 1380POPC   NC322079  38.056  22.225   9.524
 1380POPC   PO422080  37.419  22.062   9.465
 1380POPC   GL122081  37.644  22.098   9.097
 1380POPC   GL222082  37.985  21.996   9.097
 1380POPC   C1A22083  37.787  22.309   8.721
 1380POPC   D2A22084  37.546  22.490   8.392
 1380POPC   C3A22085  37.568  22.279   8.011
 1380POPC   C4A22086  37.826  22.329   7.655
 1380POPC   C1B22087  37.887  21.800   8.745
 1380POPC   C2B22088  38.006  21.894   8.335
 1380POPC   C3B22089  37.758  21.789   8.008
 1380POPC   C4B22090  37.622  21.879   7.611
 1381POPC   NC322091  13.070   8.397   9.566
 1381POPC   PO422092  12.674   7.906   9.696
 1381POPC   GL122093  12.945   8.047   9.238
 1381POPC   GL222094  12.948   8.393   9.096
 1381POPC   C1A22095  12.915   8.054   8.751
 1381POPC   D2A22096  13.171   8.045   8.419
 1381POPC   C3A22097  13.105   8.059   8.028
 1381POPC   C4A22098  12.696   8.113   7.913
 1381POPC   C1B22099  12.875   8.579   8.700
 1381POPC   C2B22100  13.119   8.542   8.322
 1381POPC   C3B22101  12.987   8.544   7.904
 1381POPC   C4B22102  12.541   8.626   7.819
 1382POPC   NC322103  26.956  31.582   9.380
 1382POPC   PO422104  26.617  31.117   9.667
 1382POPC   GL122105  26.649  31.172   9.238
 1382POPC   GL222106  26.972  31.156   9.068
 1382POPC   C1A22107  26.552  31.429   8.886
 1382POPC   D2A22108  26.505  31.469   8.455
 1382POPC   C3A22109  26.741  31.178   8.221
 1382POPC   C4A22110  26.831  31.307   7.814
 1382POPC   C1B22111  26.999  31.420   8.649
 1382POPC   C2B22112  27.138  31.515   8.203
 1382POPC   C3B22113  27.299  31.475   7.768
 1382POPC   C4B22114  27.210  31.605   7.329
 1383POPC   NC322115  33.604  10.855   9.277
 1383POPC   PO422116  34.155  10.568   9.390
 1383POPC   GL122117  33.943  10.530   9.036
 1383POPC   GL222118  33.640  10.382   9.033
 1383POPC   C1A22119  33.930  10.596   8.622
 1383POPC   D2A22120  33.766  10.346   8.334
 1383POPC   C3A22121  33.787  10.521   7.933
 1383POPC   C4A22122  34.082  10.865   7.792
 1383POPC   C1B22123  33.422  10.578   8.699
 1383POPC   C2B22124  33.456  10.757   8.304
 1383POPC   C3B22125  33.278  10.632   7.934
 1383POPC   C4B22126  33.389  10.340   7.658
 1384POPC   NC322127  13.115   0.534   9.803
 1384POPC   PO422128  13.615   0.181   9.455
 1384POPC   GL122129  13.632   0.298   9.051
 1384POPC   GL222130  13.695   0.659   9.093
 1384POPC   C1A22131  13.768   0.369   8.669
 1384POPC   D2A22132  14.072   0.382   8.374
 1384POPC   C3A22133  13.797   0.297   8.076
 1384POPC   C4A22134  13.555   0.414   7.728
 1384POPC   C1B22135  13.337   0.646   8.764
 1384POPC   C2B22136  13.285   0.342   8.456
 1384POPC   C3B22137  13.208   0.462   8.085
 1384POPC   C4B22138  13.026   0.426   7.698
 1385POPC   NC322139  40.660  32.707   9.490
 1385POPC   PO422140  40.621  33.331   9.616
 1385POPC   GL122141  40.688  33.353   9.199
 1385POPC   GL222142  40.436  33.110   9.150
 1385POPC   C1A22143  40.761  33.169   8.769
 1385POPC   D2A22144  40.858  32.855   8.460
 1385POPC   C3A22145  40.768  33.089   8.084
 1385POPC   C4A22146  40.959  33.060   7.722
 1385POPC   C1B22147  40.462  32.762   8.825
 1385POPC   C2B22148  40.440  32.570   8.382
 1385POPC   C3B22149  40.455  32.682   7.939
 1385POPC   C4B22150  40.608  32.770   7.509
 1386POPC   NC322151  27.310  27.448   9.782
 1386POPC   PO422152  27.856  27.378   9.681
 1386POPC   GL122153  27.754  27.456   9.244
 1386POPC   GL222154  27.383  27.437   9.143
 1386POPC   C1A22155  27.906  27.552   8.812
 1386POPC   D2A22156  28.002  27.489   8.370
 1386POPC   C3A22157  27.829  27.734   8.023
 1386POPC   C4A22158  27.457  27.727   7.751
 1386POPC   C1B22159  27.361  27.374   8.659
 1386POPC   C2B22160  27.283  27.213   8.206
 1386POPC   C3B22161  27.168  27.297   7.762
 1386POPC   C4B22162  27.433  27.315   7.413
 1387POPC   NC322163  15.729  27.537   9.708
 1387POPC   PO422164  16.037  27.874   9.196
 1387POPC   GL122165  15.868  27.461   9.196
 1387POPC   GL222166  15.521  27.367   9.164
 1387POPC   C1A22167  15.957  27.237   8.817
 1387POPC   D2A22168  16.085  27.346   8.378
 1387POPC   C3A22169  16.265  27.704   8.129
 1387POPC   C4A22170  16.150  27.742   7.695
 1387POPC   C1B22171  15.610  27.626   8.754
 1387POPC   C2B22172  15.769  27.806   8.340
 1387POPC   C3B22173  15.651  27.702   7.905
 1387POPC   C4B22174  15.673  27.798   7.455
 1388POPC   NC322175  32.834   4.098   9.297
 1388POPC   PO422176  33.050   4.719   9.406
 1388POPC   GL122177  32.991   4.507   9.020
 1388POPC   GL222178  32.679   4.355   8.889
 1388POPC   C1A22179  33.129   4.221   8.674
 1388POPC   D2A22180  33.303   4.374   8.284
 1388POPC   C3A22181  33.209   4.186   7.892
 1388POPC   C4A22182  33.275   4.295   7.462
 1388POPC   C1B22183  32.819   4.639   8.562
 1388POPC   C2B22184  32.876   4.629   8.107
 1388POPC   C3B22185  32.824   4.473   7.685
 1388POPC   C4B22186  32.774   4.611   7.262
 1389POPC   NC322187  22.476  35.840   9.177
 1389POPC   PO422188  22.060  36.263   9.577
 1389POPC   GL122189  22.132  36.229   9.134
 1389POPC   GL222190  22.330  36.566   9.095
 1389POPC   C1A22191  22.023  35.948   8.733
 1389POPC   D2A22192  21.998  35.712   8.329
 1389POPC   C3A22193  22.194  35.869   7.946
 1389POPC   C4A22194  22.008  35.909   7.551
 1389POPC   C1B22195  22.370  36.353   8.710
 1389POPC   C2B22196  22.274  36.198   8.342
 1389POPC   C3B22197  22.097  36.399   8.021
 1389POPC   C4B22198  22.231  36.345   7.657
 1390POPC   NC322199  25.936  28.558   9.583
 1390POPC   PO422200  26.215  28.015   9.278
 1390POPC   GL122201  26.001  28.371   8.976
 1390POPC   GL222202  25.887  28.726   9.101
 1390POPC   C1A22203  25.747  28.309   8.568
 1390POPC   D2A22204  25.592  28.591   8.200
 1390POPC   C3A22205  25.862  28.494   7.831
 1390POPC   C4A22206  26.215  28.223   7.864
 1390POPC   C1B22207  25.929  28.786   8.640
 1390POPC   C2B22208  26.123  28.549   8.290
 1390POPC   C3B22209  26.388  28.695   7.956
 1390POPC   C4B22210  26.196  28.848   7.625
 1391POPC   NC322211  21.812  11.652   9.436
 1391POPC   PO422212  22.517  11.396   9.441
 1391POPC   GL122213  22.209  11.299   9.084
 1391POPC   GL222214  22.029  11.001   9.056
 1391POPC   C1A22215  22.301  11.138   8.646
 1391POPC   D2A22216  22.505  11.270   8.294
 1391POPC   C3A22217  22.315  11.194   7.887
 1391POPC   C4A22218  22.033  11.407   7.607
 1391POPC   C1B22219  21.813  11.064   8.703
 1391POPC   C2B22220  21.920  10.958   8.310
 1391POPC   C3B22221  21.813  11.076   7.928
 1391POPC   C4B22222  21.851  10.944   7.515
 1392POPC   NC322223  17.988  29.901   9.692
 1392POPC   PO422224  18.527  30.071   9.412
 1392POPC   GL122225  18.196  29.938   9.164
 1392POPC   GL222226  18.034  30.227   9.279
 1392POPC   C1A22227  18.244  29.933   8.720
 1392POPC   D2A22228  18.198  29.812   8.293
 1392POPC   C3A22229  18.531  29.885   8.010
 1392POPC   C4A22230  18.398  29.922   7.605
 1392POPC   C1B22231  17.960  30.360   8.847
 1392POPC   C2B22232  17.987  30.300   8.395
 1392POPC   C3B22233  18.142  30.229   7.957
 1392POPC   C4B22234  18.125  30.402   7.525
 1393POPC   NC322235  27.665  37.032   9.571
 1393POPC   PO422236  27.942  36.645   9.240
 1393POPC   GL122237  27.510  36.875   9.088
 1393POPC   GL222238  27.284  37.168   9.237
 1393POPC   C1A22239  27.360  36.833   8.648
 1393POPC   D2A22240  27.176  36.707   8.213
 1393POPC   C3A22241  27.414  36.699   7.777
 1393POPC   C4A22242  27.445  36.519   7.321
 1393POPC   C1B22243  27.055  37.212   8.865
 1393POPC   C2B22244  27.185  37.266   8.450
 1393POPC   C3B22245  27.422  37.139   8.119
 1393POPC   C4B22246  27.395  37.228   7.708
 1394POPC   NC322247  31.978  10.224   9.597
 1394POPC   PO422248  32.427  10.608   9.599
 1394POPC   GL122249  32.371  10.349   9.224
 1394POPC   GL222250  32.618  10.117   9.145
 1394POPC   C1A22251  32.388  10.419   8.759
 1394POPC   D2A22252  32.438  10.555   8.304
 1394POPC   C3A22253  32.060  10.518   8.029
 1394POPC   C4A22254  31.807  10.541   7.643
 1394POPC   C1B22255  32.748   9.949   8.795
 1394POPC   C2B22256  32.645  10.077   8.385
 1394POPC   C3B22257  32.466  10.173   7.957
 1394POPC   C4B22258  32.237  10.250   7.555
 1395POPC   NC322259  23.888  10.114   9.359
 1395POPC   PO422260  23.570  10.700   9.419
 1395POPC   GL122261  23.372  10.547   9.068
 1395POPC   GL222262  23.418  10.234   9.081
 1395POPC   C1A22263  23.320  10.511   8.642
 1395POPC   D2A22264  23.670  10.594   8.431
 1395POPC   C3A22265  23.660  10.534   8.034
 1395POPC   C4A22266  23.578  10.811   7.720
 1395POPC   C1B22267  23.691  10.179   8.751
 1395POPC   C2B22268  23.763  10.061   8.355
 1395POPC   C3B22269  24.016  10.118   8.047
 1395POPC   C4B22270  23.880  10.217   7.711
 1396POPC   NC322271  15.815  22.149   9.641
 1396POPC   PO422272  15.704  22.821   9.387
 1396POPC   GL122273  15.710  22.380   9.188
 1396POPC   GL222274  15.996  22.174   9.162
 1396POPC   C1A22275  15.678  22.073   8.811
 1396POPC   D2A22276  15.989  22.010   8.471
 1396POPC   C3A22277  15.899  22.156   8.061
 1396POPC   C4A22278  15.812  22.129   7.646
 1396POPC   C1B22279  16.025  22.452   8.763
 1396POPC   C2B22280  16.225  22.459   8.328
 1396POPC   C3B22281  16.113  22.673   7.963
 1396POPC   C4B22282  15.964  22.601   7.554
 1397POPC   NC322283  26.567  36.510   9.286
 1397POPC   PO422284  27.032  36.884   9.579
 1397POPC   GL122285  26.979  36.765   9.121
 1397POPC   GL222286  26.693  36.983   9.117
 1397POPC   C1A22287  26.858  36.803   8.644
 1397POPC   D2A22288  26.779  37.036   8.238
 1397POPC   C3A22289  26.958  36.936   7.808
 1397POPC   C4A22290  26.975  36.538   7.550
 1397POPC   C1B22291  26.511  37.162   8.744
 1397POPC   C2B22292  26.279  37.182   8.356
 1397POPC   C3B22293  26.350  37.015   7.960
 1397POPC   C4B22294  26.601  37.282   7.717
 1398POPC   NC322295   7.058  32.875   9.479
 1398POPC   PO422296   7.609  32.363   9.570
 1398POPC   GL122297   7.245  32.391   9.261
 1398POPC   GL222298   7.053  32.069   9.228
 1398POPC   C1A22299   7.293  32.339   8.808
 1398POPC   D2A22300   7.149  32.175   8.405
 1398POPC   C3A22301   7.405  32.262   8.034
 1398POPC   C4A22302   7.670  32.451   7.678
 1398POPC   C1B22303   7.098  31.869   8.829
 1398POPC   C2B22304   7.050  31.669   8.437
 1398POPC   C3B22305   7.223  31.740   8.024
 1398POPC   C4B22306   7.496  31.920   7.671
 1399POPC   NC322307  21.449  14.855   9.514
 1399POPC   PO422308  21.567  15.476   9.720
 1399POPC   GL122309  21.558  15.301   9.266
 1399POPC   GL222310  21.845  15.329   9.082
 1399POPC   C1A22311  21.465  15.087   8.840
 1399POPC   D2A22312  21.223  15.030   8.455
 1399POPC   C3A22313  21.408  14.980   8.054
 1399POPC   C4A22314  21.522  15.203   7.700
 1399POPC   C1B22315  21.978  15.501   8.715
 1399POPC   C2B22316  21.715  15.354   8.412
 1399POPC   C3B22317  21.882  15.307   8.044
 1399POPC   C4B22318  22.002  15.376   7.633
 1400POPC   NC322319  39.195  40.568   9.705
 1400POPC   PO422320  38.456  40.752   9.663
 1400POPC   GL122321  38.330  40.660   9.243
 1400POPC   GL222322  38.596  40.755   9.053
 1400POPC   C1A22323  38.236  40.536   8.794
 1400POPC   D2A22324  38.528  40.662   8.479
 1400POPC   C3A22325  38.270  40.708   8.144
 1400POPC   C4A22326  38.297  40.704   7.719
 1400POPC   C1B22327  38.649  41.153   8.853
 1400POPC   C2B22328  38.757  41.188   8.426
 1400POPC   C3B22329  38.715  40.936   8.051
 1400POPC   C4B22330  38.637  41.121   7.679
 1401POPC   NC322331  37.213   1.859   9.667
 1401POPC   PO422332  36.647   2.105   9.620
 1401POPC   GL122333  36.798   1.895   9.234
 1401POPC   GL222334  37.154   1.812   9.173
 1401POPC   C1A22335  36.626   1.716   8.847
 1401POPC   D2A22336  36.643   1.936   8.451
 1401POPC   C3A22337  36.815   1.863   8.017
 1401POPC   C4A22338  36.708   2.192   7.731
 1401POPC   C1B22339  37.051   1.995   8.776
 1401POPC   C2B22340  37.173   2.043   8.343
 1401POPC   C3B22341  37.176   2.241   7.908
 1401POPC   C4B22342  37.320   2.068   7.513
 1402POPC   NC322343  42.117  25.734   9.535
 1402POPC   PO422344  42.637  26.135   9.727
 1402POPC   GL122345  42.500  26.161   9.260
 1402POPC   GL222346  42.161  26.133   9.208
 1402POPC   C1A22347  42.436  26.025   8.796
 1402POPC   D2A22348  42.506  25.841   8.384
 1402POPC   C3A22349  42.605  25.988   7.955
 1402POPC   C4A22350  42.681  25.762   7.576
 1402POPC   C1B22351  41.986  25.826   8.924
 1402POPC   C2B22352  41.981  25.830   8.486
 1402POPC   C3B22353  42.082  25.893   8.052
 1402POPC   C4B22354  41.973  25.639   7.698
 1403POPC   NC322355  42.619  40.197   9.420
 1403POPC   PO422356  42.226  39.606   9.462
 1403POPC   GL122357  42.408  39.856   9.101
 1403POPC   GL222358  42.263  40.201   9.037
 1403POPC   C1A22359  42.411  39.926   8.643
 1403POPC   D2A22360  42.593  40.089   8.304
 1403POPC   C3A22361  42.463  39.903   7.929
 1403POPC   C4A22362  42.379  39.891   7.464
 1403POPC   C1B22363  42.490  40.430   8.711
 1403POPC   C2B22364  42.346  40.524   8.290
 1403POPC   C3B22365  42.372  40.401   7.845
 1403POPC   C4B22366  42.081  40.358   7.517
 1404POPC   NC322367  21.402  37.458   9.633
 1404POPC   PO422368  21.496  36.733   9.536
 1404POPC   GL122369  21.479  36.802   9.118
 1404POPC   GL222370  21.347  37.111   9.091
 1404POPC   C1A22371  21.657  36.892   8.729
 1404POPC   D2A22372  21.864  36.718   8.350
 1404POPC   C3A22373  21.598  36.616   8.001
 1404POPC   C4A22374  21.399  36.812   7.643
 1404POPC   C1B22375  21.155  36.943   8.701
 1404POPC   C2B22376  21.340  37.018   8.271
 1404POPC   C3B22377  21.290  37.281   7.877
 1404POPC   C4B22378  21.227  37.288   7.427
 1405POPC   NC322379  28.846   2.107   9.448
 1405POPC   PO422380  29.454   1.749   9.536
 1405POPC   GL122381  29.327   2.073   9.247
 1405POPC   GL222382  29.101   1.925   9.017
 1405POPC   C1A22383  29.541   2.221   8.882
 1405POPC   D2A22384  29.692   2.250   8.457
 1405POPC   C3A22385  29.370   2.294   8.130
 1405POPC   C4A22386  29.329   2.218   7.658
 1405POPC   C1B22387  29.190   2.013   8.550
 1405POPC   C2B22388  29.013   1.921   8.131
 1405POPC   C3B22389  28.945   1.889   7.682
 1405POPC   C4B22390  29.244   1.854   7.303
 1406POPC   NC322391  32.935   1.009   9.433
 1406POPC   PO422392  33.598   1.379   9.539
 1406POPC   GL122393  33.201   1.388   9.181
 1406POPC   GL222394  32.934   1.646   9.184
 1406POPC   C1A22395  32.985   1.260   8.808
 1406POPC   D2A22396  33.086   1.330   8.380
 1406POPC   C3A22397  32.888   1.072   8.074
 1406POPC   C4A22398  33.216   0.919   7.802
 1406POPC   C1B22399  32.862   1.753   8.771
 1406POPC   C2B22400  32.640   1.585   8.416
 1406POPC   C3B22401  32.810   1.589   7.991
 1406POPC   C4B22402  32.946   1.316   7.617
 1407POPC   NC322403  21.476   7.978   9.527
 1407POPC   PO422404  21.505   8.661   9.613
 1407POPC   GL122405  21.261   8.408   9.276
 1407POPC   GL222406  21.081   8.045   9.244
 1407POPC   C1A22407  21.361   8.270   8.846
 1407POPC   D2A22408  21.376   8.474   8.418
 1407POPC   C3A22409  21.610   8.494   8.043
 1407POPC   C4A22410  21.437   8.304   7.673
 1407POPC   C1B22411  21.007   7.882   8.852
 1407POPC   C2B22412  21.228   7.928   8.470
 1407POPC   C3B22413  21.262   8.039   8.053
 1407POPC   C4B22414  21.118   7.888   7.637
 1408POPC   NC322415  42.747  27.391   9.742
 1408POPC   PO422416  43.307  27.548   9.702
 1408POPC   GL122417  43.048  27.515   9.265
 1408POPC   GL222418  42.686  27.543   9.239
 1408POPC   C1A22419  42.895  27.441   8.772
 1408POPC   D2A22420  42.779  27.462   8.273
 1408POPC   C3A22421  43.139  27.467   7.928
 1408POPC   C4A22422  43.386  27.690   7.564
 1408POPC   C1B22423  42.608  27.858   8.873
 1408POPC   C2B22424  42.542  27.924   8.384
 1408POPC   C3B22425  42.753  27.901   7.948
 1408POPC   C4B22426  42.888  27.697   7.558
 1409POPC   NC322427   5.458  10.027   9.730
 1409POPC   PO422428   5.040  10.537   9.453
 1409POPC   GL122429   5.006  10.542   9.069
 1409POPC   GL222430   4.851  10.170   9.127
 1409POPC   C1A22431   5.151  10.642   8.648
 1409POPC   D2A22432   4.938  10.847   8.346
 1409POPC   C3A22433   5.096  10.677   8.028
 1409POPC   C4A22434   5.238  10.746   7.648
 1409POPC   C1B22435   4.979  10.190   8.718
 1409POPC   C2B22436   5.171  10.210   8.274
 1409POPC   C3B22437   5.000  10.220   7.832
 1409POPC   C4B22438   4.883  10.445   7.455
 1410POPC   NC322439  24.705  22.296   9.613
 1410POPC   PO422440  24.522  23.059   9.478
 1410POPC   GL122441  24.705  22.976   9.142
 1410POPC   GL222442  24.732  22.624   9.188
 1410POPC   C1A22443  24.478  23.014   8.778
 1410POPC   D2A22444  24.517  23.221   8.418
 1410POPC   C3A22445  24.290  22.991   8.143
 1410POPC   C4A22446  24.388  22.987   7.740
 1410POPC   C1B22447  24.857  22.676   8.757
 1410POPC   C2B22448  24.602  22.672   8.408
 1410POPC   C3B22449  24.695  22.674   8.010
 1410POPC   C4B22450  24.597  22.529   7.622
 1411POPC   NC322451  17.001  15.912   9.497
 1411POPC   PO422452  16.317  15.731   9.504
 1411POPC   GL122453  16.614  15.826   9.181
 1411POPC   GL222454  16.721  16.163   9.128
 1411POPC   C1A22455  16.551  15.849   8.738
 1411POPC   D2A22456  16.326  15.932   8.347
 1411POPC   C3A22457  16.502  15.770   7.989
 1411POPC   C4A22458  16.627  15.765   7.564
 1411POPC   C1B22459  16.891  16.229   8.705
 1411POPC   C2B22460  16.738  16.278   8.272
 1411POPC   C3B22461  16.612  16.254   7.832
 1411POPC   C4B22462  16.844  16.424   7.482
 1412POPC   NC322463  43.532  40.922   9.474
 1412POPC   PO422464  42.988  40.491   9.472
 1412POPC   GL122465  43.279  40.574   9.156
 1412POPC   GL222466  43.184  40.908   9.098
 1412POPC   C1A22467  43.270  40.569   8.707
 1412POPC   D2A22468  43.412  40.671   8.291
 1412POPC   C3A22469  43.316  40.421   7.970
 1412POPC   C4A22470  42.857  40.454   7.975
 1412POPC   C1B22471  43.102  41.150   8.733
 1412POPC   C2B22472  43.173  41.120   8.321
 1412POPC   C3B22473  43.095  40.950   7.904
 1412POPC   C4B22474  43.236  41.299   7.634
 1413POPC   NC322475  35.131  44.999   9.670
 1413POPC   PO422476  35.457  44.437   9.628
 1413POPC   GL122477  35.253  44.492   9.216
 1413POPC   GL222478  35.075  44.827   9.200
 1413POPC   C1A22479  35.401  44.416   8.798
 1413POPC   D2A22480  35.641  44.516   8.431
 1413POPC   C3A22481  35.675  44.321   8.007
 1413POPC   C4A22482  35.723  44.412   7.539
 1413POPC   C1B22483  35.167  44.869   8.784
 1413POPC   C2B22484  35.149  44.704   8.405
 1413POPC   C3B22485  35.350  44.716   8.044
 1413POPC   C4B22486  35.201  44.708   7.670
 1414POPC   NC322487   2.730   7.479   9.499
 1414POPC   PO422488   3.302   7.054   9.508
 1414POPC   GL122489   2.945   7.135   9.204
 1414POPC   GL222490   3.153   7.319   9.059
 1414POPC   C1A22491   2.712   7.421   8.848
 1414POPC   D2A22492   2.539   7.508   8.430
 1414POPC   C3A22493   2.725   7.579   8.036
 1414POPC   C4A22494   2.708   7.334   7.695
 1414POPC   C1B22495   3.047   7.092   8.655
 1414POPC   C2B22496   2.927   7.083   8.204
 1414POPC   C3B22497   3.139   7.093   7.799
 1414POPC   C4B22498   3.090   7.288   7.350
 1415POPC   NC322499  35.780  28.880   9.453
 1415POPC   PO422500  36.199  29.518   9.473
 1415POPC   GL122501  36.272  29.399   9.090
 1415POPC   GL222502  35.918  29.229   9.090
 1415POPC   C1A22503  36.180  29.374   8.670
 1415POPC   D2A22504  36.136  29.054   8.383
 1415POPC   C3A22505  35.928  29.191   8.044
 1415POPC   C4A22506  35.947  29.552   7.769
 1415POPC   C1B22507  35.889  28.871   8.799
 1415POPC   C2B22508  35.709  28.780   8.422
 1415POPC   C3B22509  35.790  28.682   8.037
 1415POPC   C4B22510  35.848  28.855   7.665
 1416POPC   NC322511  17.829  23.513   9.573
 1416POPC   PO422512  17.156  23.658   9.504
 1416POPC   GL122513  17.341  23.568   9.159
 1416POPC   GL222514  17.663  23.748   9.133
 1416POPC   C1A22515  17.300  23.665   8.755
 1416POPC   D2A22516  17.588  23.867   8.527
 1416POPC   C3A22517  17.517  23.746   8.131
 1416POPC   C4A22518  17.509  23.949   7.754
 1416POPC   C1B22519  17.744  23.407   8.840
 1416POPC   C2B22520  17.981  23.355   8.466
 1416POPC   C3B22521  17.950  23.281   8.007
 1416POPC   C4B22522  17.604  23.418   7.743
 1417POPC   NC322523  38.296  14.386   9.510
 1417POPC   PO422524  38.981  14.128   9.438
 1417POPC   GL122525  38.659  14.331   9.163
 1417POPC   GL222526  38.340  14.121   9.077
 1417POPC   C1A22527  38.541  14.597   8.819
 1417POPC   D2A22528  38.738  14.500   8.448
 1417POPC   C3A22529  38.549  14.614   8.091
 1417POPC   C4A22530  38.499  14.835   7.745
 1417POPC   C1B22531  38.333  14.171   8.642
 1417POPC   C2B22532  38.187  14.488   8.418
 1417POPC   C3B22533  38.054  14.507   7.992
 1417POPC   C4B22534  38.074  14.233   7.657
 1418POPC   NC322535  15.400  37.381   9.607
 1418POPC   PO422536  14.860  37.796   9.564
 1418POPC   GL122537  15.194  37.721   9.265
 1418POPC   GL222538  15.094  37.987   9.099
 1418POPC   C1A22539  15.417  37.715   8.830
 1418POPC   D2A22540  15.411  37.945   8.419
 1418POPC   C3A22541  15.551  37.755   8.031
 1418POPC   C4A22542  15.342  37.531   7.707
 1418POPC   C1B22543  14.913  37.852   8.715
 1418POPC   C2B22544  14.764  37.815   8.298
 1418POPC   C3B22545  15.038  37.904   7.957
 1418POPC   C4B22546  15.162  37.995   7.542
 1419POPC   NC322547   9.538   6.559   9.594
 1419POPC   PO422548  10.190   6.729   9.605
 1419POPC   GL122549   9.930   6.674   9.197
 1419POPC   GL222550   9.569   6.561   9.104
 1419POPC   C1A22551   9.947   6.473   8.783
 1419POPC   D2A22552   9.974   6.298   8.372
 1419POPC   C3A22553   9.882   6.537   8.019
 1419POPC   C4A22554  10.211   6.690   7.745
 1419POPC   C1B22555   9.266   6.751   8.837
 1419POPC   C2B22556   9.329   6.679   8.420
 1419POPC   C3B22557   9.339   6.828   7.994
 1419POPC   C4B22558   9.501   6.613   7.662
 1420POPC   NC322559  21.930  28.716   9.647
 1420POPC   PO422560  21.904  27.932   9.506
 1420POPC   GL122561  22.115  28.338   9.308
 1420POPC   GL222562  21.955  28.674   9.156
 1420POPC   C1A22563  22.283  28.422   8.897
 1420POPC   D2A22564  22.301  28.203   8.541
 1420POPC   C3A22565  22.168  28.421   8.182
 1420POPC   C4A22566  22.439  28.345   7.823
 1420POPC   C1B22567  21.913  28.839   8.768
 1420POPC   C2B22568  21.996  28.887   8.365
 1420POPC   C3B22569  21.820  28.751   7.992
 1420POPC   C4B22570  22.092  28.671   7.672
 1421POPC   NC322571   6.031  22.620   9.492
 1421POPC   PO422572   5.548  22.144   9.513
 1421POPC   GL122573   5.755  22.264   9.151
 1421POPC   GL222574   6.111  22.212   9.190
 1421POPC   C1A22575   5.658  22.262   8.699
 1421POPC   D2A22576   5.632  21.994   8.317
 1421POPC   C3A22577   5.868  22.124   7.945
 1421POPC   C4A22578   6.267  22.027   7.739
 1421POPC   C1B22579   6.082  22.521   8.849
 1421POPC   C2B22580   6.087  22.405   8.425
 1421POPC   C3B22581   6.120  22.559   8.040
 1421POPC   C4B22582   6.150  22.512   7.626
 1422POPC   NC322583  26.464   5.317   9.509
 1422POPC   PO422584  25.818   5.343   9.484
 1422POPC   GL122585  26.094   5.173   9.160
 1422POPC   GL222586  26.239   4.875   9.267
 1422POPC   C1A22587  26.006   5.073   8.726
 1422POPC   D2A22588  26.254   5.122   8.361
 1422POPC   C3A22589  25.962   5.349   8.122
 1422POPC   C4A22590  25.809   5.374   7.706
 1422POPC   C1B22591  26.384   4.782   8.852
 1422POPC   C2B22592  26.418   4.623   8.442
 1422POPC   C3B22593  26.252   4.677   8.044
 1422POPC   C4B22594  26.214   5.045   7.815
 1423POPC   NC322595  19.475  25.004   9.524
 1423POPC   PO422596  20.059  24.740   9.555
 1423POPC   GL122597  20.044  25.060   9.275
 1423POPC   GL222598  19.779  25.320   9.241
 1423POPC   C1A22599  20.050  24.994   8.843
 1423POPC   D2A22600  19.846  25.011   8.446
 1423POPC   C3A22601  19.981  25.256   8.090
 1423POPC   C4A22602  20.017  25.078   7.684
 1423POPC   C1B22603  19.615  25.326   8.816
 1423POPC   C2B22604  19.524  25.401   8.383
 1423POPC   C3B22605  19.477  25.330   7.953
 1423POPC   C4B22606  19.523  25.519   7.564
 1424POPC   NC322607   5.106  22.246   9.418
 1424POPC   PO422608   5.337  21.674   9.179
 1424POPC   GL122609   4.977  21.910   9.050
 1424POPC   GL222610   5.261  22.131   8.973
 1424POPC   C1A22611   4.790  22.267   8.783
 1424POPC   D2A22612   4.678  22.467   8.377
 1424POPC   C3A22613   4.696  22.240   7.955
 1424POPC   C4A22614   4.960  22.023   7.566
 1424POPC   C1B22615   5.178  21.981   8.585
 1424POPC   C2B22616   5.132  22.254   8.271
 1424POPC   C3B22617   5.348  22.172   7.934
 1424POPC   C4B22618   5.408  21.796   7.761
 1425POPC   NC322619  14.778   6.285  10.043
 1425POPC   PO422620  15.290   6.481   9.589
 1425POPC   GL122621  15.238   6.595   9.191
 1425POPC   GL222622  14.899   6.610   9.218
 1425POPC   C1A22623  15.383   6.582   8.770
 1425POPC   D2A22624  15.540   6.519   8.343
 1425POPC   C3A22625  15.324   6.660   7.921
 1425POPC   C4A22626  15.267   6.759   7.450
 1425POPC   C1B22627  14.913   6.406   8.826
 1425POPC   C2B22628  14.983   6.568   8.402
 1425POPC   C3B22629  14.997   6.291   8.051
 1425POPC   C4B22630  15.003   6.362   7.628
 1426POPC   NC322631  23.220   4.509   9.413
 1426POPC   PO422632  22.839   3.968   9.644
 1426POPC   GL122633  22.787   4.286   9.234
 1426POPC   GL222634  23.049   4.350   8.971
 1426POPC   C1A22635  22.589   4.512   8.880
 1426POPC   D2A22636  22.813   4.457   8.497
 1426POPC   C3A22637  22.730   4.508   8.074
 1426POPC   C4A22638  23.005   4.466   7.727
 1426POPC   C1B22639  23.138   4.093   8.616
 1426POPC   C2B22640  23.071   4.134   8.148
 1426POPC   C3B22641  23.280   4.030   7.756
 1426POPC   C4B22642  23.249   4.242   7.329
 1427POPC   NC322643  24.925  32.335   9.554
 1427POPC   PO422644  25.561  32.515   9.372
 1427POPC   GL122645  25.195  32.363   9.113
 1427POPC   GL222646  24.843  32.563   9.116
 1427POPC   C1A22647  25.395  32.232   8.729
 1427POPC   D2A22648  25.635  32.229   8.345
 1427POPC   C3A22649  25.342  32.230   7.980
 1427POPC   C4A22650  25.436  32.456   7.590
 1427POPC   C1B22651  24.946  32.650   8.746
 1427POPC   C2B22652  25.115  32.494   8.387
 1427POPC   C3B22653  24.949  32.583   8.013
 1427POPC   C4B22654  24.947  32.497   7.580
 1428POPC   NC322655  19.719  19.504   9.466
 1428POPC   PO422656  20.368  19.940   9.393
 1428POPC   GL122657  19.969  19.886   9.162
 1428POPC   GL222658  20.088  19.529   9.134
 1428POPC   C1A22659  19.744  20.033   8.732
 1428POPC   D2A22660  19.593  20.082   8.256
 1428POPC   C3A22661  19.816  20.111   7.839
 1428POPC   C4A22662  20.056  20.211   7.424
 1428POPC   C1B22663  19.783  19.535   8.805
 1428POPC   C2B22664  19.860  19.611   8.384
 1428POPC   C3B22665  19.714  19.607   7.966
 1428POPC   C4B22666  19.612  19.484   7.550
 1429POPC   NC322667  43.531   4.478   9.503
 1429POPC   PO422668  42.959   4.246   9.641
 1429POPC   GL122669  43.192   4.133   9.218
 1429POPC   GL222670  43.401   3.843   9.046
 1429POPC   C1A22671  43.088   4.188   8.766
 1429POPC   D2A22672  42.870   4.168   8.333
 1429POPC   C3A22673  43.066   4.284   7.942
 1429POPC   C4A22674  43.119   4.623   7.616
 1429POPC   C1B22675  43.397   3.815   8.613
 1429POPC   C2B22676  43.277   3.870   8.221
 1429POPC   C3B22677  43.540   4.040   7.954
 1429POPC   C4B22678  43.424   4.175   7.600
 1430POPC   NC322679  28.666  21.449   9.628
 1430POPC   PO422680  28.092  21.093   9.552
 1430POPC   GL122681  28.254  21.350   9.220
 1430POPC   GL222682  28.105  21.668   9.045
 1430POPC   C1A22683  28.375  21.301   8.813
 1430POPC   D2A22684  28.557  21.330   8.430
 1430POPC   C3A22685  28.494  21.044   8.101
 1430POPC   C4A22686  28.598  21.173   7.690
 1430POPC   C1B22687  28.470  21.817   8.752
 1430POPC   C2B22688  28.575  21.838   8.295
 1430POPC   C3B22689  28.358  21.569   7.953
 1430POPC   C4B22690  28.153  21.424   7.551
 1431POPC   NC322691   8.644  27.777   9.848
 1431POPC   PO422692   9.196  27.689   9.534
 1431POPC   GL122693   9.001  27.505   9.185
 1431POPC   GL222694   8.700  27.259   9.209
 1431POPC   C1A22695   9.136  27.689   8.778
 1431POPC   D2A22696   9.116  27.943   8.407
 1431POPC   C3A22697   9.180  27.676   8.066
 1431POPC   C4A22698   9.027  27.286   7.896
 1431POPC   C1B22699   8.683  27.438   8.800
 1431POPC   C2B22700   8.811  27.523   8.382
 1431POPC   C3B22701   8.672  27.647   7.972
 1431POPC   C4B22702   8.813  27.553   7.504
 1432POPC   NC322703  15.844  43.626   9.367
 1432POPC   PO422704  16.167  42.963   9.478
 1432POPC   GL122705  16.001  43.153   9.141
 1432POPC   GL222706  16.226  43.410   9.036
 1432POPC   C1A22707  15.950  43.014   8.730
 1432POPC   D2A22708  15.638  42.933   8.412
 1432POPC   C3A22709  15.774  42.891   7.996
 1432POPC   C4A22710  15.592  43.095   7.641
 1432POPC   C1B22711  16.215  43.441   8.607
 1432POPC   C2B22712  15.976  43.292   8.277
 1432POPC   C3B22713  15.851  43.448   7.901
 1432POPC   C4B22714  16.092  43.600   7.544
 1433POPC   NC322715  20.468  19.496   9.483
 1433POPC   PO422716  20.915  19.852   9.729
 1433POPC   GL122717  20.865  19.846   9.228
 1433POPC   GL222718  20.591  19.639   9.010
 1433POPC   C1A22719  20.885  19.983   8.763
 1433POPC   D2A22720  20.606  19.908   8.394
 1433POPC   C3A22721  20.684  20.009   7.962
 1433POPC   C4A22722  20.819  19.756   7.587
 1433POPC   C1B22723  20.241  19.832   8.740
 1433POPC   C2B22724  20.124  20.105   8.384
 1433POPC   C3B22725  20.187  19.844   8.047
 1433POPC   C4B22726  20.310  19.831   7.632
 1434POPC   NC322727  41.691  43.206   9.563
 1434POPC   PO422728  41.194  43.565   9.223
 1434POPC   GL122729  41.597  43.357   9.063
 1434POPC   GL222730  41.698  43.063   9.065
 1434POPC   C1A22731  41.750  43.324   8.656
 1434POPC   D2A22732  41.493  43.376   8.368
 1434POPC   C3A22733  41.726  43.331   8.082
 1434POPC   C4A22734  41.798  43.224   7.715
 1434POPC   C1B22735  41.391  42.989   8.704
 1434POPC   C2B22736  41.183  42.961   8.307
 1434POPC   C3B22737  41.260  43.155   7.924
 1434POPC   C4B22738  41.409  42.936   7.560
 1435POPC   NC322739  26.638  17.706   9.374
 1435POPC   PO422740  26.942  17.277   9.726
 1435POPC   GL122741  26.944  17.144   9.256
 1435POPC   GL222742  26.622  17.262   9.133
 1435POPC   C1A22743  27.021  17.202   8.797
 1435POPC   D2A22744  26.950  17.402   8.389
 1435POPC   C3A22745  26.770  17.313   7.973
 1435POPC   C4A22746  26.988  17.661   7.736
 1435POPC   C1B22747  26.604  17.526   8.742
 1435POPC   C2B22748  26.468  17.598   8.299
 1435POPC   C3B22749  26.473  17.695   7.847
 1435POPC   C4B22750  26.513  17.646   7.380
 1436POPC   NC322751   7.756  26.127   9.415
 1436POPC   PO422752   7.184  25.764   9.432
 1436POPC   GL122753   7.331  25.994   9.111
 1436POPC   GL222754   7.288  26.322   9.212
 1436POPC   C1A22755   7.632  25.932   8.780
 1436POPC   D2A22756   7.692  25.825   8.356
 1436POPC   C3A22757   7.300  25.826   8.087
 1436POPC   C4A22758   7.098  25.700   7.685
 1436POPC   C1B22759   7.405  26.388   8.772
 1436POPC   C2B22760   7.438  26.323   8.312
 1436POPC   C3B22761   7.633  26.202   7.906
 1436POPC   C4B22762   7.371  26.111   7.516
 1437POPC   NC322763  22.846  36.940   9.567
 1437POPC   PO422764  23.426  37.171   9.347
 1437POPC   GL122765  23.167  36.904   9.080
 1437POPC   GL222766  22.797  36.813   9.093
 1437POPC   C1A22767  23.160  36.976   8.640
 1437POPC   D2A22768  23.405  36.932   8.298
 1437POPC   C3A22769  23.184  37.059   7.937
 1437POPC   C4A22770  22.985  36.784   7.658
 1437POPC   C1B22771  22.667  37.044   8.731
 1437POPC   C2B22772  22.769  37.101   8.281
 1437POPC   C3B22773  22.674  37.136   7.854
 1437POPC   C4B22774  22.458  36.888   7.582
 1438POPC   NC322775  22.736  18.036   9.570
 1438POPC   PO422776  23.415  18.066   9.529
 1438POPC   GL122777  23.142  17.977   9.175
 1438POPC   GL222778  22.783  18.025   9.076
 1438POPC   C1A22779  23.204  18.227   8.835
 1438POPC   D2A22780  23.208  18.217   8.416
 1438POPC   C3A22781  23.263  18.579   8.161
 1438POPC   C4A22782  23.433  18.245   7.930
 1438POPC   C1B22783  22.720  18.089   8.655
 1438POPC   C2B22784  22.775  18.452   8.401
 1438POPC   C3B22785  22.856  18.324   7.988
 1438POPC   C4B22786  22.632  18.374   7.621
 1439POPC   NC322787  44.304  35.997   9.373
 1439POPC   PO422788  44.863  36.387   9.378
 1439POPC   GL122789   0.010  36.098   9.086
 1439POPC   GL222790  44.720  35.888   9.094
 1439POPC   C1A22791  44.854  36.139   8.670
 1439POPC   D2A22792  44.617  36.151   8.306
 1439POPC   C3A22793  44.825  36.038   7.926
 1439POPC   C4A22794  44.929  36.288   7.584
 1439POPC   C1B22795  44.352  35.937   8.747
 1439POPC   C2B22796  44.110  36.001   8.348
 1439POPC   C3B22797  44.296  35.979   7.918
 1439POPC   C4B22798  44.249  35.641   7.614
 1440POPC   NC322799  42.482  37.447   9.498
 1440POPC   PO422800  42.253  36.716   9.581
 1440POPC   GL122801  42.181  36.780   9.157
 1440POPC   GL222802  42.289  37.111   9.171
 1440POPC   C1A22803  42.341  36.726   8.731
 1440POPC   D2A22804  42.242  36.597   8.329
 1440POPC   C3A22805  42.480  36.650   7.977
 1440POPC   C4A22806  42.216  36.775   7.613
 1440POPC   C1B22807  42.283  37.214   8.780
 1440POPC   C2B22808  42.457  37.222   8.375
 1440POPC   C3B22809  42.384  37.142   7.967
 1440POPC   C4B22810  42.486  37.191   7.516
 1441POPC   NC322811  40.082  14.640   9.460
 1441POPC   PO422812  39.955  13.913   9.374
 1441POPC   GL122813  40.149  14.235   9.148
 1441POPC   GL222814  39.865  14.211   8.915
 1441POPC   C1A22815  40.237  14.538   8.801
 1441POPC   D2A22816  40.013  14.413   8.406
 1441POPC   C3A22817  40.038  14.615   8.001
 1441POPC   C4A22818  39.619  14.771   7.802
 1441POPC   C1B22819  39.691  13.999   8.528
 1441POPC   C2B22820  39.530  14.229   8.142
 1441POPC   C3B22821  39.736  14.268   7.772
 1441POPC   C4B22822  40.180  14.121   7.778
 1442POPC   NC322823  37.450   1.423   9.422
 1442POPC   PO422824  37.413   0.767   9.368
 1442POPC   GL122825  37.584   1.051   9.101
 1442POPC   GL222826  37.806   0.873   8.959
 1442POPC   C1A22827  37.531   1.248   8.728
 1442POPC   D2A22828  37.308   1.146   8.380
 1442POPC   C3A22829  37.590   1.204   8.063
 1442POPC   C4A22830  37.892   1.550   7.949
 1442POPC   C1B22831  38.037   1.154   8.720
 1442POPC   C2B22832  38.033   1.234   8.314
 1442POPC   C3B22833  38.084   1.072   7.907
 1442POPC   C4B22834  38.038   1.332   7.520
 1443POPC   NC322835  18.469   5.062   9.442
 1443POPC   PO422836  18.672   5.690   9.369
 1443POPC   GL122837  18.503   5.367   9.058
 1443POPC   GL222838  18.118   5.223   9.102
 1443POPC   C1A22839  18.450   5.148   8.687
 1443POPC   D2A22840  18.405   5.330   8.311
 1443POPC   C3A22841  18.190   5.174   8.009
 1443POPC   C4A22842  18.450   5.134   7.675
 1443POPC   C1B22843  18.029   4.903   8.779
 1443POPC   C2B22844  18.249   4.785   8.384
 1443POPC   C3B22845  18.249   4.674   7.940
 1443POPC   C4B22846  17.973   4.882   7.638
 1444POPC   NC322847   6.907  37.929   9.907
 1444POPC   PO422848   6.434  37.687   9.597
 1444POPC   GL122849   6.454  37.582   9.157
 1444POPC   GL222850   6.510  37.928   9.124
 1444POPC   C1A22851   6.599  37.368   8.774
 1444POPC   D2A22852   6.456  37.078   8.450
 1444POPC   C3A22853   6.343  37.273   8.056
 1444POPC   C4A22854   6.615  37.559   7.851
 1444POPC   C1B22855   6.805  37.862   8.808
 1444POPC   C2B22856   6.867  37.693   8.439
 1444POPC   C3B22857   6.931  37.887   8.077
 1444POPC   C4B22858   6.762  38.010   7.685
 1445POPC   NC322859  37.422  42.918   9.428
 1445POPC   PO422860  37.778  43.544   9.509
 1445POPC   GL122861  37.591  43.326   9.176
 1445POPC   GL222862  37.871  43.105   9.166
 1445POPC   C1A22863  37.522  43.214   8.751
 1445POPC   D2A22864  37.269  43.103   8.372
 1445POPC   C3A22865  37.523  43.079   8.007
 1445POPC   C4A22866  37.648  43.393   7.702
 1445POPC   C1B22867  37.928  42.862   8.805
 1445POPC   C2B22868  37.802  42.907   8.407
 1445POPC   C3B22869  37.946  42.764   8.029
 1445POPC   C4B22870  37.891  42.954   7.655
 1446POPC   NC322871  37.575   2.429   9.150
 1446POPC   PO422872  37.717   1.893   9.583
 1446POPC   GL122873  37.695   1.806   9.158
 1446POPC   GL222874  37.880   1.523   9.027
 1446POPC   C1A22875  37.501   1.773   8.755
 1446POPC   D2A22876  37.510   1.615   8.346
 1446POPC   C3A22877  37.472   1.834   7.960
 1446POPC   C4A22878  37.825   2.019   7.787
 1446POPC   C1B22879  38.002   1.665   8.604
 1446POPC   C2B22880  38.079   2.009   8.302
 1446POPC   C3B22881  38.065   2.386   8.037
 1446POPC   C4B22882  38.163   2.392   7.611
 1447POPC   NC322883  24.235  35.449   9.784
 1447POPC   PO422884  24.808  35.554   9.612
 1447POPC   GL122885  24.598  35.306   9.296
 1447POPC   GL222886  24.215  35.281   9.230
 1447POPC   C1A22887  24.586  35.344   8.856
 1447POPC   D2A22888  24.371  35.362   8.467
 1447POPC   C3A22889  24.578  35.486   8.118
 1447POPC   C4A22890  24.417  35.670   7.735
 1447POPC   C1B22891  24.171  35.021   8.808
 1447POPC   C2B22892  24.009  35.029   8.361
 1447POPC   C3B22893  24.132  35.231   7.958
 1447POPC   C4B22894  24.340  35.028   7.614
 1448POPC   NC322895   2.723  39.770   9.685
 1448POPC   PO422896   2.811  39.114   9.575
 1448POPC   GL122897   2.968  39.130   9.101
 1448POPC   GL222898   3.149  39.419   8.938
 1448POPC   C1A22899   3.103  38.982   8.688
 1448POPC   D2A22900   3.121  39.134   8.263
 1448POPC   C3A22901   2.950  38.890   7.915
 1448POPC   C4A22902   2.834  39.184   7.566
 1448POPC   C1B22903   2.811  39.441   8.605
 1448POPC   C2B22904   2.520  39.585   8.254
 1448POPC   C3B22905   2.545  39.615   7.802
 1448POPC   C4B22906   2.603  39.563   7.330
 1449POPC   NC322907  43.529  31.182   9.563
 1449POPC   PO422908  44.066  31.526   9.452
 1449POPC   GL122909  43.830  31.682   9.098
 1449POPC   GL222910  43.656  31.356   9.066
 1449POPC   C1A22911  43.835  31.780   8.634
 1449POPC   D2A22912  43.627  31.577   8.337
 1449POPC   C3A22913  43.753  31.604   7.916
 1449POPC   C4A22914  44.207  31.621   7.840
 1449POPC   C1B22915  43.974  31.308   8.717
 1449POPC   C2B22916  44.073  31.341   8.262
 1449POPC   C3B22917  44.044  31.142   7.852
 1449POPC   C4B22918  43.628  31.083   7.720
 1450POPC   NC322919  18.816   0.363   9.506
 1450POPC   PO422920  19.547   0.230   9.470
 1450POPC   GL122921  19.222   0.195   9.198
 1450POPC   GL222922  19.156   0.548   9.148
 1450POPC   C1A22923  18.995   0.187   8.817
 1450POPC   D2A22924  18.799   0.338   8.441
 1450POPC   C3A22925  19.103   0.454   8.140
 1450POPC   C4A22926  19.275   0.300   7.746
 1450POPC   C1B22927  18.816   0.699   8.830
 1450POPC   C2B22928  18.646   0.952   8.440
 1450POPC   C3B22929  18.653   0.843   7.979
 1450POPC   C4B22930  19.085   0.801   7.763
 1451POPC   NC322931  37.468  41.343   9.406
 1451POPC   PO422932  37.865  41.857   9.519
 1451POPC   GL122933  37.724  41.716   9.169
 1451POPC   GL222934  37.913  41.420   9.184
 1451POPC   C1A22935  37.441  41.780   8.864
 1451POPC   D2A22936  37.460  41.660   8.471
 1451POPC   C3A22937  37.321  41.880   8.128
 1451POPC   C4A22938  37.425  41.801   7.702
 1451POPC   C1B22939  37.769  41.370   8.778
 1451POPC   C2B22940  37.924  41.459   8.406
 1451POPC   C3B22941  37.728  41.467   8.036
 1451POPC   C4B22942  37.918  41.623   7.714
 1452POPC   NC322943  13.450   6.496   9.467
 1452POPC   PO422944  13.875   6.999   9.742
 1452POPC   GL122945  13.716   6.909   9.254
 1452POPC   GL222946  13.882   6.663   9.157
 1452POPC   C1A22947  13.822   6.988   8.763
 1452POPC   D2A22948  13.709   6.746   8.341
 1452POPC   C3A22949  13.665   6.772   7.866
 1452POPC   C4A22950  13.801   7.035   7.511
 1452POPC   C1B22951  13.757   6.467   8.772
 1452POPC   C2B22952  14.015   6.292   8.464
 1452POPC   C3B22953  13.960   6.115   8.056
 1452POPC   C4B22954  13.770   6.298   7.710
 1453POPC   NC322955  44.559  13.457   9.422
 1453POPC   PO422956   0.293  13.393   9.388
 1453POPC   GL122957  44.945  13.394   9.091
 1453POPC   GL222958  44.836  13.747   9.091
 1453POPC   C1A22959  44.609  13.447   8.745
 1453POPC   D2A22960  44.622  13.639   8.334
 1453POPC   C3A22961  44.490  13.535   7.955
 1453POPC   C4A22962  44.676  13.279   7.688
 1453POPC   C1B22963  44.798  13.938   8.706
 1453POPC   C2B22964  44.967  14.119   8.322
 1453POPC   C3B22965  44.986  13.915   7.917
 1453POPC   C4B22966   0.026  13.956   7.444
 1454POPC   NC322967  16.780  34.245   9.590
 1454POPC   PO422968  16.926  33.619   9.617
 1454POPC   GL122969  17.148  33.701   9.240
 1454POPC   GL222970  17.164  34.016   9.300
 1454POPC   C1A22971  17.174  33.479   8.850
 1454POPC   D2A22972  16.875  33.361   8.491
 1454POPC   C3A22973  16.931  33.543   8.061
 1454POPC   C4A22974  16.808  33.677   7.601
 1454POPC   C1B22975  16.859  34.090   8.911
 1454POPC   C2B22976  16.832  34.130   8.423
 1454POPC   C3B22977  16.677  34.003   7.975
 1454POPC   C4B22978  16.655  34.179   7.522
 1455POPC   NC322979   6.211   7.659   9.505
 1455POPC   PO422980   6.825   7.335   9.618
 1455POPC   GL122981   6.625   7.395   9.243
 1455POPC   GL222982   6.642   7.751   9.226
 1455POPC   C1A22983   6.651   7.240   8.823
 1455POPC   D2A22984   6.806   7.355   8.420
 1455POPC   C3A22985   6.593   7.351   8.014
 1455POPC   C4A22986   6.661   7.098   7.653
 1455POPC   C1B22987   6.853   7.721   8.811
 1455POPC   C2B22988   6.650   7.843   8.403
 1455POPC   C3B22989   6.335   7.823   8.050
 1455POPC   C4B22990   6.505   7.762   7.656
 1456POPC   NC322991  16.229   4.681   9.428
 1456POPC   PO422992  16.646   4.158   9.494
 1456POPC   GL122993  16.715   4.310   9.083
 1456POPC   GL222994  16.627   4.668   9.107
 1456POPC   C1A22995  16.856   4.142   8.699
 1456POPC   D2A22996  17.078   4.074   8.301
 1456POPC   C3A22997  16.783   3.934   8.022
 1456POPC   C4A22998  16.699   4.058   7.622
 1456POPC   C1B22999  16.820   4.674   8.698
 1456POPC   C2B23000  16.699   4.483   8.298
 1456POPC   C3B23001  16.689   4.525   7.847
 1456POPC   C4B23002  16.551   4.536   7.411
 1457POPC   NC323003   6.657  39.766   9.559
 1457POPC   PO423004   6.918  40.452   9.573
 1457POPC   GL123005   6.789  40.113   9.217
 1457POPC   GL223006   6.415  40.044   9.222
 1457POPC   C1A23007   6.575  40.185   8.778
 1457POPC   D2A23008   6.787  40.108   8.394
 1457POPC   C3A23009   6.541  40.062   8.038
 1457POPC   C4A23010   6.870  39.982   7.804
 1457POPC   C1B23011   6.313  39.735   8.880
 1457POPC   C2B23012   6.430  39.752   8.451
 1457POPC   C3B23013   6.242  39.636   8.055
 1457POPC   C4B23014   6.461  39.665   7.662
 1458POPC   NC323015   1.128  36.894   9.547
 1458POPC   PO423016   0.834  37.360   9.171
 1458POPC   GL123017   1.080  37.037   9.019
 1458POPC   GL223018   1.427  36.936   9.137
 1458POPC   C1A23019   1.315  37.129   8.654
 1458POPC   D2A23020   1.393  37.289   8.244
 1458POPC   C3A23021   1.135  37.045   7.980
 1458POPC   C4A23022   1.084  36.848   7.610
 1458POPC   C1B23023   1.422  36.648   8.773
 1458POPC   C2B23024   1.510  36.775   8.346
 1458POPC   C3B23025   1.418  36.607   7.948
 1458POPC   C4B23026   1.481  36.422   7.538
 1459POPC   NC323027   2.600  34.134   9.475
 1459POPC   PO423028   2.352  33.510   9.541
 1459POPC   GL123029   2.612  33.705   9.186
 1459POPC   GL223030   2.426  33.990   9.020
 1459POPC   C1A23031   2.820  33.835   8.774
 1459POPC   D2A23032   2.585  33.862   8.377
 1459POPC   C3A23033   2.728  33.721   7.998
 1459POPC   C4A23034   2.968  33.653   7.629
 1459POPC   C1B23035   2.336  34.211   8.648
 1459POPC   C2B23036   2.198  34.169   8.216
 1459POPC   C3B23037   2.524  34.185   7.896
 1459POPC   C4B23038   2.935  34.127   7.757
 1460POPC   NC323039   0.062  11.011   9.459
 1460POPC   PO423040   0.682  11.077   9.601
 1460POPC   GL123041   0.436  11.245   9.181
 1460POPC   GL223042   0.195  11.022   8.978
 1460POPC   C1A23043   0.279  11.467   8.763
 1460POPC   D2A23044   0.477  11.523   8.355
 1460POPC   C3A23045   0.396  11.583   7.912
 1460POPC   C4A23046   0.521  11.654   7.482
 1460POPC   C1B23047   0.223  10.819   8.580
 1460POPC   C2B23048   0.279  11.082   8.210
 1460POPC   C3B23049   0.370  11.094   7.760
 1460POPC   C4B23050   0.289  10.861   7.395
 1461POPC   NC323051   7.216  36.146   9.670
 1461POPC   PO423052   7.045  35.581   9.352
 1461POPC   GL123053   7.289  35.989   9.164
 1461POPC   GL223054   7.230  36.350   9.164
 1461POPC   C1A23055   7.573  36.221   8.816
 1461POPC   D2A23056   7.619  36.043   8.416
 1461POPC   C3A23057   7.674  36.305   8.047
 1461POPC   C4A23058   7.537  35.962   7.780
 1461POPC   C1B23059   7.091  36.380   8.707
 1461POPC   C2B23060   7.182  36.282   8.228
 1461POPC   C3B23061   7.210  36.351   7.748
 1461POPC   C4B23062   7.272  36.514   7.268
 1462POPC   NC323063  33.536  23.577   9.429
 1462POPC   PO423064  32.834  23.515   9.460
 1462POPC   GL123065  33.124  23.637   9.131
 1462POPC   GL223066  33.316  23.957   9.166
 1462POPC   C1A23067  33.307  23.637   8.728
 1462POPC   D2A23068  33.142  23.433   8.353
 1462POPC   C3A23069  32.938  23.588   7.976
 1462POPC   C4A23070  33.053  23.758   7.593
 1462POPC   C1B23071  32.997  24.029   8.827
 1462POPC   C2B23072  33.033  23.928   8.381
 1462POPC   C3B23073  33.294  23.970   7.999
 1462POPC   C4B23074  33.210  24.264   7.646
 1463POPC   NC323075   6.178   3.731   9.852
 1463POPC   PO423076   5.655   3.571   9.516
 1463POPC   GL123077   5.861   3.410   9.190
 1463POPC   GL223078   6.021   3.720   9.162
 1463POPC   C1A23079   5.824   3.367   8.732
 1463POPC   D2A23080   5.714   3.604   8.323
 1463POPC   C3A23081   5.589   3.369   7.918
 1463POPC   C4A23082   5.647   3.348   7.443
 1463POPC   C1B23083   5.822   3.886   8.807
 1463POPC   C2B23084   5.957   4.056   8.424
 1463POPC   C3B23085   6.115   3.873   8.107
 1463POPC   C4B23086   5.943   3.709   7.719
 1464POPC   NC323087  23.902   5.496   9.594
 1464POPC   PO423088  23.621   6.036   9.696
 1464POPC   GL123089  23.632   5.899   9.260
 1464POPC   GL223090  23.348   5.665   9.187
 1464POPC   C1A23091  23.486   6.003   8.830
 1464POPC   D2A23092  23.557   5.811   8.442
 1464POPC   C3A23093  23.816   5.980   8.153
 1464POPC   C4A23094  24.016   5.830   7.761
 1464POPC   C1B23095  23.717   5.550   8.894
 1464POPC   C2B23096  23.842   5.393   8.474
 1464POPC   C3B23097  23.742   5.482   8.036
 1464POPC   C4B23098  23.423   5.773   7.899
 1465POPC   NC323099   8.731   3.471   9.434
 1465POPC   PO423100   9.391   3.658   9.499
 1465POPC   GL123101   9.170   3.530   9.160
 1465POPC   GL223102   9.040   3.175   9.180
 1465POPC   C1A23103   8.965   3.522   8.785
 1465POPC   D2A23104   9.164   3.419   8.426
 1465POPC   C3A23105   8.934   3.609   8.096
 1465POPC   C4A23106   8.877   3.656   7.689
 1465POPC   C1B23107   8.935   3.004   8.772
 1465POPC   C2B23108   8.959   2.953   8.342
 1465POPC   C3B23109   9.156   3.136   7.978
 1465POPC   C4B23110   9.005   3.188   7.578
 1466POPC   NC323111  14.564  37.409   9.572
 1466POPC   PO423112  14.450  38.046   9.769
 1466POPC   GL123113  14.459  37.815   9.262
 1466POPC   GL223114  14.720  37.583   9.111
 1466POPC   C1A23115  14.398  37.908   8.821
 1466POPC   D2A23116  14.122  37.710   8.498
 1466POPC   C3A23117  14.316  37.582   8.125
 1466POPC   C4A23118  14.191  37.577   7.703
 1466POPC   C1B23119  14.572  37.428   8.695
 1466POPC   C2B23120  14.716  37.292   8.272
 1466POPC   C3B23121  14.725  37.437   7.824
 1466POPC   C4B23122  14.618  37.502   7.365
 1467POPC   NC323123  38.985  43.801   9.587
 1467POPC   PO423124  38.414  44.093   9.776
 1467POPC   GL123125  38.475  43.921   9.305
 1467POPC   GL223126  38.780  43.739   9.137
 1467POPC   C1A23127  38.353  43.833   8.855
 1467POPC   D2A23128  38.447  43.615   8.472
 1467POPC   C3A23129  38.494  43.783   8.059
 1467POPC   C4A23130  38.394  44.099   7.769
 1467POPC   C1B23131  38.798  44.099   8.880
 1467POPC   C2B23132  38.554  44.236   8.545
 1467POPC   C3B23133  38.687  44.275   8.133
 1467POPC   C4B23134  38.810  44.409   7.732
 1468POPC   NC323135  14.972  43.275   9.709
 1468POPC   PO423136  15.423  43.781   9.529
 1468POPC   GL123137  15.323  43.336   9.311
 1468POPC   GL223138  14.964  43.191   9.207
 1468POPC   C1A23139  15.424  43.067   8.924
 1468POPC   D2A23140  15.164  43.082   8.525
 1468POPC   C3A23141  15.269  43.083   8.071
 1468POPC   C4A23142  15.124  42.913   7.669
 1468POPC   C1B23143  14.793  43.341   8.803
 1468POPC   C2B23144  14.829  43.440   8.339
 1468POPC   C3B23145  14.764  43.215   7.924
 1468POPC   C4B23146  14.753  43.194   7.434
 1469POPC   NC323147  35.497  13.059   9.518
 1469POPC   PO423148  35.200  12.415   9.465
 1469POPC   GL123149  35.430  12.676   9.160
 1469POPC   GL223150  35.269  13.003   9.084
 1469POPC   C1A23151  35.661  12.836   8.774
 1469POPC   D2A23152  35.470  13.076   8.421
 1469POPC   C3A23153  35.636  13.016   7.993
 1469POPC   C4A23154  35.489  12.794   7.613
 1469POPC   C1B23155  35.153  12.802   8.731
 1469POPC   C2B23156  34.996  12.756   8.342
 1469POPC   C3B23157  35.134  12.979   8.006
 1469POPC   C4B23158  35.017  13.002   7.602
 1470POPC   NC323159   2.221  16.504   9.523
 1470POPC   PO423160   1.768  16.930   9.343
 1470POPC   GL123161   1.912  16.574   9.092
 1470POPC   GL223162   2.255  16.663   9.035
 1470POPC   C1A23163   1.883  16.594   8.653
 1470POPC   D2A23164   2.157  16.636   8.294
 1470POPC   C3A23165   2.020  16.426   7.886
 1470POPC   C4A23166   1.892  16.626   7.461
 1470POPC   C1B23167   2.160  17.002   8.727
 1470POPC   C2B23168   1.952  17.090   8.306
 1470POPC   C3B23169   2.006  16.948   7.853
 1470POPC   C4B23170   2.195  17.078   7.420
 1471POPC   NC323171  29.680   5.497   9.558
 1471POPC   PO423172  30.165   5.903   9.518
 1471POPC   GL123173  30.035   5.851   9.103
 1471POPC   GL223174  29.681   5.829   9.152
 1471POPC   C1A23175  30.060   6.045   8.670
 1471POPC   D2A23176  29.954   6.213   8.250
 1471POPC   C3A23177  30.233   6.031   7.977
 1471POPC   C4A23178  30.245   5.733   7.652
 1471POPC   C1B23179  29.704   5.694   8.734
 1471POPC   C2B23180  29.647   5.803   8.309
 1471POPC   C3B23181  29.773   5.797   7.882
 1471POPC   C4B23182  29.783   5.648   7.462
 1472POPC   NC323183  10.707  35.819   9.426
 1472POPC   PO423184  10.759  35.234   9.401
 1472POPC   GL123185  11.091  35.381   9.100
 1472POPC   GL223186  11.386  35.576   9.196
 1472POPC   C1A23187  11.196  35.444   8.648
 1472POPC   D2A23188  10.973  35.620   8.278
 1472POPC   C3A23189  11.033  35.462   7.810
 1472POPC   C4A23190  10.947  35.432   7.326
 1472POPC   C1B23191  11.557  35.764   8.805
 1472POPC   C2B23192  11.370  35.928   8.414
 1472POPC   C3B23193  11.319  35.861   7.963
 1472POPC   C4B23194  11.530  35.988   7.575
 1473POPC   NC323195  24.820  39.728   9.339
 1473POPC   PO423196  24.278  39.948   9.414
 1473POPC   GL123197  24.320  40.005   9.038
 1473POPC   GL223198  24.405  40.349   9.128
 1473POPC   C1A23199  24.552  39.741   8.749
 1473POPC   D2A23200  24.797  39.772   8.391
 1473POPC   C3A23201  24.463  39.708   8.121
 1473POPC   C4A23202  24.404  39.872   7.737
 1473POPC   C1B23203  24.638  40.258   8.753
 1473POPC   C2B23204  24.423  40.143   8.376
 1473POPC   C3B23205  24.284  40.335   7.980
 1473POPC   C4B23206  24.476  40.352   7.549
 1474POPC   NC323207  39.655  37.030   9.502
 1474POPC   PO423208  39.111  36.702   9.432
 1474POPC   GL123209  39.277  36.997   9.137
 1474POPC   GL223210  39.512  36.736   9.109
 1474POPC   C1A23211  39.161  37.138   8.705
 1474POPC   D2A23212  39.260  37.109   8.245
 1474POPC   C3A23213  39.094  37.091   7.813
 1474POPC   C4A23214  39.426  36.987   7.476
 1474POPC   C1B23215  39.531  36.752   8.707
 1474POPC   C2B23216  39.333  36.603   8.342
 1474POPC   C3B23217  39.331  36.653   7.922
 1474POPC   C4B23218  39.462  36.421   7.578
 1475POPC   NC323219   4.870  27.344   9.506
 1475POPC   PO423220   5.379  27.727   9.577
 1475POPC   GL123221   5.428  27.436   9.194
 1475POPC   GL223222   5.071  27.463   9.053
 1475POPC   C1A23223   5.406  27.280   8.737
 1475POPC   D2A23224   5.317  27.486   8.371
 1475POPC   C3A23225   5.329  27.304   7.971
 1475POPC   C4A23226   5.370  27.531   7.595
 1475POPC   C1B23227   4.843  27.385   8.619
 1475POPC   C2B23228   4.854  27.427   8.135
 1475POPC   C3B23229   4.951  27.799   7.832
 1475POPC   C4B23230   4.863  28.171   7.514
 1476POPC   NC323231  16.676  18.752   9.532
 1476POPC   PO423232  17.029  19.284   9.569
 1476POPC   GL123233  16.882  19.056   9.192
 1476POPC   GL223234  17.006  18.707   9.140
 1476POPC   C1A23235  16.628  18.908   8.831
 1476POPC   D2A23236  16.473  19.093   8.442
 1476POPC   C3A23237  16.630  19.006   8.012
 1476POPC   C4A23238  16.560  19.126   7.587
 1476POPC   C1B23239  17.114  18.898   8.736
 1476POPC   C2B23240  17.090  19.054   8.322
 1476POPC   C3B23241  17.104  18.821   7.941
 1476POPC   C4B23242  16.985  18.847   7.529
 1477POPC   NC323243  28.234  33.229   9.525
 1477POPC   PO423244  28.499  32.612   9.500
 1477POPC   GL123245  28.320  32.854   9.168
 1477POPC   GL223246  28.534  33.164   9.130
 1477POPC   C1A23247  28.386  32.875   8.726
 1477POPC   D2A23248  28.160  32.918   8.333
 1477POPC   C3A23249  28.329  32.751   7.975
 1477POPC   C4A23250  28.475  32.778   7.562
 1477POPC   C1B23251  28.274  33.364   8.798
 1477POPC   C2B23252  28.416  33.384   8.358
 1477POPC   C3B23253  28.193  33.315   7.962
 1477POPC   C4B23254  27.964  33.518   7.618
 1478POPC   NC323255  37.086  15.638   9.516
 1478POPC   PO423256  36.626  16.229   9.594
 1478POPC   GL123257  36.710  16.168   9.176
 1478POPC   GL223258  37.038  16.002   9.158
 1478POPC   C1A23259  36.717  16.026   8.750
 1478POPC   D2A23260  36.755  15.844   8.361
 1478POPC   C3A23261  36.878  16.111   8.030
 1478POPC   C4A23262  36.644  15.883   7.740
 1478POPC   C1B23263  37.179  15.768   8.815
 1478POPC   C2B23264  37.258  15.915   8.402
 1478POPC   C3B23265  37.252  15.757   7.984
 1478POPC   C4B23266  37.224  15.699   7.569
 1479POPC   NC323267   4.973  11.665   9.470
 1479POPC   PO423268   5.275  12.317   9.527
 1479POPC   GL123269   5.042  12.177   9.145
 1479POPC   GL223270   4.682  12.228   9.088
 1479POPC   C1A23271   5.110  11.919   8.756
 1479POPC   D2A23272   5.307  11.798   8.348
 1479POPC   C3A23273   5.375  12.114   8.063
 1479POPC   C4A23274   5.104  12.149   7.707
 1479POPC   C1B23275   4.694  12.201   8.631
 1479POPC   C2B23276   4.838  12.133   8.186
 1479POPC   C3B23277   4.629  12.288   7.794
 1479POPC   C4B23278   4.806  12.518   7.441
 1480POPC   NC323279  44.914  32.231   9.298
 1480POPC   PO423280   0.504  32.314   9.647
 1480POPC   GL123281   0.375  32.336   9.161
 1480POPC   GL223282   0.304  32.040   8.987
 1480POPC   C1A23283   0.364  32.440   8.688
 1480POPC   D2A23284   0.298  32.289   8.295
 1480POPC   C3A23285   0.394  32.544   7.983
 1480POPC   C4A23286   0.574  32.239   7.776
 1480POPC   C1B23287  44.965  32.133   8.669
 1480POPC   C2B23288  44.856  32.040   8.247
 1480POPC   C3B23289   0.073  32.022   7.852
 1480POPC   C4B23290   0.087  32.071   7.395
 1481POPC   NC323291  23.314  41.614   9.575
 1481POPC   PO423292  22.674  41.492   9.534
 1481POPC   GL123293  23.040  41.317   9.234
 1481POPC   GL223294  23.346  41.519   9.082
 1481POPC   C1A23295  22.998  41.235   8.789
 1481POPC   D2A23296  22.779  41.428   8.428
 1481POPC   C3A23297  22.946  41.435   8.008
 1481POPC   C4A23298  22.849  41.539   7.540
 1481POPC   C1B23299  23.110  41.748   8.741
 1481POPC   C2B23300  22.910  41.920   8.340
 1481POPC   C3B23301  22.811  41.911   7.900
 1481POPC   C4B23302  23.051  42.003   7.509
 1482POPC   NC323303  11.136   8.081   9.576
 1482POPC   PO423304  11.644   8.602   9.554
 1482POPC   GL123305  11.476   8.299   9.245
 1482POPC   GL223306  11.107   8.302   9.114
 1482POPC   C1A23307  11.561   8.093   8.862
 1482POPC   D2A23308  11.476   7.894   8.470
 1482POPC   C3A23309  11.723   8.035   8.130
 1482POPC   C4A23310  11.647   8.331   7.863
 1482POPC   C1B23311  10.898   7.960   8.882
 1482POPC   C2B23312  10.942   7.908   8.437
 1482POPC   C3B23313  11.196   8.188   8.149
 1482POPC   C4B23314  11.172   8.524   7.847
 1483POPC   NC323315   9.900  18.614   9.448
 1483POPC   PO423316   9.822  18.028   9.494
 1483POPC   GL123317   9.826  18.216   9.080
 1483POPC   GL223318   9.534  18.397   9.133
 1483POPC   C1A23319   9.922  18.135   8.622
 1483POPC   D2A23320  10.041  18.094   8.159
 1483POPC   C3A23321   9.970  18.429   7.831
 1483POPC   C4A23322   9.735  18.358   7.470
 1483POPC   C1B23323   9.605  18.535   8.695
 1483POPC   C2B23324   9.683  18.455   8.249
 1483POPC   C3B23325   9.479  18.596   7.842
 1483POPC   C4B23326   9.362  18.720   7.393
 1484POPC   NC323327   5.466  36.666   9.420
 1484POPC   PO423328   5.972  37.023   9.796
 1484POPC   GL123329   5.769  37.096   9.344
 1484POPC   GL223330   5.852  36.791   9.103
 1484POPC   C1A23331   5.613  37.145   8.868
 1484POPC   D2A23332   5.908  36.902   8.591
 1484POPC   C3A23333   5.948  36.889   8.175
 1484POPC   C4A23334   6.013  36.986   7.748
 1484POPC   C1B23335   5.535  36.598   8.773
 1484POPC   C2B23336   5.455  36.678   8.312
 1484POPC   C3B23337   5.637  36.593   7.893
 1484POPC   C4B23338   5.557  36.650   7.439
 1485POPC   NC323339  11.985  25.070   9.653
 1485POPC   PO423340  11.562  25.571   9.457
 1485POPC   GL123341  11.897  25.611   9.157
 1485POPC   GL223342  11.924  25.274   9.106
 1485POPC   C1A23343  12.165  25.542   8.753
 1485POPC   D2A23344  12.196  25.245   8.405
 1485POPC   C3A23345  12.266  25.453   7.993
 1485POPC   C4A23346  12.101  25.367   7.596
 1485POPC   C1B23347  11.651  25.089   8.760
 1485POPC   C2B23348  11.698  25.055   8.350
 1485POPC   C3B23349  11.934  25.041   7.994
 1485POPC   C4B23350  11.670  25.041   7.652
 1486POPC   NC323351  23.793  15.381   9.675
 1486POPC   PO423352  24.056  14.781   9.504
 1486POPC   GL123353  23.803  15.125   9.226
 1486POPC   GL223354  23.824  14.905   8.953
 1486POPC   C1A23355  23.528  15.293   8.892
 1486POPC   D2A23356  23.545  15.067   8.483
 1486POPC   C3A23357  23.488  15.260   8.069
 1486POPC   C4A23358  23.676  15.299   7.669
 1486POPC   C1B23359  24.000  14.806   8.560
 1486POPC   C2B23360  23.741  14.641   8.242
 1486POPC   C3B23361  23.699  14.758   7.803
 1486POPC   C4B23362  23.868  14.686   7.346
 1487POPC   NC323363   5.211  40.947   9.462
 1487POPC   PO423364   5.101  40.365   9.273
 1487POPC   GL123365   4.928  40.676   9.044
 1487POPC   GL223366   5.220  40.884   8.966
 1487POPC   C1A23367   4.836  40.825   8.636
 1487POPC   D2A23368   5.013  40.591   8.299
 1487POPC   C3A23369   4.988  40.858   7.972
 1487POPC   C4A23370   4.716  40.780   7.654
 1487POPC   C1B23371   5.366  40.567   8.691
 1487POPC   C2B23372   5.600  40.469   8.325
 1487POPC   C3B23373   5.440  40.591   7.924
 1487POPC   C4B23374   5.375  40.495   7.485
 1488POPC   NC323375  17.578  10.748   9.459
 1488POPC   PO423376  17.283  10.110   9.496
 1488POPC   GL123377  17.505  10.328   9.150
 1488POPC   GL223378  17.860  10.362   9.197
 1488POPC   C1A23379  17.531  10.363   8.703
 1488POPC   D2A23380  17.400  10.680   8.406
 1488POPC   C3A23381  17.427  10.467   8.020
 1488POPC   C4A23382  17.681  10.143   7.784
 1488POPC   C1B23383  17.986  10.547   8.831
 1488POPC   C2B23384  17.918  10.653   8.459
 1488POPC   C3B23385  17.914  10.584   8.061
 1488POPC   C4B23386  17.734  10.663   7.672
 1489POPC   NC323387  35.697  33.969   9.415
 1489POPC   PO423388  36.334  33.759   9.674
 1489POPC   GL123389  36.098  33.838   9.138
 1489POPC   GL223390  36.166  34.112   9.025
 1489POPC   C1A23391  35.949  33.922   8.637
 1489POPC   D2A23392  35.849  33.655   8.277
 1489POPC   C3A23393  36.032  33.660   7.893
 1489POPC   C4A23394  35.980  33.284   7.668
 1489POPC   C1B23395  36.445  33.908   8.693
 1489POPC   C2B23396  36.366  33.816   8.263
 1489POPC   C3B23397  36.454  33.949   7.838
 1489POPC   C4B23398  36.377  33.765   7.423
 1490POPC   NC323399   7.786  44.595   9.545
 1490POPC   PO423400   8.529  44.414   9.470
 1490POPC   GL123401   8.255  44.636   9.177
 1490POPC   GL223402   8.055  44.389   9.149
 1490POPC   C1A23403   8.311  44.884   8.776
 1490POPC   D2A23404   8.632  44.955   8.410
 1490POPC   C3A23405   8.456  44.981   7.974
 1490POPC   C4A23406   8.423   0.298   7.639
 1490POPC   C1B23407   8.227  44.367   8.722
 1490POPC   C2B23408   8.194  44.605   8.342
 1490POPC   C3B23409   8.280  44.488   7.921
 1490POPC   C4B23410   8.140  44.742   7.599
 1491POPC   NC323411  44.344  35.520   9.688
 1491POPC   PO423412  44.303  34.842   9.635
 1491POPC   GL123413  44.227  35.230   9.271
 1491POPC   GL223414  43.911  35.376   9.028
 1491POPC   C1A23415  44.334  35.264   8.809
 1491POPC   D2A23416  44.054  35.483   8.523
 1491POPC   C3A23417  44.051  35.518   8.084
 1491POPC   C4A23418  43.931  35.261   7.739
 1491POPC   C1B23419  43.583  35.347   8.661
 1491POPC   C2B23420  43.497  35.296   8.186
 1491POPC   C3B23421  43.455  35.078   7.778
 1491POPC   C4B23422  43.604  35.223   7.333
 1492POPC   NC323423  44.346  38.560   9.738
 1492POPC   PO423424  43.713  38.373   9.563
 1492POPC   GL123425  43.717  38.744   9.240
 1492POPC   GL223426  43.990  38.728   9.010
 1492POPC   C1A23427  43.523  38.789   8.816
 1492POPC   D2A23428  43.577  38.454   8.468
 1492POPC   C3A23429  43.653  38.366   8.019
 1492POPC   C4A23430  43.565  38.675   7.702
 1492POPC   C1B23431  43.902  38.311   8.843
 1492POPC   C2B23432  44.026  38.176   8.434
 1492POPC   C3B23433  44.158  38.446   8.117
 1492POPC   C4B23434  44.058  38.544   7.712
 1493POPC   NC323435  15.876  29.487   9.405
 1493POPC   PO423436  16.136  28.834   9.458
 1493POPC   GL123437  16.087  29.095   9.130
 1493POPC   GL223438  15.772  29.089   9.089
 1493POPC   C1A23439  16.151  29.176   8.697
 1493POPC   D2A23440  15.936  28.956   8.367
 1493POPC   C3A23441  15.808  29.192   8.023
 1493POPC   C4A23442  16.085  29.375   7.775
 1493POPC   C1B23443  15.668  29.309   8.725
 1493POPC   C2B23444  15.639  29.568   8.363
 1493POPC   C3B23445  15.721  29.717   7.974
 1493POPC   C4B23446  15.647  29.546   7.564
 1494POPC   NC323447  36.797  42.706   9.238
 1494POPC   PO423448  37.094  43.256   9.371
 1494POPC   GL123449  37.122  43.021   9.000
 1494POPC   GL223450  36.766  43.083   8.891
 1494POPC   C1A23451  37.062  42.716   8.640
 1494POPC   D2A23452  36.757  42.769   8.292
 1494POPC   C3A23453  36.980  42.915   7.920
 1494POPC   C4A23454  37.122  43.360   7.823
 1494POPC   C1B23455  36.704  43.460   8.635
 1494POPC   C2B23456  36.714  43.555   8.174
 1494POPC   C3B23457  36.618  43.271   7.834
 1494POPC   C4B23458  36.422  42.877   7.905
 1495POPC   NC323459  36.397   2.313   9.309
 1495POPC   PO423460  36.506   2.974   9.436
 1495POPC   GL123461  36.139   2.848   9.182
 1495POPC   GL223462  36.306   2.650   8.922
 1495POPC   C1A23463  35.881   2.914   8.797
 1495POPC   D2A23464  36.063   2.713   8.440
 1495POPC   C3A23465  36.031   2.847   8.039
 1495POPC   C4A23466  36.397   2.891   7.848
 1495POPC   C1B23467  35.916   2.396   8.820
 1495POPC   C2B23468  35.722   2.278   8.455
 1495POPC   C3B23469  35.981   2.325   8.080
 1495POPC   C4B23470  36.080   2.536   7.650
 1496POPC   NC323471  22.152  33.539   9.533
 1496POPC   PO423472  21.840  34.156   9.486
 1496POPC   GL123473  21.965  33.883   9.180
 1496POPC   GL223474  21.712  33.662   9.141
 1496POPC   C1A23475  22.192  33.948   8.806
 1496POPC   D2A23476  22.252  34.299   8.500
 1496POPC   C3A23477  22.219  34.195   8.057
 1496POPC   C4A23478  22.496  34.018   7.781
 1496POPC   C1B23479  21.848  33.541   8.763
 1496POPC   C2B23480  21.750  33.417   8.381
 1496POPC   C3B23481  21.823  33.483   8.020
 1496POPC   C4B23482  22.093  33.685   7.737
 1497POPC   NC323483  34.260   0.163   9.344
 1497POPC   PO423484  33.806   0.512   9.702
 1497POPC   GL123485  33.733   0.594   9.198
 1497POPC   GL223486  33.903   0.330   9.004
 1497POPC   C1A23487  33.561   0.590   8.736
 1497POPC   D2A23488  33.704   0.289   8.435
 1497POPC   C3A23489  33.890   0.266   8.004
 1497POPC   C4A23490  33.798   0.102   7.599
 1497POPC   C1B23491  34.057   0.648   8.685
 1497POPC   C2B23492  34.060   0.673   8.277
 1497POPC   C3B23493  34.145   0.729   7.892
 1497POPC   C4B23494  33.911   0.612   7.544
 1498POPC   NC323495  13.238  14.329   9.376
 1498POPC   PO423496  13.980  14.088   9.509
 1498POPC   GL123497  13.692  14.183   9.192
 1498POPC   GL223498  13.666  14.562   9.191
 1498POPC   C1A23499  13.473  14.178   8.785
 1498POPC   D2A23500  13.675  14.173   8.380
 1498POPC   C3A23501  13.513  14.170   7.935
 1498POPC   C4A23502  13.852  14.192   7.612
 1498POPC   C1B23503  13.932  14.431   8.807
 1498POPC   C2B23504  14.096  14.615   8.426
 1498POPC   C3B23505  13.958  14.457   8.038
 1498POPC   C4B23506  13.637  14.682   7.814
 1499POPC   NC323507  23.524  24.959   9.674
 1499POPC   PO423508  24.014  25.433   9.473
 1499POPC   GL123509  23.777  25.306   9.163
 1499POPC   GL223510  23.815  24.970   9.219
 1499POPC   C1A23511  23.724  25.457   8.742
 1499POPC   D2A23512  23.851  25.569   8.336
 1499POPC   C3A23513  23.674  25.447   7.981
 1499POPC   C4A23514  23.879  25.418   7.590
 1499POPC   C1B23515  23.960  24.978   8.775
 1499POPC   C2B23516  24.090  25.069   8.339
 1499POPC   C3B23517  23.948  25.010   7.899
 1499POPC   C4B23518  23.518  25.049   7.709
 1500POPC   NC323519  16.840  32.510   9.516
 1500POPC   PO423520  16.720  31.843   9.476
 1500POPC   GL123521  16.858  32.138   9.118
 1500POPC   GL223522  16.704  32.487   9.020
 1500POPC   C1A23523  16.711  32.058   8.699
 1500POPC   D2A23524  16.892  31.977   8.311
 1500POPC   C3A23525  16.739  31.903   7.907
 1500POPC   C4A23526  16.646  32.028   7.491
 1500POPC   C1B23527  17.018  32.469   8.665
 1500POPC   C2B23528  17.166  32.409   8.218
 1500POPC   C3B23529  16.998  32.363   7.758
 1500POPC   C4B23530  16.788  32.491   7.340
 1501POPC   NC323531  16.257  41.875   9.645
 1501POPC   PO423532  16.581  41.337   9.394
 1501POPC   GL123533  16.724  41.581   9.075
 1501POPC   GL223534  16.675  41.928   9.066
 1501POPC   C1A23535  16.673  41.546   8.666
 1501POPC   D2A23536  16.762  41.204   8.451
 1501POPC   C3A23537  16.669  41.301   8.041
 1501POPC   C4A23538  16.772  41.402   7.625
 1501POPC   C1B23539  17.049  41.884   8.755
 1501POPC   C2B23540  16.985  41.765   8.311
 1501POPC   C3B23541  16.735  41.845   7.936
 1501POPC   C4B23542  16.445  41.891   7.574
 1502POPC   NC323543  24.948  37.340   9.288
 1502POPC   PO423544  24.732  37.932   9.510
 1502POPC   GL123545  24.475  37.767   9.169
 1502POPC   GL223546  24.470  37.415   9.039
 1502POPC   C1A23547  24.241  37.899   8.816
 1502POPC   D2A23548  24.079  38.089   8.463
 1502POPC   C3A23549  24.309  38.030   8.097
 1502POPC   C4A23550  24.609  37.768   7.856
 1502POPC   C1B23551  24.428  37.472   8.574
 1502POPC   C2B23552  24.587  37.311   8.165
 1502POPC   C3B23553  24.471  37.282   7.715
 1502POPC   C4B23554  24.305  37.285   7.295
 1503POPC   NC323555  31.599   0.121   9.508
 1503POPC   PO423556  31.617  44.485   9.373
 1503POPC   GL123557  31.363  44.678   9.060
 1503POPC   GL223558  31.626  44.908   9.043
 1503POPC   C1A23559  31.198  44.537   8.627
 1503POPC   D2A23560  31.428  44.400   8.223
 1503POPC   C3A23561  31.246  44.473   7.802
 1503POPC   C4A23562  31.179  44.488   7.314
 1503POPC   C1B23563  31.632  44.787   8.644
 1503POPC   C2B23564  31.442  44.902   8.297
 1503POPC   C3B23565  31.619  44.867   7.943
 1503POPC   C4B23566  31.596  44.721   7.553
 1504POPC   NC323567   5.325   9.259   9.390
 1504POPC   PO423568   5.008   9.828   9.661
 1504POPC   GL123569   4.877   9.658   9.267
 1504POPC   GL223570   5.189   9.722   9.099
 1504POPC   C1A23571   4.767   9.710   8.819
 1504POPC   D2A23572   4.793   9.883   8.400
 1504POPC   C3A23573   4.988   9.757   8.071
 1504POPC   C4A23574   4.775   9.633   7.726
 1504POPC   C1B23575   5.271   9.796   8.650
 1504POPC   C2B23576   5.454   9.633   8.290
 1504POPC   C3B23577   5.342   9.413   7.954
 1504POPC   C4B23578   5.298   9.540   7.541
 1505POPC   NC323579  35.627  13.873   9.484
 1505POPC   PO423580  35.231  13.383   9.714
 1505POPC   GL123581  35.365  13.495   9.251
 1505POPC   GL223582  35.683  13.607   9.079
 1505POPC   C1A23583  35.323  13.421   8.804
 1505POPC   D2A23584  35.466  13.676   8.487
 1505POPC   C3A23585  35.207  13.783   8.138
 1505POPC   C4A23586  35.287  13.855   7.672
 1505POPC   C1B23587  35.834  13.349   8.746
 1505POPC   C2B23588  35.858  13.372   8.318
 1505POPC   C3B23589  35.592  13.509   7.993
 1505POPC   C4B23590  35.398  13.323   7.626
 1506POPC   NC323591  17.655   4.638   9.408
 1506POPC   PO423592  17.628   3.990   9.410
 1506POPC   GL123593  17.250   4.100   9.130
 1506POPC   GL223594  17.210   4.475   9.063
 1506POPC   C1A23595  17.328   3.934   8.716
 1506POPC   D2A23596  17.624   4.052   8.385
 1506POPC   C3A23597  17.519   4.067   7.970
 1506POPC   C4A23598  17.143   4.228   7.797
 1506POPC   C1B23599  17.599   4.362   8.813
 1506POPC   C2B23600  17.780   4.560   8.452
 1506POPC   C3B23601  17.708   4.701   8.045
 1506POPC   C4B23602  17.600   4.480   7.696
 1507POPC   NC323603  20.195  30.753   9.607
 1507POPC   PO423604  20.763  30.415   9.591
 1507POPC   GL123605  20.511  30.589   9.221
 1507POPC   GL223606  20.349  30.949   9.171
 1507POPC   C1A23607  20.706  30.541   8.808
 1507POPC   D2A23608  20.522  30.476   8.410
 1507POPC   C3A23609  20.784  30.410   8.081
 1507POPC   C4A23610  20.755  30.316   7.669
 1507POPC   C1B23611  20.369  30.912   8.764
 1507POPC   C2B23612  20.684  30.954   8.454
 1507POPC   C3B23613  20.503  30.870   8.079
 1507POPC   C4B23614  20.705  30.854   7.739
 1508POPC   NC323615  24.908  13.978   9.360
 1508POPC   PO423616  25.582  13.965   9.437
 1508POPC   GL123617  25.374  14.206   9.112
 1508POPC   GL223618  25.139  14.494   9.152
 1508POPC   C1A23619  25.338  14.347   8.682
 1508POPC   D2A23620  25.206  14.168   8.295
 1508POPC   C3A23621  25.260  14.415   7.922
 1508POPC   C4A23622  25.172  14.197   7.518
 1508POPC   C1B23623  25.005  14.751   8.834
 1508POPC   C2B23624  24.985  14.648   8.408
 1508POPC   C3B23625  25.034  14.875   8.057
 1508POPC   C4B23626  25.302  14.940   7.754
 1509POPC   NC323627  40.337  15.480   9.641
 1509POPC   PO423628  39.835  15.066   9.521
 1509POPC   GL123629  40.132  15.181   9.263
 1509POPC   GL223630  40.073  15.513   9.199
 1509POPC   C1A23631  40.121  15.112   8.834
 1509POPC   D2A23632  40.122  14.922   8.457
 1509POPC   C3A23633  39.882  15.081   8.139
 1509POPC   C4A23634  40.080  15.083   7.749
 1509POPC   C1B23635  39.828  15.534   8.840
 1509POPC   C2B23636  40.021  15.467   8.455
 1509POPC   C3B23637  39.989  15.570   8.038
 1509POPC   C4B23638  39.692  15.455   7.770
 1510POPC   NC323639  43.384  12.351   9.567
 1510POPC   PO423640  42.964  11.709   9.509
 1510POPC   GL123641  43.060  11.917   9.108
 1510POPC   GL223642  43.288  12.207   9.097
 1510POPC   C1A23643  43.120  11.845   8.650
 1510POPC   D2A23644  42.871  11.630   8.309
 1510POPC   C3A23645  42.910  11.871   7.926
 1510POPC   C4A23646  42.898  12.227   7.675
 1510POPC   C1B23647  43.318  12.454   8.718
 1510POPC   C2B23648  43.124  12.356   8.326
 1510POPC   C3B23649  43.320  12.155   8.022
 1510POPC   C4B23650  43.363  11.983   7.652
 1511POPC   NC323651  29.830   7.169   9.493
 1511POPC   PO423652  29.991   6.570   9.583
 1511POPC   GL123653  30.141   6.772   9.219
 1511POPC   GL223654  29.802   6.856   9.088
 1511POPC   C1A23655  30.173   6.670   8.775
 1511POPC   D2A23656  29.812   6.636   8.511
 1511POPC   C3A23657  29.810   6.689   8.069
 1511POPC   C4A23658  29.766   6.605   7.635
 1511POPC   C1B23659  29.724   7.130   8.747
 1511POPC   C2B23660  29.512   7.045   8.345
 1511POPC   C3B23661  29.560   7.130   7.919
 1511POPC   C4B23662  29.455   6.979   7.495
 1512POPC   NC323663  30.086   0.019   9.440
 1512POPC   PO423664  29.822  44.429   9.573
 1512POPC   GL123665  29.698  44.574   9.165
 1512POPC   GL223666  29.991  44.760   9.008
 1512POPC   C1A23667  29.606  44.608   8.739
 1512POPC   D2A23668  29.974  44.635   8.478
 1512POPC   C3A23669  29.756  44.728   8.156
 1512POPC   C4A23670  29.743  44.745   7.716
 1512POPC   C1B23671  29.794   0.076   8.683
 1512POPC   C2B23672  29.727   0.218   8.249
 1512POPC   C3B23673  30.080   0.062   7.978
 1512POPC   C4B23674  30.244  44.644   7.852
 1513POPC   NC323675  10.379   0.205   9.438
 1513POPC   PO423676  10.823   0.664   9.484
 1513POPC   GL123677  10.745   0.423   9.136
 1513POPC   GL223678  10.821   0.049   9.151
 1513POPC   C1A23679  10.668   0.622   8.743
 1513POPC   D2A23680  10.560   0.805   8.355
 1513POPC   C3A23681  10.831   0.659   8.032
 1513POPC   C4A23682  10.769   0.349   7.704
 1513POPC   C1B23683  10.531   0.126   8.781
 1513POPC   C2B23684  10.587   0.259   8.347
 1513POPC   C3B23685  10.424   0.070   7.965
 1513POPC   C4B23686  10.353   0.067   7.507
 1514POPC   NC323687  37.321   0.311   9.437
 1514POPC   PO423688  36.693   0.499   9.510
 1514POPC   GL123689  36.915   0.569   9.146
 1514POPC   GL223690  36.959   0.221   9.079
 1514POPC   C1A23691  36.696   0.672   8.761
 1514POPC   D2A23692  36.611   0.512   8.346
 1514POPC   C3A23693  36.660   0.773   7.985
 1514POPC   C4A23694  36.853   0.651   7.615
 1514POPC   C1B23695  37.023   0.285   8.665
 1514POPC   C2B23696  37.223   0.170   8.299
 1514POPC   C3B23697  37.021   0.318   7.957
 1514POPC   C4B23698  36.909   0.130   7.571
 1515POPC   NC323699  15.624  40.426   9.692
 1515POPC   PO423700  15.999  39.818   9.636
 1515POPC   GL123701  15.998  40.028   9.271
 1515POPC   GL223702  15.719  40.158   9.262
 1515POPC   C1A23703  16.085  39.910   8.859
 1515POPC   D2A23704  16.203  39.904   8.443
 1515POPC   C3A23705  15.891  39.935   8.120
 1515POPC   C4A23706  16.022  39.825   7.724
 1515POPC   C1B23707  15.639  40.149   8.842
 1515POPC   C2B23708  15.843  40.314   8.480
 1515POPC   C3B23709  15.659  40.436   8.100
 1515POPC   C4B23710  15.819  40.285   7.719
 1516POPC   NC323711  18.858  43.553   9.438
 1516POPC   PO423712  18.989  44.247   9.492
 1516POPC   GL123713  19.048  43.955   9.140
 1516POPC   GL223714  19.312  43.690   9.118
 1516POPC   C1A23715  18.936  43.908   8.703
 1516POPC   D2A23716  18.768  43.757   8.304
 1516POPC   C3A23717  18.945  43.914   7.910
 1516POPC   C4A23718  18.909  44.034   7.448
 1516POPC   C1B23719  19.202  43.488   8.783
 1516POPC   C2B23720  19.262  43.649   8.383
 1516POPC   C3B23721  19.247  43.515   7.996
 1516POPC   C4B23722  19.308  43.695   7.562
 1517POPC   NC323723  19.877  16.867   9.493
 1517POPC   PO423724  20.169  16.281   9.297
 1517POPC   GL123725  20.092  16.657   9.047
 1517POPC   GL223726  20.216  17.006   9.130
 1517POPC   C1A23727  19.851  16.630   8.661
 1517POPC   D2A23728  19.939  16.586   8.221
 1517POPC   C3A23729  19.576  16.551   8.006
 1517POPC   C4A23730  19.580  16.213   7.746
 1517POPC   C1B23731  20.014  17.119   8.735
 1517POPC   C2B23732  20.069  17.068   8.282
 1517POPC   C3B23733  20.081  16.955   7.842
 1517POPC   C4B23734  19.944  16.589   7.635
 1518POPC   NC323735   7.737  23.153   9.561
 1518POPC   PO423736   8.463  22.900   9.470
 1518POPC   GL123737   8.335  22.957   9.086
 1518POPC   GL223738   8.057  23.119   9.149
 1518POPC   C1A23739   8.297  22.700   8.737
 1518POPC   D2A23740   7.989  22.647   8.429
 1518POPC   C3A23741   8.164  22.695   8.041
 1518POPC   C4A23742   8.100  22.551   7.660
 1518POPC   C1B23743   8.010  23.116   8.694
 1518POPC   C2B23744   8.234  23.153   8.301
 1518POPC   C3B23745   8.448  23.106   7.906
 1518POPC   C4B23746   8.499  23.385   7.542
 1519POPC   NC323747  10.820  21.841   9.602
 1519POPC   PO423748  10.313  21.323   9.736
 1519POPC   GL123749  10.728  21.385   9.379
 1519POPC   GL223750  10.702  21.674   9.130
 1519POPC   C1A23751  10.807  21.224   8.908
 1519POPC   D2A23752  10.577  21.070   8.500
 1519POPC   C3A23753  10.663  21.237   8.058
 1519POPC   C4A23754  10.391  21.146   7.671
 1519POPC   C1B23755  10.442  21.668   8.748
 1519POPC   C2B23756  10.387  21.570   8.339
 1519POPC   C3B23757  10.368  21.616   7.899
 1519POPC   C4B23758  10.659  21.591   7.608
 1520POPC   NC323759  17.348  43.333   9.488
 1520POPC   PO423760  18.012  42.982   9.571
 1520POPC   GL123761  17.776  43.153   9.239
 1520POPC   GL223762  17.525  42.940   9.219
 1520POPC   C1A23763  17.664  43.281   8.820
 1520POPC   D2A23764  17.854  43.380   8.410
 1520POPC   C3A23765  17.663  43.202   8.046
 1520POPC   C4A23766  17.254  43.175   7.864
 1520POPC   C1B23767  17.684  42.758   8.844
 1520POPC   C2B23768  17.548  42.817   8.417
 1520POPC   C3B23769  17.486  42.650   8.012
 1520POPC   C4B23770  17.626  42.829   7.655
 1521POPC   NC323771  29.690  33.249   9.507
 1521POPC   PO423772  29.555  33.912   9.575
 1521POPC   GL123773  29.714  33.656   9.221
 1521POPC   GL223774  30.068  33.596   9.190
 1521POPC   C1A23775  29.719  33.556   8.800
 1521POPC   D2A23776  29.526  33.534   8.404
 1521POPC   C3A23777  29.760  33.758   8.107
 1521POPC   C4A23778  29.884  33.680   7.711
 1521POPC   C1B23779  30.235  33.405   8.777
 1521POPC   C2B23780  30.086  33.391   8.314
 1521POPC   C3B23781  30.307  33.546   7.952
 1521POPC   C4B23782  30.362  33.807   7.569
 1522POPC   NC323783  28.740  40.647   9.740
 1522POPC   PO423784  29.295  40.960   9.605
 1522POPC   GL123785  29.250  41.097   9.158
 1522POPC   GL223786  28.907  40.983   9.163
 1522POPC   C1A23787  29.233  40.902   8.718
 1522POPC   D2A23788  29.049  40.718   8.332
 1522POPC   C3A23789  29.216  40.819   7.909
 1522POPC   C4A23790  29.578  40.655   7.790
 1522POPC   C1B23791  28.822  41.181   8.770
 1522POPC   C2B23792  28.640  41.015   8.378
 1522POPC   C3B23793  28.715  40.826   7.950
 1522POPC   C4B23794  28.849  40.812   7.483
 1523POPC   NC323795  37.907  34.373   9.615
 1523POPC   PO423796  38.568  34.526   9.618
 1523POPC   GL123797  38.444  34.528   9.194
 1523POPC   GL223798  38.792  34.426   9.127
 1523POPC   C1A23799  38.436  34.788   8.803
 1523POPC   D2A23800  38.321  35.127   8.504
 1523POPC   C3A23801  38.224  35.013   8.062
 1523POPC   C4A23802  38.548  34.974   7.743
 1523POPC   C1B23803  38.632  34.243   8.742
 1523POPC   C2B23804  38.393  34.291   8.373
 1523POPC   C3B23805  38.480  34.552   8.047
 1523POPC   C4B23806  38.752  34.407   7.738
 1524POPC   NC323807  29.721  17.326   9.733
 1524POPC   PO423808  30.147  17.717   9.410
 1524POPC   GL123809  29.870  17.570   9.094
 1524POPC   GL223810  29.577  17.390   9.231
 1524POPC   C1A23811  29.855  17.848   8.728
 1524POPC   D2A23812  30.038  17.911   8.302
 1524POPC   C3A23813  29.951  17.690   7.892
 1524POPC   C4A23814  30.304  17.561   7.580
 1524POPC   C1B23815  29.472  17.469   8.801
 1524POPC   C2B23816  29.627  17.534   8.398
 1524POPC   C3B23817  29.569  17.325   8.048
 1524POPC   C4B23818  29.498  17.431   7.659
 1525POPC   NC323819  29.479  21.012   9.344
 1525POPC   PO423820  29.127  21.486   9.611
 1525POPC   GL123821  29.013  21.524   9.241
 1525POPC   GL223822  29.331  21.437   9.131
 1525POPC   C1A23823  28.867  21.491   8.834
 1525POPC   D2A23824  29.009  21.589   8.425
 1525POPC   C3A23825  28.892  21.407   8.042
 1525POPC   C4A23826  29.048  21.451   7.628
 1525POPC   C1B23827  29.273  21.192   8.729
 1525POPC   C2B23828  29.402  21.286   8.314
 1525POPC   C3B23829  29.385  21.195   7.905
 1525POPC   C4B23830  29.326  21.007   7.504
 1526POPC   NC323831  21.232  43.471   9.567
 1526POPC   PO423832  21.569  42.896   9.689
 1526POPC   GL123833  21.414  42.741   9.167
 1526POPC   GL223834  21.090  42.663   9.048
 1526POPC   C1A23835  21.400  42.902   8.715
 1526POPC   D2A23836  21.505  42.766   8.291
 1526POPC   C3A23837  21.695  43.089   8.055
 1526POPC   C4A23838  21.599  43.128   7.614
 1526POPC   C1B23839  20.881  42.925   8.701
 1526POPC   C2B23840  21.055  43.048   8.287
 1526POPC   C3B23841  21.216  42.932   7.863
 1526POPC   C4B23842  21.090  42.970   7.399
 1527POPC   NC323843   2.726  20.360   9.436
 1527POPC   PO423844   2.763  19.656   9.598
 1527POPC   GL123845   2.706  19.840   9.225
 1527POPC   GL223846   3.008  19.808   9.101
 1527POPC   C1A23847   2.647  19.979   8.783
 1527POPC   D2A23848   2.779  19.833   8.380
 1527POPC   C3A23849   2.751  20.052   7.994
 1527POPC   C4A23850   2.535  19.977   7.638
 1527POPC   C1B23851   2.860  19.500   8.791
 1527POPC   C2B23852   2.773  19.312   8.367
 1527POPC   C3B23853   2.853  19.527   7.957
 1527POPC   C4B23854   3.010  19.810   7.589
 1528POPC   NC323855  28.472  31.780   9.789
 1528POPC   PO423856  28.223  31.204   9.649
 1528POPC   GL123857  28.431  31.545   9.345
 1528POPC   GL223858  28.107  31.658   9.371
 1528POPC   C1A23859  28.573  31.782   8.941
 1528POPC   D2A23860  28.798  31.608   8.542
 1528POPC   C3A23861  28.624  31.728   8.118
 1528POPC   C4A23862  28.583  31.457   7.732
 1528POPC   C1B23863  28.084  31.608   8.925
 1528POPC   C2B23864  28.278  31.652   8.506
 1528POPC   C3B23865  28.154  31.541   8.086
 1528POPC   C4B23866  28.165  31.724   7.673
 1529POPC   NC323867  13.354  24.943   9.860
 1529POPC   PO423868  13.772  24.591   9.399
 1529POPC   GL123869  13.550  24.453   9.072
 1529POPC   GL223870  13.419  24.699   8.864
 1529POPC   C1A23871  13.705  24.313   8.715
 1529POPC   D2A23872  13.652  24.569   8.367
 1529POPC   C3A23873  13.744  24.341   8.010
 1529POPC   C4A23874  13.520  24.151   7.718
 1529POPC   C1B23875  13.424  25.000   8.579
 1529POPC   C2B23876  13.688  25.082   8.284
 1529POPC   C3B23877  13.789  24.863   7.945
 1529POPC   C4B23878  13.564  24.660   7.638
 1530POPC   NC323879  20.201  43.970   9.591
 1530POPC   PO423880  20.787  43.569   9.643
 1530POPC   GL123881  20.494  43.678   9.234
 1530POPC   GL223882  20.387  44.005   9.131
 1530POPC   C1A23883  20.427  43.667   8.755
 1530POPC   D2A23884  20.346  43.841   8.313
 1530POPC   C3A23885  20.644  43.669   7.958
 1530POPC   C4A23886  20.929  43.344   7.787
 1530POPC   C1B23887  20.429  44.196   8.747
 1530POPC   C2B23888  20.156  44.430   8.510
 1530POPC   C3B23889  20.166  44.410   8.084
 1530POPC   C4B23890  20.450  44.128   7.858
 1531POPC   NC323891   2.483  10.719   9.199
 1531POPC   PO423892   3.080  10.574   9.578
 1531POPC   GL123893   2.927  10.484   9.187
 1531POPC   GL223894   3.007  10.826   9.104
 1531POPC   C1A23895   2.814  10.283   8.775
 1531POPC   D2A23896   3.037  10.289   8.371
 1531POPC   C3A23897   2.920  10.534   8.020
 1531POPC   C4A23898   2.476  10.513   8.017
 1531POPC   C1B23899   2.954  10.756   8.652
 1531POPC   C2B23900   2.728  10.927   8.287
 1531POPC   C3B23901   2.650  11.080   7.889
 1531POPC   C4B23902   2.602  11.104   7.432
 1532POPC   NC323903  35.987  27.340   9.651
 1532POPC   PO423904  36.383  27.792   9.488
 1532POPC   GL123905  36.247  27.418   9.210
 1532POPC   GL223906  35.918  27.225   9.149
 1532POPC   C1A23907  36.226  27.442   8.780
 1532POPC   D2A23908  36.488  27.595   8.493
 1532POPC   C3A23909  36.256  27.662   8.119
 1532POPC   C4A23910  36.312  27.624   7.696
 1532POPC   C1B23911  35.739  27.351   8.757
 1532POPC   C2B23912  35.870  27.717   8.457
 1532POPC   C3B23913  35.759  27.732   8.006
 1532POPC   C4B23914  35.834  27.461   7.684
 1533POPC   NC323915  30.839   8.499   9.763
 1533POPC   PO423916  30.434   8.052   9.584
 1533POPC   GL123917  30.614   8.097   9.169
 1533POPC   GL223918  30.780   8.355   9.244
 1533POPC   C1A23919  30.597   8.142   8.724
 1533POPC   D2A23920  30.371   8.087   8.346
 1533POPC   C3A23921  30.623   8.123   7.977
 1533POPC   C4A23922  30.763   7.774   7.759
 1533POPC   C1B23923  31.013   8.432   8.838
 1533POPC   C2B23924  30.895   8.487   8.406
 1533POPC   C3B23925  30.976   8.656   8.000
 1533POPC   C4B23926  30.912   8.407   7.647
 1534POPC   NC323927  20.034  22.710   9.433
 1534POPC   PO423928  19.774  23.180   9.797
 1534POPC   GL123929  19.725  23.102   9.273
 1534POPC   GL223930  19.579  22.800   9.138
 1534POPC   C1A23931  19.898  23.091   8.796
 1534POPC   D2A23932  20.047  22.767   8.497
 1534POPC   C3A23933  20.022  22.674   8.052
 1534POPC   C4A23934  19.817  22.734   7.677
 1534POPC   C1B23935  19.407  23.170   8.866
 1534POPC   C2B23936  19.501  23.235   8.442
 1534POPC   C3B23937  19.641  23.076   8.039
 1534POPC   C4B23938  19.584  23.179   7.590
 1535POPC   NC323939  18.579  40.806   9.750
 1535POPC   PO423940  18.072  41.024   9.411
 1535POPC   GL123941  18.186  40.771   9.039
 1535POPC   GL223942  18.071  40.430   9.036
 1535POPC   C1A23943  18.019  40.754   8.636
 1535POPC   D2A23944  17.999  40.430   8.336
 1535POPC   C3A23945  17.990  40.649   7.981
 1535POPC   C4A23946  18.236  40.937   7.766
 1535POPC   C1B23947  18.392  40.394   8.683
 1535POPC   C2B23948  18.502  40.264   8.250
 1535POPC   C3B23949  18.470  40.449   7.825
 1535POPC   C4B23950  18.160  40.513   7.500
 1536POPC   NC323951  18.602  23.512   9.539
 1536POPC   PO423952  18.031  24.000   9.520
 1536POPC   GL123953  18.176  23.835   9.162
 1536POPC   GL223954  18.170  23.512   9.147
 1536POPC   C1A23955  18.061  23.781   8.745
 1536POPC   D2A23956  18.322  23.777   8.439
 1536POPC   C3A23957  18.038  23.757   8.153
 1536POPC   C4A23958  18.107  23.720   7.755
 1536POPC   C1B23959  18.480  23.469   8.832
 1536POPC   C2B23960  18.493  23.272   8.428
 1536POPC   C3B23961  18.482  23.493   8.048
 1536POPC   C4B23962  18.419  23.319   7.682
 1537POPC   NC323963  16.935  36.167   9.499
 1537POPC   PO423964  16.437  35.904   9.457
 1537POPC   GL123965  16.635  36.054   9.114
 1537POPC   GL223966  16.586  36.413   9.170
 1537POPC   C1A23967  16.810  36.196   8.750
 1537POPC   D2A23968  16.647  36.422   8.423
 1537POPC   C3A23969  16.598  36.236   8.013
 1537POPC   C4A23970  16.919  36.100   7.748
 1537POPC   C1B23971  16.293  36.435   8.809
 1537POPC   C2B23972  16.152  36.585   8.400
 1537POPC   C3B23973  16.426  36.747   8.082
 1537POPC   C4B23974  16.330  36.634   7.675
 1538POPC   NC323975   8.772  12.965   9.862
 1538POPC   PO423976   8.964  12.466   9.737
 1538POPC   GL123977   9.068  12.706   9.319
 1538POPC   GL223978   9.403  12.707   9.157
 1538POPC   C1A23979   9.000  12.869   8.846
 1538POPC   D2A23980   8.898  12.684   8.384
 1538POPC   C3A23981   8.809  12.714   7.895
 1538POPC   C4A23982   8.657  12.734   7.433
 1538POPC   C1B23983   9.374  12.540   8.729
 1538POPC   C2B23984   9.405  12.770   8.341
 1538POPC   C3B23985   9.236  12.977   7.965
 1538POPC   C4B23986   9.183  12.851   7.518
 1539POPC   NC323987  28.270  23.902   9.467
 1539POPC   PO423988  27.696  24.338   9.451
 1539POPC   GL123989  27.568  24.240   9.058
 1539POPC   GL223990  27.876  24.013   9.051
 1539POPC   C1A23991  27.497  24.477   8.665
 1539POPC   D2A23992  27.341  24.726   8.297
 1539POPC   C3A23993  27.545  24.631   7.895
 1539POPC   C4A23994  27.703  24.488   7.510
 1539POPC   C1B23995  27.707  23.997   8.620
 1539POPC   C2B23996  27.610  24.232   8.237
 1539POPC   C3B23997  27.929  24.230   7.908
 1539POPC   C4B23998  28.204  24.428   7.572
 1540POPC   NC323999  27.181  22.361   9.480
 1540POPC   PO424000  27.813  22.053   9.571
 1540POPC   GL124001  27.798  22.089   9.160
 1540POPC   GL224002  27.431  22.093   9.133
 1540POPC   C1A24003  27.722  22.307   8.790
 1540POPC   D2A24004  27.904  22.127   8.441
 1540POPC   C3A24005  27.799  22.243   8.066
 1540POPC   C4A24006  27.563  22.194   7.712
 1540POPC   C1B24007  27.157  21.868   8.844
 1540POPC   C2B24008  27.102  22.020   8.432
 1540POPC   C3B24009  27.379  21.953   8.125
 1540POPC   C4B24010  27.322  21.694   7.792
 1541POPC   NC324011  12.592  37.711   9.588
 1541POPC   PO424012  13.226  37.830   9.477
 1541POPC   GL124013  13.007  37.803   9.075
 1541POPC   GL224014  12.625  37.789   9.091
 1541POPC   C1A24015  13.087  37.605   8.656
 1541POPC   D2A24016  13.255  37.409   8.251
 1541POPC   C3A24017  13.046  37.591   7.857
 1541POPC   C4A24018  12.917  37.391   7.446
 1541POPC   C1B24019  12.671  37.931   8.685
 1541POPC   C2B24020  12.730  37.786   8.259
 1541POPC   C3B24021  12.642  37.947   7.846
 1541POPC   C4B24022  12.810  37.888   7.440
 1542POPC   NC324023  19.042  12.234   9.598
 1542POPC   PO424024  19.102  11.545   9.680
 1542POPC   GL124025  19.186  11.861   9.271
 1542POPC   GL224026  19.185  12.244   9.132
 1542POPC   C1A24027  19.268  11.888   8.793
 1542POPC   D2A24028  19.022  11.936   8.394
 1542POPC   C3A24029  19.187  11.990   7.937
 1542POPC   C4A24030  19.131  12.039   7.447
 1542POPC   C1B24031  18.935  12.499   8.878
 1542POPC   C2B24032  18.728  12.335   8.540
 1542POPC   C3B24033  18.740  12.232   8.108
 1542POPC   C4B24034  18.906  12.412   7.744
 1543POPC   NC324035  19.900  27.407   9.482
 1543POPC   PO424036  20.200  28.046   9.444
 1543POPC   GL124037  20.112  27.742   9.180
 1543POPC   GL224038  19.787  27.777   9.108
 1543POPC   C1A24039  20.115  27.461   8.817
 1543POPC   D2A24040  20.062  27.266   8.418
 1543POPC   C3A24041  19.836  27.379   8.015
 1543POPC   C4A24042  19.867  27.632   7.600
 1543POPC   C1B24043  19.950  27.943   8.750
 1543POPC   C2B24044  19.859  27.740   8.400
 1543POPC   C3B24045  19.924  27.889   8.026
 1543POPC   C4B24046  19.598  28.028   7.801
 1544POPC   NC324047  14.804  38.332   9.876
 1544POPC   PO424048  14.364  38.501   9.327
 1544POPC   GL124049  14.657  38.595   9.024
 1544POPC   GL224050  14.417  38.825   8.905
 1544POPC   C1A24051  14.711  38.344   8.633
 1544POPC   D2A24052  14.369  38.163   8.361
 1544POPC   C3A24053  14.482  38.234   7.954
 1544POPC   C4A24054  14.574  37.912   7.695
 1544POPC   C1B24055  14.250  38.528   8.696
 1544POPC   C2B24056  14.088  38.606   8.356
 1544POPC   C3B24057  14.036  38.481   7.982
 1544POPC   C4B24058  14.179  38.693   7.665
 1545POPC   NC324059  14.795  39.183   9.598
 1545POPC   PO424060  14.496  38.691   9.819
 1545POPC   GL124061  14.372  39.027   9.373
 1545POPC   GL224062  14.625  39.221   9.139
 1545POPC   C1A24063  14.151  39.260   8.967
 1545POPC   D2A24064  14.156  39.481   8.550
 1545POPC   C3A24065  14.293  39.255   8.188
 1545POPC   C4A24066  14.219  39.216   7.732
 1545POPC   C1B24067  14.611  39.493   8.790
 1545POPC   C2B24068  14.776  39.448   8.392
 1545POPC   C3B24069  14.774  39.335   7.976
 1545POPC   C4B24070  14.688  39.217   7.557
 1546POPC   NC324071  15.065  21.569   9.598
 1546POPC   PO424072  15.529  21.139   9.439
 1546POPC   GL124073  15.173  21.292   9.170
 1546POPC   GL224074  15.202  21.656   9.089
 1546POPC   C1A24075  15.220  21.228   8.736
 1546POPC   D2A24076  15.350  20.903   8.479
 1546POPC   C3A24077  15.401  21.103   8.078
 1546POPC   C4A24078  15.176  21.342   7.762
 1546POPC   C1B24079  15.130  21.712   8.640
 1546POPC   C2B24080  15.081  21.575   8.224
 1546POPC   C3B24081  14.983  21.798   7.829
 1546POPC   C4B24082  14.992  21.661   7.350
 1547POPC   NC324083  10.350  19.192   9.564
 1547POPC   PO424084   9.712  19.015   9.606
 1547POPC   GL124085   9.912  19.228   9.252
 1547POPC   GL224086  10.044  19.554   9.292
 1547POPC   C1A24087   9.907  19.122   8.804
 1547POPC   D2A24088   9.765  18.940   8.415
 1547POPC   C3A24089   9.877  18.921   7.981
 1547POPC   C4A24090   9.531  19.117   7.770
 1547POPC   C1B24091  10.098  19.591   8.835
 1547POPC   C2B24092   9.893  19.493   8.423
 1547POPC   C3B24093   9.904  19.430   7.981
 1547POPC   C4B24094  10.010  19.338   7.537
 1548POPC   NC324095  19.339  24.092   9.539
 1548POPC   PO424096  19.059  24.708   9.565
 1548POPC   GL124097  18.920  24.597   9.204
 1548POPC   GL224098  18.606  24.770   9.182
 1548POPC   C1A24099  19.162  24.430   8.845
 1548POPC   D2A24100  19.325  24.226   8.464
 1548POPC   C3A24101  19.195  24.352   8.063
 1548POPC   C4A24102  19.402  24.490   7.741
 1548POPC   C1B24103  18.651  24.558   8.791
 1548POPC   C2B24104  18.887  24.581   8.435
 1548POPC   C3B24105  18.717  24.542   8.055
 1548POPC   C4B24106  18.890  24.604   7.685
 1549POPC   NC324107  30.402  32.551   9.585
 1549POPC   PO424108  29.840  32.137   9.545
 1549POPC   GL124109  30.076  32.274   9.213
 1549POPC   GL224110  29.748  32.291   9.066
 1549POPC   C1A24111  30.249  32.273   8.777
 1549POPC   D2A24112  30.185  32.059   8.385
 1549POPC   C3A24113  30.120  32.234   7.947
 1549POPC   C4A24114  30.098  32.154   7.488
 1549POPC   C1B24115  29.761  32.142   8.680
 1549POPC   C2B24116  29.737  32.306   8.303
 1549POPC   C3B24117  29.547  32.145   8.011
 1549POPC   C4B24118  29.648  32.266   7.692
 1550POPC   NC324119  17.013  35.223   9.611
 1550POPC   PO424120  16.360  35.239   9.713
 1550POPC   GL124121  16.625  35.224   9.268
 1550POPC   GL224122  16.766  35.557   9.285
 1550POPC   C1A24123  16.737  35.113   8.805
 1550POPC   D2A24124  16.757  35.308   8.388
 1550POPC   C3A24125  16.570  35.141   8.018
 1550POPC   C4A24126  16.643  35.156   7.564
 1550POPC   C1B24127  16.766  35.636   8.848
 1550POPC   C2B24128  16.719  35.822   8.425
 1550POPC   C3B24129  16.753  35.687   7.985
 1550POPC   C4B24130  16.853  35.612   7.507
 1551POPC   NC324131   7.299  21.032   9.453
 1551POPC   PO424132   7.442  21.548   9.758
 1551POPC   GL124133   7.445  21.469   9.253
 1551POPC   GL224134   7.695  21.670   9.103
 1551POPC   C1A24135   7.176  21.388   8.838
 1551POPC   D2A24136   7.285  21.421   8.375
 1551POPC   C3A24137   7.457  21.212   8.005
 1551POPC   C4A24138   7.311  21.193   7.532
 1551POPC   C1B24139   7.655  21.406   8.738
 1551POPC   C2B24140   7.848  21.416   8.343
 1551POPC   C3B24141   7.901  21.626   7.958
 1551POPC   C4B24142   7.844  21.320   7.654
 1552POPC   NC324143  19.717  28.133   9.470
 1552POPC   PO424144  19.924  28.758   9.312
 1552POPC   GL124145  19.935  28.373   9.046
 1552POPC   GL224146  19.596  28.256   8.993
 1552POPC   C1A24147  19.859  28.433   8.575
 1552POPC   D2A24148  19.920  28.666   8.157
 1552POPC   C3A24149  19.908  28.430   7.756
 1552POPC   C4A24150  19.978  28.099   7.428
 1552POPC   C1B24151  19.485  28.081   8.593
 1552POPC   C2B24152  19.297  28.200   8.209
 1552POPC   C3B24153  19.432  28.546   7.941
 1552POPC   C4B24154  19.628  28.922   7.789
 1553POPC   NC324155  34.372   8.211   9.669
 1553POPC   PO424156  34.876   8.277   9.247
 1553POPC   GL124157  34.475   8.117   9.152
 1553POPC   GL224158  34.258   8.415   9.202
 1553POPC   C1A24159  34.467   7.953   8.724
 1553POPC   D2A24160  34.778   7.926   8.390
 1553POPC   C3A24161  34.607   8.036   8.010
 1553POPC   C4A24162  34.343   7.847   7.748
 1553POPC   C1B24163  34.363   8.465   8.785
 1553POPC   C2B24164  34.405   8.349   8.385
 1553POPC   C3B24165  34.158   8.313   8.031
 1553POPC   C4B24166  34.073   8.548   7.673
 1554POPC   NC324167  25.530  40.399   9.420
 1554POPC   PO424168  25.025  40.919   9.453
 1554POPC   GL124169  25.068  40.845   9.054
 1554POPC   GL224170  25.231  40.548   9.041
 1554POPC   C1A24171  24.916  40.728   8.671
 1554POPC   D2A24172  25.256  40.710   8.430
 1554POPC   C3A24173  25.357  40.960   8.082
 1554POPC   C4A24174  25.265  40.822   7.665
 1554POPC   C1B24175  25.573  40.423   8.761
 1554POPC   C2B24176  25.590  40.324   8.359
 1554POPC   C3B24177  25.351  40.433   8.011
 1554POPC   C4B24178  25.518  40.355   7.603
 1555POPC   NC324179  33.356  30.880   9.527
 1555POPC   PO424180  32.787  30.611   9.544
 1555POPC   GL124181  32.992  30.771   9.157
 1555POPC   GL224182  33.205  30.519   9.141
 1555POPC   C1A24183  32.828  30.696   8.727
 1555POPC   D2A24184  32.827  30.931   8.336
 1555POPC   C3A24185  32.896  30.703   7.977
 1555POPC   C4A24186  33.241  30.684   7.709
 1555POPC   C1B24187  33.209  30.350   8.732
 1555POPC   C2B24188  33.038  30.367   8.347
 1555POPC   C3B24189  33.217  30.245   7.967
 1555POPC   C4B24190  33.027  30.191   7.560
 1556POPC   NC324191  11.442  42.901   9.539
 1556POPC   PO424192  10.992  43.333   9.464
 1556POPC   GL124193  11.213  43.050   9.092
 1556POPC   GL224194  11.585  42.893   9.071
 1556POPC   C1A24195  11.442  43.204   8.685
 1556POPC   D2A24196  11.457  43.542   8.346
 1556POPC   C3A24197  11.225  43.437   7.978
 1556POPC   C4A24198  11.186  43.184   7.601
 1556POPC   C1B24199  11.442  42.677   8.731
 1556POPC   C2B24200  11.249  42.617   8.318
 1556POPC   C3B24201  11.291  42.895   8.003
 1556POPC   C4B24202  11.643  43.160   7.932
 1557POPC   NC324203  27.811   8.465   9.478
 1557POPC   PO424204  27.141   8.236   9.538
 1557POPC   GL124205  27.474   8.225   9.166
 1557POPC   GL224206  27.791   8.033   9.194
 1557POPC   C1A24207  27.583   8.331   8.735
 1557POPC   D2A24208  27.380   8.186   8.348
 1557POPC   C3A24209  27.662   8.210   7.973
 1557POPC   C4A24210  27.718   8.510   7.652
 1557POPC   C1B24211  27.993   7.972   8.806
 1557POPC   C2B24212  27.845   7.986   8.415
 1557POPC   C3B24213  27.927   7.798   8.062
 1557POPC   C4B24214  28.030   7.894   7.651
 1558POPC   NC324215  21.751  29.494   9.549
 1558POPC   PO424216  22.385  29.393   9.736
 1558POPC   GL124217  22.173  29.133   9.384
 1558POPC   GL224218  22.410  28.831   9.339
 1558POPC   C1A24219  22.055  29.308   8.956
 1558POPC   D2A24220  21.981  29.393   8.483
 1558POPC   C3A24221  22.184  29.249   8.075
 1558POPC   C4A24222  21.958  29.150   7.670
 1558POPC   C1B24223  22.396  28.936   8.899
 1558POPC   C2B24224  22.517  28.946   8.456
 1558POPC   C3B24225  22.447  28.827   8.019
 1558POPC   C4B24226  22.476  29.067   7.622
 1559POPC   NC324227  35.387  23.911   9.556
 1559POPC   PO424228  35.307  24.683   9.651
 1559POPC   GL124229  35.247  24.448   9.263
 1559POPC   GL224230  35.168  24.777   9.163
 1559POPC   C1A24231  35.306  24.298   8.805
 1559POPC   D2A24232  35.071  24.342   8.386
 1559POPC   C3A24233  35.364  24.372   8.033
 1559POPC   C4A24234  35.711  24.064   7.982
 1559POPC   C1B24235  35.018  24.695   8.776
 1559POPC   C2B24236  35.108  24.862   8.404
 1559POPC   C3B24237  35.001  24.735   8.017
 1559POPC   C4B24238  35.120  24.875   7.639
 1560POPC   NC324239  14.623  19.957   9.455
 1560POPC   PO424240  14.017  19.626   9.410
 1560POPC   GL124241  14.187  19.900   9.131
 1560POPC   GL224242  14.486  19.711   9.017
 1560POPC   C1A24243  14.152  20.120   8.763
 1560POPC   D2A24244  14.376  20.096   8.385
 1560POPC   C3A24245  14.284  20.145   7.964
 1560POPC   C4A24246  14.351  19.872   7.601
 1560POPC   C1B24247  14.695  20.071   8.800
 1560POPC   C2B24248  14.872  20.132   8.381
 1560POPC   C3B24249  14.762  19.949   8.016
 1560POPC   C4B24250  14.852  19.776   7.648
 1561POPC   NC324251  26.792  21.492   9.450
 1561POPC   PO424252  26.295  20.997   9.482
 1561POPC   GL124253  26.616  21.133   9.143
 1561POPC   GL224254  26.987  21.069   9.094
 1561POPC   C1A24255  26.758  21.436   8.801
 1561POPC   D2A24256  26.671  21.384   8.386
 1561POPC   C3A24257  26.819  21.518   7.997
 1561POPC   C4A24258  26.565  21.368   7.662
 1561POPC   C1B24259  27.280  21.338   8.818
 1561POPC   C2B24260  27.267  21.506   8.394
 1561POPC   C3B24261  27.236  21.219   8.036
 1561POPC   C4B24262  27.080  21.275   7.622
 1562POPC   NC324263  34.714  15.976   9.505
 1562POPC   PO424264  35.373  15.885   9.439
 1562POPC   GL124265  35.403  16.022   9.063
 1562POPC   GL224266  35.586  16.333   9.031
 1562POPC   C1A24267  35.516  15.845   8.691
 1562POPC   D2A24268  35.704  16.035   8.365
 1562POPC   C3A24269  35.483  15.953   7.954
 1562POPC   C4A24270  35.137  15.619   7.851
 1562POPC   C1B24271  35.176  16.396   8.813
 1562POPC   C2B24272  34.950  16.266   8.427
 1562POPC   C3B24273  34.929  16.120   7.982
 1562POPC   C4B24274  35.168  16.248   7.647
 1563POPC   NC324275  28.818  10.561   9.593
 1563POPC   PO424276  28.113  10.587   9.548
 1563POPC   GL124277  28.358  10.501   9.176
 1563POPC   GL224278  28.176  10.677   8.945
 1563POPC   C1A24279  28.642  10.586   8.785
 1563POPC   D2A24280  28.681  10.418   8.356
 1563POPC   C3A24281  28.466  10.614   7.997
 1563POPC   C4A24282  28.406  10.380   7.576
 1563POPC   C1B24283  28.208  10.613   8.498
 1563POPC   C2B24284  27.998  10.458   8.120
 1563POPC   C3B24285  28.022  10.682   7.739
 1563POPC   C4B24286  28.249  10.814   7.352
 1564POPC   NC324287  14.718  15.059   9.648
 1564POPC   PO424288  14.122  14.984   9.460
 1564POPC   GL124289  14.489  15.101   9.211
 1564POPC   GL224290  14.583  15.461   9.234
 1564POPC   C1A24291  14.690  15.033   8.849
 1564POPC   D2A24292  14.454  15.029   8.485
 1564POPC   C3A24293  14.691  14.996   8.129
 1564POPC   C4A24294  14.599  14.985   7.714
 1564POPC   C1B24295  14.307  15.418   8.847
 1564POPC   C2B24296  14.375  15.542   8.420
 1564POPC   C3B24297  14.383  15.386   7.989
 1564POPC   C4B24298  14.227  15.292   7.533
 1565POPC   NC324299   7.827  33.525   9.440
 1565POPC   PO424300   8.474  33.602   9.190
 1565POPC   GL124301   8.029  33.678   8.990
 1565POPC   GL224302   7.800  33.408   8.918
 1565POPC   C1A24303   7.808  33.778   8.566
 1565POPC   D2A24304   7.823  33.776   8.093
 1565POPC   C3A24305   7.997  34.145   7.921
 1565POPC   C4A24306   8.268  34.493   7.797
 1565POPC   C1B24307   8.148  33.394   8.588
 1565POPC   C2B24308   8.189  33.436   8.146
 1565POPC   C3B24309   8.300  33.725   7.847
 1565POPC   C4B24310   8.491  33.644   7.470
 1566POPC   NC324311  26.864  32.446   9.523
 1566POPC   PO424312  26.589  31.843   9.503
 1566POPC   GL124313  26.847  32.062   9.172
 1566POPC   GL224314  26.792  32.420   9.032
 1566POPC   C1A24315  27.018  31.953   8.778
 1566POPC   D2A24316  26.810  31.877   8.405
 1566POPC   C3A24317  26.971  31.952   7.999
 1566POPC   C4A24318  26.664  31.786   7.753
 1566POPC   C1B24319  26.573  32.283   8.682
 1566POPC   C2B24320  26.474  32.248   8.250
 1566POPC   C3B24321  26.635  32.312   7.835
 1566POPC   C4B24322  27.078  32.435   7.795
 1567POPC   NC324323  18.629  44.346   9.208
 1567POPC   PO424324  18.956  44.863   9.505
 1567POPC   GL124325  19.048  44.690   9.114
 1567POPC   GL224326  19.308  44.403   9.128
 1567POPC   C1A24327  18.775  44.746   8.724
 1567POPC   D2A24328  18.939  44.812   8.348
 1567POPC   C3A24329  18.935  44.985   7.984
 1567POPC   C4A24330  19.233  44.788   7.728
 1567POPC   C1B24331  19.126  44.382   8.721
 1567POPC   C2B24332  18.800  44.309   8.395
 1567POPC   C3B24333  18.969  44.418   8.004
 1567POPC   C4B24334  19.244  44.287   7.698
 1568POPC   NC324335   9.152  12.051   9.717
 1568POPC   PO424336   8.908  11.388   9.486
 1568POPC   GL124337   9.024  11.147   9.125
 1568POPC   GL224338   8.739  10.957   9.071
 1568POPC   C1A24339   9.012  11.269   8.675
 1568POPC   D2A24340   8.768  11.145   8.291
 1568POPC   C3A24341   8.981  11.354   7.950
 1568POPC   C4A24342   9.383  11.545   7.827
 1568POPC   C1B24343   8.944  10.778   8.674
 1568POPC   C2B24344   9.119  10.754   8.216
 1568POPC   C3B24345   8.917  10.873   7.798
 1568POPC   C4B24346   8.821  10.850   7.331
 1569POPC   NC324347  41.559   5.473   9.496
 1569POPC   PO424348  42.105   5.407   9.418
 1569POPC   GL124349  41.837   5.580   9.066
 1569POPC   GL224350  41.696   5.895   9.159
 1569POPC   C1A24351  41.766   5.794   8.647
 1569POPC   D2A24352  41.501   5.710   8.295
 1569POPC   C3A24353  41.648   5.651   7.879
 1569POPC   C4A24354  41.417   5.589   7.468
 1569POPC   C1B24355  41.403   6.103   8.844
 1569POPC   C2B24356  41.349   6.203   8.393
 1569POPC   C3B24357  41.623   6.147   8.039
 1569POPC   C4B24358  42.042   6.065   7.866
 1570POPC   NC324359   0.872  12.424   9.353
 1570POPC   PO424360   0.174  12.429   9.334
 1570POPC   GL124361   0.450  12.136   9.110
 1570POPC   GL224362   0.496  11.764   9.132
 1570POPC   C1A24363   0.238  11.997   8.725
 1570POPC   D2A24364   0.046  11.799   8.374
 1570POPC   C3A24365   0.185  12.017   8.024
 1570POPC   C4A24366   0.150  12.418   7.925
 1570POPC   C1B24367   0.705  11.810   8.713
 1570POPC   C2B24368   0.817  11.898   8.276
 1570POPC   C3B24369   0.703  11.999   7.863
 1570POPC   C4B24370   0.440  12.173   7.565
 1571POPC   NC324371   0.192  43.312   9.936
 1571POPC   PO424372  44.733  43.176   9.655
 1571POPC   GL124373  44.737  43.084   9.171
 1571POPC   GL224374  44.606  42.746   9.072
 1571POPC   C1A24375  44.573  43.111   8.709
 1571POPC   D2A24376  44.661  43.124   8.248
 1571POPC   C3A24377  44.415  43.432   8.032
 1571POPC   C4A24378  44.303  43.412   7.563
 1571POPC   C1B24379  44.308  42.670   8.717
 1571POPC   C2B24380  44.399  42.683   8.278
 1571POPC   C3B24381  44.714  42.645   8.001
 1571POPC   C4B24382   0.038  42.846   7.803
 1572POPC   NC324383  29.856  43.318   9.446
 1572POPC   PO424384  30.180  42.807   9.511
 1572POPC   GL124385  30.190  43.079   9.129
 1572POPC   GL224386  30.431  43.385   9.116
 1572POPC   C1A24387  29.852  43.102   8.804
 1572POPC   D2A24388  29.880  42.918   8.384
 1572POPC   C3A24389  29.851  43.015   7.927
 1572POPC   C4A24390  30.181  42.921   7.583
 1572POPC   C1B24391  30.178  43.485   8.792
 1572POPC   C2B24392  30.023  43.409   8.404
 1572POPC   C3B24393  30.254  43.246   8.103
 1572POPC   C4B24394  30.246  43.414   7.726
 1573POPC   NC324395  20.981  13.914   9.755
 1573POPC   PO424396  20.489  14.190   9.401
 1573POPC   GL124397  20.425  14.572   9.201
 1573POPC   GL224398  20.723  14.487   9.014
 1573POPC   C1A24399  20.345  14.778   8.814
 1573POPC   D2A24400  20.556  14.620   8.471
 1573POPC   C3A24401  20.325  14.682   8.106
 1573POPC   C4A24402  20.577  14.708   7.728
 1573POPC   C1B24403  20.726  14.162   8.676
 1573POPC   C2B24404  20.513  14.016   8.338
 1573POPC   C3B24405  20.594  14.262   8.013
 1573POPC   C4B24406  20.849  14.135   7.703
 1574POPC   NC324407  13.914  26.816   9.252
 1574POPC   PO424408  13.408  27.120   9.464
 1574POPC   GL124409  13.564  27.168   9.083
 1574POPC   GL224410  13.463  26.818   8.968
 1574POPC   C1A24411  13.489  27.230   8.649
 1574POPC   D2A24412  13.447  26.956   8.317
 1574POPC   C3A24413  13.713  27.015   7.985
 1574POPC   C4A24414  13.632  26.996   7.570
 1574POPC   C1B24415  13.751  26.677   8.624
 1574POPC   C2B24416  13.762  26.539   8.183
 1574POPC   C3B24417  13.925  26.592   7.743
 1574POPC   C4B24418  13.743  26.569   7.305
 1575POPC   NC324419  16.309  31.133   9.603
 1575POPC   PO424420  15.790  31.503   9.613
 1575POPC   GL124421  15.981  31.371   9.224
 1575POPC   GL224422  15.993  31.043   9.200
 1575POPC   C1A24423  16.138  31.349   8.788
 1575POPC   D2A24424  16.108  31.217   8.357
 1575POPC   C3A24425  15.985  31.548   8.022
 1575POPC   C4A24426  15.860  31.747   7.607
 1575POPC   C1B24427  15.880  30.917   8.773
 1575POPC   C2B24428  15.633  30.943   8.418
 1575POPC   C3B24429  15.722  31.116   7.999
 1575POPC   C4B24430  16.127  31.062   7.875
 1576POPC   NC324431  35.998  20.492   9.420
 1576POPC   PO424432  36.433  21.074   9.399
 1576POPC   GL124433  36.299  20.750   9.074
 1576POPC   GL224434  36.312  20.357   9.061
 1576POPC   C1A24435  35.953  20.606   8.783
 1576POPC   D2A24436  35.814  20.408   8.416
 1576POPC   C3A24437  36.088  20.409   8.054
 1576POPC   C4A24438  35.964  20.531   7.646
 1576POPC   C1B24439  36.439  20.432   8.644
 1576POPC   C2B24440  36.584  20.451   8.189
 1576POPC   C3B24441  36.500  20.194   7.798
 1576POPC   C4B24442  36.322  20.243   7.369
 1577POPC   NC324443  22.649  13.349   9.412
 1577POPC   PO424444  23.178  13.666   9.635
 1577POPC   GL124445  23.280  13.813   9.167
 1577POPC   GL224446  22.925  13.826   9.084
 1577POPC   C1A24447  23.251  13.704   8.695
 1577POPC   D2A24448  22.988  13.428   8.414
 1577POPC   C3A24449  23.129  13.422   7.998
 1577POPC   C4A24450  22.926  13.451   7.620
 1577POPC   C1B24451  22.696  13.664   8.757
 1577POPC   C2B24452  22.499  13.674   8.398
 1577POPC   C3B24453  22.629  13.639   7.994
 1577POPC   C4B24454  22.536  13.766   7.580
 1578POPC   NC324455   1.337  15.108   9.584
 1578POPC   PO424456   0.855  15.581   9.553
 1578POPC   GL124457   1.010  15.231   9.189
 1578POPC   GL224458   1.280  14.938   9.097
 1578POPC   C1A24459   1.156  15.246   8.732
 1578POPC   D2A24460   1.010  15.157   8.322
 1578POPC   C3A24461   1.326  15.276   8.052
 1578POPC   C4A24462   1.088  15.275   7.712
 1578POPC   C1B24463   0.885  14.807   8.835
 1578POPC   C2B24464   0.826  14.666   8.373
 1578POPC   C3B24465   0.837  14.861   7.913
 1578POPC   C4B24466   0.919  14.875   7.413
 1579POPC   NC324467  22.843  38.014   9.467
 1579POPC   PO424468  22.857  37.377   9.710
 1579POPC   GL124469  23.066  37.541   9.312
 1579POPC   GL224470  23.316  37.816   9.214
 1579POPC   C1A24471  23.081  37.473   8.860
 1579POPC   D2A24472  22.786  37.533   8.541
 1579POPC   C3A24473  22.940  37.565   8.108
 1579POPC   C4A24474  22.772  37.615   7.697
 1579POPC   C1B24475  23.105  38.001   8.861
 1579POPC   C2B24476  22.965  38.003   8.449
 1579POPC   C3B24477  23.118  38.113   8.056
 1579POPC   C4B24478  23.218  37.878   7.727
 1580POPC   NC324479  17.904  14.692   9.499
 1580POPC   PO424480  17.261  14.474   9.421
 1580POPC   GL124481  17.565  14.492   9.138
 1580POPC   GL224482  17.771  14.180   9.179
 1580POPC   C1A24483  17.426  14.654   8.772
 1580POPC   D2A24484  17.538  14.583   8.390
 1580POPC   C3A24485  17.231  14.338   8.174
 1580POPC   C4A24486  17.388  14.588   7.846
 1580POPC   C1B24487  17.755  14.051   8.726
 1580POPC   C2B24488  17.675  14.099   8.278
 1580POPC   C3B24489  17.634  14.154   7.839
 1580POPC   C4B24490  17.529  14.243   7.421
 1581POPC   NC324491  15.507  38.863   9.401
 1581POPC   PO424492  15.150  39.471   9.504
 1581POPC   GL124493  15.159  39.247   9.134
 1581POPC   GL224494  15.485  39.305   9.123
 1581POPC   C1A24495  15.354  39.120   8.692
 1581POPC   D2A24496  15.193  39.136   8.295
 1581POPC   C3A24497  15.432  39.033   7.945
 1581POPC   C4A24498  15.040  38.941   7.774
 1581POPC   C1B24499  15.663  39.572   8.776
 1581POPC   C2B24500  15.775  39.476   8.335
 1581POPC   C3B24501  15.735  39.450   7.877
 1581POPC   C4B24502  15.573  39.722   7.517
 1582POPC   NC324503   3.321   5.064   9.698
 1582POPC   PO424504   3.988   4.924   9.627
 1582POPC   GL124505   3.684   5.081   9.294
 1582POPC   GL224506   3.404   4.840   9.239
 1582POPC   C1A24507   3.483   5.262   8.900
 1582POPC   D2A24508   3.363   5.080   8.484
 1582POPC   C3A24509   3.437   5.285   8.085
 1582POPC   C4A24510   3.194   5.287   7.745
 1582POPC   C1B24511   3.620   4.771   8.831
 1582POPC   C2B24512   3.613   4.609   8.414
 1582POPC   C3B24513   3.615   4.804   8.044
 1582POPC   C4B24514   3.493   4.883   7.636
 1583POPC   NC324515   5.508  20.754   9.759
 1583POPC   PO424516   4.879  20.825   9.444
 1583POPC   GL124517   4.924  20.570   9.059
 1583POPC   GL224518   4.934  20.860   8.901
 1583POPC   C1A24519   5.038  20.481   8.604
 1583POPC   D2A24520   5.150  20.588   8.175
 1583POPC   C3A24521   5.002  20.564   7.755
 1583POPC   C4A24522   5.121  20.617   7.297
 1583POPC   C1B24523   5.315  20.907   8.622
 1583POPC   C2B24524   5.437  21.000   8.207
 1583POPC   C3B24525   5.428  20.848   7.789
 1583POPC   C4B24526   5.497  21.000   7.367
 1584POPC   NC324527  27.377  24.695   9.427
 1584POPC   PO424528  26.994  24.163   9.508
 1584POPC   GL124529  26.699  24.403   9.245
 1584POPC   GL224530  26.923  24.682   9.189
 1584POPC   C1A24531  26.570  24.504   8.816
 1584POPC   D2A24532  26.434  24.515   8.388
 1584POPC   C3A24533  26.687  24.596   8.034
 1584POPC   C4A24534  26.737  24.326   7.658
 1584POPC   C1B24535  27.055  24.388   8.876
 1584POPC   C2B24536  26.983  24.387   8.423
 1584POPC   C3B24537  27.131  24.355   7.988
 1584POPC   C4B24538  27.429  24.121   7.760
 1585POPC   NC324539  24.650   8.103   9.414
 1585POPC   PO424540  24.054   8.430   9.350
 1585POPC   GL124541  24.266   8.252   9.048
 1585POPC   GL224542  24.607   8.340   8.956
 1585POPC   C1A24543  24.234   8.160   8.648
 1585POPC   D2A24544  24.531   8.281   8.355
 1585POPC   C3A24545  24.366   8.196   7.970
 1585POPC   C4A24546  24.424   8.367   7.589
 1585POPC   C1B24547  24.710   7.929   8.713
 1585POPC   C2B24548  24.846   7.738   8.299
 1585POPC   C3B24549  24.843   7.980   7.914
 1585POPC   C4B24550  24.822   8.442   7.912
 1586POPC   NC324551  24.844  19.036   9.456
 1586POPC   PO424552  24.428  19.504   9.619
 1586POPC   GL124553  24.386  19.203   9.230
 1586POPC   GL224554  24.436  18.845   9.205
 1586POPC   C1A24555  24.523  19.180   8.782
 1586POPC   D2A24556  24.760  19.310   8.412
 1586POPC   C3A24557  24.566  19.218   8.022
 1586POPC   C4A24558  24.688  19.173   7.615
 1586POPC   C1B24559  24.587  18.685   8.783
 1586POPC   C2B24560  24.626  18.807   8.323
 1586POPC   C3B24561  24.688  18.688   7.860
 1586POPC   C4B24562  24.556  18.736   7.397
 1587POPC   NC324563  44.479   3.274   9.690
 1587POPC   PO424564  44.278   3.939   9.509
 1587POPC   GL124565  44.379   3.600   9.242
 1587POPC   GL224566  44.739   3.592   9.095
 1587POPC   C1A24567  44.366   3.624   8.782
 1587POPC   D2A24568  44.627   3.720   8.450
 1587POPC   C3A24569  44.453   3.605   8.054
 1587POPC   C4A24570  44.646   3.505   7.671
 1587POPC   C1B24571  44.795   3.291   8.718
 1587POPC   C2B24572  44.822   3.272   8.250
 1587POPC   C3B24573  44.983   3.165   7.825
 1587POPC   C4B24574  44.972   3.222   7.372
 1588POPC   NC324575  24.205  24.960   9.554
 1588POPC   PO424576  24.816  25.228   9.670
 1588POPC   GL124577  24.642  25.152   9.167
 1588POPC   GL224578  24.295  25.211   9.117
 1588POPC   C1A24579  24.479  24.958   8.718
 1588POPC   D2A24580  24.548  24.803   8.279
 1588POPC   C3A24581  24.456  24.946   7.835
 1588POPC   C4A24582  24.283  25.153   7.466
 1588POPC   C1B24583  24.415  25.478   8.789
 1588POPC   C2B24584  24.510  25.375   8.374
 1588POPC   C3B24585  24.277  25.396   7.986
 1588POPC   C4B24586  24.444  25.601   7.626
 1589POPC   NC324587  15.409  20.713   9.543
 1589POPC   PO424588  15.021  20.218   9.444
 1589POPC   GL124589  15.316  20.403   9.127
 1589POPC   GL224590  15.286  20.795   9.053
 1589POPC   C1A24591  15.146  20.437   8.719
 1589POPC   D2A24592  14.929  20.632   8.400
 1589POPC   C3A24593  15.220  20.605   8.067
 1589POPC   C4A24594  15.137  20.292   7.800
 1589POPC   C1B24595  14.858  20.902   8.846
 1589POPC   C2B24596  14.806  21.117   8.419
 1589POPC   C3B24597  14.891  20.994   8.001
 1589POPC   C4B24598  14.993  20.756   7.619
 1590POPC   NC324599  38.385  19.584   9.825
 1590POPC   PO424600  38.393  18.892   9.811
 1590POPC   GL124601  38.353  18.850   9.255
 1590POPC   GL224602  38.512  19.172   9.056
 1590POPC   C1A24603  38.501  18.775   8.808
 1590POPC   D2A24604  38.456  19.062   8.475
 1590POPC   C3A24605  38.359  18.828   8.085
 1590POPC   C4A24606  38.320  19.033   7.676
 1590POPC   C1B24607  38.763  19.414   8.760
 1590POPC   C2B24608  38.597  19.574   8.376
 1590POPC   C3B24609  38.458  19.363   8.035
 1590POPC   C4B24610  38.733  19.305   7.678
 1591POPC   NC324611   3.710  16.359   9.535
 1591POPC   PO424612   3.490  16.944   9.504
 1591POPC   GL124613   3.676  16.738   9.148
 1591POPC   GL224614   3.998  16.519   9.148
 1591POPC   C1A24615   3.581  16.896   8.737
 1591POPC   D2A24616   3.444  17.050   8.347
 1591POPC   C3A24617   3.498  16.875   7.978
 1591POPC   C4A24618   3.494  16.514   7.761
 1591POPC   C1B24619   3.860  16.473   8.698
 1591POPC   C2B24620   3.848  16.626   8.254
 1591POPC   C3B24621   3.988  16.798   7.833
 1591POPC   C4B24622   4.117  17.125   7.503
 1592POPC   NC324623  12.724  41.138   9.456
 1592POPC   PO424624  12.659  40.548   9.385
 1592POPC   GL124625  12.852  40.792   9.115
 1592POPC   GL224626  13.179  40.994   9.216
 1592POPC   C1A24627  12.732  40.796   8.715
 1592POPC   D2A24628  12.861  40.923   8.338
 1592POPC   C3A24629  12.593  41.055   8.017
 1592POPC   C4A24630  12.807  40.953   7.676
 1592POPC   C1B24631  13.251  40.732   8.840
 1592POPC   C2B24632  13.177  40.502   8.451
 1592POPC   C3B24633  13.197  40.681   8.040
 1592POPC   C4B24634  13.326  40.900   7.689
 1593POPC   NC324635  20.432  17.140   9.576
 1593POPC   PO424636  20.524  17.754   9.610
 1593POPC   GL124637  20.644  17.474   9.255
 1593POPC   GL224638  20.605  17.722   9.065
 1593POPC   C1A24639  20.535  17.263   8.836
 1593POPC   D2A24640  20.367  17.437   8.455
 1593POPC   C3A24641  20.489  17.263   8.029
 1593POPC   C4A24642  20.588  17.530   7.666
 1593POPC   C1B24643  20.428  17.931   8.710
 1593POPC   C2B24644  20.174  17.906   8.360
 1593POPC   C3B24645  20.293  17.746   8.004
 1593POPC   C4B24646  20.618  18.008   7.859
 1594POPC   NC324647  40.328  36.083   9.553
 1594POPC   PO424648  39.832  36.545   9.461
 1594POPC   GL124649  39.983  36.242   9.172
 1594POPC   GL224650  40.336  36.321   9.103
 1594POPC   C1A24651  39.884  36.301   8.739
 1594POPC   D2A24652  39.885  36.579   8.385
 1594POPC   C3A24653  39.778  36.357   8.013
 1594POPC   C4A24654  39.716  35.984   7.730
 1594POPC   C1B24655  40.370  36.144   8.730
 1594POPC   C2B24656  40.229  36.215   8.327
 1594POPC   C3B24657  40.181  36.024   7.947
 1594POPC   C4B24658  40.173  35.863   7.497
 1595POPC   NC324659  18.350  16.319   9.602
 1595POPC   PO424660  18.558  15.678   9.615
 1595POPC   GL124661  18.254  15.895   9.228
 1595POPC   GL224662  17.937  15.971   9.054
 1595POPC   C1A24663  18.349  15.988   8.734
 1595POPC   D2A24664  18.683  16.001   8.392
 1595POPC   C3A24665  18.531  16.117   8.006
 1595POPC   C4A24666  18.337  15.984   7.659
 1595POPC   C1B24667  17.870  16.140   8.606
 1595POPC   C2B24668  18.060  15.991   8.222
 1595POPC   C3B24669  17.956  15.751   7.864
 1595POPC   C4B24670  18.026  15.679   7.387
 1596POPC   NC324671  25.015  38.639   9.334
 1596POPC   PO424672  25.525  38.244   9.584
 1596POPC   GL124673  25.499  38.380   9.162
 1596POPC   GL224674  25.564  38.732   9.182
 1596POPC   C1A24675  25.448  38.180   8.756
 1596POPC   D2A24676  25.217  38.117   8.364
 1596POPC   C3A24677  25.451  38.165   7.978
 1596POPC   C4A24678  25.337  38.241   7.560
 1596POPC   C1B24679  25.376  38.751   8.749
 1596POPC   C2B24680  25.447  38.953   8.317
 1596POPC   C3B24681  25.315  38.674   7.936
 1596POPC   C4B24682  24.863  38.690   7.807
 1597POPC   NC324683  36.340  12.527   9.595
 1597POPC   PO424684  35.940  13.079   9.359
 1597POPC   GL124685  36.137  12.741   9.152
 1597POPC   GL224686  35.901  12.483   9.162
 1597POPC   C1A24687  36.168  12.694   8.713
 1597POPC   D2A24688  36.000  12.876   8.353
 1597POPC   C3A24689  36.318  12.871   8.025
 1597POPC   C4A24690  36.251  12.971   7.627
 1597POPC   C1B24691  35.940  12.250   8.770
 1597POPC   C2B24692  35.924  12.344   8.330
 1597POPC   C3B24693  35.887  12.601   7.930
 1597POPC   C4B24694  35.972  12.583   7.464
 1598POPC   NC324695  34.811   1.386   9.778
 1598POPC   PO424696  35.298   1.061   9.378
 1598POPC   GL124697  35.279   1.170   8.996
 1598POPC   GL224698  35.204   1.516   8.992
 1598POPC   C1A24699  35.315   0.915   8.634
 1598POPC   D2A24700  35.182   0.633   8.308
 1598POPC   C3A24701  35.088   0.878   7.986
 1598POPC   C4A24702  35.307   1.002   7.647
 1598POPC   C1B24703  35.082   1.409   8.575
 1598POPC   C2B24704  35.320   1.295   8.218
 1598POPC   C3B24705  35.425   1.480   7.788
 1598POPC   C4B24706  35.144   1.505   7.418
 1599POPC   NC324707  35.234  18.241   9.580
 1599POPC   PO424708  35.855  18.485   9.539
 1599POPC   GL124709  35.443  18.594   9.274
 1599POPC   GL224710  35.558  18.646   8.985
 1599POPC   C1A24711  35.086  18.476   8.921
 1599POPC   D2A24712  35.177  18.203   8.527
 1599POPC   C3A24713  35.311  18.427   8.150
 1599POPC   C4A24714  35.105  18.499   7.757
 1599POPC   C1B24715  35.512  18.179   8.920
 1599POPC   C2B24716  35.687  17.956   8.558
 1599POPC   C3B24717  35.672  18.038   8.109
 1599POPC   C4B24718  35.363  18.017   7.807
 1600POPC   NC324719  26.717  33.908   9.676
 1600POPC   PO424720  27.015  33.323   9.462
 1600POPC   GL124721  26.771  33.550   9.179
 1600POPC   GL224722  26.806  33.890   9.186
 1600POPC   C1A24723  26.658  33.641   8.772
 1600POPC   D2A24724  26.504  33.791   8.400
 1600POPC   C3A24725  26.762  33.739   8.035
 1600POPC   C4A24726  26.621  33.622   7.614
 1600POPC   C1B24727  26.966  34.121   8.863
 1600POPC   C2B24728  26.787  34.246   8.493
 1600POPC   C3B24729  26.943  34.220   8.086
 1600POPC   C4B24730  26.790  34.098   7.662
 1601POPC   NC324731   8.164   3.283   9.576
 1601POPC   PO424732   8.432   3.833   9.455
 1601POPC   GL124733   8.208   3.622   9.106
 1601POPC   GL224734   8.056   3.269   9.070
 1601POPC   C1A24735   7.883   3.645   8.767
 1601POPC   D2A24736   7.898   3.434   8.369
 1601POPC   C3A24737   8.261   3.598   8.196
 1601POPC   C4A24738   8.407   3.701   7.819
 1601POPC   C1B24739   8.458   3.224   8.835
 1601POPC   C2B24740   8.634   3.326   8.416
 1601POPC   C3B24741   8.620   3.241   7.940
 1601POPC   C4B24742   8.499   3.345   7.472
 1602POPC   NC324743  23.772  34.573   9.921
 1602POPC   PO424744  23.396  34.753   9.404
 1602POPC   GL124745  23.675  34.482   9.194
 1602POPC   GL224746  23.812  34.689   8.963
 1602POPC   C1A24747  23.693  34.225   8.805
 1602POPC   D2A24748  23.426  34.284   8.441
 1602POPC   C3A24749  23.569  34.327   8.024
 1602POPC   C4A24750  23.871  34.345   7.698
 1602POPC   C1B24751  23.432  34.700   8.731
 1602POPC   C2B24752  23.577  34.768   8.312
 1602POPC   C3B24753  23.795  34.804   7.927
 1602POPC   C4B24754  23.544  34.712   7.572
 1603POPC   NC324755  23.994  14.300   9.447
 1603POPC   PO424756  24.689  14.388   9.364
 1603POPC   GL124757  24.392  14.316   9.103
 1603POPC   GL224758  24.203  14.598   9.067
 1603POPC   C1A24759  24.427  14.357   8.689
 1603POPC   D2A24760  24.191  14.317   8.381
 1603POPC   C3A24761  24.406  14.227   8.003
 1603POPC   C4A24762  24.828  14.158   7.896
 1603POPC   C1B24763  24.463  14.853   8.795
 1603POPC   C2B24764  24.477  14.764   8.352
 1603POPC   C3B24765  24.205  14.685   8.015
 1603POPC   C4B24766  24.272  14.530   7.600
 1604POPC   NC324767  30.384   4.817   9.762
 1604POPC   PO424768  30.692   5.321  10.061
 1604POPC   GL124769  30.773   5.266   9.517
 1604POPC   GL224770  30.997   5.510   9.301
 1604POPC   C1A24771  30.734   5.192   8.995
 1604POPC   D2A24772  30.660   5.282   8.510
 1604POPC   C3A24773  30.620   4.949   8.149
 1604POPC   C4A24774  30.242   4.830   7.870
 1604POPC   C1B24775  30.950   5.650   8.858
 1604POPC   C2B24776  31.153   5.549   8.454
 1604POPC   C3B24777  30.946   5.394   8.090
 1604POPC   C4B24778  30.824   5.182   7.711
 1605POPC   NC324779  33.110   8.772   9.590
 1605POPC   PO424780  32.518   8.404   9.553
 1605POPC   GL124781  32.795   8.718   9.204
 1605POPC   GL224782  33.090   8.597   9.037
 1605POPC   C1A24783  33.096   9.097   8.970
 1605POPC   D2A24784  33.172   9.271   8.490
 1605POPC   C3A24785  33.018   9.240   8.018
 1605POPC   C4A24786  33.136   9.122   7.553
 1605POPC   C1B24787  33.036   8.774   8.608
 1605POPC   C2B24788  33.217   8.767   8.233
 1605POPC   C3B24789  33.108   8.697   7.829
 1605POPC   C4B24790  32.908   8.514   7.450
 1606POPC   NC324791  19.309  25.920   9.534
 1606POPC   PO424792  18.662  26.188   9.565
 1606POPC   GL124793  18.966  26.215   9.228
 1606POPC   GL224794  19.297  26.352   9.248
 1606POPC   C1A24795  18.947  25.989   8.835
 1606POPC   D2A24796  18.861  26.011   8.402
 1606POPC   C3A24797  19.066  26.228   8.058
 1606POPC   C4A24798  18.906  25.858   7.791
 1606POPC   C1B24799  19.426  26.163   8.875
 1606POPC   C2B24800  19.363  25.860   8.554
 1606POPC   C3B24801  19.282  25.778   8.133
 1606POPC   C4B24802  19.418  26.000   7.758
 1607POPC   NC324803  36.583  26.542   9.565
 1607POPC   PO424804  37.049  27.143   9.428
 1607POPC   GL124805  36.842  26.862   9.155
 1607POPC   GL224806  37.036  26.596   9.223
 1607POPC   C1A24807  36.983  26.806   8.715
 1607POPC   D2A24808  36.960  27.099   8.353
 1607POPC   C3A24809  36.969  26.948   7.936
 1607POPC   C4A24810  36.763  26.683   7.648
 1607POPC   C1B24811  37.362  26.385   8.980
 1607POPC   C2B24812  37.332  26.468   8.546
 1607POPC   C3B24813  37.092  26.511   8.202
 1607POPC   C4B24814  37.194  26.458   7.781
 1608POPC   NC324815  31.904  42.016   9.430
 1608POPC   PO424816  31.575  41.446   9.374
 1608POPC   GL124817  31.474  41.594   8.982
 1608POPC   GL224818  31.496  41.955   9.078
 1608POPC   C1A24819  31.378  41.447   8.534
 1608POPC   D2A24820  31.337  41.106   8.237
 1608POPC   C3A24821  31.615  41.309   7.967
 1608POPC   C4A24822  31.527  41.680   7.768
 1608POPC   C1B24823  31.269  41.924   8.666
 1608POPC   C2B24824  31.360  41.932   8.222
 1608POPC   C3B24825  31.182  42.045   7.815
 1608POPC   C4B24826  31.287  41.950   7.393
 1609POPC   NC324827  16.429  28.046   9.354
 1609POPC   PO424828  16.939  28.517   9.492
 1609POPC   GL124829  16.829  28.298   9.153
 1609POPC   GL224830  16.539  28.505   9.096
 1609POPC   C1A24831  16.815  28.173   8.717
 1609POPC   D2A24832  16.567  28.110   8.378
 1609POPC   C3A24833  16.679  28.312   8.022
 1609POPC   C4A24834  16.425  28.166   7.732
 1609POPC   C1B24835  16.850  28.671   8.828
 1609POPC   C2B24836  16.869  28.592   8.422
 1609POPC   C3B24837  16.818  28.822   8.069
 1609POPC   C4B24838  16.731  28.752   7.603
 1610POPC   NC324839  41.444  32.131   9.664
 1610POPC   PO424840  41.948  32.581   9.507
 1610POPC   GL124841  41.698  32.429   9.136
 1610POPC   GL224842  41.501  32.135   9.164
 1610POPC   C1A24843  41.639  32.220   8.689
 1610POPC   D2A24844  41.587  31.945   8.324
 1610POPC   C3A24845  41.874  32.174   8.060
 1610POPC   C4A24846  41.800  32.514   7.793
 1610POPC   C1B24847  41.241  32.451   8.900
 1610POPC   C2B24848  41.352  32.646   8.498
 1610POPC   C3B24849  41.404  32.463   8.098
 1610POPC   C4B24850  41.410  32.110   7.798
 1611POPC   NC324851  42.707  40.995   9.504
 1611POPC   PO424852  42.183  40.457   9.469
 1611POPC   GL124853  42.389  40.723   9.162
 1611POPC   GL224854  42.198  40.998   9.043
 1611POPC   C1A24855  42.721  40.851   8.863
 1611POPC   D2A24856  42.839  40.734   8.416
 1611POPC   C3A24857  42.579  40.903   8.036
 1611POPC   C4A24858  42.274  41.073   7.721
 1611POPC   C1B24859  42.280  40.933   8.633
 1611POPC   C2B24860  42.113  40.989   8.258
 1611POPC   C3B24861  41.987  40.720   7.946
 1611POPC   C4B24862  41.843  40.826   7.563
 1612POPC   NC324863   8.909  28.019   9.362
 1612POPC   PO424864   9.313  28.569   9.501
 1612POPC   GL124865   9.232  28.531   9.089
 1612POPC   GL224866   8.873  28.470   9.083
 1612POPC   C1A24867   9.107  28.697   8.700
 1612POPC   D2A24868   8.895  28.487   8.375
 1612POPC   C3A24869   9.085  28.567   7.978
 1612POPC   C4A24870   9.025  28.378   7.545
 1612POPC   C1B24871   8.780  28.128   8.755
 1612POPC   C2B24872   8.621  28.040   8.350
 1612POPC   C3B24873   8.863  28.112   7.983
 1612POPC   C4B24874   8.656  28.018   7.614
 1613POPC   NC324875   9.601  40.174   9.450
 1613POPC   PO424876  10.112  40.140   9.013
 1613POPC   GL124877   9.811  39.829   9.068
 1613POPC   GL224878   9.612  40.074   8.964
 1613POPC   C1A24879   9.688  39.664   8.681
 1613POPC   D2A24880   9.772  40.017   8.404
 1613POPC   C3A24881   9.933  39.925   8.006
 1613POPC   C4A24882   9.721  39.567   7.898
 1613POPC   C1B24883   9.409  40.369   8.789
 1613POPC   C2B24884   9.647  40.518   8.455
 1613POPC   C3B24885   9.816  40.435   8.093
 1613POPC   C4B24886   9.763  40.439   7.675
 1614POPC   NC324887   0.145  33.934   9.587
 1614POPC   PO424888   0.534  33.311   9.578
 1614POPC   GL124889   0.388  33.480   9.183
 1614POPC   GL224890   0.136  33.668   9.179
 1614POPC   C1A24891   0.387  33.647   8.756
 1614POPC   D2A24892   0.442  33.903   8.422
 1614POPC   C3A24893   0.556  33.702   8.039
 1614POPC   C4A24894   0.795  33.769   7.663
 1614POPC   C1B24895   0.108  34.059   8.866
 1614POPC   C2B24896   0.086  34.258   8.421
 1614POPC   C3B24897   0.171  34.051   8.008
 1614POPC   C4B24898   0.298  33.922   7.588
 1615POPC   NC324899  34.880  21.616   9.540
 1615POPC   PO424900  34.958  20.994   9.779
 1615POPC   GL124901  34.959  21.216   9.255
 1615POPC   GL224902  34.584  21.337   9.239
 1615POPC   C1A24903  34.799  21.192   8.800
 1615POPC   D2A24904  34.865  21.548   8.522
 1615POPC   C3A24905  34.807  21.390   8.117
 1615POPC   C4A24906  34.839  21.635   7.763
 1615POPC   C1B24907  34.457  21.576   8.857
 1615POPC   C2B24908  34.357  21.488   8.406
 1615POPC   C3B24909  34.347  21.598   7.957
 1615POPC   C4B24910  34.476  21.330   7.588
 1616POPC   NC324911   4.520  14.304   9.723
 1616POPC   PO424912   4.170  13.713   9.670
 1616POPC   GL124913   4.078  13.512   9.261
 1616POPC   GL224914   4.407  13.523   9.153
 1616POPC   C1A24915   4.046  13.586   8.787
 1616POPC   D2A24916   4.192  13.490   8.344
 1616POPC   C3A24917   4.001  13.574   7.970
 1616POPC   C4A24918   4.176  13.857   7.695
 1616POPC   C1B24919   4.515  13.376   8.751
 1616POPC   C2B24920   4.694  13.545   8.357
 1616POPC   C3B24921   4.551  13.579   7.937
 1616POPC   C4B24922   4.694  13.438   7.543
 1617POPC   NC324923  26.363  27.655   9.533
 1617POPC   PO424924  26.881  27.528   9.843
 1617POPC   GL124925  26.842  27.386   9.390
 1617POPC   GL224926  26.495  27.266   9.225
 1617POPC   C1A24927  26.887  27.413   8.918
 1617POPC   D2A24928  26.818  27.239   8.487
 1617POPC   C3A24929  26.868  27.509   8.130
 1617POPC   C4A24930  26.914  27.768   7.762
 1617POPC   C1B24931  26.357  27.313   8.764
 1617POPC   C2B24932  26.340  27.483   8.310
 1617POPC   C3B24933  26.441  27.574   7.857
 1617POPC   C4B24934  26.440  27.918   7.535
 1618POPC   NC324935  18.025  43.281   9.919
 1618POPC   PO424936  18.592  43.099   9.509
 1618POPC   GL124937  18.358  42.988   9.129
 1618POPC   GL224938  18.488  42.648   9.034
 1618POPC   C1A24939  18.212  43.253   8.776
 1618POPC   D2A24940  18.417  43.257   8.375
 1618POPC   C3A24941  18.182  43.341   8.020
 1618POPC   C4A24942  18.368  43.407   7.678
 1618POPC   C1B24943  18.444  42.823   8.648
 1618POPC   C2B24944  18.054  42.903   8.430
 1618POPC   C3B24945  18.026  42.845   8.011
 1618POPC   C4B24946  17.969  42.492   7.802
 1619POPC   NC324947  24.593   9.474   9.665
 1619POPC   PO424948  24.136   9.920   9.686
 1619POPC   GL124949  24.345   9.932   9.217
 1619POPC   GL224950  24.441   9.625   9.044
 1619POPC   C1A24951  24.538  10.034   8.759
 1619POPC   D2A24952  24.408   9.955   8.309
 1619POPC   C3A24953  24.685   9.852   7.906
 1619POPC   C4A24954  24.782   9.983   7.494
 1619POPC   C1B24955  24.461   9.537   8.598
 1619POPC   C2B24956  24.600   9.439   8.191
 1619POPC   C3B24957  24.563   9.351   7.721
 1619POPC   C4B24958  24.501   9.540   7.312
 1620POPC   NC324959  32.365   6.071   9.709
 1620POPC   PO424960  32.431   5.502   9.350
 1620POPC   GL124961  32.227   5.718   9.018
 1620POPC   GL224962  32.199   6.048   9.135
 1620POPC   C1A24963  32.395   5.936   8.634
 1620POPC   D2A24964  32.335   6.051   8.193
 1620POPC   C3A24965  32.400   5.742   7.828
 1620POPC   C4A24966  32.590   5.515   7.444
 1620POPC   C1B24967  31.906   6.066   8.768
 1620POPC   C2B24968  31.752   5.864   8.403
 1620POPC   C3B24969  31.887   5.788   8.002
 1620POPC   C4B24970  32.043   6.099   7.772
 1621POPC   NC324971  14.828   1.110   9.409
 1621POPC   PO424972  14.175   0.933   9.433
 1621POPC   GL124973  14.130   1.103   9.030
 1621POPC   GL224974  14.253   1.429   9.077
 1621POPC   C1A24975  14.460   1.053   8.737
 1621POPC   D2A24976  14.592   1.183   8.354
 1621POPC   C3A24977  14.342   1.121   8.017
 1621POPC   C4A24978  14.513   0.861   7.694
 1621POPC   C1B24979  14.465   1.561   8.689
 1621POPC   C2B24980  14.694   1.677   8.314
 1621POPC   C3B24981  14.732   1.460   7.932
 1621POPC   C4B24982  14.420   1.435   7.630
 1622POPC   NC324983  41.737  11.817   9.483
 1622POPC   PO424984  41.304  12.310   9.674
 1622POPC   GL124985  41.421  12.313   9.259
 1622POPC   GL224986  41.571  12.050   9.086
 1622POPC   C1A24987  41.316  12.344   8.795
 1622POPC   D2A24988  41.454  12.135   8.404
 1622POPC   C3A24989  41.333  12.287   7.998
 1622POPC   C4A24990  41.535  12.166   7.627
 1622POPC   C1B24991  41.838  12.115   8.738
 1622POPC   C2B24992  42.041  12.164   8.370
 1622POPC   C3B24993  41.844  12.058   8.026
 1622POPC   C4B24994  42.026  12.030   7.677
 1623POPC   NC324995  26.861  18.917   9.557
 1623POPC   PO424996  27.243  19.446   9.448
 1623POPC   GL124997  26.936  19.193   9.130
 1623POPC   GL224998  26.734  18.824   9.087
 1623POPC   C1A24999  27.039  18.992   8.728
 1623POPC   D2A25000  27.294  18.829   8.420
 1623POPC   C3A25001  27.084  18.897   8.029
 1623POPC   C4A25002  26.772  19.134   7.818
 1623POPC   C1B25003  26.577  18.473   8.821
 1623POPC   C2B25004  26.416  18.530   8.388
 1623POPC   C3B25005  26.573  18.699   7.997
 1623POPC   C4B25006  26.563  18.694   7.529
 1624POPC   NC325007  11.723   2.842   9.427
 1624POPC   PO425008  11.079   2.504   9.401
 1624POPC   GL125009  11.326   2.730   9.089
 1624POPC   GL225010  11.661   2.583   9.004
 1624POPC   C1A25011  11.238   2.723   8.656
 1624POPC   D2A25012  11.227   2.457   8.325
 1624POPC   C3A25013  10.999   2.657   8.002
 1624POPC   C4A25014  11.016   3.079   7.897
 1624POPC   C1B25015  11.689   2.942   8.691
 1624POPC   C2B25016  11.548   2.874   8.237
 1624POPC   C3B25017  11.477   2.563   7.901
 1624POPC   C4B25018  11.751   2.393   7.591
 1625POPC   NC325019  17.842  22.736   9.589
 1625POPC   PO425020  18.226  23.248   9.561
 1625POPC   GL125021  18.412  23.048   9.212
 1625POPC   GL225022  18.646  22.756   9.279
 1625POPC   C1A25023  18.273  23.003   8.802
 1625POPC   D2A25024  18.130  22.888   8.393
 1625POPC   C3A25025  18.332  22.948   8.042
 1625POPC   C4A25026  18.165  22.852   7.674
 1625POPC   C1B25027  18.648  22.561   8.874
 1625POPC   C2B25028  18.608  22.719   8.456
 1625POPC   C3B25029  18.707  22.606   8.044
 1625POPC   C4B25030  18.500  22.480   7.702
 1626POPC   NC325031   9.574  29.614   9.586
 1626POPC   PO425032   9.944  30.096   9.317
 1626POPC   GL125033   9.752  29.898   9.004
 1626POPC   GL225034   9.703  29.579   9.097
 1626POPC   C1A25035   9.786  29.887   8.553
 1626POPC   D2A25036   9.563  29.811   8.157
 1626POPC   C3A25037   9.712  30.029   7.798
 1626POPC   C4A25038   9.664  30.266   7.404
 1626POPC   C1B25039   9.507  29.471   8.729
 1626POPC   C2B25040   9.416  29.241   8.359
 1626POPC   C3B25041   9.524  29.335   7.983
 1626POPC   C4B25042   9.740  29.523   7.700
 1627POPC   NC325043  15.651  33.455  10.008
 1627POPC   PO425044  15.473  32.906   9.728
 1627POPC   GL125045  15.332  32.969   9.281
 1627POPC   GL225046  15.107  32.719   9.169
 1627POPC   C1A25047  15.224  33.145   8.835
 1627POPC   D2A25048  15.016  33.091   8.397
 1627POPC   C3A25049  15.186  33.103   7.954
 1627POPC   C4A25050  15.256  33.298   7.540
 1627POPC   C1B25051  15.195  32.655   8.697
 1627POPC   C2B25052  15.197  32.638   8.227
 1627POPC   C3B25053  14.898  32.663   7.892
 1627POPC   C4B25054  14.757  32.506   7.480
 1628POPC   NC325055  34.563  25.566   9.465
 1628POPC   PO425056  34.745  25.042   9.781
 1628POPC   GL125057  34.746  25.017   9.332
 1628POPC   GL225058  34.414  24.926   9.240
 1628POPC   C1A25059  34.744  25.102   8.887
 1628POPC   D2A25060  34.582  25.283   8.516
 1628POPC   C3A25061  34.698  25.122   8.131
 1628POPC   C4A25062  34.817  25.274   7.711
 1628POPC   C1B25063  34.226  25.045   8.798
 1628POPC   C2B25064  34.200  25.010   8.306
 1628POPC   C3B25065  34.263  25.186   7.868
 1628POPC   C4B25066  34.280  25.118   7.406
 1629POPC   NC325067  14.580   4.652   9.417
 1629POPC   PO425068  14.221   4.075   9.587
 1629POPC   GL125069  14.250   4.284   9.220
 1629POPC   GL225070  14.533   4.194   9.085
 1629POPC   C1A25071  14.075   4.338   8.813
 1629POPC   D2A25072  14.031   4.378   8.342
 1629POPC   C3A25073  14.421   4.357   8.133
 1629POPC   C4A25074  14.553   4.230   7.729
 1629POPC   C1B25075  14.631   4.369   8.689
 1629POPC   C2B25076  14.843   4.597   8.358
 1629POPC   C3B25077  14.900   4.517   7.932
 1629POPC   C4B25078  14.803   4.596   7.463
 1630POPC   NC325079  25.758  27.998   9.206
 1630POPC   PO425080  25.927  27.430   9.561
 1630POPC   GL125081  26.009  27.498   9.143
 1630POPC   GL225082  25.706  27.332   9.098
 1630POPC   C1A25083  25.927  27.600   8.692
 1630POPC   D2A25084  25.966  27.876   8.329
 1630POPC   C3A25085  25.978  27.754   7.909
 1630POPC   C4A25086  25.845  27.980   7.579
 1630POPC   C1B25087  25.743  27.121   8.701
 1630POPC   C2B25088  25.681  27.344   8.323
 1630POPC   C3B25089  25.564  27.471   7.935
 1630POPC   C4B25090  25.726  27.473   7.526
 1631POPC   NC325091  38.052  37.170   9.572
 1631POPC   PO425092  37.508  36.718   9.734
 1631POPC   GL125093  37.494  36.768   9.257
 1631POPC   GL225094  37.349  37.089   9.137
 1631POPC   C1A25095  37.717  36.755   8.852
 1631POPC   D2A25096  37.931  36.963   8.491
 1631POPC   C3A25097  37.772  36.879   8.048
 1631POPC   C4A25098  37.697  36.707   7.615
 1631POPC   C1B25099  37.314  37.177   8.680
 1631POPC   C2B25100  37.233  37.201   8.203
 1631POPC   C3B25101  37.322  37.109   7.735
 1631POPC   C4B25102  37.379  36.959   7.289
 1632POPC   NC325103  38.937  28.082   9.502
 1632POPC   PO425104  39.436  28.527   9.575
 1632POPC   GL125105  39.156  28.437   9.222
 1632POPC   GL225106  38.926  28.687   9.086
 1632POPC   C1A25107  38.984  28.284   8.819
 1632POPC   D2A25108  39.045  28.413   8.420
 1632POPC   C3A25109  39.011  28.066   8.156
 1632POPC   C4A25110  38.911  28.255   7.774
 1632POPC   C1B25111  39.331  28.677   8.806
 1632POPC   C2B25112  39.463  28.718   8.355
 1632POPC   C3B25113  39.232  28.693   7.970
 1632POPC   C4B25114  39.280  28.537   7.563
 1633POPC   NC325115   2.902  13.405   9.459
 1633POPC   PO425116   2.658  14.016   9.581
 1633POPC   GL125117   2.767  13.889   9.126
 1633POPC   GL225118   2.838  13.556   9.001
 1633POPC   C1A25119   2.565  13.827   8.684
 1633POPC   D2A25120   2.657  13.511   8.346
 1633POPC   C3A25121   2.561  13.564   7.903
 1633POPC   C4A25122   2.663  13.877   7.558
 1633POPC   C1B25123   3.057  13.576   8.662
 1633POPC   C2B25124   3.174  13.368   8.315
 1633POPC   C3B25125   3.078  13.632   7.988
 1633POPC   C4B25126   3.108  13.503   7.589
 1634POPC   NC325127   4.009  19.811   9.494
 1634POPC   PO425128   4.692  19.557   9.604
 1634POPC   GL125129   4.417  19.634   9.231
 1634POPC   GL225130   4.415  20.025   9.167
 1634POPC   C1A25131   4.271  19.705   8.792
 1634POPC   D2A25132   4.552  19.941   8.512
 1634POPC   C3A25133   4.601  19.817   8.072
 1634POPC   C4A25134   4.598  20.120   7.730
 1634POPC   C1B25135   4.204  20.227   8.792
 1634POPC   C2B25136   4.059  20.095   8.381
 1634POPC   C3B25137   4.132  20.134   7.934
 1634POPC   C4B25138   4.211  19.718   7.734
 1635POPC   NC325139   6.226  15.704   9.855
 1635POPC   PO425140   5.776  15.574   9.550
 1635POPC   GL125141   5.704  15.710   9.083
 1635POPC   GL225142   5.715  16.067   9.023
 1635POPC   C1A25143   5.484  15.800   8.647
 1635POPC   D2A25144   5.507  15.646   8.203
 1635POPC   C3A25145   5.663  15.869   7.839
 1635POPC   C4A25146   6.093  15.778   7.643
 1635POPC   C1B25147   5.984  15.893   8.671
 1635POPC   C2B25148   6.006  15.859   8.211
 1635POPC   C3B25149   6.064  16.204   7.899
 1635POPC   C4B25150   6.328  16.238   7.511
 1636POPC   NC325151  22.834  25.801   9.527
 1636POPC   PO425152  23.387  25.974   9.227
 1636POPC   GL125153  22.950  26.137   9.079
 1636POPC   GL225154  22.619  25.947   9.094
 1636POPC   C1A25155  22.624  26.361   8.805
 1636POPC   D2A25156  22.478  26.269   8.382
 1636POPC   C3A25157  22.876  26.322   8.138
 1636POPC   C4A25158  22.981  26.420   7.732
 1636POPC   C1B25159  22.679  25.856   8.649
 1636POPC   C2B25160  22.906  25.827   8.262
 1636POPC   C3B25161  22.931  25.872   7.789
 1636POPC   C4B25162  22.952  25.681   7.305
 1637POPC   NC325163  35.515  41.754   9.432
 1637POPC   PO425164  35.166  41.177   9.604
 1637POPC   GL125165  35.410  41.259   9.218
 1637POPC   GL225166  35.757  41.282   9.272
 1637POPC   C1A25167  35.326  41.422   8.796
 1637POPC   D2A25168  35.208  41.553   8.375
 1637POPC   C3A25169  35.419  41.648   7.990
 1637POPC   C4A25170  35.383  41.427   7.601
 1637POPC   C1B25171  35.819  41.208   8.839
 1637POPC   C2B25172  35.620  41.221   8.422
 1637POPC   C3B25173  35.753  41.253   7.991
 1637POPC   C4B25174  35.803  41.120   7.573
 1638POPC   NC325175  12.268  28.745   9.488
 1638POPC   PO425176  12.222  29.416   9.388
 1638POPC   GL125177  12.246  29.095   9.022
 1638POPC   GL225178  12.154  28.728   9.005
 1638POPC   C1A25179  12.235  28.998   8.555
 1638POPC   D2A25180  12.410  29.171   8.171
 1638POPC   C3A25181  12.117  29.349   7.845
 1638POPC   C4A25182  11.680  29.291   7.700
 1638POPC   C1B25183  12.177  28.476   8.657
 1638POPC   C2B25184  11.966  28.498   8.289
 1638POPC   C3B25185  11.992  28.887   8.029
 1638POPC   C4B25186  12.365  28.925   7.723
 1639POPC   NC325187  21.786  31.294   9.460
 1639POPC   PO425188  21.304  31.632   9.606
 1639POPC   GL125189  21.551  31.656   9.219
 1639POPC   GL225190  21.234  31.555   9.081
 1639POPC   C1A25191  21.602  31.778   8.816
 1639POPC   D2A25192  21.445  31.569   8.448
 1639POPC   C3A25193  21.479  31.665   8.033
 1639POPC   C4A25194  21.571  31.788   7.595
 1639POPC   C1B25195  21.029  31.693   8.715
 1639POPC   C2B25196  20.938  31.405   8.396
 1639POPC   C3B25197  20.981  31.275   8.015
 1639POPC   C4B25198  21.106  31.594   7.708
 1640POPC   NC325199  22.397  22.876   9.404
 1640POPC   PO425200  21.875  22.606   9.752
 1640POPC   GL125201  21.933  22.760   9.265
 1640POPC   GL225202  21.911  23.118   9.185
 1640POPC   C1A25203  22.107  22.667   8.838
 1640POPC   D2A25204  21.980  22.782   8.438
 1640POPC   C3A25205  22.129  22.651   8.047
 1640POPC   C4A25206  22.136  22.808   7.625
 1640POPC   C1B25207  21.922  23.259   8.758
 1640POPC   C2B25208  22.097  23.268   8.326
 1640POPC   C3B25209  21.932  23.140   7.949
 1640POPC   C4B25210  21.915  23.268   7.514
 1641POPC   NC325211   6.665  21.227   9.538
 1641POPC   PO425212   7.050  21.772   9.362
 1641POPC   GL125213   6.734  21.459   9.093
 1641POPC   GL225214   6.491  21.126   9.091
 1641POPC   C1A25215   6.726  21.240   8.652
 1641POPC   D2A25216   6.958  21.038   8.305
 1641POPC   C3A25217   6.961  21.313   7.943
 1641POPC   C4A25218   6.811  21.366   7.536
 1641POPC   C1B25219   6.280  21.405   8.815
 1641POPC   C2B25220   6.308  21.500   8.413
 1641POPC   C3B25221   6.439  21.336   8.043
 1641POPC   C4B25222   6.363  21.523   7.670
 1642POPC   NC325223  10.070  44.447   9.381
 1642POPC   PO425224  10.148  44.987   9.778
 1642POPC   GL125225   9.947  44.983   9.323
 1642POPC   GL225226   9.673  44.800   9.231
 1642POPC   C1A25227  10.001  44.945   8.842
 1642POPC   D2A25228   9.922  44.653   8.477
 1642POPC   C3A25229   9.986  44.767   8.046
 1642POPC   C4A25230  10.058  44.662   7.618
 1642POPC   C1B25231   9.523  44.674   8.821
 1642POPC   C2B25232   9.502  44.362   8.487
 1642POPC   C3B25233   9.577  44.420   8.046
 1642POPC   C4B25234   9.556  44.713   7.681
 1643POPC   NC325235  18.569  38.274   9.515
 1643POPC   PO425236  19.278  38.188   9.444
 1643POPC   GL125237  18.939  38.305   9.156
 1643POPC   GL225238  18.710  38.025   9.079
 1643POPC   C1A25239  18.944  38.612   8.818
 1643POPC   D2A25240  19.091  38.789   8.413
 1643POPC   C3A25241  19.136  38.478   8.059
 1643POPC   C4A25242  18.997  38.274   7.654
 1643POPC   C1B25243  18.576  38.227   8.752
 1643POPC   C2B25244  18.727  38.400   8.392
 1643POPC   C3B25245  18.657  38.193   8.021
 1643POPC   C4B25246  18.502  38.075   7.620
 1644POPC   NC325247  25.772  37.903   9.355
 1644POPC   PO425248  26.244  37.387   9.467
 1644POPC   GL125249  26.248  37.479   9.057
 1644POPC   GL225250  25.964  37.608   8.971
 1644POPC   C1A25251  26.323  37.625   8.634
 1644POPC   D2A25252  26.066  37.695   8.305
 1644POPC   C3A25253  26.239  37.573   7.935
 1644POPC   C4A25254  26.131  37.720   7.531
 1644POPC   C1B25255  25.664  37.696   8.650
 1644POPC   C2B25256  25.547  37.734   8.248
 1644POPC   C3B25257  25.738  37.733   7.855
 1644POPC   C4B25258  25.646  37.803   7.396
 1645POPC   NC325259  33.394   9.598   9.558
 1645POPC   PO425260  32.703   9.869   9.573
 1645POPC   GL125261  32.929   9.683   9.235
 1645POPC   GL225262  32.800   9.357   9.248
 1645POPC   C1A25263  33.227   9.623   8.874
 1645POPC   D2A25264  33.081   9.775   8.452
 1645POPC   C3A25265  33.241   9.699   8.070
 1645POPC   C4A25266  33.161   9.884   7.674
 1645POPC   C1B25267  32.764   9.433   8.785
 1645POPC   C2B25268  32.668   9.497   8.370
 1645POPC   C3B25269  32.741   9.732   7.993
 1645POPC   C4B25270  32.814   9.513   7.609
 1646POPC   NC325271  17.343  37.482   9.800
 1646POPC   PO425272  17.486  37.944   9.388
 1646POPC   GL125273  17.545  37.699   9.062
 1646POPC   GL225274  17.226  37.570   9.024
 1646POPC   C1A25275  17.648  37.698   8.642
 1646POPC   D2A25276  17.894  37.837   8.335
 1646POPC   C3A25277  17.787  37.614   8.001
 1646POPC   C4A25278  17.609  37.647   7.604
 1646POPC   C1B25279  17.200  37.957   8.752
 1646POPC   C2B25280  17.346  38.049   8.341
 1646POPC   C3B25281  17.274  37.793   7.972
 1646POPC   C4B25282  17.152  37.433   7.708
 1647POPC   NC325283   6.962   9.964   9.413
 1647POPC   PO425284   6.521   9.468   9.470
 1647POPC   GL125285   6.773   9.599   9.120
 1647POPC   GL225286   7.103   9.497   9.191
 1647POPC   C1A25287   6.698   9.848   8.776
 1647POPC   D2A25288   6.400   9.750   8.478
 1647POPC   C3A25289   6.424   9.965   8.098
 1647POPC   C4A25290   6.479   9.787   7.714
 1647POPC   C1B25291   7.173   9.663   8.751
 1647POPC   C2B25292   6.960   9.653   8.369
 1647POPC   C3B25293   6.959   9.786   7.950
 1647POPC   C4B25294   6.916   9.589   7.553
 1648POPC   NC325295  10.981  42.083   9.459
 1648POPC   PO425296  10.276  42.372   9.446
 1648POPC   GL125297  10.369  42.161   9.067
 1648POPC   GL225298  10.714  42.169   9.038
 1648POPC   C1A25299  10.328  42.168   8.649
 1648POPC   D2A25300  10.620  42.196   8.353
 1648POPC   C3A25301  10.388  42.130   7.976
 1648POPC   C4A25302  10.254  42.382   7.575
 1648POPC   C1B25303  10.683  42.589   8.896
 1648POPC   C2B25304  10.757  42.713   8.480
 1648POPC   C3B25305  10.795  42.590   8.050
 1648POPC   C4B25306  10.740  42.330   7.689
 1649POPC   NC325307  34.779   2.234   9.501
 1649POPC   PO425308  34.549   1.590   9.441
 1649POPC   GL125309  34.460   1.959   9.175
 1649POPC   GL225310  34.749   2.125   9.017
 1649POPC   C1A25311  34.319   1.931   8.753
 1649POPC   D2A25312  34.202   1.730   8.341
 1649POPC   C3A25313  34.321   1.908   7.939
 1649POPC   C4A25314  34.399   2.266   7.670
 1649POPC   C1B25315  34.845   1.841   8.728
 1649POPC   C2B25316  34.695   1.918   8.317
 1649POPC   C3B25317  34.823   2.155   7.938
 1649POPC   C4B25318  34.885   2.275   7.492
 1650POPC   NC325319  39.627  27.361   9.436
 1650POPC   PO425320  40.100  27.780   9.565
 1650POPC   GL125321  39.998  27.593   9.176
 1650POPC   GL225322  39.699  27.782   9.120
 1650POPC   C1A25323  40.119  27.334   8.809
 1650POPC   D2A25324  40.419  27.469   8.472
 1650POPC   C3A25325  40.286  27.424   8.037
 1650POPC   C4A25326  40.319  27.687   7.688
 1650POPC   C1B25327  39.846  27.807   8.701
 1650POPC   C2B25328  39.957  27.866   8.247
 1650POPC   C3B25329  39.822  27.823   7.824
 1650POPC   C4B25330  39.898  27.417   7.596
 1651POPC   NC325331   0.028  41.194   9.528
 1651POPC   PO425332   0.507  40.683   9.501
 1651POPC   GL125333   0.430  40.699   9.102
 1651POPC   GL225334   0.114  40.813   9.134
 1651POPC   C1A25335   0.465  40.614   8.694
 1651POPC   D2A25336   0.316  40.431   8.327
 1651POPC   C3A25337   0.389  40.767   8.053
 1651POPC   C4A25338   0.542  41.066   7.780
 1651POPC   C1B25339   0.156  41.054   8.723
 1651POPC   C2B25340   0.147  41.231   8.299
 1651POPC   C3B25341   0.027  41.120   7.866
 1651POPC   C4B25342   0.182  40.966   7.461
 1652POPC   NC325343  23.602  29.618   9.518
 1652POPC   PO425344  23.414  30.232   9.358
 1652POPC   GL125345  23.619  30.176   8.977
 1652POPC   GL225346  23.899  29.941   9.056
 1652POPC   C1A25347  23.661  29.969   8.588
 1652POPC   D2A25348  23.415  29.595   8.482
 1652POPC   C3A25349  23.316  29.724   8.093
 1652POPC   C4A25350  23.588  29.995   7.837
 1652POPC   C1B25351  24.088  30.228   8.763
 1652POPC   C2B25352  24.034  30.403   8.374
 1652POPC   C3B25353  24.139  30.204   7.974
 1652POPC   C4B25354  24.094  29.829   7.751
 1653POPC   NC325355  20.755  32.637   9.480
 1653POPC   PO425356  20.438  32.035   9.467
 1653POPC   GL125357  20.558  32.289   9.118
 1653POPC   GL225358  20.864  32.298   9.130
 1653POPC   C1A25359  20.373  32.407   8.737
 1653POPC   D2A25360  20.101  32.197   8.489
 1653POPC   C3A25361  20.194  32.402   8.145
 1653POPC   C4A25362  20.457  32.263   7.803
 1653POPC   C1B25363  20.818  32.161   8.689
 1653POPC   C2B25364  20.656  32.237   8.307
 1653POPC   C3B25365  20.893  32.437   8.011
 1653POPC   C4B25366  20.914  32.381   7.583
 1654POPC   NC325367  22.728   6.865   9.490
 1654POPC   PO425368  23.363   6.771   9.191
 1654POPC   GL125369  23.030   6.722   9.056
 1654POPC   GL225370  22.977   6.437   9.236
 1654POPC   C1A25371  23.095   6.623   8.611
 1654POPC   D2A25372  23.112   6.509   8.192
 1654POPC   C3A25373  22.893   6.812   7.948
 1654POPC   C4A25374  22.978   6.856   7.523
 1654POPC   C1B25375  22.745   6.350   8.852
 1654POPC   C2B25376  22.744   6.257   8.444
 1654POPC   C3B25377  22.604   6.384   8.020
 1654POPC   C4B25378  22.739   6.429   7.597
 1655POPC   NC325379  12.509  25.089   9.414
 1655POPC   PO425380  13.123  25.318   9.489
 1655POPC   GL125381  12.953  25.141   9.126
 1655POPC   GL225382  12.651  25.379   9.031
 1655POPC   C1A25383  12.986  25.195   8.697
 1655POPC   D2A25384  12.683  25.337   8.426
 1655POPC   C3A25385  12.789  25.334   8.049
 1655POPC   C4A25386  13.051  25.436   7.731
 1655POPC   C1B25387  12.522  25.016   8.794
 1655POPC   C2B25388  12.536  24.825   8.419
 1655POPC   C3B25389  12.440  24.962   8.021
 1655POPC   C4B25390  12.564  25.158   7.626
 1656POPC   NC325391  25.252  25.379   9.657
 1656POPC   PO425392  25.503  24.860   9.430
 1656POPC   GL125393  25.455  25.071   9.058
 1656POPC   GL225394  25.133  25.044   9.063
 1656POPC   C1A25395  25.392  25.272   8.615
 1656POPC   D2A25396  25.422  25.443   8.172
 1656POPC   C3A25397  25.273  25.201   7.799
 1656POPC   C4A25398  25.447  25.057   7.388
 1656POPC   C1B25399  24.901  25.238   8.739
 1656POPC   C2B25400  24.970  25.154   8.322
 1656POPC   C3B25401  24.790  25.295   7.945
 1656POPC   C4B25402  24.773  25.223   7.524
 1657POPC   NC325403  25.891  24.626   9.496
 1657POPC   PO425404  26.193  24.100   9.292
 1657POPC   GL125405  26.105  24.514   9.040
 1657POPC   GL225406  25.748  24.642   9.019
 1657POPC   C1A25407  25.970  24.583   8.595
 1657POPC   D2A25408  25.775  24.546   8.224
 1657POPC   C3A25409  26.110  24.645   7.975
 1657POPC   C4A25410  26.319  24.279   7.938
 1657POPC   C1B25411  25.461  24.745   8.653
 1657POPC   C2B25412  25.434  24.923   8.218
 1657POPC   C3B25413  25.673  24.876   7.826
 1657POPC   C4B25414  25.877  24.778   7.420
 1658POPC   NC325415   5.712  21.677   9.434
 1658POPC   PO425416   6.363  21.564   9.513
 1658POPC   GL125417   6.030  21.340   9.236
 1658POPC   GL225418   5.950  21.021   9.349
 1658POPC   C1A25419   5.754  21.331   8.811
 1658POPC   D2A25420   5.646  21.441   8.364
 1658POPC   C3A25421   5.949  21.594   8.060
 1658POPC   C4A25422   5.898  21.705   7.660
 1658POPC   C1B25423   6.042  20.936   8.909
 1658POPC   C2B25424   5.839  20.868   8.515
 1658POPC   C3B25425   5.938  21.067   8.126
 1658POPC   C4B25426   6.066  21.141   7.723
 1659POPC   NC325427   4.873  32.743   9.666
 1659POPC   PO425428   5.206  33.302   9.473
 1659POPC   GL125429   5.060  33.003   9.206
 1659POPC   GL225430   4.718  32.921   9.172
 1659POPC   C1A25431   5.203  33.024   8.802
 1659POPC   D2A25432   5.342  32.891   8.427
 1659POPC   C3A25433   5.391  33.200   8.130
 1659POPC   C4A25434   5.341  32.961   7.773
 1659POPC   C1B25435   4.705  33.095   8.724
 1659POPC   C2B25436   4.897  33.142   8.289
 1659POPC   C3B25437   4.835  33.044   7.823
 1659POPC   C4B25438   4.744  33.264   7.406
 1660POPC   NC325439  33.579  44.448   9.535
 1660POPC   PO425440  34.096  44.731   9.400
 1660POPC   GL125441  33.853  44.569   9.069
 1660POPC   GL225442  33.546  44.325   9.065
 1660POPC   C1A25443  33.854  44.863   8.733
 1660POPC   D2A25444  34.031  44.907   8.343
 1660POPC   C3A25445  33.823  44.747   7.985
 1660POPC   C4A25446  33.937  44.339   7.874
 1660POPC   C1B25447  33.502  44.494   8.704
 1660POPC   C2B25448  33.773  44.459   8.414
 1660POPC   C3B25449  33.497  44.363   8.136
 1660POPC   C4B25450  33.373  44.536   7.771
 1661POPC   NC325451  26.604  13.427   9.450
 1661POPC   PO425452  27.142  13.855   9.679
 1661POPC   GL125453  27.059  13.778   9.222
 1661POPC   GL225454  26.970  13.464   9.104
 1661POPC   C1A25455  27.019  13.832   8.725
 1661POPC   D2A25456  27.059  13.654   8.272
 1661POPC   C3A25457  26.846  13.651   7.842
 1661POPC   C4A25458  26.797  13.955   7.455
 1661POPC   C1B25459  26.820  13.371   8.673
 1661POPC   C2B25460  26.600  13.419   8.280
 1661POPC   C3B25461  26.581  13.190   7.931
 1661POPC   C4B25462  26.472  13.290   7.533
 1662POPC   NC325463  40.376  17.010   9.499
 1662POPC   PO425464  39.664  16.996   9.434
 1662POPC   GL125465  39.800  16.740   9.102
 1662POPC   GL225466  40.147  16.809   9.093
 1662POPC   C1A25467  39.656  16.589   8.709
 1662POPC   D2A25468  39.689  16.912   8.400
 1662POPC   C3A25469  39.710  16.792   7.990
 1662POPC   C4A25470  39.950  16.562   7.768
 1662POPC   C1B25471  40.212  16.949   8.675
 1662POPC   C2B25472  40.397  16.804   8.300
 1662POPC   C3B25473  40.370  16.866   7.876
 1662POPC   C4B25474  40.268  16.768   7.432
 1663POPC   NC325475  44.071  38.121   9.440
 1663POPC   PO425476  43.616  37.569   9.426
 1663POPC   GL125477  43.990  37.693   9.201
 1663POPC   GL225478  44.300  37.564   9.199
 1663POPC   C1A25479  44.153  37.817   8.790
 1663POPC   D2A25480  43.869  37.684   8.464
 1663POPC   C3A25481  44.002  37.804   8.074
 1663POPC   C4A25482  44.003  38.056   7.737
 1663POPC   C1B25483  44.020  37.321   8.870
 1663POPC   C2B25484  44.038  37.202   8.443
 1663POPC   C3B25485  43.827  37.302   8.068
 1663POPC   C4B25486  43.928  37.498   7.677
 1664POPC   NC325487   3.448   7.514   9.431
 1664POPC   PO425488   4.126   7.331   9.434
 1664POPC   GL125489   3.900   7.550   9.095
 1664POPC   GL225490   3.562   7.739   9.004
 1664POPC   C1A25491   3.931   7.666   8.682
 1664POPC   D2A25492   3.868   7.416   8.349
 1664POPC   C3A25493   3.790   7.624   8.011
 1664POPC   C4A25494   3.701   7.768   7.607
 1664POPC   C1B25495   3.179   7.715   8.777
 1664POPC   C2B25496   3.077   7.559   8.410
 1664POPC   C3B25497   3.274   7.535   8.022
 1664POPC   C4B25498   3.182   7.684   7.638
 1665POPC   NC325499  41.959  31.336   9.547
 1665POPC   PO425500  41.297  31.689   9.594
 1665POPC   GL125501  41.484  31.575   9.223
 1665POPC   GL225502  41.803  31.723   9.261
 1665POPC   C1A25503  41.536  31.284   8.887
 1665POPC   D2A25504  41.440  31.480   8.534
 1665POPC   C3A25505  41.493  31.365   8.162
 1665POPC   C4A25506  41.496  31.586   7.806
 1665POPC   C1B25507  41.791  31.730   8.811
 1665POPC   C2B25508  41.935  31.409   8.494
 1665POPC   C3B25509  41.957  31.471   8.045
 1665POPC   C4B25510  41.949  31.783   7.767
 1666POPC   NC325511  40.462  20.874   9.471
 1666POPC   PO425512  41.022  20.547   9.787
 1666POPC   GL125513  40.988  20.574   9.282
 1666POPC   GL225514  40.724  20.486   9.140
 1666POPC   C1A25515  41.029  20.463   8.754
 1666POPC   D2A25516  40.934  20.251   8.349
 1666POPC   C3A25517  40.833  20.536   7.998
 1666POPC   C4A25518  41.122  20.759   7.687
 1666POPC   C1B25519  40.611  20.719   8.762
 1666POPC   C2B25520  40.453  20.572   8.383
 1666POPC   C3B25521  40.391  20.808   7.999
 1666POPC   C4B25522  40.620  20.809   7.611
 1667POPC   NC325523  12.674  40.148   9.588
 1667POPC   PO425524  12.838  39.519   9.480
 1667POPC   GL125525  12.836  39.820   9.186
 1667POPC   GL225526  13.085  40.058   9.257
 1667POPC   C1A25527  12.756  39.857   8.764
 1667POPC   D2A25528  13.048  39.977   8.461
 1667POPC   C3A25529  12.908  39.931   8.051
 1667POPC   C4A25530  13.133  39.999   7.662
 1667POPC   C1B25531  12.982  40.296   8.885
 1667POPC   C2B25532  12.689  40.331   8.533
 1667POPC   C3B25533  12.748  40.441   8.109
 1667POPC   C4B25534  12.904  40.445   7.681
 1668POPC   NC325535  25.606  13.419   9.508
 1668POPC   PO425536  24.910  13.457   9.404
 1668POPC   GL125537  25.256  13.657   9.157
 1668POPC   GL225538  25.558  13.529   9.023
 1668POPC   C1A25539  25.235  13.839   8.746
 1668POPC   D2A25540  24.987  13.644   8.437
 1668POPC   C3A25541  25.097  13.712   8.035
 1668POPC   C4A25542  25.131  13.385   7.741
 1668POPC   C1B25543  25.330  13.333   8.675
 1668POPC   C2B25544  25.337  13.285   8.228
 1668POPC   C3B25545  25.596  13.483   7.913
 1668POPC   C4B25546  25.439  13.807   7.676
 1669POPC   NC325547  36.494  29.934   9.468
 1669POPC   PO425548  35.855  30.239   9.398
 1669POPC   GL125549  36.104  29.948   9.160
 1669POPC   GL225550  35.890  29.724   9.019
 1669POPC   C1A25551  36.378  29.846   8.809
 1669POPC   D2A25552  36.520  29.983   8.401
 1669POPC   C3A25553  36.310  29.797   8.048
 1669POPC   C4A25554  36.204  29.998   7.669
 1669POPC   C1B25555  35.835  30.036   8.743
 1669POPC   C2B25556  36.003  30.077   8.352
 1669POPC   C3B25557  35.792  30.038   7.965
 1669POPC   C4B25558  35.798  30.308   7.645
 1670POPC   NC325559  11.359  27.675   9.511
 1670POPC   PO425560  11.084  27.051   9.529
 1670POPC   GL125561  11.028  27.426   9.202
 1670POPC   GL225562  11.368  27.497   9.041
 1670POPC   C1A25563  10.937  27.619   8.761
 1670POPC   D2A25564  11.007  27.419   8.313
 1670POPC   C3A25565  11.087  27.619   7.899
 1670POPC   C4A25566  11.027  27.510   7.437
 1670POPC   C1B25567  11.655  27.533   8.705
 1670POPC   C2B25568  11.678  27.406   8.289
 1670POPC   C3B25569  11.629  27.593   7.889
 1670POPC   C4B25570  11.429  27.818   7.536
 1671POPC   NC325571  36.596  29.226   9.460
 1671POPC   PO425572  37.202  28.918   9.608
 1671POPC   GL125573  37.152  29.072   9.195
 1671POPC   GL225574  36.844  28.956   9.107
 1671POPC   C1A25575  37.193  29.330   8.825
 1671POPC   D2A25576  37.006  29.306   8.411
 1671POPC   C3A25577  37.128  28.967   8.108
 1671POPC   C4A25578  37.232  29.102   7.692
 1671POPC   C1B25579  36.649  29.145   8.765
 1671POPC   C2B25580  36.634  28.964   8.337
 1671POPC   C3B25581  36.709  29.167   7.930
 1671POPC   C4B25582  36.739  28.970   7.522
 1672POPC   NC325583  40.341  10.748   9.711
 1672POPC   PO425584  41.035  10.557   9.660
 1672POPC   GL125585  40.914  10.579   9.225
 1672POPC   GL225586  41.151  10.315   9.147
 1672POPC   C1A25587  40.639  10.544   8.843
 1672POPC   D2A25588  40.755  10.645   8.416
 1672POPC   C3A25589  40.596  10.577   8.003
 1672POPC   C4A25590  40.788  10.575   7.587
 1672POPC   C1B25591  41.146  10.528   8.774
 1672POPC   C2B25592  41.188  10.385   8.400
 1672POPC   C3B25593  41.058  10.390   8.010
 1672POPC   C4B25594  41.182  10.213   7.642
 1673POPC   NC325595   5.417  18.463   9.661
 1673POPC   PO425596   4.954  18.001   9.588
 1673POPC   GL125597   4.908  18.248   9.149
 1673POPC   GL225598   4.853  18.630   9.145
 1673POPC   C1A25599   4.966  18.376   8.707
 1673POPC   D2A25600   5.121  18.239   8.330
 1673POPC   C3A25601   4.859  18.159   7.978
 1673POPC   C4A25602   4.988  18.338   7.612
 1673POPC   C1B25603   5.288  18.685   8.936
 1673POPC   C2B25604   5.349  18.711   8.454
 1673POPC   C3B25605   5.177  18.636   8.006
 1673POPC   C4B25606   5.374  18.668   7.571
 1674POPC   NC325607  25.958  10.066   9.510
 1674POPC   PO425608  26.286  10.609   9.634
 1674POPC   GL125609  26.338  10.529   9.190
 1674POPC   GL225610  26.230  10.869   9.123
 1674POPC   C1A25611  26.192  10.153   8.885
 1674POPC   D2A25612  26.416   9.967   8.512
 1674POPC   C3A25613  26.304  10.128   8.090
 1674POPC   C4A25614  26.121  10.363   7.732
 1674POPC   C1B25615  26.042  10.648   8.765
 1674POPC   C2B25616  25.947  10.482   8.351
 1674POPC   C3B25617  25.948  10.768   8.008
 1674POPC   C4B25618  26.273  11.094   7.954
 1675POPC   NC325619  14.108  12.781   9.737
 1675POPC   PO425620  14.680  12.566   9.487
 1675POPC   GL125621  14.401  12.799   9.221
 1675POPC   GL225622  14.677  12.732   8.994
 1675POPC   C1A25623  14.299  12.934   8.749
 1675POPC   D2A25624  14.682  13.031   8.499
 1675POPC   C3A25625  14.593  13.102   8.075
 1675POPC   C4A25626  14.227  13.054   7.808
 1675POPC   C1B25627  14.252  12.454   8.899
 1675POPC   C2B25628  14.069  12.517   8.529
 1675POPC   C3B25629  14.225  12.694   8.180
 1675POPC   C4B25630  14.198  12.485   7.788
 1676POPC   NC325631  17.242  28.880   9.523
 1676POPC   PO425632  17.810  29.162   9.459
 1676POPC   GL125633  17.698  29.119   9.081
 1676POPC   GL225634  17.401  29.295   9.118
 1676POPC   C1A25635  17.649  29.197   8.644
 1676POPC   D2A25636  17.810  29.439   8.335
 1676POPC   C3A25637  17.599  29.338   7.970
 1676POPC   C4A25638  17.759  28.940   7.830
 1676POPC   C1B25639  17.285  28.924   8.862
 1676POPC   C2B25640  17.146  29.019   8.463
 1676POPC   C3B25641  17.346  28.919   8.130
 1676POPC   C4B25642  17.212  28.853   7.751
 1677POPC   NC325643   2.881  17.758   9.798
 1677POPC   PO425644   2.672  17.173   9.695
 1677POPC   GL125645   2.932  17.432   9.348
 1677POPC   GL225646   2.899  17.225   9.063
 1677POPC   C1A25647   2.945  17.708   8.932
 1677POPC   D2A25648   2.813  17.783   8.465
 1677POPC   C3A25649   2.749  17.524   8.048
 1677POPC   C4A25650   2.959  17.599   7.628
 1677POPC   C1B25651   2.735  17.273   8.636
 1677POPC   C2B25652   2.469  17.100   8.321
 1677POPC   C3B25653   2.494  17.079   7.907
 1677POPC   C4B25654   2.746  17.090   7.586
 1678POPC   NC325655  30.635  33.168   9.560
 1678POPC   PO425656  30.868  32.570   9.507
 1678POPC   GL125657  30.822  32.871   9.200
 1678POPC   GL225658  30.478  32.901   9.156
 1678POPC   C1A25659  30.776  33.145   8.824
 1678POPC   D2A25660  31.022  33.251   8.472
 1678POPC   C3A25661  30.825  33.253   8.066
 1678POPC   C4A25662  30.866  33.006   7.701
 1678POPC   C1B25663  30.329  32.877   8.766
 1678POPC   C2B25664  30.474  33.054   8.415
 1678POPC   C3B25665  30.365  33.043   8.025
 1678POPC   C4B25666  30.374  32.826   7.673
 1679POPC   NC325667  29.594  32.640   9.434
 1679POPC   PO425668  30.202  33.009   9.557
 1679POPC   GL125669  30.004  33.090   9.128
 1679POPC   GL225670  29.961  32.764   9.103
 1679POPC   C1A25671  29.858  33.096   8.658
 1679POPC   D2A25672  29.615  32.922   8.317
 1679POPC   C3A25673  29.659  33.211   7.969
 1679POPC   C4A25674  30.012  33.200   7.701
 1679POPC   C1B25675  29.893  32.615   8.700
 1679POPC   C2B25676  30.148  32.626   8.333
 1679POPC   C3B25677  29.943  32.727   7.949
 1679POPC   C4B25678  29.945  32.631   7.515
 1680POPC   NC325679   3.234  19.618   9.582
 1680POPC   PO425680   3.370  20.267   9.794
 1680POPC   GL125681   3.578  20.097   9.319
 1680POPC   GL225682   3.496  19.791   9.183
 1680POPC   C1A25683   3.782  19.967   8.841
 1680POPC   D2A25684   3.584  19.915   8.428
 1680POPC   C3A25685   3.768  19.790   8.030
 1680POPC   C4A25686   3.508  19.894   7.676
 1680POPC   C1B25687   3.388  19.587   8.792
 1680POPC   C2B25688   3.208  19.566   8.386
 1680POPC   C3B25689   3.350  19.503   7.970
 1680POPC   C4B25690   3.302  19.393   7.563
 1681POPC   NC325691   9.189  39.464   9.520
 1681POPC   PO425692   9.401  38.862   9.510
 1681POPC   GL125693   9.130  39.026   9.113
 1681POPC   GL225694   9.017  39.394   9.030
 1681POPC   C1A25695   8.737  39.044   8.795
 1681POPC   D2A25696   8.594  39.167   8.362
 1681POPC   C3A25697   8.884  39.349   8.016
 1681POPC   C4A25698   9.013  39.219   7.585
 1681POPC   C1B25699   8.967  39.472   8.558
 1681POPC   C2B25700   9.266  39.613   8.214
 1681POPC   C3B25701   9.250  39.654   7.742
 1681POPC   C4B25702   9.222  39.642   7.265
 1682POPC   NC325703  40.850  12.106   9.651
 1682POPC   PO425704  40.810  12.734   9.517
 1682POPC   GL125705  40.776  12.350   9.211
 1682POPC   GL225706  41.021  12.034   9.176
 1682POPC   C1A25707  40.719  12.146   8.801
 1682POPC   D2A25708  40.945  12.073   8.418
 1682POPC   C3A25709  40.729  12.032   8.042
 1682POPC   C4A25710  40.419  12.322   7.917
 1682POPC   C1B25711  41.217  11.819   8.790
 1682POPC   C2B25712  41.210  11.651   8.332
 1682POPC   C3B25713  41.200  11.800   7.887
 1682POPC   C4B25714  41.218  11.662   7.440
 1683POPC   NC325715  41.925  37.054   9.519
 1683POPC   PO425716  41.531  36.548   9.480
 1683POPC   GL125717  41.389  36.782   9.118
 1683POPC   GL225718  41.454  37.160   9.106
 1683POPC   C1A25719  41.388  36.649   8.718
 1683POPC   D2A25720  41.481  36.980   8.453
 1683POPC   C3A25721  41.386  36.939   8.046
 1683POPC   C4A25722  41.229  37.166   7.722
 1683POPC   C1B25723  41.807  36.948   8.863
 1683POPC   C2B25724  41.978  37.020   8.430
 1683POPC   C3B25725  41.921  36.902   8.009
 1683POPC   C4B25726  41.721  36.973   7.619
 1684POPC   NC325727  44.493  36.645   9.418
 1684POPC   PO425728  44.279  37.198   9.526
 1684POPC   GL125729  44.576  37.075   9.154
 1684POPC   GL225730  44.917  37.012   9.237
 1684POPC   C1A25731  44.744  36.721   8.812
 1684POPC   D2A25732  44.914  36.586   8.392
 1684POPC   C3A25733  44.662  36.558   7.991
 1684POPC   C4A25734  44.560  36.833   7.649
 1684POPC   C1B25735  44.966  37.171   8.793
 1684POPC   C2B25736   0.118  37.053   8.390
 1684POPC   C3B25737  44.880  37.047   8.007
 1684POPC   C4B25738  44.773  37.296   7.632
 1685POPC   NC325739  20.995  26.126   9.626
 1685POPC   PO425740  20.434  25.684   9.639
 1685POPC   GL125741  20.584  25.997   9.317
 1685POPC   GL225742  20.274  26.151   9.247
 1685POPC   C1A25743  20.819  26.146   8.925
 1685POPC   D2A25744  20.874  26.263   8.468
 1685POPC   C3A25745  20.712  26.157   8.017
 1685POPC   C4A25746  20.880  26.058   7.570
 1685POPC   C1B25747  20.342  25.975   8.853
 1685POPC   C2B25748  20.381  26.042   8.432
 1685POPC   C3B25749  20.334  25.773   8.086
 1685POPC   C4B25750  20.464  25.796   7.680
 1686POPC   NC325751   0.840  32.002   9.599
 1686POPC   PO425752   1.181  32.552   9.507
 1686POPC   GL125753   1.156  32.445   9.086
 1686POPC   GL225754   0.864  32.246   9.086
 1686POPC   C1A25755   1.373  32.517   8.653
 1686POPC   D2A25756   1.625  32.687   8.278
 1686POPC   C3A25757   1.601  32.540   7.869
 1686POPC   C4A25758   1.472  32.142   7.725
 1686POPC   C1B25759   0.856  32.536   8.700
 1686POPC   C2B25760   0.823  32.424   8.250
 1686POPC   C3B25761   1.046  32.403   7.856
 1686POPC   C4B25762   0.983  31.999   7.603
 1687POPC   NC325763   5.720  28.836   9.565
 1687POPC   PO425764   6.257  29.304   9.498
 1687POPC   GL125765   6.074  29.154   9.121
 1687POPC   GL225766   5.965  28.786   9.113
 1687POPC   C1A25767   6.096  29.239   8.678
 1687POPC   D2A25768   6.293  29.293   8.276
 1687POPC   C3A25769   6.072  29.093   7.934
 1687POPC   C4A25770   5.727  29.368   7.831
 1687POPC   C1B25771   5.659  28.996   8.846
 1687POPC   C2B25772   5.614  29.027   8.383
 1687POPC   C3B25773   5.620  28.826   7.954
 1687POPC   C4B25774   5.664  28.971   7.504
 1688POPC   NC325775   3.336  32.429   9.618
 1688POPC   PO425776   3.561  31.791   9.610
 1688POPC   GL125777   3.524  32.118   9.236
 1688POPC   GL225778   3.774  32.365   9.177
 1688POPC   C1A25779   3.507  32.257   8.778
 1688POPC   D2A25780   3.345  32.093   8.392
 1688POPC   C3A25781   3.507  32.243   7.988
 1688POPC   C4A25782   3.442  32.362   7.560
 1688POPC   C1B25783   3.914  32.592   8.761
 1688POPC   C2B25784   3.770  32.696   8.306
 1688POPC   C3B25785   3.761  32.660   7.820
 1688POPC   C4B25786   3.803  32.562   7.304
 1689POPC   NC325787  25.831  37.166   9.446
 1689POPC   PO425788  26.255  36.633   9.585
 1689POPC   GL125789  26.042  36.643   9.219
 1689POPC   GL225790  26.181  36.963   9.129
 1689POPC   C1A25791  26.090  36.612   8.774
 1689POPC   D2A25792  25.966  36.773   8.390
 1689POPC   C3A25793  26.082  36.548   8.038
 1689POPC   C4A25794  25.947  36.765   7.716
 1689POPC   C1B25795  25.950  37.135   8.772
 1689POPC   C2B25796  25.760  37.256   8.380
 1689POPC   C3B25797  25.881  37.218   7.958
 1689POPC   C4B25798  26.115  37.216   7.545
 1690POPC   NC325799  21.144  29.333   9.609
 1690POPC   PO425800  20.633  28.923   9.370
 1690POPC   GL125801  20.787  29.261   9.144
 1690POPC   GL225802  21.130  29.189   9.108
 1690POPC   C1A25803  20.592  29.283   8.747
 1690POPC   D2A25804  20.324  29.132   8.438
 1690POPC   C3A25805  20.545  29.281   8.110
 1690POPC   C4A25806  20.491  29.348   7.719
 1690POPC   C1B25807  21.098  29.354   8.684
 1690POPC   C2B25808  20.963  29.527   8.298
 1690POPC   C3B25809  20.969  29.465   7.843
 1690POPC   C4B25810  20.892  29.366   7.364
 1691POPC   NC325811   6.646  38.773   9.439
 1691POPC   PO425812   7.010  38.137   9.494
 1691POPC   GL125813   6.811  38.342   9.167
 1691POPC   GL225814   6.947  38.627   9.018
 1691POPC   C1A25815   6.556  38.316   8.796
 1691POPC   D2A25816   6.809  38.249   8.442
 1691POPC   C3A25817   6.742  38.369   8.037
 1691POPC   C4A25818   6.910  38.498   7.647
 1691POPC   C1B25819   6.601  38.814   8.761
 1691POPC   C2B25820   6.479  38.697   8.339
 1691POPC   C3B25821   6.597  38.836   7.894
 1691POPC   C4B25822   6.519  38.746   7.454
 1692POPC   NC325823  14.198   9.139   9.582
 1692POPC   PO425824  14.364   8.537   9.342
 1692POPC   GL125825  14.461   8.953   9.164
 1692POPC   GL225826  14.162   9.125   9.020
 1692POPC   C1A25827  14.610   9.228   8.819
 1692POPC   D2A25828  14.607   9.036   8.430
 1692POPC   C3A25829  14.281   9.063   8.147
 1692POPC   C4A25830  14.475   8.902   7.805
 1692POPC   C1B25831  14.248   8.787   8.690
 1692POPC   C2B25832  14.038   8.588   8.292
 1692POPC   C3B25833  13.971   8.739   7.842
 1692POPC   C4B25834  14.028   9.160   7.681
 1693POPC   NC325835   9.723  17.598   9.535
 1693POPC   PO425836   9.355  17.191   9.488
 1693POPC   GL125837   9.449  17.482   9.122
 1693POPC   GL225838   9.475  17.850   9.152
 1693POPC   C1A25839   9.623  17.588   8.712
 1693POPC   D2A25840   9.965  17.643   8.421
 1693POPC   C3A25841   9.836  17.645   7.965
 1693POPC   C4A25842   9.917  17.466   7.535
 1693POPC   C1B25843   9.423  18.051   8.741
 1693POPC   C2B25844   9.558  17.941   8.317
 1693POPC   C3B25845   9.573  18.083   7.891
 1693POPC   C4B25846   9.600  17.858   7.499
 1694POPC   NC325847   0.188  12.906   9.458
 1694POPC   PO425848   0.909  12.950   9.538
 1694POPC   GL125849   0.620  13.011   9.165
 1694POPC   GL225850   0.553  12.670   9.038
 1694POPC   C1A25851   0.276  13.038   8.825
 1694POPC   D2A25852   0.344  12.733   8.535
 1694POPC   C3A25853   0.340  12.833   8.111
 1694POPC   C4A25854   0.466  13.123   7.820
 1694POPC   C1B25855   0.653  12.349   8.703
 1694POPC   C2B25856   0.517  12.315   8.287
 1694POPC   C3B25857   0.677  12.500   7.922
 1694POPC   C4B25858   0.879  12.440   7.552
 1695POPC   NC325859  35.983  21.151   9.479
 1695POPC   PO425860  36.007  21.752   9.552
 1695POPC   GL125861  36.048  21.588   9.141
 1695POPC   GL225862  36.217  21.334   9.038
 1695POPC   C1A25863  36.329  21.764   8.792
 1695POPC   D2A25864  36.419  21.831   8.326
 1695POPC   C3A25865  36.089  21.615   8.040
 1695POPC   C4A25866  36.063  21.537   7.589
 1695POPC   C1B25867  36.176  21.071   8.699
 1695POPC   C2B25868  36.235  20.811   8.364
 1695POPC   C3B25869  36.145  20.923   7.966
 1695POPC   C4B25870  36.189  21.063   7.560
 1696POPC   NC325871  28.657  42.679   9.256
 1696POPC   PO425872  28.649  43.373   9.510
 1696POPC   GL125873  28.530  43.148   9.149
 1696POPC   GL225874  28.220  42.983   9.145
 1696POPC   C1A25875  28.461  43.092   8.706
 1696POPC   D2A25876  28.239  43.409   8.505
 1696POPC   C3A25877  28.361  43.449   8.094
 1696POPC   C4A25878  28.443  43.303   7.682
 1696POPC   C1B25879  28.096  42.747   8.766
 1696POPC   C2B25880  28.059  42.927   8.364
 1696POPC   C3B25881  28.332  42.937   8.015
 1696POPC   C4B25882  28.755  42.843   7.832
 1697POPC   NC325883  10.980  22.687   9.396
 1697POPC   PO425884  11.471  23.171   9.535
 1697POPC   GL125885  11.586  23.100   9.138
 1697POPC   GL225886  11.627  22.769   9.149
 1697POPC   C1A25887  11.678  23.109   8.701
 1697POPC   D2A25888  11.469  22.977   8.360
 1697POPC   C3A25889  11.480  23.236   8.023
 1697POPC   C4A25890  11.238  23.251   7.686
 1697POPC   C1B25891  11.541  22.583   8.717
 1697POPC   C2B25892  11.294  22.490   8.322
 1697POPC   C3B25893  11.207  22.770   7.966
 1697POPC   C4B25894  11.419  22.752   7.569
 1698POPC   NC325895  22.417  39.413   9.621
 1698POPC   PO425896  21.760  39.093   9.743
 1698POPC   GL125897  22.039  39.203   9.308
 1698POPC   GL225898  22.408  39.337   9.145
 1698POPC   C1A25899  22.039  39.201   8.842
 1698POPC   D2A25900  21.868  39.273   8.441
 1698POPC   C3A25901  22.146  39.225   8.102
 1698POPC   C4A25902  22.013  39.509   7.814
 1698POPC   C1B25903  22.595  39.211   8.780
 1698POPC   C2B25904  22.624  39.355   8.379
 1698POPC   C3B25905  22.388  39.679   8.188
 1698POPC   C4B25906  22.517  39.524   7.792
 1699POPC   NC325907  34.722  29.996   9.600
 1699POPC   PO425908  34.129  29.969   9.516
 1699POPC   GL125909  34.429  29.941   9.131
 1699POPC   GL225910  34.819  29.921   9.114
 1699POPC   C1A25911  34.573  30.133   8.730
 1699POPC   D2A25912  34.595  29.939   8.373
 1699POPC   C3A25913  34.296  30.104   8.102
 1699POPC   C4A25914  34.480  30.145   7.721
 1699POPC   C1B25915  34.977  29.738   8.752
 1699POPC   C2B25916  35.060  29.687   8.320
 1699POPC   C3B25917  34.904  29.861   7.950
 1699POPC   C4B25918  34.820  29.793   7.547
 1700POPC   NC325919   2.188  13.125   9.320
 1700POPC   PO425920   1.861  12.698   9.711
 1700POPC   GL125921   1.742  12.797   9.247
 1700POPC   GL225922   2.049  12.731   9.069
 1700POPC   C1A25923   1.622  12.862   8.778
 1700POPC   D2A25924   1.830  12.742   8.342
 1700POPC   C3A25925   1.677  12.766   7.938
 1700POPC   C4A25926   1.493  13.136   7.782
 1700POPC   C1B25927   2.129  12.924   8.694
 1700POPC   C2B25928   2.422  13.062   8.395
 1700POPC   C3B25929   2.450  13.029   7.961
 1700POPC   C4B25930   2.186  12.696   7.725
 1701POPC   NC325931  16.130   5.383   9.535
 1701POPC   PO425932  15.773   4.735   9.395
 1701POPC   GL125933  15.996   5.050   9.175
 1701POPC   GL225934  15.764   5.318   9.126
 1701POPC   C1A25935  16.208   5.022   8.799
 1701POPC   D2A25936  16.054   5.254   8.454
 1701POPC   C3A25937  16.127   5.117   8.058
 1701POPC   C4A25938  15.994   5.320   7.714
 1701POPC   C1B25939  15.680   5.046   8.741
 1701POPC   C2B25940  15.701   4.892   8.263
 1701POPC   C3B25941  15.728   4.875   7.772
 1701POPC   C4B25942  15.653   4.706   7.289
 1702POPC   NC325943  14.133  10.303   9.416
 1702POPC   PO425944  13.498  10.411   9.547
 1702POPC   GL125945  13.694  10.449   9.196
 1702POPC   GL225946  13.554  10.771   9.134
 1702POPC   C1A25947  13.610  10.332   8.764
 1702POPC   D2A25948  13.359  10.365   8.385
 1702POPC   C3A25949  13.522  10.357   7.977
 1702POPC   C4A25950  13.449  10.346   7.571
 1702POPC   C1B25951  13.931  10.782   8.906
 1702POPC   C2B25952  13.876  10.663   8.483
 1702POPC   C3B25953  13.664  10.822   8.132
 1702POPC   C4B25954  13.812  10.717   7.704
 1703POPC   NC325955  23.526  24.123   9.443
 1703POPC   PO425956  23.890  24.659   9.735
 1703POPC   GL125957  23.845  24.474   9.274
 1703POPC   GL225958  23.979  24.188   9.129
 1703POPC   C1A25959  23.681  24.523   8.817
 1703POPC   D2A25960  23.531  24.351   8.417
 1703POPC   C3A25961  23.595  24.675   8.089
 1703POPC   C4A25962  23.754  24.592   7.687
 1703POPC   C1B25963  23.829  24.040   8.780
 1703POPC   C2B25964  23.987  24.049   8.377
 1703POPC   C3B25965  23.816  24.189   7.993
 1703POPC   C4B25966  24.076  24.192   7.608
 1704POPC   NC325967  33.442   7.962   9.396
 1704POPC   PO425968  34.024   7.894   9.758
 1704POPC   GL125969  33.974   8.007   9.341
 1704POPC   GL225970  33.767   8.312   9.254
 1704POPC   C1A25971  34.003   7.991   8.909
 1704POPC   D2A25972  33.995   8.098   8.492
 1704POPC   C3A25973  33.794   7.936   8.142
 1704POPC   C4A25974  33.867   8.037   7.701
 1704POPC   C1B25975  33.859   8.483   8.827
 1704POPC   C2B25976  33.684   8.532   8.395
 1704POPC   C3B25977  33.590   8.399   7.975
 1704POPC   C4B25978  33.375   8.341   7.575
 1705POPC   NC325979  27.876  30.931   9.483
 1705POPC   PO425980  27.305  30.513   9.525
 1705POPC   GL125981  27.586  30.601   9.207
 1705POPC   GL225982  27.478  30.917   9.149
 1705POPC   C1A25983  27.781  30.674   8.805
 1705POPC   D2A25984  27.664  30.814   8.402
 1705POPC   C3A25985  27.610  30.564   8.026
 1705POPC   C4A25986  27.661  30.441   7.565
 1705POPC   C1B25987  27.349  31.045   8.764
 1705POPC   C2B25988  27.213  31.044   8.371
 1705POPC   C3B25989  27.261  30.987   7.951
 1705POPC   C4B25990  27.538  30.923   7.645
 1706POPC   NC325991  25.820  19.218   9.423
 1706POPC   PO425992  26.403  18.906   9.500
 1706POPC   GL125993  26.190  18.817   9.118
 1706POPC   GL225994  25.827  18.795   9.110
 1706POPC   C1A25995  26.141  18.995   8.705
 1706POPC   D2A25996  26.425  19.056   8.355
 1706POPC   C3A25997  26.274  19.170   7.965
 1706POPC   C4A25998  26.186  19.487   7.658
 1706POPC   C1B25999  25.614  18.929   8.715
 1706POPC   C2B26000  25.812  19.135   8.321
 1706POPC   C3B26001  25.844  18.927   7.937
 1706POPC   C4B26002  25.740  18.683   7.592
 1707POPC   NC326003   5.365  43.912   9.640
 1707POPC   PO426004   4.890  43.992   9.390
 1707POPC   GL126005   5.265  43.916   9.141
 1707POPC   GL226006   5.433  43.615   9.192
 1707POPC   C1A26007   5.486  44.053   8.768
 1707POPC   D2A26008   5.305  44.088   8.346
 1707POPC   C3A26009   5.369  43.819   7.985
 1707POPC   C4A26010   5.339  43.960   7.539
 1707POPC   C1B26011   5.310  43.580   8.737
 1707POPC   C2B26012   5.006  43.671   8.390
 1707POPC   C3B26013   4.907  43.608   7.955
 1707POPC   C4B26014   5.196  43.473   7.612
 1708POPC   NC326015  17.842  21.116   9.362
 1708POPC   PO426016  18.342  21.573   9.487
 1708POPC   GL126017  18.260  21.451   9.089
 1708POPC   GL226018  18.244  21.100   9.061
 1708POPC   C1A26019  18.243  21.630   8.690
 1708POPC   D2A26020  18.498  21.696   8.346
 1708POPC   C3A26021  18.341  21.546   7.981
 1708POPC   C4A26022  18.233  21.622   7.578
 1708POPC   C1B26023  17.988  21.203   8.717
 1708POPC   C2B26024  18.316  21.194   8.382
 1708POPC   C3B26025  18.506  21.073   7.989
 1708POPC   C4B26026  18.331  21.123   7.568
 1709POPC   NC326027  15.587   0.815   9.316
 1709POPC   PO426028  15.166   1.379   9.598
 1709POPC   GL126029  15.331   1.271   9.240
 1709POPC   GL226030  15.304   1.547   9.022
 1709POPC   C1A26031  15.289   1.084   8.815
 1709POPC   D2A26032  15.090   1.017   8.422
 1709POPC   C3A26033  15.348   1.027   8.048
 1709POPC   C4A26034  15.071   1.044   7.726
 1709POPC   C1B26035  15.095   1.537   8.632
 1709POPC   C2B26036  15.341   1.493   8.279
 1709POPC   C3B26037  15.230   1.543   7.873
 1709POPC   C4B26038  15.237   1.441   7.456
 1710POPC   NC326039  15.452   8.466   9.589
 1710POPC   PO426040  15.997   8.201   9.489
 1710POPC   GL126041  15.756   8.352   9.164
 1710POPC   GL226042  15.835   8.026   9.034
 1710POPC   C1A26043  15.854   8.451   8.733
 1710POPC   D2A26044  15.997   8.279   8.335
 1710POPC   C3A26045  15.994   8.475   7.913
 1710POPC   C4A26046  16.090   8.293   7.503
 1710POPC   C1B26047  15.636   7.923   8.674
 1710POPC   C2B26048  15.877   7.795   8.324
 1710POPC   C3B26049  16.023   7.927   7.940
 1710POPC   C4B26050  15.770   7.890   7.624
 1711POPC   NC326051  27.813   9.191   9.520
 1711POPC   PO426052  27.462   8.707   9.275
 1711POPC   GL126053  27.698   8.986   9.051
 1711POPC   GL226054  27.594   9.352   9.055
 1711POPC   C1A26055  28.041   8.899   8.790
 1711POPC   D2A26056  28.292   9.063   8.474
 1711POPC   C3A26057  28.060   9.118   8.114
 1711POPC   C4A26058  27.731   8.963   7.864
 1711POPC   C1B26059  27.728   9.265   8.606
 1711POPC   C2B26060  27.707   8.847   8.383
 1711POPC   C3B26061  27.414   8.639   8.085
 1711POPC   C4B26062  27.194   8.727   7.693
 1712POPC   NC326063  23.208  10.402   9.534
 1712POPC   PO426064  22.680  10.798   9.497
 1712POPC   GL126065  22.819  10.459   9.235
 1712POPC   GL226066  22.897  10.714   9.028
 1712POPC   C1A26067  22.953  10.234   8.881
 1712POPC   D2A26068  22.851  10.365   8.490
 1712POPC   C3A26069  23.111  10.473   8.153
 1712POPC   C4A26070  22.955  10.307   7.758
 1712POPC   C1B26071  22.924  10.855   8.649
 1712POPC   C2B26072  22.720  10.822   8.292
 1712POPC   C3B26073  22.657  10.736   7.902
 1712POPC   C4B26074  23.068  10.807   7.759
 1713POPC   NC326075  26.339  14.746   9.380
 1713POPC   PO426076  25.845  15.160   9.488
 1713POPC   GL126077  26.082  15.130   9.122
 1713POPC   GL226078  25.932  14.825   9.083
 1713POPC   C1A26079  26.050  15.074   8.651
 1713POPC   D2A26080  26.014  14.831   8.294
 1713POPC   C3A26081  26.115  15.110   7.986
 1713POPC   C4A26082  26.218  15.246   7.588
 1713POPC   C1B26083  25.668  14.733   8.715
 1713POPC   C2B26084  25.522  14.676   8.275
 1713POPC   C3B26085  25.742  14.737   7.857
 1713POPC   C4B26086  25.792  14.670   7.408
 1714POPC   NC326087  17.719  30.574   9.472
 1714POPC   PO426088  17.215  30.987   9.624
 1714POPC   GL126089  17.244  30.849   9.230
 1714POPC   GL226090  17.202  30.492   9.242
 1714POPC   C1A26091  17.359  30.894   8.816
 1714POPC   D2A26092  17.652  30.760   8.513
 1714POPC   C3A26093  17.605  30.819   8.091
 1714POPC   C4A26094  17.519  31.019   7.719
 1714POPC   C1B26095  17.435  30.389   8.849
 1714POPC   C2B26096  17.445  30.303   8.400
 1714POPC   C3B26097  17.638  30.334   7.973
 1714POPC   C4B26098  17.634  30.521   7.581
 1715POPC   NC326099  19.452  15.055   9.397
 1715POPC   PO426100  20.086  14.776   9.535
 1715POPC   GL126101  20.045  15.003   9.164
 1715POPC   GL226102  19.888  15.337   9.173
 1715POPC   C1A26103  19.824  14.933   8.801
 1715POPC   D2A26104  19.626  15.071   8.424
 1715POPC   C3A26105  19.890  15.161   8.107
 1715POPC   C4A26106  20.035  14.950   7.771
 1715POPC   C1B26107  19.625  15.423   8.792
 1715POPC   C2B26108  19.494  15.552   8.387
 1715POPC   C3B26109  19.292  15.257   8.067
 1715POPC   C4B26110  19.510  14.934   7.821
 1716POPC   NC326111  23.320  42.545   9.886
 1716POPC   PO426112  23.521  42.031   9.595
 1716POPC   GL126113  23.650  42.143   9.146
 1716POPC   GL226114  23.786  42.503   9.093
 1716POPC   C1A26115  23.632  42.208   8.692
 1716POPC   D2A26116  23.366  42.154   8.335
 1716POPC   C3A26117  23.556  42.246   7.939
 1716POPC   C4A26118  23.946  42.272   7.691
 1716POPC   C1B26119  23.564  42.717   8.722
 1716POPC   C2B26120  23.505  42.649   8.275
 1716POPC   C3B26121  23.718  42.737   7.860
 1716POPC   C4B26122  23.645  43.034   7.514
 1717POPC   NC326123  20.516  33.586   9.366
 1717POPC   PO426124  20.639  33.001   9.739
 1717POPC   GL126125  20.790  33.113   9.269
 1717POPC   GL226126  21.071  32.881   9.161
 1717POPC   C1A26127  20.908  33.198   8.804
 1717POPC   D2A26128  20.711  33.258   8.390
 1717POPC   C3A26129  20.882  33.374   7.974
 1717POPC   C4A26130  20.593  33.280   7.598
 1717POPC   C1B26131  20.827  32.685   8.823
 1717POPC   C2B26132  20.719  32.730   8.419
 1717POPC   C3B26133  20.608  32.883   8.024
 1717POPC   C4B26134  20.962  32.916   7.785
 1718POPC   NC326135   7.475   3.196   9.329
 1718POPC   PO426136   7.328   2.541   9.516
 1718POPC   GL126137   7.457   2.715   9.141
 1718POPC   GL226138   7.168   2.913   9.033
 1718POPC   C1A26139   7.548   2.732   8.703
 1718POPC   D2A26140   7.573   2.482   8.343
 1718POPC   C3A26141   7.637   2.665   7.944
 1718POPC   C4A26142   7.423   2.588   7.537
 1718POPC   C1B26143   7.063   3.090   8.626
 1718POPC   C2B26144   7.048   2.836   8.266
 1718POPC   C3B26145   7.194   2.913   7.870
 1718POPC   C4B26146   7.554   3.166   7.828
 1719POPC   NC326147  30.049  30.089   9.772
 1719POPC   PO426148  30.050  29.539   9.683
 1719POPC   GL126149  29.933  29.790   9.299
 1719POPC   GL226150  30.038  30.140   9.235
 1719POPC   C1A26151  29.874  29.793   8.826
 1719POPC   D2A26152  30.015  30.000   8.410
 1719POPC   C3A26153  29.911  29.859   7.973
 1719POPC   C4A26154  29.721  29.550   7.677
 1719POPC   C1B26155  29.851  30.305   8.820
 1719POPC   C2B26156  29.605  30.308   8.411
 1719POPC   C3B26157  29.788  30.360   7.990
 1719POPC   C4B26158  30.186  30.281   7.787
 1720POPC   NC326159  16.690  11.184   9.609
 1720POPC   PO426160  16.496  11.750   9.307
 1720POPC   GL126161  16.739  11.400   9.132
 1720POPC   GL226162  16.533  11.114   9.137
 1720POPC   C1A26163  16.938  11.150   8.789
 1720POPC   D2A26164  17.182  11.158   8.376
 1720POPC   C3A26165  16.913  11.335   8.039
 1720POPC   C4A26166  16.780  11.075   7.717
 1720POPC   C1B26167  16.378  11.275   8.765
 1720POPC   C2B26168  16.537  11.217   8.367
 1720POPC   C3B26169  16.369  11.218   7.958
 1720POPC   C4B26170  16.173  11.418   7.641
 1721POPC   NC326171  17.492  19.329   9.498
 1721POPC   PO426172  17.797  18.719   9.439
 1721POPC   GL126173  17.506  18.836   9.145
 1721POPC   GL226174  17.374  19.153   9.055
 1721POPC   C1A26175  17.638  18.885   8.719
 1721POPC   D2A26176  17.779  18.921   8.323
 1721POPC   C3A26177  17.510  19.108   8.051
 1721POPC   C4A26178  17.520  18.963   7.655
 1721POPC   C1B26179  17.409  19.335   8.624
 1721POPC   C2B26180  17.331  19.572   8.238
 1721POPC   C3B26181  17.542  19.599   7.842
 1721POPC   C4B26182  17.709  19.441   7.462
 1722POPC   NC326183  37.835  16.803   9.652
 1722POPC   PO426184  37.520  16.328   9.440
 1722POPC   GL126185  37.755  16.564   9.152
 1722POPC   GL226186  38.042  16.799   9.187
 1722POPC   C1A26187  37.635  16.742   8.748
 1722POPC   D2A26188  37.489  16.904   8.344
 1722POPC   C3A26189  37.663  16.698   7.971
 1722POPC   C4A26190  37.721  16.693   7.460
 1722POPC   C1B26191  38.081  16.980   8.795
 1722POPC   C2B26192  37.970  17.114   8.334
 1722POPC   C3B26193  38.051  16.994   7.873
 1722POPC   C4B26194  38.112  17.052   7.426
 1723POPC   NC326195  28.089   5.731   9.997
 1723POPC   PO426196  28.394   5.988   9.426
 1723POPC   GL126197  28.432   5.975   9.032
 1723POPC   GL226198  28.526   5.642   8.993
 1723POPC   C1A26199  28.249   6.033   8.644
 1723POPC   D2A26200  28.405   6.090   8.262
 1723POPC   C3A26201  28.100   6.002   8.005
 1723POPC   C4A26202  28.160   5.950   7.606
 1723POPC   C1B26203  28.732   5.818   8.637
 1723POPC   C2B26204  28.782   5.744   8.219
 1723POPC   C3B26205  28.557   5.700   7.854
 1723POPC   C4B26206  28.435   5.374   7.594
 1724POPC   NC326207  42.162  15.700   9.592
 1724POPC   PO426208  42.331  16.319   9.618
 1724POPC   GL126209  42.451  16.024   9.261
 1724POPC   GL226210  42.430  15.670   9.149
 1724POPC   C1A26211  42.463  16.032   8.810
 1724POPC   D2A26212  42.453  15.852   8.377
 1724POPC   C3A26213  42.294  16.074   7.998
 1724POPC   C4A26214  42.571  16.202   7.644
 1724POPC   C1B26215  42.140  15.637   8.782
 1724POPC   C2B26216  41.946  15.732   8.381
 1724POPC   C3B26217  42.153  15.565   8.047
 1724POPC   C4B26218  42.221  15.498   7.621
 1725POPC   NC326219  26.046  12.812   9.545
 1725POPC   PO426220  25.440  12.984   9.576
 1725POPC   GL126221  25.630  12.769   9.240
 1725POPC   GL226222  25.797  13.059   9.159
 1725POPC   C1A26223  25.901  12.615   8.875
 1725POPC   D2A26224  26.077  12.571   8.483
 1725POPC   C3A26225  25.925  12.444   8.114
 1725POPC   C4A26226  25.899  12.572   7.700
 1725POPC   C1B26227  25.861  13.208   8.778
 1725POPC   C2B26228  26.133  13.348   8.489
 1725POPC   C3B26229  26.054  13.303   8.086
 1725POPC   C4B26230  26.137  12.996   7.804
 1726POPC   NC326231  14.530   9.623   9.361
 1726POPC   PO426232  14.095   9.951   9.713
 1726POPC   GL126233  14.109   9.860   9.203
 1726POPC   GL226234  13.978  10.056   8.981
 1726POPC   C1A26235  14.116   9.603   8.771
 1726POPC   D2A26236  14.255   9.759   8.362
 1726POPC   C3A26237  14.587   9.638   8.095
 1726POPC   C4A26238  14.502   9.416   7.717
 1726POPC   C1B26239  14.445   9.979   8.834
 1726POPC   C2B26240  14.607  10.168   8.490
 1726POPC   C3B26241  14.477  10.158   8.100
 1726POPC   C4B26242  14.388   9.969   7.710
 1727POPC   NC326243  19.503  21.865   9.490
 1727POPC   PO426244  18.896  22.256   9.476
 1727POPC   GL126245  19.076  22.240   9.098
 1727POPC   GL226246  19.300  21.967   9.050
 1727POPC   C1A26247  18.934  22.135   8.702
 1727POPC   D2A26248  19.034  22.393   8.382
 1727POPC   C3A26249  18.958  22.160   8.022
 1727POPC   C4A26250  19.000  22.365   7.661
 1727POPC   C1B26251  19.431  22.223   8.714
 1727POPC   C2B26252  19.393  22.025   8.286
 1727POPC   C3B26253  19.467  22.315   7.937
 1727POPC   C4B26254  19.484  22.400   7.493
 1728POPC   NC326255  20.042  35.094   9.254
 1728POPC   PO426256  19.812  34.599   9.623
 1728POPC   GL126257  19.741  34.575   9.189
 1728POPC   GL226258  19.588  34.863   9.106
 1728POPC   C1A26259  19.813  34.387   8.794
 1728POPC   D2A26260  20.142  34.290   8.480
 1728POPC   C3A26261  20.031  34.409   8.070
 1728POPC   C4A26262  19.656  34.269   7.835
 1728POPC   C1B26263  19.751  34.924   8.676
 1728POPC   C2B26264  19.661  35.079   8.271
 1728POPC   C3B26265  19.920  34.883   7.951
 1728POPC   C4B26266  19.971  34.612   7.565
 1729POPC   NC326267  22.105  40.333   9.383
 1729POPC   PO426268  22.021  39.682   9.516
 1729POPC   GL126269  22.046  39.695   9.097
 1729POPC   GL226270  22.289  39.921   9.101
 1729POPC   C1A26271  22.124  39.692   8.659
 1729POPC   D2A26272  22.011  40.026   8.397
 1729POPC   C3A26273  21.851  39.958   8.001
 1729POPC   C4A26274  22.059  39.969   7.606
 1729POPC   C1B26275  22.325  40.213   8.765
 1729POPC   C2B26276  22.479  40.244   8.358
 1729POPC   C3B26277  22.278  40.255   7.977
 1729POPC   C4B26278  22.467  40.350   7.584
 1730POPC   NC326279  20.204  13.381   9.420
 1730POPC   PO426280  19.748  13.886   9.512
 1730POPC   GL126281  19.589  13.705   9.133
 1730POPC   GL226282  19.866  13.499   9.031
 1730POPC   C1A26283  19.653  13.859   8.706
 1730POPC   D2A26284  19.629  14.103   8.328
 1730POPC   C3A26285  19.624  13.913   7.915
 1730POPC   C4A26286  19.698  13.504   7.699
 1730POPC   C1B26287  20.123  13.299   8.698
 1730POPC   C2B26288  20.131  13.066   8.298
 1730POPC   C3B26289  20.108  13.189   7.838
 1730POPC   C4B26290  20.180  13.132   7.352
 1731POPC   NC326291  36.854  44.307   9.486
 1731POPC   PO426292  37.083  44.897   9.455
 1731POPC   GL126293  36.831  44.704   9.146
 1731POPC   GL226294  37.143  44.487   9.096
 1731POPC   C1A26295  36.768  44.449   8.769
 1731POPC   D2A26296  36.514  44.396   8.440
 1731POPC   C3A26297  36.718  44.466   8.048
 1731POPC   C4A26298  36.615  44.781   7.799
 1731POPC   C1B26299  37.156  44.781   8.741
 1731POPC   C2B26300  37.138  44.633   8.314
 1731POPC   C3B26301  37.117  44.804   7.906
 1731POPC   C4B26302  37.447   0.091   7.752
 1732POPC   NC326303  20.812  39.571   9.327
 1732POPC   PO426304  20.237  39.466   9.602
 1732POPC   GL126305  20.413  39.254   9.211
 1732POPC   GL226306  20.759  39.119   9.088
 1732POPC   C1A26307  20.377  39.235   8.756
 1732POPC   D2A26308  20.457  39.419   8.349
 1732POPC   C3A26309  20.404  39.179   7.980
 1732POPC   C4A26310  20.226  39.320   7.672
 1732POPC   C1B26311  20.866  39.204   8.633
 1732POPC   C2B26312  20.868  39.172   8.193
 1732POPC   C3B26313  20.912  39.202   7.772
 1732POPC   C4B26314  21.031  39.067   7.370
 1733POPC   NC326315  26.292  41.039   9.482
 1733POPC   PO426316  26.794  41.462   9.481
 1733POPC   GL126317  26.838  41.412   9.065
 1733POPC   GL226318  26.618  41.151   9.110
 1733POPC   C1A26319  26.834  41.571   8.632
 1733POPC   D2A26320  27.064  41.765   8.282
 1733POPC   C3A26321  26.983  41.666   7.852
 1733POPC   C4A26322  27.219  41.536   7.461
 1733POPC   C1B26323  26.517  40.973   8.770
 1733POPC   C2B26324  26.562  41.165   8.408
 1733POPC   C3B26325  26.524  41.148   7.988
 1733POPC   C4B26326  26.565  41.399   7.629
 1734POPC   NC326327  42.137   1.203   9.631
 1734POPC   PO426328  42.671   0.804   9.594
 1734POPC   GL126329  42.553   1.063   9.206
 1734POPC   GL226330  42.315   1.358   9.149
 1734POPC   C1A26331  42.457   1.046   8.753
 1734POPC   D2A26332  42.163   0.913   8.412
 1734POPC   C3A26333  42.321   0.868   7.992
 1734POPC   C4A26334  42.687   1.028   7.810
 1734POPC   C1B26335  42.109   1.641   8.816
 1734POPC   C2B26336  42.040   1.486   8.370
 1734POPC   C3B26337  42.244   1.385   7.975
 1734POPC   C4B26338  42.098   1.170   7.617
 1735POPC   NC326339  35.010  20.566   9.555
 1735POPC   PO426340  35.668  20.814   9.488
 1735POPC   GL126341  35.445  20.682   9.157
 1735POPC   GL226342  35.560  20.321   9.150
 1735POPC   C1A26343  35.499  20.858   8.746
 1735POPC   D2A26344  35.366  20.692   8.352
 1735POPC   C3A26345  35.633  20.730   8.017
 1735POPC   C4A26346  35.413  20.827   7.654
 1735POPC   C1B26347  35.384  20.337   8.729
 1735POPC   C2B26348  35.027  20.303   8.394
 1735POPC   C3B26349  35.146  20.440   7.946
 1735POPC   C4B26350  35.499  20.322   7.680
 1736POPC   NC326351  32.280   8.649   9.250
 1736POPC   PO426352  32.073   7.972   9.513
 1736POPC   GL126353  32.124   8.088   9.117
 1736POPC   GL226354  32.031   8.373   8.924
 1736POPC   C1A26355  32.022   7.884   8.768
 1736POPC   D2A26356  32.157   7.791   8.408
 1736POPC   C3A26357  31.979   7.914   8.043
 1736POPC   C4A26358  32.141   7.924   7.647
 1736POPC   C1B26359  32.314   8.277   8.621
 1736POPC   C2B26360  32.320   8.241   8.202
 1736POPC   C3B26361  32.131   8.379   7.849
 1736POPC   C4B26362  32.341   8.462   7.460
 1737POPC   NC326363  23.319  25.038   9.098
 1737POPC   PO426364  22.915  25.337   9.530
 1737POPC   GL126365  22.784  25.452   9.121
 1737POPC   GL226366  22.606  25.146   9.065
 1737POPC   C1A26367  22.963  25.439   8.706
 1737POPC   D2A26368  23.305  25.311   8.451
 1737POPC   C3A26369  23.149  25.412   8.084
 1737POPC   C4A26370  23.195  25.452   7.682
 1737POPC   C1B26371  22.779  24.948   8.703
 1737POPC   C2B26372  22.929  24.967   8.277
 1737POPC   C3B26373  23.005  24.996   7.829
 1737POPC   C4B26374  23.129  25.027   7.377
 1738POPC   NC326375  30.021   0.744   9.456
 1738POPC   PO426376  29.645   0.176   9.503
 1738POPC   GL126377  29.753   0.350   9.142
 1738POPC   GL226378  29.587   0.657   9.189
 1738POPC   C1A26379  30.009   0.513   8.821
 1738POPC   D2A26380  30.157   0.410   8.409
 1738POPC   C3A26381  30.094   0.574   8.031
 1738POPC   C4A26382  30.002   0.431   7.660
 1738POPC   C1B26383  29.500   0.639   8.777
 1738POPC   C2B26384  29.722   0.713   8.425
 1738POPC   C3B26385  29.608   0.667   8.016
 1738POPC   C4B26386  29.801   0.885   7.680
 1739POPC   NC326387  41.804  14.738   9.463
 1739POPC   PO426388  41.446  14.182   9.553
 1739POPC   GL126389  41.489  14.422   9.168
 1739POPC   GL226390  41.816  14.432   9.033
 1739POPC   C1A26391  41.266  14.551   8.793
 1739POPC   D2A26392  41.311  14.392   8.358
 1739POPC   C3A26393  41.394  14.635   7.987
 1739POPC   C4A26394  41.495  14.411   7.647
 1739POPC   C1B26395  41.758  14.499   8.592
 1739POPC   C2B26396  41.796  14.812   8.250
 1739POPC   C3B26397  41.928  14.737   7.825
 1739POPC   C4B26398  41.864  14.632   7.397
 1740POPC   NC326399  25.716   6.568   9.356
 1740POPC   PO426400  26.405   6.536   9.493
 1740POPC   GL126401  26.165   6.518   9.123
 1740POPC   GL226402  26.095   6.880   9.232
 1740POPC   C1A26403  25.992   6.585   8.677
 1740POPC   D2A26404  25.705   6.620   8.286
 1740POPC   C3A26405  25.914   6.563   7.877
 1740POPC   C4A26406  25.980   6.199   7.615
 1740POPC   C1B26407  25.877   7.046   8.891
 1740POPC   C2B26408  25.917   7.063   8.465
 1740POPC   C3B26409  25.925   7.063   8.029
 1740POPC   C4B26410  26.292   6.913   7.829
 1741POPC   NC326411  28.031  11.052   9.515
 1741POPC   PO426412  27.413  11.197   9.642
 1741POPC   GL126413  27.487  11.085   9.187
 1741POPC   GL226414  27.780  10.955   9.102
 1741POPC   C1A26415  27.404  11.194   8.710
 1741POPC   D2A26416  27.417  11.139   8.233
 1741POPC   C3A26417  27.605  11.494   7.943
 1741POPC   C4A26418  27.498  11.596   7.487
 1741POPC   C1B26419  27.901  11.015   8.660
 1741POPC   C2B26420  27.902  10.964   8.189
 1741POPC   C3B26421  27.660  11.023   7.769
 1741POPC   C4B26422  27.801  11.121   7.346
 1742POPC   NC326423  35.872  26.741   9.349
 1742POPC   PO426424  35.342  26.532   9.728
 1742POPC   GL126425  35.389  26.615   9.239
 1742POPC   GL226426  35.444  26.966   9.102
 1742POPC   C1A26427  35.607  26.618   8.791
 1742POPC   D2A26428  35.587  26.947   8.481
 1742POPC   C3A26429  35.327  26.855   8.157
 1742POPC   C4A26430  35.472  26.810   7.765
 1742POPC   C1B26431  35.163  26.901   8.743
 1742POPC   C2B26432  35.001  27.166   8.374
 1742POPC   C3B26433  34.929  27.218   7.960
 1742POPC   C4B26434  34.966  26.820   7.761
 1743POPC   NC326435  40.993  11.158   9.367
 1743POPC   PO426436  40.624  11.755   9.455
 1743POPC   GL126437  40.773  11.602   9.082
 1743POPC   GL226438  40.601  11.328   9.044
 1743POPC   C1A26439  40.760  11.630   8.639
 1743POPC   D2A26440  40.591  11.556   8.253
 1743POPC   C3A26441  40.881  11.402   7.931
 1743POPC   C4A26442  40.814  11.368   7.460
 1743POPC   C1B26443  40.643  11.104   8.642
 1743POPC   C2B26444  40.514  11.054   8.196
 1743POPC   C3B26445  40.581  11.017   7.741
 1743POPC   C4B26446  40.591  10.955   7.256
 1744POPC   NC326447  19.396  28.834   9.364
 1744POPC   PO426448  19.239  29.456   9.520
 1744POPC   GL126449  19.021  29.211   9.235
 1744POPC   GL226450  18.655  29.178   9.349
 1744POPC   C1A26451  19.094  29.029   8.825
 1744POPC   D2A26452  19.057  29.230   8.454
 1744POPC   C3A26453  19.236  29.066   8.087
 1744POPC   C4A26454  19.197  29.238   7.680
 1744POPC   C1B26455  18.614  29.166   8.907
 1744POPC   C2B26456  18.571  29.036   8.505
 1744POPC   C3B26457  18.724  29.000   8.115
 1744POPC   C4B26458  18.657  29.091   7.718
 1745POPC   NC326459  13.908  42.223   9.480
 1745POPC   PO426460  13.235  42.173   9.272
 1745POPC   GL126461  13.592  42.192   9.049
 1745POPC   GL226462  13.647  42.524   9.083
 1745POPC   C1A26463  13.788  42.327   8.649
 1745POPC   D2A26464  13.614  42.522   8.325
 1745POPC   C3A26465  13.464  42.202   8.111
 1745POPC   C4A26466  13.498  41.974   7.747
 1745POPC   C1B26467  13.333  42.680   8.782
 1745POPC   C2B26468  13.123  42.712   8.359
 1745POPC   C3B26469  13.337  42.816   7.972
 1745POPC   C4B26470  13.653  42.540   7.792
 1746POPC   NC326471  21.250  16.598   9.714
 1746POPC   PO426472  21.743  16.379   9.437
 1746POPC   GL126473  21.413  16.592   9.178
 1746POPC   GL226474  21.040  16.502   9.222
 1746POPC   C1A26475  21.465  16.924   8.833
 1746POPC   D2A26476  21.295  17.169   8.495
 1746POPC   C3A26477  21.501  17.086   8.129
 1746POPC   C4A26478  21.531  16.824   7.776
 1746POPC   C1B26479  21.113  16.540   8.774
 1746POPC   C2B26480  21.295  16.656   8.380
 1746POPC   C3B26481  21.221  16.448   7.976
 1746POPC   C4B26482  21.455  16.173   7.725
 1747POPC   NC326483  23.867  30.336   9.390
 1747POPC   PO426484  23.489  30.829   9.657
 1747POPC   GL126485  23.583  30.730   9.214
 1747POPC   GL226486  23.914  30.863   9.212
 1747POPC   C1A26487  23.751  30.632   8.775
 1747POPC   D2A26488  23.587  30.678   8.362
 1747POPC   C3A26489  23.724  30.496   7.981
 1747POPC   C4A26490  23.562  30.479   7.580
 1747POPC   C1B26491  24.010  31.070   8.841
 1747POPC   C2B26492  24.038  30.949   8.429
 1747POPC   C3B26493  23.892  30.986   8.061
 1747POPC   C4B26494  23.930  30.839   7.656
 1748POPC   NC326495  33.953  23.504   9.918
 1748POPC   PO426496  33.704  24.000   9.541
 1748POPC   GL126497  33.946  23.815   9.181
 1748POPC   GL226498  33.969  23.444   9.190
 1748POPC   C1A26499  33.826  23.725   8.741
 1748POPC   D2A26500  33.612  23.673   8.319
 1748POPC   C3A26501  33.799  23.837   7.938
 1748POPC   C4A26502  33.618  23.942   7.551
 1748POPC   C1B26503  33.910  23.239   8.787
 1748POPC   C2B26504  34.027  23.381   8.375
 1748POPC   C3B26505  33.866  23.332   7.967
 1748POPC   C4B26506  33.933  23.500   7.539
 1749POPC   NC326507  35.521  43.055   9.623
 1749POPC   PO426508  34.906  42.843   9.609
 1749POPC   GL126509  35.014  42.969   9.154
 1749POPC   GL226510  35.383  42.961   9.092
 1749POPC   C1A26511  35.097  43.308   8.794
 1749POPC   D2A26512  35.489  43.459   8.560
 1749POPC   C3A26513  35.623  43.335   8.121
 1749POPC   C4A26514  35.437  43.096   7.780
 1749POPC   C1B26515  35.217  42.830   8.674
 1749POPC   C2B26516  35.195  42.638   8.263
 1749POPC   C3B26517  35.216  42.626   7.796
 1749POPC   C4B26518  34.952  42.773   7.459
 1750POPC   NC326519  30.648   1.939   9.934
 1750POPC   PO426520  30.386   2.060   9.349
 1750POPC   GL126521  30.686   2.036   9.045
 1750POPC   GL226522  30.971   2.276   9.086
 1750POPC   C1A26523  30.581   1.853   8.648
 1750POPC   D2A26524  30.736   1.642   8.280
 1750POPC   C3A26525  30.628   1.923   7.986
 1750POPC   C4A26526  30.228   2.015   7.809
 1750POPC   C1B26527  30.921   2.239   8.613
 1750POPC   C2B26528  30.986   2.288   8.154
 1750POPC   C3B26529  31.005   2.127   7.717
 1750POPC   C4B26530  31.020   2.067   7.264
 1751POPC   NC326531   6.948  11.540   9.440
 1751POPC   PO426532   6.364  11.132   9.600
 1751POPC   GL126533   6.517  11.299   9.193
 1751POPC   GL226534   6.859  11.164   9.087
 1751POPC   C1A26535   6.495  11.378   8.732
 1751POPC   D2A26536   6.409  11.612   8.320
 1751POPC   C3A26537   6.508  11.406   7.902
 1751POPC   C4A26538   6.334  11.197   7.519
 1751POPC   C1B26539   7.008  11.292   8.705
 1751POPC   C2B26540   6.885  11.375   8.303
 1751POPC   C3B26541   6.865  11.064   7.954
 1751POPC   C4B26542   6.827  11.101   7.530
 1752POPC   NC326543   1.641  32.648   9.726
 1752POPC   PO426544   2.175  32.535   9.409
 1752POPC   GL126545   1.920  32.645   9.127
 1752POPC   GL226546   1.678  32.376   9.119
 1752POPC   C1A26547   1.870  32.697   8.717
 1752POPC   D2A26548   2.155  32.478   8.427
 1752POPC   C3A26549   2.106  32.458   7.983
 1752POPC   C4A26550   2.178  32.274   7.559
 1752POPC   C1B26551   1.781  32.198   8.702
 1752POPC   C2B26552   1.750  32.180   8.238
 1752POPC   C3B26553   1.931  31.965   7.865
 1752POPC   C4B26554   1.838  31.945   7.395
 1753POPC   NC326555  15.374  18.098   9.494
 1753POPC   PO426556  15.971  18.353   9.448
 1753POPC   GL126557  16.135  18.437   9.092
 1753POPC   GL226558  16.509  18.472   9.105
 1753POPC   C1A26559  15.924  18.315   8.697
 1753POPC   D2A26560  15.622  18.464   8.416
 1753POPC   C3A26561  15.786  18.487   8.001
 1753POPC   C4A26562  15.573  18.426   7.619
 1753POPC   C1B26563  16.426  18.419   8.643
 1753POPC   C2B26564  16.275  18.383   8.211
 1753POPC   C3B26565  16.176  18.233   7.783
 1753POPC   C4B26566  16.046  18.472   7.404
 1754POPC   NC326567  16.204  20.273   9.175
 1754POPC   PO426568  15.880  20.691   9.639
 1754POPC   GL126569  15.823  20.769   9.212
 1754POPC   GL226570  16.164  20.807   9.207
 1754POPC   C1A26571  15.690  20.618   8.794
 1754POPC   D2A26572  15.743  20.506   8.371
 1754POPC   C3A26573  15.742  20.717   7.970
 1754POPC   C4A26574  15.845  20.533   7.562
 1754POPC   C1B26575  16.157  20.868   8.802
 1754POPC   C2B26576  16.212  20.676   8.443
 1754POPC   C3B26577  16.242  20.767   8.056
 1754POPC   C4B26578  16.209  20.867   7.673
 1755POPC   NC326579   0.813  32.990   9.755
 1755POPC   PO426580   0.230  32.735   9.471
 1755POPC   GL126581   0.291  32.974   9.138
 1755POPC   GL226582   0.469  32.807   8.988
 1755POPC   C1A26583   0.144  33.196   8.778
 1755POPC   D2A26584   0.259  33.368   8.354
 1755POPC   C3A26585   0.329  33.112   8.016
 1755POPC   C4A26586   0.574  33.272   7.705
 1755POPC   C1B26587   0.609  32.986   8.699
 1755POPC   C2B26588   0.569  32.844   8.357
 1755POPC   C3B26589   0.780  32.880   7.966
 1755POPC   C4B26590   0.750  32.728   7.574
 1756POPC   NC326591  19.609  37.245   9.527
 1756POPC   PO426592  19.962  37.756   9.510
 1756POPC   GL126593  20.017  37.548   9.145
 1756POPC   GL226594  20.323  37.370   9.216
 1756POPC   C1A26595  19.820  37.531   8.729
 1756POPC   D2A26596  19.780  37.396   8.290
 1756POPC   C3A26597  19.942  37.746   8.023
 1756POPC   C4A26598  19.738  37.906   7.670
 1756POPC   C1B26599  20.241  37.249   8.790
 1756POPC   C2B26600  20.227  37.142   8.350
 1756POPC   C3B26601  20.282  37.369   7.949
 1756POPC   C4B26602  20.061  37.495   7.558
 1757POPC   NC326603  10.290  37.548   9.816
 1757POPC   PO426604  10.735  37.907   9.511
 1757POPC   GL126605  10.500  37.794   9.201
 1757POPC   GL226606  10.450  37.445   9.139
 1757POPC   C1A26607  10.724  37.846   8.846
 1757POPC   D2A26608  10.524  37.774   8.502
 1757POPC   C3A26609  10.633  37.851   8.122
 1757POPC   C4A26610  10.425  37.752   7.770
 1757POPC   C1B26611  10.727  37.352   8.772
 1757POPC   C2B26612  10.929  37.491   8.375
 1757POPC   C3B26613  10.768  37.389   7.957
 1757POPC   C4B26614  10.582  37.335   7.530
 1758POPC   NC326615  37.052  13.460   9.691
 1758POPC   PO426616  36.975  14.142   9.533
 1758POPC   GL126617  36.956  13.771   9.259
 1758POPC   GL226618  37.047  13.412   9.182
 1758POPC   C1A26619  36.949  13.769   8.813
 1758POPC   D2A26620  36.753  13.508   8.526
 1758POPC   C3A26621  36.798  13.608   8.103
 1758POPC   C4A26622  36.581  13.451   7.738
 1758POPC   C1B26623  37.175  13.294   8.767
 1758POPC   C2B26624  37.244  13.450   8.334
 1758POPC   C3B26625  37.104  13.260   7.939
 1758POPC   C4B26626  37.049  13.397   7.515
 1759POPC   NC326627   2.353  39.642   9.230
 1759POPC   PO426628   1.979  39.060   9.322
 1759POPC   GL126629   2.138  39.237   9.034
 1759POPC   GL226630   2.471  39.170   9.148
 1759POPC   C1A26631   2.238  39.400   8.652
 1759POPC   D2A26632   2.186  39.205   8.311
 1759POPC   C3A26633   2.034  39.394   7.967
 1759POPC   C4A26634   1.801  39.621   7.701
 1759POPC   C1B26635   2.568  39.008   8.754
 1759POPC   C2B26636   2.635  38.913   8.332
 1759POPC   C3B26637   2.500  39.124   7.946
 1759POPC   C4B26638   2.274  39.254   7.556
 1760POPC   NC326639  43.145  32.654   9.231
 1760POPC   PO426640  42.890  33.176   9.555
 1760POPC   GL126641  42.819  33.049   9.117
 1760POPC   GL226642  42.653  33.318   8.913
 1760POPC   C1A26643  42.950  32.944   8.667
 1760POPC   D2A26644  43.141  32.665   8.348
 1760POPC   C3A26645  43.320  32.697   7.908
 1760POPC   C4A26646  43.318  32.830   7.453
 1760POPC   C1B26647  42.903  33.452   8.564
 1760POPC   C2B26648  42.912  33.170   8.188
 1760POPC   C3B26649  43.114  33.151   7.787
 1760POPC   C4B26650  42.996  33.231   7.347
 1761POPC   NC326651  32.701  23.076   9.520
 1761POPC   PO426652  33.038  22.537   9.514
 1761POPC   GL126653  33.132  22.772   9.135
 1761POPC   GL226654  33.032  23.127   9.139
 1761POPC   C1A26655  33.131  22.642   8.695
 1761POPC   D2A26656  33.115  22.871   8.326
 1761POPC   C3A26657  33.090  22.603   7.993
 1761POPC   C4A26658  32.964  22.715   7.580
 1761POPC   C1B26659  33.262  23.131   8.745
 1761POPC   C2B26660  33.550  23.149   8.373
 1761POPC   C3B26661  33.348  23.257   7.935
 1761POPC   C4B26662  33.009  23.234   7.593
 1762POPC   NC326663  16.839  29.753   9.425
 1762POPC   PO426664  16.623  30.349   9.448
 1762POPC   GL126665  16.796  30.178   9.082
 1762POPC   GL226666  16.522  30.304   8.909
 1762POPC   C1A26667  16.731  29.877   8.711
 1762POPC   D2A26668  16.820  29.951   8.265
 1762POPC   C3A26669  16.665  29.686   7.920
 1762POPC   C4A26670  16.940  29.689   7.602
 1762POPC   C1B26671  16.441  30.280   8.497
 1762POPC   C2B26672  16.671  30.422   8.166
 1762POPC   C3B26673  16.732  30.190   7.762
 1762POPC   C4B26674  16.514  29.988   7.404
 1763POPC   NC326675  32.797  10.343   9.572
 1763POPC   PO426676  33.410  10.488   9.463
 1763POPC   GL126677  33.116  10.341   9.152
 1763POPC   GL226678  32.830  10.583   9.116
 1763POPC   C1A26679  33.239  10.119   8.789
 1763POPC   D2A26680  33.292  10.225   8.344
 1763POPC   C3A26681  33.009  10.180   8.056
 1763POPC   C4A26682  32.876  10.387   7.732
 1763POPC   C1B26683  32.881  10.444   8.693
 1763POPC   C2B26684  32.959  10.624   8.337
 1763POPC   C3B26685  32.782  10.815   7.991
 1763POPC   C4B26686  32.443  10.680   7.749
 1764POPC   NC326687  31.803  22.018   9.811
 1764POPC   PO426688  32.336  22.416   9.892
 1764POPC   GL126689  32.325  22.217   9.428
 1764POPC   GL226690  32.134  22.400   9.149
 1764POPC   C1A26691  32.370  21.977   8.997
 1764POPC   D2A26692  32.328  22.169   8.583
 1764POPC   C3A26693  32.340  22.082   8.166
 1764POPC   C4A26694  32.427  21.866   7.821
 1764POPC   C1B26695  31.959  22.473   8.731
 1764POPC   C2B26696  32.136  22.580   8.319
 1764POPC   C3B26697  32.074  22.421   7.902
 1764POPC   C4B26698  31.744  22.543   7.714
 1765POPC   NC326699  16.252  23.026   9.841
 1765POPC   PO426700  16.692  22.774   9.446
 1765POPC   GL126701  16.560  22.926   9.094
 1765POPC   GL226702  16.707  23.251   9.096
 1765POPC   C1A26703  16.452  22.753   8.701
 1765POPC   D2A26704  16.541  22.905   8.293
 1765POPC   C3A26705  16.636  22.603   7.974
 1765POPC   C4A26706  16.878  22.586   7.601
 1765POPC   C1B26707  16.852  23.397   8.719
 1765POPC   C2B26708  17.057  23.483   8.321
 1765POPC   C3B26709  16.839  23.281   7.994
 1765POPC   C4B26710  16.782  23.466   7.616
 1766POPC   NC326711  34.536  34.332   9.592
 1766POPC   PO426712  34.593  34.945   9.679
 1766POPC   GL126713  34.847  34.729   9.296
 1766POPC   GL226714  34.897  34.380   9.197
 1766POPC   C1A26715  34.946  34.726   8.815
 1766POPC   D2A26716  34.676  34.799   8.446
 1766POPC   C3A26717  34.701  34.650   8.001
 1766POPC   C4A26718  34.679  34.926   7.608
 1766POPC   C1B26719  34.515  34.462   8.929
 1766POPC   C2B26720  34.284  34.162   8.653
 1766POPC   C3B26721  34.245  34.078   8.192
 1766POPC   C4B26722  34.257  34.378   7.830
 1767POPC   NC326723  34.765  12.297   9.437
 1767POPC   PO426724  34.843  11.741   9.594
 1767POPC   GL126725  34.863  11.845   9.142
 1767POPC   GL226726  35.074  12.140   9.063
 1767POPC   C1A26727  34.827  11.850   8.688
 1767POPC   D2A26728  34.585  12.126   8.430
 1767POPC   C3A26729  34.554  11.937   8.066
 1767POPC   C4A26730  34.755  11.589   7.901
 1767POPC   C1B26731  34.958  12.340   8.696
 1767POPC   C2B26732  35.109  12.171   8.319
 1767POPC   C3B26733  35.047  12.005   7.896
 1767POPC   C4B26734  34.690  12.043   7.588
 1768POPC   NC326735  16.087   2.149   9.409
 1768POPC   PO426736  15.807   1.551   9.518
 1768POPC   GL126737  15.813   1.819   9.116
 1768POPC   GL226738  16.142   1.691   9.114
 1768POPC   C1A26739  15.883   2.173   8.758
 1768POPC   D2A26740  16.197   2.247   8.395
 1768POPC   C3A26741  16.027   2.203   7.981
 1768POPC   C4A26742  15.768   2.107   7.619
 1768POPC   C1B26743  16.314   1.917   8.785
 1768POPC   C2B26744  16.488   1.822   8.416
 1768POPC   C3B26745  16.444   1.801   8.001
 1768POPC   C4B26746  16.165   1.790   7.682
 1769POPC   NC326747   6.389  33.614   9.556
 1769POPC   PO426748   6.877  34.082   9.474
 1769POPC   GL126749   6.714  33.752   9.205
 1769POPC   GL226750   6.401  33.823   9.059
 1769POPC   C1A26751   6.821  33.549   8.852
 1769POPC   D2A26752   6.638  33.577   8.470
 1769POPC   C3A26753   6.838  33.670   8.083
 1769POPC   C4A26754   6.728  33.575   7.658
 1769POPC   C1B26755   6.661  34.024   8.752
 1769POPC   C2B26756   6.626  34.068   8.304
 1769POPC   C3B26757   6.474  33.978   7.893
 1769POPC   C4B26758   6.146  34.177   7.665
 1770POPC   NC326759  15.350  17.398   9.711
 1770POPC   PO426760  14.944  17.877   9.543
 1770POPC   GL126761  15.210  17.652   9.275
 1770POPC   GL226762  15.050  17.325   9.224
 1770POPC   C1A26763  15.357  17.588   8.868
 1770POPC   D2A26764  15.141  17.560   8.481
 1770POPC   C3A26765  15.439  17.518   8.169
 1770POPC   C4A26766  15.363  17.604   7.737
 1770POPC   C1B26767  14.830  17.212   8.807
 1770POPC   C2B26768  14.743  17.247   8.347
 1770POPC   C3B26769  15.006  17.283   7.997
 1770POPC   C4B26770  14.982  17.302   7.573
 1771POPC   NC326771  19.759   9.349   9.226
 1771POPC   PO426772  19.597  10.009   9.547
 1771POPC   GL126773  19.635   9.821   9.191
 1771POPC   GL226774  19.964   9.849   9.102
 1771POPC   C1A26775  19.581   9.804   8.744
 1771POPC   D2A26776  19.386   9.655   8.371
 1771POPC   C3A26777  19.515   9.719   7.934
 1771POPC   C4A26778  19.447   9.958   7.563
 1771POPC   C1B26779  20.080   9.653   8.721
 1771POPC   C2B26780  19.901   9.674   8.326
 1771POPC   C3B26781  20.024   9.635   7.927
 1771POPC   C4B26782  19.944   9.923   7.619
 1772POPC   NC326783   7.133  20.359   9.414
 1772POPC   PO426784   7.704  20.793   9.511
 1772POPC   GL126785   7.460  20.649   9.158
 1772POPC   GL226786   7.451  20.977   8.976
 1772POPC   C1A26787   7.385  20.534   8.752
 1772POPC   D2A26788   7.440  20.890   8.475
 1772POPC   C3A26789   7.414  20.691   8.118
 1772POPC   C4A26790   7.520  20.344   7.862
 1772POPC   C1B26791   7.025  20.867   8.817
 1772POPC   C2B26792   6.929  20.542   8.488
 1772POPC   C3B26793   6.924  20.477   8.030
 1772POPC   C4B26794   7.053  20.833   7.784
 1773POPC   NC326795  37.743  14.960   9.392
 1773POPC   PO426796  37.121  15.131   9.542
 1773POPC   GL126797  37.433  15.369   9.250
 1773POPC   GL226798  37.806  15.466   9.257
 1773POPC   C1A26799  37.462  15.313   8.819
 1773POPC   D2A26800  37.663  15.064   8.506
 1773POPC   C3A26801  37.683  15.238   8.110
 1773POPC   C4A26802  37.581  15.116   7.681
 1773POPC   C1B26803  37.985  15.405   8.846
 1773POPC   C2B26804  38.075  15.432   8.403
 1773POPC   C3B26805  38.092  15.498   7.955
 1773POPC   C4B26806  37.709  15.595   7.735
 1774POPC   NC326807   5.126  23.981   9.517
 1774POPC   PO426808   5.064  23.313   9.673
 1774POPC   GL126809   4.978  23.546   9.284
 1774POPC   GL226810   5.286  23.654   9.147
 1774POPC   C1A26811   4.882  23.460   8.839
 1774POPC   D2A26812   5.009  23.369   8.397
 1774POPC   C3A26813   4.904  23.674   8.076
 1774POPC   C4A26814   4.869  23.737   7.657
 1774POPC   C1B26815   5.402  23.579   8.709
 1774POPC   C2B26816   5.377  23.714   8.268
 1774POPC   C3B26817   5.372  23.676   7.823
 1774POPC   C4B26818   5.247  23.377   7.489
 1775POPC   NC326819   9.494  20.286   9.545
 1775POPC   PO426820   9.353  21.081   9.601
 1775POPC   GL126821   9.639  20.916   9.281
 1775POPC   GL226822   9.594  20.588   9.160
 1775POPC   C1A26823   9.687  20.974   8.839
 1775POPC   D2A26824   9.817  20.835   8.448
 1775POPC   C3A26825   9.610  20.771   8.062
 1775POPC   C4A26826   9.954  20.894   7.804
 1775POPC   C1B26827   9.801  20.440   8.807
 1775POPC   C2B26828   9.779  20.353   8.371
 1775POPC   C3B26829   9.996  20.420   8.014
 1775POPC   C4B26830   9.849  20.410   7.622
 1776POPC   NC326831  13.494   9.289   9.408
 1776POPC   PO426832  13.867   8.827   9.689
 1776POPC   GL126833  13.805   8.841   9.240
 1776POPC   GL226834  13.499   8.954   9.024
 1776POPC   C1A26835  13.807   8.600   8.840
 1776POPC   D2A26836  13.564   8.777   8.500
 1776POPC   C3A26837  13.719   9.025   8.172
 1776POPC   C4A26838  13.533   9.000   7.755
 1776POPC   C1B26839  13.623   9.260   8.703
 1776POPC   C2B26840  13.442   9.446   8.315
 1776POPC   C3B26841  13.607   9.477   7.891
 1776POPC   C4B26842  13.628   9.369   7.407
 1777POPC   NC326843  24.816  17.446   9.368
 1777POPC   PO426844  25.409  17.716   9.508
 1777POPC   GL126845  25.175  17.781   9.151
 1777POPC   GL226846  25.228  17.440   9.066
 1777POPC   C1A26847  25.252  17.826   8.706
 1777POPC   D2A26848  25.229  17.707   8.290
 1777POPC   C3A26849  25.038  17.846   7.922
 1777POPC   C4A26850  25.315  17.801   7.542
 1777POPC   C1B26851  24.966  17.391   8.693
 1777POPC   C2B26852  25.020  17.203   8.312
 1777POPC   C3B26853  25.174  17.353   7.931
 1777POPC   C4B26854  25.094  17.351   7.537
 1778POPC   NC326855  11.163  38.152   9.501
 1778POPC   PO426856  11.033  38.775   9.433
 1778POPC   GL126857  11.098  38.519   9.118
 1778POPC   GL226858  11.445  38.464   9.022
 1778POPC   C1A26859  11.001  38.508   8.697
 1778POPC   D2A26860  11.351  38.369   8.425
 1778POPC   C3A26861  11.214  38.399   8.015
 1778POPC   C4A26862  11.063  38.638   7.695
 1778POPC   C1B26863  11.715  38.152   8.750
 1778POPC   C2B26864  11.763  38.063   8.314
 1778POPC   C3B26865  11.751  38.434   8.050
 1778POPC   C4B26866  11.577  38.512   7.663
 1779POPC   NC326867  42.058  34.607   9.446
 1779POPC   PO426868  41.439  34.790   9.508
 1779POPC   GL126869  41.503  34.408   9.230
 1779POPC   GL226870  41.834  34.281   9.128
 1779POPC   C1A26871  41.320  34.451   8.822
 1779POPC   D2A26872  41.376  34.738   8.478
 1779POPC   C3A26873  41.473  34.469   8.144
 1779POPC   C4A26874  41.362  34.454   7.751
 1779POPC   C1B26875  41.809  34.617   8.831
 1779POPC   C2B26876  41.877  34.592   8.418
 1779POPC   C3B26877  41.949  34.710   8.028
 1779POPC   C4B26878  41.988  35.099   7.928
 1780POPC   NC326879   6.533  27.059   9.479
 1780POPC   PO426880   6.899  26.496   9.497
 1780POPC   GL126881   6.713  26.643   9.137
 1780POPC   GL226882   6.707  26.981   9.002
 1780POPC   C1A26883   6.852  26.613   8.706
 1780POPC   D2A26884   6.683  26.861   8.398
 1780POPC   C3A26885   6.732  26.584   8.062
 1780POPC   C4A26886   6.742  26.615   7.631
 1780POPC   C1B26887   6.310  26.837   8.795
 1780POPC   C2B26888   6.111  26.928   8.368
 1780POPC   C3B26889   6.347  26.917   8.015
 1780POPC   C4B26890   6.717  27.122   7.896
 1781POPC   NC326891   1.554  37.548   9.458
 1781POPC   PO426892   0.982  37.336   9.675
 1781POPC   GL126893   1.177  37.693   9.194
 1781POPC   GL226894   1.054  38.065   9.184
 1781POPC   C1A26895   1.434  37.608   8.784
 1781POPC   D2A26896   1.473  37.823   8.360
 1781POPC   C3A26897   1.459  37.697   7.923
 1781POPC   C4A26898   1.114  37.486   7.710
 1781POPC   C1B26899   1.316  38.093   8.784
 1781POPC   C2B26900   1.107  38.191   8.401
 1781POPC   C3B26901   1.040  37.998   7.989
 1781POPC   C4B26902   1.128  37.960   7.570
 1782POPC   NC326903  19.607  18.691   9.511
 1782POPC   PO426904  20.132  19.183   9.547
 1782POPC   GL126905  19.886  19.043   9.245
 1782POPC   GL226906  20.042  18.718   9.263
 1782POPC   C1A26907  19.680  19.031   8.863
 1782POPC   D2A26908  19.756  18.821   8.474
 1782POPC   C3A26909  19.870  19.101   8.121
 1782POPC   C4A26910  19.736  19.015   7.691
 1782POPC   C1B26911  20.122  18.766   8.849
 1782POPC   C2B26912  20.259  18.823   8.410
 1782POPC   C3B26913  20.185  18.744   7.921
 1782POPC   C4B26914  20.133  18.799   7.453
 1783POPC   NC326915   5.561   1.039   9.981
 1783POPC   PO426916   5.957   1.458   9.779
 1783POPC   GL126917   5.869   1.446   9.299
 1783POPC   GL226918   6.043   1.153   9.253
 1783POPC   C1A26919   5.924   1.665   8.883
 1783POPC   D2A26920   5.813   1.477   8.479
 1783POPC   C3A26921   5.890   1.583   8.064
 1783POPC   C4A26922   5.764   1.287   7.693
 1783POPC   C1B26923   5.873   1.116   8.825
 1783POPC   C2B26924   5.885   0.983   8.367
 1783POPC   C3B26925   5.872   0.824   7.927
 1783POPC   C4B26926   5.706   0.792   7.501
 1784POPC   NC326927  42.314   0.384   9.504
 1784POPC   PO426928  41.838   0.868   9.536
 1784POPC   GL126929  42.071   0.830   9.160
 1784POPC   GL226930  42.260   0.529   9.030
 1784POPC   C1A26931  41.873   0.677   8.767
 1784POPC   D2A26932  42.009   0.315   8.543
 1784POPC   C3A26933  42.092   0.433   8.135
 1784POPC   C4A26934  41.948   0.603   7.717
 1784POPC   C1B26935  42.376   0.104   8.867
 1784POPC   C2B26936  42.549   0.023   8.459
 1784POPC   C3B26937  42.662   0.296   8.102
 1784POPC   C4B26938  42.406   0.342   7.739
 1785POPC   NC326939   1.758  14.628   9.419
 1785POPC   PO426940   1.798  15.247   9.570
 1785POPC   GL126941   1.772  15.211   9.150
 1785POPC   GL226942   2.011  14.956   9.135
 1785POPC   C1A26943   1.963  15.298   8.749
 1785POPC   D2A26944   2.303  15.296   8.449
 1785POPC   C3A26945   2.092  15.352   8.086
 1785POPC   C4A26946   2.083  15.267   7.661
 1785POPC   C1B26947   1.748  14.819   8.783
 1785POPC   C2B26948   1.737  15.043   8.371
 1785POPC   C3B26949   1.822  14.935   7.967
 1785POPC   C4B26950   1.701  14.976   7.526
 1786POPC   NC326951   4.547   9.952   9.623
 1786POPC   PO426952   4.145   9.348   9.470
 1786POPC   GL126953   4.364   9.580   9.159
 1786POPC   GL226954   4.375   9.947   9.150
 1786POPC   C1A26955   4.269   9.620   8.724
 1786POPC   D2A26956   4.499   9.494   8.369
 1786POPC   C3A26957   4.242   9.600   8.035
 1786POPC   C4A26958   4.242   9.672   7.633
 1786POPC   C1B26959   4.439  10.116   8.756
 1786POPC   C2B26960   4.306  10.013   8.345
 1786POPC   C3B26961   4.534  10.021   7.971
 1786POPC   C4B26962   4.567  10.052   7.539
 1787POPC   NC326963  12.605  21.233   9.645
 1787POPC   PO426964  13.255  21.130   9.445
 1787POPC   GL126965  12.935  21.307   9.195
 1787POPC   GL226966  12.746  21.642   9.303
 1787POPC   C1A26967  12.865  21.119   8.783
 1787POPC   D2A26968  12.938  20.939   8.385
 1787POPC   C3A26969  12.884  21.257   8.077
 1787POPC   C4A26970  12.596  21.200   7.782
 1787POPC   C1B26971  12.556  21.504   8.912
 1787POPC   C2B26972  12.675  21.540   8.492
 1787POPC   C3B26973  12.491  21.609   8.092
 1787POPC   C4B26974  12.660  21.711   7.685
 1788POPC   NC326975  27.215  13.397   9.610
 1788POPC   PO426976  27.841  13.615   9.824
 1788POPC   GL126977  27.574  13.716   9.408
 1788POPC   GL226978  27.483  13.433   9.178
 1788POPC   C1A26979  27.476  13.897   8.969
 1788POPC   D2A26980  27.502  13.820   8.500
 1788POPC   C3A26981  27.496  13.852   8.044
 1788POPC   C4A26982  27.229  13.938   7.716
 1788POPC   C1B26983  27.331  13.399   8.729
 1788POPC   C2B26984  27.432  13.325   8.264
 1788POPC   C3B26985  27.334  13.420   7.820
 1788POPC   C4B26986  27.413  13.165   7.411
 1789POPC   NC326987  36.011  33.460   9.461
 1789POPC   PO426988  36.206  32.817   9.484
 1789POPC   GL126989  36.268  33.064   9.106
 1789POPC   GL226990  36.079  33.336   8.986
 1789POPC   C1A26991  36.363  32.997   8.684
 1789POPC   D2A26992  36.033  32.897   8.394
 1789POPC   C3A26993  36.151  32.882   7.986
 1789POPC   C4A26994  35.991  32.768   7.633
 1789POPC   C1B26995  36.189  33.464   8.605
 1789POPC   C2B26996  36.269  33.323   8.195
 1789POPC   C3B26997  36.459  33.407   7.796
 1789POPC   C4B26998  36.552  33.298   7.379
 1790POPC   NC326999   0.249   2.451   9.427
 1790POPC   PO427000   0.727   2.070   9.567
 1790POPC   GL127001   0.564   2.128   9.125
 1790POPC   GL227002   0.181   2.130   9.042
 1790POPC   C1A27003   0.530   2.271   8.685
 1790POPC   D2A27004   0.302   2.179   8.300
 1790POPC   C3A27005   0.431   2.217   7.865
 1790POPC   C4A27006   0.524   1.891   7.538
 1790POPC   C1B27007  44.915   1.998   8.697
 1790POPC   C2B27008  44.827   1.968   8.265
 1790POPC   C3B27009   0.140   1.812   7.945
 1790POPC   C4B27010   0.126   1.568   7.540
 1791POPC   NC327011  23.357  26.504   9.259
 1791POPC   PO427012  22.821  26.674   9.552
 1791POPC   GL127013  22.768  26.770   9.094
 1791POPC   GL227014  22.506  27.033   9.077
 1791POPC   C1A27015  22.937  26.770   8.671
 1791POPC   D2A27016  23.118  27.044   8.362
 1791POPC   C3A27017  23.146  26.844   7.989
 1791POPC   C4A27018  23.107  26.890   7.555
 1791POPC   C1B27019  22.424  26.856   8.670
 1791POPC   C2B27020  22.613  26.757   8.261
 1791POPC   C3B27021  22.660  26.813   7.825
 1791POPC   C4B27022  22.521  26.630   7.400
 1792POPC   NC327023  37.870   0.774   9.445
 1792POPC   PO427024  37.733   0.090   9.500
 1792POPC   GL127025  37.784   0.358   9.125
 1792POPC   GL227026  37.467   0.460   8.966
 1792POPC   C1A27027  37.916   0.484   8.684
 1792POPC   D2A27028  37.734   0.826   8.442
 1792POPC   C3A27029  37.626   0.664   8.057
 1792POPC   C4A27030  37.830   0.500   7.689
 1792POPC   C1B27031  37.229   0.769   8.736
 1792POPC   C2B27032  37.091   0.695   8.315
 1792POPC   C3B27033  37.177   0.891   7.923
 1792POPC   C4B27034  37.340   0.573   7.634
 1793POPC   NC327035  31.207  44.233   9.269
 1793POPC   PO427036  31.773  43.915   9.490
 1793POPC   GL127037  31.667  44.045   9.095
 1793POPC   GL227038  31.450  43.786   9.026
 1793POPC   C1A27039  31.559  44.140   8.657
 1793POPC   D2A27040  31.470  43.880   8.274
 1793POPC   C3A27041  31.484  44.016   7.864
 1793POPC   C4A27042  31.543  44.185   7.485
 1793POPC   C1B27043  31.150  43.802   8.680
 1793POPC   C2B27044  31.000  43.677   8.315
 1793POPC   C3B27045  31.151  43.640   7.898
 1793POPC   C4B27046  31.320  43.667   7.491
 1794POPC   NC327047  36.333  28.262   9.475
 1794POPC   PO427048  35.741  28.516   9.740
 1794POPC   GL127049  36.066  28.579   9.204
 1794POPC   GL227050  36.287  28.886   9.111
 1794POPC   C1A27051  36.053  28.350   8.750
 1794POPC   D2A27052  36.298  28.061   8.466
 1794POPC   C3A27053  36.375  28.165   8.017
 1794POPC   C4A27054  36.124  28.377   7.756
 1794POPC   C1B27055  36.412  28.693   8.726
 1794POPC   C2B27056  36.253  28.568   8.311
 1794POPC   C3B27057  36.312  28.803   7.937
 1794POPC   C4B27058  36.270  29.156   7.688
 1795POPC   NC327059  13.487  11.754   9.487
 1795POPC   PO427060  13.984  12.372   9.546
 1795POPC   GL127061  13.848  12.068   9.269
 1795POPC   GL227062  13.501  12.161   9.176
 1795POPC   C1A27063  13.923  12.031   8.853
 1795POPC   D2A27064  13.802  12.078   8.424
 1795POPC   C3A27065  13.761  12.240   8.023
 1795POPC   C4A27066  13.933  12.058   7.646
 1795POPC   C1B27067  13.369  11.989   8.782
 1795POPC   C2B27068  13.303  12.209   8.397
 1795POPC   C3B27069  13.217  12.081   8.017
 1795POPC   C4B27070  13.411  12.098   7.654
 1796POPC   NC327071  18.923  27.532   9.566
 1796POPC   PO427072  19.527  27.716   9.539
 1796POPC   GL127073  19.400  27.420   9.211
 1796POPC   GL227074  19.035  27.269   9.170
 1796POPC   C1A27075  19.418  27.612   8.786
 1796POPC   D2A27076  19.144  27.737   8.429
 1796POPC   C3A27077  19.360  27.651   8.064
 1796POPC   C4A27078  19.132  27.676   7.696
 1796POPC   C1B27079  18.922  27.476   8.825
 1796POPC   C2B27080  18.954  27.258   8.457
 1796POPC   C3B27081  18.916  27.365   8.045
 1796POPC   C4B27082  19.011  27.115   7.688
 1797POPC   NC327083  31.756   3.325   9.479
 1797POPC   PO427084  31.171   3.627   9.536
 1797POPC   GL127085  31.470   3.775   9.210
 1797POPC   GL227086  31.814   3.699   9.127
 1797POPC   C1A27087  31.480   3.631   8.753
 1797POPC   D2A27088  31.692   3.613   8.354
 1797POPC   C3A27089  31.402   3.622   8.012
 1797POPC   C4A27090  31.134   3.642   7.655
 1797POPC   C1B27091  31.913   3.367   8.802
 1797POPC   C2B27092  31.800   3.084   8.428
 1797POPC   C3B27093  31.820   3.231   7.983
 1797POPC   C4B27094  31.795   3.593   7.707
 1798POPC   NC327095  19.459  40.836   9.452
 1798POPC   PO427096  20.143  41.036   9.459
 1798POPC   GL127097  19.869  40.931   9.113
 1798POPC   GL227098  19.960  40.600   9.053
 1798POPC   C1A27099  19.692  40.812   8.682
 1798POPC   D2A27100  19.758  40.579   8.277
 1798POPC   C3A27101  19.791  40.853   7.901
 1798POPC   C4A27102  19.634  41.215   7.681
 1798POPC   C1B27103  20.175  40.599   8.650
 1798POPC   C2B27104  20.368  40.598   8.243
 1798POPC   C3B27105  20.168  40.518   7.833
 1798POPC   C4B27106  20.177  40.600   7.365
 1799POPC   NC327107  36.712  27.471   9.456
 1799POPC   PO427108  37.107  28.066   9.527
 1799POPC   GL127109  37.033  27.743   9.166
 1799POPC   GL227110  36.687  27.669   8.993
 1799POPC   C1A27111  37.125  27.539   8.755
 1799POPC   D2A27112  37.040  27.601   8.322
 1799POPC   C3A27113  36.745  27.851   8.158
 1799POPC   C4A27114  36.787  27.915   7.759
 1799POPC   C1B27115  36.674  27.220   8.807
 1799POPC   C2B27116  36.464  27.111   8.395
 1799POPC   C3B27117  36.629  27.331   8.015
 1799POPC   C4B27118  36.616  27.187   7.584
 1800POPC   NC327119  13.672  20.908   9.434
 1800POPC   PO427120  13.368  20.382   9.488
 1800POPC   GL127121  13.674  20.428   9.159
 1800POPC   GL227122  13.367  20.344   8.974
 1800POPC   C1A27123  13.842  20.539   8.751
 1800POPC   D2A27124  13.922  20.810   8.411
 1800POPC   C3A27125  13.967  20.649   7.976
 1800POPC   C4A27126  14.128  20.403   7.555
 1800POPC   C1B27127  13.333  20.581   8.612
 1800POPC   C2B27128  13.460  20.472   8.207
 1800POPC   C3B27129  13.458  20.603   7.808
 1800POPC   C4B27130  13.668  20.964   7.671
 1801POPC   NC327131  33.960  17.299   9.566
 1801POPC   PO427132  34.093  17.853   9.410
 1801POPC   GL127133  34.042  17.568   9.121
 1801POPC   GL227134  33.707  17.511   9.146
 1801POPC   C1A27135  34.026  17.478   8.707
 1801POPC   D2A27136  33.896  17.737   8.392
 1801POPC   C3A27137  33.944  17.582   7.987
 1801POPC   C4A27138  34.033  17.507   7.549
 1801POPC   C1B27139  33.528  17.701   8.809
 1801POPC   C2B27140  33.391  17.641   8.411
 1801POPC   C3B27141  33.483  17.835   8.032
 1801POPC   C4B27142  33.608  17.798   7.613
 1802POPC   NC327143   4.360  31.040   9.602
 1802POPC   PO427144   4.008  30.577   9.899
 1802POPC   GL127145   4.156  30.628   9.352
 1802POPC   GL227146   4.432  30.840   9.162
 1802POPC   C1A27147   4.236  30.567   8.825
 1802POPC   D2A27148   4.352  30.831   8.443
 1802POPC   C3A27149   4.057  30.831   8.092
 1802POPC   C4A27150   4.052  30.429   7.867
 1802POPC   C1B27151   4.680  31.070   8.863
 1802POPC   C2B27152   4.919  30.923   8.513
 1802POPC   C3B27153   4.767  30.899   8.086
 1802POPC   C4B27154   4.443  30.774   7.785
 1803POPC   NC327155  28.954  17.947   9.561
 1803POPC   PO427156  29.451  18.312   9.357
 1803POPC   GL127157  29.051  18.270   9.169
 1803POPC   GL227158  28.967  18.621   9.233
 1803POPC   C1A27159  28.893  18.124   8.741
 1803POPC   D2A27160  29.068  18.210   8.331
 1803POPC   C3A27161  28.947  18.133   7.908
 1803POPC   C4A27162  29.169  18.122   7.506
 1803POPC   C1B27163  29.184  18.576   8.796
 1803POPC   C2B27164  29.375  18.599   8.398
 1803POPC   C3B27165  29.148  18.613   8.024
 1803POPC   C4B27166  29.295  18.612   7.627
 1804POPC   NC327167  42.334  38.205   9.445
 1804POPC   PO427168  41.995  37.513   9.459
 1804POPC   GL127169  42.261  37.620   9.057
 1804POPC   GL227170  42.252  37.965   8.971
 1804POPC   C1A27171  42.210  37.668   8.582
 1804POPC   D2A27172  42.037  37.529   8.234
 1804POPC   C3A27173  42.266  37.728   7.938
 1804POPC   C4A27174  42.653  37.555   7.844
 1804POPC   C1B27175  42.545  38.055   8.586
 1804POPC   C2B27176  42.673  38.009   8.123
 1804POPC   C3B27177  42.810  37.991   7.665
 1804POPC   C4B27178  42.654  37.993   7.195
 1805POPC   NC327179  37.424  40.348   9.319
 1805POPC   PO427180  38.119  40.114   9.474
 1805POPC   GL127181  37.968  40.173   9.110
 1805POPC   GL227182  37.855  40.527   9.132
 1805POPC   C1A27183  37.960  39.928   8.706
 1805POPC   D2A27184  37.614  39.925   8.411
 1805POPC   C3A27185  37.693  40.027   7.968
 1805POPC   C4A27186  37.359  40.053   7.689
 1805POPC   C1B27187  37.711  40.364   8.731
 1805POPC   C2B27188  37.894  40.402   8.356
 1805POPC   C3B27189  37.823  40.528   7.961
 1805POPC   C4B27190  37.934  40.352   7.583
 1806POPC   NC327191  24.382  21.709   9.628
 1806POPC   PO427192  24.565  21.070   9.491
 1806POPC   GL127193  24.539  21.329   9.119
 1806POPC   GL227194  24.251  21.579   9.160
 1806POPC   C1A27195  24.730  21.274   8.686
 1806POPC   D2A27196  24.829  21.295   8.206
 1806POPC   C3A27197  24.505  21.210   7.867
 1806POPC   C4A27198  24.574  21.290   7.350
 1806POPC   C1B27199  24.434  21.769   8.822
 1806POPC   C2B27200  24.528  21.675   8.413
 1806POPC   C3B27201  24.343  21.697   8.005
 1806POPC   C4B27202  24.234  21.583   7.597
 1807POPC   NC327203   7.834  35.371   9.675
 1807POPC   PO427204   8.407  35.638   9.619
 1807POPC   GL127205   8.343  35.437   9.237
 1807POPC   GL227206   8.022  35.525   9.215
 1807POPC   C1A27207   8.232  35.460   8.769
 1807POPC   D2A27208   7.920  35.552   8.449
 1807POPC   C3A27209   8.160  35.535   8.083
 1807POPC   C4A27210   8.228  35.203   7.789
 1807POPC   C1B27211   7.802  35.230   8.925
 1807POPC   C2B27212   7.666  35.116   8.510
 1807POPC   C3B27213   7.806  35.126   8.100
 1807POPC   C4B27214   7.781  34.969   7.682
 1808POPC   NC327215   3.908  33.916   9.544
 1808POPC   PO427216   3.350  33.564   9.510
 1808POPC   GL127217   3.513  33.628   9.103
 1808POPC   GL227218   3.899  33.693   9.091
 1808POPC   C1A27219   3.322  33.552   8.673
 1808POPC   D2A27220   3.124  33.809   8.335
 1808POPC   C3A27221   3.309  33.813   7.960
 1808POPC   C4A27222   3.531  33.448   7.891
 1808POPC   C1B27223   3.751  33.850   8.717
 1808POPC   C2B27224   3.675  33.737   8.314
 1808POPC   C3B27225   3.796  34.007   7.977
 1808POPC   C4B27226   3.731  34.062   7.555
 1809POPC   NC327227  24.279  17.263   9.744
 1809POPC   PO427228  24.596  17.825   9.553
 1809POPC   GL127229  24.458  17.764   9.182
 1809POPC   GL227230  24.338  17.403   9.215
 1809POPC   C1A27231  24.751  17.817   8.857
 1809POPC   D2A27232  24.754  17.815   8.421
 1809POPC   C3A27233  24.411  17.797   8.134
 1809POPC   C4A27234  24.535  17.544   7.805
 1809POPC   C1B27235  24.413  17.446   8.770
 1809POPC   C2B27236  24.531  17.348   8.350
 1809POPC   C3B27237  24.618  17.089   8.006
 1809POPC   C4B27238  24.254  17.062   7.715
 1810POPC   NC327239  38.155  18.560   9.617
 1810POPC   PO427240  38.751  18.325   9.458
 1810POPC   GL127241  38.484  18.353   9.072
 1810POPC   GL227242  38.168  18.257   9.214
 1810POPC   C1A27243  38.434  18.358   8.563
 1810POPC   D2A27244  38.618  18.127   8.276
 1810POPC   C3A27245  38.703  18.404   7.990
 1810POPC   C4A27246  38.860  18.330   7.579
 1810POPC   C1B27247  38.054  18.173   8.816
 1810POPC   C2B27248  37.965  18.209   8.393
 1810POPC   C3B27249  38.198  18.323   8.040
 1810POPC   C4B27250  38.402  18.095   7.722
 1811POPC   NC327251   5.180   2.550   9.629
 1811POPC   PO427252   4.657   2.157   9.567
 1811POPC   GL127253   5.023   2.118   9.239
 1811POPC   GL227254   5.139   1.767   9.164
 1811POPC   C1A27255   5.076   2.057   8.763
 1811POPC   D2A27256   5.309   2.210   8.392
 1811POPC   C3A27257   5.175   2.093   8.011
 1811POPC   C4A27258   5.054   1.970   7.622
 1811POPC   C1B27259   5.406   1.667   8.761
 1811POPC   C2B27260   5.388   1.705   8.281
 1811POPC   C3B27261   5.442   1.680   7.808
 1811POPC   C4B27262   5.448   1.779   7.351
 1812POPC   NC327263  16.667  17.072   9.623
 1812POPC   PO427264  16.896  16.365   9.591
 1812POPC   GL127265  16.716  16.649   9.296
 1812POPC   GL227266  16.923  16.939   9.202
 1812POPC   C1A27267  16.574  16.628   8.880
 1812POPC   D2A27268  16.550  17.012   8.631
 1812POPC   C3A27269  16.614  17.006   8.188
 1812POPC   C4A27270  16.476  16.739   7.878
 1812POPC   C1B27271  17.051  16.757   8.835
 1812POPC   C2B27272  17.072  16.949   8.451
 1812POPC   C3B27273  17.092  17.028   8.018
 1812POPC   C4B27274  16.893  16.912   7.641
 1813POPC   NC327275  23.009  22.565  10.038
 1813POPC   PO427276  22.861  22.843   9.464
 1813POPC   GL127277  22.999  22.949   9.070
 1813POPC   GL227278  22.677  23.063   9.018
 1813POPC   C1A27279  22.950  22.998   8.602
 1813POPC   D2A27280  22.932  22.979   8.155
 1813POPC   C3A27281  23.110  22.678   7.864
 1813POPC   C4A27282  23.141  23.065   7.661
 1813POPC   C1B27283  22.404  23.079   8.711
 1813POPC   C2B27284  22.467  22.887   8.361
 1813POPC   C3B27285  22.446  23.041   7.966
 1813POPC   C4B27286  22.663  22.906   7.638
 1814POPC   NC327287  33.946  21.880   9.464
 1814POPC   PO427288  34.089  22.565   9.477
 1814POPC   GL127289  33.878  22.392   9.081
 1814POPC   GL227290  33.802  22.015   8.970
 1814POPC   C1A27291  33.945  22.370   8.627
 1814POPC   D2A27292  33.837  21.989   8.422
 1814POPC   C3A27293  33.947  21.978   7.998
 1814POPC   C4A27294  33.766  22.044   7.591
 1814POPC   C1B27295  33.467  22.227   8.728
 1814POPC   C2B27296  33.216  22.227   8.364
 1814POPC   C3B27297  33.471  22.242   7.998
 1814POPC   C4B27298  33.463  22.467   7.629
 1815POPC   NC327299  24.402  32.757   9.562
 1815POPC   PO427300  24.219  33.403   9.482
 1815POPC   GL127301  24.416  33.121   9.194
 1815POPC   GL227302  24.167  32.924   9.150
 1815POPC   C1A27303  24.500  33.012   8.767
 1815POPC   D2A27304  24.664  33.087   8.368
 1815POPC   C3A27305  24.578  33.289   7.989
 1815POPC   C4A27306  24.714  32.937   7.725
 1815POPC   C1B27307  24.094  32.703   8.790
 1815POPC   C2B27308  24.179  32.890   8.379
 1815POPC   C3B27309  24.260  32.897   7.951
 1815POPC   C4B27310  24.062  33.085   7.597
 1816POPC   NC327311   7.354   1.227   9.572
 1816POPC   PO427312   7.732   0.725   9.429
 1816POPC   GL127313   7.640   1.141   9.155
 1816POPC   GL227314   7.274   1.367   9.103
 1816POPC   C1A27315   7.578   1.253   8.728
 1816POPC   D2A27316   7.339   1.369   8.372
 1816POPC   C3A27317   7.566   1.385   8.014
 1816POPC   C4A27318   7.654   1.279   7.582
 1816POPC   C1B27319   7.279   1.696   8.787
 1816POPC   C2B27320   7.124   1.827   8.375
 1816POPC   C3B27321   7.027   1.646   7.970
 1816POPC   C4B27322   7.167   1.293   7.681
 1817POPC   NC327323  15.681  44.820   9.324
 1817POPC   PO427324  16.290  44.422   9.495
 1817POPC   GL127325  16.044  44.520   9.152
 1817POPC   GL227326  16.164  44.820   9.100
 1817POPC   C1A27327  15.819  44.449   8.756
 1817POPC   D2A27328  15.978  44.318   8.350
 1817POPC   C3A27329  15.779  44.373   7.959
 1817POPC   C4A27330  15.751  44.707   7.674
 1817POPC   C1B27331  15.936  44.948   8.715
 1817POPC   C2B27332  15.688  44.805   8.359
 1817POPC   C3B27333  15.604   0.068   7.990
 1817POPC   C4B27334  16.026   0.102   7.756
 1818POPC   NC327335  23.323  17.555   9.460
 1818POPC   PO427336  23.914  17.246   9.477
 1818POPC   GL127337  23.871  17.597   9.185
 1818POPC   GL227338  23.567  17.730   9.044
 1818POPC   C1A27339  23.895  17.507   8.729
 1818POPC   D2A27340  23.659  17.369   8.379
 1818POPC   C3A27341  23.900  17.250   8.053
 1818POPC   C4A27342  24.041  17.568   7.790
 1818POPC   C1B27343  23.597  17.929   8.636
 1818POPC   C2B27344  23.412  17.793   8.239
 1818POPC   C3B27345  23.533  17.634   7.865
 1818POPC   C4B27346  23.611  17.306   7.619
 1819POPC   NC327347  15.062   0.142   9.592
 1819POPC   PO427348  15.163   0.787   9.493
 1819POPC   GL127349  15.219   0.471   9.167
 1819POPC   GL227350  14.968   0.207   9.096
 1819POPC   C1A27351  15.166   0.562   8.729
 1819POPC   D2A27352  14.995   0.447   8.330
 1819POPC   C3A27353  15.309   0.494   8.000
 1819POPC   C4A27354  15.422   0.681   7.601
 1819POPC   C1B27355  15.289   0.075   8.804
 1819POPC   C2B27356  15.207  44.975   8.368
 1819POPC   C3B27357  15.026   0.055   7.960
 1819POPC   C4B27358  15.083   0.286   7.566
 1820POPC   NC327359  31.952   4.036   9.529
 1820POPC   PO427360  32.486   4.384   9.370
 1820POPC   GL127361  32.177   4.433   9.092
 1820POPC   GL227362  31.945   4.184   9.060
 1820POPC   C1A27363  32.229   4.350   8.673
 1820POPC   D2A27364  32.349   4.573   8.369
 1820POPC   C3A27365  32.421   4.382   7.982
 1820POPC   C4A27366  32.361   4.684   7.656
 1820POPC   C1B27367  31.730   4.311   8.732
 1820POPC   C2B27368  31.851   4.357   8.322
 1820POPC   C3B27369  31.978   4.595   8.001
 1820POPC   C4B27370  31.945   4.400   7.647
 1821POPC   NC327371  17.267   3.689   9.453
 1821POPC   PO427372  17.809   3.267   9.492
 1821POPC   GL127373  17.472   3.313   9.187
 1821POPC   GL227374  17.723   3.390   8.980
 1821POPC   C1A27375  17.279   3.434   8.767
 1821POPC   D2A27376  17.459   3.555   8.349
 1821POPC   C3A27377  17.232   3.658   7.966
 1821POPC   C4A27378  17.282   3.364   7.643
 1821POPC   C1B27379  17.830   3.692   8.691
 1821POPC   C2B27380  17.968   3.649   8.248
 1821POPC   C3B27381  17.746   3.584   7.872
 1821POPC   C4B27382  17.579   3.750   7.486
 1822POPC   NC327383   4.222   7.878   9.397
 1822POPC   PO427384   4.069   8.610   9.561
 1822POPC   GL127385   4.241   8.374   9.195
 1822POPC   GL227386   4.603   8.341   9.136
 1822POPC   C1A27387   4.292   8.446   8.741
 1822POPC   D2A27388   4.393   8.309   8.332
 1822POPC   C3A27389   4.123   8.150   8.011
 1822POPC   C4A27390   4.182   7.864   7.706
 1822POPC   C1B27391   4.582   8.026   8.767
 1822POPC   C2B27392   4.749   7.863   8.351
 1822POPC   C3B27393   4.894   7.881   7.900
 1822POPC   C4B27394   4.647   7.959   7.491
 1823POPC   NC327395  43.502   2.621   9.328
 1823POPC   PO427396  44.052   3.113   9.479
 1823POPC   GL127397  43.871   2.911   9.126
 1823POPC   GL227398  43.907   2.586   9.030
 1823POPC   C1A27399  43.902   2.954   8.688
 1823POPC   D2A27400  44.043   2.703   8.392
 1823POPC   C3A27401  43.951   2.844   8.006
 1823POPC   C4A27402  44.160   2.660   7.668
 1823POPC   C1B27403  43.621   2.528   8.649
 1823POPC   C2B27404  43.539   2.513   8.194
 1823POPC   C3B27405  43.641   2.533   7.762
 1823POPC   C4B27406  43.764   2.527   7.346
 1824POPC   NC327407   7.008  22.829   9.474
 1824POPC   PO427408   7.562  22.998   9.171
 1824POPC   GL127409   7.204  23.055   9.025
 1824POPC   GL227410   7.064  22.732   8.991
 1824POPC   C1A27411   7.251  23.041   8.579
 1824POPC   D2A27412   7.012  22.978   8.223
 1824POPC   C3A27413   7.313  23.174   7.942
 1824POPC   C4A27414   7.732  22.994   7.795
 1824POPC   C1B27415   6.951  22.617   8.613
 1824POPC   C2B27416   6.947  22.292   8.338
 1824POPC   C3B27417   7.124  22.459   7.978
 1824POPC   C4B27418   7.014  22.827   7.727
 1825POPC   NC327419  37.399  26.151   9.753
 1825POPC   PO427420  37.757  25.742   9.320
 1825POPC   GL127421  37.626  25.915   8.944
 1825POPC   GL227422  37.935  25.782   8.803
 1825POPC   C1A27423  37.775  26.255   8.659
 1825POPC   D2A27424  37.804  26.533   8.326
 1825POPC   C3A27425  37.550  26.279   8.100
 1825POPC   C4A27426  37.507  26.073   7.716
 1825POPC   C1B27427  37.618  25.632   8.516
 1825POPC   C2B27428  37.576  25.759   8.118
 1825POPC   C3B27429  37.897  25.756   7.835
 1825POPC   C4B27430  37.878  25.433   7.572
 1826POPC   NC327431  40.310  41.858   9.494
 1826POPC   PO427432  39.906  41.329   9.342
 1826POPC   GL127433  40.015  41.657   9.115
 1826POPC   GL227434  40.349  41.574   9.080
 1826POPC   C1A27435  40.083  41.843   8.725
 1826POPC   D2A27436  40.112  41.686   8.353
 1826POPC   C3A27437  39.761  41.464   8.199
 1826POPC   C4A27438  39.591  41.435   7.796
 1826POPC   C1B27439  40.480  41.255   8.797
 1826POPC   C2B27440  40.491  41.111   8.403
 1826POPC   C3B27441  40.227  41.278   8.082
 1826POPC   C4B27442  40.097  41.297   7.685
 1827POPC   NC327443  33.429  42.253   9.505
 1827POPC   PO427444  34.072  42.300   9.664
 1827POPC   GL127445  33.924  42.124   9.225
 1827POPC   GL227446  33.585  42.164   9.051
 1827POPC   C1A27447  34.008  42.177   8.770
 1827POPC   D2A27448  34.104  42.564   8.509
 1827POPC   C3A27449  34.083  42.541   8.038
 1827POPC   C4A27450  33.976  42.326   7.618
 1827POPC   C1B27451  33.595  42.467   8.702
 1827POPC   C2B27452  33.634  42.573   8.283
 1827POPC   C3B27453  33.630  42.257   7.995
 1827POPC   C4B27454  33.493  42.186   7.593
 1828POPC   NC327455  36.576   0.939   9.451
 1828POPC   PO427456  36.949   1.490   9.554
 1828POPC   GL127457  36.752   1.359   9.211
 1828POPC   GL227458  37.029   1.098   9.132
 1828POPC   C1A27459  36.604   1.184   8.830
 1828POPC   D2A27460  36.796   1.081   8.455
 1828POPC   C3A27461  36.690   1.287   8.088
 1828POPC   C4A27462  36.791   1.196   7.664
 1828POPC   C1B27463  37.069   1.440   8.820
 1828POPC   C2B27464  36.992   1.563   8.411
 1828POPC   C3B27465  37.145   1.449   7.990
 1828POPC   C4B27466  37.240   1.456   7.564
 1829POPC   NC327467   9.504   8.756   9.442
 1829POPC   PO427468   9.690   8.027   9.543
 1829POPC   GL127469   9.729   7.975   9.133
 1829POPC   GL227470   9.413   7.834   9.022
 1829POPC   C1A27471   9.753   8.357   8.891
 1829POPC   D2A27472   9.754   8.441   8.455
 1829POPC   C3A27473   9.789   8.357   8.030
 1829POPC   C4A27474  10.075   8.244   7.747
 1829POPC   C1B27475   9.581   7.950   8.644
 1829POPC   C2B27476   9.440   8.069   8.279
 1829POPC   C3B27477   9.575   7.886   7.922
 1829POPC   C4B27478   9.850   7.792   7.644
 1830POPC   NC327479  41.746  28.702   9.465
 1830POPC   PO427480  41.477  29.337   9.457
 1830POPC   GL127481  41.502  29.276   9.043
 1830POPC   GL227482  41.740  29.489   9.011
 1830POPC   C1A27483  41.432  29.169   8.619
 1830POPC   D2A27484  41.253  29.090   8.227
 1830POPC   C3A27485  41.536  28.980   7.930
 1830POPC   C4A27486  41.515  28.643   7.641
 1830POPC   C1B27487  41.883  29.442   8.676
 1830POPC   C2B27488  41.688  29.508   8.318
 1830POPC   C3B27489  41.469  29.499   7.973
 1830POPC   C4B27490  41.679  29.424   7.584
 1831POPC   NC327491  25.549  33.006   9.463
 1831POPC   PO427492  24.852  32.853   9.525
 1831POPC   GL127493  25.055  33.080   9.233
 1831POPC   GL227494  25.300  32.865   9.043
 1831POPC   C1A27495  24.965  33.186   8.817
 1831POPC   D2A27496  25.151  33.004   8.457
 1831POPC   C3A27497  25.096  33.132   8.060
 1831POPC   C4A27498  25.238  32.910   7.717
 1831POPC   C1B27499  25.483  33.215   8.808
 1831POPC   C2B27500  25.550  33.287   8.378
 1831POPC   C3B27501  25.693  33.203   8.007
 1831POPC   C4B27502  25.587  33.255   7.620
 1832POPC   NC327503  38.876  37.145   9.453
 1832POPC   PO427504  38.273  36.696   9.506
 1832POPC   GL127505  38.419  37.015   9.217
 1832POPC   GL227506  38.196  36.899   8.965
 1832POPC   C1A27507  38.585  37.164   8.802
 1832POPC   D2A27508  38.466  36.876   8.458
 1832POPC   C3A27509  38.508  37.016   8.033
 1832POPC   C4A27510  38.184  36.977   7.731
 1832POPC   C1B27511  38.587  36.615   8.902
 1832POPC   C2B27512  38.777  36.436   8.522
 1832POPC   C3B27513  38.539  36.458   8.134
 1832POPC   C4B27514  38.581  36.610   7.713
 1833POPC   NC327515  16.423   0.701   9.326
 1833POPC   PO427516  16.631   0.195   9.651
 1833POPC   GL127517  16.661   0.221   9.192
 1833POPC   GL227518  16.320   0.290   9.062
 1833POPC   C1A27519  16.773   0.469   8.808
 1833POPC   D2A27520  16.970   0.585   8.428
 1833POPC   C3A27521  17.010   0.344   8.073
 1833POPC   C4A27522  16.809   0.412   7.707
 1833POPC   C1B27523  16.416   0.120   8.673
 1833POPC   C2B27524  16.508   0.345   8.292
 1833POPC   C3B27525  16.491   0.087   7.948
 1833POPC   C4B27526  16.474   0.077   7.508
 1834POPC   NC327527  19.121   8.671   9.590
 1834POPC   PO427528  19.372   9.239   9.447
 1834POPC   GL127529  19.120   8.995   9.158
 1834POPC   GL227530  19.211   8.639   9.101
 1834POPC   C1A27531  18.846   9.045   8.792
 1834POPC   D2A27532  18.755   8.823   8.407
 1834POPC   C3A27533  18.838   9.025   8.039
 1834POPC   C4A27534  18.679   9.279   7.754
 1834POPC   C1B27535  19.078   8.585   8.722
 1834POPC   C2B27536  19.034   8.394   8.350
 1834POPC   C3B27537  19.129   8.606   7.968
 1834POPC   C4B27538  19.176   8.755   7.536
 1835POPC   NC327539   2.199  22.239   9.578
 1835POPC   PO427540   2.301  21.653   9.442
 1835POPC   GL127541   2.239  21.995   9.118
 1835POPC   GL227542   1.887  22.062   9.099
 1835POPC   C1A27543   2.173  22.100   8.663
 1835POPC   D2A27544   1.922  22.023   8.268
 1835POPC   C3A27545   2.072  21.936   7.827
 1835POPC   C4A27546   2.174  22.210   7.488
 1835POPC   C1B27547   1.652  22.155   8.700
 1835POPC   C2B27548   1.624  22.436   8.326
 1835POPC   C3B27549   1.771  22.359   7.882
 1835POPC   C4B27550   1.671  22.120   7.502
 1836POPC   NC327551  12.438  13.902   9.561
 1836POPC   PO427552  11.992  13.447   9.634
 1836POPC   GL127553  12.284  13.490   9.238
 1836POPC   GL227554  12.371  13.829   9.059
 1836POPC   C1A27555  12.237  13.429   8.772
 1836POPC   D2A27556  12.448  13.593   8.407
 1836POPC   C3A27557  12.225  13.697   8.008
 1836POPC   C4A27558  11.809  13.549   7.844
 1836POPC   C1B27559  12.169  13.956   8.636
 1836POPC   C2B27560  12.025  14.142   8.218
 1836POPC   C3B27561  11.939  14.094   7.779
 1836POPC   C4B27562  12.108  14.200   7.380
 1837POPC   NC327563   2.379  33.052   9.577
 1837POPC   PO427564   2.987  32.738   9.505
 1837POPC   GL127565   2.790  33.017   9.248
 1837POPC   GL227566   2.495  32.829   9.144
 1837POPC   C1A27567   2.885  33.306   8.908
 1837POPC   D2A27568   2.857  33.421   8.482
 1837POPC   C3A27569   3.015  33.306   8.071
 1837POPC   C4A27570   2.682  33.249   7.781
 1837POPC   C1B27571   2.709  32.829   8.770
 1837POPC   C2B27572   2.756  32.938   8.359
 1837POPC   C3B27573   2.780  32.797   7.973
 1837POPC   C4B27574   2.545  32.574   7.716
 1838POPC   NC327575  38.521  39.588   9.805
 1838POPC   PO427576  38.154  39.205   9.363
 1838POPC   GL127577  38.374  39.175   9.045
 1838POPC   GL227578  38.141  38.933   8.875
 1838POPC   C1A27579  38.236  39.417   8.693
 1838POPC   D2A27580  37.924  39.303   8.408
 1838POPC   C3A27581  38.235  39.193   8.104
 1838POPC   C4A27582  38.429  39.374   7.712
 1838POPC   C1B27583  38.517  38.985   8.602
 1838POPC   C2B27584  38.690  38.864   8.238
 1838POPC   C3B27585  38.515  38.870   7.828
 1838POPC   C4B27586  38.089  38.962   7.671
 1839POPC   NC327587  26.920  36.395   9.686
 1839POPC   PO427588  27.277  35.924   9.438
 1839POPC   GL127589  27.005  36.201   9.179
 1839POPC   GL227590  26.720  36.027   8.977
 1839POPC   C1A27591  27.062  36.365   8.775
 1839POPC   D2A27592  26.883  36.328   8.362
 1839POPC   C3A27593  27.015  36.017   8.094
 1839POPC   C4A27594  26.877  35.927   7.708
 1839POPC   C1B27595  26.533  36.370   8.706
 1839POPC   C2B27596  26.457  36.662   8.388
 1839POPC   C3B27597  26.630  36.585   8.002
 1839POPC   C4B27598  26.448  36.554   7.635
 1840POPC   NC327599  18.062  34.058   9.489
 1840POPC   PO427600  18.536  33.573   9.494
 1840POPC   GL127601  18.171  33.578   9.221
 1840POPC   GL227602  18.188  33.916   9.030
 1840POPC   C1A27603  18.117  33.474   8.800
 1840POPC   D2A27604  18.167  33.785   8.510
 1840POPC   C3A27605  18.200  33.597   8.115
 1840POPC   C4A27606  18.579  33.561   7.824
 1840POPC   C1B27607  18.611  34.128   8.981
 1840POPC   C2B27608  18.724  34.055   8.534
 1840POPC   C3B27609  18.483  34.026   8.135
 1840POPC   C4B27610  18.621  34.243   7.763
 1841POPC   NC327611  24.142  39.010   9.349
 1841POPC   PO427612  24.629  39.409   9.626
 1841POPC   GL127613  24.554  39.311   9.187
 1841POPC   GL227614  24.259  39.496   9.142
 1841POPC   C1A27615  24.566  39.140   8.757
 1841POPC   D2A27616  24.624  38.864   8.381
 1841POPC   C3A27617  24.630  39.142   8.009
 1841POPC   C4A27618  24.831  39.547   7.814
 1841POPC   C1B27619  24.057  39.294   8.781
 1841POPC   C2B27620  24.101  39.031   8.428
 1841POPC   C3B27621  24.072  39.049   7.983
 1841POPC   C4B27622  24.247  39.396   7.782
 1842POPC   NC327623   2.971   8.434   9.331
 1842POPC   PO427624   3.068   7.786   9.412
 1842POPC   GL127625   2.719   7.845   9.133
 1842POPC   GL227626   2.551   8.160   9.160
 1842POPC   C1A27627   2.734   7.939   8.704
 1842POPC   D2A27628   3.037   8.117   8.438
 1842POPC   C3A27629   3.018   7.988   8.042
 1842POPC   C4A27630   2.808   8.033   7.658
 1842POPC   C1B27631   2.585   8.433   8.771
 1842POPC   C2B27632   2.519   8.273   8.358
 1842POPC   C3B27633   2.417   8.189   7.944
 1842POPC   C4B27634   2.510   8.476   7.618
 1843POPC   NC327635  24.823  40.489   9.390
 1843POPC   PO427636  24.146  40.721   9.430
 1843POPC   GL127637  24.187  40.825   9.044
 1843POPC   GL227638  24.560  40.827   9.059
 1843POPC   C1A27639  24.266  40.583   8.709
 1843POPC   D2A27640  24.508  40.632   8.372
 1843POPC   C3A27641  24.326  40.873   8.094
 1843POPC   C4A27642  24.232  40.785   7.698
 1843POPC   C1B27643  24.499  41.040   8.689
 1843POPC   C2B27644  24.733  41.098   8.335
 1843POPC   C3B27645  24.883  40.801   8.069
 1843POPC   C4B27646  24.733  40.784   7.698
 1844POPC   NC327647   9.007  33.080  10.129
 1844POPC   PO427648   9.115  33.156   9.494
 1844POPC   GL127649   8.791  33.057   9.163
 1844POPC   GL227650   8.557  32.804   9.250
 1844POPC   C1A27651   8.855  33.211   8.740
 1844POPC   D2A27652   9.044  32.968   8.408
 1844POPC   C3A27653   9.028  33.122   7.978
 1844POPC   C4A27654   9.335  33.158   7.639
 1844POPC   C1B27655   8.793  32.682   8.834
 1844POPC   C2B27656   8.652  32.642   8.393
 1844POPC   C3B27657   8.682  32.741   7.959
 1844POPC   C4B27658   8.524  32.678   7.559
 1845POPC   NC327659  34.547  22.488   9.585
 1845POPC   PO427660  34.456  21.807   9.497
 1845POPC   GL127661  34.634  22.137   9.224
 1845POPC   GL227662  34.402  22.412   9.094
 1845POPC   C1A27663  34.824  22.210   8.835
 1845POPC   D2A27664  35.029  22.121   8.460
 1845POPC   C3A27665  34.961  22.297   8.061
 1845POPC   C4A27666  34.824  22.139   7.677
 1845POPC   C1B27667  34.296  22.066   8.838
 1845POPC   C2B27668  34.382  22.008   8.410
 1845POPC   C3B27669  34.431  22.221   8.018
 1845POPC   C4B27670  34.321  22.015   7.656
 1846POPC   NC327671  43.562  29.077   9.459
 1846POPC   PO427672  43.601  29.736   9.489
 1846POPC   GL127673  43.649  29.438   9.100
 1846POPC   GL227674  43.909  29.161   9.092
 1846POPC   C1A27675  43.644  29.245   8.663
 1846POPC   D2A27676  43.920  29.224   8.284
 1846POPC   C3A27677  43.730  29.113   7.921
 1846POPC   C4A27678  43.333  29.312   7.828
 1846POPC   C1B27679  44.150  29.041   8.710
 1846POPC   C2B27680  44.394  29.031   8.311
 1846POPC   C3B27681  44.256  28.895   7.898
 1846POPC   C4B27682  43.941  28.756   7.600
 1847POPC   NC327683  38.773  41.096   9.595
 1847POPC   PO427684  38.737  41.732   9.465
 1847POPC   GL127685  38.414  41.558   9.217
 1847POPC   GL227686  38.368  41.194   9.302
 1847POPC   C1A27687  38.259  41.536   8.810
 1847POPC   D2A27688  38.431  41.576   8.412
 1847POPC   C3A27689  38.253  41.742   8.072
 1847POPC   C4A27690  38.411  41.568   7.719
 1847POPC   C1B27691  38.159  41.040   8.948
 1847POPC   C2B27692  38.256  41.089   8.510
 1847POPC   C3B27693  38.252  41.215   8.055
 1847POPC   C4B27694  38.063  41.138   7.630
 1848POPC   NC327695  37.174  28.466   9.757
 1848POPC   PO427696  36.557  28.675   9.462
 1848POPC   GL127697  36.888  28.452   9.205
 1848POPC   GL227698  37.178  28.218   9.042
 1848POPC   C1A27699  36.928  28.557   8.757
 1848POPC   D2A27700  36.730  28.346   8.411
 1848POPC   C3A27701  36.760  28.554   8.032
 1848POPC   C4A27702  36.650  28.474   7.618
 1848POPC   C1B27703  37.218  28.053   8.606
 1848POPC   C2B27704  37.151  28.146   8.145
 1848POPC   C3B27705  37.145  28.352   7.743
 1848POPC   C4B27706  37.193  28.664   7.400
 1849POPC   NC327707  14.055  38.721   9.620
 1849POPC   PO427708  13.757  39.308   9.509
 1849POPC   GL127709  13.601  39.066   9.184
 1849POPC   GL227710  13.899  38.877   9.180
 1849POPC   C1A27711  13.407  39.056   8.777
 1849POPC   D2A27712  13.224  38.932   8.397
 1849POPC   C3A27713  13.427  39.125   8.059
 1849POPC   C4A27714  13.653  39.297   7.696
 1849POPC   C1B27715  13.852  38.819   8.781
 1849POPC   C2B27716  13.830  39.065   8.437
 1849POPC   C3B27717  13.905  38.974   8.026
 1849POPC   C4B27718  13.674  38.781   7.717
 1850POPC   NC327719  17.992  16.496   9.161
 1850POPC   PO427720  18.554  16.739   9.550
 1850POPC   GL127721  18.395  16.811   9.179
 1850POPC   GL227722  18.555  16.544   9.040
 1850POPC   C1A27723  18.383  16.917   8.731
 1850POPC   D2A27724  18.547  16.887   8.312
 1850POPC   C3A27725  18.184  16.926   8.060
 1850POPC   C4A27726  18.100  16.877   7.646
 1850POPC   C1B27727  18.571  16.449   8.611
 1850POPC   C2B27728  18.254  16.459   8.300
 1850POPC   C3B27729  18.077  16.396   7.889
 1850POPC   C4B27730  18.222  16.434   7.447
 1851POPC   NC327731  43.143   6.085   9.491
 1851POPC   PO427732  43.033   5.444   9.497
 1851POPC   GL127733  43.243   5.709   9.124
 1851POPC   GL227734  43.451   6.018   9.084
 1851POPC   C1A27735  43.360   5.788   8.640
 1851POPC   D2A27736  43.428   5.869   8.155
 1851POPC   C3A27737  43.082   5.772   7.884
 1851POPC   C4A27738  42.808   5.483   7.738
 1851POPC   C1B27739  43.543   6.291   8.703
 1851POPC   C2B27740  43.505   6.371   8.232
 1851POPC   C3B27741  43.197   6.291   7.866
 1851POPC   C4B27742  42.955   6.172   7.472
 1852POPC   NC327743   5.393   3.956   9.427
 1852POPC   PO427744   5.000   3.396   9.399
 1852POPC   GL127745   5.142   3.381   9.028
 1852POPC   GL227746   5.412   3.592   9.049
 1852POPC   C1A27747   4.939   3.561   8.682
 1852POPC   D2A27748   4.629   3.678   8.401
 1852POPC   C3A27749   4.675   3.545   7.973
 1852POPC   C4A27750   5.058   3.418   7.766
 1852POPC   C1B27751   5.329   3.896   8.747
 1852POPC   C2B27752   5.435   4.039   8.375
 1852POPC   C3B27753   5.291   3.839   8.012
 1852POPC   C4B27754   5.451   3.781   7.647
 1853POPC   NC327755  42.286  42.792   9.462
 1853POPC   PO427756  42.117  43.435   9.585
 1853POPC   GL127757  42.149  43.237   9.217
 1853POPC   GL227758  42.491  43.205   9.147
 1853POPC   C1A27759  42.159  43.063   8.790
 1853POPC   D2A27760  42.286  43.326   8.426
 1853POPC   C3A27761  42.383  43.218   8.013
 1853POPC   C4A27762  42.206  42.952   7.697
 1853POPC   C1B27763  42.612  42.849   8.856
 1853POPC   C2B27764  42.681  42.927   8.406
 1853POPC   C3B27765  42.651  42.785   7.968
 1853POPC   C4B27766  42.697  42.722   7.551
 1854POPC   NC327767  28.239   6.506   9.383
 1854POPC   PO427768  28.659   6.943   9.557
 1854POPC   GL127769  28.497   6.871   9.148
 1854POPC   GL227770  28.499   6.535   8.947
 1854POPC   C1A27771  28.284   7.019   8.795
 1854POPC   D2A27772  28.042   6.954   8.424
 1854POPC   C3A27773  28.352   6.880   8.109
 1854POPC   C4A27774  28.432   6.913   7.669
 1854POPC   C1B27775  28.087   6.516   8.693
 1854POPC   C2B27776  28.046   6.473   8.223
 1854POPC   C3B27777  28.325   6.433   7.848
 1854POPC   C4B27778  28.325   6.366   7.385
 1855POPC   NC327779  13.254  22.413   9.355
 1855POPC   PO427780  12.626  22.386   9.604
 1855POPC   GL127781  12.732  22.240   9.222
 1855POPC   GL227782  12.687  22.560   9.099
 1855POPC   C1A27783  12.924  22.028   8.873
 1855POPC   D2A27784  13.122  22.091   8.485
 1855POPC   C3A27785  12.957  21.867   8.151
 1855POPC   C4A27786  12.950  22.127   7.768
 1855POPC   C1B27787  12.567  22.470   8.704
 1855POPC   C2B27788  12.793  22.465   8.301
 1855POPC   C3B27789  12.685  22.553   7.874
 1855POPC   C4B27790  12.402  22.567   7.551
 1856POPC   NC327791  15.116  44.261   9.626
 1856POPC   PO427792  15.404  44.839   9.699
 1856POPC   GL127793  15.171  44.737   9.243
 1856POPC   GL227794  14.986  44.405   9.163
 1856POPC   C1A27795  15.275  44.571   8.781
 1856POPC   D2A27796  15.166  44.450   8.364
 1856POPC   C3A27797  15.348  44.633   7.992
 1856POPC   C4A27798  15.267  44.808   7.579
 1856POPC   C1B27799  14.776  44.362   8.746
 1856POPC   C2B27800  14.636  44.505   8.331
 1856POPC   C3B27801  14.860  44.547   7.939
 1856POPC   C4B27802  14.959  44.397   7.504
 1857POPC   NC327803  33.968  40.963   9.698
 1857POPC   PO427804  33.367  40.923   9.502
 1857POPC   GL127805  33.561  40.997   9.080
 1857POPC   GL227806  33.876  41.126   9.207
 1857POPC   C1A27807  33.554  40.947   8.622
 1857POPC   D2A27808  33.488  40.709   8.226
 1857POPC   C3A27809  33.715  40.864   7.854
 1857POPC   C4A27810  34.113  40.651   7.803
 1857POPC   C1B27811  34.017  41.096   8.794
 1857POPC   C2B27812  34.042  40.950   8.356
 1857POPC   C3B27813  34.341  41.067   8.038
 1857POPC   C4B27814  34.350  41.061   7.608
 1858POPC   NC327815   4.205  36.228   9.484
 1858POPC   PO427816   4.846  36.425   9.409
 1858POPC   GL127817   4.553  36.232   9.097
 1858POPC   GL227818   4.206  36.356   9.007
 1858POPC   C1A27819   4.455  35.990   8.730
 1858POPC   D2A27820   4.407  35.828   8.329
 1858POPC   C3A27821   4.454  36.104   8.024
 1858POPC   C4A27822   4.568  36.028   7.648
 1858POPC   C1B27823   3.913  36.212   8.717
 1858POPC   C2B27824   4.028  36.179   8.311
 1858POPC   C3B27825   3.963  36.109   7.896
 1858POPC   C4B27826   4.170  36.393   7.645
 1859POPC   NC327827  20.427   1.778   9.537
 1859POPC   PO427828  21.075   1.957   9.516
 1859POPC   GL127829  20.727   1.910   9.142
 1859POPC   GL227830  20.621   1.566   9.121
 1859POPC   C1A27831  20.425   1.854   8.741
 1859POPC   D2A27832  20.513   1.690   8.269
 1859POPC   C3A27833  20.483   2.021   7.881
 1859POPC   C4A27834  20.509   2.096   7.393
 1859POPC   C1B27835  20.873   1.609   8.721
 1859POPC   C2B27836  20.970   1.490   8.291
 1859POPC   C3B27837  20.928   1.756   7.925
 1859POPC   C4B27838  20.967   2.128   7.645
 1860POPC   NC327839  28.176  22.337   9.581
 1860POPC   PO427840  28.382  21.776   9.498
 1860POPC   GL127841  28.360  22.092   9.178
 1860POPC   GL227842  28.606  22.353   9.176
 1860POPC   C1A27843  28.230  22.276   8.806
 1860POPC   D2A27844  28.361  22.335   8.374
 1860POPC   C3A27845  28.285  22.123   7.974
 1860POPC   C4A27846  28.057  22.301   7.638
 1860POPC   C1B27847  28.746  22.292   8.739
 1860POPC   C2B27848  28.814  22.533   8.362
 1860POPC   C3B27849  28.784  22.270   8.021
 1860POPC   C4B27850  28.752  21.852   7.788
 1861POPC   NC327851  21.399   6.328   9.774
 1861POPC   PO427852  21.227   5.740   9.434
 1861POPC   GL127853  21.442   5.891   9.091
 1861POPC   GL227854  21.466   6.272   9.116
 1861POPC   C1A27855  21.493   5.671   8.698
 1861POPC   D2A27856  21.551   5.743   8.263
 1861POPC   C3A27857  21.405   5.529   7.928
 1861POPC   C4A27858  21.043   5.433   7.711
 1861POPC   C1B27859  21.492   6.192   8.679
 1861POPC   C2B27860  21.732   6.205   8.299
 1861POPC   C3B27861  21.646   6.084   7.866
 1861POPC   C4B27862  21.559   6.085   7.385
 1862POPC   NC327863  11.277  20.958   9.714
 1862POPC   PO427864  10.833  20.522   9.441
 1862POPC   GL127865  11.014  20.717   9.079
 1862POPC   GL227866  11.223  21.019   9.187
 1862POPC   C1A27867  11.250  20.537   8.715
 1862POPC   D2A27868  11.525  20.725   8.421
 1862POPC   C3A27869  11.375  20.630   8.040
 1862POPC   C4A27870  11.520  20.440   7.705
 1862POPC   C1B27871  11.254  21.065   8.722
 1862POPC   C2B27872  11.070  20.984   8.307
 1862POPC   C3B27873  11.034  20.956   7.839
 1862POPC   C4B27874  10.847  21.077   7.427
 1863POPC   NC327875  25.853  16.959   9.420
 1863POPC   PO427876  26.322  16.543   9.519
 1863POPC   GL127877  26.135  16.659   9.119
 1863POPC   GL227878  26.181  17.006   9.039
 1863POPC   C1A27879  26.178  16.626   8.674
 1863POPC   D2A27880  25.896  16.492   8.364
 1863POPC   C3A27881  26.026  16.621   7.969
 1863POPC   C4A27882  25.970  16.470   7.571
 1863POPC   C1B27883  25.815  16.973   8.768
 1863POPC   C2B27884  25.911  17.008   8.355
 1863POPC   C3B27885  25.711  17.027   7.972
 1863POPC   C4B27886  25.906  16.980   7.590
 1864POPC   NC327887  43.915   0.530   9.526
 1864POPC   PO427888  43.864  44.943   9.486
 1864POPC   GL127889  43.637   0.209   9.174
 1864POPC   GL227890  43.627   0.586   9.098
 1864POPC   C1A27891  43.611   0.170   8.736
 1864POPC   D2A27892  43.673   0.420   8.377
 1864POPC   C3A27893  43.720   0.124   8.022
 1864POPC   C4A27894  44.044  44.853   7.868
 1864POPC   C1B27895  43.848   0.813   8.756
 1864POPC   C2B27896  43.938   0.864   8.316
 1864POPC   C3B27897  43.956   0.575   7.981
 1864POPC   C4B27898  43.525   0.550   7.848
 1865POPC   NC327899  33.638  17.953   9.454
 1865POPC   PO427900  33.966  18.611   9.442
 1865POPC   GL127901  33.713  18.371   9.169
 1865POPC   GL227902  33.833  18.048   8.996
 1865POPC   C1A27903  33.481  18.377   8.801
 1865POPC   D2A27904  33.529  18.117   8.485
 1865POPC   C3A27905  33.817  18.191   8.167
 1865POPC   C4A27906  33.652  18.266   7.782
 1865POPC   C1B27907  33.998  18.330   8.680
 1865POPC   C2B27908  34.203  18.505   8.291
 1865POPC   C3B27909  34.171  18.406   7.856
 1865POPC   C4B27910  34.061  18.013   7.704
 1866POPC   NC327911  17.726   9.969   9.477
 1866POPC   PO427912  17.419   9.331   9.404
 1866POPC   GL127913  17.384   9.492   9.041
 1866POPC   GL227914  17.442   9.828   9.069
 1866POPC   C1A27915  17.604   9.450   8.704
 1866POPC   D2A27916  17.516   9.273   8.316
 1866POPC   C3A27917  17.365   9.563   8.081
 1866POPC   C4A27918  17.418   9.594   7.668
 1866POPC   C1B27919  17.285   9.885   8.663
 1866POPC   C2B27920  17.430  10.023   8.262
 1866POPC   C3B27921  17.197  10.026   7.865
 1866POPC   C4B27922  17.274  10.021   7.423
 1867POPC   NC327923  11.627  12.256   9.835
 1867POPC   PO427924  12.071  11.992   9.326
 1867POPC   GL127925  11.993  12.100   8.958
 1867POPC   GL227926  11.788  11.814   8.921
 1867POPC   C1A27927  12.145  12.201   8.585
 1867POPC   D2A27928  12.048  11.951   8.265
 1867POPC   C3A27929  12.234  12.077   7.927
 1867POPC   C4A27930  11.957  11.818   7.705
 1867POPC   C1B27931  11.633  12.074   8.596
 1867POPC   C2B27932  11.754  12.367   8.290
 1867POPC   C3B27933  11.792  12.300   7.861
 1867POPC   C4B27934  11.688  12.337   7.426
 1868POPC   NC327935  17.136  31.667   9.430
 1868POPC   PO427936  16.725  31.190   9.793
 1868POPC   GL127937  16.829  31.200   9.342
 1868POPC   GL227938  16.516  31.220   9.144
 1868POPC   C1A27939  16.965  31.215   8.894
 1868POPC   D2A27940  16.927  31.506   8.521
 1868POPC   C3A27941  16.998  31.475   8.076
 1868POPC   C4A27942  17.037  31.112   7.856
 1868POPC   C1B27943  16.583  31.582   8.884
 1868POPC   C2B27944  16.444  31.650   8.453
 1868POPC   C3B27945  16.487  31.461   8.055
 1868POPC   C4B27946  16.362  31.640   7.656
 1869POPC   NC327947  27.326  32.730   9.777
 1869POPC   PO427948  27.822  33.013   9.531
 1869POPC   GL127949  27.710  32.923   9.173
 1869POPC   GL227950  27.342  32.891   9.221
 1869POPC   C1A27951  27.880  32.997   8.782
 1869POPC   D2A27952  27.636  32.885   8.413
 1869POPC   C3A27953  27.729  33.064   8.009
 1869POPC   C4A27954  27.963  32.951   7.660
 1869POPC   C1B27955  27.373  33.139   8.818
 1869POPC   C2B27956  27.377  33.388   8.440
 1869POPC   C3B27957  27.257  33.328   8.022
 1869POPC   C4B27958  27.492  33.362   7.653
 1870POPC   NC327959  24.413  13.363   9.488
 1870POPC   PO427960  24.051  13.860   9.578
 1870POPC   GL127961  24.388  13.813   9.230
 1870POPC   GL227962  24.354  13.516   9.019
 1870POPC   C1A27963  24.628  13.885   8.800
 1870POPC   D2A27964  24.694  14.049   8.389
 1870POPC   C3A27965  24.586  13.748   8.070
 1870POPC   C4A27966  24.400  13.845   7.676
 1870POPC   C1B27967  24.682  13.361   8.805
 1870POPC   C2B27968  24.605  13.303   8.415
 1870POPC   C3B27969  24.748  13.278   8.039
 1870POPC   C4B27970  24.610  13.390   7.628
 1871POPC   NC327971  10.264  38.212   9.479
 1871POPC   PO427972  10.293  38.832   9.775
 1871POPC   GL127973  10.499  38.647   9.288
 1871POPC   GL227974  10.633  38.292   9.133
 1871POPC   C1A27975  10.456  38.627   8.804
 1871POPC   D2A27976  10.570  38.358   8.428
 1871POPC   C3A27977  10.690  38.621   8.065
 1871POPC   C4A27978  10.545  38.632   7.629
 1871POPC   C1B27979  10.297  38.113   8.810
 1871POPC   C2B27980  10.137  38.055   8.344
 1871POPC   C3B27981  10.330  38.232   7.951
 1871POPC   C4B27982  10.773  38.200   7.782
 1872POPC   NC327983  24.560  30.266   9.585
 1872POPC   PO427984  24.086  29.738   9.519
 1872POPC   GL127985  24.377  29.791   9.218
 1872POPC   GL227986  24.391  30.128   9.142
 1872POPC   C1A27987  24.415  29.732   8.786
 1872POPC   D2A27988  24.232  29.886   8.404
 1872POPC   C3A27989  24.496  29.822   8.060
 1872POPC   C4A27990  24.567  29.659   7.659
 1872POPC   C1B27991  24.616  30.213   8.765
 1872POPC   C2B27992  24.527  30.301   8.350
 1872POPC   C3B27993  24.670  30.281   7.946
 1872POPC   C4B27994  24.479  30.143   7.583
 1873POPC   NC327995   5.952  39.058   9.537
 1873POPC   PO427996   5.455  39.477   9.565
 1873POPC   GL127997   5.671  39.265   9.179
 1873POPC   GL227998   5.627  38.861   9.182
 1873POPC   C1A27999   6.004  39.207   8.875
 1873POPC   D2A28000   6.156  39.341   8.492
 1873POPC   C3A28001   6.243  39.116   8.148
 1873POPC   C4A28002   6.189  39.187   7.727
 1873POPC   C1B28003   5.814  38.731   8.788
 1873POPC   C2B28004   5.822  38.943   8.410
 1873POPC   C3B28005   5.756  39.055   7.998
 1873POPC   C4B28006   5.694  39.052   7.574
 1874POPC   NC328007  30.243  31.901   9.617
 1874POPC   PO428008  29.851  31.284   9.591
 1874POPC   GL128009  29.862  31.425   9.205
 1874POPC   GL228010  29.515  31.438   9.117
 1874POPC   C1A28011  29.904  31.702   8.882
 1874POPC   D2A28012  29.711  31.665   8.497
 1874POPC   C3A28013  29.884  31.769   8.106
 1874POPC   C4A28014  29.799  31.776   7.684
 1874POPC   C1B28015  29.688  31.188   8.749
 1874POPC   C2B28016  29.631  31.204   8.289
 1874POPC   C3B28017  29.789  31.298   7.905
 1874POPC   C4B28018  29.960  31.238   7.493
 1875POPC   NC328019  40.310  26.518   9.292
 1875POPC   PO428020  40.980  26.602   9.532
 1875POPC   GL128021  40.915  26.789   9.154
 1875POPC   GL228022  40.685  26.614   8.974
 1875POPC   C1A28023  41.093  26.867   8.761
 1875POPC   D2A28024  40.868  26.776   8.376
 1875POPC   C3A28025  41.082  26.732   7.970
 1875POPC   C4A28026  41.227  26.920   7.591
 1875POPC   C1B28027  40.479  26.483   8.607
 1875POPC   C2B28028  40.470  26.498   8.180
 1875POPC   C3B28029  40.670  26.423   7.830
 1875POPC   C4B28030  40.778  26.681   7.525
 1876POPC   NC328031   9.873  38.960   9.586
 1876POPC   PO428032   9.628  39.619   9.517
 1876POPC   GL128033   9.525  39.400   9.129
 1876POPC   GL228034   9.698  39.089   9.122
 1876POPC   C1A28035   9.413  39.234   8.717
 1876POPC   D2A28036   9.637  39.286   8.316
 1876POPC   C3A28037   9.395  39.183   7.930
 1876POPC   C4A28038   9.494  39.261   7.488
 1876POPC   C1B28039  10.001  38.953   8.801
 1876POPC   C2B28040  10.092  39.032   8.374
 1876POPC   C3B28041   9.883  38.939   7.996
 1876POPC   C4B28042  10.035  38.743   7.615
 1877POPC   NC328043  13.234   2.712   9.614
 1877POPC   PO428044  12.760   3.052   9.509
 1877POPC   GL128045  13.041   2.915   9.182
 1877POPC   GL228046  13.082   2.579   9.086
 1877POPC   C1A28047  13.108   3.013   8.771
 1877POPC   D2A28048  13.321   2.934   8.384
 1877POPC   C3A28049  13.063   2.740   8.093
 1877POPC   C4A28050  12.791   2.664   7.782
 1877POPC   C1B28051  12.989   2.552   8.604
 1877POPC   C2B28052  12.629   2.508   8.296
 1877POPC   C3B28053  12.567   2.246   7.940
 1877POPC   C4B28054  12.734   2.243   7.501
 1878POPC   NC328055   9.091  25.047   9.501
 1878POPC   PO428056   8.821  25.666   9.635
 1878POPC   GL128057   8.729  25.547   9.206
 1878POPC   GL228058   8.788  25.193   9.103
 1878POPC   C1A28059   8.909  25.569   8.769
 1878POPC   D2A28060   9.064  25.325   8.424
 1878POPC   C3A28061   8.861  25.381   8.026
 1878POPC   C4A28062   9.103  25.400   7.710
 1878POPC   C1B28063   8.738  24.986   8.687
 1878POPC   C2B28064   8.827  24.908   8.224
 1878POPC   C3B28065   8.827  24.955   7.750
 1878POPC   C4B28066   8.847  25.131   7.280
 1879POPC   NC328067  44.260  41.215   9.385
 1879POPC   PO428068  43.897  40.600   9.420
 1879POPC   GL128069  43.905  40.965   9.124
 1879POPC   GL228070  43.642  41.260   9.103
 1879POPC   C1A28071  44.052  40.815   8.747
 1879POPC   D2A28072  43.878  40.510   8.450
 1879POPC   C3A28073  43.852  40.658   8.002
 1879POPC   C4A28074  44.092  40.547   7.651
 1879POPC   C1B28075  43.577  40.999   8.738
 1879POPC   C2B28076  43.768  41.013   8.363
 1879POPC   C3B28077  43.578  41.117   8.009
 1879POPC   C4B28078  43.721  41.236   7.632
 1880POPC   NC328079  14.972  15.853   9.601
 1880POPC   PO428080  15.267  16.370   9.361
 1880POPC   GL128081  14.959  16.153   9.151
 1880POPC   GL228082  14.984  15.767   9.118
 1880POPC   C1A28083  14.943  16.055   8.731
 1880POPC   D2A28084  14.794  16.004   8.370
 1880POPC   C3A28085  15.031  16.312   8.193
 1880POPC   C4A28086  15.215  16.357   7.812
 1880POPC   C1B28087  14.802  15.559   8.740
 1880POPC   C2B28088  14.857  15.464   8.286
 1880POPC   C3B28089  14.972  15.727   7.932
 1880POPC   C4B28090  15.051  15.748   7.462
 1881POPC   NC328091  20.108  17.977   9.845
 1881POPC   PO428092  19.982  17.349   9.464
 1881POPC   GL128093  19.849  17.530   9.103
 1881POPC   GL228094  20.129  17.578   8.915
 1881POPC   C1A28095  19.608  17.484   8.744
 1881POPC   D2A28096  19.833  17.514   8.383
 1881POPC   C3A28097  19.775  17.351   7.965
 1881POPC   C4A28098  20.059  17.448   7.611
 1881POPC   C1B28099  19.859  17.923   8.764
 1881POPC   C2B28100  19.644  17.996   8.391
 1881POPC   C3B28101  19.808  17.865   8.006
 1881POPC   C4B28102  19.855  17.977   7.593
 1882POPC   NC328103  16.977  23.233   9.521
 1882POPC   PO428104  17.601  23.114   9.690
 1882POPC   GL128105  17.571  23.127   9.252
 1882POPC   GL228106  17.900  23.082   9.198
 1882POPC   C1A28107  17.303  23.141   8.841
 1882POPC   D2A28108  17.082  22.987   8.439
 1882POPC   C3A28109  17.302  23.047   8.022
 1882POPC   C4A28110  17.203  23.137   7.599
 1882POPC   C1B28111  17.774  22.878   8.823
 1882POPC   C2B28112  17.628  22.955   8.413
 1882POPC   C3B28113  17.767  22.802   8.006
 1882POPC   C4B28114  17.672  22.901   7.578
 1883POPC   NC328115  40.804  10.188   9.524
 1883POPC   PO428116  40.222  10.337   9.519
 1883POPC   GL128117  40.480  10.074   9.132
 1883POPC   GL228118  40.831   9.895   9.126
 1883POPC   C1A28119  40.523   9.688   8.801
 1883POPC   D2A28120  40.780   9.621   8.414
 1883POPC   C3A28121  40.603   9.643   7.988
 1883POPC   C4A28122  40.518   9.660   7.506
 1883POPC   C1B28123  40.833  10.096   8.735
 1883POPC   C2B28124  40.758  10.115   8.316
 1883POPC   C3B28125  41.081   9.896   8.080
 1883POPC   C4B28126  40.984   9.743   7.680
 1884POPC   NC328127  41.294  13.747   9.482
 1884POPC   PO428128  41.686  13.223   9.707
 1884POPC   GL128129  41.690  13.553   9.261
 1884POPC   GL228130  41.717  13.924   9.201
 1884POPC   C1A28131  41.491  13.516   8.830
 1884POPC   D2A28132  41.716  13.459   8.439
 1884POPC   C3A28133  41.471  13.426   8.078
 1884POPC   C4A28134  41.563  13.445   7.654
 1884POPC   C1B28135  41.473  14.036   8.817
 1884POPC   C2B28136  41.326  13.835   8.427
 1884POPC   C3B28137  41.475  14.005   8.040
 1884POPC   C4B28138  41.794  14.315   8.059
 1885POPC   NC328139  14.751  28.669   9.845
 1885POPC   PO428140  15.228  28.418   9.417
 1885POPC   GL128141  15.232  28.481   9.017
 1885POPC   GL228142  15.353  28.796   9.085
 1885POPC   C1A28143  15.022  28.215   8.735
 1885POPC   D2A28144  15.296  28.012   8.460
 1885POPC   C3A28145  15.409  28.222   8.081
 1885POPC   C4A28146  15.013  28.298   7.851
 1885POPC   C1B28147  15.596  28.772   8.743
 1885POPC   C2B28148  15.319  28.572   8.485
 1885POPC   C3B28149  15.173  28.694   8.113
 1885POPC   C4B28150  15.454  28.698   7.787
 1886POPC   NC328151  11.708  21.209   9.404
 1886POPC   PO428152  12.284  21.539   9.531
 1886POPC   GL128153  12.078  21.497   9.154
 1886POPC   GL228154  11.960  21.836   9.248
 1886POPC   C1A28155  12.145  21.217   8.768
 1886POPC   D2A28156  12.408  21.131   8.388
 1886POPC   C3A28157  12.139  21.231   8.041
 1886POPC   C4A28158  12.197  21.479   7.666
 1886POPC   C1B28159  11.918  21.815   8.798
 1886POPC   C2B28160  12.084  21.622   8.426
 1886POPC   C3B28161  11.933  21.712   8.008
 1886POPC   C4B28162  11.850  21.809   7.506
 1887POPC   NC328163  21.627  31.977   9.617
 1887POPC   PO428164  21.237  32.589   9.554
 1887POPC   GL128165  21.476  32.325   9.290
 1887POPC   GL228166  21.243  32.036   9.293
 1887POPC   C1A28167  21.740  32.357   8.883
 1887POPC   D2A28168  21.800  32.540   8.469
 1887POPC   C3A28169  21.656  32.294   8.093
 1887POPC   C4A28170  21.711  32.260   7.629
 1887POPC   C1B28171  21.271  32.140   8.890
 1887POPC   C2B28172  21.393  32.146   8.514
 1887POPC   C3B28173  21.129  31.983   8.244
 1887POPC   C4B28174  21.232  32.082   7.841
 1888POPC   NC328175  17.269  13.989   9.240
 1888POPC   PO428176  16.962  13.950   9.777
 1888POPC   GL128177  16.811  13.696   9.325
 1888POPC   GL228178  16.479  13.742   9.102
 1888POPC   C1A28179  16.884  13.653   8.825
 1888POPC   D2A28180  16.975  13.383   8.467
 1888POPC   C3A28181  16.850  13.518   8.047
 1888POPC   C4A28182  16.877  13.311   7.619
 1888POPC   C1B28183  16.430  13.683   8.598
 1888POPC   C2B28184  16.329  13.533   8.150
 1888POPC   C3B28185  16.371  13.429   7.688
 1888POPC   C4B28186  16.459  13.666   7.295
 1889POPC   NC328187  32.980   6.362   9.628
 1889POPC   PO428188  33.018   6.919   9.326
 1889POPC   GL128189  32.891   6.597   9.137
 1889POPC   GL228190  33.177   6.443   9.004
 1889POPC   C1A28191  32.741   6.603   8.729
 1889POPC   D2A28192  32.957   6.602   8.335
 1889POPC   C3A28193  32.762   6.728   7.974
 1889POPC   C4A28194  32.637   6.416   7.697
 1889POPC   C1B28195  33.212   6.845   8.721
 1889POPC   C2B28196  33.196   7.038   8.295
 1889POPC   C3B28197  33.265   6.785   7.917
 1889POPC   C4B28198  33.132   6.340   7.811
 1890POPC   NC328199  30.473   2.405   9.658
 1890POPC   PO428200  30.514   3.049   9.410
 1890POPC   GL128201  30.766   2.746   9.207
 1890POPC   GL228202  30.499   2.523   9.139
 1890POPC   C1A28203  30.870   2.736   8.762
 1890POPC   D2A28204  30.750   3.056   8.434
 1890POPC   C3A28205  30.707   2.882   8.035
 1890POPC   C4A28206  30.986   2.649   7.795
 1890POPC   C1B28207  30.411   2.364   8.730
 1890POPC   C2B28208  30.506   2.288   8.319
 1890POPC   C3B28209  30.517   2.433   7.911
 1890POPC   C4B28210  30.182   2.499   7.600
 1891POPC   NC328211   7.081   5.305   9.402
 1891POPC   PO428212   6.504   4.804   9.482
 1891POPC   GL128213   6.510   5.019   9.121
 1891POPC   GL228214   6.437   5.400   9.161
 1891POPC   C1A28215   6.712   5.186   8.757
 1891POPC   D2A28216   6.714   5.407   8.335
 1891POPC   C3A28217   6.849   5.160   8.022
 1891POPC   C4A28218   6.798   5.289   7.603
 1891POPC   C1B28219   6.194   5.237   8.795
 1891POPC   C2B28220   6.344   5.080   8.384
 1891POPC   C3B28221   6.363   5.279   7.957
 1891POPC   C4B28222   6.297   5.172   7.502
 1892POPC   NC328223  21.130  23.854   9.594
 1892POPC   PO428224  21.698  23.473   9.537
 1892POPC   GL128225  21.507  23.750   9.210
 1892POPC   GL228226  21.162  23.694   9.123
 1892POPC   C1A28227  21.474  23.813   8.744
 1892POPC   D2A28228  21.724  23.629   8.411
 1892POPC   C3A28229  21.514  23.482   8.038
 1892POPC   C4A28230  21.494  23.585   7.615
 1892POPC   C1B28231  20.957  23.914   8.776
 1892POPC   C2B28232  21.100  23.856   8.348
 1892POPC   C3B28233  21.257  23.959   7.947
 1892POPC   C4B28234  21.109  23.955   7.547
 1893POPC   NC328235  15.114  11.507   9.649
 1893POPC   PO428236  15.184  10.890   9.488
 1893POPC   GL128237  15.074  11.219   9.185
 1893POPC   GL228238  15.229  11.525   9.124
 1893POPC   C1A28239  15.245  11.192   8.738
 1893POPC   D2A28240  15.063  11.528   8.474
 1893POPC   C3A28241  14.979  11.430   8.060
 1893POPC   C4A28242  15.175  11.340   7.669
 1893POPC   C1B28243  15.498  11.628   8.756
 1893POPC   C2B28244  15.541  11.504   8.307
 1893POPC   C3B28245  15.400  11.706   7.904
 1893POPC   C4B28246  15.394  11.693   7.381
 1894POPC   NC328247  37.335  20.068   9.412
 1894POPC   PO428248  37.993  19.834   9.651
 1894POPC   GL128249  37.806  19.803   9.189
 1894POPC   GL228250  37.454  19.649   9.161
 1894POPC   C1A28251  37.743  19.679   8.739
 1894POPC   D2A28252  37.548  19.951   8.410
 1894POPC   C3A28253  37.792  19.998   8.045
 1894POPC   C4A28254  38.056  19.660   7.868
 1894POPC   C1B28255  37.206  19.698   8.756
 1894POPC   C2B28256  37.173  19.631   8.302
 1894POPC   C3B28257  37.319  19.835   7.911
 1894POPC   C4B28258  37.373  20.255   7.807
 1895POPC   NC328259  17.851  31.891   9.492
 1895POPC   PO428260  17.247  32.212   9.453
 1895POPC   GL128261  17.598  32.236   9.195
 1895POPC   GL228262  17.362  32.226   8.942
 1895POPC   C1A28263  17.833  32.295   8.811
 1895POPC   D2A28264  17.600  32.181   8.441
 1895POPC   C3A28265  17.741  32.321   8.051
 1895POPC   C4A28266  17.611  32.187   7.678
 1895POPC   C1B28267  17.210  31.890   8.723
 1895POPC   C2B28268  17.340  31.747   8.332
 1895POPC   C3B28269  17.271  31.963   7.967
 1895POPC   C4B28270  17.128  31.881   7.548
 1896POPC   NC328271  41.828  38.830   9.483
 1896POPC   PO428272  41.484  38.243   9.636
 1896POPC   GL128273  41.569  38.475   9.212
 1896POPC   GL228274  41.846  38.276   9.111
 1896POPC   C1A28275  41.349  38.680   8.829
 1896POPC   D2A28276  41.219  38.467   8.455
 1896POPC   C3A28277  41.396  38.506   8.047
 1896POPC   C4A28278  41.361  38.223   7.707
 1896POPC   C1B28279  41.746  38.397   8.687
 1896POPC   C2B28280  41.836  38.340   8.240
 1896POPC   C3B28281  41.832  38.481   7.776
 1896POPC   C4B28282  41.744  38.290   7.369
 1897POPC   NC328283  17.689  39.439   9.517
 1897POPC   PO428284  17.965  38.838   9.370
 1897POPC   GL128285  17.643  39.108   9.120
 1897POPC   GL228286  17.327  39.297   9.165
 1897POPC   C1A28287  17.593  39.302   8.717
 1897POPC   D2A28288  17.770  39.464   8.356
 1897POPC   C3A28289  17.702  39.218   7.987
 1897POPC   C4A28290  17.903  39.186   7.596
 1897POPC   C1B28291  17.136  39.555   8.850
 1897POPC   C2B28292  17.202  39.523   8.416
 1897POPC   C3B28293  17.220  39.617   7.986
 1897POPC   C4B28294  17.235  39.235   7.741
 1898POPC   NC328295  22.639  32.767   9.590
 1898POPC   PO428296  23.267  33.097   9.443
 1898POPC   GL128297  23.007  32.813   9.222
 1898POPC   GL228298  22.784  33.042   9.170
 1898POPC   C1A28299  23.025  32.714   8.776
 1898POPC   D2A28300  23.253  32.881   8.426
 1898POPC   C3A28301  23.288  32.633   8.046
 1898POPC   C4A28302  23.077  32.774   7.691
 1898POPC   C1B28303  22.551  32.920   8.816
 1898POPC   C2B28304  22.608  33.121   8.415
 1898POPC   C3B28305  22.772  33.070   7.993
 1898POPC   C4B28306  22.686  33.042   7.518
 1899POPC   NC328307  38.681  22.559   9.604
 1899POPC   PO428308  38.356  21.881   9.589
 1899POPC   GL128309  38.505  22.030   9.180
 1899POPC   GL228310  38.558  22.399   9.124
 1899POPC   C1A28311  38.353  22.047   8.744
 1899POPC   D2A28312  38.457  22.187   8.343
 1899POPC   C3A28313  38.438  21.914   8.012
 1899POPC   C4A28314  38.152  21.949   7.724
 1899POPC   C1B28315  38.487  22.574   8.692
 1899POPC   C2B28316  38.394  22.688   8.226
 1899POPC   C3B28317  38.307  22.482   7.796
 1899POPC   C4B28318  38.215  22.333   7.328
 1900POPC   NC328319  26.038  40.613   9.910
 1900POPC   PO428320  26.191  40.602   9.314
 1900POPC   GL128321  25.862  40.648   9.089
 1900POPC   GL228322  25.578  40.884   9.238
 1900POPC   C1A28323  26.069  40.532   8.672
 1900POPC   D2A28324  26.321  40.716   8.352
 1900POPC   C3A28325  26.292  40.671   7.923
 1900POPC   C4A28326  26.176  40.986   7.645
 1900POPC   C1B28327  25.540  40.929   8.795
 1900POPC   C2B28328  25.762  40.801   8.395
 1900POPC   C3B28329  25.780  40.725   7.940
 1900POPC   C4B28330  25.693  41.107   7.719
 1901POPC   NC328331  11.906  24.233   9.439
 1901POPC   PO428332  12.298  24.722   9.563
 1901POPC   GL128333  12.184  24.827   9.130
 1901POPC   GL228334  11.880  24.761   9.105
 1901POPC   C1A28335  12.081  24.812   8.654
 1901POPC   D2A28336  12.085  24.480   8.348
 1901POPC   C3A28337  12.157  24.548   7.912
 1901POPC   C4A28338  12.153  24.850   7.555
 1901POPC   C1B28339  11.740  24.468   8.802
 1901POPC   C2B28340  11.506  24.568   8.453
 1901POPC   C3B28341  11.593  24.662   8.026
 1901POPC   C4B28342  11.742  24.537   7.616
 1902POPC   NC328343  20.462  15.015   9.476
 1902POPC   PO428344  21.101  15.170   9.447
 1902POPC   GL128345  20.760  15.345   9.183
 1902POPC   GL228346  20.738  15.011   9.033
 1902POPC   C1A28347  20.357  15.345   8.908
 1902POPC   D2A28348  20.203  15.165   8.505
 1902POPC   C3A28349  20.436  15.179   8.093
 1902POPC   C4A28350  20.458  15.224   7.643
 1902POPC   C1B28351  20.728  15.163   8.598
 1902POPC   C2B28352  20.745  15.524   8.298
 1902POPC   C3B28353  20.865  15.463   7.877
 1902POPC   C4B28354  20.990  15.067   7.740
 1903POPC   NC328355   8.067  24.767   9.433
 1903POPC   PO428356   8.306  24.068   9.525
 1903POPC   GL128357   8.032  24.244   9.231
 1903POPC   GL228358   8.302  24.428   9.113
 1903POPC   C1A28359   7.889  24.330   8.815
 1903POPC   D2A28360   7.934  24.592   8.454
 1903POPC   C3A28361   7.962  24.427   8.035
 1903POPC   C4A28362   7.859  24.708   7.667
 1903POPC   C1B28363   8.377  24.576   8.736
 1903POPC   C2B28364   8.538  24.507   8.327
 1903POPC   C3B28365   8.446  24.596   7.878
 1903POPC   C4B28366   8.591  24.663   7.418
 1904POPC   NC328367  14.051   0.482   9.454
 1904POPC   PO428368  14.589   0.030   9.546
 1904POPC   GL128369  14.459   0.269   9.163
 1904POPC   GL228370  14.145   0.207   8.993
 1904POPC   C1A28371  14.602   0.388   8.730
 1904POPC   D2A28372  14.518   0.658   8.361
 1904POPC   C3A28373  14.423   0.429   7.978
 1904POPC   C4A28374  14.565   0.336   7.535
 1904POPC   C1B28375  14.155   0.650   8.805
 1904POPC   C2B28376  14.073   0.908   8.411
 1904POPC   C3B28377  14.008   0.752   7.968
 1904POPC   C4B28378  14.089   0.515   7.584
 1905POPC   NC328379   3.547  30.536   9.894
 1905POPC   PO428380   3.518  30.926   9.355
 1905POPC   GL128381   3.504  30.815   8.949
 1905POPC   GL228382   3.767  30.586   8.999
 1905POPC   C1A28383   3.371  30.981   8.534
 1905POPC   D2A28384   3.484  31.098   8.134
 1905POPC   C3A28385   3.214  30.950   7.853
 1905POPC   C4A28386   3.166  30.649   7.510
 1905POPC   C1B28387   3.822  30.718   8.558
 1905POPC   C2B28388   3.607  30.612   8.158
 1905POPC   C3B28389   3.681  30.744   7.720
 1905POPC   C4B28390   4.024  30.646   7.406
 1906POPC   NC328391  40.494  16.086   9.522
 1906POPC   PO428392  41.045  15.734   9.296
 1906POPC   GL128393  40.870  16.107   9.123
 1906POPC   GL228394  40.514  16.074   9.017
 1906POPC   C1A28395  40.903  16.241   8.721
 1906POPC   D2A28396  40.587  16.213   8.426
 1906POPC   C3A28397  40.804  16.027   8.064
 1906POPC   C4A28398  40.808  16.089   7.613
 1906POPC   C1B28399  40.323  15.767   8.754
 1906POPC   C2B28400  40.477  15.664   8.299
 1906POPC   C3B28401  40.398  15.801   7.859
 1906POPC   C4B28402  40.484  15.757   7.424
 1907POPC   NC328403  21.774  24.619   9.561
 1907POPC   PO428404  22.318  24.254   9.457
 1907POPC   GL128405  21.977  24.401   9.136
 1907POPC   GL228406  21.893  24.788   9.108
 1907POPC   C1A28407  21.979  24.514   8.684
 1907POPC   D2A28408  22.260  24.451   8.341
 1907POPC   C3A28409  22.070  24.624   7.967
 1907POPC   C4A28410  22.237  24.473   7.560
 1907POPC   C1B28411  22.158  24.985   8.799
 1907POPC   C2B28412  22.380  24.954   8.391
 1907POPC   C3B28413  22.506  24.900   7.968
 1907POPC   C4B28414  22.241  24.978   7.617
 1908POPC   NC328415   8.707  10.977   9.616
 1908POPC   PO428416   9.050  10.361   9.530
 1908POPC   GL128417   9.060  10.549   9.140
 1908POPC   GL228418   8.753  10.431   9.073
 1908POPC   C1A28419   9.220  10.374   8.755
 1908POPC   D2A28420   9.088  10.179   8.370
 1908POPC   C3A28421   8.918  10.261   7.946
 1908POPC   C4A28422   9.075  10.456   7.558
 1908POPC   C1B28423   8.681  10.304   8.678
 1908POPC   C2B28424   8.663  10.547   8.314
 1908POPC   C3B28425   8.523  10.573   7.924
 1908POPC   C4B28426   8.575  10.459   7.523
 1909POPC   NC328427   4.688  18.400   9.572
 1909POPC   PO428428   4.259  17.927   9.671
 1909POPC   GL128429   4.123  18.154   9.237
 1909POPC   GL228430   4.394  18.367   9.154
 1909POPC   C1A28431   4.069  18.293   8.773
 1909POPC   D2A28432   4.117  18.516   8.368
 1909POPC   C3A28433   4.269  18.335   7.959
 1909POPC   C4A28434   4.231  18.085   7.577
 1909POPC   C1B28435   4.509  18.586   8.757
 1909POPC   C2B28436   4.624  18.456   8.325
 1909POPC   C3B28437   4.666  18.632   7.898
 1909POPC   C4B28438   4.527  18.506   7.461
 1910POPC   NC328439  14.267   6.872  10.008
 1910POPC   PO428440  14.626   6.380   9.597
 1910POPC   GL128441  14.386   6.562   9.229
 1910POPC   GL228442  14.465   6.908   9.193
 1910POPC   C1A28443  14.245   6.661   8.797
 1910POPC   D2A28444  14.451   6.590   8.418
 1910POPC   C3A28445  14.158   6.594   8.069
 1910POPC   C4A28446  14.118   6.659   7.656
 1910POPC   C1B28447  14.712   6.875   8.792
 1910POPC   C2B28448  14.714   7.036   8.358
 1910POPC   C3B28449  14.651   6.787   7.961
 1910POPC   C4B28450  14.615   6.765   7.498
 1911POPC   NC328451   8.435  21.758   9.317
 1911POPC   PO428452   8.364  21.161   9.729
 1911POPC   GL128453   8.081  21.379   9.353
 1911POPC   GL228454   7.865  21.165   9.195
 1911POPC   C1A28455   8.135  21.463   8.840
 1911POPC   D2A28456   8.332  21.253   8.459
 1911POPC   C3A28457   8.398  21.515   8.081
 1911POPC   C4A28458   8.342  21.586   7.624
 1911POPC   C1B28459   7.944  20.991   8.775
 1911POPC   C2B28460   7.946  20.902   8.348
 1911POPC   C3B28461   8.152  21.073   7.989
 1911POPC   C4B28462   8.510  21.144   7.726
 1912POPC   NC328463  41.035  16.093   9.598
 1912POPC   PO428464  41.723  15.867   9.679
 1912POPC   GL128465  41.540  15.974   9.262
 1912POPC   GL228466  41.845  15.745   9.179
 1912POPC   C1A28467  41.412  16.167   8.825
 1912POPC   D2A28468  41.662  16.173   8.430
 1912POPC   C3A28469  41.498  16.175   8.023
 1912POPC   C4A28470  41.263  15.926   7.726
 1912POPC   C1B28471  41.644  15.731   8.795
 1912POPC   C2B28472  41.361  15.776   8.457
 1912POPC   C3B28473  41.495  15.656   8.065
 1912POPC   C4B28474  41.783  15.744   7.735
 1913POPC   NC328475  17.306  20.290   9.539
 1913POPC   PO428476  17.886  20.685   9.558
 1913POPC   GL128477  17.599  20.610   9.237
 1913POPC   GL228478  17.395  20.898   9.264
 1913POPC   C1A28479  17.532  20.365   8.829
 1913POPC   D2A28480  17.733  20.400   8.412
 1913POPC   C3A28481  17.557  20.638   8.078
 1913POPC   C4A28482  17.176  20.490   7.889
 1913POPC   C1B28483  17.553  20.878   8.809
 1913POPC   C2B28484  17.265  20.730   8.485
 1913POPC   C3B28485  17.116  20.933   8.107
 1913POPC   C4B28486  17.433  21.043   7.785
 1914POPC   NC328487  32.510  33.042   9.438
 1914POPC   PO428488  33.175  32.735   9.509
 1914POPC   GL128489  33.291  32.979   9.163
 1914POPC   GL228490  32.995  33.174   9.233
 1914POPC   C1A28491  33.282  33.061   8.741
 1914POPC   D2A28492  33.331  32.954   8.316
 1914POPC   C3A28493  33.005  32.725   8.090
 1914POPC   C4A28494  32.813  32.891   7.721
 1914POPC   C1B28495  32.796  33.181   8.845
 1914POPC   C2B28496  32.940  33.286   8.442
 1914POPC   C3B28497  32.963  33.238   8.048
 1914POPC   C4B28498  32.609  33.360   7.799
 1915POPC   NC328499  23.156  31.929   9.500
 1915POPC   PO428500  22.937  31.330   9.448
 1915POPC   GL128501  22.892  31.466   9.071
 1915POPC   GL228502  22.871  31.846   9.090
 1915POPC   C1A28503  22.924  31.224   8.686
 1915POPC   D2A28504  22.801  31.346   8.277
 1915POPC   C3A28505  23.049  31.261   7.939
 1915POPC   C4A28506  23.268  31.575   7.744
 1915POPC   C1B28507  22.821  31.738   8.661
 1915POPC   C2B28508  22.672  31.846   8.305
 1915POPC   C3B28509  22.834  31.738   7.949
 1915POPC   C4B28510  22.746  31.821   7.579
 1916POPC   NC328511  14.605  40.047   9.940
 1916POPC   PO428512  14.508  39.560   9.498
 1916POPC   GL128513  14.363  39.840   9.131
 1916POPC   GL228514  14.627  40.071   8.995
 1916POPC   C1A28515  14.017  39.945   8.805
 1916POPC   D2A28516  14.043  39.933   8.332
 1916POPC   C3A28517  14.410  39.741   8.135
 1916POPC   C4A28518  14.489  39.671   7.703
 1916POPC   C1B28519  14.467  40.069   8.588
 1916POPC   C2B28520  14.432  40.240   8.155
 1916POPC   C3B28521  14.442  40.219   7.723
 1916POPC   C4B28522  14.689  40.126   7.362
 1917POPC   NC328523   4.133  23.868   9.533
 1917POPC   PO428524   4.316  24.456   9.782
 1917POPC   GL128525   4.282  24.256   9.239
 1917POPC   GL228526   4.065  23.992   9.046
 1917POPC   C1A28527   4.446  24.282   8.764
 1917POPC   D2A28528   4.307  24.313   8.293
 1917POPC   C3A28529   4.486  24.516   7.913
 1917POPC   C4A28530   4.730  24.600   7.533
 1917POPC   C1B28531   4.044  23.968   8.587
 1917POPC   C2B28532   3.903  24.043   8.160
 1917POPC   C3B28533   3.983  24.338   7.806
 1917POPC   C4B28534   3.844  24.246   7.348
 1918POPC   NC328535   7.224  25.259   9.435
 1918POPC   PO428536   7.935  25.211   9.546
 1918POPC   GL128537   7.708  25.151   9.174
 1918POPC   GL228538   7.592  25.517   9.158
 1918POPC   C1A28539   7.420  25.116   8.787
 1918POPC   D2A28540   7.368  25.393   8.394
 1918POPC   C3A28541   7.304  25.247   7.940
 1918POPC   C4A28542   7.310  25.282   7.473
 1918POPC   C1B28543   7.800  25.455   8.767
 1918POPC   C2B28544   8.004  25.386   8.423
 1918POPC   C3B28545   7.790  25.368   8.070
 1918POPC   C4B28546   7.797  25.222   7.669
 1919POPC   NC328547  31.932   6.498   9.400
 1919POPC   PO428548  32.540   6.480   9.529
 1919POPC   GL128549  32.401   6.505   9.118
 1919POPC   GL228550  32.253   6.771   9.121
 1919POPC   C1A28551  32.263   6.417   8.693
 1919POPC   D2A28552  31.981   6.437   8.332
 1919POPC   C3A28553  32.213   6.529   7.955
 1919POPC   C4A28554  32.186   6.500   7.495
 1919POPC   C1B28555  32.309   6.913   8.737
 1919POPC   C2B28556  32.413   6.807   8.344
 1919POPC   C3B28557  32.315   7.016   7.956
 1919POPC   C4B28558  32.513   6.941   7.581
 1920POPC   NC328559  18.826   3.759   9.520
 1920POPC   PO428560  19.333   3.387   9.508
 1920POPC   GL128561  19.109   3.549   9.119
 1920POPC   GL228562  18.939   3.876   9.037
 1920POPC   C1A28563  19.070   3.320   8.731
 1920POPC   D2A28564  18.889   3.329   8.333
 1920POPC   C3A28565  19.059   3.302   7.941
 1920POPC   C4A28566  18.756   3.561   7.796
 1920POPC   C1B28567  19.045   3.810   8.609
 1920POPC   C2B28568  19.097   3.790   8.151
 1920POPC   C3B28569  19.076   3.968   7.761
 1920POPC   C4B28570  19.335   4.024   7.381
 1921POPC   NC328571  32.360  34.879   9.752
 1921POPC   PO428572  31.898  34.607   9.746
 1921POPC   GL128573  32.211  34.612   9.331
 1921POPC   GL228574  32.491  34.865   9.258
 1921POPC   C1A28575  32.320  34.568   8.833
 1921POPC   D2A28576  32.135  34.475   8.374
 1921POPC   C3A28577  32.285  34.396   7.922
 1921POPC   C4A28578  32.021  34.327   7.534
 1921POPC   C1B28579  32.286  35.072   8.890
 1921POPC   C2B28580  32.247  34.979   8.435
 1921POPC   C3B28581  32.132  34.890   7.978
 1921POPC   C4B28582  32.292  34.777   7.547
 1922POPC   NC328583  38.845  16.149   9.512
 1922POPC   PO428584  39.481  15.917   9.377
 1922POPC   GL128585  39.223  16.149   9.134
 1922POPC   GL228586  38.947  15.934   9.072
 1922POPC   C1A28587  39.308  16.089   8.712
 1922POPC   D2A28588  39.563  16.163   8.357
 1922POPC   C3A28589  39.505  15.824   8.085
 1922POPC   C4A28590  39.431  15.934   7.646
 1922POPC   C1B28591  38.754  15.954   8.676
 1922POPC   C2B28592  38.994  15.874   8.325
 1922POPC   C3B28593  39.055  16.067   7.964
 1922POPC   C4B28594  38.881  16.043   7.579
 1923POPC   NC328595   5.613  26.678   9.571
 1923POPC   PO428596   6.086  27.072   9.587
 1923POPC   GL128597   5.882  27.006   9.216
 1923POPC   GL228598   5.897  26.651   9.114
 1923POPC   C1A28599   5.830  27.034   8.777
 1923POPC   D2A28600   5.821  27.341   8.401
 1923POPC   C3A28601   5.852  27.181   7.958
 1923POPC   C4A28602   5.935  26.781   7.767
 1923POPC   C1B28603   5.879  26.511   8.667
 1923POPC   C2B28604   5.795  26.487   8.210
 1923POPC   C3B28605   5.667  26.359   7.790
 1923POPC   C4B28606   5.735  26.383   7.330
 1924POPC   NC328607  18.649   5.764   9.819
 1924POPC   PO428608  19.248   5.990   9.575
 1924POPC   GL128609  19.013   5.958   9.110
 1924POPC   GL228610  18.978   5.595   8.948
 1924POPC   C1A28611  18.936   6.009   8.661
 1924POPC   D2A28612  19.217   5.787   8.415
 1924POPC   C3A28613  19.232   5.986   8.038
 1924POPC   C4A28614  18.886   5.957   7.737
 1924POPC   C1B28615  18.689   5.590   8.634
 1924POPC   C2B28616  18.738   5.763   8.232
 1924POPC   C3B28617  18.745   5.478   7.948
 1924POPC   C4B28618  18.954   5.267   7.687
 1925POPC   NC328619  40.160  33.406   9.558
 1925POPC   PO428620  39.900  34.023   9.578
 1925POPC   GL128621  39.961  33.760   9.238
 1925POPC   GL228622  40.328  33.733   9.214
 1925POPC   C1A28623  39.932  33.760   8.812
 1925POPC   D2A28624  39.734  33.733   8.399
 1925POPC   C3A28625  39.977  33.868   8.039
 1925POPC   C4A28626  39.869  33.845   7.629
 1925POPC   C1B28627  40.384  33.522   8.824
 1925POPC   C2B28628  40.236  33.585   8.396
 1925POPC   C3B28629  40.449  33.565   7.987
 1925POPC   C4B28630  40.485  33.282   7.605
 1926POPC   NC328631  18.017  27.952   9.503
 1926POPC   PO428632  18.471  28.542   9.412
 1926POPC   GL128633  18.220  28.541   9.076
 1926POPC   GL228634  18.064  28.232   9.084
 1926POPC   C1A28635  18.229  28.510   8.640
 1926POPC   D2A28636  18.492  28.566   8.325
 1926POPC   C3A28637  18.391  28.342   7.981
 1926POPC   C4A28638  18.008  28.449   7.781
 1926POPC   C1B28639  18.295  28.019   8.761
 1926POPC   C2B28640  18.214  28.000   8.325
 1926POPC   C3B28641  18.047  27.941   7.917
 1926POPC   C4B28642  18.262  28.026   7.549
 1927POPC   NC328643  10.276  23.397   9.398
 1927POPC   PO428644  10.772  23.886   9.509
 1927POPC   GL128645  10.535  23.808   9.161
 1927POPC   GL228646  10.691  23.516   9.105
 1927POPC   C1A28647  10.355  24.112   8.825
 1927POPC   D2A28648  10.114  24.033   8.423
 1927POPC   C3A28649  10.311  23.862   8.035
 1927POPC   C4A28650  10.617  23.976   7.713
 1927POPC   C1B28651  10.788  23.380   8.693
 1927POPC   C2B28652  10.647  23.483   8.271
 1927POPC   C3B28653  10.694  23.478   7.823
 1927POPC   C4B28654  10.749  23.392   7.367
 1928POPC   NC328655  24.622   8.883   9.294
 1928POPC   PO428656  24.213   9.362   9.432
 1928POPC   GL128657  24.298   9.146   9.035
 1928POPC   GL228658  24.573   9.136   8.854
 1928POPC   C1A28659  24.111   8.801   8.788
 1928POPC   D2A28660  24.098   8.582   8.389
 1928POPC   C3A28661  24.224   8.698   7.977
 1928POPC   C4A28662  24.560   8.838   7.706
 1928POPC   C1B28663  24.574   8.761   8.632
 1928POPC   C2B28664  24.653   8.781   8.241
 1928POPC   C3B28665  24.892   9.065   8.020
 1928POPC   C4B28666  25.061   9.479   7.830
 1929POPC   NC328667  43.138   8.817   9.468
 1929POPC   PO428668  43.162   9.462   9.521
 1929POPC   GL128669  43.041   9.283   9.112
 1929POPC   GL228670  43.387   9.112   9.056
 1929POPC   C1A28671  43.121   9.231   8.638
 1929POPC   D2A28672  43.340   8.865   8.432
 1929POPC   C3A28673  43.202   8.781   7.999
 1929POPC   C4A28674  42.906   8.951   7.686
 1929POPC   C1B28675  43.645   9.242   8.656
 1929POPC   C2B28676  43.594   9.222   8.185
 1929POPC   C3B28677  43.299   9.264   7.870
 1929POPC   C4B28678  43.425   9.314   7.446
 1930POPC   NC328679  27.120   9.805   9.485
 1930POPC   PO428680  27.835   9.636   9.410
 1930POPC   GL128681  27.726   9.856   9.077
 1930POPC   GL228682  27.485  10.030   9.216
 1930POPC   C1A28683  27.507   9.725   8.719
 1930POPC   D2A28684  27.377   9.714   8.301
 1930POPC   C3A28685  27.649   9.448   8.046
 1930POPC   C4A28686  27.540   9.332   7.601
 1930POPC   C1B28687  27.386  10.210   8.827
 1930POPC   C2B28688  27.296  10.281   8.392
 1930POPC   C3B28689  27.353  10.151   8.006
 1930POPC   C4B28690  27.433   9.814   7.774
 1931POPC   NC328691   2.534  11.702   9.373
 1931POPC   PO428692   2.727  12.201   9.769
 1931POPC   GL128693   2.880  12.232   9.344
 1931POPC   GL228694   3.001  11.898   9.222
 1931POPC   C1A28695   2.787  12.231   8.896
 1931POPC   D2A28696   3.025  12.134   8.502
 1931POPC   C3A28697   2.994  12.346   8.099
 1931POPC   C4A28698   2.927  12.176   7.687
 1931POPC   C1B28699   2.866  11.734   8.812
 1931POPC   C2B28700   2.597  11.858   8.462
 1931POPC   C3B28701   2.691  11.870   8.047
 1931POPC   C4B28702   2.459  11.967   7.687
 1932POPC   NC328703  18.654   9.528   9.370
 1932POPC   PO428704  18.175   9.976   9.519
 1932POPC   GL128705  18.242   9.758   9.181
 1932POPC   GL228706  17.911   9.623   9.131
 1932POPC   C1A28707  18.512   9.842   8.808
 1932POPC   D2A28708  18.342   9.830   8.404
 1932POPC   C3A28709  18.530   9.740   8.000
 1932POPC   C4A28710  18.553  10.072   7.734
 1932POPC   C1B28711  18.128   9.477   8.766
 1932POPC   C2B28712  17.977   9.482   8.365
 1932POPC   C3B28713  17.847   9.704   8.023
 1932POPC   C4B28714  18.097   9.820   7.702
 1933POPC   NC328715  19.247  10.325   9.482
 1933POPC   PO428716  18.738  10.700   9.711
 1933POPC   GL128717  18.832  10.488   9.232
 1933POPC   GL228718  19.135  10.575   9.057
 1933POPC   C1A28719  18.820  10.291   8.780
 1933POPC   D2A28720  18.917  10.572   8.398
 1933POPC   C3A28721  19.009  10.602   7.917
 1933POPC   C4A28722  18.723  10.513   7.539
 1933POPC   C1B28723  19.362  10.807   8.757
 1933POPC   C2B28724  19.421  10.693   8.333
 1933POPC   C3B28725  19.501  10.913   7.986
 1933POPC   C4B28726  19.518  10.815   7.555
 1934POPC   NC328727  20.007  39.080   9.658
 1934POPC   PO428728  19.522  39.419   9.509
 1934POPC   GL128729  19.871  39.323   9.212
 1934POPC   GL228730  19.980  38.986   9.161
 1934POPC   C1A28731  19.867  39.271   8.759
 1934POPC   D2A28732  20.033  39.146   8.349
 1934POPC   C3A28733  19.816  39.290   7.964
 1934POPC   C4A28734  19.780  39.310   7.483
 1934POPC   C1B28735  20.113  38.795   8.769
 1934POPC   C2B28736  20.035  38.633   8.347
 1934POPC   C3B28737  19.927  38.795   7.934
 1934POPC   C4B28738  19.957  38.836   7.461
 1935POPC   NC328739  38.828  13.646   9.551
 1935POPC   PO428740  38.185  13.895   9.573
 1935POPC   GL128741  38.404  13.630   9.232
 1935POPC   GL228742  38.724  13.792   9.086
 1935POPC   C1A28743  38.491  13.342   8.862
 1935POPC   D2A28744  38.427  13.253   8.405
 1935POPC   C3A28745  38.420  13.417   8.000
 1935POPC   C4A28746  38.790  13.481   7.759
 1935POPC   C1B28747  38.652  13.783   8.664
 1935POPC   C2B28748  38.680  14.011   8.309
 1935POPC   C3B28749  38.397  14.131   8.051
 1935POPC   C4B28750  38.430  13.857   7.734
 1936POPC   NC328751  29.187   7.829   9.485
 1936POPC   PO428752  29.107   8.534   9.488
 1936POPC   GL128753  29.231   8.313   9.149
 1936POPC   GL228754  28.929   8.306   8.951
 1936POPC   C1A28755  29.444   8.345   8.748
 1936POPC   D2A28756  29.474   8.125   8.354
 1936POPC   C3A28757  29.267   8.214   7.999
 1936POPC   C4A28758  28.971   8.201   7.705
 1936POPC   C1B28759  29.000   8.134   8.555
 1936POPC   C2B28760  28.802   8.042   8.194
 1936POPC   C3B28761  28.950   7.750   7.909
 1936POPC   C4B28762  28.857   7.728   7.463
 1937POPC   NC328763  43.856   8.310   9.606
 1937POPC   PO428764  43.589   7.705   9.332
 1937POPC   GL128765  43.926   7.984   9.172
 1937POPC   GL228766  43.933   8.355   9.088
 1937POPC   C1A28767  44.065   8.029   8.725
 1937POPC   D2A28768  43.966   8.311   8.380
 1937POPC   C3A28769  43.821   8.121   7.994
 1937POPC   C4A28770  43.623   7.773   7.754
 1937POPC   C1B28771  44.228   8.547   8.760
 1937POPC   C2B28772  44.452   8.493   8.347
 1937POPC   C3B28773  44.272   8.356   7.967
 1937POPC   C4B28774  44.407   8.271   7.583
 1938POPC   NC328775  44.132  31.976   9.482
 1938POPC   PO428776  43.695  32.434   9.645
 1938POPC   GL128777  43.852  32.389   9.223
 1938POPC   GL228778  44.082  32.629   9.047
 1938POPC   C1A28779  43.976  32.178   8.877
 1938POPC   D2A28780  44.048  32.289   8.454
 1938POPC   C3A28781  43.974  31.993   8.165
 1938POPC   C4A28782  44.048  32.088   7.749
 1938POPC   C1B28783  43.759  32.628   8.719
 1938POPC   C2B28784  43.645  32.582   8.315
 1938POPC   C3B28785  43.941  32.600   8.000
 1938POPC   C4B28786  43.783  32.616   7.596
 1939POPC   NC328787  38.140  10.666   9.468
 1939POPC   PO428788  38.663  10.307   9.371
 1939POPC   GL128789  38.461  10.546   9.081
 1939POPC   GL228790  38.164  10.399   9.025
 1939POPC   C1A28791  38.428  10.711   8.679
 1939POPC   D2A28792  38.694  10.701   8.309
 1939POPC   C3A28793  38.466  10.789   7.992
 1939POPC   C4A28794  38.454  10.646   7.610
 1939POPC   C1B28795  37.952  10.493   8.655
 1939POPC   C2B28796  38.147  10.485   8.287
 1939POPC   C3B28797  38.271  10.293   7.952
 1939POPC   C4B28798  38.071  10.302   7.558
 1940POPC   NC328799   9.837  24.844   9.638
 1940POPC   PO428800   9.895  24.212   9.405
 1940POPC   GL128801   9.713  24.526   9.152
 1940POPC   GL228802   9.420  24.373   8.977
 1940POPC   C1A28803   9.722  24.788   8.779
 1940POPC   D2A28804  10.026  24.858   8.422
 1940POPC   C3A28805   9.895  24.754   7.989
 1940POPC   C4A28806  10.000  24.886   7.571
 1940POPC   C1B28807   9.752  24.286   8.705
 1940POPC   C2B28808   9.636  24.509   8.354
 1940POPC   C3B28809   9.433  24.457   7.982
 1940POPC   C4B28810   9.573  24.598   7.615
 1941POPC   NC328811  17.908   9.188   9.405
 1941POPC   PO428812  17.383   8.875   9.720
 1941POPC   GL128813  17.532   8.846   9.247
 1941POPC   GL228814  17.889   8.737   9.154
 1941POPC   C1A28815  17.445   8.676   8.824
 1941POPC   D2A28816  17.277   8.860   8.458
 1941POPC   C3A28817  17.461   8.759   8.058
 1941POPC   C4A28818  17.470   8.744   7.606
 1941POPC   C1B28819  17.845   8.971   8.718
 1941POPC   C2B28820  17.924   8.984   8.241
 1941POPC   C3B28821  17.730   9.189   7.843
 1941POPC   C4B28822  17.580   9.214   7.368
 1942POPC   NC328823  26.664  16.269   9.403
 1942POPC   PO428824  26.638  15.595   9.539
 1942POPC   GL128825  26.898  15.837   9.246
 1942POPC   GL228826  26.910  15.564   9.051
 1942POPC   C1A28827  26.920  16.095   8.813
 1942POPC   D2A28828  26.667  16.273   8.440
 1942POPC   C3A28829  26.761  16.158   7.989
 1942POPC   C4A28830  27.148  16.130   7.750
 1942POPC   C1B28831  26.612  15.683   8.743
 1942POPC   C2B28832  26.728  15.744   8.317
 1942POPC   C3B28833  26.885  15.648   7.905
 1942POPC   C4B28834  26.691  15.456   7.573
 1943POPC   NC328835  14.735  38.208   9.383
 1943POPC   PO428836  15.328  38.491   9.593
 1943POPC   GL128837  15.337  38.433   9.156
 1943POPC   GL228838  15.166  38.744   9.016
 1943POPC   C1A28839  15.218  38.320   8.738
 1943POPC   D2A28840  15.120  38.654   8.477
 1943POPC   C3A28841  14.907  38.524   8.122
 1943POPC   C4A28842  15.121  38.443   7.745
 1943POPC   C1B28843  14.868  39.007   8.751
 1943POPC   C2B28844  14.592  38.888   8.415
 1943POPC   C3B28845  14.544  38.860   7.970
 1943POPC   C4B28846  14.675  38.605   7.627
 1944POPC   NC328847   3.819  40.140   9.391
 1944POPC   PO428848   3.172  39.866   9.604
 1944POPC   GL128849   3.320  39.856   9.152
 1944POPC   GL228850   3.661  39.885   8.966
 1944POPC   C1A28851   3.240  39.896   8.688
 1944POPC   D2A28852   3.310  40.220   8.346
 1944POPC   C3A28853   3.317  40.080   7.925
 1944POPC   C4A28854   3.713  39.884   7.863
 1944POPC   C1B28855   4.024  40.024   8.697
 1944POPC   C2B28856   4.305  40.093   8.339
 1944POPC   C3B28857   4.063  40.284   8.013
 1944POPC   C4B28858   3.651  40.461   7.916
 1945POPC   NC328859  23.433  32.581   9.385
 1945POPC   PO428860  22.833  32.287   9.570
 1945POPC   GL128861  22.753  32.365   9.155
 1945POPC   GL228862  23.115  32.308   9.062
 1945POPC   C1A28863  22.751  32.243   8.713
 1945POPC   D2A28864  22.982  32.267   8.330
 1945POPC   C3A28865  22.727  32.247   7.955
 1945POPC   C4A28866  22.872  32.325   7.543
 1945POPC   C1B28867  23.254  31.999   8.719
 1945POPC   C2B28868  23.225  31.798   8.279
 1945POPC   C3B28869  23.230  32.068   7.869
 1945POPC   C4B28870  23.197  31.966   7.404
 1946POPC   NC328871  36.393  14.166   9.432
 1946POPC   PO428872  35.743  14.349   9.477
 1946POPC   GL128873  36.057  14.469   9.158
 1946POPC   GL228874  36.090  14.156   9.025
 1946POPC   C1A28875  36.330  14.525   8.780
 1946POPC   D2A28876  36.189  14.270   8.427
 1946POPC   C3A28877  36.247  14.332   7.973
 1946POPC   C4A28878  36.135  14.654   7.663
 1946POPC   C1B28879  35.878  13.925   8.701
 1946POPC   C2B28880  35.899  13.865   8.262
 1946POPC   C3B28881  35.769  13.968   7.859
 1946POPC   C4B28882  35.759  13.656   7.534
 1947POPC   NC328883  18.537  11.024   9.403
 1947POPC   PO428884  18.106  11.463   9.641
 1947POPC   GL128885  18.133  11.483   9.188
 1947POPC   GL228886  17.788  11.493   9.101
 1947POPC   C1A28887  18.228  11.246   8.780
 1947POPC   D2A28888  18.233  11.038   8.357
 1947POPC   C3A28889  18.315  11.290   8.006
 1947POPC   C4A28890  18.686  11.157   7.816
 1947POPC   C1B28891  17.860  11.642   8.722
 1947POPC   C2B28892  18.073  11.562   8.364
 1947POPC   C3B28893  17.884  11.608   7.972
 1947POPC   C4B28894  17.935  11.603   7.527
 1948POPC   NC328895  41.526  17.037   9.215
 1948POPC   PO428896  41.099  17.388   9.614
 1948POPC   GL128897  41.307  17.609   9.170
 1948POPC   GL228898  41.644  17.531   9.048
 1948POPC   C1A28899  41.254  17.588   8.670
 1948POPC   D2A28900  41.177  17.240   8.314
 1948POPC   C3A28901  41.443  17.243   7.914
 1948POPC   C4A28902  41.281  17.379   7.502
 1948POPC   C1B28903  42.022  17.483   8.774
 1948POPC   C2B28904  42.047  17.347   8.305
 1948POPC   C3B28905  41.960  17.497   7.862
 1948POPC   C4B28906  42.208  17.474   7.457
 1949POPC   NC328907  35.388  27.968   9.333
 1949POPC   PO428908  35.554  27.233   9.511
 1949POPC   GL128909  35.436  27.487   9.155
 1949POPC   GL228910  35.740  27.733   9.064
 1949POPC   C1A28911  35.227  27.395   8.767
 1949POPC   D2A28912  35.443  27.441   8.359
 1949POPC   C3A28913  35.445  27.298   7.970
 1949POPC   C4A28914  35.316  27.522   7.644
 1949POPC   C1B28915  35.448  27.830   8.698
 1949POPC   C2B28916  35.377  27.947   8.257
 1949POPC   C3B28917  35.210  27.964   7.849
 1949POPC   C4B28918  35.399  28.015   7.459
 1950POPC   NC328919  27.108  39.770   9.239
 1950POPC   PO428920  27.818  39.974   9.443
 1950POPC   GL128921  27.492  40.107   9.152
 1950POPC   GL228922  27.313  40.398   9.179
 1950POPC   C1A28923  27.420  40.046   8.707
 1950POPC   D2A28924  27.321  39.835   8.309
 1950POPC   C3A28925  27.720  39.722   8.137
 1950POPC   C4A28926  27.922  39.768   7.748
 1950POPC   C1B28927  27.143  40.470   8.745
 1950POPC   C2B28928  27.106  40.316   8.319
 1950POPC   C3B28929  27.329  40.287   7.974
 1950POPC   C4B28930  27.617  40.447   7.700
 1951POPC   NC328931  12.280  17.329   9.434
 1951POPC   PO428932  11.818  17.686   9.509
 1951POPC   GL128933  12.090  17.682   9.120
 1951POPC   GL228934  12.249  17.962   9.142
 1951POPC   C1A28935  12.411  17.656   8.740
 1951POPC   D2A28936  12.535  17.446   8.317
 1951POPC   C3A28937  12.252  17.550   7.952
 1951POPC   C4A28938  11.833  17.565   7.745
 1951POPC   C1B28939  11.965  17.984   8.721
 1951POPC   C2B28940  11.932  17.854   8.245
 1951POPC   C3B28941  12.038  18.025   7.812
 1951POPC   C4B28942  11.983  17.968   7.325
 1952POPC   NC328943  35.137  40.361   9.777
 1952POPC   PO428944  35.800  40.252   9.737
 1952POPC   GL128945  35.534  40.305   9.325
 1952POPC   GL228946  35.412  39.991   9.166
 1952POPC   C1A28947  35.482  40.398   8.848
 1952POPC   D2A28948  35.371  40.370   8.360
 1952POPC   C3A28949  35.484  40.057   7.997
 1952POPC   C4A28950  35.591  39.765   7.609
 1952POPC   C1B28951  35.376  39.912   8.681
 1952POPC   C2B28952  35.110  39.852   8.284
 1952POPC   C3B28953  35.074  39.725   7.798
 1952POPC   C4B28954  34.985  39.708   7.324
 1953POPC   NC328955  19.475  17.371   9.403
 1953POPC   PO428956  18.850  17.693   9.507
 1953POPC   GL128957  19.124  17.655   9.158
 1953POPC   GL228958  19.444  17.859   9.229
 1953POPC   C1A28959  19.121  17.340   8.835
 1953POPC   D2A28960  18.845  17.247   8.508
 1953POPC   C3A28961  18.942  17.362   8.109
 1953POPC   C4A28962  19.093  17.452   7.722
 1953POPC   C1B28963  19.350  17.957   8.812
 1953POPC   C2B28964  19.191  17.689   8.482
 1953POPC   C3B28965  19.372  17.635   8.109
 1953POPC   C4B28966  19.397  17.844   7.729
 1954POPC   NC328967  34.564   0.418   9.747
 1954POPC   PO428968  34.236   0.653   9.283
 1954POPC   GL128969  34.691   0.656   9.242
 1954POPC   GL228970  34.754   0.308   9.255
 1954POPC   C1A28971  34.870   0.625   8.815
 1954POPC   D2A28972  34.535   0.578   8.464
 1954POPC   C3A28973  34.593   0.426   8.028
 1954POPC   C4A28974  34.322   0.204   7.741
 1954POPC   C1B28975  34.744   0.132   8.865
 1954POPC   C2B28976  34.894   0.219   8.457
 1954POPC   C3B28977  34.965   0.062   8.091
 1954POPC   C4B28978  34.790  44.980   7.728
 1955POPC   NC328979   5.863   8.219   9.624
 1955POPC   PO428980   5.712   7.623   9.374
 1955POPC   GL128981   5.921   7.960   9.168
 1955POPC   GL228982   5.895   8.356   9.142
 1955POPC   C1A28983   5.969   7.983   8.747
 1955POPC   D2A28984   6.134   8.152   8.388
 1955POPC   C3A28985   5.814   8.058   8.102
 1955POPC   C4A28986   5.537   8.057   7.749
 1955POPC   C1B28987   5.892   8.507   8.708
 1955POPC   C2B28988   5.805   8.648   8.270
 1955POPC   C3B28989   5.807   8.498   7.823
 1955POPC   C4B28990   6.081   8.108   7.663
 1956POPC   NC328991  39.539  30.454   9.550
 1956POPC   PO428992  39.092  30.922   9.557
 1956POPC   GL128993  39.339  30.780   9.215
 1956POPC   GL228994  39.154  30.476   9.171
 1956POPC   C1A28995  39.405  30.623   8.771
 1956POPC   D2A28996  39.278  30.848   8.397
 1956POPC   C3A28997  39.405  30.978   7.983
 1956POPC   C4A28998  39.094  30.908   7.624
 1956POPC   C1B28999  38.904  30.287   8.817
 1956POPC   C2B29000  39.058  30.377   8.394
 1956POPC   C3B29001  39.308  30.447   7.995
 1956POPC   C4B29002  39.186  30.418   7.546
 1957POPC   NC329003  41.898  36.309   9.715
 1957POPC   PO429004  42.475  35.963   9.401
 1957POPC   GL129005  42.546  36.059   9.040
 1957POPC   GL229006  42.469  36.370   9.066
 1957POPC   C1A29007  42.754  35.929   8.676
 1957POPC   D2A29008  42.611  35.704   8.342
 1957POPC   C3A29009  42.346  35.895   8.061
 1957POPC   C4A29010  42.464  35.778   7.660
 1957POPC   C1B29011  42.303  36.215   8.655
 1957POPC   C2B29012  42.000  36.131   8.353
 1957POPC   C3B29013  42.043  36.315   7.944
 1957POPC   C4B29014  42.373  36.279   7.649
 1958POPC   NC329015  35.815  23.030   9.352
 1958POPC   PO429016  36.549  22.926   9.320
 1958POPC   GL129017  36.225  22.940   9.086
 1958POPC   GL229018  36.215  23.310   9.173
 1958POPC   C1A29019  36.078  22.805   8.705
 1958POPC   D2A29020  36.299  22.919   8.350
 1958POPC   C3A29021  36.093  22.977   7.986
 1958POPC   C4A29022  36.147  22.817   7.595
 1958POPC   C1B29023  36.421  23.303   8.769
 1958POPC   C2B29024  36.423  23.424   8.355
 1958POPC   C3B29025  36.504  23.245   7.957
 1958POPC   C4B29026  36.288  23.338   7.540
 1959POPC   NC329027   1.830  10.551   9.606
 1959POPC   PO429028   2.480  10.373   9.498
 1959POPC   GL129029   2.090  10.311   9.216
 1959POPC   GL229030   1.994  10.621   9.070
 1959POPC   C1A29031   1.870  10.240   8.781
 1959POPC   D2A29032   2.099  10.396   8.424
 1959POPC   C3A29033   1.965  10.517   8.022
 1959POPC   C4A29034   1.979  10.362   7.612
 1959POPC   C1B29035   2.142  10.933   8.723
 1959POPC   C2B29036   2.195  10.916   8.300
 1959POPC   C3B29037   2.165  11.000   7.902
 1959POPC   C4B29038   2.297  10.742   7.610
 1960POPC   NC329039  30.077  16.400   9.602
 1960POPC   PO429040  29.795  16.872   9.810
 1960POPC   GL129041  29.874  16.978   9.347
 1960POPC   GL229042  29.992  16.681   9.167
 1960POPC   C1A29043  29.810  17.081   8.877
 1960POPC   D2A29044  29.603  16.979   8.459
 1960POPC   C3A29045  29.835  16.881   8.054
 1960POPC   C4A29046  29.972  17.194   7.750
 1960POPC   C1B29047  29.829  16.573   8.749
 1960POPC   C2B29048  29.921  16.424   8.324
 1960POPC   C3B29049  30.124  16.432   7.909
 1960POPC   C4B29050  30.051  16.711   7.549
 1961POPC   NC329051  17.796   7.713   9.449
 1961POPC   PO429052  17.518   7.131   9.500
 1961POPC   GL129053  17.555   7.358   9.145
 1961POPC   GL229054  17.887   7.323   9.112
 1961POPC   C1A29055  17.555   7.513   8.735
 1961POPC   D2A29056  17.260   7.478   8.423
 1961POPC   C3A29057  17.350   7.320   8.026
 1961POPC   C4A29058  17.554   7.639   7.782
 1961POPC   C1B29059  17.892   7.078   8.767
 1961POPC   C2B29060  17.707   7.155   8.370
 1961POPC   C3B29061  17.845   7.235   7.945
 1961POPC   C4B29062  17.586   7.080   7.611
 1962POPC   NC329063  12.965  28.023   9.480
 1962POPC   PO429064  12.764  28.644   9.614
 1962POPC   GL129065  12.788  28.436   9.210
 1962POPC   GL229066  13.141  28.368   9.115
 1962POPC   C1A29067  12.797  28.472   8.748
 1962POPC   D2A29068  13.092  28.375   8.375
 1962POPC   C3A29069  12.909  28.433   7.925
 1962POPC   C4A29070  12.548  28.432   7.646
 1962POPC   C1B29071  13.053  28.025   8.798
 1962POPC   C2B29072  13.232  27.865   8.418
 1962POPC   C3B29073  13.050  27.959   8.075
 1962POPC   C4B29074  13.163  27.840   7.735
 1963POPC   NC329075  34.535  31.462   9.515
 1963POPC   PO429076  34.646  30.822   9.582
 1963POPC   GL129077  34.668  31.143   9.169
 1963POPC   GL229078  34.890  31.381   9.125
 1963POPC   C1A29079  34.473  31.464   8.833
 1963POPC   D2A29080  34.538  31.606   8.385
 1963POPC   C3A29081  34.816  31.394   8.059
 1963POPC   C4A29082  34.617  31.194   7.681
 1963POPC   C1B29083  34.972  31.481   8.684
 1963POPC   C2B29084  35.016  31.826   8.359
 1963POPC   C3B29085  34.890  31.926   7.933
 1963POPC   C4B29086  34.847  31.637   7.590
 1964POPC   NC329087  22.957  17.502  10.076
 1964POPC   PO429088  22.864  17.617   9.408
 1964POPC   GL129089  22.775  17.525   9.021
 1964POPC   GL229090  23.112  17.461   8.989
 1964POPC   C1A29091  22.614  17.551   8.609
 1964POPC   D2A29092  22.537  17.237   8.302
 1964POPC   C3A29093  22.756  17.381   7.935
 1964POPC   C4A29094  23.099  17.303   7.710
 1964POPC   C1B29095  23.101  17.739   8.657
 1964POPC   C2B29096  22.907  17.810   8.236
 1964POPC   C3B29097  23.093  17.876   7.795
 1964POPC   C4B29098  22.960  18.010   7.355
 1965POPC   NC329099  14.689  27.854   9.564
 1965POPC   PO429100  14.191  27.422   9.424
 1965POPC   GL129101  14.332  27.614   9.075
 1965POPC   GL229102  14.630  27.753   9.074
 1965POPC   C1A29103  14.426  27.456   8.671
 1965POPC   D2A29104  14.338  27.656   8.291
 1965POPC   C3A29105  14.457  27.373   7.960
 1965POPC   C4A29106  14.802  27.478   7.716
 1965POPC   C1B29107  14.460  27.975   8.706
 1965POPC   C2B29108  14.682  28.096   8.317
 1965POPC   C3B29109  14.616  27.936   7.911
 1965POPC   C4B29110  14.224  27.793   7.765
 1966POPC   NC329111  44.099  12.100   9.782
 1966POPC   PO429112  43.503  11.913   9.679
 1966POPC   GL129113  43.743  12.058   9.304
 1966POPC   GL229114  44.085  12.185   9.269
 1966POPC   C1A29115  43.693  12.040   8.839
 1966POPC   D2A29116  43.652  12.189   8.418
 1966POPC   C3A29117  43.775  11.932   8.108
 1966POPC   C4A29118  43.880  11.986   7.712
 1966POPC   C1B29119  44.206  12.092   8.833
 1966POPC   C2B29120  44.206  12.187   8.398
 1966POPC   C3B29121  44.073  12.352   8.005
 1966POPC   C4B29122  44.129  12.410   7.531
 1967POPC   NC329123   9.549  30.321   9.368
 1967POPC   PO429124   8.921  30.191   9.220
 1967POPC   GL129125   8.704  30.510   8.974
 1967POPC   GL229126   8.675  30.836   9.148
 1967POPC   C1A29127   8.823  30.555   8.561
 1967POPC   D2A29128   9.012  30.357   8.229
 1967POPC   C3A29129   8.943  30.586   7.875
 1967POPC   C4A29130   9.281  30.619   7.565
 1967POPC   C1B29131   8.566  30.956   8.718
 1967POPC   C2B29132   8.519  30.885   8.252
 1967POPC   C3B29133   8.690  31.139   7.906
 1967POPC   C4B29134   8.935  30.997   7.546
 1968POPC   NC329135   9.786   0.158   9.978
 1968POPC   PO429136   9.631   0.588   9.478
 1968POPC   GL129137   9.756   0.399   9.063
 1968POPC   GL229138  10.127   0.408   9.052
 1968POPC   C1A29139   9.540   0.200   8.691
 1968POPC   D2A29140   9.549  44.946   8.310
 1968POPC   C3A29141   9.644   0.159   7.928
 1968POPC   C4A29142   9.420   0.316   7.593
 1968POPC   C1B29143  10.174   0.469   8.619
 1968POPC   C2B29144  10.047   0.296   8.228
 1968POPC   C3B29145  10.084   0.405   7.781
 1968POPC   C4B29146  10.060   0.527   7.351
 1969POPC   NC329147  27.565  29.271   9.700
 1969POPC   PO429148  27.967  28.928   9.523
 1969POPC   GL129149  27.556  29.023   9.252
 1969POPC   GL229150  27.454  29.387   9.185
 1969POPC   C1A29151  27.417  29.047   8.795
 1969POPC   D2A29152  27.547  29.216   8.384
 1969POPC   C3A29153  27.291  29.189   8.009
 1969POPC   C4A29154  27.228  28.822   7.729
 1969POPC   C1B29155  27.202  29.535   8.802
 1969POPC   C2B29156  27.273  29.646   8.345
 1969POPC   C3B29157  27.634  29.623   8.079
 1969POPC   C4B29158  27.798  29.276   7.862
 1970POPC   NC329159   8.807  40.969   9.739
 1970POPC   PO429160   9.291  40.556   9.423
 1970POPC   GL129161   8.960  40.787   9.189
 1970POPC   GL229162   8.782  41.112   9.245
 1970POPC   C1A29163   8.861  40.611   8.774
 1970POPC   D2A29164   9.147  40.593   8.418
 1970POPC   C3A29165   9.012  40.427   8.047
 1970POPC   C4A29166   9.231  40.528   7.666
 1970POPC   C1B29167   8.975  41.133   8.838
 1970POPC   C2B29168   8.856  40.993   8.443
 1970POPC   C3B29169   9.037  40.940   8.049
 1970POPC   C4B29170   8.840  40.981   7.686
 1971POPC   NC329171  17.784  24.396   9.425
 1971POPC   PO429172  17.102  24.394   9.418
 1971POPC   GL129173  17.359  24.580   9.143
 1971POPC   GL229174  17.468  24.239   9.029
 1971POPC   C1A29175  17.582  24.690   8.788
 1971POPC   D2A29176  17.474  24.403   8.479
 1971POPC   C3A29177  17.520  24.491   8.048
 1971POPC   C4A29178  17.258  24.427   7.702
 1971POPC   C1B29179  17.849  24.232   8.790
 1971POPC   C2B29180  17.939  24.216   8.357
 1971POPC   C3B29181  17.931  24.194   7.922
 1971POPC   C4B29182  17.759  24.388   7.590
 1972POPC   NC329183   4.044  38.702   9.737
 1972POPC   PO429184   4.571  38.321   9.872
 1972POPC   GL129185   4.380  38.468   9.425
 1972POPC   GL229186   4.574  38.341   9.159
 1972POPC   C1A29187   4.188  38.636   8.992
 1972POPC   D2A29188   4.114  38.496   8.528
 1972POPC   C3A29189   4.246  38.449   8.073
 1972POPC   C4A29190   4.332  38.353   7.617
 1972POPC   C1B29191   4.588  38.420   8.740
 1972POPC   C2B29192   4.641  38.303   8.349
 1972POPC   C3B29193   4.554  38.058   7.996
 1972POPC   C4B29194   4.739  37.963   7.620
 1973POPC   NC329195  20.834   9.772   9.317
 1973POPC   PO429196  20.122   9.508   9.462
 1973POPC   GL129197  20.419   9.564   9.117
 1973POPC   GL229198  20.721   9.337   9.120
 1973POPC   C1A29199  20.620   9.669   8.683
 1973POPC   D2A29200  20.686  10.055   8.411
 1973POPC   C3A29201  20.379  10.027   8.073
 1973POPC   C4A29202  20.433   9.922   7.658
 1973POPC   C1B29203  20.886   9.209   8.764
 1973POPC   C2B29204  20.922   9.365   8.360
 1973POPC   C3B29205  20.698   9.622   8.078
 1973POPC   C4B29206  20.738   9.540   7.636
 1974POPC   NC329207  28.287  27.418   9.573
 1974POPC   PO429208  28.795  27.685   9.528
 1974POPC   GL129209  28.538  27.650   9.159
 1974POPC   GL229210  28.515  27.314   9.091
 1974POPC   C1A29211  28.410  27.709   8.707
 1974POPC   D2A29212  28.492  27.544   8.274
 1974POPC   C3A29213  28.352  27.787   7.934
 1974POPC   C4A29214  28.102  27.979   7.613
 1974POPC   C1B29215  28.340  27.209   8.675
 1974POPC   C2B29216  28.309  27.077   8.229
 1974POPC   C3B29217  28.138  27.315   7.894
 1974POPC   C4B29218  27.893  27.523   7.553
 1975POPC   NC329219  44.805  34.873   9.638
 1975POPC   PO429220  44.772  35.558   9.523
 1975POPC   GL129221  44.749  35.373   9.142
 1975POPC   GL229222   0.023  35.134   9.144
 1975POPC   C1A29223  44.734  35.564   8.719
 1975POPC   D2A29224  44.499  35.666   8.346
 1975POPC   C3A29225  44.616  35.561   7.961
 1975POPC   C4A29226  44.436  35.188   7.865
 1975POPC   C1B29227  44.798  35.063   8.743
 1975POPC   C2B29228  44.786  35.233   8.317
 1975POPC   C3B29229  44.940  35.088   7.918
 1975POPC   C4B29230  44.819  34.888   7.541
 1976POPC   NC329231  30.009   7.949   9.762
 1976POPC   PO429232  29.569   7.555   9.503
 1976POPC   GL129233  29.834   7.497   9.100
 1976POPC   GL229234  30.119   7.274   9.089
 1976POPC   C1A29235  30.016   7.593   8.685
 1976POPC   D2A29236  30.257   7.535   8.313
 1976POPC   C3A29237  29.930   7.468   8.020
 1976POPC   C4A29238  29.864   7.649   7.626
 1976POPC   C1B29239  30.281   7.163   8.718
 1976POPC   C2B29240  30.047   7.074   8.362
 1976POPC   C3B29241  30.182   7.031   7.975
 1976POPC   C4B29242  29.954   7.112   7.630
 1977POPC   NC329243   3.931   9.779   9.410
 1977POPC   PO429244   3.350   9.954   9.497
 1977POPC   GL129245   3.495   9.788   9.122
 1977POPC   GL229246   3.439   9.450   9.205
 1977POPC   C1A29247   3.768   9.829   8.758
 1977POPC   D2A29248   3.758   9.670   8.349
 1977POPC   C3A29249   3.419   9.900   8.224
 1977POPC   C4A29250   3.266   9.993   7.856
 1977POPC   C1B29251   3.350   9.446   8.754
 1977POPC   C2B29252   3.282   9.414   8.313
 1977POPC   C3B29253   3.462   9.481   7.908
 1977POPC   C4B29254   3.461   9.226   7.518
 1978POPC   NC329255  19.356   9.640   9.673
 1978POPC   PO429256  18.868  10.001   9.464
 1978POPC   GL129257  19.138   9.975   9.134
 1978POPC   GL229258  19.164   9.616   9.178
 1978POPC   C1A29259  19.065   9.838   8.740
 1978POPC   D2A29260  18.843   9.721   8.425
 1978POPC   C3A29261  18.826  10.100   8.197
 1978POPC   C4A29262  19.048  10.104   7.818
 1978POPC   C1B29263  19.252   9.371   8.796
 1978POPC   C2B29264  19.181   9.194   8.381
 1978POPC   C3B29265  19.051   9.496   8.020
 1978POPC   C4B29266  19.027   9.627   7.578
 1979POPC   NC329267  12.594  39.188   9.297
 1979POPC   PO429268  12.012  38.966   9.367
 1979POPC   GL129269  12.099  39.250   9.050
 1979POPC   GL229270  11.835  39.479   9.170
 1979POPC   C1A29271  12.119  39.261   8.584
 1979POPC   D2A29272  11.785  39.200   8.248
 1979POPC   C3A29273  11.977  38.988   7.911
 1979POPC   C4A29274  12.404  39.185   7.914
 1979POPC   C1B29275  11.802  39.626   8.739
 1979POPC   C2B29276  11.985  39.708   8.320
 1979POPC   C3B29277  12.046  39.622   7.875
 1979POPC   C4B29278  11.849  39.748   7.459
 1980POPC   NC329279  20.856  31.758   9.553
 1980POPC   PO429280  20.503  31.152   9.604
 1980POPC   GL129281  20.529  31.454   9.216
 1980POPC   GL229282  20.685  31.783   9.089
 1980POPC   C1A29283  20.579  31.383   8.767
 1980POPC   D2A29284  20.290  31.265   8.410
 1980POPC   C3A29285  20.458  31.383   8.053
 1980POPC   C4A29286  20.639  31.390   7.663
 1980POPC   C1B29287  20.405  31.883   8.777
 1980POPC   C2B29288  20.561  31.751   8.400
 1980POPC   C3B29289  20.717  31.828   7.974
 1980POPC   C4B29290  20.694  31.899   7.530
 1981POPC   NC329291  32.574   0.178   9.295
 1981POPC   PO429292  32.328  44.716   9.715
 1981POPC   GL129293  32.373  44.645   9.254
 1981POPC   GL229294  32.058  44.564   9.073
 1981POPC   C1A29295  32.582  44.725   8.837
 1981POPC   D2A29296  32.673  44.842   8.406
 1981POPC   C3A29297  32.467  44.634   8.049
 1981POPC   C4A29298  32.355  44.238   7.885
 1981POPC   C1B29299  32.130  44.720   8.633
 1981POPC   C2B29300  31.926  44.604   8.264
 1981POPC   C3B29301  31.839  44.405   7.893
 1981POPC   C4B29302  32.098  44.628   7.656
 1982POPC   NC329303  14.877   7.091   9.460
 1982POPC   PO429304  15.120   7.735   9.373
 1982POPC   GL129305  15.273   7.409   9.124
 1982POPC   GL229306  15.127   7.078   9.015
 1982POPC   C1A29307  15.296   7.498   8.718
 1982POPC   D2A29308  15.487   7.488   8.377
 1982POPC   C3A29309  15.462   7.713   8.028
 1982POPC   C4A29310  15.393   7.549   7.679
 1982POPC   C1B29311  14.806   7.382   8.840
 1982POPC   C2B29312  14.850   7.563   8.423
 1982POPC   C3B29313  14.988   7.483   8.000
 1982POPC   C4B29314  14.971   7.130   7.686
 1983POPC   NC329315  14.146  19.200   9.480
 1983POPC   PO429316  14.540  18.717   9.455
 1983POPC   GL129317  14.462  18.893   9.084
 1983POPC   GL229318  14.589  19.191   9.166
 1983POPC   C1A29319  14.195  19.112   8.817
 1983POPC   D2A29320  14.211  19.246   8.409
 1983POPC   C3A29321  14.463  18.991   8.108
 1983POPC   C4A29322  14.661  18.928   7.688
 1983POPC   C1B29323  14.718  19.319   8.769
 1983POPC   C2B29324  14.570  19.640   8.483
 1983POPC   C3B29325  14.338  19.644   8.093
 1983POPC   C4B29326  14.524  19.400   7.797
 1984POPC   NC329327  36.357   8.704  10.260
 1984POPC   PO429328  36.092   8.818   9.629
 1984POPC   GL129329  35.835   8.966   9.225
 1984POPC   GL229330  35.778   9.333   9.203
 1984POPC   C1A29331  35.846   8.907   8.760
 1984POPC   D2A29332  36.192   8.967   8.427
 1984POPC   C3A29333  36.117   8.986   7.963
 1984POPC   C4A29334  36.425   9.006   7.588
 1984POPC   C1B29335  35.862   9.414   8.772
 1984POPC   C2B29336  35.787   9.251   8.351
 1984POPC   C3B29337  35.818   9.418   7.954
 1984POPC   C4B29338  36.104   9.391   7.650
 1985POPC   NC329339  13.408   5.752   9.657
 1985POPC   PO429340  13.815   6.212   9.368
 1985POPC   GL129341  13.700   5.865   9.166
 1985POPC   GL229342  14.052   5.709   9.198
 1985POPC   C1A29343  13.548   5.982   8.742
 1985POPC   D2A29344  13.514   6.238   8.325
 1985POPC   C3A29345  13.440   5.958   7.960
 1985POPC   C4A29346  13.651   5.829   7.602
 1985POPC   C1B29347  13.928   5.630   8.762
 1985POPC   C2B29348  13.762   5.725   8.328
 1985POPC   C3B29349  13.876   5.516   7.919
 1985POPC   C4B29350  13.963   5.492   7.417
 1986POPC   NC329351   9.519  25.648   9.629
 1986POPC   PO429352   9.440  25.009   9.802
 1986POPC   GL129353   9.548  25.095   9.288
 1986POPC   GL229354   9.652  25.442   9.171
 1986POPC   C1A29355   9.396  25.176   8.822
 1986POPC   D2A29356   9.579  25.145   8.368
 1986POPC   C3A29357   9.322  24.971   7.982
 1986POPC   C4A29358   9.281  24.972   7.492
 1986POPC   C1B29359   9.618  25.640   8.776
 1986POPC   C2B29360   9.847  25.698   8.410
 1986POPC   C3B29361   9.721  25.612   8.019
 1986POPC   C4B29362   9.494  25.736   7.659
 1987POPC   NC329363   7.713   4.563   9.626
 1987POPC   PO429364   7.263   4.878   9.342
 1987POPC   GL129365   7.346   5.168   8.985
 1987POPC   GL229366   7.245   4.907   8.787
 1987POPC   C1A29367   7.163   5.345   8.575
 1987POPC   D2A29368   7.299   5.022   8.239
 1987POPC   C3A29369   7.285   5.087   7.772
 1987POPC   C4A29370   7.573   5.307   7.492
 1987POPC   C1B29371   7.669   4.819   8.681
 1987POPC   C2B29372   7.811   4.905   8.260
 1987POPC   C3B29373   7.646   4.751   7.906
 1987POPC   C4B29374   7.954   4.865   7.616
 1988POPC   NC329375   6.349   3.376   9.335
 1988POPC   PO429376   7.044   3.315   9.423
 1988POPC   GL129377   6.871   3.685   9.143
 1988POPC   GL229378   6.526   3.741   9.047
 1988POPC   C1A29379   6.836   3.600   8.679
 1988POPC   D2A29380   6.612   3.779   8.335
 1988POPC   C3A29381   6.824   3.696   7.968
 1988POPC   C4A29382   6.757   3.632   7.538
 1988POPC   C1B29383   6.263   3.638   8.687
 1988POPC   C2B29384   6.205   3.401   8.301
 1988POPC   C3B29385   6.373   3.506   7.886
 1988POPC   C4B29386   6.414   3.955   7.701
 1989POPC   NC329387  25.243  26.179   9.476
 1989POPC   PO429388  25.254  25.514   9.228
 1989POPC   GL129389  25.325  25.850   8.995
 1989POPC   GL229390  25.060  26.106   9.016
 1989POPC   C1A29391  25.418  25.805   8.557
 1989POPC   D2A29392  25.530  26.126   8.238
 1989POPC   C3A29393  25.354  26.009   7.880
 1989POPC   C4A29394  25.528  25.641   7.690
 1989POPC   C1B29395  25.306  26.290   8.689
 1989POPC   C2B29396  25.060  26.129   8.395
 1989POPC   C3B29397  24.883  26.165   8.053
 1989POPC   C4B29398  24.951  26.304   7.633
 1990POPC   NC329399  40.367  12.670   9.339
 1990POPC   PO429400  40.718  13.299   9.465
 1990POPC   GL129401  40.949  13.014   9.135
 1990POPC   GL229402  40.643  12.978   9.050
 1990POPC   C1A29403  40.880  12.645   8.778
 1990POPC   D2A29404  41.107  12.566   8.379
 1990POPC   C3A29405  40.947  12.650   7.936
 1990POPC   C4A29406  40.863  12.881   7.515
 1990POPC   C1B29407  40.423  12.849   8.685
 1990POPC   C2B29408  40.619  12.805   8.289
 1990POPC   C3B29409  40.476  12.834   7.866
 1990POPC   C4B29410  40.138  13.021   7.695
 1991POPC   NC329411  18.346   8.514   9.417
 1991POPC   PO429412  18.379   9.144   9.379
 1991POPC   GL129413  18.402   8.882   9.043
 1991POPC   GL229414  18.701   8.635   9.077
 1991POPC   C1A29415  18.341   9.021   8.619
 1991POPC   D2A29416  18.486   9.336   8.321
 1991POPC   C3A29417  18.222   9.336   7.951
 1991POPC   C4A29418  18.276   8.932   7.852
 1991POPC   C1B29419  18.450   8.502   8.718
 1991POPC   C2B29420  18.287   8.608   8.300
 1991POPC   C3B29421  18.609   8.570   7.978
 1991POPC   C4B29422  18.693   8.792   7.602
 1992POPC   NC329423  10.772   2.981   9.394
 1992POPC   PO429424  10.105   2.961   9.436
 1992POPC   GL129425  10.361   2.773   9.152
 1992POPC   GL229426  10.569   2.491   9.258
 1992POPC   C1A29427  10.442   2.922   8.753
 1992POPC   D2A29428  10.273   3.027   8.372
 1992POPC   C3A29429  10.539   2.928   8.037
 1992POPC   C4A29430  10.447   2.847   7.632
 1992POPC   C1B29431  10.530   2.401   8.804
 1992POPC   C2B29432  10.628   2.579   8.401
 1992POPC   C3B29433  10.550   2.429   7.986
 1992POPC   C4B29434  10.772   2.475   7.571
 1993POPC   NC329435  16.980  41.811   9.453
 1993POPC   PO429436  17.267  41.287   9.657
 1993POPC   GL129437  17.375  41.390   9.223
 1993POPC   GL229438  17.273  41.076   9.151
 1993POPC   C1A29439  17.572  41.587   8.791
 1993POPC   D2A29440  17.489  41.822   8.422
 1993POPC   C3A29441  17.601  41.645   8.042
 1993POPC   C4A29442  17.447  41.747   7.645
 1993POPC   C1B29443  17.134  41.338   8.792
 1993POPC   C2B29444  17.242  41.332   8.374
 1993POPC   C3B29445  17.152  41.451   7.954
 1993POPC   C4B29446  17.289  41.244   7.596
 1994POPC   NC329447  20.622  41.896   9.752
 1994POPC   PO429448  20.697  42.534   9.695
 1994POPC   GL129449  20.666  42.455   9.267
 1994POPC   GL229450  20.655  42.107   9.268
 1994POPC   C1A29451  20.769  42.358   8.815
 1994POPC   D2A29452  20.748  42.200   8.383
 1994POPC   C3A29453  20.595  42.382   7.964
 1994POPC   C4A29454  20.682  42.156   7.553
 1994POPC   C1B29455  20.317  42.207   8.977
 1994POPC   C2B29456  20.241  42.191   8.544
 1994POPC   C3B29457  20.321  42.007   8.161
 1994POPC   C4B29458  20.219  42.109   7.762
 1995POPC   NC329459  15.040  24.777   9.285
 1995POPC   PO429460  15.558  24.686   9.748
 1995POPC   GL129461  15.419  24.382   9.326
 1995POPC   GL229462  15.685  24.261   9.115
 1995POPC   C1A29463  15.271  24.379   8.809
 1995POPC   D2A29464  15.165  24.635   8.400
 1995POPC   C3A29465  15.242  24.484   7.958
 1995POPC   C4A29466  14.977  24.265   7.641
 1995POPC   C1B29467  15.595  24.010   8.719
 1995POPC   C2B29468  15.754  24.100   8.347
 1995POPC   C3B29469  15.609  24.009   7.987
 1995POPC   C4B29470  15.469  24.148   7.627
 1996POPC   NC329471  32.304   2.383   9.555
 1996POPC   PO429472  32.413   3.011   9.565
 1996POPC   GL129473  32.255   2.846   9.164
 1996POPC   GL229474  32.041   2.540   9.164
 1996POPC   C1A29475  32.228   2.953   8.724
 1996POPC   D2A29476  32.504   3.043   8.390
 1996POPC   C3A29477  32.292   2.980   8.029
 1996POPC   C4A29478  32.328   2.865   7.605
 1996POPC   C1B29479  32.307   2.453   8.803
 1996POPC   C2B29480  32.518   2.524   8.426
 1996POPC   C3B29481  32.667   2.489   8.054
 1996POPC   C4B29482  32.271   2.469   7.925
 1997POPC   NC329483   5.325  20.774   9.278
 1997POPC   PO429484   5.930  20.584   9.624
 1997POPC   GL129485   5.795  20.555   9.181
 1997POPC   GL229486   5.620  20.271   9.056
 1997POPC   C1A29487   6.011  20.448   8.789
 1997POPC   D2A29488   5.996  20.215   8.421
 1997POPC   C3A29489   6.125  20.560   8.164
 1997POPC   C4A29490   5.918  20.670   7.785
 1997POPC   C1B29491   5.536  20.420   8.640
 1997POPC   C2B29492   5.628  20.484   8.209
 1997POPC   C3B29493   5.494  20.347   7.826
 1997POPC   C4B29494   5.591  20.503   7.417
 1998POPC   NC329495  13.754   7.700   9.780
 1998POPC   PO429496  13.430   7.320   9.404
 1998POPC   GL129497  13.623   7.671   9.175
 1998POPC   GL229498  13.324   7.765   9.025
 1998POPC   C1A29499  13.950   7.623   8.826
 1998POPC   D2A29500  13.881   7.408   8.441
 1998POPC   C3A29501  14.022   7.597   8.059
 1998POPC   C4A29502  13.766   7.535   7.729
 1998POPC   C1B29503  13.471   7.360   8.794
 1998POPC   C2B29504  13.383   7.155   8.455
 1998POPC   C3B29505  13.530   7.236   8.092
 1998POPC   C4B29506  13.378   7.179   7.729
 1999POPC   NC329507  14.172  18.491   9.258
 1999POPC   PO429508  14.325  18.025   9.728
 1999POPC   GL129509  14.494  18.072   9.172
 1999POPC   GL229510  14.197  18.157   8.862
 1999POPC   C1A29511  14.660  18.180   8.714
 1999POPC   D2A29512  14.368  18.143   8.329
 1999POPC   C3A29513  14.558  18.154   7.906
 1999POPC   C4A29514  14.501  18.023   7.469
 1999POPC   C1B29515  14.174  18.599   8.637
 1999POPC   C2B29516  14.002  18.770   8.260
 1999POPC   C3B29517  14.204  18.532   7.964
 1999POPC   C4B29518  14.111  18.296   7.619
 2000POPC   NC329519   7.290  26.723   9.547
 2000POPC   PO429520   7.821  27.063   9.346
 2000POPC   GL129521   7.563  26.755   9.099
 2000POPC   GL229522   7.194  26.806   9.030
 2000POPC   C1A29523   7.559  26.854   8.663
 2000POPC   D2A29524   7.653  26.814   8.293
 2000POPC   C3A29525   7.251  26.785   8.129
 2000POPC   C4A29526   7.183  26.458   7.832
 2000POPC   C1B29527   7.102  27.086   8.623
 2000POPC   C2B29528   7.411  27.263   8.301
 2000POPC   C3B29529   7.577  27.138   7.881
 2000POPC   C4B29530   7.540  27.100   7.396
 2001POPC   NC329531   5.323   9.053   9.916
 2001POPC   PO429532   5.610   8.885   9.341
 2001POPC   GL129533   5.403   8.650   9.053
 2001POPC   GL229534   5.038   8.676   9.137
 2001POPC   C1A29535   5.381   8.638   8.612
 2001POPC   D2A29536   5.065   8.819   8.357
 2001POPC   C3A29537   5.272   8.902   8.000
 2001POPC   C4A29538   5.251   8.776   7.589
 2001POPC   C1B29539   5.091   9.036   8.829
 2001POPC   C2B29540   5.002   9.356   8.506
 2001POPC   C3B29541   4.883   9.257   8.099
 2001POPC   C4B29542   4.977   9.180   7.673
 2002POPC   NC329543  11.613  22.744   9.706
 2002POPC   PO429544  11.107  22.240   9.514
 2002POPC   GL129545  11.176  22.053   9.097
 2002POPC   GL229546  11.345  22.345   9.086
 2002POPC   C1A29547  11.437  22.018   8.710
 2002POPC   D2A29548  11.520  21.691   8.388
 2002POPC   C3A29549  11.455  21.851   7.965
 2002POPC   C4A29550  11.750  22.191   7.825
 2002POPC   C1B29551  11.032  22.465   8.765
 2002POPC   C2B29552  10.768  22.424   8.382
 2002POPC   C3B29553  10.837  22.404   7.945
 2002POPC   C4B29554  11.249  22.291   7.795
 2003POPC   NC329555  18.702  18.876   9.419
 2003POPC   PO429556  19.407  19.114   9.500
 2003POPC   GL129557  19.182  18.929   9.128
 2003POPC   GL229558  18.874  19.113   9.008
 2003POPC   C1A29559  19.217  18.959   8.663
 2003POPC   D2A29560  19.442  19.206   8.395
 2003POPC   C3A29561  19.333  19.085   8.006
 2003POPC   C4A29562  19.133  19.268   7.667
 2003POPC   C1B29563  18.697  18.969   8.630
 2003POPC   C2B29564  18.782  19.175   8.211
 2003POPC   C3B29565  18.650  19.156   7.756
 2003POPC   C4B29566  18.847  18.923   7.375
 2004POPC   NC329567  39.508  14.044   9.244
 2004POPC   PO429568  39.295  13.507   9.620
 2004POPC   GL129569  39.207  13.618   9.195
 2004POPC   GL229570  39.540  13.554   9.162
 2004POPC   C1A29571  39.003  13.432   8.801
 2004POPC   D2A29572  38.906  13.496   8.328
 2004POPC   C3A29573  39.069  13.820   8.049
 2004POPC   C4A29574  39.384  13.889   7.766
 2004POPC   C1B29575  39.485  13.542   8.730
 2004POPC   C2B29576  39.393  13.269   8.421
 2004POPC   C3B29577  39.395  13.431   8.025
 2004POPC   C4B29578  39.628  13.413   7.648
 2005POPC   NC329579  17.445  13.851   9.786
 2005POPC   PO429580  17.300  13.483   9.293
 2005POPC   GL129581  17.632  13.657   9.119
 2005POPC   GL229582  17.392  13.716   8.846
 2005POPC   C1A29583  17.836  13.542   8.766
 2005POPC   D2A29584  17.928  13.665   8.367
 2005POPC   C3A29585  17.722  13.674   7.959
 2005POPC   C4A29586  17.804  13.814   7.495
 2005POPC   C1B29587  17.263  14.022   8.597
 2005POPC   C2B29588  17.263  13.781   8.279
 2005POPC   C3B29589  17.216  13.864   7.923
 2005POPC   C4B29590  17.302  13.797   7.530
 2006POPC   NC329591  25.063   6.502   9.580
 2006POPC   PO429592  25.522   7.004   9.446
 2006POPC   GL129593  25.279   6.962   9.114
 2006POPC   GL229594  25.252   6.623   9.115
 2006POPC   C1A29595  25.366   7.029   8.678
 2006POPC   D2A29596  25.203   6.802   8.340
 2006POPC   C3A29597  25.344   6.802   7.930
 2006POPC   C4A29598  25.050   6.950   7.635
 2006POPC   C1B29599  25.400   6.509   8.708
 2006POPC   C2B29600  25.190   6.300   8.365
 2006POPC   C3B29601  25.080   6.353   7.976
 2006POPC   C4B29602  25.489   6.315   7.800
 2007POPC   NC329603  15.980  21.166   9.567
 2007POPC   PO429604  16.235  21.845   9.472
 2007POPC   GL129605  16.197  21.649   9.054
 2007POPC   GL229606  16.033  21.307   9.093
 2007POPC   C1A29607  15.997  21.514   8.625
 2007POPC   D2A29608  15.563  21.478   8.416
 2007POPC   C3A29609  15.567  21.642   7.983
 2007POPC   C4A29610  15.994  21.701   7.828
 2007POPC   C1B29611  15.719  21.128   8.810
 2007POPC   C2B29612  15.833  21.022   8.393
 2007POPC   C3B29613  15.918  21.205   8.000
 2007POPC   C4B29614  15.903  21.290   7.550
 2008POPC   NC329615  36.440  18.449   9.295
 2008POPC   PO429616  36.168  19.111   9.532
 2008POPC   GL129617  36.134  19.086   9.155
 2008POPC   GL229618  36.039  18.764   9.131
 2008POPC   C1A29619  36.383  19.091   8.790
 2008POPC   D2A29620  36.311  19.233   8.379
 2008POPC   C3A29621  36.332  18.942   8.046
 2008POPC   C4A29622  36.475  19.061   7.660
 2008POPC   C1B29623  35.902  18.927   8.735
 2008POPC   C2B29624  35.801  19.156   8.429
 2008POPC   C3B29625  35.836  19.044   8.048
 2008POPC   C4B29626  35.984  18.935   7.648
 2009POPC   NC329627  14.743  42.774   9.472
 2009POPC   PO429628  14.412  42.186   9.465
 2009POPC   GL129629  14.451  42.246   9.077
 2009POPC   GL229630  14.110  42.199   9.020
 2009POPC   C1A29631  14.718  42.327   8.729
 2009POPC   D2A29632  14.541  42.460   8.355
 2009POPC   C3A29633  14.574  42.323   7.926
 2009POPC   C4A29634  14.533  42.326   7.476
 2009POPC   C1B29635  14.117  42.644   8.919
 2009POPC   C2B29636  14.101  42.721   8.478
 2009POPC   C3B29637  14.077  42.440   8.108
 2009POPC   C4B29638  14.025  42.196   7.740
 2010POPC   NC329639   5.133  10.963   9.599
 2010POPC   PO429640   5.479  11.549   9.394
 2010POPC   GL129641   5.288  11.207   9.163
 2010POPC   GL229642   4.962  11.230   9.182
 2010POPC   C1A29643   5.141  11.128   8.735
 2010POPC   D2A29644   5.134  11.329   8.360
 2010POPC   C3A29645   5.122  11.181   7.936
 2010POPC   C4A29646   5.371  11.224   7.588
 2010POPC   C1B29647   4.792  11.520   8.844
 2010POPC   C2B29648   4.754  11.674   8.415
 2010POPC   C3B29649   4.933  11.657   8.022
 2010POPC   C4B29650   4.886  11.698   7.621
 2011POPC   NC329651   1.935  38.176   9.421
 2011POPC   PO429652   1.892  38.743   9.711
 2011POPC   GL129653   1.995  38.597   9.195
 2011POPC   GL229654   2.274  38.702   9.033
 2011POPC   C1A29655   1.815  38.470   8.786
 2011POPC   D2A29656   1.788  38.209   8.449
 2011POPC   C3A29657   1.931  38.319   8.065
 2011POPC   C4A29658   1.756  38.148   7.696
 2011POPC   C1B29659   2.045  38.899   8.679
 2011POPC   C2B29660   1.877  38.821   8.252
 2011POPC   C3B29661   2.026  38.895   7.837
 2011POPC   C4B29662   2.028  38.844   7.373
 2012POPC   NC329663  35.157   3.191   9.548
 2012POPC   PO429664  35.162   2.493   9.591
 2012POPC   GL129665  35.099   2.781   9.255
 2012POPC   GL229666  35.126   2.518   9.071
 2012POPC   C1A29667  35.062   2.983   8.833
 2012POPC   D2A29668  35.059   2.811   8.414
 2012POPC   C3A29669  35.206   3.039   8.040
 2012POPC   C4A29670  35.613   3.071   7.834
 2012POPC   C1B29671  35.444   2.638   8.766
 2012POPC   C2B29672  35.573   2.790   8.365
 2012POPC   C3B29673  35.571   2.601   7.992
 2012POPC   C4B29674  35.259   2.445   7.767
 2013POPC   NC329675   1.403  12.932   9.650
 2013POPC   PO429676   1.308  12.430   9.194
 2013POPC   GL129677   1.127  12.812   9.085
 2013POPC   GL229678   1.290  13.117   9.197
 2013POPC   C1A29679   0.941  12.785   8.701
 2013POPC   D2A29680   0.799  12.833   8.293
 2013POPC   C3A29681   1.116  12.781   7.952
 2013POPC   C4A29682   1.336  12.661   7.576
 2013POPC   C1B29683   1.208  13.262   8.803
 2013POPC   C2B29684   1.182  13.162   8.378
 2013POPC   C3B29685   0.922  13.257   8.035
 2013POPC   C4B29686   1.076  13.375   7.667
 2014POPC   NC329687  20.083   0.858   9.548
 2014POPC   PO429688  19.628   1.288   9.457
 2014POPC   GL129689  19.787   1.193   9.070
 2014POPC   GL229690  19.763   0.852   9.056
 2014POPC   C1A29691  20.001   1.072   8.667
 2014POPC   D2A29692  19.981   0.984   8.229
 2014POPC   C3A29693  19.787   1.291   8.005
 2014POPC   C4A29694  19.693   1.562   7.686
 2014POPC   C1B29695  19.481   0.998   8.675
 2014POPC   C2B29696  19.392   1.023   8.210
 2014POPC   C3B29697  19.631   0.834   7.844
 2014POPC   C4B29698  19.992   0.736   7.536
 2015POPC   NC329699  11.710  42.311   9.667
 2015POPC   PO429700  11.087  42.608   9.509
 2015POPC   GL129701  11.177  42.475   9.119
 2015POPC   GL229702  11.512  42.382   9.206
 2015POPC   C1A29703  11.060  42.318   8.695
 2015POPC   D2A29704  11.183  42.018   8.420
 2015POPC   C3A29705  10.976  42.045   8.032
 2015POPC   C4A29706  11.010  41.872   7.614
 2015POPC   C1B29707  11.499  42.126   8.857
 2015POPC   C2B29708  11.619  42.298   8.463
 2015POPC   C3B29709  11.474  42.199   8.045
 2015POPC   C4B29710  11.223  42.430   7.800
 2016POPC   NC329711  22.554  22.011   9.454
 2016POPC   PO429712  23.238  22.209   9.646
 2016POPC   GL129713  23.008  22.250   9.221
 2016POPC   GL229714  22.704  22.455   9.179
 2016POPC   C1A29715  22.900  22.139   8.774
 2016POPC   D2A29716  23.105  21.974   8.383
 2016POPC   C3A29717  22.952  22.050   7.963
 2016POPC   C4A29718  23.063  21.777   7.607
 2016POPC   C1B29719  22.653  22.611   8.782
 2016POPC   C2B29720  22.840  22.516   8.388
 2016POPC   C3B29721  22.639  22.543   8.005
 2016POPC   C4B29722  22.753  22.379   7.621
 2017POPC   NC329723   3.676  20.558   9.532
 2017POPC   PO429724   3.035  20.974   9.423
 2017POPC   GL129725   3.328  20.993   9.074
 2017POPC   GL229726   3.631  20.839   9.129
 2017POPC   C1A29727   3.343  20.769   8.696
 2017POPC   D2A29728   3.206  20.615   8.303
 2017POPC   C3A29729   3.468  20.776   8.017
 2017POPC   C4A29730   3.615  20.877   7.663
 2017POPC   C1B29731   3.703  20.468   8.865
 2017POPC   C2B29732   3.703  20.475   8.426
 2017POPC   C3B29733   3.635  20.286   8.042
 2017POPC   C4B29734   3.748  20.331   7.618
 2018POPC   NC329735   7.556  39.341   9.347
 2018POPC   PO429736   7.076  38.906   9.605
 2018POPC   GL129737   7.072  39.229   9.240
 2018POPC   GL229738   7.221  39.044   9.079
 2018POPC   C1A29739   7.297  39.484   8.803
 2018POPC   D2A29740   7.708  39.388   8.510
 2018POPC   C3A29741   7.676  39.521   8.063
 2018POPC   C4A29742   7.492  39.399   7.625
 2018POPC   C1B29743   7.044  39.058   8.723
 2018POPC   C2B29744   7.265  39.177   8.381
 2018POPC   C3B29745   7.436  39.077   8.009
 2018POPC   C4B29746   7.112  39.037   7.689
 2019POPC   NC329747  19.530  30.480   9.460
 2019POPC   PO429748  19.874  31.014   9.408
 2019POPC   GL129749  19.952  30.618   9.175
 2019POPC   GL229750  19.655  30.637   8.986
 2019POPC   C1A29751  20.088  30.491   8.766
 2019POPC   D2A29752  20.054  30.685   8.349
 2019POPC   C3A29753  19.850  30.519   7.964
 2019POPC   C4A29754  19.838  30.759   7.561
 2019POPC   C1B29755  19.407  30.793   8.630
 2019POPC   C2B29756  19.516  30.876   8.188
 2019POPC   C3B29757  19.444  31.018   7.756
 2019POPC   C4B29758  19.579  31.130   7.305
 2020POPC   NC329759   2.656  21.356   9.469
 2020POPC   PO429760   3.207  21.637   9.675
 2020POPC   GL129761   3.030  21.701   9.242
 2020POPC   GL229762   2.981  21.371   9.069
 2020POPC   C1A29763   3.065  21.780   8.756
 2020POPC   D2A29764   3.003  21.490   8.374
 2020POPC   C3A29765   2.908  21.483   7.902
 2020POPC   C4A29766   2.747  21.398   7.477
 2020POPC   C1B29767   2.940  21.081   8.668
 2020POPC   C2B29768   2.909  21.026   8.170
 2020POPC   C3B29769   2.615  21.018   7.794
 2020POPC   C4B29770   2.464  20.735   7.474
 2021POPC   NC329771  41.587  24.943   9.440
 2021POPC   PO429772  41.695  24.297   9.398
 2021POPC   GL129773  41.454  24.418   9.032
 2021POPC   GL229774  41.564  24.698   9.006
 2021POPC   C1A29775  41.336  24.534   8.602
 2021POPC   D2A29776  41.635  24.456   8.294
 2021POPC   C3A29777  41.493  24.418   7.896
 2021POPC   C4A29778  41.504  24.010   7.758
 2021POPC   C1B29779  41.870  24.427   8.750
 2021POPC   C2B29780  42.098  24.245   8.393
 2021POPC   C3B29781  41.984  24.238   7.957
 2021POPC   C4B29782  41.869  24.342   7.551
 2022POPC   NC329783  36.811  20.186   9.941
 2022POPC   PO429784  37.022  19.620   9.550
 2022POPC   GL129785  36.906  19.826   9.158
 2022POPC   GL229786  36.560  19.920   9.172
 2022POPC   C1A29787  36.805  20.046   8.747
 2022POPC   D2A29788  36.974  20.121   8.346
 2022POPC   C3A29789  36.827  19.886   8.011
 2022POPC   C4A29790  36.953  19.979   7.596
 2022POPC   C1B29791  36.441  19.682   8.785
 2022POPC   C2B29792  36.668  19.601   8.411
 2022POPC   C3B29793  36.654  19.394   8.011
 2022POPC   C4B29794  36.577  19.601   7.635
 2023POPC   NC329795  16.440  16.183   9.567
 2023POPC   PO429796  15.746  16.092   9.542
 2023POPC   GL129797  15.984  15.931   9.179
 2023POPC   GL229798  15.645  15.794   9.107
 2023POPC   C1A29799  16.027  15.843   8.759
 2023POPC   D2A29800  15.758  15.858   8.415
 2023POPC   C3A29801  15.901  15.739   8.017
 2023POPC   C4A29802  16.137  15.977   7.721
 2023POPC   C1B29803  15.365  15.678   8.788
 2023POPC   C2B29804  15.236  15.780   8.407
 2023POPC   C3B29805  15.395  15.967   8.086
 2023POPC   C4B29806  15.699  16.255   7.964
 2024POPC   NC329807  21.460  33.861   9.546
 2024POPC   PO429808  20.895  33.482   9.633
 2024POPC   GL129809  21.163  33.558   9.241
 2024POPC   GL229810  21.279  33.923   9.077
 2024POPC   C1A29811  21.341  33.474   8.835
 2024POPC   D2A29812  21.371  33.717   8.499
 2024POPC   C3A29813  21.337  33.624   8.043
 2024POPC   C4A29814  21.510  33.503   7.616
 2024POPC   C1B29815  21.628  34.069   8.807
 2024POPC   C2B29816  21.848  33.943   8.428
 2024POPC   C3B29817  21.748  33.975   8.021
 2024POPC   C4B29818  21.658  33.985   7.625
 2025POPC   NC329819  31.304  11.650   9.552
 2025POPC   PO429820  31.120  11.231   9.484
 2025POPC   GL129821  31.267  11.366   9.047
 2025POPC   GL229822  31.622  11.472   8.991
 2025POPC   C1A29823  31.320  11.452   8.575
 2025POPC   D2A29824  31.598  11.411   8.215
 2025POPC   C3A29825  31.504  11.149   7.850
 2025POPC   C4A29826  31.248  11.345   7.517
 2025POPC   C1B29827  31.736  11.158   8.649
 2025POPC   C2B29828  31.855  10.962   8.227
 2025POPC   C3B29829  31.997  11.001   7.784
 2025POPC   C4B29830  31.823  11.243   7.425
 2026POPC   NC329831   7.721   2.260   9.577
 2026POPC   PO429832   7.545   1.641   9.450
 2026POPC   GL129833   7.645   1.957   9.145
 2026POPC   GL229834   7.375   2.175   9.166
 2026POPC   C1A29835   7.591   2.089   8.701
 2026POPC   D2A29836   7.647   1.844   8.353
 2026POPC   C3A29837   7.467   1.964   8.005
 2026POPC   C4A29838   7.445   1.729   7.664
 2026POPC   C1B29839   7.189   2.402   8.833
 2026POPC   C2B29840   7.096   2.333   8.415
 2026POPC   C3B29841   7.191   2.411   7.993
 2026POPC   C4B29842   7.167   2.164   7.637
 2027POPC   NC329843  21.802   6.647   9.305
 2027POPC   PO429844  22.310   7.093   9.484
 2027POPC   GL129845  22.295   6.716   9.216
 2027POPC   GL229846  22.477   6.475   9.247
 2027POPC   C1A29847  22.227   6.447   8.795
 2027POPC   D2A29848  22.243   6.242   8.369
 2027POPC   C3A29849  22.078   6.433   7.962
 2027POPC   C4A29850  21.954   6.874   7.844
 2027POPC   C1B29851  22.592   6.822   8.848
 2027POPC   C2B29852  22.641   6.758   8.425
 2027POPC   C3B29853  22.388   6.858   8.102
 2027POPC   C4B29854  22.453   6.872   7.672
 2028POPC   NC329855  20.083  10.027   9.566
 2028POPC   PO429856  20.013  10.733   9.453
 2028POPC   GL129857  19.714  10.624   9.104
 2028POPC   GL229858  19.574  10.301   9.080
 2028POPC   C1A29859  19.790  10.527   8.656
 2028POPC   D2A29860  19.941  10.795   8.317
 2028POPC   C3A29861  19.948  10.699   7.873
 2028POPC   C4A29862  20.168  10.377   7.727
 2028POPC   C1B29863  19.337  10.271   8.688
 2028POPC   C2B29864  19.382  10.167   8.244
 2028POPC   C3B29865  19.516  10.383   7.858
 2028POPC   C4B29866  19.736  10.367   7.443
 2029POPC   NC329867  40.304   1.288   9.419
 2029POPC   PO429868  39.628   1.313   9.477
 2029POPC   GL129869  39.869   1.358   9.128
 2029POPC   GL229870  39.971   1.041   9.032
 2029POPC   C1A29871  39.873   1.408   8.686
 2029POPC   D2A29872  39.989   1.327   8.271
 2029POPC   C3A29873  39.860   1.522   7.898
 2029POPC   C4A29874  40.047   1.445   7.508
 2029POPC   C1B29875  40.154   0.923   8.610
 2029POPC   C2B29876  40.177   0.888   8.148
 2029POPC   C3B29877  39.929   1.029   7.753
 2029POPC   C4B29878  39.773   1.069   7.275
 2030POPC   NC329879   7.621  42.124   9.595
 2030POPC   PO429880   7.510  42.784   9.565
 2030POPC   GL129881   7.568  42.469   9.245
 2030POPC   GL229882   7.335  42.296   9.111
 2030POPC   C1A29883   7.806  42.238   8.928
 2030POPC   D2A29884   7.848  42.265   8.501
 2030POPC   C3A29885   7.492  42.174   8.229
 2030POPC   C4A29886   7.526  42.218   7.766
 2030POPC   C1B29887   7.316  42.443   8.664
 2030POPC   C2B29888   7.214  42.600   8.236
 2030POPC   C3B29889   7.052  42.468   7.833
 2030POPC   C4B29890   7.198  42.407   7.426
 2031POPC   NC329891  21.856  42.717   9.356
 2031POPC   PO429892  22.177  42.276   9.777
 2031POPC   GL129893  22.120  42.264   9.275
 2031POPC   GL229894  22.231  42.549   9.039
 2031POPC   C1A29895  21.956  42.175   8.817
 2031POPC   D2A29896  21.756  42.272   8.398
 2031POPC   C3A29897  21.989  42.207   8.007
 2031POPC   C4A29898  22.119  42.295   7.577
 2031POPC   C1B29899  22.373  42.688   8.591
 2031POPC   C2B29900  22.465  42.569   8.129
 2031POPC   C3B29901  22.345  42.727   7.714
 2031POPC   C4B29902  22.333  42.593   7.231
 2032POPC   NC329903   5.260   6.598   9.538
 2032POPC   PO429904   4.775   6.309   9.235
 2032POPC   GL129905   5.024   6.592   9.066
 2032POPC   GL229906   5.385   6.509   9.060
 2032POPC   C1A29907   5.079   6.515   8.633
 2032POPC   D2A29908   5.298   6.334   8.307
 2032POPC   C3A29909   5.006   6.370   8.039
 2032POPC   C4A29910   4.799   6.755   7.963
 2032POPC   C1B29911   5.349   6.908   8.825
 2032POPC   C2B29912   5.396   6.850   8.388
 2032POPC   C3B29913   5.329   6.765   7.963
 2032POPC   C4B29914   5.392   6.830   7.559
 2033POPC   NC329915  42.860   3.801   9.589
 2033POPC   PO429916  43.127   3.277   9.824
 2033POPC   GL129917  43.137   3.488   9.307
 2033POPC   GL229918  42.891   3.734   9.086
 2033POPC   C1A29919  43.161   3.402   8.846
 2033POPC   D2A29920  43.183   3.370   8.409
 2033POPC   C3A29921  43.179   3.384   7.954
 2033POPC   C4A29922  43.411   3.636   7.671
 2033POPC   C1B29923  42.876   3.748   8.622
 2033POPC   C2B29924  42.825   3.658   8.190
 2033POPC   C3B29925  42.923   3.808   7.782
 2033POPC   C4B29926  42.971   3.664   7.353
 2034POPC   NC329927   4.657  16.045   9.607
 2034POPC   PO429928   4.030  16.039   9.499
 2034POPC   GL129929   4.321  15.816   9.261
 2034POPC   GL229930   4.427  16.136   9.135
 2034POPC   C1A29931   4.518  15.707   8.841
 2034POPC   D2A29932   4.614  15.781   8.417
 2034POPC   C3A29933   4.569  15.584   8.011
 2034POPC   C4A29934   4.690  15.927   7.743
 2034POPC   C1B29935   4.126  16.045   8.809
 2034POPC   C2B29936   4.028  16.106   8.379
 2034POPC   C3B29937   4.281  15.995   8.060
 2034POPC   C4B29938   4.172  15.788   7.712
 2035POPC   NC329939  39.689  28.099   9.572
 2035POPC   PO429940  40.178  28.541   9.470
 2035POPC   GL129941  40.002  28.619   9.083
 2035POPC   GL229942  39.696  28.429   9.152
 2035POPC   C1A29943  39.824  28.554   8.677
 2035POPC   D2A29944  39.919  28.370   8.290
 2035POPC   C3A29945  39.937  28.370   7.859
 2035POPC   C4A29946  40.291  28.196   7.730
 2035POPC   C1B29947  39.480  28.171   8.879
 2035POPC   C2B29948  39.488  28.154   8.451
 2035POPC   C3B29949  39.476  28.226   8.018
 2035POPC   C4B29950  39.296  27.928   7.757
 2036POPC   NC329951  18.027  31.197   9.465
 2036POPC   PO429952  18.299  31.775   9.439
 2036POPC   GL129953  18.212  31.549   9.048
 2036POPC   GL229954  17.903  31.392   9.026
 2036POPC   C1A29955  18.284  31.590   8.598
 2036POPC   D2A29956  18.267  31.711   8.159
 2036POPC   C3A29957  18.440  31.581   7.809
 2036POPC   C4A29958  18.313  31.342   7.431
 2036POPC   C1B29959  17.894  31.222   8.631
 2036POPC   C2B29960  18.068  31.228   8.232
 2036POPC   C3B29961  17.960  31.359   7.818
 2036POPC   C4B29962  17.798  31.296   7.390
 2037POPC   NC329963  12.970  14.394   9.870
 2037POPC   PO429964  12.382  14.365   9.567
 2037POPC   GL129965  12.735  14.426   9.227
 2037POPC   GL229966  12.857  14.117   9.095
 2037POPC   C1A29967  12.925  14.478   8.758
 2037POPC   D2A29968  13.103  14.148   8.429
 2037POPC   C3A29969  12.980  14.124   7.992
 2037POPC   C4A29970  13.129  14.343   7.639
 2037POPC   C1B29971  12.677  14.009   8.687
 2037POPC   C2B29972  12.538  14.077   8.241
 2037POPC   C3B29973  12.401  14.322   7.851
 2037POPC   C4B29974  12.583  14.385   7.410
 2038POPC   NC329975  23.043  15.612   9.617
 2038POPC   PO429976  22.737  16.271   9.446
 2038POPC   GL129977  22.898  15.990   9.135
 2038POPC   GL229978  22.738  15.696   9.212
 2038POPC   C1A29979  22.820  15.983   8.669
 2038POPC   D2A29980  22.676  16.248   8.323
 2038POPC   C3A29981  22.914  16.303   7.920
 2038POPC   C4A29982  23.074  15.889   7.783
 2038POPC   C1B29983  22.443  15.710   8.894
 2038POPC   C2B29984  22.420  15.639   8.451
 2038POPC   C3B29985  22.686  15.730   8.117
 2038POPC   C4B29986  22.675  15.594   7.675
 2039POPC   NC329987  14.343  43.741   9.770
 2039POPC   PO429988  14.523  43.127   9.670
 2039POPC   GL129989  14.390  43.021   9.226
 2039POPC   GL229990  14.416  43.344   9.190
 2039POPC   C1A29991  14.569  42.861   8.814
 2039POPC   D2A29992  14.691  42.948   8.396
 2039POPC   C3A29993  14.414  42.847   8.049
 2039POPC   C4A29994  14.635  42.770   7.688
 2039POPC   C1B29995  14.217  43.262   8.809
 2039POPC   C2B29996  14.250  43.199   8.396
 2039POPC   C3B29997  14.189  43.332   7.990
 2039POPC   C4B29998  14.281  43.149   7.633
 2040POPC   NC329999  38.826  29.725   9.581
 2040POPC   PO430000  38.420  30.256   9.490
 2040POPC   GL130001  38.312  30.002   9.131
 2040POPC   GL230002  38.348  29.624   9.193
 2040POPC   C1A30003  38.492  29.863   8.730
 2040POPC   D2A30004  38.383  29.678   8.365
 2040POPC   C3A30005  38.389  29.926   7.977
 2040POPC   C4A30006  38.117  29.880   7.653
 2040POPC   C1B30007  38.617  29.390   8.880
 2040POPC   C2B30008  38.698  29.288   8.415
 2040POPC   C3B30009  38.756  29.574   8.036
 2040POPC   C4B30010  38.576  29.602   7.606
 2041POPC   NC330011  31.816  21.186   9.909
 2041POPC   PO430012  31.243  21.484   9.609
 2041POPC   GL130013  31.394  21.320   9.202
 2041POPC   GL230014  31.681  21.208   9.264
 2041POPC   C1A30015  31.516  21.438   8.759
 2041POPC   D2A30016  31.293  21.495   8.350
 2041POPC   C3A30017  31.592  21.463   7.980
 2041POPC   C4A30018  31.736  21.468   7.533
 2041POPC   C1B30019  31.757  20.994   8.852
 2041POPC   C2B30020  31.849  21.171   8.436
 2041POPC   C3B30021  31.753  20.998   8.062
 2041POPC   C4B30022  31.959  21.046   7.737
 2042POPC   NC330023  25.117  37.714   9.699
 2042POPC   PO430024  25.575  37.502   9.251
 2042POPC   GL130025  25.286  37.735   9.024
 2042POPC   GL230026  25.116  38.022   9.172
 2042POPC   C1A30027  25.144  37.613   8.611
 2042POPC   D2A30028  25.082  37.240   8.351
 2042POPC   C3A30029  25.373  37.297   8.035
 2042POPC   C4A30030  25.509  37.321   7.634
 2042POPC   C1B30031  24.799  37.931   8.816
 2042POPC   C2B30032  24.732  37.863   8.377
 2042POPC   C3B30033  25.046  37.701   8.099
 2042POPC   C4B30034  25.242  37.758   7.712
 2043POPC   NC330035   8.008   4.042   9.348
 2043POPC   PO430036   7.334   4.258   9.590
 2043POPC   GL130037   7.221   4.183   9.183
 2043POPC   GL230038   7.573   4.182   9.115
 2043POPC   C1A30039   7.270   4.406   8.782
 2043POPC   D2A30040   7.421   4.521   8.362
 2043POPC   C3A30041   7.151   4.562   8.001
 2043POPC   C4A30042   7.304   4.416   7.613
 2043POPC   C1B30043   7.779   4.147   8.714
 2043POPC   C2B30044   7.866   3.967   8.311
 2043POPC   C3B30045   7.596   4.188   8.007
 2043POPC   C4B30046   7.199   4.021   7.885
 2044POPC   NC330047  25.652  34.669   9.374
 2044POPC   PO430048  25.036  34.743   9.528
 2044POPC   GL130049  25.167  34.694   9.102
 2044POPC   GL230050  25.380  34.961   9.023
 2044POPC   C1A30051  25.197  34.642   8.631
 2044POPC   D2A30052  25.085  34.725   8.194
 2044POPC   C3A30053  25.372  34.589   7.862
 2044POPC   C4A30054  25.566  34.254   7.622
 2044POPC   C1B30055  25.031  35.106   8.799
 2044POPC   C2B30056  24.766  35.044   8.457
 2044POPC   C3B30057  24.597  34.934   8.058
 2044POPC   C4B30058  24.850  34.767   7.724
 2045POPC   NC330059  27.977   4.922   9.420
 2045POPC   PO430060  27.631   5.382   9.609
 2045POPC   GL130061  27.518   5.262   9.216
 2045POPC   GL230062  27.242   5.061   9.329
 2045POPC   C1A30063  27.694   5.225   8.795
 2045POPC   D2A30064  27.898   5.247   8.384
 2045POPC   C3A30065  27.647   5.222   8.023
 2045POPC   C4A30066  27.678   5.139   7.581
 2045POPC   C1B30067  27.248   4.978   8.858
 2045POPC   C2B30068  27.424   4.953   8.430
 2045POPC   C3B30069  27.227   4.912   8.037
 2045POPC   C4B30070  27.190   5.073   7.618
 2046POPC   NC330071  11.927  40.615   9.612
 2046POPC   PO430072  12.105  41.262   9.814
 2046POPC   GL130073  12.119  41.169   9.337
 2046POPC   GL230074  12.312  40.864   9.181
 2046POPC   C1A30075  11.990  41.115   8.886
 2046POPC   D2A30076  11.878  40.832   8.512
 2046POPC   C3A30077  12.088  40.968   8.137
 2046POPC   C4A30078  12.045  41.083   7.727
 2046POPC   C1B30079  12.257  40.585   8.768
 2046POPC   C2B30080  12.251  40.498   8.272
 2046POPC   C3B30081  12.370  40.624   7.790
 2046POPC   C4B30082  12.577  40.656   7.339
 2047POPC   NC330083  18.561  17.231   9.531
 2047POPC   PO430084  18.121  17.710   9.359
 2047POPC   GL130085  18.280  17.330   9.098
 2047POPC   GL230086  18.662  17.219   9.039
 2047POPC   C1A30087  18.256  17.402   8.656
 2047POPC   D2A30088  18.123  17.794   8.449
 2047POPC   C3A30089  18.158  17.785   7.999
 2047POPC   C4A30090  18.136  17.382   7.788
 2047POPC   C1B30091  18.679  17.599   8.851
 2047POPC   C2B30092  18.640  17.701   8.409
 2047POPC   C3B30093  18.446  17.382   8.174
 2047POPC   C4B30094  18.578  17.125   7.800
 2048POPC   NC330095  20.776   0.883   9.814
 2048POPC   PO430096  20.329   1.294   9.559
 2048POPC   GL130097  20.302   1.161   9.126
 2048POPC   GL230098  20.643   1.047   9.055
 2048POPC   C1A30099  20.425   1.346   8.712
 2048POPC   D2A30100  20.472   1.125   8.367
 2048POPC   C3A30101  20.374   1.253   8.008
 2048POPC   C4A30102  20.490   1.534   7.749
 2048POPC   C1B30103  20.895   1.092   8.647
 2048POPC   C2B30104  20.931   0.998   8.165
 2048POPC   C3B30105  20.916   1.256   7.785
 2048POPC   C4B30106  21.098   1.300   7.339
 2049POPC   NC330107   6.681  29.622   9.494
 2049POPC   PO430108   6.978  28.988   9.544
 2049POPC   GL130109   6.849  29.234   9.208
 2049POPC   GL230110   7.119  29.514   9.229
 2049POPC   C1A30111   6.582  29.141   8.874
 2049POPC   D2A30112   6.464  28.860   8.553
 2049POPC   C3A30113   6.616  28.922   8.139
 2049POPC   C4A30114   6.561  29.152   7.728
 2049POPC   C1B30115   6.874  29.640   8.876
 2049POPC   C2B30116   6.692  29.492   8.527
 2049POPC   C3B30117   6.776  29.432   8.106
 2049POPC   C4B30118   6.772  29.639   7.758
 2050POPC   NC330119  41.747  44.969   9.484
 2050POPC   PO430120  41.652  44.316   9.504
 2050POPC   GL130121  41.625  44.603   9.154
 2050POPC   GL230122  41.351  44.797   9.172
 2050POPC   C1A30123  41.450  44.492   8.751
 2050POPC   D2A30124  41.672  44.480   8.392
 2050POPC   C3A30125  41.475  44.547   8.065
 2050POPC   C4A30126  41.628  44.685   7.674
 2050POPC   C1B30127  41.211  44.945   8.790
 2050POPC   C2B30128  41.236   0.021   8.340
 2050POPC   C3B30129  41.272  44.975   7.879
 2050POPC   C4B30130  41.295  44.936   7.387
 2051POPC   NC330131   1.820   5.586   9.416
 2051POPC   PO430132   2.281   5.123   9.359
 2051POPC   GL130133   1.878   5.103   9.152
 2051POPC   GL230134   1.646   4.800   9.213
 2051POPC   C1A30135   1.963   5.261   8.744
 2051POPC   D2A30136   2.239   5.074   8.429
 2051POPC   C3A30137   2.207   5.284   8.066
 2051POPC   C4A30138   2.249   5.162   7.669
 2051POPC   C1B30139   1.605   4.881   8.759
 2051POPC   C2B30140   1.692   5.079   8.343
 2051POPC   C3B30141   1.781   4.999   7.910
 2051POPC   C4B30142   1.779   5.154   7.468
 2052POPC   NC330143   4.702   5.860   9.174
 2052POPC   PO430144   4.158   5.647   9.578
 2052POPC   GL130145   4.203   5.737   9.167
 2052POPC   GL230146   4.255   6.113   9.259
 2052POPC   C1A30147   4.339   5.621   8.722
 2052POPC   D2A30148   4.555   5.965   8.519
 2052POPC   C3A30149   4.683   5.906   8.114
 2052POPC   C4A30150   4.502   5.786   7.689
 2052POPC   C1B30151   4.147   6.112   8.828
 2052POPC   C2B30152   4.001   5.908   8.456
 2052POPC   C3B30153   4.169   6.012   8.053
 2052POPC   C4B30154   4.116   6.130   7.616
 2053POPC   NC330155   4.404  15.309   9.570
 2053POPC   PO430156   4.368  14.676   9.506
 2053POPC   GL130157   4.297  14.987   9.117
 2053POPC   GL230158   4.293  15.332   9.092
 2053POPC   C1A30159   4.195  15.084   8.656
 2053POPC   D2A30160   4.423  15.144   8.256
 2053POPC   C3A30161   4.198  14.904   7.914
 2053POPC   C4A30162   4.304  14.788   7.474
 2053POPC   C1B30163   4.035  15.540   8.810
 2053POPC   C2B30164   4.151  15.597   8.379
 2053POPC   C3B30165   4.068  15.381   7.984
 2053POPC   C4B30166   4.306  15.307   7.583
 2054POPC   NC330167  26.932  39.107   9.624
 2054POPC   PO430168  26.703  39.795   9.435
 2054POPC   GL130169  26.613  39.512   9.112
 2054POPC   GL230170  26.630  39.144   9.156
 2054POPC   C1A30171  26.775  39.449   8.707
 2054POPC   D2A30172  27.059  39.387   8.362
 2054POPC   C3A30173  26.812  39.388   7.982
 2054POPC   C4A30174  27.040  39.457   7.627
 2054POPC   C1B30175  26.700  38.904   8.760
 2054POPC   C2B30176  26.767  38.968   8.327
 2054POPC   C3B30177  26.827  38.860   7.892
 2054POPC   C4B30178  26.734  39.065   7.529
 2055POPC   NC330179  15.234  35.907   9.438
 2055POPC   PO430180  15.604  36.409   9.230
 2055POPC   GL130181  15.182  36.407   9.122
 2055POPC   GL230182  15.295  36.103   8.963
 2055POPC   C1A30183  14.942  36.441   8.757
 2055POPC   D2A30184  15.151  36.267   8.411
 2055POPC   C3A30185  15.026  36.382   7.990
 2055POPC   C4A30186  15.393  36.231   7.796
 2055POPC   C1B30187  14.923  35.929   8.847
 2055POPC   C2B30188  14.853  35.817   8.441
 2055POPC   C3B30189  15.112  35.867   8.070
 2055POPC   C4B30190  14.941  35.941   7.687
 2056POPC   NC330191  33.945   0.955   9.527
 2056POPC   PO430192  33.357   0.920   9.309
 2056POPC   GL130193  33.596   1.097   9.054
 2056POPC   GL230194  33.858   1.247   9.127
 2056POPC   C1A30195  33.505   1.290   8.706
 2056POPC   D2A30196  33.706   0.994   8.449
 2056POPC   C3A30197  33.733   1.020   8.047
 2056POPC   C4A30198  33.572   1.311   7.824
 2056POPC   C1B30199  34.045   1.162   8.764
 2056POPC   C2B30200  34.207   1.166   8.363
 2056POPC   C3B30201  34.129   1.346   7.984
 2056POPC   C4B30202  33.992   1.134   7.608
 2057POPC   NC330203  20.850   8.747   9.397
 2057POPC   PO430204  20.144   8.604   9.429
 2057POPC   GL130205  20.415   8.736   9.150
 2057POPC   GL230206  20.350   9.037   9.180
 2057POPC   C1A30207  20.614   8.775   8.761
 2057POPC   D2A30208  20.507   8.907   8.382
 2057POPC   C3A30209  20.678   8.707   8.061
 2057POPC   C4A30210  20.744   8.897   7.670
 2057POPC   C1B30211  20.357   9.225   8.761
 2057POPC   C2B30212  20.315   9.369   8.327
 2057POPC   C3B30213  20.378   9.276   7.877
 2057POPC   C4B30214  20.185   9.443   7.480
 2058POPC   NC330215  10.122  29.672   9.389
 2058POPC   PO430216  10.763  29.530   9.409
 2058POPC   GL130217  10.563  29.842   9.133
 2058POPC   GL230218  10.243  29.816   8.933
 2058POPC   C1A30219  10.644  30.004   8.719
 2058POPC   D2A30220  10.331  29.903   8.420
 2058POPC   C3A30221  10.459  29.985   7.997
 2058POPC   C4A30222  10.193  30.173   7.664
 2058POPC   C1B30223  10.034  29.476   8.745
 2058POPC   C2B30224   9.898  29.423   8.358
 2058POPC   C3B30225  10.037  29.691   8.058
 2058POPC   C4B30226  10.268  29.598   7.720
 2059POPC   NC330227   7.845  22.665   9.314
 2059POPC   PO430228   8.019  22.016   9.325
 2059POPC   GL130229   8.018  22.292   9.029
 2059POPC   GL230230   8.305  22.447   9.182
 2059POPC   C1A30231   7.967  22.176   8.627
 2059POPC   D2A30232   8.114  21.871   8.383
 2059POPC   C3A30233   8.120  22.107   8.044
 2059POPC   C4A30234   8.249  22.064   7.678
 2059POPC   C1B30235   8.465  22.216   8.806
 2059POPC   C2B30236   8.435  22.349   8.378
 2059POPC   C3B30237   8.554  22.364   7.955
 2059POPC   C4B30238   8.842  22.322   7.638
 2060POPC   NC330239  28.105  19.947   9.627
 2060POPC   PO430240  28.252  19.355   9.440
 2060POPC   GL130241  28.315  19.737   9.191
 2060POPC   GL230242  28.651  19.931   9.221
 2060POPC   C1A30243  28.456  19.793   8.761
 2060POPC   D2A30244  28.669  19.659   8.384
 2060POPC   C3A30245  28.315  19.703   8.097
 2060POPC   C4A30246  28.266  19.735   7.640
 2060POPC   C1B30247  28.328  20.225   9.013
 2060POPC   C2B30248  28.105  20.390   8.650
 2060POPC   C3B30249  28.136  20.398   8.188
 2060POPC   C4B30250  28.319  20.192   7.834
 2061POPC   NC330251  40.616   0.549   9.451
 2061POPC   PO430252  41.241   0.214   9.487
 2061POPC   GL130253  40.894   0.135   9.162
 2061POPC   GL230254  40.511   0.195   9.107
 2061POPC   C1A30255  40.864   0.297   8.748
 2061POPC   D2A30256  41.049   0.496   8.416
 2061POPC   C3A30257  40.935   0.322   8.062
 2061POPC   C4A30258  40.881   0.488   7.717
 2061POPC   C1B30259  40.448   0.564   8.821
 2061POPC   C2B30260  40.539   0.533   8.401
 2061POPC   C3B30261  40.473   0.519   8.001
 2061POPC   C4B30262  40.408   0.155   7.861
 2062POPC   NC330263  20.288  24.352   9.719
 2062POPC   PO430264  19.744  23.932   9.676
 2062POPC   GL130265  19.717  24.301   9.307
 2062POPC   GL230266  19.710  24.664   9.197
 2062POPC   C1A30267  19.663  24.295   8.847
 2062POPC   D2A30268  19.890  24.492   8.533
 2062POPC   C3A30269  19.762  24.359   8.094
 2062POPC   C4A30270  19.928  24.491   7.695
 2062POPC   C1B30271  19.521  24.807   8.806
 2062POPC   C2B30272  19.464  24.692   8.365
 2062POPC   C3B30273  19.647  24.854   7.972
 2062POPC   C4B30274  19.617  24.854   7.485
 2063POPC   NC330275  15.102  14.191   9.484
 2063POPC   PO430276  15.553  14.501   9.283
 2063POPC   GL130277  15.368  14.289   9.019
 2063POPC   GL230278  15.082  14.484   9.031
 2063POPC   C1A30279  15.352  14.329   8.606
 2063POPC   D2A30280  15.126  14.384   8.273
 2063POPC   C3A30281  15.358  14.269   7.946
 2063POPC   C4A30282  15.206  14.384   7.564
 2063POPC   C1B30283  14.870  14.216   8.760
 2063POPC   C2B30284  14.729  14.050   8.373
 2063POPC   C3B30285  14.812  14.167   7.925
 2063POPC   C4B30286  14.872  13.946   7.545
 2064POPC   NC330287  34.475   3.672   9.780
 2064POPC   PO430288  34.741   3.318   9.331
 2064POPC   GL130289  34.366   3.606   9.217
 2064POPC   GL230290  34.392   3.339   8.960
 2064POPC   C1A30291  34.086   3.680   8.838
 2064POPC   D2A30292  34.229   3.430   8.489
 2064POPC   C3A30293  34.482   3.609   8.184
 2064POPC   C4A30294  34.447   3.670   7.745
 2064POPC   C1B30295  34.754   3.403   8.686
 2064POPC   C2B30296  34.963   3.541   8.347
 2064POPC   C3B30297  34.919   3.495   7.920
 2064POPC   C4B30298  34.904   3.730   7.534
 2065POPC   NC330299  21.780   9.050   9.527
 2065POPC   PO430300  22.479   8.812   9.443
 2065POPC   GL130301  22.324   8.830   9.046
 2065POPC   GL230302  21.987   8.812   9.102
 2065POPC   C1A30303  22.275   8.757   8.602
 2065POPC   D2A30304  22.232   9.086   8.293
 2065POPC   C3A30305  22.415   8.944   7.918
 2065POPC   C4A30306  22.272   8.861   7.500
 2065POPC   C1B30307  21.894   9.086   8.725
 2065POPC   C2B30308  21.705   8.937   8.325
 2065POPC   C3B30309  21.891   8.927   7.907
 2065POPC   C4B30310  21.951   9.303   7.661
 2066POPC   NC330311  12.521  26.567   9.340
 2066POPC   PO430312  11.906  26.500   9.394
 2066POPC   GL130313  12.052  26.856   9.193
 2066POPC   GL230314  11.765  27.053   9.118
 2066POPC   C1A30315  12.188  26.786   8.783
 2066POPC   D2A30316  12.213  26.405   8.577
 2066POPC   C3A30317  12.105  26.439   8.151
 2066POPC   C4A30318  12.240  26.715   7.831
 2066POPC   C1B30319  11.786  27.061   8.683
 2066POPC   C2B30320  11.992  26.981   8.289
 2066POPC   C3B30321  11.893  27.127   7.868
 2066POPC   C4B30322  11.804  26.870   7.490
 2067POPC   NC330323  38.470  11.625   9.787
 2067POPC   PO430324  38.515  12.227   9.458
 2067POPC   GL130325  38.315  12.057   9.089
 2067POPC   GL230326  38.566  11.940   8.876
 2067POPC   C1A30327  38.212  12.261   8.715
 2067POPC   D2A30328  38.413  12.160   8.358
 2067POPC   C3A30329  38.318  11.918   8.022
 2067POPC   C4A30330  38.138  12.106   7.667
 2067POPC   C1B30331  38.783  11.625   8.641
 2067POPC   C2B30332  39.006  11.608   8.241
 2067POPC   C3B30333  38.731  11.605   7.898
 2067POPC   C4B30334  38.602  11.892   7.575
 2068POPC   NC330335  14.145  29.363   9.455
 2068POPC   PO430336  14.654  29.014   9.554
 2068POPC   GL130337  14.399  28.959   9.160
 2068POPC   GL230338  14.195  28.646   9.168
 2068POPC   C1A30339  14.312  29.256   8.770
 2068POPC   D2A30340  14.511  29.434   8.355
 2068POPC   C3A30341  14.312  29.433   7.940
 2068POPC   C4A30342  14.256  29.236   7.545
 2068POPC   C1B30343  14.153  28.784   8.746
 2068POPC   C2B30344  14.369  28.920   8.378
 2068POPC   C3B30345  14.264  28.924   7.961
 2068POPC   C4B30346  14.148  28.696   7.626
 2069POPC   NC330347  25.124  17.161   9.833
 2069POPC   PO430348  25.455  16.717   9.507
 2069POPC   GL130349  25.272  16.622   9.128
 2069POPC   GL230350  25.066  16.937   9.163
 2069POPC   C1A30351  25.511  16.536   8.726
 2069POPC   D2A30352  25.438  16.287   8.319
 2069POPC   C3A30353  25.498  16.470   7.891
 2069POPC   C4A30354  25.188  16.487   7.526
 2069POPC   C1B30355  25.234  16.964   8.732
 2069POPC   C2B30356  25.391  16.824   8.326
 2069POPC   C3B30357  25.177  16.862   7.940
 2069POPC   C4B30358  25.391  16.936   7.599
 2070POPC   NC330359  19.294  20.341   9.531
 2070POPC   PO430360  18.686  20.086   9.592
 2070POPC   GL130361  18.869  20.318   9.196
 2070POPC   GL230362  19.060  20.672   9.191
 2070POPC   C1A30363  19.066  20.397   8.769
 2070POPC   D2A30364  19.116  20.653   8.392
 2070POPC   C3A30365  19.209  20.436   7.980
 2070POPC   C4A30366  18.964  20.277   7.629
 2070POPC   C1B30367  18.993  20.985   8.826
 2070POPC   C2B30368  18.832  21.087   8.386
 2070POPC   C3B30369  18.999  20.918   7.972
 2070POPC   C4B30370  19.136  20.775   7.538
 2071POPC   NC330371  16.063  19.482   9.513
 2071POPC   PO430372  15.803  20.087   9.293
 2071POPC   GL130373  15.967  19.744   9.081
 2071POPC   GL230374  16.324  19.748   9.171
 2071POPC   C1A30375  15.866  19.607   8.675
 2071POPC   D2A30376  15.842  19.913   8.350
 2071POPC   C3A30377  15.808  19.737   7.953
 2071POPC   C4A30378  16.005  19.999   7.691
 2071POPC   C1B30379  16.498  19.719   8.772
 2071POPC   C2B30380  16.337  19.661   8.378
 2071POPC   C3B30381  16.373  19.812   7.986
 2071POPC   C4B30382  16.279  19.566   7.632
 2072POPC   NC330383   8.494  41.699   9.538
 2072POPC   PO430384   7.955  41.237   9.635
 2072POPC   GL130385   8.035  41.527   9.254
 2072POPC   GL230386   8.376  41.417   9.116
 2072POPC   C1A30387   7.908  41.700   8.833
 2072POPC   D2A30388   8.074  41.437   8.487
 2072POPC   C3A30389   7.934  41.422   8.051
 2072POPC   C4A30390   8.114  41.472   7.637
 2072POPC   C1B30391   8.397  41.784   8.869
 2072POPC   C2B30392   8.306  41.884   8.438
 2072POPC   C3B30393   8.400  41.685   8.047
 2072POPC   C4B30394   8.503  41.824   7.629
 2073POPC   NC330395  37.694   2.334   9.755
 2073POPC   PO430396  37.549   2.854   9.366
 2073POPC   GL130397  37.752   2.908   8.995
 2073POPC   GL230398  37.488   2.855   8.745
 2073POPC   C1A30399  37.975   2.758   8.636
 2073POPC   D2A30400  37.759   2.785   8.267
 2073POPC   C3A30401  37.877   2.931   7.882
 2073POPC   C4A30402  37.875   2.786   7.478
 2073POPC   C1B30403  37.372   2.482   8.534
 2073POPC   C2B30404  37.596   2.290   8.193
 2073POPC   C3B30405  37.616   2.464   7.765
 2073POPC   C4B30406  37.429   2.578   7.343
 2074POPC   NC330407  12.634   9.201   9.465
 2074POPC   PO430408  13.146   8.819   9.378
 2074POPC   GL130409  12.696   8.828   9.140
 2074POPC   GL230410  12.459   8.522   9.209
 2074POPC   C1A30411  12.689   9.069   8.741
 2074POPC   D2A30412  13.122   9.022   8.567
 2074POPC   C3A30413  13.196   9.009   8.135
 2074POPC   C4A30414  13.024   9.004   7.715
 2074POPC   C1B30415  12.332   8.641   8.791
 2074POPC   C2B30416  12.415   8.776   8.369
 2074POPC   C3B30417  12.667   9.048   8.119
 2074POPC   C4B30418  12.550   9.177   7.703
 2075POPC   NC330419   4.436   1.749   9.551
 2075POPC   PO430420   4.007   2.235   9.588
 2075POPC   GL130421   4.289   2.155   9.203
 2075POPC   GL230422   4.578   1.918   9.098
 2075POPC   C1A30423   4.239   2.090   8.749
 2075POPC   D2A30424   4.381   2.105   8.326
 2075POPC   C3A30425   4.140   2.174   7.931
 2075POPC   C4A30426   4.314   2.317   7.560
 2075POPC   C1B30427   4.644   1.750   8.696
 2075POPC   C2B30428   4.828   1.858   8.292
 2075POPC   C3B30429   4.653   2.078   7.901
 2075POPC   C4B30430   4.563   1.871   7.490
 2076POPC   NC330431  25.078  35.204   9.506
 2076POPC   PO430432  25.685  35.129   9.387
 2076POPC   GL130433  25.436  35.456   9.192
 2076POPC   GL230434  25.080  35.522   9.127
 2076POPC   C1A30435  25.453  35.390   8.751
 2076POPC   D2A30436  25.422  35.097   8.433
 2076POPC   C3A30437  25.529  35.326   8.061
 2076POPC   C4A30438  25.507  35.062   7.701
 2076POPC   C1B30439  25.001  35.651   8.714
 2076POPC   C2B30440  25.083  35.474   8.327
 2076POPC   C3B30441  25.040  35.207   7.993
 2076POPC   C4B30442  24.766  35.272   7.689
 2077POPC   NC330443   9.637   1.415   9.876
 2077POPC   PO430444   9.863   2.085   9.703
 2077POPC   GL130445   9.873   2.032   9.226
 2077POPC   GL230446   9.645   2.206   9.082
 2077POPC   C1A30447   9.944   2.019   8.741
 2077POPC   D2A30448   9.819   2.118   8.334
 2077POPC   C3A30449   9.761   1.809   8.004
 2077POPC   C4A30450   9.779   2.047   7.584
 2077POPC   C1B30451   9.551   2.402   8.713
 2077POPC   C2B30452   9.328   2.247   8.369
 2077POPC   C3B30453   9.382   2.142   7.950
 2077POPC   C4B30454   9.272   2.182   7.521
 2078POPC   NC330455  19.073  40.347   9.400
 2078POPC   PO430456  18.801  39.733   9.425
 2078POPC   GL130457  19.016  39.912   9.092
 2078POPC   GL230458  19.360  39.910   9.202
 2078POPC   C1A30459  19.073  39.775   8.666
 2078POPC   D2A30460  18.962  39.942   8.253
 2078POPC   C3A30461  18.961  39.642   7.901
 2078POPC   C4A30462  19.152  39.732   7.514
 2078POPC   C1B30463  19.411  40.129   8.781
 2078POPC   C2B30464  19.475  40.083   8.325
 2078POPC   C3B30465  19.304  40.061   7.884
 2078POPC   C4B30466  19.401  40.182   7.445
 2079POPC   NC330467  14.023  39.706   9.513
 2079POPC   PO430468  13.386  39.927   9.676
 2079POPC   GL130469  13.581  39.904   9.279
 2079POPC   GL230470  13.504  39.594   9.157
 2079POPC   C1A30471  13.414  39.983   8.851
 2079POPC   D2A30472  13.561  40.014   8.439
 2079POPC   C3A30473  13.353  40.164   8.084
 2079POPC   C4A30474  13.450  40.392   7.716
 2079POPC   C1B30475  13.697  39.495   8.779
 2079POPC   C2B30476  13.619  39.522   8.337
 2079POPC   C3B30477  13.700  39.783   7.987
 2079POPC   C4B30478  14.000  39.690   7.730
 2080POPC   NC330479  24.238  22.718   9.320
 2080POPC   PO430480  24.236  22.143   9.683
 2080POPC   GL130481  24.405  22.072   9.268
 2080POPC   GL230482  24.174  22.241   9.119
 2080POPC   C1A30483  24.652  22.212   8.913
 2080POPC   D2A30484  24.683  22.166   8.470
 2080POPC   C3A30485  24.498  22.202   8.058
 2080POPC   C4A30486  24.569  22.018   7.640
 2080POPC   C1B30487  24.237  22.440   8.703
 2080POPC   C2B30488  24.039  22.554   8.308
 2080POPC   C3B30489  24.164  22.545   7.889
 2080POPC   C4B30490  24.134  22.259   7.542
 2081POPC   NC330491  25.347  41.251   9.571
 2081POPC   PO430492  25.425  41.876   9.493
 2081POPC   GL130493  25.503  41.574   9.171
 2081POPC   GL230494  25.295  41.303   9.071
 2081POPC   C1A30495  25.682  41.436   8.782
 2081POPC   D2A30496  25.593  41.276   8.404
 2081POPC   C3A30497  25.613  41.488   8.028
 2081POPC   C4A30498  25.399  41.513   7.630
 2081POPC   C1B30499  25.138  41.203   8.647
 2081POPC   C2B30500  25.126  41.389   8.230
 2081POPC   C3B30501  25.012  41.263   7.825
 2081POPC   C4B30502  24.922  41.592   7.476
 2082POPC   NC330503  25.444  42.335   9.476
 2082POPC   PO430504  24.976  42.753   9.322
 2082POPC   GL130505  25.144  42.412   9.038
 2082POPC   GL230506  25.229  42.064   9.080
 2082POPC   C1A30507  25.189  42.234   8.603
 2082POPC   D2A30508  25.459  42.314   8.258
 2082POPC   C3A30509  25.109  42.363   7.937
 2082POPC   C4A30510  24.872  42.164   7.576
 2082POPC   C1B30511  25.516  41.906   8.790
 2082POPC   C2B30512  25.416  41.788   8.387
 2082POPC   C3B30513  25.355  41.922   7.946
 2082POPC   C4B30514  25.603  42.295   7.748
 2083POPC   NC330515  38.717  40.412   9.480
 2083POPC   PO430516  38.858  39.699   9.494
 2083POPC   GL130517  38.557  39.846   9.170
 2083POPC   GL230518  38.484  40.191   9.098
 2083POPC   C1A30519  38.490  39.870   8.711
 2083POPC   D2A30520  38.745  39.946   8.346
 2083POPC   C3A30521  38.626  39.788   7.952
 2083POPC   C4A30522  38.876  39.629   7.623
 2083POPC   C1B30523  38.787  40.342   8.794
 2083POPC   C2B30524  38.963  40.400   8.365
 2083POPC   C3B30525  38.685  40.423   8.000
 2083POPC   C4B30526  38.280  40.218   7.933
 2084POPC   NC330527  27.401  20.815   9.551
 2084POPC   PO430528  27.793  20.282   9.437
 2084POPC   GL130529  27.696  20.633   9.184
 2084POPC   GL230530  27.337  20.673   9.064
 2084POPC   C1A30531  27.754  20.790   8.797
 2084POPC   D2A30532  27.705  20.611   8.414
 2084POPC   C3A30533  27.442  20.724   8.109
 2084POPC   C4A30534  27.720  20.530   7.839
 2084POPC   C1B30535  27.409  20.367   8.739
 2084POPC   C2B30536  27.218  20.263   8.371
 2084POPC   C3B30537  27.375  20.127   7.993
 2084POPC   C4B30538  27.395  20.260   7.570
 2085POPC   NC330539  22.457  25.324   9.518
 2085POPC   PO430540  21.803  25.100   9.520
 2085POPC   GL130541  22.016  25.323   9.172
 2085POPC   GL230542  22.276  25.555   9.075
 2085POPC   C1A30543  21.903  25.447   8.742
 2085POPC   D2A30544  21.915  25.173   8.373
 2085POPC   C3A30545  22.171  25.306   8.034
 2085POPC   C4A30546  22.046  25.626   7.753
 2085POPC   C1B30547  22.428  25.403   8.678
 2085POPC   C2B30548  22.636  25.396   8.289
 2085POPC   C3B30549  22.670  25.403   7.850
 2085POPC   C4B30550  22.511  25.679   7.546
 2086POPC   NC330551  39.004  20.177   9.774
 2086POPC   PO430552  39.410  20.718   9.911
 2086POPC   GL130553  39.387  20.596   9.389
 2086POPC   GL230554  39.641  20.692   9.093
 2086POPC   C1A30555  39.134  20.576   8.953
 2086POPC   D2A30556  39.024  20.350   8.527
 2086POPC   C3A30557  39.115  20.507   8.081
 2086POPC   C4A30558  38.978  20.678   7.656
 2086POPC   C1B30559  39.447  20.931   8.711
 2086POPC   C2B30560  39.339  20.955   8.244
 2086POPC   C3B30561  39.367  20.985   7.768
 2086POPC   C4B30562  39.227  20.959   7.307
 2087POPC   NC330563  34.056  19.675   9.501
 2087POPC   PO430564  33.914  20.249   9.099
 2087POPC   GL130565  33.784  19.807   9.073
 2087POPC   GL230566  33.434  19.721   9.155
 2087POPC   C1A30567  33.949  19.690   8.665
 2087POPC   D2A30568  34.114  19.923   8.324
 2087POPC   C3A30569  33.842  20.031   8.009
 2087POPC   C4A30570  34.066  20.064   7.670
 2087POPC   C1B30571  33.435  19.584   8.706
 2087POPC   C2B30572  33.585  19.653   8.267
 2087POPC   C3B30573  33.719  19.564   7.836
 2087POPC   C4B30574  33.514  19.412   7.451
 2088POPC   NC330575  39.780  28.815   9.489
 2088POPC   PO430576  39.883  29.439   9.488
 2088POPC   GL130577  40.043  29.168   9.170
 2088POPC   GL230578  40.315  29.385   9.152
 2088POPC   C1A30579  40.087  28.995   8.733
 2088POPC   D2A30580  39.969  28.872   8.288
 2088POPC   C3A30581  39.916  28.891   7.850
 2088POPC   C4A30582  39.762  28.670   7.484
 2088POPC   C1B30583  40.443  29.345   8.738
 2088POPC   C2B30584  40.260  29.302   8.309
 2088POPC   C3B30585  40.366  29.153   7.876
 2088POPC   C4B30586  40.280  29.187   7.416
 2089POPC   NC330587  24.323  19.973   9.565
 2089POPC   PO430588  24.906  20.156   9.269
 2089POPC   GL130589  24.513  19.913   9.092
 2089POPC   GL230590  24.219  19.675   9.174
 2089POPC   C1A30591  24.508  19.694   8.718
 2089POPC   D2A30592  24.657  19.819   8.336
 2089POPC   C3A30593  24.462  19.879   7.970
 2089POPC   C4A30594  24.723  20.000   7.600
 2089POPC   C1B30595  24.067  19.415   8.837
 2089POPC   C2B30596  24.225  19.403   8.388
 2089POPC   C3B30597  24.141  19.462   7.927
 2089POPC   C4B30598  24.396  19.613   7.548
 2090POPC   NC330599  38.312  33.390   9.558
 2090POPC   PO430600  38.589  32.726   9.581
 2090POPC   GL130601  38.444  32.935   9.214
 2090POPC   GL230602  38.774  32.992   9.006
 2090POPC   C1A30603  38.369  33.281   8.902
 2090POPC   D2A30604  38.643  33.298   8.547
 2090POPC   C3A30605  38.497  33.418   8.148
 2090POPC   C4A30606  38.219  33.227   7.849
 2090POPC   C1B30607  38.466  32.805   8.724
 2090POPC   C2B30608  38.338  32.953   8.334
 2090POPC   C3B30609  38.599  32.930   7.982
 2090POPC   C4B30610  38.323  32.740   7.679
 2091POPC   NC330611   7.763  27.411   9.643
 2091POPC   PO430612   8.495  27.320   9.675
 2091POPC   GL130613   8.429  27.674   9.361
 2091POPC   GL230614   8.088  27.557   9.258
 2091POPC   C1A30615   8.368  27.827   8.915
 2091POPC   D2A30616   8.308  27.651   8.493
 2091POPC   C3A30617   8.035  27.828   8.215
 2091POPC   C4A30618   8.122  27.823   7.793
 2091POPC   C1B30619   8.150  27.331   8.855
 2091POPC   C2B30620   7.930  27.235   8.465
 2091POPC   C3B30621   8.044  27.294   8.043
 2091POPC   C4B30622   8.361  27.346   7.741
 2092POPC   NC330623  31.745  24.410   9.519
 2092POPC   PO430624  31.336  24.717   9.736
 2092POPC   GL130625  31.393  24.748   9.277
 2092POPC   GL230626  31.084  24.724   9.087
 2092POPC   C1A30627  31.503  24.587   8.829
 2092POPC   D2A30628  31.423  24.338   8.422
 2092POPC   C3A30629  31.554  24.466   7.980
 2092POPC   C4A30630  31.460  24.605   7.536
 2092POPC   C1B30631  31.013  24.628   8.621
 2092POPC   C2B30632  31.117  24.679   8.167
 2092POPC   C3B30633  31.072  24.383   7.815
 2092POPC   C4B30634  30.992  24.405   7.362
 2093POPC   NC330635  28.152  23.235   9.912
 2093POPC   PO430636  28.526  23.453   9.449
 2093POPC   GL130637  28.253  23.537   9.120
 2093POPC   GL230638  28.485  23.821   9.020
 2093POPC   C1A30639  28.102  23.681   8.719
 2093POPC   D2A30640  28.161  23.929   8.360
 2093POPC   C3A30641  28.223  23.744   7.978
 2093POPC   C4A30642  28.329  23.946   7.643
 2093POPC   C1B30643  28.603  23.529   8.711
 2093POPC   C2B30644  28.631  23.586   8.281
 2093POPC   C3B30645  28.709  23.627   7.866
 2093POPC   C4B30646  29.062  23.650   7.621
 2094POPC   NC330647  38.432  17.054   9.407
 2094POPC   PO430648  38.168  16.493   9.588
 2094POPC   GL130649  38.485  16.503   9.263
 2094POPC   GL230650  38.478  16.180   9.075
 2094POPC   C1A30651  38.588  16.716   8.869
 2094POPC   D2A30652  38.570  16.601   8.459
 2094POPC   C3A30653  38.717  16.813   8.102
 2094POPC   C4A30654  38.535  16.848   7.684
 2094POPC   C1B30655  38.136  16.416   8.856
 2094POPC   C2B30656  38.047  16.618   8.452
 2094POPC   C3B30657  38.216  16.562   8.072
 2094POPC   C4B30658  38.002  16.399   7.738
 2095POPC   NC330659   6.274  32.925   9.453
 2095POPC   PO430660   6.788  33.277   9.499
 2095POPC   GL130661   6.649  33.080   9.129
 2095POPC   GL230662   6.391  33.319   9.135
 2095POPC   C1A30663   6.721  33.090   8.649
 2095POPC   D2A30664   6.781  33.153   8.194
 2095POPC   C3A30665   6.615  32.892   7.848
 2095POPC   C4A30666   6.690  32.968   7.397
 2095POPC   C1B30667   6.235  33.102   8.795
 2095POPC   C2B30668   6.274  33.232   8.380
 2095POPC   C3B30669   6.373  33.473   8.031
 2095POPC   C4B30670   6.337  33.270   7.654
 2096POPC   NC330671  28.391  34.692   9.353
 2096POPC   PO430672  28.644  34.160   9.563
 2096POPC   GL130673  28.365  34.210   9.157
 2096POPC   GL230674  28.007  34.353   9.244
 2096POPC   C1A30675  28.497  34.292   8.729
 2096POPC   D2A30676  28.525  34.419   8.263
 2096POPC   C3A30677  28.300  34.675   7.954
 2096POPC   C4A30678  28.487  34.681   7.529
 2096POPC   C1B30679  27.977  34.452   8.833
 2096POPC   C2B30680  28.073  34.282   8.472
 2096POPC   C3B30681  28.004  34.274   8.096
 2096POPC   C4B30682  27.957  34.377   7.720
 2097POPC   NC330683  18.732  28.179   9.304
 2097POPC   PO430684  19.320  28.390   9.425
 2097POPC   GL130685  19.122  28.480   9.056
 2097POPC   GL230686  18.892  28.715   9.199
 2097POPC   C1A30687  19.000  28.225   8.686
 2097POPC   D2A30688  18.711  28.112   8.376
 2097POPC   C3A30689  18.865  27.999   7.989
 2097POPC   C4A30690  19.140  28.194   7.702
 2097POPC   C1B30691  18.717  28.655   8.798
 2097POPC   C2B30692  18.978  28.675   8.432
 2097POPC   C3B30693  18.909  28.518   8.033
 2097POPC   C4B30694  19.023  28.742   7.694
 2098POPC   NC330695   9.397  33.505   9.467
 2098POPC   PO430696   8.938  33.501   9.903
 2098POPC   GL130697   8.963  33.760   9.381
 2098POPC   GL230698   9.009  33.510   9.142
 2098POPC   C1A30699   8.915  33.863   8.822
 2098POPC   D2A30700   8.633  33.626   8.491
 2098POPC   C3A30701   8.746  33.596   8.044
 2098POPC   C4A30702   8.888  33.859   7.715
 2098POPC   C1B30703   9.271  33.501   8.770
 2098POPC   C2B30704   9.123  33.470   8.353
 2098POPC   C3B30705   9.260  33.589   7.929
 2098POPC   C4B30706   9.294  33.667   7.455
 2099POPC   NC330707  37.072  14.596   9.685
 2099POPC   PO430708  36.451  14.644   9.458
 2099POPC   GL130709  36.739  14.458   9.181
 2099POPC   GL230710  37.092  14.550   9.175
 2099POPC   C1A30711  36.846  14.388   8.755
 2099POPC   D2A30712  36.720  14.539   8.358
 2099POPC   C3A30713  36.878  14.274   8.028
 2099POPC   C4A30714  36.767  13.965   7.741
 2099POPC   C1B30715  37.107  14.854   8.816
 2099POPC   C2B30716  37.170  14.915   8.386
 2099POPC   C3B30717  37.055  14.759   7.971
 2099POPC   C4B30718  37.229  14.458   7.679
 2100POPC   NC330719  32.422   1.772   9.521
 2100POPC   PO430720  31.896   2.156   9.533
 2100POPC   GL130721  32.078   2.024   9.141
 2100POPC   GL230722  32.412   2.092   9.120
 2100POPC   C1A30723  31.917   2.107   8.712
 2100POPC   D2A30724  31.743   1.964   8.335
 2100POPC   C3A30725  31.859   2.184   7.970
 2100POPC   C4A30726  32.091   2.137   7.570
 2100POPC   C1B30727  32.398   1.957   8.686
 2100POPC   C2B30728  32.282   2.077   8.267
 2100POPC   C3B30729  32.508   2.016   7.850
 2100POPC   C4B30730  32.604   1.691   7.536
 2101POPC   NC330731   6.898   8.526   9.419
 2101POPC   PO430732   6.295   8.172   9.486
 2101POPC   GL130733   6.397   8.198   9.073
 2101POPC   GL230734   6.349   8.547   8.988
 2101POPC   C1A30735   6.715   8.229   8.756
 2101POPC   D2A30736   6.621   8.348   8.345
 2101POPC   C3A30737   6.708   8.145   7.957
 2101POPC   C4A30738   6.565   8.269   7.525
 2101POPC   C1B30739   6.685   8.762   8.769
 2101POPC   C2B30740   6.943   8.743   8.446
 2101POPC   C3B30741   6.783   8.739   8.063
 2101POPC   C4B30742   6.930   8.536   7.753
 2102POPC   NC330743  28.180   4.784   9.894
 2102POPC   PO430744  28.336   5.445   9.720
 2102POPC   GL130745  28.315   5.259   9.250
 2102POPC   GL230746  28.594   5.083   9.123
 2102POPC   C1A30747  28.213   5.068   8.792
 2102POPC   D2A30748  28.387   4.894   8.396
 2102POPC   C3A30749  28.404   5.134   8.047
 2102POPC   C4A30750  28.094   5.034   7.827
 2102POPC   C1B30751  28.706   4.786   8.784
 2102POPC   C2B30752  28.859   4.694   8.342
 2102POPC   C3B30753  28.774   4.788   7.914
 2102POPC   C4B30754  28.469   4.872   7.551
 2103POPC   NC330755   2.430   4.699   9.528
 2103POPC   PO430756   2.639   4.030   9.374
 2103POPC   GL130757   2.882   4.250   9.114
 2103POPC   GL230758   2.623   4.520   9.066
 2103POPC   C1A30759   2.876   4.283   8.684
 2103POPC   D2A30760   2.773   4.198   8.282
 2103POPC   C3A30761   2.703   4.488   7.949
 2103POPC   C4A30762   2.857   4.283   7.565
 2103POPC   C1B30763   2.361   4.328   8.737
 2103POPC   C2B30764   2.248   4.176   8.311
 2103POPC   C3B30765   2.419   4.072   7.893
 2103POPC   C4B30766   2.370   4.316   7.488
 2104POPC   NC330767  26.142  22.988   9.353
 2104POPC   PO430768  25.813  22.496   9.537
 2104POPC   GL130769  25.759  22.688   9.107
 2104POPC   GL230770  25.653  23.015   9.169
 2104POPC   C1A30771  25.939  22.754   8.676
 2104POPC   D2A30772  26.273  22.745   8.355
 2104POPC   C3A30773  26.171  22.838   7.921
 2104POPC   C4A30774  26.331  23.066   7.571
 2104POPC   C1B30775  25.627  23.163   8.730
 2104POPC   C2B30776  25.548  23.055   8.289
 2104POPC   C3B30777  25.375  23.153   7.864
 2104POPC   C4B30778  25.456  22.942   7.443
 2105POPC   NC330779  16.343   7.103   9.451
 2105POPC   PO430780  15.634   7.269   9.474
 2105POPC   GL130781  15.938   7.372   9.165
 2105POPC   GL230782  16.092   7.066   8.989
 2105POPC   C1A30783  15.898   7.465   8.725
 2105POPC   D2A30784  15.874   7.173   8.369
 2105POPC   C3A30785  15.857   7.401   7.977
 2105POPC   C4A30786  16.145   7.486   7.650
 2105POPC   C1B30787  15.615   7.058   8.839
 2105POPC   C2B30788  15.346   7.001   8.455
 2105POPC   C3B30789  15.400   7.147   8.014
 2105POPC   C4B30790  15.628   7.092   7.626
 2106POPC   NC330791  12.236   0.277   9.403
 2106POPC   PO430792  11.802   0.696   9.686
 2106POPC   GL130793  11.963   0.673   9.213
 2106POPC   GL230794  11.705   0.615   9.029
 2106POPC   C1A30795  12.117   0.405   8.791
 2106POPC   D2A30796  12.400   0.264   8.455
 2106POPC   C3A30797  12.194   0.323   8.070
 2106POPC   C4A30798  12.215   0.536   7.684
 2106POPC   C1B30799  11.593   0.359   8.701
 2106POPC   C2B30800  11.807   0.447   8.378
 2106POPC   C3B30801  11.807   0.667   8.032
 2106POPC   C4B30802  11.694   0.609   7.650
 2107POPC   NC330803  21.767   4.900   9.662
 2107POPC   PO430804  22.191   5.493   9.546
 2107POPC   GL130805  22.103   5.293   9.197
 2107POPC   GL230806  21.855   5.505   9.018
 2107POPC   C1A30807  22.368   5.066   8.943
 2107POPC   D2A30808  22.223   4.958   8.565
 2107POPC   C3A30809  22.379   4.859   8.212
 2107POPC   C4A30810  22.223   4.955   7.829
 2107POPC   C1B30811  22.183   5.463   8.690
 2107POPC   C2B30812  22.350   5.366   8.233
 2107POPC   C3B30813  22.421   5.429   7.778
 2107POPC   C4B30814  22.185   5.555   7.412
 2108POPC   NC330815  38.069  24.750   9.545
 2108POPC   PO430816  37.477  24.354   9.729
 2108POPC   GL130817  37.502  24.341   9.296
 2108POPC   GL230818  37.684  24.647   9.241
 2108POPC   C1A30819  37.636  24.304   8.870
 2108POPC   D2A30820  37.481  24.367   8.469
 2108POPC   C3A30821  37.702  24.264   8.127
 2108POPC   C4A30822  37.630  24.431   7.726
 2108POPC   C1B30823  37.835  24.769   8.848
 2108POPC   C2B30824  37.916  24.648   8.430
 2108POPC   C3B30825  37.716  24.775   8.083
 2108POPC   C4B30826  37.823  24.937   7.718
 2109POPC   NC330827  20.019  14.310   9.497
 2109POPC   PO430828  19.339  14.546   9.389
 2109POPC   GL130829  19.626  14.240   9.144
 2109POPC   GL230830  19.980  14.037   9.087
 2109POPC   C1A30831  19.754  14.360   8.775
 2109POPC   D2A30832  19.678  14.584   8.461
 2109POPC   C3A30833  19.792  14.591   8.066
 2109POPC   C4A30834  19.650  14.453   7.663
 2109POPC   C1B30835  20.249  14.279   8.811
 2109POPC   C2B30836  20.120  14.322   8.416
 2109POPC   C3B30837  20.071  14.177   8.029
 2109POPC   C4B30838  20.150  14.442   7.688
 2110POPC   NC330839  36.071  36.488  10.058
 2110POPC   PO430840  36.197  36.099   9.472
 2110POPC   GL130841  36.363  36.253   9.082
 2110POPC   GL230842  36.115  36.475   8.978
 2110POPC   C1A30843  36.504  36.064   8.676
 2110POPC   D2A30844  36.370  35.922   8.273
 2110POPC   C3A30845  36.449  36.144   7.892
 2110POPC   C4A30846  36.133  36.210   7.601
 2110POPC   C1B30847  36.070  36.315   8.573
 2110POPC   C2B30848  36.026  36.298   8.129
 2110POPC   C3B30849  35.760  36.488   7.842
 2110POPC   C4B30850  35.578  36.357   7.449
 2111POPC   NC330851  26.760  10.559   9.557
 2111POPC   PO430852  26.713   9.958   9.291
 2111POPC   GL130853  26.708  10.229   8.987
 2111POPC   GL230854  26.905  10.475   9.093
 2111POPC   C1A30855  26.511  10.461   8.655
 2111POPC   D2A30856  26.383  10.737   8.329
 2111POPC   C3A30857  26.508  10.636   7.955
 2111POPC   C4A30858  26.643  10.311   7.725
 2111POPC   C1B30859  27.004  10.559   8.709
 2111POPC   C2B30860  26.876  10.590   8.324
 2111POPC   C3B30861  27.027  10.548   7.961
 2111POPC   C4B30862  27.171  10.894   7.793
 2112POPC   NC330863  14.983  19.025   9.499
 2112POPC   PO430864  15.637  19.296   9.462
 2112POPC   GL130865  15.349  19.138   9.128
 2112POPC   GL230866  15.043  18.934   9.031
 2112POPC   C1A30867  15.232  19.266   8.700
 2112POPC   D2A30868  15.003  19.341   8.320
 2112POPC   C3A30869  15.259  19.340   7.937
 2112POPC   C4A30870  15.001  19.287   7.572
 2112POPC   C1B30871  15.338  18.722   8.793
 2112POPC   C2B30872  15.281  18.863   8.384
 2112POPC   C3B30873  15.033  18.911   8.029
 2112POPC   C4B30874  15.260  18.845   7.631
 2113POPC   NC330875   9.513  23.210   9.576
 2113POPC   PO430876   9.864  22.699   9.673
 2113POPC   GL130877   9.805  22.937   9.269
 2113POPC   GL230878   9.659  22.676   9.093
 2113POPC   C1A30879   9.600  23.108   8.858
 2113POPC   D2A30880   9.599  22.784   8.507
 2113POPC   C3A30881   9.347  22.834   8.158
 2113POPC   C4A30882   9.478  23.110   7.838
 2113POPC   C1B30883  10.020  22.834   8.789
 2113POPC   C2B30884  10.053  22.931   8.293
 2113POPC   C3B30885   9.960  22.857   7.826
 2113POPC   C4B30886  10.091  22.792   7.360
 2114POPC   NC330887  33.452  41.368   9.400
 2114POPC   PO430888  34.184  41.361   9.566
 2114POPC   GL130889  34.027  41.611   9.171
 2114POPC   GL230890  33.671  41.650   9.051
 2114POPC   C1A30891  33.999  41.594   8.692
 2114POPC   D2A30892  33.749  41.375   8.405
 2114POPC   C3A30893  33.898  41.320   8.008
 2114POPC   C4A30894  33.904  41.331   7.578
 2114POPC   C1B30895  33.579  41.872   8.654
 2114POPC   C2B30896  33.815  41.874   8.273
 2114POPC   C3B30897  33.740  41.783   7.818
 2114POPC   C4B30898  33.634  41.715   7.350
 2115POPC   NC330899  41.246  44.107   9.416
 2115POPC   PO430900  41.475  43.595   9.675
 2115POPC   GL130901  41.618  43.825   9.191
 2115POPC   GL230902  41.583  44.118   9.049
 2115POPC   C1A30903  41.521  43.767   8.718
 2115POPC   D2A30904  41.438  44.031   8.388
 2115POPC   C3A30905  41.469  43.786   8.052
 2115POPC   C4A30906  41.453  43.586   7.696
 2115POPC   C1B30907  41.923  44.063   8.804
 2115POPC   C2B30908  42.095  44.206   8.427
 2115POPC   C3B30909  41.850  44.137   8.052
 2115POPC   C4B30910  41.585  44.171   7.718
 2116POPC   NC330911  24.029  16.830   9.324
 2116POPC   PO430912  23.476  16.508   9.248
 2116POPC   GL130913  23.629  16.864   9.024
 2116POPC   GL230914  23.556  17.202   9.107
 2116POPC   C1A30915  23.869  16.988   8.681
 2116POPC   D2A30916  23.721  16.820   8.314
 2116POPC   C3A30917  23.938  16.504   8.054
 2116POPC   C4A30918  24.042  16.604   7.615
 2116POPC   C1B30919  23.347  17.147   8.701
 2116POPC   C2B30920  23.094  17.273   8.360
 2116POPC   C3B30921  23.364  17.092   8.058
 2116POPC   C4B30922  23.652  16.851   7.814
 2117POPC   NC330923  23.889  11.103   9.506
 2117POPC   PO430924  23.462  11.564   9.723
 2117POPC   GL130925  23.702  11.440   9.210
 2117POPC   GL230926  23.848  11.089   9.019
 2117POPC   C1A30927  23.668  11.490   8.744
 2117POPC   D2A30928  23.481  11.449   8.341
 2117POPC   C3A30929  23.768  11.533   7.997
 2117POPC   C4A30930  23.717  11.359   7.596
 2117POPC   C1B30931  23.892  11.046   8.576
 2117POPC   C2B30932  23.747  11.036   8.167
 2117POPC   C3B30933  24.028  11.076   7.853
 2117POPC   C4B30934  24.462  11.005   7.730
 2118POPC   NC330935  12.134  14.798   9.498
 2118POPC   PO430936  12.557  15.323   9.338
 2118POPC   GL130937  12.330  15.087   9.042
 2118POPC   GL230938  11.967  15.029   9.063
 2118POPC   C1A30939  12.242  15.091   8.600
 2118POPC   D2A30940  12.264  15.166   8.185
 2118POPC   C3A30941  12.330  14.833   7.912
 2118POPC   C4A30942  12.174  14.713   7.505
 2118POPC   C1B30943  11.841  15.352   8.760
 2118POPC   C2B30944  11.749  15.317   8.302
 2118POPC   C3B30945  11.818  15.158   7.864
 2118POPC   C4B30946  11.574  15.287   7.487
 2119POPC   NC330947  16.904  14.403   9.721
 2119POPC   PO430948  16.494  14.752   9.403
 2119POPC   GL130949  16.816  14.530   9.145
 2119POPC   GL230950  16.751  14.198   9.252
 2119POPC   C1A30951  16.979  14.443   8.705
 2119POPC   D2A30952  16.710  14.550   8.361
 2119POPC   C3A30953  16.814  14.538   7.931
 2119POPC   C4A30954  17.041  14.259   7.676
 2119POPC   C1B30955  16.632  14.115   8.812
 2119POPC   C2B30956  16.796  14.017   8.401
 2119POPC   C3B30957  16.693  14.027   7.978
 2119POPC   C4B30958  16.803  13.807   7.621
 2120POPC   NC330959  20.055   9.027   9.591
 2120POPC   PO430960  19.569   8.497   9.586
 2120POPC   GL130961  19.634   8.824   9.284
 2120POPC   GL230962  19.892   8.860   9.094
 2120POPC   C1A30963  19.502   8.930   8.807
 2120POPC   D2A30964  19.722   9.254   8.574
 2120POPC   C3A30965  19.671   9.241   8.125
 2120POPC   C4A30966  19.848   9.132   7.724
 2120POPC   C1B30967  20.091   8.809   8.725
 2120POPC   C2B30968  19.980   8.843   8.329
 2120POPC   C3B30969  20.194   8.822   7.971
 2120POPC   C4B30970  20.259   8.917   7.531
 2121POPC   NC330971  37.081  19.155   9.642
 2121POPC   PO430972  36.807  18.721   9.341
 2121POPC   GL130973  37.117  18.942   9.119
 2121POPC   GL230974  37.068  19.305   9.149
 2121POPC   C1A30975  37.057  18.814   8.690
 2121POPC   D2A30976  36.664  18.785   8.417
 2121POPC   C3A30977  36.826  18.815   7.962
 2121POPC   C4A30978  36.854  18.774   7.489
 2121POPC   C1B30979  36.862  19.295   8.766
 2121POPC   C2B30980  36.975  19.174   8.344
 2121POPC   C3B30981  37.161  19.248   7.945
 2121POPC   C4B30982  37.078  19.478   7.601
 2122POPC   NC330983  34.235  18.260   9.538
 2122POPC   PO430984  34.832  18.444   9.558
 2122POPC   GL130985  34.522  18.498   9.188
 2122POPC   GL230986  34.330  18.173   9.056
 2122POPC   C1A30987  34.487  18.520   8.744
 2122POPC   D2A30988  34.674  18.293   8.437
 2122POPC   C3A30989  34.666  18.452   8.036
 2122POPC   C4A30990  34.620  18.376   7.609
 2122POPC   C1B30991  34.323  17.931   8.656
 2122POPC   C2B30992  34.323  17.980   8.189
 2122POPC   C3B30993  34.427  17.708   7.828
 2122POPC   C4B30994  34.468  17.926   7.421
 2123POPC   NC330995  37.203  18.487   9.362
 2123POPC   PO430996  37.790  18.053   9.510
 2123POPC   GL130997  37.650  18.183   9.141
 2123POPC   GL230998  37.700  18.496   9.251
 2123POPC   C1A30999  37.588  18.382   8.742
 2123POPC   D2A31000  37.436  18.284   8.336
 2123POPC   C3A31001  37.630  17.936   8.125
 2123POPC   C4A31002  37.716  18.268   7.868
 2123POPC   C1B31003  37.997  18.655   8.946
 2123POPC   C2B31004  38.056  18.723   8.522
 2123POPC   C3B31005  37.830  18.671   8.159
 2123POPC   C4B31006  37.984  18.671   7.728
 2124POPC   NC331007  39.670  12.319   9.483
 2124POPC   PO431008  40.335  12.292   9.604
 2124POPC   GL131009  40.279  12.094   9.201
 2124POPC   GL231010  39.913  12.005   9.122
 2124POPC   C1A31011  40.322  11.809   8.848
 2124POPC   D2A31012  40.394  11.991   8.431
 2124POPC   C3A31013  40.140  11.905   8.072
 2124POPC   C4A31014  39.822  12.088   7.823
 2124POPC   C1B31015  39.918  12.061   8.655
 2124POPC   C2B31016  39.749  12.277   8.296
 2124POPC   C3B31017  39.494  12.458   7.941
 2124POPC   C4B31018  39.573  12.463   7.500
 2125POPC   NC331019  13.748  10.950   9.563
 2125POPC   PO431020  13.190  11.358   9.456
 2125POPC   GL131021  13.489  11.306   9.153
 2125POPC   GL231022  13.710  11.588   9.058
 2125POPC   C1A31023  13.601  11.131   8.780
 2125POPC   D2A31024  13.913  11.149   8.487
 2125POPC   C3A31025  13.808  11.355   8.165
 2125POPC   C4A31026  13.825  11.221   7.799
 2125POPC   C1B31027  13.722  11.609   8.624
 2125POPC   C2B31028  13.465  11.725   8.286
 2125POPC   C3B31029  13.484  11.638   7.851
 2125POPC   C4B31030  13.289  11.637   7.425
 2126POPC   NC331031  31.082   4.073   9.549
 2126POPC   PO431032  30.549   4.386   9.736
 2126POPC   GL131033  30.616   4.310   9.303
 2126POPC   GL231034  30.953   4.329   9.126
 2126POPC   C1A31035  30.531   4.371   8.859
 2126POPC   D2A31036  30.578   4.551   8.469
 2126POPC   C3A31037  30.606   4.339   8.069
 2126POPC   C4A31038  30.378   4.332   7.674
 2126POPC   C1B31039  31.027   4.506   8.692
 2126POPC   C2B31040  31.022   4.601   8.227
 2126POPC   C3B31041  31.002   4.522   7.769
 2126POPC   C4B31042  31.217   4.211   7.485
 2127POPC   NC331043  11.286  11.335   9.643
 2127POPC   PO431044  11.286  10.642   9.628
 2127POPC   GL131045  11.361  10.990   9.260
 2127POPC   GL231046  11.097  11.197   9.189
 2127POPC   C1A31047  11.484  11.008   8.812
 2127POPC   D2A31048  11.343  10.868   8.384
 2127POPC   C3A31049  11.539  11.182   8.131
 2127POPC   C4A31050  11.558  11.472   7.812
 2127POPC   C1B31051  10.993  11.150   8.789
 2127POPC   C2B31052  11.157  11.335   8.458
 2127POPC   C3B31053  11.175  11.571   8.130
 2127POPC   C4B31054  11.063  11.692   7.726
 2128POPC   NC331055   5.219   7.737   9.413
 2128POPC   PO431056   5.114   7.050   9.572
 2128POPC   GL131057   4.978   7.303   9.225
 2128POPC   GL231058   5.339   7.343   9.113
 2128POPC   C1A31059   4.959   7.454   8.781
 2128POPC   D2A31060   5.238   7.346   8.412
 2128POPC   C3A31061   5.046   7.266   7.966
 2128POPC   C4A31062   4.901   7.487   7.556
 2128POPC   C1B31063   5.464   7.666   8.782
 2128POPC   C2B31064   5.696   7.636   8.402
 2128POPC   C3B31065   5.415   7.679   8.052
 2128POPC   C4B31066   5.397   7.480   7.655
 2129POPC   NC331067  35.715  39.805   9.567
 2129POPC   PO431068  36.331  40.021   9.834
 2129POPC   GL131069  36.362  40.024   9.347
 2129POPC   GL231070  36.032  40.101   9.283
 2129POPC   C1A31071  36.465  40.217   8.924
 2129POPC   D2A31072  36.563  40.034   8.508
 2129POPC   C3A31073  36.432  40.190   8.118
 2129POPC   C4A31074  36.389  39.963   7.745
 2129POPC   C1B31075  35.852  39.984   8.909
 2129POPC   C2B31076  35.813  40.133   8.502
 2129POPC   C3B31077  35.967  39.953   8.126
 2129POPC   C4B31078  35.923  40.128   7.719
 2130POPC   NC331079  41.053  31.218   9.538
 2130POPC   PO431080  40.495  31.614   9.541
 2130POPC   GL131081  40.766  31.510   9.221
 2130POPC   GL231082  40.666  31.173   9.128
 2130POPC   C1A31083  41.048  31.435   8.870
 2130POPC   D2A31084  41.019  31.208   8.457
 2130POPC   C3A31085  41.021  31.399   8.009
 2130POPC   C4A31086  41.076  31.610   7.550
 2130POPC   C1B31087  40.560  31.422   8.749
 2130POPC   C2B31088  40.571  31.570   8.337
 2130POPC   C3B31089  40.599  31.647   7.890
 2130POPC   C4B31090  40.707  31.294   7.622
 2131POPC   NC331091  28.496   0.278   9.618
 2131POPC   PO431092  27.768   0.377   9.778
 2131POPC   GL131093  28.075   0.377   9.346
 2131POPC   GL231094  28.090   0.095   9.087
 2131POPC   C1A31095  28.410   0.485   8.979
 2131POPC   D2A31096  28.394   0.784   8.589
 2131POPC   C3A31097  28.394   0.624   8.148
 2131POPC   C4A31098  28.581   0.342   7.859
 2131POPC   C1B31099  28.330   0.042   8.686
 2131POPC   C2B31100  28.394  44.854   8.261
 2131POPC   C3B31101  28.191  44.967   7.871
 2131POPC   C4B31102  27.887   0.312   7.743
 2132POPC   NC331103  12.360   7.629   9.489
 2132POPC   PO431104  11.870   7.192   9.457
 2132POPC   GL131105  12.032   7.447   9.150
 2132POPC   GL231106  12.345   7.338   9.080
 2132POPC   C1A31107  11.867   7.639   8.790
 2132POPC   D2A31108  11.845   7.574   8.351
 2132POPC   C3A31109  12.146   7.739   8.089
 2132POPC   C4A31110  12.132   7.517   7.733
 2132POPC   C1B31111  12.423   7.443   8.683
 2132POPC   C2B31112  12.281   7.276   8.300
 2132POPC   C3B31113  12.436   7.123   7.908
 2132POPC   C4B31114  12.519   7.284   7.505
 2133POPC   NC331115  43.376   1.984   9.852
 2133POPC   PO431116  43.926   2.348   9.499
 2133POPC   GL131117  44.011   2.094   9.129
 2133POPC   GL231118  43.890   1.769   9.130
 2133POPC   C1A31119  44.062   2.261   8.691
 2133POPC   D2A31120  43.883   2.182   8.353
 2133POPC   C3A31121  44.013   2.325   8.019
 2133POPC   C4A31122  44.015   2.171   7.607
 2133POPC   C1B31123  43.902   1.787   8.713
 2133POPC   C2B31124  43.733   1.708   8.341
 2133POPC   C3B31125  43.908   1.818   7.968
 2133POPC   C4B31126  43.897   1.600   7.611
 2134POPC   NC331127   2.070   8.732   9.499
 2134POPC   PO431128   1.777   9.371   9.342
 2134POPC   GL131129   2.051   9.303   9.028
 2134POPC   GL231130   2.250   9.002   9.096
 2134POPC   C1A31131   2.044   9.245   8.600
 2134POPC   D2A31132   2.226   9.233   8.220
 2134POPC   C3A31133   2.006   8.975   7.992
 2134POPC   C4A31134   1.908   9.266   7.721
 2134POPC   C1B31135   1.881   8.835   8.863
 2134POPC   C2B31136   1.788   8.791   8.440
 2134POPC   C3B31137   1.614   8.656   8.069
 2134POPC   C4B31138   1.556   8.903   7.681
 2135POPC   NC331139  38.531  31.477   9.514
 2135POPC   PO431140  37.889  31.476   9.579
 2135POPC   GL131141  38.163  31.505   9.150
 2135POPC   GL231142  38.475  31.755   9.050
 2135POPC   C1A31143  38.340  31.358   8.769
 2135POPC   D2A31144  38.528  31.580   8.437
 2135POPC   C3A31145  38.398  31.414   8.055
 2135POPC   C4A31146  38.528  31.478   7.654
 2135POPC   C1B31147  38.163  31.859   8.688
 2135POPC   C2B31148  38.042  31.768   8.216
 2135POPC   C3B31149  38.110  31.777   7.737
 2135POPC   C4B31150  38.352  31.774   7.289
 2136POPC   NC331151  20.213  20.373   9.446
 2136POPC   PO431152  19.608  20.669   9.576
 2136POPC   GL131153  19.718  20.624   9.194
 2136POPC   GL231154  19.493  20.370   9.060
 2136POPC   C1A31155  19.954  20.500   8.843
 2136POPC   D2A31156  20.069  20.667   8.475
 2136POPC   C3A31157  19.877  20.539   8.103
 2136POPC   C4A31158  19.970  20.739   7.718
 2136POPC   C1B31159  19.473  20.753   8.767
 2136POPC   C2B31160  19.593  20.883   8.344
 2136POPC   C3B31161  19.509  20.867   7.897
 2136POPC   C4B31162  19.599  20.974   7.437
 2137POPC   NC331163  15.706  26.138   9.771
 2137POPC   PO431164  16.348  26.197   9.520
 2137POPC   GL131165  16.103  25.984   9.197
 2137POPC   GL231166  15.780  26.083   9.108
 2137POPC   C1A31167  16.080  25.959   8.726
 2137POPC   D2A31168  16.104  26.315   8.405
 2137POPC   C3A31169  16.097  26.214   8.003
 2137POPC   C4A31170  16.004  26.156   7.607
 2137POPC   C1B31171  15.569  25.869   8.730
 2137POPC   C2B31172  15.440  25.708   8.327
 2137POPC   C3B31173  15.597  25.889   7.913
 2137POPC   C4B31174  15.575  25.880   7.472
 2138POPC   NC331175  17.375  16.538   9.592
 2138POPC   PO431176  17.866  16.908   9.305
 2138POPC   GL131177  17.501  16.648   9.108
 2138POPC   GL231178  17.198  16.385   9.157
 2138POPC   C1A31179  17.526  16.755   8.678
 2138POPC   D2A31180  17.770  16.833   8.340
 2138POPC   C3A31181  17.638  16.654   7.965
 2138POPC   C4A31182  17.408  16.867   7.670
 2138POPC   C1B31183  17.391  16.270   8.779
 2138POPC   C2B31184  17.244  16.450   8.376
 2138POPC   C3B31185  17.105  16.511   7.960
 2138POPC   C4B31186  17.351  16.364   7.640
 2139POPC   NC331187  15.430  28.002   9.366
 2139POPC   PO431188  15.047  27.436   9.467
 2139POPC   GL131189  15.020  27.423   9.054
 2139POPC   GL231190  15.160  27.756   8.991
 2139POPC   C1A31191  15.199  27.330   8.684
 2139POPC   D2A31192  15.333  27.536   8.320
 2139POPC   C3A31193  15.250  27.330   7.969
 2139POPC   C4A31194  15.293  27.450   7.549
 2139POPC   C1B31195  14.883  27.712   8.634
 2139POPC   C2B31196  14.849  27.600   8.227
 2139POPC   C3B31197  15.124  27.813   7.931
 2139POPC   C4B31198  15.043  27.891   7.506
 2140POPC   NC331199  19.836  33.197   9.452
 2140POPC   PO431200  20.354  32.789   9.275
 2140POPC   GL131201  19.927  32.807   9.076
 2140POPC   GL231202  19.547  32.904   9.123
 2140POPC   C1A31203  19.875  32.812   8.624
 2140POPC   D2A31204  19.824  33.067   8.254
 2140POPC   C3A31205  20.147  33.150   7.941
 2140POPC   C4A31206  20.146  33.020   7.505
 2140POPC   C1B31207  19.468  33.107   8.736
 2140POPC   C2B31208  19.377  33.273   8.350
 2140POPC   C3B31209  19.367  33.118   7.994
 2140POPC   C4B31210  19.676  33.129   7.715
 2141POPC   NC331211  37.166  30.210   9.451
 2141POPC   PO431212  36.869  29.622   9.490
 2141POPC   GL131213  36.769  29.643   9.075
 2141POPC   GL231214  36.828  30.019   9.082
 2141POPC   C1A31215  36.935  29.775   8.654
 2141POPC   D2A31216  37.189  30.111   8.434
 2141POPC   C3A31217  37.118  30.016   8.003
 2141POPC   C4A31218  36.801  29.698   7.863
 2141POPC   C1B31219  36.792  30.296   8.722
 2141POPC   C2B31220  36.785  30.401   8.266
 2141POPC   C3B31221  36.625  30.173   7.892
 2141POPC   C4B31222  36.566  30.295   7.428
 2142POPC   NC331223  17.506  32.588   9.559
 2142POPC   PO431224  17.829  33.204   9.502
 2142POPC   GL131225  17.543  33.033   9.200
 2142POPC   GL231226  17.685  32.726   9.082
 2142POPC   C1A31227  17.599  33.161   8.765
 2142POPC   D2A31228  17.382  33.313   8.404
 2142POPC   C3A31229  17.389  33.176   7.999
 2142POPC   C4A31230  17.476  33.147   7.550
 2142POPC   C1B31231  17.513  32.655   8.671
 2142POPC   C2B31232  17.557  32.765   8.261
 2142POPC   C3B31233  17.421  32.669   7.852
 2142POPC   C4B31234  17.172  32.771   7.477
 2143POPC   NC331235  20.915  22.954   9.406
 2143POPC   PO431236  20.230  23.125   9.341
 2143POPC   GL131237  20.470  22.828   9.124
 2143POPC   GL231238  20.792  22.902   8.918
 2143POPC   C1A31239  20.433  22.576   8.770
 2143POPC   D2A31240  20.651  22.765   8.433
 2143POPC   C3A31241  20.533  22.717   8.047
 2143POPC   C4A31242  20.786  22.790   7.701
 2143POPC   C1B31243  20.436  23.136   8.717
 2143POPC   C2B31244  20.228  23.240   8.370
 2143POPC   C3B31245  20.450  23.243   8.010
 2143POPC   C4B31246  20.280  23.001   7.705
 2144POPC   NC331247  29.478  18.775   9.359
 2144POPC   PO431248  30.045  19.206   9.643
 2144POPC   GL131249  29.918  18.975   9.269
 2144POPC   GL231250  29.642  19.175   9.079
 2144POPC   C1A31251  29.936  18.816   8.831
 2144POPC   D2A31252  30.241  18.841   8.497
 2144POPC   C3A31253  30.156  19.142   8.170
 2144POPC   C4A31254  30.113  18.841   7.871
 2144POPC   C1B31255  29.462  19.034   8.707
 2144POPC   C2B31256  29.656  19.009   8.318
 2144POPC   C3B31257  29.423  19.040   7.959
 2144POPC   C4B31258  29.697  19.073   7.674
 2145POPC   NC331259  14.461  41.739   9.580
 2145POPC   PO431260  14.562  41.022   9.472
 2145POPC   GL131261  14.261  41.357   9.259
 2145POPC   GL231262  14.316  41.724   9.103
 2145POPC   C1A31263  14.039  41.352   8.863
 2145POPC   D2A31264  14.136  41.546   8.457
 2145POPC   C3A31265  14.046  41.341   8.072
 2145POPC   C4A31266  14.323  41.349   7.728
 2145POPC   C1B31267  14.380  41.923   8.680
 2145POPC   C2B31268  14.375  41.948   8.209
 2145POPC   C3B31269  14.407  41.870   7.746
 2145POPC   C4B31270  14.211  41.972   7.311
 2146POPC   NC331271  32.099  41.209   9.400
 2146POPC   PO431272  32.317  41.839   9.515
 2146POPC   GL131273  32.294  41.792   9.104
 2146POPC   GL231274  32.612  41.978   9.017
 2146POPC   C1A31275  32.002  41.667   8.751
 2146POPC   D2A31276  31.831  41.745   8.302
 2146POPC   C3A31277  32.034  41.660   7.871
 2146POPC   C4A31278  31.914  41.395   7.518
 2146POPC   C1B31279  32.635  41.542   8.824
 2146POPC   C2B31280  32.816  41.384   8.431
 2146POPC   C3B31281  32.884  41.543   8.014
 2146POPC   C4B31282  32.580  41.822   7.833
 2147POPC   NC331283  21.772  26.006   9.714
 2147POPC   PO431284  22.375  25.780   9.525
 2147POPC   GL131285  22.099  26.015   9.238
 2147POPC   GL231286  21.813  25.801   9.168
 2147POPC   C1A31287  22.213  26.016   8.789
 2147POPC   D2A31288  22.206  25.756   8.384
 2147POPC   C3A31289  22.454  25.887   8.022
 2147POPC   C4A31290  22.463  26.328   7.845
 2147POPC   C1B31291  21.715  25.969   8.753
 2147POPC   C2B31292  21.917  26.211   8.418
 2147POPC   C3B31293  22.001  26.128   7.989
 2147POPC   C4B31294  21.740  26.010   7.647
 2148POPC   NC331295  18.365  34.837   9.564
 2148POPC   PO431296  17.855  34.473   9.412
 2148POPC   GL131297  18.142  34.473   9.095
 2148POPC   GL231298  18.006  34.796   8.988
 2148POPC   C1A31299  18.280  34.339   8.673
 2148POPC   D2A31300  18.498  34.498   8.329
 2148POPC   C3A31301  18.224  34.478   7.996
 2148POPC   C4A31302  18.126  34.132   7.738
 2148POPC   C1B31303  18.428  34.825   8.779
 2148POPC   C2B31304  18.663  34.976   8.402
 2148POPC   C3B31305  18.540  34.901   7.985
 2148POPC   C4B31306  18.415  34.748   7.606
 2149POPC   NC331307  44.289  14.405   9.500
 2149POPC   PO431308  43.612  14.177   9.517
 2149POPC   GL131309  43.853  14.250   9.160
 2149POPC   GL231310  44.022  14.583   9.077
 2149POPC   C1A31311  43.780  14.328   8.738
 2149POPC   D2A31312  44.029  14.452   8.433
 2149POPC   C3A31313  43.734  14.516   8.149
 2149POPC   C4A31314  43.751  14.510   7.733
 2149POPC   C1B31315  44.283  14.792   8.725
 2149POPC   C2B31316  44.356  14.844   8.249
 2149POPC   C3B31317  44.264  14.504   7.981
 2149POPC   C4B31318  44.219  14.431   7.564
 2150POPC   NC331319  30.266  37.648   9.732
 2150POPC   PO431320  29.734  37.554   9.591
 2150POPC   GL131321  29.865  37.671   9.132
 2150POPC   GL231322  30.183  37.528   8.983
 2150POPC   C1A31323  29.844  37.758   8.658
 2150POPC   D2A31324  29.747  37.556   8.243
 2150POPC   C3A31325  29.724  37.783   7.823
 2150POPC   C4A31326  30.035  38.106   7.703
 2150POPC   C1B31327  30.090  37.297   8.576
 2150POPC   C2B31328  29.905  37.073   8.199
 2150POPC   C3B31329  29.808  37.286   7.818
 2150POPC   C4B31330  30.100  37.467   7.519
 2151POPC   NC331331  41.491   0.851   9.828
 2151POPC   PO431332  41.855   0.392   9.365
 2151POPC   GL131333  41.612   0.235   9.058
 2151POPC   GL231334  41.880   0.032   8.984
 2151POPC   C1A31335  41.471   0.382   8.668
 2151POPC   D2A31336  41.618   0.622   8.316
 2151POPC   C3A31337  41.342   0.638   7.991
 2151POPC   C4A31338  41.416   0.392   7.670
 2151POPC   C1B31339  41.686  44.929   8.624
 2151POPC   C2B31340  41.724  44.992   8.207
 2151POPC   C3B31341  41.827   0.122   7.837
 2151POPC   C4B31342  41.761   0.106   7.415
 2152POPC   NC331343  21.532  35.617   9.441
 2152POPC   PO431344  21.256  34.967   9.448
 2152POPC   GL131345  21.160  35.112   9.061
 2152POPC   GL231346  20.820  34.979   9.081
 2152POPC   C1A31347  21.430  35.284   8.752
 2152POPC   D2A31348  21.500  35.594   8.438
 2152POPC   C3A31349  21.465  35.411   8.028
 2152POPC   C4A31350  21.368  35.712   7.723
 2152POPC   C1B31351  20.913  34.885   8.681
 2152POPC   C2B31352  21.168  35.091   8.348
 2152POPC   C3B31353  21.037  34.993   7.926
 2152POPC   C4B31354  21.229  35.227   7.568
 2153POPC   NC331355  25.054  36.572   9.494
 2153POPC   PO431356  25.264  37.280   9.632
 2153POPC   GL131357  25.346  37.042   9.210
 2153POPC   GL231358  25.547  36.757   9.077
 2153POPC   C1A31359  25.413  37.118   8.744
 2153POPC   D2A31360  25.468  36.734   8.487
 2153POPC   C3A31361  25.563  36.809   8.065
 2153POPC   C4A31362  25.419  36.811   7.647
 2153POPC   C1B31363  25.104  36.731   8.854
 2153POPC   C2B31364  24.952  36.666   8.409
 2153POPC   C3B31365  25.074  36.621   7.983
 2153POPC   C4B31366  24.987  36.588   7.531
 2154POPC   NC331367   4.688  19.102   9.682
 2154POPC   PO431368   4.216  18.656   9.550
 2154POPC   GL131369   4.318  18.868   9.164
 2154POPC   GL231370   4.598  19.118   9.186
 2154POPC   C1A31371   4.070  18.829   8.762
 2154POPC   D2A31372   4.082  19.060   8.382
 2154POPC   C3A31373   4.087  18.847   7.992
 2154POPC   C4A31374   4.326  18.936   7.653
 2154POPC   C1B31375   4.481  19.135   8.751
 2154POPC   C2B31376   4.469  19.401   8.408
 2154POPC   C3B31377   4.357  19.318   8.008
 2154POPC   C4B31378   4.603  19.362   7.654
 2155POPC   NC331379  19.351  32.144   9.685
 2155POPC   PO431380  18.810  32.590   9.713
 2155POPC   GL131381  18.877  32.286   9.296
 2155POPC   GL231382  19.182  32.215   9.224
 2155POPC   C1A31383  18.798  32.202   8.844
 2155POPC   D2A31384  18.771  32.516   8.508
 2155POPC   C3A31385  18.781  32.362   8.092
 2155POPC   C4A31386  18.777  32.607   7.733
 2155POPC   C1B31387  19.280  32.089   8.839
 2155POPC   C2B31388  19.172  32.207   8.414
 2155POPC   C3B31389  19.239  32.118   7.979
 2155POPC   C4B31390  19.486  32.351   7.694
 2156POPC   NC331391  23.189  19.649   9.527
 2156POPC   PO431392  23.876  19.807   9.561
 2156POPC   GL131393  23.754  19.894   9.172
 2156POPC   GL231394  24.018  20.157   9.133
 2156POPC   C1A31395  23.593  19.663   8.824
 2156POPC   D2A31396  23.723  19.454   8.452
 2156POPC   C3A31397  23.664  19.689   8.094
 2156POPC   C4A31398  23.346  19.768   7.791
 2156POPC   C1B31399  24.057  19.917   8.753
 2156POPC   C2B31400  24.087  20.023   8.338
 2156POPC   C3B31401  24.120  20.255   7.969
 2156POPC   C4B31402  24.027  20.006   7.591
 2157POPC   NC331403  36.283  15.835   9.526
 2157POPC   PO431404  36.017  16.402   9.786
 2157POPC   GL131405  36.016  16.251   9.323
 2157POPC   GL231406  35.857  15.919   9.273
 2157POPC   C1A31407  36.268  16.277   8.906
 2157POPC   D2A31408  36.459  16.386   8.466
 2157POPC   C3A31409  36.350  16.194   8.049
 2157POPC   C4A31410  36.133  16.069   7.650
 2157POPC   C1B31411  36.003  15.817   8.866
 2157POPC   C2B31412  36.204  15.875   8.456
 2157POPC   C3B31413  36.005  15.808   8.042
 2157POPC   C4B31414  35.831  15.664   7.646
 2158POPC   NC331415  17.163  28.095   9.479
 2158POPC   PO431416  17.711  28.310   9.555
 2158POPC   GL131417  17.444  28.497   9.243
 2158POPC   GL231418  17.703  28.608   8.999
 2158POPC   C1A31419  17.271  28.380   8.860
 2158POPC   D2A31420  17.365  28.550   8.484
 2158POPC   C3A31421  17.206  28.417   8.086
 2158POPC   C4A31422  17.507  28.462   7.779
 2158POPC   C1B31423  17.765  28.292   8.655
 2158POPC   C2B31424  17.655  28.190   8.212
 2158POPC   C3B31425  17.551  27.968   7.820
 2158POPC   C4B31426  17.778  28.149   7.441
 2159POPC   NC331427  33.240  43.767   9.496
 2159POPC   PO431428  33.158  44.376   9.668
 2159POPC   GL131429  33.045  44.181   9.244
 2159POPC   GL231430  32.880  43.834   9.136
 2159POPC   C1A31431  33.181  44.080   8.817
 2159POPC   D2A31432  33.029  43.852   8.445
 2159POPC   C3A31433  33.113  44.031   8.042
 2159POPC   C4A31434  32.866  44.245   7.763
 2159POPC   C1B31435  33.172  43.568   8.867
 2159POPC   C2B31436  33.166  43.337   8.477
 2159POPC   C3B31437  33.185  43.509   8.049
 2159POPC   C4B31438  33.158  43.657   7.630
 2160POPC   NC331439   2.150  23.234   9.666
 2160POPC   PO431440   2.428  22.626   9.637
 2160POPC   GL131441   2.091  22.781   9.404
 2160POPC   GL231442   2.100  22.528   9.169
 2160POPC   C1A31443   2.044  23.026   9.004
 2160POPC   D2A31444   2.006  23.011   8.519
 2160POPC   C3A31445   2.170  23.267   8.150
 2160POPC   C4A31446   2.035  23.208   7.719
 2160POPC   C1B31447   1.956  22.558   8.773
 2160POPC   C2B31448   2.119  22.526   8.366
 2160POPC   C3B31449   2.014  22.780   8.030
 2160POPC   C4B31450   2.071  22.697   7.592
 2161POPC   NC331451  22.621  38.670   9.581
 2161POPC   PO431452  23.217  38.274   9.452
 2161POPC   GL131453  22.930  38.502   9.172
 2161POPC   GL231454  22.634  38.317   9.132
 2161POPC   C1A31455  22.791  38.519   8.709
 2161POPC   D2A31456  22.691  38.388   8.292
 2161POPC   C3A31457  22.814  38.577   7.941
 2161POPC   C4A31458  23.074  38.585   7.602
 2161POPC   C1B31459  22.595  37.995   8.823
 2161POPC   C2B31460  22.459  37.902   8.415
 2161POPC   C3B31461  22.635  37.978   8.014
 2161POPC   C4B31462  22.781  38.155   7.608
 2162POPC   NC331463  34.165  30.361   9.251
 2162POPC   PO431464  33.764  30.560   9.750
 2162POPC   GL131465  33.809  30.896   9.301
 2162POPC   GL231466  33.516  30.942   9.068
 2162POPC   C1A31467  33.927  30.911   8.801
 2162POPC   D2A31468  33.826  30.620   8.409
 2162POPC   C3A31469  34.089  30.586   8.009
 2162POPC   C4A31470  34.087  30.880   7.644
 2162POPC   C1B31471  33.324  30.849   8.696
 2162POPC   C2B31472  33.338  30.771   8.265
 2162POPC   C3B31473  33.649  30.856   7.945
 2162POPC   C4B31474  33.726  30.520   7.621
 2163POPC   NC331475  39.760  18.754   9.420
 2163POPC   PO431476  40.322  19.091   9.388
 2163POPC   GL131477  40.034  19.005   9.064
 2163POPC   GL231478  39.793  19.247   9.201
 2163POPC   C1A31479  40.085  18.973   8.606
 2163POPC   D2A31480  40.290  19.082   8.202
 2163POPC   C3A31481  40.027  19.063   7.884
 2163POPC   C4A31482  40.021  18.647   7.776
 2163POPC   C1B31483  39.834  19.379   8.772
 2163POPC   C2B31484  39.746  19.285   8.353
 2163POPC   C3B31485  39.619  19.387   7.944
 2163POPC   C4B31486  39.811  19.364   7.501
 2164POPC   NC331487  27.400  23.946   9.464
 2164POPC   PO431488  27.914  23.522   9.634
 2164POPC   GL131489  27.697  23.561   9.200
 2164POPC   GL231490  27.414  23.752   8.989
 2164POPC   C1A31491  27.703  23.374   8.779
 2164POPC   D2A31492  27.484  23.560   8.442
 2164POPC   C3A31493  27.726  23.756   8.126
 2164POPC   C4A31494  27.813  23.495   7.807
 2164POPC   C1B31495  27.208  23.969   8.633
 2164POPC   C2B31496  27.208  23.910   8.203
 2164POPC   C3B31497  27.298  23.581   7.933
 2164POPC   C4B31498  27.366  23.684   7.522
 2165POPC   NC331499  44.655   9.373   9.550
 2165POPC   PO431500  44.933   9.962   9.687
 2165POPC   GL131501  44.938   9.795   9.265
 2165POPC   GL231502  44.572   9.796   9.260
 2165POPC   C1A31503   0.070   9.722   8.809
 2165POPC   D2A31504   0.111   9.473   8.446
 2165POPC   C3A31505  44.934   9.628   8.073
 2165POPC   C4A31506  44.813   9.750   7.655
 2165POPC   C1B31507  44.531   9.922   8.849
 2165POPC   C2B31508  44.702   9.918   8.437
 2165POPC   C3B31509  44.499   9.896   8.030
 2165POPC   C4B31510  44.308   9.679   7.656
 2166POPC   NC331511   1.325   2.392   9.555
 2166POPC   PO431512   1.339   1.657   9.603
 2166POPC   GL131513   1.388   1.893   9.197
 2166POPC   GL231514   1.092   2.085   9.192
 2166POPC   C1A31515   1.469   2.235   8.871
 2166POPC   D2A31516   1.496   2.322   8.423
 2166POPC   C3A31517   1.339   2.030   8.120
 2166POPC   C4A31518   1.354   2.140   7.708
 2166POPC   C1B31519   1.009   2.078   8.733
 2166POPC   C2B31520   0.848   2.124   8.303
 2166POPC   C3B31521   0.892   2.023   7.881
 2166POPC   C4B31522   1.120   1.667   7.690
 2167POPC   NC331523   7.535  31.876   9.509
 2167POPC   PO431524   6.905  31.666   9.507
 2167POPC   GL131525   7.212  31.509   9.242
 2167POPC   GL231526   7.073  31.179   9.151
 2167POPC   C1A31527   7.409  31.465   8.846
 2167POPC   D2A31528   7.551  31.610   8.440
 2167POPC   C3A31529   7.613  31.430   8.040
 2167POPC   C4A31530   7.872  31.569   7.747
 2167POPC   C1B31531   6.971  31.228   8.705
 2167POPC   C2B31532   7.167  31.186   8.304
 2167POPC   C3B31533   7.136  31.189   7.885
 2167POPC   C4B31534   7.298  31.437   7.615
 2168POPC   NC331535   5.561  24.826   9.423
 2168POPC   PO431536   5.710  25.388   9.472
 2168POPC   GL131537   5.884  25.148   9.117
 2168POPC   GL231538   6.242  24.987   9.087
 2168POPC   C1A31539   5.810  25.298   8.716
 2168POPC   D2A31540   5.942  25.568   8.396
 2168POPC   C3A31541   5.802  25.405   8.018
 2168POPC   C4A31542   5.932  25.503   7.620
 2168POPC   C1B31543   5.993  24.817   8.744
 2168POPC   C2B31544   5.937  24.957   8.306
 2168POPC   C3B31545   5.935  24.926   7.855
 2168POPC   C4B31546   5.576  25.104   7.632
 2169POPC   NC331547   3.777  17.322   9.505
 2169POPC   PO431548   3.279  17.765   9.561
 2169POPC   GL131549   3.422  17.608   9.148
 2169POPC   GL231550   3.405  17.244   9.109
 2169POPC   C1A31551   3.736  17.491   8.805
 2169POPC   D2A31552   3.897  17.651   8.376
 2169POPC   C3A31553   3.711  17.395   8.058
 2169POPC   C4A31554   3.549  17.441   7.668
 2169POPC   C1B31555   3.249  17.376   8.696
 2169POPC   C2B31556   3.211  17.482   8.248
 2169POPC   C3B31557   3.150  17.213   7.868
 2169POPC   C4B31558   3.186  17.200   7.364
 2170POPC   NC331559   4.310  10.919   9.534
 2170POPC   PO431560   4.109  10.187   9.550
 2170POPC   GL131561   4.115  10.539   9.243
 2170POPC   GL231562   4.492  10.554   9.174
 2170POPC   C1A31563   4.165  10.768   8.848
 2170POPC   D2A31564   4.211  10.510   8.492
 2170POPC   C3A31565   4.163  10.622   8.100
 2170POPC   C4A31566   4.183  10.337   7.769
 2170POPC   C1B31567   4.648  10.580   8.729
 2170POPC   C2B31568   4.684  10.393   8.313
 2170POPC   C3B31569   4.623  10.550   7.897
 2170POPC   C4B31570   4.767  10.906   7.690
 2171POPC   NC331571  33.289   1.715   9.537
 2171POPC   PO431572  32.720   2.146   9.527
 2171POPC   GL131573  32.914   2.161   9.122
 2171POPC   GL231574  33.239   2.056   9.095
 2171POPC   C1A31575  32.829   2.264   8.720
 2171POPC   D2A31576  32.795   2.055   8.314
 2171POPC   C3A31577  33.007   2.122   7.915
 2171POPC   C4A31578  32.927   2.063   7.454
 2171POPC   C1B31579  33.372   1.861   8.706
 2171POPC   C2B31580  33.266   1.799   8.267
 2171POPC   C3B31581  33.299   1.731   7.823
 2171POPC   C4B31582  33.410   2.031   7.519
 2172POPC   NC331583  16.103  10.715   9.470
 2172POPC   PO431584  16.456  10.147   9.241
 2172POPC   GL131585  16.149  10.404   9.066
 2172POPC   GL231586  15.817  10.231   9.016
 2172POPC   C1A31587  16.182  10.331   8.652
 2172POPC   D2A31588  16.162  10.468   8.281
 2172POPC   C3A31589  15.782  10.418   8.121
 2172POPC   C4A31590  15.883  10.353   7.757
 2172POPC   C1B31591  15.682  10.450   8.626
 2172POPC   C2B31592  15.364  10.748   8.466
 2172POPC   C3B31593  15.351  11.041   8.135
 2172POPC   C4B31594  15.579  10.892   7.782
 2173POPC   NC331595   9.680  36.071   9.690
 2173POPC   PO431596  10.367  36.107   9.691
 2173POPC   GL131597  10.368  36.119   9.218
 2173POPC   GL231598  10.678  36.204   9.066
 2173POPC   C1A31599  10.188  36.170   8.792
 2173POPC   D2A31600  10.205  36.284   8.325
 2173POPC   C3A31601  10.265  36.054   7.906
 2173POPC   C4A31602  10.073  36.227   7.525
 2173POPC   C1B31603  10.614  35.920   8.712
 2173POPC   C2B31604  10.643  36.030   8.294
 2173POPC   C3B31605  10.770  35.911   7.906
 2173POPC   C4B31606  10.581  35.617   7.631
 2174POPC   NC331607  18.788  41.818   9.574
 2174POPC   PO431608  19.439  41.677   9.469
 2174POPC   GL131609  19.078  41.906   9.173
 2174POPC   GL231610  18.722  41.719   9.082
 2174POPC   C1A31611  18.980  41.963   8.724
 2174POPC   D2A31612  18.899  41.703   8.385
 2174POPC   C3A31613  19.115  41.897   8.042
 2174POPC   C4A31614  19.045  41.847   7.631
 2174POPC   C1B31615  18.607  41.432   8.732
 2174POPC   C2B31616  18.794  41.201   8.364
 2174POPC   C3B31617  18.983  41.374   7.984
 2174POPC   C4B31618  18.788  41.394   7.606
 2175POPC   NC331619  25.882  41.806   9.436
 2175POPC   PO431620  25.823  41.153   9.621
 2175POPC   GL131621  25.919  41.272   9.214
 2175POPC   GL231622  26.212  41.468   9.135
 2175POPC   C1A31623  26.023  41.058   8.847
 2175POPC   D2A31624  26.090  41.238   8.513
 2175POPC   C3A31625  26.025  41.146   8.118
 2175POPC   C4A31626  26.085  41.458   7.813
 2175POPC   C1B31627  26.122  41.700   8.765
 2175POPC   C2B31628  25.918  41.703   8.390
 2175POPC   C3B31629  25.860  41.972   8.070
 2175POPC   C4B31630  25.789  41.836   7.658
 2176POPC   NC331631   4.564  37.894   9.703
 2176POPC   PO431632   4.065  37.509   9.581
 2176POPC   GL131633   4.264  37.681   9.250
 2176POPC   GL231634   4.203  38.007   9.314
 2176POPC   C1A31635   4.206  37.608   8.826
 2176POPC   D2A31636   4.176  37.408   8.455
 2176POPC   C3A31637   4.336  37.587   8.112
 2176POPC   C4A31638   4.370  37.629   7.700
 2176POPC   C1B31639   4.178  38.119   8.888
 2176POPC   C2B31640   4.206  37.988   8.461
 2176POPC   C3B31641   4.024  37.992   8.072
 2176POPC   C4B31642   3.928  37.868   7.670
 2177POPC   NC331643  34.603   5.540   9.350
 2177POPC   PO431644  34.260   6.120   9.517
 2177POPC   GL131645  34.202   5.933   9.110
 2177POPC   GL231646  34.545   5.862   8.963
 2177POPC   C1A31647  34.188   5.999   8.633
 2177POPC   D2A31648  34.556   5.897   8.406
 2177POPC   C3A31649  34.586   5.818   7.978
 2177POPC   C4A31650  34.288   5.889   7.706
 2177POPC   C1B31651  34.832   5.616   8.714
 2177POPC   C2B31652  34.751   5.423   8.308
 2177POPC   C3B31653  34.878   5.363   7.892
 2177POPC   C4B31654  34.914   5.649   7.580
 2178POPC   NC331655  15.555   1.290   9.806
 2178POPC   PO431656  16.038   0.894   9.527
 2178POPC   GL131657  16.108   1.146   9.119
 2178POPC   GL231658  15.797   1.300   9.038
 2178POPC   C1A31659  16.057   1.069   8.655
 2178POPC   D2A31660  15.811   1.250   8.286
 2178POPC   C3A31661  16.057   1.333   7.920
 2178POPC   C4A31662  16.337   1.051   7.761
 2178POPC   C1B31663  15.938   1.573   8.677
 2178POPC   C2B31664  15.994   1.747   8.275
 2178POPC   C3B31665  15.707   1.712   7.928
 2178POPC   C4B31666  15.703   1.637   7.475
 2179POPC   NC331667  24.134  39.594   9.672
 2179POPC   PO431668  23.682  39.149   9.438
 2179POPC   GL131669  23.437  39.205   9.125
 2179POPC   GL231670  23.362  38.845   9.144
 2179POPC   C1A31671  23.544  39.405   8.740
 2179POPC   D2A31672  23.771  39.514   8.385
 2179POPC   C3A31673  23.541  39.504   8.021
 2179POPC   C4A31674  23.761  39.388   7.668
 2179POPC   C1B31675  23.578  38.898   8.745
 2179POPC   C2B31676  23.439  39.080   8.345
 2179POPC   C3B31677  23.558  38.997   7.905
 2179POPC   C4B31678  23.557  38.810   7.489
 2180POPC   NC331679  22.547  12.075   9.331
 2180POPC   PO431680  21.918  12.169   9.468
 2180POPC   GL131681  21.927  12.032   9.088
 2180POPC   GL231682  22.189  11.807   9.064
 2180POPC   C1A31683  22.082  12.203   8.706
 2180POPC   D2A31684  22.278  12.232   8.324
 2180POPC   C3A31685  22.042  12.379   7.993
 2180POPC   C4A31686  22.136  12.289   7.562
 2180POPC   C1B31687  22.017  11.614   8.670
 2180POPC   C2B31688  22.011  11.524   8.201
 2180POPC   C3B31689  22.117  11.863   7.887
 2180POPC   C4B31690  22.504  12.157   7.868
 2181POPC   NC331691   6.165  25.274   9.513
 2181POPC   PO431692   6.798  24.937   9.454
 2181POPC   GL131693   6.760  25.281   9.155
 2181POPC   GL231694   6.459  25.452   9.135
 2181POPC   C1A31695   6.830  25.370   8.708
 2181POPC   D2A31696   6.885  25.144   8.318
 2181POPC   C3A31697   6.799  25.321   7.926
 2181POPC   C4A31698   6.879  25.053   7.632
 2181POPC   C1B31699   6.312  25.361   8.729
 2181POPC   C2B31700   6.440  25.458   8.308
 2181POPC   C3B31701   6.294  25.308   7.923
 2181POPC   C4B31702   6.425  25.282   7.509
 2182POPC   NC331703  32.036  44.329   9.550
 2182POPC   PO431704  32.502  43.761   9.474
 2182POPC   GL131705  32.477  44.136   9.311
 2182POPC   GL231706  32.179  44.044   9.150
 2182POPC   C1A31707  32.596  44.221   8.884
 2182POPC   D2A31708  32.405  44.284   8.456
 2182POPC   C3A31709  32.412  43.866   8.227
 2182POPC   C4A31710  32.712  43.703   7.892
 2182POPC   C1B31711  32.053  43.956   8.725
 2182POPC   C2B31712  31.938  44.097   8.302
 2182POPC   C3B31713  31.978  43.906   7.918
 2182POPC   C4B31714  32.214  43.548   7.829
 2183POPC   NC331715   2.350  38.853   9.541
 2183POPC   PO431716   2.952  38.365   9.533
 2183POPC   GL131717   2.970  38.119   9.119
 2183POPC   GL231718   2.603  38.094   9.076
 2183POPC   C1A31719   2.892  37.959   8.699
 2183POPC   D2A31720   2.722  38.299   8.498
 2183POPC   C3A31721   2.839  38.299   8.112
 2183POPC   C4A31722   2.807  38.432   7.708
 2183POPC   C1B31723   2.280  38.222   8.800
 2183POPC   C2B31724   2.248  38.496   8.443
 2183POPC   C3B31725   2.388  38.571   8.022
 2183POPC   C4B31726   2.166  38.439   7.634
 2184POPC   NC331727  28.975  43.708   9.377
 2184POPC   PO431728  29.198  44.312   9.576
 2184POPC   GL131729  29.233  44.184   9.131
 2184POPC   GL231730  29.376  43.855   9.095
 2184POPC   C1A31731  29.051  43.960   8.719
 2184POPC   D2A31732  29.219  43.861   8.262
 2184POPC   C3A31733  29.035  44.078   7.860
 2184POPC   C4A31734  28.989  44.228   7.398
 2184POPC   C1B31735  29.308  43.515   8.783
 2184POPC   C2B31736  29.514  43.297   8.463
 2184POPC   C3B31737  29.608  43.444   8.073
 2184POPC   C4B31738  29.306  43.586   7.821
 2185POPC   NC331739  35.127  11.372   9.550
 2185POPC   PO431740  35.767  11.571   9.251
 2185POPC   GL131741  35.431  11.248   9.113
 2185POPC   GL231742  35.087  11.357   9.045
 2185POPC   C1A31743  35.301  10.969   8.744
 2185POPC   D2A31744  35.058  10.880   8.362
 2185POPC   C3A31745  35.209  11.023   7.946
 2185POPC   C4A31746  35.466  10.869   7.635
 2185POPC   C1B31747  35.080  11.393   8.595
 2185POPC   C2B31748  35.222  11.651   8.283
 2185POPC   C3B31749  35.272  11.538   7.882
 2185POPC   C4B31750  35.493  11.776   7.643
 2186POPC   NC331751   6.159  19.445   9.556
 2186POPC   PO431752   5.821  18.776   9.616
 2186POPC   GL131753   5.941  19.079   9.264
 2186POPC   GL231754   5.628  19.248   9.171
 2186POPC   C1A31755   6.103  19.116   8.810
 2186POPC   D2A31756   6.055  18.840   8.438
 2186POPC   C3A31757   6.092  19.031   8.017
 2186POPC   C4A31758   6.162  19.369   7.737
 2186POPC   C1B31759   5.598  19.075   8.771
 2186POPC   C2B31760   5.756  19.246   8.383
 2186POPC   C3B31761   5.721  19.409   7.978
 2186POPC   C4B31762   5.706  19.069   7.627
 2187POPC   NC331763  22.361  35.130   9.557
 2187POPC   PO431764  22.098  35.762   9.414
 2187POPC   GL131765  22.206  35.374   9.144
 2187POPC   GL231766  22.506  35.123   9.067
 2187POPC   C1A31767  21.990  35.120   8.832
 2187POPC   D2A31768  21.835  35.197   8.408
 2187POPC   C3A31769  22.097  35.262   8.037
 2187POPC   C4A31770  21.895  35.047   7.692
 2187POPC   C1B31771  22.432  35.373   8.676
 2187POPC   C2B31772  22.518  35.700   8.349
 2187POPC   C3B31773  22.670  35.610   7.924
 2187POPC   C4B31774  22.623  35.668   7.454
 2188POPC   NC331775  42.491  32.951   9.661
 2188POPC   PO431776  42.306  33.575   9.592
 2188POPC   GL131777  42.233  33.351   9.210
 2188POPC   GL231778  42.323  32.971   9.173
 2188POPC   C1A31779  42.079  33.245   8.796
 2188POPC   D2A31780  42.209  32.952   8.466
 2188POPC   C3A31781  42.356  33.085   8.035
 2188POPC   C4A31782  42.631  33.285   7.739
 2188POPC   C1B31783  42.521  32.709   8.834
 2188POPC   C2B31784  42.621  32.600   8.402
 2188POPC   C3B31785  42.753  32.693   7.967
 2188POPC   C4B31786  42.757  32.811   7.523
 2189POPC   NC331787  16.829  30.734   9.618
 2189POPC   PO431788  16.175  30.682   9.560
 2189POPC   GL131789  16.393  30.727   9.178
 2189POPC   GL231790  16.752  30.736   9.109
 2189POPC   C1A31791  16.396  30.802   8.744
 2189POPC   D2A31792  16.694  31.024   8.494
 2189POPC   C3A31793  16.579  30.948   8.097
 2189POPC   C4A31794  16.700  30.709   7.757
 2189POPC   C1B31795  16.934  30.583   8.710
 2189POPC   C2B31796  17.104  30.697   8.279
 2189POPC   C3B31797  17.192  30.614   7.826
 2189POPC   C4B31798  17.168  30.493   7.364
 2190POPC   NC331799  40.452  18.665   9.511
 2190POPC   PO431800  40.925  18.237   9.455
 2190POPC   GL131801  40.641  18.342   9.146
 2190POPC   GL231802  40.720  18.029   9.031
 2190POPC   C1A31803  40.520  18.373   8.713
 2190POPC   D2A31804  40.686  18.119   8.413
 2190POPC   C3A31805  40.798  18.391   8.118
 2190POPC   C4A31806  40.489  18.641   7.956
 2190POPC   C1B31807  41.103  18.043   8.832
 2190POPC   C2B31808  41.242  18.051   8.413
 2190POPC   C3B31809  41.131  18.036   7.970
 2190POPC   C4B31810  41.395  17.891   7.672
 2191POPC   NC331811   6.284  11.550   9.821
 2191POPC   PO431812   6.805  11.950   9.589
 2191POPC   GL131813   6.632  11.826   9.161
 2191POPC   GL231814   6.389  12.020   9.063
 2191POPC   C1A31815   6.798  11.772   8.715
 2191POPC   D2A31816   6.791  11.991   8.307
 2191POPC   C3A31817   6.644  11.896   7.913
 2191POPC   C4A31818   6.978  12.020   7.656
 2191POPC   C1B31819   6.500  12.175   8.671
 2191POPC   C2B31820   6.341  12.252   8.261
 2191POPC   C3B31821   6.450  12.355   7.848
 2191POPC   C4B31822   6.603  12.531   7.493
 2192POPC   NC331823   1.712  40.092   9.548
 2192POPC   PO431824   2.363  40.006   9.510
 2192POPC   GL131825   2.111  40.070   9.107
 2192POPC   GL231826   1.844  39.818   9.106
 2192POPC   C1A31827   2.202  39.927   8.673
 2192POPC   D2A31828   2.024  39.743   8.322
 2192POPC   C3A31829   2.153  39.932   7.903
 2192POPC   C4A31830   2.457  40.038   7.532
 2192POPC   C1B31831   1.682  39.983   8.690
 2192POPC   C2B31832   1.681  40.088   8.212
 2192POPC   C3B31833   1.587  40.104   7.779
 2192POPC   C4B31834   1.688  40.050   7.331
 2193POPC   NC331835  35.812  11.150   9.459
 2193POPC   PO431836  36.485  11.388   9.559
 2193POPC   GL131837  36.253  11.292   9.174
 2193POPC   GL231838  35.940  11.198   8.973
 2193POPC   C1A31839  36.335  11.374   8.736
 2193POPC   D2A31840  36.068  11.221   8.400
 2193POPC   C3A31841  36.224  11.357   8.033
 2193POPC   C4A31842  36.144  11.188   7.650
 2193POPC   C1B31843  35.644  11.393   8.653
 2193POPC   C2B31844  35.511  11.195   8.322
 2193POPC   C3B31845  35.754  11.090   7.999
 2193POPC   C4B31846  35.676  11.313   7.677
 2194POPC   NC331847  44.135  10.216   9.410
 2194POPC   PO431848  44.153   9.590   9.477
 2194POPC   GL131849  44.047   9.762   9.102
 2194POPC   GL231850  43.692   9.902   9.147
 2194POPC   C1A31851  44.155   9.576   8.712
 2194POPC   D2A31852  44.044   9.388   8.330
 2194POPC   C3A31853  44.022   9.734   8.072
 2194POPC   C4A31854  43.851  10.116   7.864
 2194POPC   C1B31855  43.663   9.764   8.713
 2194POPC   C2B31856  43.590   9.922   8.278
 2194POPC   C3B31857  43.560   9.696   7.876
 2194POPC   C4B31858  43.755   9.725   7.504
 2195POPC   NC331859  26.228  30.085   9.434
 2195POPC   PO431860  25.664  29.765   9.623
 2195POPC   GL131861  25.766  29.929   9.229
 2195POPC   GL231862  26.011  29.687   9.179
 2195POPC   C1A31863  25.706  29.917   8.771
 2195POPC   D2A31864  25.637  29.788   8.335
 2195POPC   C3A31865  25.706  30.031   7.931
 2195POPC   C4A31866  26.124  30.108   7.717
 2195POPC   C1B31867  26.158  29.604   8.773
 2195POPC   C2B31868  26.152  29.725   8.348
 2195POPC   C3B31869  26.464  29.892   8.081
 2195POPC   C4B31870  26.435  29.628   7.742
 2196POPC   NC331871   4.915   8.362   9.553
 2196POPC   PO431872   5.480   7.969   9.718
 2196POPC   GL131873   5.423   8.195   9.306
 2196POPC   GL231874   5.093   8.154   9.115
 2196POPC   C1A31875   5.510   8.186   8.852
 2196POPC   D2A31876   5.395   8.081   8.434
 2196POPC   C3A31877   5.378   8.394   8.112
 2196POPC   C4A31878   5.111   8.328   7.747
 2196POPC   C1B31879   4.966   8.363   8.710
 2196POPC   C2B31880   4.891   8.345   8.243
 2196POPC   C3B31881   4.622   8.324   7.859
 2196POPC   C4B31882   4.754   8.445   7.382
 2197POPC   NC331883  39.646  40.971   9.476
 2197POPC   PO431884  38.986  40.770   9.354
 2197POPC   GL131885  39.145  40.603   9.063
 2197POPC   GL231886  39.503  40.587   9.179
 2197POPC   C1A31887  39.011  40.795   8.685
 2197POPC   D2A31888  39.158  40.907   8.305
 2197POPC   C3A31889  39.174  40.636   7.971
 2197POPC   C4A31890  39.201  40.938   7.689
 2197POPC   C1B31891  39.511  40.860   8.812
 2197POPC   C2B31892  39.594  40.698   8.400
 2197POPC   C3B31893  39.672  40.487   8.019
 2197POPC   C4B31894  39.598  40.572   7.655
 2198POPC   NC331895  43.899  34.633   9.813
 2198POPC   PO431896  44.004  34.136   9.405
 2198POPC   GL131897  43.825  34.462   9.154
 2198POPC   GL231898  43.971  34.798   9.203
 2198POPC   C1A31899  43.925  34.445   8.718
 2198POPC   D2A31900  44.059  34.158   8.417
 2198POPC   C3A31901  44.136  34.313   8.050
 2198POPC   C4A31902  43.769  34.369   7.786
 2198POPC   C1B31903  43.911  34.949   8.782
 2198POPC   C2B31904  43.884  34.983   8.336
 2198POPC   C3B31905  44.009  34.804   7.938
 2198POPC   C4B31906  43.834  34.794   7.493
 2199POPC   NC331907  15.606   6.810   9.526
 2199POPC   PO431908  16.198   6.535   9.514
 2199POPC   GL131909  15.941   6.611   9.186
 2199POPC   GL231910  15.706   6.350   9.212
 2199POPC   C1A31911  15.888   6.638   8.745
 2199POPC   D2A31912  16.045   6.693   8.362
 2199POPC   C3A31913  15.825   6.787   8.009
 2199POPC   C4A31914  16.106   6.997   7.788
 2199POPC   C1B31915  16.052   6.192   8.914
 2199POPC   C2B31916  16.241   6.242   8.484
 2199POPC   C3B31917  16.069   6.303   8.049
 2199POPC   C4B31918  15.634   6.247   7.927
 2200POPC   NC331919  19.859  34.140   9.493
 2200POPC   PO431920  20.112  33.540   9.613
 2200POPC   GL131921  19.958  33.707   9.192
 2200POPC   GL231922  19.588  33.788   9.175
 2200POPC   C1A31923  19.929  33.902   8.752
 2200POPC   D2A31924  19.771  34.011   8.278
 2200POPC   C3A31925  20.036  33.943   7.871
 2200POPC   C4A31926  20.009  34.050   7.446
 2200POPC   C1B31927  19.503  33.607   8.783
 2200POPC   C2B31928  19.790  33.533   8.438
 2200POPC   C3B31929  19.749  33.542   7.993
 2200POPC   C4B31930  19.642  33.697   7.548
 2201POPC   NC331931  11.288  15.303   9.667
 2201POPC   PO431932  11.833  15.139   9.572
 2201POPC   GL131933  11.558  15.289   9.222
 2201POPC   GL231934  11.369  15.000   9.142
 2201POPC   C1A31935  11.343  15.410   8.812
 2201POPC   D2A31936  11.212  15.224   8.403
 2201POPC   C3A31937  11.325  15.279   7.984
 2201POPC   C4A31938  11.093  15.251   7.631
 2201POPC   C1B31939  11.541  14.943   8.687
 2201POPC   C2B31940  11.529  14.857   8.203
 2201POPC   C3B31941  11.419  14.842   7.740
 2201POPC   C4B31942  11.166  14.517   7.506
 2202POPC   NC331943  13.506   2.193   9.475
 2202POPC   PO431944  13.936   1.677   9.428
 2202POPC   GL131945  13.672   1.824   9.124
 2202POPC   GL231946  13.327   1.833   9.181
 2202POPC   C1A31947  13.728   2.121   8.814
 2202POPC   D2A31948  13.874   2.226   8.435
 2202POPC   C3A31949  13.716   2.118   8.047
 2202POPC   C4A31950  13.942   2.071   7.689
 2202POPC   C1B31951  13.233   2.119   8.834
 2202POPC   C2B31952  13.367   1.949   8.458
 2202POPC   C3B31953  13.286   1.826   8.052
 2202POPC   C4B31954  13.548   1.725   7.729
 2203POPC   NC331955  44.338  40.414   9.365
 2203POPC   PO431956  44.642  40.962   9.494
 2203POPC   GL131957  44.610  40.727   9.067
 2203POPC   GL231958  44.788  40.395   9.064
 2203POPC   C1A31959  44.478  40.574   8.630
 2203POPC   D2A31960  44.288  40.787   8.281
 2203POPC   C3A31961  44.496  40.795   7.881
 2203POPC   C4A31962  44.677  40.870   7.459
 2203POPC   C1B31963  44.967  40.584   8.696
 2203POPC   C2B31964  44.901  40.779   8.272
 2203POPC   C3B31965  44.961  40.619   7.820
 2203POPC   C4B31966   0.074  40.470   7.388
 2204POPC   NC331967  11.782  39.819   9.566
 2204POPC   PO431968  12.223  40.264   9.741
 2204POPC   GL131969  12.145  40.175   9.291
 2204POPC   GL231970  12.457  40.190   9.066
 2204POPC   C1A31971  11.843  40.113   8.928
 2204POPC   D2A31972  11.648  40.353   8.582
 2204POPC   C3A31973  11.739  40.282   8.131
 2204POPC   C4A31974  11.991  40.136   7.782
 2204POPC   C1B31975  12.268  40.062   8.642
 2204POPC   C2B31976  12.405  40.005   8.201
 2204POPC   C3B31977  12.516  40.109   7.775
 2204POPC   C4B31978  12.320  40.243   7.402
 2205POPC   NC331979  18.709  15.688   9.178
 2205POPC   PO431980  18.977  15.158   9.477
 2205POPC   GL131981  19.128  15.309   9.077
 2205POPC   GL231982  19.116  14.943   9.031
 2205POPC   C1A31983  19.155  15.236   8.605
 2205POPC   D2A31984  18.848  14.981   8.367
 2205POPC   C3A31985  18.724  15.204   8.011
 2205POPC   C4A31986  18.842  15.215   7.563
 2205POPC   C1B31987  19.242  14.727   8.684
 2205POPC   C2B31988  19.271  14.759   8.240
 2205POPC   C3B31989  19.031  14.808   7.895
 2205POPC   C4B31990  19.158  14.796   7.470
 2206POPC   NC331991  20.258  26.068   9.809
 2206POPC   PO431992  19.653  26.308   9.623
 2206POPC   GL131993  19.759  26.076   9.274
 2206POPC   GL231994  19.816  26.379   9.119
 2206POPC   C1A31995  19.824  25.844   8.866
 2206POPC   D2A31996  19.844  25.977   8.417
 2206POPC   C3A31997  19.791  25.744   8.057
 2206POPC   C4A31998  19.966  25.985   7.763
 2206POPC   C1B31999  19.987  26.336   8.737
 2206POPC   C2B32000  20.167  26.488   8.350
 2206POPC   C3B32001  20.138  26.437   7.922
 2206POPC   C4B32002  19.953  26.420   7.498
 2207POPC   NC332003  20.139  32.389   9.362
 2207POPC   PO432004  19.548  32.551   9.492
 2207POPC   GL132005  19.651  32.379   9.101
 2207POPC   GL232006  19.689  32.082   9.244
 2207POPC   C1A32007  19.649  32.366   8.648
 2207POPC   D2A32008  19.658  32.310   8.209
 2207POPC   C3A32009  19.756  32.665   7.968
 2207POPC   C4A32010  20.014  32.487   7.696
 2207POPC   C1B32011  19.776  31.917   8.834
 2207POPC   C2B32012  19.545  31.859   8.473
 2207POPC   C3B32013  19.643  31.808   8.069
 2207POPC   C4B32014  19.845  32.005   7.743
 2208POPC   NC332015   7.820  20.178   9.452
 2208POPC   PO432016   8.281  19.666   9.466
 2208POPC   GL132017   8.139  19.819   9.045
 2208POPC   GL232018   7.940  20.094   8.974
 2208POPC   C1A32019   7.934  19.742   8.616
 2208POPC   D2A32020   7.812  19.805   8.171
 2208POPC   C3A32021   8.144  19.641   7.854
 2208POPC   C4A32022   8.268  19.532   7.410
 2208POPC   C1B32023   8.262  20.158   8.653
 2208POPC   C2B32024   8.265  20.034   8.242
 2208POPC   C3B32025   8.060  20.135   7.855
 2208POPC   C4B32026   8.188  20.032   7.435
 2209POPC   NC332027  37.098  36.870   9.569
 2209POPC   PO432028  36.364  37.049   9.570
 2209POPC   GL132029  36.773  37.144   9.298
 2209POPC   GL232030  36.896  36.824   9.107
 2209POPC   C1A32031  36.806  37.252   8.852
 2209POPC   D2A32032  36.875  36.967   8.526
 2209POPC   C3A32033  36.742  36.985   8.107
 2209POPC   C4A32034  36.870  36.811   7.730
 2209POPC   C1B32035  37.213  36.684   8.813
 2209POPC   C2B32036  37.427  36.740   8.420
 2209POPC   C3B32037  37.284  36.688   8.004
 2209POPC   C4B32038  37.247  36.459   7.616
 2210POPC   NC332039  23.687  40.857   9.525
 2210POPC   PO432040  23.469  40.272   9.211
 2210POPC   GL132041  23.622  40.673   9.065
 2210POPC   GL232042  23.468  41.013   9.106
 2210POPC   C1A32043  23.805  40.795   8.701
 2210POPC   D2A32044  23.954  40.577   8.324
 2210POPC   C3A32045  23.815  40.742   7.979
 2210POPC   C4A32046  23.782  40.576   7.615
 2210POPC   C1B32047  23.503  41.202   8.719
 2210POPC   C2B32048  23.266  41.160   8.348
 2210POPC   C3B32049  23.451  41.283   7.951
 2210POPC   C4B32050  23.577  41.055   7.608
 2211POPC   NC332051  10.006  41.995   9.373
 2211POPC   PO432052   9.930  41.319   9.516
 2211POPC   GL132053   9.767  41.422   9.139
 2211POPC   GL232054   9.713  41.774   9.013
 2211POPC   C1A32055   9.820  41.332   8.720
 2211POPC   D2A32056   9.669  41.654   8.438
 2211POPC   C3A32057   9.765  41.609   8.010
 2211POPC   C4A32058   9.794  41.258   7.735
 2211POPC   C1B32059   9.362  41.496   8.846
 2211POPC   C2B32060   9.267  41.292   8.455
 2211POPC   C3B32061   9.327  41.358   8.023
 2211POPC   C4B32062   9.377  41.562   7.615
 2212POPC   NC332063  16.435   8.071   9.430
 2212POPC   PO432064  16.904   8.587   9.517
 2212POPC   GL132065  16.779   8.376   9.169
 2212POPC   GL232066  17.007   8.108   9.184
 2212POPC   C1A32067  16.684   8.164   8.782
 2212POPC   D2A32068  16.698   8.346   8.395
 2212POPC   C3A32069  16.437   8.240   8.061
 2212POPC   C4A32070  16.553   8.411   7.684
 2212POPC   C1B32071  17.206   8.226   8.785
 2212POPC   C2B32072  17.225   8.370   8.336
 2212POPC   C3B32073  16.942   8.222   7.973
 2212POPC   C4B32074  16.684   7.917   7.696
 2213POPC   NC332075  36.090  11.640   9.564
 2213POPC   PO432076  35.938  12.304   9.670
 2213POPC   GL132077  36.191  12.096   9.308
 2213POPC   GL232078  36.455  11.807   9.229
 2213POPC   C1A32079  36.419  12.296   8.959
 2213POPC   D2A32080  36.460  12.176   8.521
 2213POPC   C3A32081  36.379  12.370   8.110
 2213POPC   C4A32082  36.095  12.170   7.838
 2213POPC   C1B32083  36.214  11.840   8.855
 2213POPC   C2B32084  36.053  11.730   8.452
 2213POPC   C3B32085  35.773  11.612   8.110
 2213POPC   C4B32086  35.992  11.695   7.719
 2214POPC   NC332087  24.176  10.376   9.782
 2214POPC   PO432088  24.733  10.216   9.436
 2214POPC   GL132089  24.424  10.455   9.213
 2214POPC   GL232090  24.060  10.573   9.279
 2214POPC   C1A32091  24.501  10.544   8.795
 2214POPC   D2A32092  24.614  10.632   8.376
 2214POPC   C3A32093  24.657  10.335   8.055
 2214POPC   C4A32094  24.527  10.418   7.638
 2214POPC   C1B32095  23.994  10.601   8.844
 2214POPC   C2B32096  24.146  10.415   8.449
 2214POPC   C3B32097  24.196  10.597   8.030
 2214POPC   C4B32098  24.076  10.654   7.608
 2215POPC   NC332099  15.357  36.509   9.597
 2215POPC   PO432100  14.966  37.125   9.512
 2215POPC   GL132101  15.248  36.931   9.233
 2215POPC   GL232102  15.242  37.243   9.086
 2215POPC   C1A32103  15.303  36.815   8.795
 2215POPC   D2A32104  15.205  36.790   8.338
 2215POPC   C3A32105  15.435  36.723   7.934
 2215POPC   C4A32106  15.349  36.708   7.450
 2215POPC   C1B32107  15.081  37.354   8.689
 2215POPC   C2B32108  15.184  37.471   8.265
 2215POPC   C3B32109  15.121  37.137   7.950
 2215POPC   C4B32110  15.020  37.143   7.508
 2216POPC   NC332111   1.788  25.297  10.047
 2216POPC   PO432112   2.036  25.149   9.707
 2216POPC   GL132113   2.084  25.316   9.281
 2216POPC   GL232114   1.834  25.551   9.133
 2216POPC   C1A32115   2.164  25.305   8.825
 2216POPC   D2A32116   1.997  25.181   8.409
 2216POPC   C3A32117   2.237  25.241   8.013
 2216POPC   C4A32118   2.257  25.218   7.532
 2216POPC   C1B32119   1.763  25.595   8.640
 2216POPC   C2B32120   1.766  25.564   8.172
 2216POPC   C3B32121   1.820  25.379   7.756
 2216POPC   C4B32122   1.477  25.306   7.442
 2217POPC   NC332123  28.901   4.731   9.448
 2217POPC   PO432124  29.335   5.209   9.426
 2217POPC   GL132125  29.119   5.056   9.094
 2217POPC   GL232126  28.978   5.404   9.125
 2217POPC   C1A32127  29.211   4.797   8.710
 2217POPC   D2A32128  29.265   5.019   8.317
 2217POPC   C3A32129  29.270   4.896   7.911
 2217POPC   C4A32130  29.313   4.909   7.461
 2217POPC   C1B32131  28.844   5.311   8.735
 2217POPC   C2B32132  28.792   5.217   8.354
 2217POPC   C3B32133  28.940   5.307   7.971
 2217POPC   C4B32134  28.906   5.152   7.596
 2218POPC   NC332135  27.353  17.352   9.504
 2218POPC   PO432136  27.783  17.904   9.587
 2218POPC   GL132137  27.671  17.668   9.242
 2218POPC   GL232138  27.827  17.376   9.160
 2218POPC   C1A32139  27.694  17.737   8.812
 2218POPC   D2A32140  27.409  17.664   8.471
 2218POPC   C3A32141  27.620  17.578   8.091
 2218POPC   C4A32142  27.510  17.674   7.671
 2218POPC   C1B32143  27.528  17.257   8.847
 2218POPC   C2B32144  27.402  17.126   8.419
 2218POPC   C3B32145  27.257  17.238   7.991
 2218POPC   C4B32146  27.369  17.161   7.573
 2219POPC   NC332147  19.404  23.350   9.998
 2219POPC   PO432148  19.003  23.796   9.633
 2219POPC   GL132149  19.066  23.719   9.209
 2219POPC   GL232150  18.719  23.806   9.122
 2219POPC   C1A32151  19.022  23.507   8.784
 2219POPC   D2A32152  18.896  23.554   8.366
 2219POPC   C3A32153  19.206  23.421   8.051
 2219POPC   C4A32154  19.093  23.303   7.662
 2219POPC   C1B32155  18.895  24.003   8.748
 2219POPC   C2B32156  18.864  24.063   8.324
 2219POPC   C3B32157  18.958  23.877   7.958
 2219POPC   C4B32158  18.755  23.697   7.638
 2220POPC   NC332159  33.506  32.385   9.541
 2220POPC   PO432160  34.002  31.973   9.538
 2220POPC   GL132161  33.670  31.987   9.251
 2220POPC   GL232162  33.732  32.300   9.083
 2220POPC   C1A32163  33.519  31.884   8.858
 2220POPC   D2A32164  33.606  32.074   8.478
 2220POPC   C3A32165  33.458  31.958   8.089
 2220POPC   C4A32166  33.669  31.794   7.759
 2220POPC   C1B32167  33.930  32.409   8.701
 2220POPC   C2B32168  34.072  32.255   8.317
 2220POPC   C3B32169  33.903  32.236   7.922
 2220POPC   C4B32170  33.769  32.604   7.709
 2221POPC   NC332171   8.813   7.113   9.394
 2221POPC   PO432172   9.072   7.707   9.524
 2221POPC   GL132173   8.998   7.542   9.140
 2221POPC   GL232174   8.610   7.510   9.147
 2221POPC   C1A32175   9.251   7.357   8.784
 2221POPC   D2A32176   9.168   7.167   8.361
 2221POPC   C3A32177   8.950   7.209   7.946
 2221POPC   C4A32178   9.178   7.063   7.563
 2221POPC   C1B32179   8.745   7.557   8.705
 2221POPC   C2B32180   9.085   7.762   8.505
 2221POPC   C3B32181   9.095   7.736   8.075
 2221POPC   C4B32182   8.771   7.699   7.810
 2222POPC   NC332183  24.473  31.833   9.852
 2222POPC   PO432184  24.179  31.387   9.423
 2222POPC   GL132185  24.353  31.392   9.054
 2222POPC   GL232186  24.639  31.572   9.148
 2222POPC   C1A32187  24.417  31.306   8.614
 2222POPC   D2A32188  24.683  31.382   8.257
 2222POPC   C3A32189  24.551  31.135   7.943
 2222POPC   C4A32190  24.309  31.175   7.615
 2222POPC   C1B32191  24.461  31.822   8.791
 2222POPC   C2B32192  24.369  31.794   8.377
 2222POPC   C3B32193  24.368  31.922   7.956
 2222POPC   C4B32194  24.571  31.616   7.734
 2223POPC   NC332195   3.752  15.677   9.408
 2223POPC   PO432196   3.309  16.123   9.492
 2223POPC   GL132197   3.402  15.913   9.109
 2223POPC   GL232198   3.701  16.096   9.076
 2223POPC   C1A32199   3.536  15.607   8.771
 2223POPC   D2A32200   3.690  15.420   8.364
 2223POPC   C3A32201   3.765  15.772   8.050
 2223POPC   C4A32202   3.486  15.957   7.736
 2223POPC   C1B32203   3.389  16.390   8.864
 2223POPC   C2B32204   3.345  16.524   8.421
 2223POPC   C3B32205   3.553  16.226   8.165
 2223POPC   C4B32206   3.906  16.240   7.849
 2224POPC   NC332207  42.752  31.554   9.855
 2224POPC   PO432208  42.373  31.116   9.505
 2224POPC   GL132209  42.255  31.412   9.147
 2224POPC   GL232210  42.008  31.302   9.020
 2224POPC   C1A32211  42.303  31.669   8.774
 2224POPC   D2A32212  42.590  31.770   8.474
 2224POPC   C3A32213  42.362  31.744   8.140
 2224POPC   C4A32214  42.428  31.619   7.757
 2224POPC   C1B32215  42.369  31.170   8.706
 2224POPC   C2B32216  42.323  31.175   8.248
 2224POPC   C3B32217  42.252  31.143   7.806
 2224POPC   C4B32218  41.924  31.300   7.530
 2225POPC   NC332219  21.099  33.042   9.668
 2225POPC   PO432220  21.708  33.392   9.560
 2225POPC   GL132221  21.528  33.154   9.182
 2225POPC   GL232222  21.579  32.796   9.134
 2225POPC   C1A32223  21.594  33.063   8.704
 2225POPC   D2A32224  21.278  33.191   8.365
 2225POPC   C3A32225  21.417  33.108   7.928
 2225POPC   C4A32226  21.456  32.988   7.482
 2225POPC   C1B32227  21.330  32.636   8.740
 2225POPC   C2B32228  21.310  32.664   8.259
 2225POPC   C3B32229  21.343  32.586   7.787
 2225POPC   C4B32230  21.328  32.464   7.323
 2226POPC   NC332231  34.910  35.217   9.871
 2226POPC   PO432232  35.517  35.208   9.499
 2226POPC   GL132233  35.657  35.062   9.087
 2226POPC   GL232234  35.327  34.884   9.139
 2226POPC   C1A32235  35.734  35.253   8.695
 2226POPC   D2A32236  35.497  35.469   8.388
 2226POPC   C3A32237  35.447  35.341   7.959
 2226POPC   C4A32238  35.561  35.460   7.513
 2226POPC   C1B32239  35.239  35.152   8.775
 2226POPC   C2B32240  35.080  35.123   8.362
 2226POPC   C3B32241  35.078  34.975   7.953
 2226POPC   C4B32242  35.102  34.650   7.634
 2227POPC   NC332243  32.495  43.498   9.862
 2227POPC   PO432244  33.212  43.336   9.679
 2227POPC   GL132245  33.123  43.258   9.272
 2227POPC   GL232246  32.775  43.339   9.292
 2227POPC   C1A32247  33.338  43.074   8.907
 2227POPC   D2A32248  33.262  42.818   8.526
 2227POPC   C3A32249  33.257  42.993   8.090
 2227POPC   C4A32250  33.406  43.198   7.706
 2227POPC   C1B32251  32.821  43.162   8.855
 2227POPC   C2B32252  32.760  42.876   8.473
 2227POPC   C3B32253  32.720  42.836   8.003
 2227POPC   C4B32254  32.920  43.104   7.674
 2228POPC   NC332255  16.985  17.801   9.497
 2228POPC   PO432256  16.426  17.471   9.566
 2228POPC   GL132257  16.680  17.511   9.206
 2228POPC   GL232258  16.570  17.868   9.206
 2228POPC   C1A32259  16.860  17.400   8.780
 2228POPC   D2A32260  16.972  17.626   8.394
 2228POPC   C3A32261  16.840  17.479   8.031
 2228POPC   C4A32262  16.648  17.391   7.685
 2228POPC   C1B32263  16.279  18.007   8.909
 2228POPC   C2B32264  16.266  17.941   8.471
 2228POPC   C3B32265  16.424  17.843   8.053
 2228POPC   C4B32266  16.219  17.709   7.673
 2229POPC   NC332267   7.415  38.378   9.578
 2229POPC   PO432268   7.682  38.918   9.210
 2229POPC   GL132269   7.498  38.622   8.944
 2229POPC   GL232270   7.367  38.335   9.078
 2229POPC   C1A32271   7.272  38.641   8.557
 2229POPC   D2A32272   7.060  38.739   8.175
 2229POPC   C3A32273   7.354  38.613   7.859
 2229POPC   C4A32274   7.391  38.518   7.428
 2229POPC   C1B32275   7.247  38.152   8.694
 2229POPC   C2B32276   7.280  38.229   8.232
 2229POPC   C3B32277   7.242  38.141   7.789
 2229POPC   C4B32278   7.121  38.073   7.341
 2230POPC   NC332279   2.411   2.192   9.415
 2230POPC   PO432280   1.735   2.185   9.460
 2230POPC   GL132281   1.906   2.011   9.079
 2230POPC   GL232282   2.247   1.966   8.993
 2230POPC   C1A32283   1.941   2.204   8.669
 2230POPC   D2A32284   2.095   2.297   8.271
 2230POPC   C3A32285   1.809   2.222   7.948
 2230POPC   C4A32286   1.816   2.184   7.504
 2230POPC   C1B32287   2.131   1.739   8.633
 2230POPC   C2B32288   2.234   1.803   8.162
 2230POPC   C3B32289   2.239   2.008   7.748
 2230POPC   C4B32290   2.332   1.945   7.300
 2231POPC   NC332291  18.523  32.181   9.616
 2231POPC   PO432292  17.889  32.332   9.640
 2231POPC   GL132293  18.129  32.255   9.244
 2231POPC   GL232294  18.189  32.559   9.059
 2231POPC   C1A32295  18.285  32.049   8.854
 2231POPC   D2A32296  18.503  32.059   8.457
 2231POPC   C3A32297  18.287  32.204   8.080
 2231POPC   C4A32298  18.514  32.085   7.707
 2231POPC   C1B32299  18.255  32.503   8.601
 2231POPC   C2B32300  18.069  32.665   8.220
 2231POPC   C3B32301  18.232  32.636   7.811
 2231POPC   C4B32302  18.088  32.345   7.582
 2232POPC   NC332303   6.898  23.703   9.606
 2232POPC   PO432304   6.266  24.026   9.377
 2232POPC   GL132305   6.573  23.779   9.102
 2232POPC   GL232306   6.917  23.853   9.099
 2232POPC   C1A32307   6.498  23.577   8.702
 2232POPC   D2A32308   6.267  23.629   8.304
 2232POPC   C3A32309   6.551  23.711   7.972
 2232POPC   C4A32310   6.537  23.603   7.504
 2232POPC   C1B32311   6.725  24.039   8.696
 2232POPC   C2B32312   6.431  24.135   8.367
 2232POPC   C3B32313   6.588  24.273   7.963
 2232POPC   C4B32314   6.801  24.026   7.646
 2233POPC   NC332315  23.874  27.063   9.356
 2233POPC   PO432316  23.231  26.962   9.218
 2233POPC   GL132317  23.632  26.834   8.955
 2233POPC   GL232318  24.027  26.753   8.985
 2233POPC   C1A32319  23.774  26.981   8.544
 2233POPC   D2A32320  23.889  27.062   8.095
 2233POPC   C3A32321  23.612  26.896   7.780
 2233POPC   C4A32322  23.531  27.013   7.316
 2233POPC   C1B32323  23.941  26.492   8.619
 2233POPC   C2B32324  23.797  26.571   8.196
 2233POPC   C3B32325  24.061  26.625   7.822
 2233POPC   C4B32326  23.949  26.691   7.393
 2234POPC   NC332327  36.549  17.616   9.539
 2234POPC   PO432328  37.210  17.835   9.569
 2234POPC   GL132329  36.974  17.586   9.193
 2234POPC   GL232330  36.633  17.656   9.049
 2234POPC   C1A32331  37.083  17.500   8.729
 2234POPC   D2A32332  37.006  17.402   8.283
 2234POPC   C3A32333  37.271  17.212   7.990
 2234POPC   C4A32334  37.110  17.130   7.569
 2234POPC   C1B32335  36.726  17.891   8.723
 2234POPC   C2B32336  36.588  17.928   8.325
 2234POPC   C3B32337  36.702  17.878   7.931
 2234POPC   C4B32338  36.984  17.595   7.799
 2235POPC   NC332339  41.921   2.612   9.380
 2235POPC   PO432340  41.576   3.115   9.595
 2235POPC   GL132341  41.488   2.865   9.188
 2235POPC   GL232342  41.499   2.490   9.137
 2235POPC   C1A32343  41.613   2.856   8.732
 2235POPC   D2A32344  41.826   2.930   8.303
 2235POPC   C3A32345  41.565   2.926   7.892
 2235POPC   C4A32346  41.573   2.981   7.439
 2235POPC   C1B32347  41.852   2.405   8.800
 2235POPC   C2B32348  41.703   2.452   8.421
 2235POPC   C3B32349  41.787   2.498   8.019
 2235POPC   C4B32350  41.430   2.415   7.786
 2236POPC   NC332351  11.433   7.261   9.566
 2236POPC   PO432352  11.561   7.891   9.624
 2236POPC   GL132353  11.545   7.640   9.205
 2236POPC   GL232354  11.565   7.258   9.058
 2236POPC   C1A32355  11.276   7.603   8.832
 2236POPC   D2A32356  11.143   7.420   8.431
 2236POPC   C3A32357  11.219   7.669   8.057
 2236POPC   C4A32358  11.603   7.623   7.829
 2236POPC   C1B32359  11.174   7.062   8.871
 2236POPC   C2B32360  11.045   6.901   8.452
 2236POPC   C3B32361  10.970   7.097   8.043
 2236POPC   C4B32362  11.167   7.304   7.706
 2237POPC   NC332363  23.265   6.083   9.990
 2237POPC   PO432364  22.732   6.199   9.636
 2237POPC   GL132365  22.722   6.002   9.217
 2237POPC   GL232366  22.813   5.695   9.216
 2237POPC   C1A32367  22.969   5.909   8.800
 2237POPC   D2A32368  23.065   5.808   8.396
 2237POPC   C3A32369  22.952   6.009   8.056
 2237POPC   C4A32370  23.153   6.187   7.752
 2237POPC   C1B32371  22.673   5.482   8.838
 2237POPC   C2B32372  22.812   5.363   8.443
 2237POPC   C3B32373  22.846   5.497   8.050
 2237POPC   C4B32374  22.969   5.661   7.686
 2238POPC   NC332375  21.698  23.033   9.651
 2238POPC   PO432376  21.291  22.557   9.436
 2238POPC   GL132377  21.433  22.880   9.191
 2238POPC   GL232378  21.353  23.222   9.273
 2238POPC   C1A32379  21.613  22.853   8.789
 2238POPC   D2A32380  21.601  23.111   8.391
 2238POPC   C3A32381  21.514  22.864   8.038
 2238POPC   C4A32382  21.631  22.863   7.603
 2238POPC   C1B32383  21.382  23.300   8.839
 2238POPC   C2B32384  21.118  23.045   8.529
 2238POPC   C3B32385  20.993  23.041   8.098
 2238POPC   C4B32386  21.218  23.158   7.715
 2239POPC   NC332387  41.194  22.588   9.483
 2239POPC   PO432388  41.453  23.204   9.453
 2239POPC   GL132389  41.280  23.060   9.093
 2239POPC   GL232390  41.474  22.766   9.087
 2239POPC   C1A32391  41.431  23.118   8.698
 2239POPC   D2A32392  41.694  22.851   8.436
 2239POPC   C3A32393  41.562  22.805   8.013
 2239POPC   C4A32394  41.344  23.061   7.735
 2239POPC   C1B32395  41.310  22.629   8.699
 2239POPC   C2B32396  41.157  22.846   8.341
 2239POPC   C3B32397  41.057  22.690   7.935
 2239POPC   C4B32398  41.320  22.521   7.617
 2240POPC   NC332399   5.001  21.562   9.457
 2240POPC   PO432400   5.460  21.148   9.522
 2240POPC   GL132401   5.285  21.209   9.041
 2240POPC   GL232402   4.937  21.357   9.013
 2240POPC   C1A32403   5.177  21.405   8.594
 2240POPC   D2A32404   4.868  21.336   8.275
 2240POPC   C3A32405   5.158  21.332   7.925
 2240POPC   C4A32406   5.592  21.320   7.787
 2240POPC   C1B32407   4.667  21.617   8.739
 2240POPC   C2B32408   4.708  21.907   8.383
 2240POPC   C3B32409   4.942  21.797   8.021
 2240POPC   C4B32410   4.796  21.551   7.645
 2241POPC   NC332411   0.443   7.908   9.923
 2241POPC   PO432412   0.578   7.278   9.589
 2241POPC   GL132413   0.474   7.641   9.341
 2241POPC   GL232414   0.737   7.608   9.073
 2241POPC   C1A32415   0.239   7.682   8.946
 2241POPC   D2A32416   0.352   7.491   8.540
 2241POPC   C3A32417   0.302   7.668   8.147
 2241POPC   C4A32418   0.303   7.456   7.775
 2241POPC   C1B32419   0.765   7.183   8.892
 2241POPC   C2B32420   0.649   7.077   8.484
 2241POPC   C3B32421   0.679   7.305   8.105
 2241POPC   C4B32422   0.859   7.054   7.847
 2242POPC   NC332423  26.062  35.378   9.469
 2242POPC   PO432424  25.650  35.846   9.532
 2242POPC   GL132425  25.886  35.662   9.083
 2242POPC   GL232426  25.964  35.281   8.989
 2242POPC   C1A32427  25.885  35.624   8.607
 2242POPC   D2A32428  26.194  35.665   8.248
 2242POPC   C3A32429  26.037  35.571   7.829
 2242POPC   C4A32430  25.712  35.507   7.571
 2242POPC   C1B32431  26.158  35.025   8.680
 2242POPC   C2B32432  25.939  35.181   8.354
 2242POPC   C3B32433  25.957  35.071   7.965
 2242POPC   C4B32434  26.244  35.032   7.683
 2243POPC   NC332435  14.246  44.703   9.516
 2243POPC   PO432436  14.655  44.133   9.475
 2243POPC   GL132437  14.465  44.435   9.137
 2243POPC   GL232438  14.640  44.772   9.115
 2243POPC   C1A32439  14.311  44.689   8.738
 2243POPC   D2A32440  14.115  44.868   8.332
 2243POPC   C3A32441  14.129  44.614   7.937
 2243POPC   C4A32442  14.461  44.463   7.661
 2243POPC   C1B32443  14.806  44.886   8.705
 2243POPC   C2B32444  14.626   0.049   8.317
 2243POPC   C3B32445  14.526  44.936   7.886
 2243POPC   C4B32446  14.770  44.869   7.493
 2244POPC   NC332447  28.628  31.058   9.461
 2244POPC   PO432448  28.911  31.770   9.591
 2244POPC   GL132449  29.062  31.796   9.185
 2244POPC   GL232450  28.994  31.500   9.015
 2244POPC   C1A32451  29.382  31.873   8.881
 2244POPC   D2A32452  29.325  31.997   8.457
 2244POPC   C3A32453  29.374  31.679   8.111
 2244POPC   C4A32454  29.040  31.595   7.863
 2244POPC   C1B32455  29.263  31.438   8.632
 2244POPC   C2B32456  29.119  31.261   8.246
 2244POPC   C3B32457  29.281  31.164   7.866
 2244POPC   C4B32458  29.460  31.396   7.530
 2245POPC   NC332459  34.300  20.257   9.352
 2245POPC   PO432460  34.678  20.842   9.353
 2245POPC   GL132461  34.678  20.520   9.109
 2245POPC   GL232462  35.016  20.369   9.078
 2245POPC   C1A32463  34.486  20.584   8.705
 2245POPC   D2A32464  34.466  20.314   8.346
 2245POPC   C3A32465  34.641  20.487   7.991
 2245POPC   C4A32466  34.475  20.856   7.796
 2245POPC   C1B32467  35.006  20.702   8.760
 2245POPC   C2B32468  34.815  20.814   8.367
 2245POPC   C3B32469  34.982  20.926   7.968
 2245POPC   C4B32470  34.906  20.881   7.528
 2246POPC   NC332471  22.920  19.179   9.819
 2246POPC   PO432472  22.843  18.611   9.510
 2246POPC   GL132473  22.744  19.058   9.331
 2246POPC   GL232474  23.033  19.247   9.253
 2246POPC   C1A32475  22.629  19.296   8.932
 2246POPC   D2A32476  22.743  19.343   8.455
 2246POPC   C3A32477  22.875  18.958   8.215
 2246POPC   C4A32478  22.891  18.840   7.773
 2246POPC   C1B32479  23.128  19.426   8.846
 2246POPC   C2B32480  23.212  19.576   8.434
 2246POPC   C3B32481  23.150  19.364   8.045
 2246POPC   C4B32482  23.303  19.242   7.667
 2247POPC   NC332483  41.858  43.858   9.613
 2247POPC   PO432484  42.602  44.011   9.540
 2247POPC   GL132485  42.487  43.829   9.171
 2247POPC   GL232486  42.152  43.793   9.205
 2247POPC   C1A32487  42.430  44.001   8.759
 2247POPC   D2A32488  42.459  43.822   8.341
 2247POPC   C3A32489  42.345  44.111   8.005
 2247POPC   C4A32490  42.470  44.201   7.612
 2247POPC   C1B32491  42.126  43.597   8.830
 2247POPC   C2B32492  41.939  43.717   8.408
 2247POPC   C3B32493  42.081  43.665   8.005
 2247POPC   C4B32494  42.073  43.874   7.636
 2248POPC   NC332495   1.271  38.588   9.548
 2248POPC   PO432496   1.512  38.015   9.415
 2248POPC   GL132497   1.478  38.407   9.141
 2248POPC   GL232498   1.535  38.795   9.163
 2248POPC   C1A32499   1.262  38.580   8.763
 2248POPC   D2A32500   1.466  38.585   8.397
 2248POPC   C3A32501   1.418  38.345   8.033
 2248POPC   C4A32502   1.146  38.433   7.703
 2248POPC   C1B32503   1.546  38.995   8.755
 2248POPC   C2B32504   1.240  39.036   8.420
 2248POPC   C3B32505   1.171  38.811   8.049
 2248POPC   C4B32506   1.196  38.935   7.651
 2249POPC   NC332507  41.836  29.698   9.453
 2249POPC   PO432508  41.274  30.037   9.600
 2249POPC   GL132509  41.377  29.811   9.189
 2249POPC   GL232510  41.630  29.986   9.064
 2249POPC   C1A32511  41.372  29.728   8.705
 2249POPC   D2A32512  41.505  29.993   8.313
 2249POPC   C3A32513  41.311  30.107   7.957
 2249POPC   C4A32514  41.422  29.863   7.617
 2249POPC   C1B32515  41.836  29.979   8.682
 2249POPC   C2B32516  42.023  29.876   8.312
 2249POPC   C3B32517  41.862  29.845   7.919
 2249POPC   C4B32518  41.806  30.239   7.701
 2250POPC   NC332519  18.583  12.778   9.451
 2250POPC   PO432520  18.130  13.222   9.543
 2250POPC   GL132521  18.237  13.087   9.168
 2250POPC   GL232522  18.576  13.184   9.136
 2250POPC   C1A32523  18.191  12.899   8.758
 2250POPC   D2A32524  18.391  13.053   8.373
 2250POPC   C3A32525  18.184  12.952   7.998
 2250POPC   C4A32526  18.008  12.856   7.630
 2250POPC   C1B32527  18.702  12.957   8.789
 2250POPC   C2B32528  18.874  12.800   8.410
 2250POPC   C3B32529  18.635  12.722   8.054
 2250POPC   C4B32530  18.505  12.719   7.633
 2251POPC   NC332531  17.638  41.062   9.527
 2251POPC   PO432532  17.166  40.601   9.431
 2251POPC   GL132533  17.471  40.507   9.129
 2251POPC   GL232534  17.686  40.776   9.101
 2251POPC   C1A32535  17.623  40.425   8.709
 2251POPC   D2A32536  17.577  40.751   8.386
 2251POPC   C3A32537  17.466  40.631   7.987
 2251POPC   C4A32538  17.655  40.549   7.613
 2251POPC   C1B32539  17.619  41.077   8.790
 2251POPC   C2B32540  17.740  41.267   8.408
 2251POPC   C3B32541  17.567  41.134   8.033
 2251POPC   C4B32542  17.752  41.042   7.690
 2252POPC   NC332543  15.309  27.022   9.522
 2252POPC   PO432544  15.462  26.396   9.484
 2252POPC   GL132545  15.136  26.588   9.185
 2252POPC   GL232546  14.944  26.909   9.169
 2252POPC   C1A32547  15.110  26.667   8.749
 2252POPC   D2A32548  15.246  26.552   8.362
 2252POPC   C3A32549  15.337  26.844   8.096
 2252POPC   C4A32550  15.438  26.949   7.695
 2252POPC   C1B32551  14.777  27.052   8.752
 2252POPC   C2B32552  14.927  27.084   8.324
 2252POPC   C3B32553  14.844  26.996   7.898
 2252POPC   C4B32554  14.794  27.025   7.444
 2253POPC   NC332555  35.906  32.466   9.481
 2253POPC   PO432556  36.433  32.061   9.453
 2253POPC   GL132557  36.045  32.121   9.144
 2253POPC   GL232558  35.631  32.193   9.137
 2253POPC   C1A32559  35.874  31.965   8.762
 2253POPC   D2A32560  35.933  32.219   8.409
 2253POPC   C3A32561  35.934  31.971   8.053
 2253POPC   C4A32562  36.271  32.105   7.789
 2253POPC   C1B32563  35.631  32.449   8.793
 2253POPC   C2B32564  35.571  32.626   8.398
 2253POPC   C3B32565  35.751  32.529   8.018
 2253POPC   C4B32566  35.813  32.294   7.659
 2254POPC   NC332567  41.732   9.620   9.423
 2254POPC   PO432568  41.139   9.865   9.532
 2254POPC   GL132569  41.356   9.850   9.145
 2254POPC   GL232570  41.655  10.053   9.162
 2254POPC   C1A32571  41.334  10.011   8.730
 2254POPC   D2A32572  41.569  10.049   8.334
 2254POPC   C3A32573  41.603   9.684   8.077
 2254POPC   C4A32574  41.449   9.580   7.684
 2254POPC   C1B32575  41.847   9.932   8.752
 2254POPC   C2B32576  42.073   9.872   8.354
 2254POPC   C3B32577  41.982   9.974   7.901
 2254POPC   C4B32578  41.736   9.962   7.502
 2255POPC   NC332579   0.965  40.016   9.501
 2255POPC   PO432580   1.539  39.661   9.530
 2255POPC   GL132581   1.305  39.800   9.144
 2255POPC   GL232582   0.941  39.683   9.118
 2255POPC   C1A32583   1.252  40.194   8.879
 2255POPC   D2A32584   1.330  40.337   8.472
 2255POPC   C3A32585   1.164  40.109   8.132
 2255POPC   C4A32586   1.062  40.109   7.724
 2255POPC   C1B32587   0.960  39.838   8.691
 2255POPC   C2B32588   1.321  39.736   8.426
 2255POPC   C3B32589   1.410  39.659   8.004
 2255POPC   C4B32590   1.338  39.720   7.539
 2256POPC   NC332591  15.981  24.545   9.531
 2256POPC   PO432592  15.490  24.853   9.190
 2256POPC   GL132593  15.996  24.834   9.066
 2256POPC   GL232594  16.145  24.485   9.067
 2256POPC   C1A32595  16.342  24.711   8.695
 2256POPC   D2A32596  16.193  24.451   8.342
 2256POPC   C3A32597  16.279  24.566   7.916
 2256POPC   C4A32598  16.190  24.360   7.527
 2256POPC   C1B32599  15.819  24.522   8.695
 2256POPC   C2B32600  15.678  24.596   8.261
 2256POPC   C3B32601  15.788  24.477   7.852
 2256POPC   C4B32602  15.665  24.568   7.431
 2257POPC   NC332603   8.207   0.713   9.452
 2257POPC   PO432604   8.014   0.005   9.456
 2257POPC   GL132605   8.021   0.307   9.155
 2257POPC   GL232606   8.391   0.314   9.130
 2257POPC   C1A32607   8.079   0.351   8.707
 2257POPC   D2A32608   8.056   0.611   8.356
 2257POPC   C3A32609   8.075   0.379   8.001
 2257POPC   C4A32610   7.897   0.429   7.602
 2257POPC   C1B32611   8.476   0.654   8.812
 2257POPC   C2B32612   8.556   0.509   8.383
 2257POPC   C3B32613   8.495   0.690   7.990
 2257POPC   C4B32614   8.269   0.774   7.636
 2258POPC   NC332615  18.375  39.007   9.278
 2258POPC   PO432616  18.125  38.382   9.630
 2258POPC   GL132617  18.175  38.391   9.182
 2258POPC   GL232618  18.471  38.555   9.091
 2258POPC   C1A32619  18.101  38.448   8.736
 2258POPC   D2A32620  18.258  38.205   8.364
 2258POPC   C3A32621  18.152  38.304   7.973
 2258POPC   C4A32622  17.913  38.614   7.801
 2258POPC   C1B32623  18.481  38.778   8.685
 2258POPC   C2B32624  18.608  38.915   8.305
 2258POPC   C3B32625  18.682  38.709   7.981
 2258POPC   C4B32626  18.469  38.564   7.685
 2259POPC   NC332627   6.196  10.581   9.592
 2259POPC   PO432628   6.864  10.402   9.560
 2259POPC   GL132629   6.747  10.507   9.126
 2259POPC   GL232630   6.498  10.776   9.140
 2259POPC   C1A32631   6.725  10.374   8.669
 2259POPC   D2A32632   6.743  10.559   8.237
 2259POPC   C3A32633   6.945  10.312   7.910
 2259POPC   C4A32634   6.854  10.103   7.506
 2259POPC   C1B32635   6.638  10.887   8.706
 2259POPC   C2B32636   6.487  11.058   8.323
 2259POPC   C3B32637   6.395  10.863   7.952
 2259POPC   C4B32638   6.444  10.416   7.827
 2260POPC   NC332639  30.849  21.798   9.547
 2260POPC   PO432640  30.586  22.440   9.594
 2260POPC   GL132641  30.535  22.122   9.242
 2260POPC   GL232642  30.787  21.927   9.049
 2260POPC   C1A32643  30.480  22.233   8.784
 2260POPC   D2A32644  30.553  22.059   8.363
 2260POPC   C3A32645  30.583  22.311   8.035
 2260POPC   C4A32646  30.288  22.384   7.756
 2260POPC   C1B32647  30.973  22.028   8.646
 2260POPC   C2B32648  31.083  21.963   8.202
 2260POPC   C3B32649  30.860  21.961   7.816
 2260POPC   C4B32650  30.401  21.845   7.831
 2261POPC   NC332651   5.209  34.392   9.614
 2261POPC   PO432652   4.747  33.971   9.577
 2261POPC   GL132653   4.807  34.326   9.212
 2261POPC   GL232654   5.106  34.479   9.111
 2261POPC   C1A32655   4.757  34.450   8.746
 2261POPC   D2A32656   4.840  34.789   8.425
 2261POPC   C3A32657   4.993  34.644   8.007
 2261POPC   C4A32658   4.962  34.738   7.539
 2261POPC   C1B32659   5.265  34.691   8.724
 2261POPC   C2B32660   5.401  34.916   8.366
 2261POPC   C3B32661   5.511  34.754   7.974
 2261POPC   C4B32662   5.497  34.822   7.559
 2262POPC   NC332663  26.411  30.743   9.512
 2262POPC   PO432664  25.894  30.426   9.410
 2262POPC   GL132665  26.027  30.783   9.183
 2262POPC   GL232666  26.292  30.547   9.056
 2262POPC   C1A32667  25.865  30.958   8.794
 2262POPC   D2A32668  25.711  30.712   8.453
 2262POPC   C3A32669  25.833  30.824   8.010
 2262POPC   C4A32670  25.834  30.538   7.639
 2262POPC   C1B32671  26.378  30.949   8.861
 2262POPC   C2B32672  26.288  31.005   8.445
 2262POPC   C3B32673  26.349  30.915   8.015
 2262POPC   C4B32674  26.325  30.666   7.660
 2263POPC   NC332675   1.582  36.040   9.801
 2263POPC   PO432676   2.159  36.134   9.657
 2263POPC   GL132677   1.979  36.055   9.210
 2263POPC   GL232678   1.655  35.874   9.185
 2263POPC   C1A32679   2.012  36.308   8.800
 2263POPC   D2A32680   1.801  36.340   8.391
 2263POPC   C3A32681   2.066  36.258   8.037
 2263POPC   C4A32682   2.068  36.464   7.655
 2263POPC   C1B32683   1.616  35.994   8.767
 2263POPC   C2B32684   1.597  35.800   8.375
 2263POPC   C3B32685   1.854  35.790   8.005
 2263POPC   C4B32686   1.802  36.032   7.636
 2264POPC   NC332687  10.425  28.177   9.492
 2264POPC   PO432688  10.822  28.683   9.744
 2264POPC   GL132689  10.802  28.598   9.271
 2264POPC   GL232690  10.810  28.273   9.187
 2264POPC   C1A32691  10.574  28.567   8.829
 2264POPC   D2A32692  10.274  28.554   8.498
 2264POPC   C3A32693  10.365  28.570   8.078
 2264POPC   C4A32694  10.322  28.296   7.759
 2264POPC   C1B32695  10.960  28.234   8.771
 2264POPC   C2B32696  10.936  28.022   8.385
 2264POPC   C3B32697  10.746  28.170   8.016
 2264POPC   C4B32698  10.802  28.547   7.797
 2265POPC   NC332699  17.109   9.677   9.435
 2265POPC   PO432700  16.560   9.762   9.678
 2265POPC   GL132701  16.698   9.717   9.167
 2265POPC   GL232702  16.848   9.446   9.046
 2265POPC   C1A32703  16.686   9.828   8.701
 2265POPC   D2A32704  16.549  10.131   8.351
 2265POPC   C3A32705  16.700   9.977   7.966
 2265POPC   C4A32706  16.924   9.578   7.816
 2265POPC   C1B32707  16.583   9.289   8.665
 2265POPC   C2B32708  16.285   9.173   8.328
 2265POPC   C3B32709  16.358   9.275   7.894
 2265POPC   C4B32710  16.443   9.637   7.694
 2266POPC   NC332711   7.059  42.880   9.445
 2266POPC   PO432712   7.411  43.430   9.528
 2266POPC   GL132713   7.513  43.135   9.170
 2266POPC   GL232714   7.310  42.838   9.029
 2266POPC   C1A32715   7.470  43.190   8.709
 2266POPC   D2A32716   7.431  43.432   8.319
 2266POPC   C3A32717   7.449  43.299   7.902
 2266POPC   C4A32718   7.045  43.299   7.687
 2266POPC   C1B32719   7.684  42.744   8.845
 2266POPC   C2B32720   7.673  42.765   8.434
 2266POPC   C3B32721   7.736  42.603   8.046
 2266POPC   C4B32722   7.449  42.760   7.738
 2267POPC   NC332723  37.269  37.855   9.552
 2267POPC   PO432724  37.922  37.623   9.634
 2267POPC   GL132725  37.616  37.586   9.273
 2267POPC   GL232726  37.516  37.946   9.138
 2267POPC   C1A32727  37.588  37.585   8.804
 2267POPC   D2A32728  37.694  37.420   8.391
 2267POPC   C3A32729  37.902  37.697   8.088
 2267POPC   C4A32730  37.810  37.694   7.643
 2267POPC   C1B32731  37.373  38.059   8.736
 2267POPC   C2B32732  37.469  37.902   8.319
 2267POPC   C3B32733  37.372  38.103   7.913
 2267POPC   C4B32734  37.453  37.989   7.459
 2268POPC   NC332735  42.713  23.593   9.488
 2268POPC   PO432736  43.368  23.447   9.473
 2268POPC   GL132737  43.096  23.582   9.136
 2268POPC   GL232738  42.973  23.928   9.154
 2268POPC   C1A32739  43.027  23.719   8.702
 2268POPC   D2A32740  43.284  23.935   8.385
 2268POPC   C3A32741  43.188  23.709   8.015
 2268POPC   C4A32742  43.015  23.526   7.622
 2268POPC   C1B32743  43.068  24.206   8.767
 2268POPC   C2B32744  42.899  24.264   8.329
 2268POPC   C3B32745  43.138  24.204   7.907
 2268POPC   C4B32746  43.028  24.184   7.455
 2269POPC   NC332747  28.120  16.771   9.775
 2269POPC   PO432748  28.511  17.233   9.666
 2269POPC   GL132749  28.258  17.107   9.292
 2269POPC   GL232750  28.206  16.762   9.261
 2269POPC   C1A32751  28.102  17.092   8.844
 2269POPC   D2A32752  28.149  16.770   8.499
 2269POPC   C3A32753  28.029  16.737   8.055
 2269POPC   C4A32754  28.065  16.490   7.690
 2269POPC   C1B32755  28.542  16.849   8.942
 2269POPC   C2B32756  28.574  17.055   8.530
 2269POPC   C3B32757  28.501  16.988   8.078
 2269POPC   C4B32758  28.707  16.839   7.673
 2270POPC   NC332759  44.201  41.382  10.058
 2270POPC   PO432760  44.497  41.593   9.497
 2270POPC   GL132761  44.594  41.484   9.064
 2270POPC   GL232762  44.795  41.213   9.075
 2270POPC   C1A32763  44.927  41.534   8.717
 2270POPC   D2A32764   0.091  41.756   8.361
 2270POPC   C3A32765  44.921  41.611   7.988
 2270POPC   C4A32766  44.839  41.809   7.602
 2270POPC   C1B32767  44.612  41.091   8.666
 2270POPC   C2B32768  44.616  41.203   8.208
 2270POPC   C3B32769  44.562  41.319   7.766
 2270POPC   C4B32770  44.845  41.340   7.401
 2271POPC   NC332771  41.055  40.608   9.350
 2271POPC   PO432772  40.820  41.229   9.352
 2271POPC   GL132773  40.835  40.967   9.046
 2271POPC   GL232774  40.588  40.767   9.189
 2271POPC   C1A32775  40.971  40.775   8.661
 2271POPC   D2A32776  41.153  40.564   8.307
 2271POPC   C3A32777  40.935  40.672   7.942
 2271POPC   C4A32778  40.992  41.028   7.656
 2271POPC   C1B32779  40.465  40.711   8.743
 2271POPC   C2B32780  40.573  40.611   8.316
 2271POPC   C3B32781  40.493  40.877   7.920
 2271POPC   C4B32782  40.596  40.781   7.468
 2272POPC   NC332783  28.555   2.627   9.713
 2272POPC   PO432784  28.122   3.071   9.640
 2272POPC   GL132785  28.270   2.759   9.257
 2272POPC   GL232786  28.600   2.577   9.192
 2272POPC   C1A32787  28.222   2.736   8.770
 2272POPC   D2A32788  28.165   2.993   8.354
 2272POPC   C3A32789  28.089   2.787   7.965
 2272POPC   C4A32790  28.089   2.426   7.687
 2272POPC   C1B32791  28.685   2.892   8.893
 2272POPC   C2B32792  28.636   2.869   8.462
 2272POPC   C3B32793  28.615   2.780   8.023
 2272POPC   C4B32794  28.846   2.982   7.679
 2273POPC   NC332795   9.073   2.907   9.687
 2273POPC   PO432796   9.411   2.459   9.424
 2273POPC   GL132797   9.197   2.621   9.075
 2273POPC   GL232798   8.858   2.696   9.182
 2273POPC   C1A32799   9.023   2.473   8.717
 2273POPC   D2A32800   8.848   2.421   8.340
 2273POPC   C3A32801   9.175   2.611   8.054
 2273POPC   C4A32802   9.104   2.696   7.647
 2273POPC   C1B32803   8.562   2.657   8.812
 2273POPC   C2B32804   8.479   2.804   8.398
 2273POPC   C3B32805   8.666   2.725   7.963
 2273POPC   C4B32806   8.502   2.465   7.610
 2274POPC   NC332807   0.871  31.051   9.699
 2274POPC   PO432808   0.145  31.083   9.765
 2274POPC   GL132809   0.410  30.964   9.327
 2274POPC   GL232810   0.178  30.971   9.026
 2274POPC   C1A32811   0.621  30.749   8.884
 2274POPC   D2A32812   0.569  30.804   8.370
 2274POPC   C3A32813   0.542  30.588   7.924
 2274POPC   C4A32814   0.408  30.463   7.472
 2274POPC   C1B32815   0.441  31.184   8.699
 2274POPC   C2B32816   0.557  31.333   8.294
 2274POPC   C3B32817   0.525  31.109   7.899
 2274POPC   C4B32818   0.611  30.927   7.495
 2275POPC   NC332819  21.863  32.945   9.544
 2275POPC   PO432820  22.513  33.235   9.565
 2275POPC   GL132821  22.273  33.010   9.246
 2275POPC   GL232822  22.027  33.247   9.146
 2275POPC   C1A32823  22.035  32.834   8.884
 2275POPC   D2A32824  22.095  33.055   8.508
 2275POPC   C3A32825  21.846  32.962   8.162
 2275POPC   C4A32826  21.831  32.715   7.809
 2275POPC   C1B32827  22.333  33.399   8.843
 2275POPC   C2B32828  22.265  33.542   8.399
 2275POPC   C3B32829  22.273  33.262   8.038
 2275POPC   C4B32830  22.322  32.835   7.906
 2276POPC   NC332831  37.069  22.385   9.493
 2276POPC   PO432832  36.455  22.062   9.557
 2276POPC   GL132833  36.646  22.018   9.155
 2276POPC   GL232834  37.003  21.914   9.168
 2276POPC   C1A32835  36.761  22.152   8.738
 2276POPC   D2A32836  36.980  22.103   8.355
 2276POPC   C3A32837  36.749  22.128   7.955
 2276POPC   C4A32838  36.410  21.899   7.768
 2276POPC   C1B32839  37.301  21.793   8.821
 2276POPC   C2B32840  37.463  21.891   8.413
 2276POPC   C3B32841  37.249  21.869   7.999
 2276POPC   C4B32842  37.193  22.152   7.667
 2277POPC   NC332843  43.792  30.148   9.414
 2277POPC   PO432844  43.511  30.718   9.650
 2277POPC   GL132845  43.759  30.817   9.278
 2277POPC   GL232846  44.001  30.570   9.170
 2277POPC   C1A32847  43.697  30.902   8.849
 2277POPC   D2A32848  43.574  31.063   8.438
 2277POPC   C3A32849  43.808  30.819   8.142
 2277POPC   C4A32850  43.883  30.601   7.733
 2277POPC   C1B32851  43.867  30.427   8.744
 2277POPC   C2B32852  43.858  30.328   8.285
 2277POPC   C3B32853  44.099  30.184   7.920
 2277POPC   C4B32854  44.255  30.262   7.490
 2278POPC   NC332855  20.213  42.440   9.570
 2278POPC   PO432856  19.497  42.673   9.532
 2278POPC   GL132857  19.709  42.433   9.208
 2278POPC   GL232858  19.515  42.132   9.061
 2278POPC   C1A32859  19.909  42.460   8.841
 2278POPC   D2A32860  19.797  42.420   8.411
 2278POPC   C3A32861  20.096  42.482   8.098
 2278POPC   C4A32862  19.880  42.493   7.695
 2278POPC   C1B32863  19.719  42.011   8.691
 2278POPC   C2B32864  19.867  41.851   8.303
 2278POPC   C3B32865  19.756  42.094   7.984
 2278POPC   C4B32866  19.390  42.244   7.753
 2279POPC   NC332867  37.659  33.567   9.496
 2279POPC   PO432868  37.270  34.074   9.519
 2279POPC   GL132869  37.544  33.994   9.180
 2279POPC   GL232870  37.457  33.675   9.035
 2279POPC   C1A32871  37.736  34.025   8.759
 2279POPC   D2A32872  37.856  34.198   8.347
 2279POPC   C3A32873  37.674  33.932   7.993
 2279POPC   C4A32874  37.315  33.585   7.983
 2279POPC   C1B32875  37.888  33.543   8.857
 2279POPC   C2B32876  38.060  33.370   8.473
 2279POPC   C3B32877  37.791  33.316   8.119
 2279POPC   C4B32878  37.721  33.496   7.715
 2280POPC   NC332879   9.252  41.858   9.631
 2280POPC   PO432880   8.894  41.413   9.661
 2280POPC   GL132881   8.953  41.631   9.252
 2280POPC   GL232882   9.216  41.892   9.139
 2280POPC   C1A32883   8.877  41.630   8.833
 2280POPC   D2A32884   8.613  41.453   8.532
 2280POPC   C3A32885   8.816  41.395   8.152
 2280POPC   C4A32886   8.894  41.500   7.751
 2280POPC   C1B32887   9.335  42.002   8.721
 2280POPC   C2B32888   9.158  41.781   8.386
 2280POPC   C3B32889   8.883  41.901   8.091
 2280POPC   C4B32890   9.101  41.988   7.721
 2281POPC   NC332891  14.655   3.902   9.492
 2281POPC   PO432892  14.405   3.308   9.773
 2281POPC   GL132893  14.370   3.558   9.301
 2281POPC   GL232894  14.374   3.321   9.009
 2281POPC   C1A32895  14.229   3.802   8.919
 2281POPC   D2A32896  14.309   3.989   8.520
 2281POPC   C3A32897  14.227   3.834   8.114
 2281POPC   C4A32898  14.528   3.727   7.807
 2281POPC   C1B32899  14.562   3.302   8.586
 2281POPC   C2B32900  14.765   3.525   8.254
 2281POPC   C3B32901  14.959   3.466   7.852
 2281POPC   C4B32902  14.753   3.409   7.447
 2282POPC   NC332903  31.573  21.789   9.351
 2282POPC   PO432904  31.073  22.170   9.389
 2282POPC   GL132905  31.321  22.084   9.007
 2282POPC   GL232906  31.692  22.155   9.032
 2282POPC   C1A32907  31.468  22.091   8.562
 2282POPC   D2A32908  31.631  22.356   8.239
 2282POPC   C3A32909  31.404  22.215   7.876
 2282POPC   C4A32910  31.422  21.842   7.682
 2282POPC   C1B32911  31.905  21.917   8.759
 2282POPC   C2B32912  31.776  21.718   8.391
 2282POPC   C3B32913  31.833  21.934   8.009
 2282POPC   C4B32914  31.966  21.924   7.602
 2283POPC   NC332915   0.545   6.826   9.733
 2283POPC   PO432916   0.660   6.266   9.323
 2283POPC   GL132917   0.447   6.567   9.084
 2283POPC   GL232918   0.431   6.907   9.229
 2283POPC   C1A32919   0.452   6.630   8.626
 2283POPC   D2A32920   0.768   6.532   8.313
 2283POPC   C3A32921   0.612   6.341   7.921
 2283POPC   C4A32922   0.322   6.629   7.797
 2283POPC   C1B32923   0.257   7.117   8.886
 2283POPC   C2B32924   0.128   7.016   8.511
 2283POPC   C3B32925   0.229   7.084   8.115
 2283POPC   C4B32926   0.019   7.047   7.742
 2284POPC   NC332927  15.911  12.801   9.527
 2284POPC   PO432928  16.409  13.265   9.388
 2284POPC   GL132929  16.180  12.933   9.127
 2284POPC   GL232930  16.133  12.569   9.147
 2284POPC   C1A32931  15.952  12.876   8.729
 2284POPC   D2A32932  15.746  13.021   8.322
 2284POPC   C3A32933  16.059  13.104   7.974
 2284POPC   C4A32934  16.143  12.915   7.536
 2284POPC   C1B32935  16.393  12.600   8.788
 2284POPC   C2B32936  16.518  12.509   8.394
 2284POPC   C3B32937  16.321  12.645   8.019
 2284POPC   C4B32938  16.418  12.398   7.691
 2285POPC   NC332939  17.247  20.931   9.852
 2285POPC   PO432940  17.473  21.363   9.494
 2285POPC   GL132941  17.438  21.378   9.056
 2285POPC   GL232942  17.753  21.564   9.064
 2285POPC   C1A32943  17.270  21.250   8.627
 2285POPC   D2A32944  17.520  21.187   8.291
 2285POPC   C3A32945  17.500  21.529   8.012
 2285POPC   C4A32946  17.258  21.508   7.640
 2285POPC   C1B32947  17.661  21.601   8.636
 2285POPC   C2B32948  17.925  21.509   8.297
 2285POPC   C3B32949  17.932  21.247   7.939
 2285POPC   C4B32950  17.762  21.441   7.576
 2286POPC   NC332951  42.571  25.063   9.577
 2286POPC   PO432952  42.544  25.668   9.388
 2286POPC   GL132953  42.265  25.459   9.122
 2286POPC   GL232954  42.261  25.147   9.190
 2286POPC   C1A32955  42.138  25.385   8.705
 2286POPC   D2A32956  42.240  25.440   8.270
 2286POPC   C3A32957  42.089  25.214   7.971
 2286POPC   C4A32958  42.371  25.315   7.668
 2286POPC   C1B32959  42.488  25.010   8.837
 2286POPC   C2B32960  42.573  25.118   8.439
 2286POPC   C3B32961  42.539  24.971   8.028
 2286POPC   C4B32962  42.660  24.906   7.594
 2287POPC   NC332963  13.860  28.405   9.476
 2287POPC   PO432964  14.598  28.323   9.570
 2287POPC   GL132965  14.520  28.249   9.152
 2287POPC   GL232966  14.175  28.115   9.142
 2287POPC   C1A32967  14.543  28.469   8.761
 2287POPC   D2A32968  14.799  28.579   8.435
 2287POPC   C3A32969  14.642  28.602   8.036
 2287POPC   C4A32970  14.544  28.380   7.670
 2287POPC   C1B32971  14.040  28.291   8.740
 2287POPC   C2B32972  14.223  28.411   8.332
 2287POPC   C3B32973  14.081  28.272   7.913
 2287POPC   C4B32974  14.108  28.214   7.450
 2288POPC   NC332975  18.689  30.585   9.895
 2288POPC   PO432976  18.166  30.736   9.446
 2288POPC   GL132977  18.202  30.958   9.051
 2288POPC   GL232978  17.857  30.860   8.989
 2288POPC   C1A32979  18.493  31.148   8.715
 2288POPC   D2A32980  18.609  31.320   8.273
 2288POPC   C3A32981  18.446  31.068   7.908
 2288POPC   C4A32982  18.534  30.835   7.504
 2288POPC   C1B32983  18.148  30.774   8.589
 2288POPC   C2B32984  18.128  30.720   8.136
 2288POPC   C3B32985  18.010  30.861   7.723
 2288POPC   C4B32986  18.054  30.869   7.272
 2289POPC   NC332987  35.615   0.662   9.475
 2289POPC   PO432988  35.016   0.447   9.689
 2289POPC   GL132989  35.228   0.458   9.202
 2289POPC   GL232990  35.575   0.308   9.109
 2289POPC   C1A32991  35.299   0.364   8.716
 2289POPC   D2A32992  35.564   0.231   8.329
 2289POPC   C3A32993  35.384   0.220   7.896
 2289POPC   C4A32994  35.018   0.463   7.707
 2289POPC   C1B32995  35.731   0.634   8.798
 2289POPC   C2B32996  35.803   0.732   8.352
 2289POPC   C3B32997  35.576   0.670   7.958
 2289POPC   C4B32998  35.526   0.540   7.515
 2290POPC   NC332999  24.700  33.436   9.481
 2290POPC   PO433000  25.391  33.459   9.459
 2290POPC   GL133001  25.074  33.595   9.148
 2290POPC   GL233002  24.887  33.902   9.277
 2290POPC   C1A33003  25.149  33.641   8.700
 2290POPC   D2A33004  25.394  33.775   8.351
 2290POPC   C3A33005  25.333  33.581   7.964
 2290POPC   C4A33006  25.578  33.746   7.656
 2290POPC   C1B33007  24.822  34.021   8.831
 2290POPC   C2B33008  25.019  34.149   8.403
 2290POPC   C3B33009  25.188  34.084   7.940
 2290POPC   C4B33010  25.126  33.918   7.488
 2291POPC   NC333011  26.588   4.461  10.001
 2291POPC   PO433012  26.190   4.415   9.496
 2291POPC   GL133013  26.183   4.369   9.065
 2291POPC   GL233014  26.528   4.288   8.967
 2291POPC   C1A33015  25.988   4.527   8.672
 2291POPC   D2A33016  25.840   4.743   8.347
 2291POPC   C3A33017  25.787   4.456   7.976
 2291POPC   C4A33018  26.125   4.278   7.734
 2291POPC   C1B33019  26.308   4.147   8.616
 2291POPC   C2B33020  26.126   4.187   8.240
 2291POPC   C3B33021  25.907   3.887   7.943
 2291POPC   C4B33022  26.032   3.813   7.497
 2292POPC   NC333023  34.370   9.782   9.439
 2292POPC   PO433024  34.754   9.259   9.394
 2292POPC   GL133025  34.676   9.560   9.103
 2292POPC   GL233026  34.336   9.459   8.973
 2292POPC   C1A33027  34.570   9.899   8.832
 2292POPC   D2A33028  34.629   9.949   8.425
 2292POPC   C3A33029  34.446   9.671   8.167
 2292POPC   C4A33030  34.480   9.938   7.801
 2292POPC   C1B33031  34.673   9.456   8.610
 2292POPC   C2B33032  34.951   9.532   8.263
 2292POPC   C3B33033  34.806   9.494   7.865
 2292POPC   C4B33034  34.353   9.449   7.708
 2293POPC   NC333035  28.941  43.051   9.684
 2293POPC   PO433036  29.431  43.514   9.493
 2293POPC   GL133037  29.397  43.234   9.196
 2293POPC   GL233038  29.034  43.220   9.180
 2293POPC   C1A33039  29.330  42.983   8.840
 2293POPC   D2A33040  28.985  43.041   8.547
 2293POPC   C3A33041  29.102  43.212   8.146
 2293POPC   C4A33042  29.339  43.033   7.825
 2293POPC   C1B33043  28.807  43.440   8.827
 2293POPC   C2B33044  28.805  43.548   8.398
 2293POPC   C3B33045  28.814  43.616   7.954
 2293POPC   C4B33046  28.938  43.284   7.656
 2294POPC   NC333047  35.117  33.012   9.440
 2294POPC   PO433048  35.553  33.553   9.660
 2294POPC   GL133049  35.653  33.119   9.311
 2294POPC   GL233050  35.381  33.022   9.030
 2294POPC   C1A33051  35.820  32.935   8.862
 2294POPC   D2A33052  35.583  33.135   8.505
 2294POPC   C3A33053  35.654  33.051   8.064
 2294POPC   C4A33054  35.529  32.986   7.640
 2294POPC   C1B33055  35.115  33.229   8.728
 2294POPC   C2B33056  34.892  33.325   8.323
 2294POPC   C3B33057  35.135  33.194   7.932
 2294POPC   C4B33058  35.145  33.320   7.489
 2295POPC   NC333059   2.840  22.858   9.608
 2295POPC   PO433060   2.571  23.449   9.652
 2295POPC   GL133061   2.625  23.161   9.254
 2295POPC   GL233062   2.540  22.814   9.171
 2295POPC   C1A33063   2.949  22.977   8.931
 2295POPC   D2A33064   2.880  22.694   8.542
 2295POPC   C3A33065   2.947  22.875   8.089
 2295POPC   C4A33066   2.908  23.063   7.654
 2295POPC   C1B33067   2.477  22.967   8.740
 2295POPC   C2B33068   2.476  22.895   8.296
 2295POPC   C3B33069   2.468  22.924   7.853
 2295POPC   C4B33070   2.441  22.998   7.412
 2296POPC   NC333071  36.491  21.569   9.490
 2296POPC   PO433072  37.183  21.246   9.471
 2296POPC   GL133073  37.122  21.386   9.101
 2296POPC   GL233074  36.758  21.439   9.071
 2296POPC   C1A33075  37.118  21.281   8.691
 2296POPC   D2A33076  37.031  21.570   8.392
 2296POPC   C3A33077  36.958  21.393   8.015
 2296POPC   C4A33078  36.914  21.637   7.649
 2296POPC   C1B33079  36.607  21.360   8.652
 2296POPC   C2B33080  36.407  21.293   8.258
 2296POPC   C3B33081  36.489  21.373   7.824
 2296POPC   C4B33082  36.733  21.166   7.501
 2297POPC   NC333083  17.584  18.333   9.507
 2297POPC   PO433084  17.416  17.800   9.342
 2297POPC   GL133085  17.485  18.108   9.071
 2297POPC   GL233086  17.656  17.975   8.839
 2297POPC   C1A33087  17.398  18.451   8.842
 2297POPC   D2A33088  17.327  18.592   8.411
 2297POPC   C3A33089  17.233  18.355   8.070
 2297POPC   C4A33090  17.571  18.457   7.772
 2297POPC   C1B33091  17.278  18.038   8.559
 2297POPC   C2B33092  17.350  17.869   8.148
 2297POPC   C3B33093  17.351  17.998   7.698
 2297POPC   C4B33094  17.320  18.053   7.233
 2298POPC   NC333095  25.411   8.147   9.454
 2298POPC   PO433096  24.881   8.523   9.420
 2298POPC   GL133097  25.099   8.437   9.094
 2298POPC   GL233098  25.047   8.066   9.080
 2298POPC   C1A33099  24.998   8.501   8.656
 2298POPC   D2A33100  25.031   8.202   8.356
 2298POPC   C3A33101  25.285   8.220   8.029
 2298POPC   C4A33102  25.225   8.346   7.636
 2298POPC   C1B33103  25.345   8.161   8.756
 2298POPC   C2B33104  25.575   8.305   8.451
 2298POPC   C3B33105  25.816   8.185   8.085
 2298POPC   C4B33106  25.630   8.011   7.715
 2299POPC   NC333107  31.144   5.291  10.206
 2299POPC   PO433108  31.535   5.332   9.633
 2299POPC   GL133109  31.442   5.082   9.294
 2299POPC   GL233110  31.747   5.091   9.125
 2299POPC   C1A33111  31.276   5.219   8.884
 2299POPC   D2A33112  31.086   5.011   8.544
 2299POPC   C3A33113  31.290   5.039   8.155
 2299POPC   C4A33114  31.318   5.052   7.732
 2299POPC   C1B33115  31.931   4.784   8.796
 2299POPC   C2B33116  31.965   4.945   8.377
 2299POPC   C3B33117  31.780   5.053   7.972
 2299POPC   C4B33118  31.901   4.910   7.573
 2300POPC   NC333119  34.201   7.468   9.793
 2300POPC   PO433120  33.677   7.574   9.281
 2300POPC   GL133121  33.735   7.534   8.890
 2300POPC   GL233122  33.759   7.207   8.920
 2300POPC   C1A33123  34.103   7.531   8.628
 2300POPC   D2A33124  34.269   7.679   8.240
 2300POPC   C3A33125  33.979   7.531   7.890
 2300POPC   C4A33126  33.619   7.493   7.647
 2300POPC   C1B33127  33.707   6.955   8.627
 2300POPC   C2B33128  33.671   6.860   8.236
 2300POPC   C3B33129  33.769   7.039   7.858
 2300POPC   C4B33130  33.933   7.138   7.442
 2301POPC   NC333131  37.825  19.420   9.515
 2301POPC   PO433132  37.422  18.828   9.586
 2301POPC   GL133133  37.819  18.975   9.295
 2301POPC   GL233134  37.594  19.161   9.129
 2301POPC   C1A33135  38.032  19.161   8.856
 2301POPC   D2A33136  38.037  19.353   8.409
 2301POPC   C3A33137  37.957  19.141   8.007
 2301POPC   C4A33138  37.575  18.972   7.809
 2301POPC   C1B33139  37.391  19.214   8.749
 2301POPC   C2B33140  37.513  19.177   8.340
 2301POPC   C3B33141  37.624  19.494   8.093
 2301POPC   C4B33142  37.610  19.476   7.647
 2302POPC   NC333143  16.608   3.007   9.580
 2302POPC   PO433144  16.211   2.597   9.414
 2302POPC   GL133145  16.525   2.815   9.104
 2302POPC   GL233146  16.896   2.916   9.166
 2302POPC   C1A33147  16.561   2.973   8.677
 2302POPC   D2A33148  16.494   2.692   8.324
 2302POPC   C3A33149  16.570   2.911   7.983
 2302POPC   C4A33150  16.544   2.697   7.599
 2302POPC   C1B33151  16.964   2.703   8.794
 2302POPC   C2B33152  16.985   2.688   8.366
 2302POPC   C3B33153  16.954   2.596   7.938
 2302POPC   C4B33154  16.946   2.987   7.649
 2303POPC   NC333155  11.853   5.856   9.626
 2303POPC   PO433156  12.219   6.414   9.709
 2303POPC   GL133157  11.887   6.222   9.296
 2303POPC   GL233158  11.843   5.841   9.132
 2303POPC   C1A33159  11.822   6.198   8.776
 2303POPC   D2A33160  11.934   6.256   8.293
 2303POPC   C3A33161  12.278   6.155   8.017
 2303POPC   C4A33162  12.071   6.144   7.638
 2303POPC   C1B33163  11.850   5.621   8.717
 2303POPC   C2B33164  11.957   5.456   8.277
 2303POPC   C3B33165  11.979   5.698   7.886
 2303POPC   C4B33166  11.955   5.703   7.407
 2304POPC   NC333167   8.549   2.372   9.426
 2304POPC   PO433168   8.611   3.033   9.540
 2304POPC   GL133169   8.325   2.846   9.219
 2304POPC   GL233170   8.059   2.599   9.320
 2304POPC   C1A33171   8.086   2.846   8.797
 2304POPC   D2A33172   7.927   2.867   8.377
 2304POPC   C3A33173   8.144   2.701   8.028
 2304POPC   C4A33174   8.293   2.930   7.679
 2304POPC   C1B33175   7.894   2.404   8.945
 2304POPC   C2B33176   8.037   2.337   8.501
 2304POPC   C3B33177   7.917   2.221   8.053
 2304POPC   C4B33178   7.979   2.424   7.632
 2305POPC   NC333179  18.505  22.010   9.408
 2305POPC   PO433180  17.898  22.267   9.534
 2305POPC   GL133181  18.154  22.265   9.158
 2305POPC   GL233182  18.148  22.618   9.158
 2305POPC   C1A33183  18.425  22.100   8.765
 2305POPC   D2A33184  18.547  22.220   8.340
 2305POPC   C3A33185  18.422  22.037   7.916
 2305POPC   C4A33186  18.347  22.079   7.423
 2305POPC   C1B33187  18.141  22.515   8.733
 2305POPC   C2B33188  17.880  22.451   8.429
 2305POPC   C3B33189  18.141  22.456   8.084
 2305POPC   C4B33190  18.018  22.334   7.705
 2306POPC   NC333191  13.091  10.197   9.527
 2306POPC   PO433192  12.623  10.565   9.348
 2306POPC   GL133193  12.856  10.296   9.074
 2306POPC   GL233194  13.188  10.421   9.070
 2306POPC   C1A33195  12.820  10.277   8.644
 2306POPC   D2A33196  12.597  10.369   8.283
 2306POPC   C3A33197  12.954  10.342   8.034
 2306POPC   C4A33198  12.969  10.425   7.617
 2306POPC   C1B33199  13.235  10.730   8.714
 2306POPC   C2B33200  13.081  10.798   8.255
 2306POPC   C3B33201  12.755  10.795   7.889
 2306POPC   C4B33202  12.696  10.792   7.410
 2307POPC   NC333203  19.193  35.514   9.521
 2307POPC   PO433204  18.629  35.213   9.579
 2307POPC   GL133205  18.855  35.292   9.200
 2307POPC   GL233206  19.141  35.109   9.204
 2307POPC   C1A33207  19.026  35.544   8.833
 2307POPC   D2A33208  19.137  35.398   8.399
 2307POPC   C3A33209  19.055  35.625   8.021
 2307POPC   C4A33210  19.096  35.568   7.599
 2307POPC   C1B33211  19.020  35.008   8.783
 2307POPC   C2B33212  19.163  34.893   8.366
 2307POPC   C3B33213  19.039  35.074   7.944
 2307POPC   C4B33214  19.176  35.064   7.492
 2308POPC   NC333215  31.554  20.802   9.512
 2308POPC   PO433216  31.784  20.157   9.444
 2308POPC   GL133217  31.529  20.396   9.132
 2308POPC   GL233218  31.308  20.705   9.108
 2308POPC   C1A33219  31.524  20.543   8.699
 2308POPC   D2A33220  31.758  20.623   8.401
 2308POPC   C3A33221  31.484  20.553   8.090
 2308POPC   C4A33222  31.504  20.707   7.700
 2308POPC   C1B33223  31.205  21.002   8.832
 2308POPC   C2B33224  31.375  20.984   8.438
 2308POPC   C3B33225  31.240  21.048   8.038
 2308POPC   C4B33226  31.349  21.167   7.617
 2309POPC   NC333227  24.294  27.616   9.499
 2309POPC   PO433228  24.937  27.520   9.567
 2309POPC   GL133229  24.698  27.516   9.185
 2309POPC   GL233230  24.377  27.449   9.013
 2309POPC   C1A33231  24.838  27.512   8.777
 2309POPC   D2A33232  24.603  27.460   8.405
 2309POPC   C3A33233  24.731  27.689   8.067
 2309POPC   C4A33234  24.855  27.733   7.624
 2309POPC   C1B33235  24.218  27.819   8.816
 2309POPC   C2B33236  24.163  27.943   8.386
 2309POPC   C3B33237  24.293  27.936   7.988
 2309POPC   C4B33238  24.385  28.096   7.609
 2310POPC   NC333239  36.511  34.866   9.433
 2310POPC   PO433240  35.977  34.370   9.393
 2310POPC   GL133241  36.104  34.673   9.143
 2310POPC   GL233242  36.416  34.588   9.029
 2310POPC   C1A33243  35.979  34.799   8.760
 2310POPC   D2A33244  35.856  34.524   8.404
 2310POPC   C3A33245  36.056  34.682   8.061
 2310POPC   C4A33246  35.892  34.610   7.671
 2310POPC   C1B33247  36.270  34.399   8.660
 2310POPC   C2B33248  36.360  34.319   8.272
 2310POPC   C3B33249  36.041  34.180   8.000
 2310POPC   C4B33250  36.082  34.163   7.555
 2311POPC   NC333251  44.326   6.019   9.494
 2311POPC   PO433252  43.602   5.968   9.598
 2311POPC   GL133253  43.868   5.818   9.307
 2311POPC   GL233254  43.916   6.164   9.235
 2311POPC   C1A33255  43.966   5.783   8.863
 2311POPC   D2A33256  43.829   5.945   8.479
 2311POPC   C3A33257  43.919   5.721   8.132
 2311POPC   C4A33258  43.723   5.629   7.748
 2311POPC   C1B33259  44.049   6.285   8.853
 2311POPC   C2B33260  44.258   6.196   8.470
 2311POPC   C3B33261  44.031   6.233   8.092
 2311POPC   C4B33262  43.739   6.262   7.784
 2312POPC   NC333263   3.090  11.865   9.728
 2312POPC   PO433264   3.368  12.387   9.546
 2312POPC   GL133265   3.676  12.280   9.247
 2312POPC   GL233266   3.757  11.957   9.413
 2312POPC   C1A33267   3.661  12.356   8.789
 2312POPC   D2A33268   3.527  12.127   8.430
 2312POPC   C3A33269   3.548  12.322   8.041
 2312POPC   C4A33270   3.461  12.197   7.621
 2312POPC   C1B33271   3.832  11.885   8.962
 2312POPC   C2B33272   3.917  11.823   8.527
 2312POPC   C3B33273   3.847  11.884   8.075
 2312POPC   C4B33274   3.769  11.785   7.610
 2313POPC   NC333275  10.875  37.456   9.441
 2313POPC   PO433276  11.507  37.555   9.594
 2313POPC   GL133277  11.300  37.707   9.263
 2313POPC   GL233278  11.504  37.951   9.154
 2313POPC   C1A33279  11.199  37.576   8.858
 2313POPC   D2A33280  11.412  37.702   8.504
 2313POPC   C3A33281  11.417  37.310   8.303
 2313POPC   C4A33282  11.267  37.412   7.907
 2313POPC   C1B33283  11.191  38.070   8.845
 2313POPC   C2B33284  10.988  38.019   8.446
 2313POPC   C3B33285  11.162  37.893   8.060
 2313POPC   C4B33286  11.539  38.009   7.829
 2314POPC   NC333287  21.427  26.507   9.630
 2314POPC   PO433288  21.387  25.910   9.439
 2314POPC   GL133289  21.340  26.044   9.103
 2314POPC   GL233290  21.606  26.287   9.175
 2314POPC   C1A33291  21.209  25.879   8.708
 2314POPC   D2A33292  21.299  25.700   8.285
 2314POPC   C3A33293  21.237  26.010   7.955
 2314POPC   C4A33294  21.315  26.307   7.661
 2314POPC   C1B33295  21.423  26.400   8.775
 2314POPC   C2B33296  21.393  26.242   8.390
 2314POPC   C3B33297  21.571  26.454   8.089
 2314POPC   C4B33298  21.756  26.517   7.763
 2315POPC   NC333299   5.437  23.085   9.510
 2315POPC   PO433300   4.899  22.676   9.410
 2315POPC   GL133301   5.156  22.853   9.143
 2315POPC   GL233302   5.392  22.613   9.157
 2315POPC   C1A33303   5.223  23.084   8.773
 2315POPC   D2A33304   5.468  23.146   8.381
 2315POPC   C3A33305   5.284  23.197   7.985
 2315POPC   C4A33306   4.868  23.244   7.823
 2315POPC   C1B33307   5.215  22.562   8.728
 2315POPC   C2B33308   5.116  22.772   8.374
 2315POPC   C3B33309   5.239  22.690   7.993
 2315POPC   C4B33310   5.061  22.490   7.695
 2316POPC   NC333311  23.498  36.731   9.464
 2316POPC   PO433312  23.856  37.217   9.714
 2316POPC   GL133313  23.875  37.067   9.186
 2316POPC   GL233314  23.851  36.722   9.099
 2316POPC   C1A33315  23.665  37.048   8.758
 2316POPC   D2A33316  23.496  37.398   8.513
 2316POPC   C3A33317  23.664  37.316   8.094
 2316POPC   C4A33318  23.670  36.919   7.851
 2316POPC   C1B33319  23.957  36.551   8.716
 2316POPC   C2B33320  23.869  36.667   8.286
 2316POPC   C3B33321  23.833  36.430   7.900
 2316POPC   C4B33322  23.625  36.499   7.493
 2317POPC   NC333323   9.284  44.314   9.790
 2317POPC   PO433324   9.876  43.960   9.586
 2317POPC   GL133325   9.891  43.826   9.136
 2317POPC   GL233326  10.130  44.030   9.062
 2317POPC   C1A33327   9.710  43.886   8.713
 2317POPC   D2A33328   9.480  43.859   8.315
 2317POPC   C3A33329   9.684  43.906   7.891
 2317POPC   C4A33330   9.701  44.224   7.555
 2317POPC   C1B33331  10.098  44.228   8.695
 2317POPC   C2B33332   9.938  44.126   8.298
 2317POPC   C3B33333  10.067  44.239   7.893
 2317POPC   C4B33334  10.218  44.211   7.450
 2318POPC   NC333335  37.254  18.192   9.847
 2318POPC   PO433336  36.620  18.240   9.694
 2318POPC   GL133337  36.812  18.116   9.238
 2318POPC   GL233338  37.152  18.051   9.117
 2318POPC   C1A33339  36.877  18.350   8.807
 2318POPC   D2A33340  36.905  18.337   8.366
 2318POPC   C3A33341  36.544  18.386   8.083
 2318POPC   C4A33342  36.765  18.333   7.725
 2318POPC   C1B33343  37.248  17.981   8.704
 2318POPC   C2B33344  37.122  17.882   8.287
 2318POPC   C3B33345  37.194  18.065   7.884
 2318POPC   C4B33346  37.096  18.053   7.444
 2319POPC   NC333347  13.648  40.281   9.770
 2319POPC   PO433348  13.675  40.876   9.543
 2319POPC   GL133349  13.696  40.721   9.143
 2319POPC   GL233350  13.482  40.410   9.164
 2319POPC   C1A33351  13.716  40.938   8.739
 2319POPC   D2A33352  13.403  40.961   8.416
 2319POPC   C3A33353  13.638  40.992   8.081
 2319POPC   C4A33354  13.816  40.740   7.777
 2319POPC   C1B33355  13.636  40.431   8.715
 2319POPC   C2B33356  13.673  40.506   8.249
 2319POPC   C3B33357  13.926  40.262   7.918
 2319POPC   C4B33358  14.022  40.368   7.458
 2320POPC   NC333359  32.592   7.937   9.501
 2320POPC   PO433360  33.176   8.332   9.459
 2320POPC   GL133361  32.938   8.095   9.151
 2320POPC   GL233362  32.608   8.252   9.079
 2320POPC   C1A33363  33.068   7.921   8.743
 2320POPC   D2A33364  33.225   8.251   8.421
 2320POPC   C3A33365  33.095   8.188   7.991
 2320POPC   C4A33366  33.388   7.910   7.821
 2320POPC   C1B33367  32.795   8.344   8.708
 2320POPC   C2B33368  32.779   8.462   8.291
 2320POPC   C3B33369  32.642   8.487   7.895
 2320POPC   C4B33370  32.614   8.100   7.723
 2321POPC   NC333371  35.857  17.978   9.455
 2321POPC   PO433372  36.145  17.362   9.641
 2321POPC   GL133373  36.149  17.483   9.205
 2321POPC   GL233374  35.954  17.731   9.013
 2321POPC   C1A33375  36.314  17.333   8.824
 2321POPC   D2A33376  36.581  17.452   8.525
 2321POPC   C3A33377  36.512  17.437   8.092
 2321POPC   C4A33378  36.185  17.442   7.795
 2321POPC   C1B33379  36.165  17.757   8.600
 2321POPC   C2B33380  36.026  17.432   8.298
 2321POPC   C3B33381  35.714  17.526   7.962
 2321POPC   C4B33382  35.812  17.825   7.639
 2322POPC   NC333383   6.045  41.300   9.416
 2322POPC   PO433384   6.414  41.758   9.413
 2322POPC   GL133385   6.194  41.577   9.015
 2322POPC   GL233386   5.822  41.399   8.978
 2322POPC   C1A33387   6.076  41.613   8.565
 2322POPC   D2A33388   5.752  41.399   8.306
 2322POPC   C3A33389   5.757  41.683   7.957
 2322POPC   C4A33390   6.179  41.621   7.864
 2322POPC   C1B33391   5.642  41.029   8.720
 2322POPC   C2B33392   5.407  40.949   8.333
 2322POPC   C3B33393   5.512  41.093   7.925
 2322POPC   C4B33394   5.884  41.235   7.739
 2323POPC   NC333395  24.199  36.018   9.475
 2323POPC   PO433396  24.826  36.142   9.510
 2323POPC   GL133397  24.641  36.434   9.182
 2323POPC   GL233398  24.260  36.396   9.140
 2323POPC   C1A33399  24.523  36.528   8.735
 2323POPC   D2A33400  24.281  36.329   8.369
 2323POPC   C3A33401  24.533  36.042   8.122
 2323POPC   C4A33402  24.745  36.252   7.823
 2323POPC   C1B33403  24.184  36.081   8.814
 2323POPC   C2B33404  24.164  35.828   8.429
 2323POPC   C3B33405  24.037  35.935   8.009
 2323POPC   C4B33406  24.218  36.177   7.673
 2324POPC   NC333407  27.455   0.929   9.532
 2324POPC   PO433408  27.990   1.331   9.573
 2324POPC   GL133409  27.884   1.436   9.147
 2324POPC   GL233410  27.600   1.211   9.088
 2324POPC   C1A33411  27.845   1.462   8.685
 2324POPC   D2A33412  28.035   1.199   8.357
 2324POPC   C3A33413  27.795   1.185   7.965
 2324POPC   C4A33414  27.582   1.531   7.706
 2324POPC   C1B33415  27.526   1.071   8.649
 2324POPC   C2B33416  27.354   1.260   8.266
 2324POPC   C3B33417  27.293   1.144   7.846
 2324POPC   C4B33418  27.489   0.797   7.636
 2325POPC   NC333419  15.837  30.335   9.627
 2325POPC   PO433420  16.226  29.806   9.333
 2325POPC   GL133421  15.966  29.843   9.032
 2325POPC   GL233422  15.624  29.711   9.028
 2325POPC   C1A33423  16.046  29.681   8.648
 2325POPC   D2A33424  16.370  29.715   8.357
 2325POPC   C3A33425  16.318  30.040   8.049
 2325POPC   C4A33426  16.138  29.861   7.716
 2325POPC   C1B33427  15.657  30.013   8.686
 2325POPC   C2B33428  15.893  30.072   8.327
 2325POPC   C3B33429  15.810  30.228   7.928
 2325POPC   C4B33430  15.571  30.062   7.582
 2326POPC   NC333431  28.724  42.085   9.555
 2326POPC   PO433432  28.239  42.520   9.392
 2326POPC   GL133433  28.365  42.301   9.054
 2326POPC   GL233434  28.715  42.148   9.049
 2326POPC   C1A33435  28.517  42.454   8.680
 2326POPC   D2A33436  28.451  42.203   8.415
 2326POPC   C3A33437  28.421  42.415   8.050
 2326POPC   C4A33438  28.200  42.246   7.737
 2326POPC   C1B33439  28.937  42.086   8.633
 2326POPC   C2B33440  28.864  42.127   8.164
 2326POPC   C3B33441  28.718  42.150   7.723
 2326POPC   C4B33442  28.547  42.015   7.293
 2327POPC   NC333443  17.661  35.889   9.603
 2327POPC   PO433444  17.262  36.494   9.412
 2327POPC   GL133445  17.220  36.259   9.059
 2327POPC   GL233446  17.247  35.901   9.191
 2327POPC   C1A33447  17.535  36.223   8.729
 2327POPC   D2A33448  17.631  35.891   8.431
 2327POPC   C3A33449  17.812  36.038   8.070
 2327POPC   C4A33450  17.657  36.169   7.674
 2327POPC   C1B33451  17.203  35.845   8.738
 2327POPC   C2B33452  17.154  36.061   8.346
 2327POPC   C3B33453  17.326  35.912   7.976
 2327POPC   C4B33454  17.323  35.800   7.566
 2328POPC   NC333455  24.498  25.511   9.493
 2328POPC   PO433456  24.652  26.202   9.517
 2328POPC   GL133457  24.571  25.953   9.163
 2328POPC   GL233458  24.786  25.663   9.096
 2328POPC   C1A33459  24.460  26.006   8.746
 2328POPC   D2A33460  24.276  25.828   8.402
 2328POPC   C3A33461  24.506  25.833   8.085
 2328POPC   C4A33462  24.480  26.106   7.774
 2328POPC   C1B33463  24.889  25.738   8.665
 2328POPC   C2B33464  24.972  25.669   8.225
 2328POPC   C3B33465  24.927  25.750   7.761
 2328POPC   C4B33466  24.757  25.909   7.367
 2329POPC   NC333467  14.095   3.184   9.423
 2329POPC   PO433468  13.691   2.628   9.607
 2329POPC   GL133469  13.566   2.748   9.191
 2329POPC   GL233470  13.842   2.922   9.079
 2329POPC   C1A33471  13.487   2.585   8.767
 2329POPC   D2A33472  13.434   2.444   8.336
 2329POPC   C3A33473  13.554   2.718   7.972
 2329POPC   C4A33474  13.390   3.100   7.788
 2329POPC   C1B33475  13.746   3.014   8.689
 2329POPC   C2B33476  13.855   2.725   8.405
 2329POPC   C3B33477  14.032   2.544   8.035
 2329POPC   C4B33478  14.000   2.816   7.710
 2330POPC   NC333479  20.051   4.944   9.475
 2330POPC   PO433480  19.649   5.478   9.358
 2330POPC   GL133481  19.848   5.204   9.085
 2330POPC   GL233482  19.703   4.861   8.990
 2330POPC   C1A33483  19.890   5.214   8.667
 2330POPC   D2A33484  19.895   4.950   8.341
 2330POPC   C3A33485  19.763   5.145   7.996
 2330POPC   C4A33486  19.589   5.304   7.658
 2330POPC   C1B33487  19.455   4.797   8.560
 2330POPC   C2B33488  19.576   4.606   8.128
 2330POPC   C3B33489  19.713   4.736   7.698
 2330POPC   C4B33490  20.013   4.634   7.328
 2331POPC   NC333491  37.255  12.303   9.551
 2331POPC   PO433492  36.638  12.139   9.576
 2331POPC   GL133493  36.877  12.138   9.218
 2331POPC   GL233494  37.066  11.870   9.112
 2331POPC   C1A33495  36.925  12.223   8.786
 2331POPC   D2A33496  36.939  11.909   8.455
 2331POPC   C3A33497  36.748  12.012   8.098
 2331POPC   C4A33498  36.832  12.316   7.836
 2331POPC   C1B33499  37.344  11.911   8.766
 2331POPC   C2B33500  37.491  11.745   8.398
 2331POPC   C3B33501  37.387  11.668   7.975
 2331POPC   C4B33502  37.109  11.892   7.737
 2332POPC   NC333503  18.184  28.898   9.473
 2332POPC   PO433504  18.244  29.554   9.510
 2332POPC   GL133505  18.189  29.317   9.115
 2332POPC   GL233506  17.976  29.514   8.864
 2332POPC   C1A33507  18.115  28.978   8.802
 2332POPC   D2A33508  17.978  28.895   8.356
 2332POPC   C3A33509  18.250  28.855   7.977
 2332POPC   C4A33510  18.202  28.936   7.542
 2332POPC   C1B33511  18.250  29.417   8.608
 2332POPC   C2B33512  18.280  29.307   8.189
 2332POPC   C3B33513  18.315  29.458   7.812
 2332POPC   C4B33514  18.393  29.391   7.357
 2333POPC   NC333515  14.115  38.119   9.467
 2333POPC   PO433516  13.600  38.527   9.551
 2333POPC   GL133517  13.564  38.480   9.105
 2333POPC   GL233518  13.904  38.380   9.083
 2333POPC   C1A33519  13.488  38.470   8.640
 2333POPC   D2A33520  13.598  38.623   8.223
 2333POPC   C3A33521  13.565  38.302   7.891
 2333POPC   C4A33522  13.182  38.088   7.739
 2333POPC   C1B33523  13.937  38.136   8.742
 2333POPC   C2B33524  13.819  38.161   8.352
 2333POPC   C3B33525  13.984  37.963   8.028
 2333POPC   C4B33526  14.078  38.104   7.642
 2334POPC   NC333527  20.649  34.340   9.505
 2334POPC   PO433528  20.461  34.994   9.492
 2334POPC   GL133529  20.286  34.653   9.237
 2334POPC   GL233530  20.554  34.557   9.075
 2334POPC   C1A33531  20.202  34.703   8.775
 2334POPC   D2A33532  20.254  34.795   8.361
 2334POPC   C3A33533  20.621  34.673   8.148
 2334POPC   C4A33534  20.529  34.726   7.721
 2334POPC   C1B33535  20.608  34.377   8.690
 2334POPC   C2B33536  20.610  34.170   8.330
 2334POPC   C3B33537  20.489  34.218   7.923
 2334POPC   C4B33538  20.815  34.307   7.658
 2335POPC   NC333539  32.337  30.531   9.528
 2335POPC   PO433540  31.908  31.060   9.386
 2335POPC   GL133541  32.181  30.785   9.122
 2335POPC   GL233542  32.509  30.913   9.192
 2335POPC   C1A33543  32.331  30.580   8.736
 2335POPC   D2A33544  32.532  30.512   8.326
 2335POPC   C3A33545  32.375  30.626   7.883
 2335POPC   C4A33546  32.116  30.562   7.481
 2335POPC   C1B33547  32.430  31.064   8.775
 2335POPC   C2B33548  32.317  30.983   8.378
 2335POPC   C3B33549  32.355  31.125   8.004
 2335POPC   C4B33550  32.730  31.169   7.820
 2336POPC   NC333551  29.999   3.172   9.226
 2336POPC   PO433552  29.824   2.665   9.555
 2336POPC   GL133553  29.802   2.649   9.118
 2336POPC   GL233554  29.582   2.900   9.039
 2336POPC   C1A33555  30.036   2.746   8.713
 2336POPC   D2A33556  30.253   2.735   8.303
 2336POPC   C3A33557  30.042   2.407   8.089
 2336POPC   C4A33558  29.716   2.487   7.814
 2336POPC   C1B33559  29.530   2.691   8.669
 2336POPC   C2B33560  29.698   2.731   8.274
 2336POPC   C3B33561  29.719   2.987   7.898
 2336POPC   C4B33562  29.761   2.944   7.430
 2337POPC   NC333563  44.116  24.288   9.627
 2337POPC   PO433564  43.543  24.517   9.567
 2337POPC   GL133565  43.836  24.473   9.216
 2337POPC   GL233566  43.798  24.129   9.234
 2337POPC   C1A33567  43.931  24.606   8.776
 2337POPC   D2A33568  43.775  24.757   8.374
 2337POPC   C3A33569  43.997  24.721   7.981
 2337POPC   C4A33570  43.946  24.546   7.591
 2337POPC   C1B33571  43.592  24.219   8.837
 2337POPC   C2B33572  43.763  24.231   8.420
 2337POPC   C3B33573  43.646  24.095   8.028
 2337POPC   C4B33574  43.868  24.036   7.639
 2338POPC   NC333575  43.896  39.444   9.820
 2338POPC   PO433576  44.164  38.924   9.510
 2338POPC   GL133577  43.971  39.210   9.161
 2338POPC   GL233578  43.726  39.432   9.218
 2338POPC   C1A33579  43.865  39.149   8.700
 2338POPC   D2A33580  43.603  38.983   8.315
 2338POPC   C3A33581  43.880  39.032   7.935
 2338POPC   C4A33582  44.154  39.001   7.573
 2338POPC   C1B33583  43.734  39.632   8.802
 2338POPC   C2B33584  43.704  39.486   8.332
 2338POPC   C3B33585  43.697  39.520   7.841
 2338POPC   C4B33586  43.783  39.655   7.348
 2339POPC   NC333587  15.870  44.247   9.603
 2339POPC   PO433588  16.285  43.745   9.402
 2339POPC   GL133589  16.228  44.032   9.108
 2339POPC   GL233590  15.878  44.053   9.098
 2339POPC   C1A33591  16.214  44.002   8.678
 2339POPC   D2A33592  16.004  43.805   8.302
 2339POPC   C3A33593  16.150  44.009   7.956
 2339POPC   C4A33594  16.333  44.060   7.574
 2339POPC   C1B33595  15.702  43.957   8.679
 2339POPC   C2B33596  15.514  44.051   8.308
 2339POPC   C3B33597  15.618  43.884   7.936
 2339POPC   C4B33598  15.783  43.987   7.590
 2340POPC   NC333599  37.858  31.858   9.321
 2340POPC   PO433600  37.341  31.353   9.430
 2340POPC   GL133601  37.644  31.424   9.123
 2340POPC   GL233602  37.474  31.699   8.964
 2340POPC   C1A33603  37.832  31.441   8.704
 2340POPC   D2A33604  37.616  31.486   8.304
 2340POPC   C3A33605  37.873  31.275   8.050
 2340POPC   C4A33606  38.083  31.257   7.683
 2340POPC   C1B33607  37.337  31.305   8.725
 2340POPC   C2B33608  37.191  31.134   8.355
 2340POPC   C3B33609  37.315  31.222   7.934
 2340POPC   C4B33610  37.592  31.457   7.674
 2341POPC   NC333611  19.366  11.204   9.520
 2341POPC   PO433612  19.947  11.388   9.822
 2341POPC   GL133613  19.885  11.404   9.327
 2341POPC   GL233614  19.585  11.560   9.202
 2341POPC   C1A33615  19.759  11.148   8.916
 2341POPC   D2A33616  19.615  11.191   8.446
 2341POPC   C3A33617  19.910  11.231   8.074
 2341POPC   C4A33618  20.104  11.136   7.665
 2341POPC   C1B33619  19.726  11.639   8.764
 2341POPC   C2B33620  19.958  11.665   8.356
 2341POPC   C3B33621  19.845  11.713   7.900
 2341POPC   C4B33622  20.035  11.593   7.475
 2342POPC   NC333623   3.843   6.966   9.553
 2342POPC   PO433624   3.498   6.384   9.435
 2342POPC   GL133625   3.581   6.732   9.152
 2342POPC   GL233626   3.625   7.106   9.117
 2342POPC   C1A33627   3.514   6.788   8.721
 2342POPC   D2A33628   3.321   6.666   8.366
 2342POPC   C3A33629   3.619   6.645   8.106
 2342POPC   C4A33630   3.485   6.664   7.736
 2342POPC   C1B33631   3.532   7.307   8.725
 2342POPC   C2B33632   3.436   7.154   8.322
 2342POPC   C3B33633   3.631   7.131   7.940
 2342POPC   C4B33634   3.578   7.215   7.510
 2343POPC   NC333635  23.486  13.387   9.355
 2343POPC   PO433636  23.501  12.720   9.597
 2343POPC   GL133637  23.414  12.900   9.212
 2343POPC   GL233638  23.741  12.866   9.062
 2343POPC   C1A33639  23.313  12.825   8.773
 2343POPC   D2A33640  23.320  12.521   8.442
 2343POPC   C3A33641  23.440  12.712   8.071
 2343POPC   C4A33642  23.680  13.102   7.959
 2343POPC   C1B33643  24.061  12.623   8.825
 2343POPC   C2B33644  24.198  12.568   8.399
 2343POPC   C3B33645  24.007  12.687   8.014
 2343POPC   C4B33646  24.161  12.597   7.616
 2344POPC   NC333647  21.867  26.931   9.829
 2344POPC   PO433648  21.288  26.926   9.529
 2344POPC   GL133649  21.329  26.730   9.172
 2344POPC   GL233650  21.089  26.472   9.232
 2344POPC   C1A33651  21.458  26.911   8.793
 2344POPC   D2A33652  21.456  27.121   8.385
 2344POPC   C3A33653  21.172  27.043   8.035
 2344POPC   C4A33654  21.385  26.853   7.711
 2344POPC   C1B33655  20.978  26.647   8.827
 2344POPC   C2B33656  21.156  26.706   8.436
 2344POPC   C3B33657  21.073  26.527   8.067
 2344POPC   C4B33658  20.910  26.606   7.702
 2345POPC   NC333659  37.411  32.867   9.507
 2345POPC   PO433660  38.054  32.997   9.563
 2345POPC   GL133661  37.959  33.190   9.205
 2345POPC   GL233662  37.602  33.184   9.137
 2345POPC   C1A33663  37.961  32.994   8.794
 2345POPC   D2A33664  37.749  32.806   8.445
 2345POPC   C3A33665  37.923  32.814   8.021
 2345POPC   C4A33666  37.845  33.004   7.608
 2345POPC   C1B33667  37.509  33.240   8.688
 2345POPC   C2B33668  37.290  33.150   8.295
 2345POPC   C3B33669  37.401  33.066   7.866
 2345POPC   C4B33670  37.384  33.238   7.439
 2346POPC   NC333671  21.432  18.815   9.223
 2346POPC   PO433672  21.747  19.328   9.450
 2346POPC   GL133673  21.284  19.309   9.178
 2346POPC   GL233674  21.112  19.006   8.920
 2346POPC   C1A33675  21.134  19.480   8.766
 2346POPC   D2A33676  21.466  19.458   8.449
 2346POPC   C3A33677  21.361  19.232   8.095
 2346POPC   C4A33678  21.573  18.983   7.781
 2346POPC   C1B33679  21.410  18.954   8.588
 2346POPC   C2B33680  21.415  18.725   8.222
 2346POPC   C3B33681  21.098  18.832   7.933
 2346POPC   C4B33682  21.049  18.818   7.525
 2347POPC   NC333683  13.470  44.075   9.568
 2347POPC   PO433684  13.948  43.663   9.524
 2347POPC   GL133685  13.754  43.930   9.166
 2347POPC   GL233686  13.445  43.886   9.076
 2347POPC   C1A33687  13.786  44.175   8.783
 2347POPC   D2A33688  13.823  43.958   8.385
 2347POPC   C3A33689  13.759  44.166   7.984
 2347POPC   C4A33690  13.652  43.970   7.584
 2347POPC   C1B33691  13.351  43.971   8.637
 2347POPC   C2B33692  13.331  43.927   8.187
 2347POPC   C3B33693  13.204  44.034   7.774
 2347POPC   C4B33694  13.174  44.009   7.320
 2348POPC   NC333695   7.813  11.158   9.766
 2348POPC   PO433696   7.235  11.172   9.458
 2348POPC   GL133697   7.522  11.102   9.151
 2348POPC   GL233698   7.365  11.420   9.039
 2348POPC   C1A33699   7.463  11.026   8.718
 2348POPC   D2A33700   7.413  11.284   8.367
 2348POPC   C3A33701   7.314  11.304   7.974
 2348POPC   C4A33702   7.016  11.556   7.850
 2348POPC   C1B33703   7.636  11.535   8.733
 2348POPC   C2B33704   7.773  11.649   8.327
 2348POPC   C3B33705   7.639  11.723   7.906
 2348POPC   C4B33706   7.932  11.798   7.551
 2349POPC   NC333707   8.655  20.010   9.471
 2349POPC   PO433708   9.253  19.810   9.651
 2349POPC   GL133709   9.159  19.982   9.258
 2349POPC   GL233710   8.934  19.748   9.120
 2349POPC   C1A33711   9.281  19.985   8.824
 2349POPC   D2A33712   9.297  20.256   8.482
 2349POPC   C3A33713   9.399  20.139   8.073
 2349POPC   C4A33714   9.038  20.063   7.812
 2349POPC   C1B33715   8.773  20.036   8.763
 2349POPC   C2B33716   8.857  20.002   8.296
 2349POPC   C3B33717   8.903  19.612   8.016
 2349POPC   C4B33718   8.710  19.359   7.651
 2350POPC   NC333719   9.483   4.123   9.362
 2350POPC   PO433720   9.009   4.646   9.529
 2350POPC   GL133721   8.939   4.459   9.143
 2350POPC   GL233722   8.994   4.080   9.161
 2350POPC   C1A33723   8.856   4.378   8.711
 2350POPC   D2A33724   9.027   4.539   8.334
 2350POPC   C3A33725   8.740   4.425   8.052
 2350POPC   C4A33726   8.694   4.121   7.755
 2350POPC   C1B33727   9.184   3.993   8.741
 2350POPC   C2B33728   9.108   4.048   8.276
 2350POPC   C3B33729   9.188   4.049   7.828
 2350POPC   C4B33730   9.046   4.013   7.365
 2351POPC   NC333731  15.079  25.890   9.508
 2351POPC   PO433732  15.746  25.764   9.513
 2351POPC   GL133733  15.412  25.730   9.175
 2351POPC   GL233734  15.279  26.105   9.086
 2351POPC   C1A33735  15.084  25.722   8.824
 2351POPC   D2A33736  15.076  26.120   8.583
 2351POPC   C3A33737  15.166  26.096   8.137
 2351POPC   C4A33738  15.187  26.170   7.686
 2351POPC   C1B33739  15.527  26.369   8.770
 2351POPC   C2B33740  15.623  26.201   8.338
 2351POPC   C3B33741  15.603  26.414   7.928
 2351POPC   C4B33742  15.588  26.399   7.460
 2352POPC   NC333743  19.051  15.606   9.623
 2352POPC   PO433744  18.688  16.146   9.313
 2352POPC   GL133745  18.966  16.149   9.003
 2352POPC   GL233746  19.174  15.848   9.067
 2352POPC   C1A33747  19.071  16.306   8.606
 2352POPC   D2A33748  19.268  16.150   8.239
 2352POPC   C3A33749  19.053  16.069   7.860
 2352POPC   C4A33750  19.190  16.093   7.435
 2352POPC   C1B33751  19.106  15.779   8.620
 2352POPC   C2B33752  19.021  15.670   8.174
 2352POPC   C3B33753  18.719  15.677   7.828
 2352POPC   C4B33754  18.718  15.738   7.397
 2353POPC   NC333755  34.422  24.028   9.320
 2353POPC   PO433756  34.327  23.477   9.651
 2353POPC   GL133757  34.466  23.512   9.216
 2353POPC   GL233758  34.752  23.656   9.061
 2353POPC   C1A33759  34.332  23.576   8.775
 2353POPC   D2A33760  34.566  23.593   8.391
 2353POPC   C3A33761  34.321  23.640   8.034
 2353POPC   C4A33762  34.262  23.850   7.688
 2353POPC   C1B33763  34.896  23.387   8.736
 2353POPC   C2B33764  35.007  23.207   8.349
 2353POPC   C3B33765  35.020  23.417   7.939
 2353POPC   C4B33766  34.750  23.736   7.746
 2354POPC   NC333767  25.933  36.265   9.599
 2354POPC   PO433768  26.611  36.090   9.474
 2354POPC   GL133769  26.226  36.117   9.160
 2354POPC   GL233770  25.830  36.166   9.129
 2354POPC   C1A33771  26.172  36.019   8.713
 2354POPC   D2A33772  26.356  36.163   8.288
 2354POPC   C3A33773  26.301  36.082   7.863
 2354POPC   C4A33774  26.419  35.812   7.548
 2354POPC   C1B33775  25.677  36.330   8.774
 2354POPC   C2B33776  25.836  36.263   8.397
 2354POPC   C3B33777  25.838  35.978   8.077
 2354POPC   C4B33778  25.825  36.024   7.654
 2355POPC   NC333779   4.311  35.139   9.334
 2355POPC   PO433780   4.447  35.816   9.415
 2355POPC   GL133781   4.447  35.557   9.012
 2355POPC   GL233782   4.747  35.321   9.050
 2355POPC   C1A33783   4.147  35.500   8.609
 2355POPC   D2A33784   3.972  35.667   8.173
 2355POPC   C3A33785   4.265  35.656   7.834
 2355POPC   C4A33786   4.411  35.251   7.734
 2355POPC   C1B33787   4.523  35.144   8.690
 2355POPC   C2B33788   4.448  35.208   8.258
 2355POPC   C3B33789   4.811  35.132   8.014
 2355POPC   C4B33790   4.914  35.275   7.603
 2356POPC   NC333791  39.288  17.025   9.706
 2356POPC   PO433792  39.167  16.483   9.562
 2356POPC   GL133793  39.273  16.685   9.204
 2356POPC   GL233794  39.108  17.006   9.217
 2356POPC   C1A33795  39.094  16.556   8.815
 2356POPC   D2A33796  39.026  16.376   8.408
 2356POPC   C3A33797  39.290  16.497   8.082
 2356POPC   C4A33798  39.004  16.540   7.764
 2356POPC   C1B33799  39.334  17.014   8.814
 2356POPC   C2B33800  39.165  16.879   8.414
 2356POPC   C3B33801  39.238  16.990   7.987
 2356POPC   C4B33802  39.472  17.114   7.637
 2357POPC   NC333803   5.492  19.129   9.646
 2357POPC   PO433804   5.015  18.737   9.656
 2357POPC   GL133805   5.116  19.037   9.300
 2357POPC   GL233806   5.145  19.391   9.326
 2357POPC   C1A33807   4.976  19.066   8.860
 2357POPC   D2A33808   4.856  18.872   8.478
 2357POPC   C3A33809   4.822  19.099   8.083
 2357POPC   C4A33810   4.948  18.971   7.647
 2357POPC   C1B33811   5.266  19.466   8.858
 2357POPC   C2B33812   5.240  19.211   8.438
 2357POPC   C3B33813   5.326  19.114   8.012
 2357POPC   C4B33814   5.286  19.354   7.635
 2358POPC   NC333815  15.129  29.534   9.514
 2358POPC   PO433816  15.699  29.906   9.507
 2358POPC   GL133817  15.274  30.005   9.239
 2358POPC   GL233818  15.054  29.762   9.077
 2358POPC   C1A33819  15.173  30.130   8.763
 2358POPC   D2A33820  15.315  29.978   8.321
 2358POPC   C3A33821  15.265  30.210   7.965
 2358POPC   C4A33822  15.048  30.117   7.613
 2358POPC   C1B33823  15.256  29.628   8.695
 2358POPC   C2B33824  15.126  29.508   8.272
 2358POPC   C3B33825  15.234  29.681   7.845
 2358POPC   C4B33826  15.191  29.691   7.372
 2359POPC   NC333827  15.777  38.306   9.645
 2359POPC   PO433828  16.447  38.030   9.415
 2359POPC   GL133829  16.140  38.209   9.105
 2359POPC   GL233830  15.859  38.486   9.164
 2359POPC   C1A33831  16.115  38.469   8.731
 2359POPC   D2A33832  16.145  38.637   8.327
 2359POPC   C3A33833  15.860  38.618   7.983
 2359POPC   C4A33834  16.126  38.468   7.667
 2359POPC   C1B33835  15.626  38.648   8.781
 2359POPC   C2B33836  15.597  38.439   8.381
 2359POPC   C3B33837  15.511  38.246   7.966
 2359POPC   C4B33838  15.564  38.305   7.499
 2360POPC   NC333839  16.000  14.607   9.345
 2360POPC   PO433840  15.907  13.959   9.562
 2360POPC   GL133841  15.863  14.097   9.146
 2360POPC   GL233842  16.213  14.206   9.077
 2360POPC   C1A33843  15.854  14.344   8.742
 2360POPC   D2A33844  15.795  14.571   8.377
 2360POPC   C3A33845  15.880  14.403   7.971
 2360POPC   C4A33846  15.715  14.294   7.547
 2360POPC   C1B33847  16.341  14.564   8.755
 2360POPC   C2B33848  16.262  14.801   8.342
 2360POPC   C3B33849  16.373  14.851   7.899
 2360POPC   C4B33850  16.315  14.446   7.698
 2361POPC   NC333851  10.489   7.032   9.803
 2361POPC   PO433852  10.605   6.551   9.300
 2361POPC   GL133853  10.406   6.627   8.944
 2361POPC   GL233854  10.620   6.915   8.841
 2361POPC   C1A33855  10.391   6.605   8.504
 2361POPC   D2A33856  10.648   6.677   8.148
 2361POPC   C3A33857  10.645   6.350   7.817
 2361POPC   C4A33858  10.742   6.338   7.358
 2361POPC   C1B33859  10.210   7.061   8.637
 2361POPC   C2B33860  10.179   6.991   8.198
 2361POPC   C3B33861  10.474   7.104   7.916
 2361POPC   C4B33862  10.728   6.834   7.659
 2362POPC   NC333863   2.954   9.174   9.528
 2362POPC   PO433864   2.541   8.635   9.399
 2362POPC   GL133865   2.767   8.878   9.070
 2362POPC   GL233866   3.030   9.131   9.039
 2362POPC   C1A33867   2.564   9.057   8.695
 2362POPC   D2A33868   2.322   8.785   8.430
 2362POPC   C3A33869   2.480   8.810   8.004
 2362POPC   C4A33870   2.521   9.212   7.764
 2362POPC   C1B33871   3.078   9.029   8.611
 2362POPC   C2B33872   2.855   9.125   8.206
 2362POPC   C3B33873   2.989   9.013   7.761
 2362POPC   C4B33874   2.935   9.272   7.410
 2363POPC   NC333875  20.233  21.999   9.428
 2363POPC   PO433876  19.623  22.333   9.414
 2363POPC   GL133877  19.919  22.289   9.147
 2363POPC   GL233878  19.832  21.955   9.076
 2363POPC   C1A33879  19.967  22.305   8.737
 2363POPC   D2A33880  19.778  22.340   8.362
 2363POPC   C3A33881  19.905  22.060   8.077
 2363POPC   C4A33882  19.928  22.214   7.677
 2363POPC   C1B33883  19.660  21.771   8.696
 2363POPC   C2B33884  19.679  21.546   8.301
 2363POPC   C3B33885  19.595  21.702   7.891
 2363POPC   C4B33886  19.281  21.905   7.693
 2364POPC   NC333887  21.795  13.600   9.428
 2364POPC   PO433888  21.190  13.637   9.441
 2364POPC   GL133889  21.296  13.554   9.066
 2364POPC   GL233890  21.593  13.334   9.046
 2364POPC   C1A33891  21.506  13.799   8.756
 2364POPC   D2A33892  21.417  14.053   8.372
 2364POPC   C3A33893  21.123  13.885   8.060
 2364POPC   C4A33894  21.074  13.678   7.642
 2364POPC   C1B33895  21.359  13.259   8.664
 2364POPC   C2B33896  21.395  13.521   8.334
 2364POPC   C3B33897  21.474  13.510   7.947
 2364POPC   C4B33898  21.426  13.292   7.599
 2365POPC   NC333899  27.883   2.655   9.619
 2365POPC   PO433900  27.268   2.552   9.669
 2365POPC   GL133901  27.516   2.687   9.264
 2365POPC   GL233902  27.794   2.960   9.213
 2365POPC   C1A33903  27.745   2.560   8.882
 2365POPC   D2A33904  27.845   2.617   8.432
 2365POPC   C3A33905  27.594   2.683   8.067
 2365POPC   C4A33906  27.555   2.405   7.745
 2365POPC   C1B33907  27.819   3.059   8.752
 2365POPC   C2B33908  27.669   3.139   8.315
 2365POPC   C3B33909  27.588   3.163   7.864
 2365POPC   C4B33910  27.375   2.894   7.578
 2366POPC   NC333911  16.592  28.829   9.499
 2366POPC   PO433912  17.021  29.314   9.492
 2366POPC   GL133913  16.912  29.093   9.144
 2366POPC   GL233914  16.580  29.046   9.030
 2366POPC   C1A33915  16.967  29.368   8.780
 2366POPC   D2A33916  16.832  29.444   8.342
 2366POPC   C3A33917  17.033  29.294   7.951
 2366POPC   C4A33918  16.945  29.207   7.488
 2366POPC   C1B33919  16.622  29.035   8.575
 2366POPC   C2B33920  16.404  29.165   8.221
 2366POPC   C3B33921  16.539  29.170   7.824
 2366POPC   C4B33922  16.292  29.015   7.472
 2367POPC   NC333923  16.121  37.002  10.015
 2367POPC   PO433924  15.537  36.928   9.666
 2367POPC   GL133925  15.795  36.973   9.267
 2367POPC   GL233926  16.028  37.280   9.223
 2367POPC   C1A33927  15.987  36.886   8.817
 2367POPC   D2A33928  16.043  37.106   8.402
 2367POPC   C3A33929  15.965  36.913   7.977
 2367POPC   C4A33930  16.120  37.072   7.553
 2367POPC   C1B33931  15.697  37.290   8.894
 2367POPC   C2B33932  15.531  37.159   8.500
 2367POPC   C3B33933  15.612  37.250   8.076
 2367POPC   C4B33934  15.604  37.100   7.642
 2368POPC   NC333935  27.235   5.602   9.498
 2368POPC   PO433936  26.589   5.837   9.483
 2368POPC   GL133937  26.852   5.841   9.132
 2368POPC   GL233938  27.155   5.996   9.192
 2368POPC   C1A33939  26.705   5.711   8.743
 2368POPC   D2A33940  26.459   5.729   8.374
 2368POPC   C3A33941  26.432   5.536   7.978
 2368POPC   C4A33942  26.441   5.871   7.655
 2368POPC   C1B33943  27.108   6.037   8.746
 2368POPC   C2B33944  27.034   5.842   8.346
 2368POPC   C3B33945  26.769   5.947   8.016
 2368POPC   C4B33946  26.851   6.216   7.648
 2369POPC   NC333947  26.398  22.077   9.297
 2369POPC   PO433948  25.862  21.934   9.761
 2369POPC   GL133949  25.853  21.929   9.298
 2369POPC   GL233950  25.957  22.222   9.145
 2369POPC   C1A33951  25.959  21.800   8.842
 2369POPC   D2A33952  26.211  21.767   8.513
 2369POPC   C3A33953  26.043  21.848   8.059
 2369POPC   C4A33954  25.916  21.946   7.619
 2369POPC   C1B33955  26.158  22.293   8.750
 2369POPC   C2B33956  26.124  22.252   8.358
 2369POPC   C3B33957  26.213  22.327   7.957
 2369POPC   C4B33958  25.860  22.458   7.760
 2370POPC   NC333959  37.416  27.720   9.540
 2370POPC   PO433960  37.808  27.173   9.422
 2370POPC   GL133961  37.749  27.554   9.186
 2370POPC   GL233962  37.413  27.393   9.152
 2370POPC   C1A33963  37.691  27.804   8.783
 2370POPC   D2A33964  37.955  27.802   8.373
 2370POPC   C3A33965  37.734  27.720   7.953
 2370POPC   C4A33966  37.339  27.860   7.730
 2370POPC   C1B33967  37.598  27.290   8.779
 2370POPC   C2B33968  37.534  27.474   8.392
 2370POPC   C3B33969  37.372  27.331   8.016
 2370POPC   C4B33970  37.623  27.197   7.668
 2371POPC   NC333971  31.116  41.391   9.368
 2371POPC   PO433972  30.727  41.969   9.495
 2371POPC   GL133973  30.677  41.679   9.160
 2371POPC   GL233974  31.001  41.796   9.085
 2371POPC   C1A33975  30.439  41.652   8.757
 2371POPC   D2A33976  30.388  41.687   8.315
 2371POPC   C3A33977  30.570  41.484   7.952
 2371POPC   C4A33978  30.391  41.701   7.562
 2371POPC   C1B33979  30.920  41.512   8.743
 2371POPC   C2B33980  30.881  41.336   8.339
 2371POPC   C3B33981  31.110  41.530   8.025
 2371POPC   C4B33982  30.981  41.602   7.633
 2372POPC   NC333983   7.049  44.475   9.302
 2372POPC   PO433984   7.442  44.867   9.714
 2372POPC   GL133985   7.492  44.817   9.211
 2372POPC   GL233986   7.548  44.534   9.102
 2372POPC   C1A33987   7.271  44.737   8.741
 2372POPC   D2A33988   7.343  44.554   8.323
 2372POPC   C3A33989   7.372  44.813   7.950
 2372POPC   C4A33990   7.199  44.737   7.560
 2372POPC   C1B33991   7.760  44.550   8.736
 2372POPC   C2B33992   7.806  44.269   8.400
 2372POPC   C3B33993   7.760  44.471   8.004
 2372POPC   C4B33994   7.467  44.348   7.694
 2373POPC   NC333995  15.914  32.846   9.769
 2373POPC   PO433996  16.467  32.808   9.540
 2373POPC   GL133997  16.226  33.021   9.241
 2373POPC   GL233998  15.859  32.958   9.269
 2373POPC   C1A33999  16.130  33.010   8.786
 2373POPC   D2A34000  16.006  32.749   8.418
 2373POPC   C3A34001  16.155  32.874   8.001
 2373POPC   C4A34002  16.089  33.290   7.841
 2373POPC   C1B34003  15.647  32.851   8.870
 2373POPC   C2B34004  15.533  32.973   8.434
 2373POPC   C3B34005  15.637  32.870   7.999
 2373POPC   C4B34006  15.673  33.026   7.571
 2374POPC   NC334007  35.136  33.793   9.608
 2374POPC   PO434008  35.668  33.589   9.146
 2374POPC   GL134009  35.518  33.917   8.922
 2374POPC   GL234010  35.194  33.921   9.099
 2374POPC   C1A34011  35.475  33.954   8.448
 2374POPC   D2A34012  35.359  33.524   8.253
 2374POPC   C3A34013  35.534  33.506   7.850
 2374POPC   C4A34014  35.610  33.936   7.883
 2374POPC   C1B34015  35.106  33.723   8.695
 2374POPC   C2B34016  34.993  33.873   8.306
 2374POPC   C3B34017  35.099  33.804   7.890
 2374POPC   C4B34018  34.978  34.044   7.541
 2375POPC   NC334019  40.278  34.382   9.574
 2375POPC   PO434020  40.090  34.973   9.330
 2375POPC   GL134021  40.109  34.587   9.099
 2375POPC   GL234022  40.191  34.216   9.106
 2375POPC   C1A34023  39.916  34.434   8.742
 2375POPC   D2A34024  40.069  34.127   8.479
 2375POPC   C3A34025  40.098  34.373   8.145
 2375POPC   C4A34026  39.894  34.774   8.109
 2375POPC   C1B34027  40.463  34.022   8.789
 2375POPC   C2B34028  40.577  34.117   8.352
 2375POPC   C3B34029  40.455  34.084   7.925
 2375POPC   C4B34030  40.139  34.272   7.632
 2376POPC   NC334031  44.637  38.945   9.473
 2376POPC   PO434032  44.353  39.463   9.825
 2376POPC   GL134033  44.424  39.397   9.317
 2376POPC   GL234034  44.763  39.313   9.134
 2376POPC   C1A34035  44.377  39.125   8.867
 2376POPC   D2A34036  44.524  39.024   8.414
 2376POPC   C3A34037  44.495  39.315   8.058
 2376POPC   C4A34038  44.764  39.611   7.839
 2376POPC   C1B34039  44.879  38.963   8.820
 2376POPC   C2B34040   0.042  38.923   8.394
 2376POPC   C3B34041  44.877  38.987   7.987
 2376POPC   C4B34042  44.490  38.788   7.889
 2377POPC   NC334043  37.326  43.678   9.435
 2377POPC   PO434044  36.676  43.886   9.508
 2377POPC   GL134045  36.965  43.899   9.138
 2377POPC   GL234046  37.129  43.565   8.971
 2377POPC   C1A34047  36.912  43.937   8.700
 2377POPC   D2A34048  36.963  44.137   8.338
 2377POPC   C3A34049  36.918  43.970   7.927
 2377POPC   C4A34050  36.689  44.173   7.609
 2377POPC   C1B34051  37.412  43.863   8.761
 2377POPC   C2B34052  37.475  44.105   8.393
 2377POPC   C3B34053  37.404  44.118   7.961
 2377POPC   C4B34054  37.332  43.799   7.650
 2378POPC   NC334055   4.548   4.324   9.598
 2378POPC   PO434056   3.999   3.985   9.297
 2378POPC   GL134057   4.255   4.217   9.084
 2378POPC   GL234058   4.603   4.256   9.118
 2378POPC   C1A34059   4.355   4.235   8.673
 2378POPC   D2A34060   4.450   4.135   8.311
 2378POPC   C3A34061   4.274   4.237   7.991
 2378POPC   C4A34062   4.088   4.054   7.708
 2378POPC   C1B34063   4.743   4.547   8.857
 2378POPC   C2B34064   4.655   4.587   8.455
 2378POPC   C3B34065   4.664   4.570   8.012
 2378POPC   C4B34066   4.535   4.909   7.765
 2379POPC   NC334067  29.464   2.951   9.522
 2379POPC   PO434068  28.972   2.554   9.539
 2379POPC   GL134069  29.073   2.859   9.206
 2379POPC   GL234070  29.187   2.568   9.042
 2379POPC   C1A34071  29.160   3.036   8.769
 2379POPC   D2A34072  29.124   2.769   8.388
 2379POPC   C3A34073  29.259   2.792   7.982
 2379POPC   C4A34074  29.314   2.737   7.548
 2379POPC   C1B34075  28.905   2.428   8.737
 2379POPC   C2B34076  28.823   2.374   8.300
 2379POPC   C3B34077  28.926   2.413   7.869
 2379POPC   C4B34078  28.862   2.520   7.442
 2380POPC   NC334079  40.031   3.559  10.018
 2380POPC   PO434080  39.851   3.339   9.666
 2380POPC   GL134081  40.119   3.451   9.262
 2380POPC   GL234082  40.253   3.792   9.189
 2380POPC   C1A34083  40.168   3.515   8.769
 2380POPC   D2A34084  39.925   3.544   8.355
 2380POPC   C3A34085  40.053   3.363   7.940
 2380POPC   C4A34086  39.868   3.376   7.519
 2380POPC   C1B34087  40.076   4.026   8.813
 2380POPC   C2B34088  39.969   4.064   8.355
 2380POPC   C3B34089  39.927   3.869   7.926
 2380POPC   C4B34090  40.027   3.870   7.482
 2381POPC   NC334091  38.239  44.929   9.546
 2381POPC   PO434092  38.376   0.657   9.509
 2381POPC   GL134093  38.258   0.565   9.101
 2381POPC   GL234094  38.392   0.246   9.164
 2381POPC   C1A34095  38.427   0.410   8.685
 2381POPC   D2A34096  38.337   0.108   8.370
 2381POPC   C3A34097  38.099   0.394   8.136
 2381POPC   C4A34098  38.307   0.618   7.831
 2381POPC   C1B34099  38.796   0.156   8.911
 2381POPC   C2B34100  38.867   0.177   8.471
 2381POPC   C3B34101  38.678   0.446   8.195
 2381POPC   C4B34102  38.799   0.493   7.815
 2382POPC   NC334103  34.103   7.318   9.307
 2382POPC   PO434104  34.603   7.667   9.647
 2382POPC   GL134105  34.604   7.573   9.191
 2382POPC   GL234106  34.703   7.226   9.139
 2382POPC   C1A34107  34.655   7.486   8.720
 2382POPC   D2A34108  34.661   7.221   8.361
 2382POPC   C3A34109  34.676   7.486   7.986
 2382POPC   C4A34110  34.886   7.729   7.681
 2382POPC   C1B34111  34.350   7.082   8.782
 2382POPC   C2B34112  34.187   6.973   8.381
 2382POPC   C3B34113  34.273   7.133   7.976
 2382POPC   C4B34114  34.382   7.333   7.584
 2383POPC   NC334115  18.615   6.163   9.365
 2383POPC   PO434116  18.199   5.721   9.680
 2383POPC   GL134117  18.176   5.731   9.190
 2383POPC   GL234118  18.450   5.886   8.973
 2383POPC   C1A34119  18.141   5.580   8.737
 2383POPC   D2A34120  18.263   5.845   8.393
 2383POPC   C3A34121  18.168   5.696   7.977
 2383POPC   C4A34122  18.431   5.692   7.633
 2383POPC   C1B34123  18.461   6.234   8.725
 2383POPC   C2B34124  18.607   6.310   8.334
 2383POPC   C3B34125  18.479   6.133   7.957
 2383POPC   C4B34126  18.162   6.131   7.666
 2384POPC   NC334127  12.267  38.575   9.433
 2384POPC   PO434128  11.608  38.336   9.494
 2384POPC   GL134129  11.957  38.224   9.209
 2384POPC   GL234130  11.946  38.556   9.040
 2384POPC   C1A34131  12.246  38.205   8.843
 2384POPC   D2A34132  12.149  38.380   8.429
 2384POPC   C3A34133  12.204  38.200   8.021
 2384POPC   C4A34134  12.079  38.359   7.620
 2384POPC   C1B34135  12.219  38.779   8.749
 2384POPC   C2B34136  12.290  38.850   8.306
 2384POPC   C3B34137  12.374  38.674   7.888
 2384POPC   C4B34138  12.325  38.785   7.434
 2385POPC   NC334139  44.747   3.979   9.458
 2385POPC   PO434140  44.569   4.625   9.516
 2385POPC   GL134141  44.502   4.386   9.095
 2385POPC   GL234142  44.470   4.054   9.030
 2385POPC   C1A34143  44.573   4.361   8.613
 2385POPC   D2A34144  44.390   4.122   8.247
 2385POPC   C3A34145  44.457   4.288   7.842
 2385POPC   C4A34146  44.507   4.577   7.473
 2385POPC   C1B34147  44.881   4.019   8.806
 2385POPC   C2B34148  44.970   4.147   8.366
 2385POPC   C3B34149  44.849   3.944   7.982
 2385POPC   C4B34150  44.813   4.053   7.555
 2386POPC   NC334151  43.676  35.220   9.430
 2386POPC   PO434152  42.959  35.369   9.428
 2386POPC   GL134153  43.261  35.339   9.114
 2386POPC   GL234154  43.476  35.646   9.151
 2386POPC   C1A34155  43.096  35.188   8.720
 2386POPC   D2A34156  43.140  34.942   8.342
 2386POPC   C3A34157  42.982  35.219   8.045
 2386POPC   C4A34158  42.797  35.233   7.670
 2386POPC   C1B34159  43.236  35.725   8.764
 2386POPC   C2B34160  43.103  35.596   8.376
 2386POPC   C3B34161  43.185  35.681   7.940
 2386POPC   C4B34162  43.546  35.593   7.700
 2387POPC   NC334163  10.211   4.601   9.542
 2387POPC   PO434164  10.728   4.160   9.448
 2387POPC   GL134165  10.712   4.379   9.094
 2387POPC   GL234166  10.382   4.344   9.095
 2387POPC   C1A34167  10.633   4.224   8.657
 2387POPC   D2A34168  10.354   4.217   8.314
 2387POPC   C3A34169  10.611   4.219   7.953
 2387POPC   C4A34170  10.531   3.846   7.722
 2387POPC   C1B34171  10.178   4.494   8.724
 2387POPC   C2B34172   9.981   4.608   8.331
 2387POPC   C3B34173  10.241   4.592   7.956
 2387POPC   C4B34174  10.126   4.163   7.817
 2388POPC   NC334175  26.199  19.989   9.937
 2388POPC   PO434176  25.741  19.655   9.496
 2388POPC   GL134177  25.987  19.929   9.192
 2388POPC   GL234178  26.324  20.125   9.232
 2388POPC   C1A34179  26.190  19.790   8.780
 2388POPC   D2A34180  26.190  19.554   8.352
 2388POPC   C3A34181  25.859  19.652   8.019
 2388POPC   C4A34182  25.826  19.844   7.569
 2388POPC   C1B34183  26.457  20.230   8.785
 2388POPC   C2B34184  26.239  20.103   8.378
 2388POPC   C3B34185  26.282  19.942   7.964
 2388POPC   C4B34186  26.510  20.184   7.692
 2389POPC   NC334187  27.248  41.458   9.397
 2389POPC   PO434188  27.869  41.615   9.571
 2389POPC   GL134189  27.684  41.624   9.134
 2389POPC   GL234190  27.853  41.314   9.128
 2389POPC   C1A34191  27.388  41.549   8.735
 2389POPC   D2A34192  27.421  41.383   8.341
 2389POPC   C3A34193  27.489  41.573   7.942
 2389POPC   C4A34194  27.856  41.870   7.876
 2389POPC   C1B34195  27.853  41.368   8.697
 2389POPC   C2B34196  27.851  41.149   8.322
 2389POPC   C3B34197  27.958  41.364   7.979
 2389POPC   C4B34198  28.208  41.272   7.656
 2390POPC   NC334199  20.326  11.328   9.584
 2390POPC   PO434200  20.858  10.932   9.572
 2390POPC   GL134201  20.600  11.058   9.192
 2390POPC   GL234202  20.437  11.419   9.110
 2390POPC   C1A34203  20.710  11.071   8.743
 2390POPC   D2A34204  20.976  11.315   8.431
 2390POPC   C3A34205  20.821  11.332   8.019
 2390POPC   C4A34206  20.481  11.017   7.980
 2390POPC   C1B34207  20.633  11.568   8.750
 2390POPC   C2B34208  20.462  11.482   8.354
 2390POPC   C3B34209  20.326  11.517   7.939
 2390POPC   C4B34210  20.547  11.413   7.555
 2391POPC   NC334211  23.677  20.264   9.536
 2391POPC   PO434212  23.536  20.971   9.464
 2391POPC   GL134213  23.735  20.637   9.185
 2391POPC   GL234214  23.513  20.327   9.082
 2391POPC   C1A34215  23.954  20.557   8.823
 2391POPC   D2A34216  24.087  20.560   8.402
 2391POPC   C3A34217  23.818  20.679   8.045
 2391POPC   C4A34218  23.980  20.645   7.624
 2391POPC   C1B34219  23.634  20.171   8.730
 2391POPC   C2B34220  23.622  20.318   8.347
 2391POPC   C3B34221  23.623  20.181   7.939
 2391POPC   C4B34222  23.567  20.372   7.589
 2392POPC   NC334223  32.691   3.264   9.830
 2392POPC   PO434224  32.170   3.608   9.493
 2392POPC   GL134225  32.323   3.618   9.103
 2392POPC   GL234226  32.392   3.944   9.045
 2392POPC   C1A34227  32.410   3.453   8.709
 2392POPC   D2A34228  32.178   3.434   8.352
 2392POPC   C3A34229  32.434   3.500   8.023
 2392POPC   C4A34230  32.234   3.371   7.671
 2392POPC   C1B34231  32.082   3.857   8.691
 2392POPC   C2B34232  32.179   3.955   8.251
 2392POPC   C3B34233  32.166   3.926   7.802
 2392POPC   C4B34234  31.946   3.968   7.401
 2393POPC   NC334235   8.044  36.692   9.541
 2393POPC   PO434236   8.653  36.957   9.500
 2393POPC   GL134237   8.396  36.831   9.136
 2393POPC   GL234238   8.067  37.008   9.151
 2393POPC   C1A34239   8.320  36.863   8.684
 2393POPC   D2A34240   8.373  37.137   8.323
 2393POPC   C3A34241   8.409  36.939   7.915
 2393POPC   C4A34242   8.442  36.985   7.442
 2393POPC   C1B34243   7.836  36.861   8.815
 2393POPC   C2B34244   7.904  36.959   8.417
 2393POPC   C3B34245   7.844  36.818   8.037
 2393POPC   C4B34246   7.965  36.939   7.650
 2394POPC   NC334247   6.334   5.970   9.409
 2394POPC   PO434248   6.967   5.755   9.446
 2394POPC   GL134249   6.723   5.832   9.108
 2394POPC   GL234250   6.553   6.134   8.968
 2394POPC   C1A34251   6.766   5.699   8.729
 2394POPC   D2A34252   6.610   5.921   8.395
 2394POPC   C3A34253   6.784   5.837   7.986
 2394POPC   C4A34254   6.683   6.083   7.627
 2394POPC   C1B34255   6.274   5.763   8.802
 2394POPC   C2B34256   6.177   5.578   8.393
 2394POPC   C3B34257   6.265   5.783   8.007
 2394POPC   C4B34258   6.428   5.652   7.610
 2395POPC   NC334259  16.256  13.662   9.545
 2395POPC   PO434260  15.710  13.221   9.340
 2395POPC   GL134261  15.983  13.562   9.113
 2395POPC   GL234262  16.167  13.380   8.908
 2395POPC   C1A34263  15.952  13.843   8.717
 2395POPC   D2A34264  15.702  14.055   8.348
 2395POPC   C3A34265  15.732  13.914   7.921
 2395POPC   C4A34266  15.863  13.673   7.570
 2395POPC   C1B34267  15.760  13.375   8.695
 2395POPC   C2B34268  15.798  13.550   8.291
 2395POPC   C3B34269  15.586  13.423   7.936
 2395POPC   C4B34270  15.712  13.173   7.614
 2396POPC   NC334271  22.495   9.329   9.400
 2396POPC   PO434272  23.116   9.068   9.663
 2396POPC   GL134273  22.977   9.148   9.217
 2396POPC   GL234274  22.827   8.918   9.084
 2396POPC   C1A34275  23.068   9.177   8.748
 2396POPC   D2A34276  22.743   9.008   8.454
 2396POPC   C3A34277  22.912   9.013   8.038
 2396POPC   C4A34278  22.964   9.360   7.774
 2396POPC   C1B34279  23.157   8.669   8.871
 2396POPC   C2B34280  23.191   8.757   8.424
 2396POPC   C3B34281  23.207   8.587   8.004
 2396POPC   C4B34282  23.242   8.794   7.623
 2397POPC   NC334283   6.067  30.558   9.500
 2397POPC   PO434284   5.539  31.007   9.532
 2397POPC   GL134285   5.843  30.899   9.173
 2397POPC   GL234286   5.764  30.578   9.075
 2397POPC   C1A34287   6.064  30.837   8.750
 2397POPC   D2A34288   5.864  30.935   8.355
 2397POPC   C3A34289   5.876  31.013   7.919
 2397POPC   C4A34290   6.229  30.832   7.636
 2397POPC   C1B34291   5.702  30.508   8.647
 2397POPC   C2B34292   5.753  30.375   8.232
 2397POPC   C3B34293   5.925  30.512   7.864
 2397POPC   C4B34294   6.073  30.365   7.463
 2398POPC   NC334295  31.965   5.504   9.464
 2398POPC   PO434296  32.119   4.880   9.721
 2398POPC   GL134297  32.232   4.957   9.234
 2398POPC   GL234298  32.542   4.810   9.072
 2398POPC   C1A34299  32.153   5.226   8.839
 2398POPC   D2A34300  32.141   5.527   8.504
 2398POPC   C3A34301  32.155   5.374   8.110
 2398POPC   C4A34302  32.245   5.251   7.704
 2398POPC   C1B34303  32.638   5.096   8.795
 2398POPC   C2B34304  32.446   5.106   8.434
 2398POPC   C3B34305  32.461   4.954   8.063
 2398POPC   C4B34306  32.744   5.000   7.742
 2399POPC   NC334307  43.489   5.476   9.562
 2399POPC   PO434308  43.867   4.849   9.563
 2399POPC   GL134309  43.844   5.110   9.206
 2399POPC   GL234310  43.661   5.408   9.044
 2399POPC   C1A34311  43.780   4.958   8.793
 2399POPC   D2A34312  43.775   4.684   8.425
 2399POPC   C3A34313  43.845   4.938   8.060
 2399POPC   C4A34314  44.102   5.303   7.911
 2399POPC   C1B34315  43.719   5.427   8.546
 2399POPC   C2B34316  43.503   5.343   8.119
 2399POPC   C3B34317  43.334   5.314   7.672
 2399POPC   C4B34318  43.560   5.458   7.277
 2400POPC   NC334319  38.219  37.983   9.638
 2400POPC   PO434320  38.521  37.454   9.478
 2400POPC   GL134321  38.176  37.489   9.177
 2400POPC   GL234322  38.052  37.818   9.180
 2400POPC   C1A34323  38.104  37.537   8.726
 2400POPC   D2A34324  38.238  37.364   8.329
 2400POPC   C3A34325  38.555  37.600   8.090
 2400POPC   C4A34326  38.736  37.603   7.674
 2400POPC   C1B34327  38.389  37.935   8.939
 2400POPC   C2B34328  38.395  37.972   8.499
 2400POPC   C3B34329  38.359  38.093   8.082
 2400POPC   C4B34330  38.266  37.880   7.741
 2401POPC   NC334331  20.221  23.569   9.465
 2401POPC   PO434332  20.936  23.405   9.537
 2401POPC   GL134333  20.682  23.635   9.253
 2401POPC   GL234334  20.630  23.335   9.140
 2401POPC   C1A34335  20.466  23.669   8.810
 2401POPC   D2A34336  20.277  23.739   8.432
 2401POPC   C3A34337  20.566  23.864   8.149
 2401POPC   C4A34338  20.451  23.704   7.780
 2401POPC   C1B34339  20.887  23.401   8.804
 2401POPC   C2B34340  20.780  23.447   8.372
 2401POPC   C3B34341  20.916  23.532   7.924
 2401POPC   C4B34342  20.724  23.292   7.570
 2402POPC   NC334343  41.034  39.689   9.546
 2402POPC   PO434344  40.704  40.298   9.453
 2402POPC   GL134345  40.564  40.118   9.119
 2402POPC   GL234346  40.792  39.841   9.110
 2402POPC   C1A34347  40.707  40.244   8.728
 2402POPC   D2A34348  40.967  40.093   8.416
 2402POPC   C3A34349  40.757  40.188   8.044
 2402POPC   C4A34350  40.561  40.343   7.704
 2402POPC   C1B34351  40.575  39.715   8.743
 2402POPC   C2B34352  40.734  39.643   8.334
 2402POPC   C3B34353  41.032  39.748   8.028
 2402POPC   C4B34354  40.914  39.908   7.645
 2403POPC   NC334355   4.759  33.514   9.453
 2403POPC   PO434356   5.236  33.940   9.755
 2403POPC   GL134357   5.158  33.964   9.283
 2403POPC   GL234358   5.156  33.655   9.131
 2403POPC   C1A34359   5.074  34.045   8.806
 2403POPC   D2A34360   4.925  34.121   8.357
 2403POPC   C3A34361   5.150  34.053   7.979
 2403POPC   C4A34362   5.270  34.353   7.682
 2403POPC   C1B34363   4.973  33.541   8.738
 2403POPC   C2B34364   5.124  33.621   8.327
 2403POPC   C3B34365   5.040  33.524   7.892
 2403POPC   C4B34366   4.918  33.759   7.523
 2404POPC   NC334367  38.896  28.907   9.556
 2404POPC   PO434368  39.166  29.471   9.382
 2404POPC   GL134369  39.053  29.172   9.144
 2404POPC   GL234370  39.327  28.940   9.261
 2404POPC   C1A34371  39.078  29.122   8.722
 2404POPC   D2A34372  39.207  29.401   8.392
 2404POPC   C3A34373  39.111  29.212   8.020
 2404POPC   C4A34374  39.067  29.440   7.656
 2404POPC   C1B34375  39.576  29.128   8.941
 2404POPC   C2B34376  39.648  29.177   8.532
 2404POPC   C3B34377  39.615  29.232   8.095
 2404POPC   C4B34378  39.468  29.067   7.682
 2405POPC   NC334379  10.307   3.865   9.431
 2405POPC   PO434380  10.731   3.442   9.398
 2405POPC   GL134381  10.517   3.567   9.070
 2405POPC   GL234382  10.640   3.874   9.020
 2405POPC   C1A34383  10.407   3.460   8.675
 2405POPC   D2A34384  10.677   3.342   8.352
 2405POPC   C3A34385  10.482   3.418   7.984
 2405POPC   C4A34386  10.703   3.343   7.610
 2405POPC   C1B34387  10.223   3.940   8.798
 2405POPC   C2B34388  10.027   3.753   8.439
 2405POPC   C3B34389  10.041   3.692   7.979
 2405POPC   C4B34390  10.078   3.763   7.496
 2406POPC   NC334391  21.683  15.934   9.618
 2406POPC   PO434392  21.104  16.156   9.615
 2406POPC   GL134393  21.336  16.080   9.241
 2406POPC   GL234394  21.507  15.799   9.180
 2406POPC   C1A34395  21.185  16.015   8.816
 2406POPC   D2A34396  21.259  16.146   8.420
 2406POPC   C3A34397  21.018  15.940   8.148
 2406POPC   C4A34398  20.989  15.940   7.738
 2406POPC   C1B34399  21.486  15.601   8.827
 2406POPC   C2B34400  21.226  15.563   8.484
 2406POPC   C3B34401  21.338  15.520   8.071
 2406POPC   C4B34402  21.678  15.745   7.914
 2407POPC   NC334403  38.597  15.339   9.479
 2407POPC   PO434404  38.198  14.834   9.429
 2407POPC   GL134405  38.598  14.908   9.206
 2407POPC   GL234406  38.359  15.130   9.042
 2407POPC   C1A34407  38.790  15.077   8.807
 2407POPC   D2A34408  38.590  14.987   8.424
 2407POPC   C3A34409  38.519  15.234   8.065
 2407POPC   C4A34410  38.770  15.264   7.685
 2407POPC   C1B34411  38.149  14.940   8.689
 2407POPC   C2B34412  38.100  14.952   8.234
 2407POPC   C3B34413  38.042  14.999   7.811
 2407POPC   C4B34414  38.288  15.256   7.540
 2408POPC   NC334415   4.447  13.312   9.620
 2408POPC   PO434416   4.092  12.729   9.512
 2408POPC   GL134417   4.189  12.688   9.135
 2408POPC   GL234418   4.364  13.002   9.147
 2408POPC   C1A34419   3.969  12.770   8.833
 2408POPC   D2A34420   4.078  13.094   8.617
 2408POPC   C3A34421   4.304  12.997   8.230
 2408POPC   C4A34422   4.273  13.176   7.799
 2408POPC   C1B34423   4.509  12.854   8.754
 2408POPC   C2B34424   4.802  13.065   8.474
 2408POPC   C3B34425   4.785  13.107   8.033
 2408POPC   C4B34426   4.589  12.795   7.824
 2409POPC   NC334427  36.759  40.047   9.656
 2409POPC   PO434428  37.450  39.907   9.469
 2409POPC   GL134429  37.044  39.791   9.258
 2409POPC   GL234430  36.927  40.141   9.184
 2409POPC   C1A34431  36.889  39.801   8.821
 2409POPC   D2A34432  37.090  39.960   8.426
 2409POPC   C3A34433  37.095  39.740   8.031
 2409POPC   C4A34434  36.900  39.799   7.645
 2409POPC   C1B34435  36.981  40.338   8.781
 2409POPC   C2B34436  36.878  40.432   8.350
 2409POPC   C3B34437  36.906  40.222   7.946
 2409POPC   C4B34438  36.659  40.352   7.586
 2410POPC   NC334439  27.376   5.052   9.823
 2410POPC   PO434440  26.734   4.940   9.619
 2410POPC   GL134441  26.742   5.011   9.175
 2410POPC   GL234442  26.863   5.348   9.178
 2410POPC   C1A34443  26.669   5.182   8.751
 2410POPC   D2A34444  26.874   5.348   8.420
 2410POPC   C3A34445  26.734   5.154   8.085
 2410POPC   C4A34446  26.700   5.046   7.692
 2410POPC   C1B34447  27.165   5.482   8.845
 2410POPC   C2B34448  27.379   5.457   8.421
 2410POPC   C3B34449  27.180   5.424   8.013
 2410POPC   C4B34450  26.872   5.526   7.736
 2411POPC   NC334451  16.361  20.549   9.682
 2411POPC   PO434452  17.053  20.524   9.840
 2411POPC   GL134453  16.936  20.712   9.416
 2411POPC   GL234454  16.637  20.604   9.239
 2411POPC   C1A34455  17.005  20.845   8.947
 2411POPC   D2A34456  16.809  20.974   8.554
 2411POPC   C3A34457  16.708  20.651   8.256
 2411POPC   C4A34458  16.713  20.689   7.800
 2411POPC   C1B34459  16.589  20.565   8.770
 2411POPC   C2B34460  16.367  20.205   8.512
 2411POPC   C3B34461  16.149  20.261   8.115
 2411POPC   C4B34462  16.342  20.359   7.723
 2412POPC   NC334463  35.309  28.357   9.798
 2412POPC   PO434464  35.646  28.330   9.237
 2412POPC   GL134465  35.445  28.273   8.924
 2412POPC   GL234466  35.116  28.311   9.064
 2412POPC   C1A34467  35.593  28.301   8.528
 2412POPC   D2A34468  35.875  28.196   8.214
 2412POPC   C3A34469  35.637  28.232   7.862
 2412POPC   C4A34470  35.371  28.548   7.683
 2412POPC   C1B34471  35.048  28.144   8.633
 2412POPC   C2B34472  34.934  28.221   8.204
 2412POPC   C3B34473  34.874  28.344   7.761
 2412POPC   C4B34474  34.919  28.189   7.349
 2413POPC   NC334475  19.827   8.250   9.301
 2413POPC   PO434476  20.272   7.776   9.548
 2413POPC   GL134477  20.174   7.983   9.080
 2413POPC   GL234478  20.155   8.361   8.951
 2413POPC   C1A34479  19.967   8.035   8.631
 2413POPC   D2A34480  19.876   8.318   8.265
 2413POPC   C3A34481  19.912   8.054   7.935
 2413POPC   C4A34482  20.187   8.060   7.568
 2413POPC   C1B34483  19.717   8.478   8.723
 2413POPC   C2B34484  19.484   8.653   8.367
 2413POPC   C3B34485  19.644   8.715   7.950
 2413POPC   C4B34486  19.956   8.489   7.701
 2414POPC   NC334487  22.384  21.127   9.576
 2414POPC   PO434488  22.032  21.759   9.695
 2414POPC   GL134489  22.096  21.464   9.306
 2414POPC   GL234490  22.462  21.465   9.181
 2414POPC   C1A34491  22.117  21.399   8.842
 2414POPC   D2A34492  21.987  21.433   8.432
 2414POPC   C3A34493  22.216  21.546   8.053
 2414POPC   C4A34494  22.003  21.489   7.660
 2414POPC   C1B34495  22.576  21.233   8.766
 2414POPC   C2B34496  22.396  21.130   8.309
 2414POPC   C3B34497  22.402  21.094   7.820
 2414POPC   C4B34498  22.284  21.185   7.350
 2415POPC   NC334499  21.278  11.153   9.498
 2415POPC   PO434500  21.366  11.793   9.538
 2415POPC   GL134501  21.360  11.564   9.159
 2415POPC   GL234502  21.660  11.435   9.008
 2415POPC   C1A34503  21.204  11.671   8.756
 2415POPC   D2A34504  21.422  11.605   8.352
 2415POPC   C3A34505  21.199  11.699   7.955
 2415POPC   C4A34506  21.111  11.453   7.585
 2415POPC   C1B34507  21.334  11.170   8.782
 2415POPC   C2B34508  21.410  11.056   8.335
 2415POPC   C3B34509  21.314  11.084   7.876
 2415POPC   C4B34510  21.343  11.013   7.408
 2416POPC   NC334511  38.311  41.980   9.526
 2416POPC   PO434512  38.580  42.649   9.496
 2416POPC   GL134513  38.377  42.463   9.174
 2416POPC   GL234514  38.497  42.098   9.091
 2416POPC   C1A34515  38.218  42.363   8.771
 2416POPC   D2A34516  38.337  42.100   8.435
 2416POPC   C3A34517  38.291  42.268   8.015
 2416POPC   C4A34518  38.534  42.342   7.650
 2416POPC   C1B34519  38.686  41.837   8.771
 2416POPC   C2B34520  38.861  41.862   8.328
 2416POPC   C3B34521  38.707  41.941   7.899
 2416POPC   C4B34522  38.595  41.900   7.391
 2417POPC   NC334523  19.571   7.326   9.443
 2417POPC   PO434524  18.910   7.565   9.475
 2417POPC   GL134525  19.220   7.633   9.164
 2417POPC   GL234526  19.247   7.301   9.037
 2417POPC   C1A34527  19.196   7.687   8.707
 2417POPC   D2A34528  19.222   7.468   8.271
 2417POPC   C3A34529  19.236   7.688   7.897
 2417POPC   C4A34530  19.191   7.918   7.550
 2417POPC   C1B34531  18.934   7.259   8.665
 2417POPC   C2B34532  18.748   7.283   8.269
 2417POPC   C3B34533  18.911   7.283   7.874
 2417POPC   C4B34534  18.904   7.457   7.463
 2418POPC   NC334535  23.661   8.685   9.424
 2418POPC   PO434536  23.438   9.310   9.310
 2418POPC   GL134537  23.477   9.008   9.072
 2418POPC   GL234538  23.826   9.061   9.122
 2418POPC   C1A34539  23.614   8.840   8.702
 2418POPC   D2A34540  23.735   9.014   8.335
 2418POPC   C3A34541  23.453   9.048   8.024
 2418POPC   C4A34542  23.713   8.777   7.834
 2418POPC   C1B34543  23.940   9.284   8.723
 2418POPC   C2B34544  24.223   9.129   8.375
 2418POPC   C3B34545  24.065   9.181   7.937
 2418POPC   C4B34546  24.102   8.970   7.537
 2419POPC   NC334547  21.157  15.633   9.539
 2419POPC   PO434548  20.442  15.710   9.519
 2419POPC   GL134549  20.509  15.815   9.111
 2419POPC   GL234550  20.857  15.882   9.165
 2419POPC   C1A34551  20.476  15.783   8.654
 2419POPC   D2A34552  20.244  15.734   8.254
 2419POPC   C3A34553  20.493  15.817   7.873
 2419POPC   C4A34554  20.381  15.697   7.432
 2419POPC   C1B34555  20.712  16.208   8.825
 2419POPC   C2B34556  20.800  16.402   8.392
 2419POPC   C3B34557  20.718  16.318   7.945
 2419POPC   C4B34558  20.903  16.377   7.510
 2420POPC   NC334559  35.096  29.374   9.963
 2420POPC   PO434560  35.555  29.290   9.500
 2420POPC   GL134561  35.415  29.118   9.128
 2420POPC   GL234562  35.447  28.768   9.069
 2420POPC   C1A34563  35.448  29.128   8.699
 2420POPC   D2A34564  35.521  29.298   8.314
 2420POPC   C3A34565  35.442  29.084   7.902
 2420POPC   C4A34566  35.189  29.255   7.555
 2420POPC   C1B34567  35.248  28.654   8.655
 2420POPC   C2B34568  35.255  28.656   8.184
 2420POPC   C3B34569  34.986  28.846   7.830
 2420POPC   C4B34570  34.986  28.764   7.382
 2421POPC   NC334571  32.059  22.645   9.585
 2421POPC   PO434572  32.268  23.202   9.497
 2421POPC   GL134573  32.325  22.896   9.175
 2421POPC   GL234574  32.603  22.652   9.234
 2421POPC   C1A34575  32.202  22.924   8.725
 2421POPC   D2A34576  32.167  23.158   8.319
 2421POPC   C3A34577  32.117  22.940   7.921
 2421POPC   C4A34578  32.065  22.837   7.473
 2421POPC   C1B34579  32.706  22.887   8.834
 2421POPC   C2B34580  32.606  22.887   8.401
 2421POPC   C3B34581  32.764  23.006   7.986
 2421POPC   C4B34582  32.531  23.005   7.613
 2422POPC   NC334583  22.270  16.234   9.495
 2422POPC   PO434584  21.971  15.662   9.407
 2422POPC   GL134585  22.010  15.891   9.064
 2422POPC   GL234586  22.025  16.259   9.050
 2422POPC   C1A34587  22.146  16.028   8.634
 2422POPC   D2A34588  22.197  16.058   8.223
 2422POPC   C3A34589  22.208  15.748   7.936
 2422POPC   C4A34590  22.491  16.060   7.770
 2422POPC   C1B34591  21.667  16.127   8.800
 2422POPC   C2B34592  21.687  15.880   8.430
 2422POPC   C3B34593  21.728  16.216   8.138
 2422POPC   C4B34594  21.981  16.184   7.756
 2423POPC   NC334595  20.429  37.816   9.490
 2423POPC   PO434596  20.982  37.435   9.451
 2423POPC   GL134597  20.774  37.686   9.145
 2423POPC   GL234598  20.782  37.429   8.960
 2423POPC   C1A34599  20.412  37.764   8.839
 2423POPC   D2A34600  20.298  37.639   8.425
 2423POPC   C3A34601  20.590  37.757   8.091
 2423POPC   C4A34602  20.417  37.844   7.682
 2423POPC   C1B34603  20.893  37.625   8.611
 2423POPC   C2B34604  20.972  37.373   8.289
 2423POPC   C3B34605  20.778  37.249   7.954
 2423POPC   C4B34606  20.856  37.553   7.667
 2424POPC   NC334607  20.966   5.349   9.487
 2424POPC   PO434608  20.307   5.347   9.435
 2424POPC   GL134609  20.557   5.234   9.161
 2424POPC   GL234610  20.530   4.897   9.169
 2424POPC   C1A34611  20.725   5.243   8.780
 2424POPC   D2A34612  20.833   4.960   8.477
 2424POPC   C3A34613  20.830   5.137   8.082
 2424POPC   C4A34614  20.664   5.098   7.670
 2424POPC   C1B34615  20.299   4.952   8.796
 2424POPC   C2B34616  20.359   5.186   8.402
 2424POPC   C3B34617  20.278   5.068   7.989
 2424POPC   C4B34618  20.091   5.063   7.582
 2425POPC   NC334619   0.862  11.489   9.507
 2425POPC   PO434620   1.492  11.575   9.319
 2425POPC   GL134621   1.262  11.197   9.133
 2425POPC   GL234622   0.936  11.082   9.178
 2425POPC   C1A34623   1.159  10.944   8.758
 2425POPC   D2A34624   1.337  11.073   8.425
 2425POPC   C3A34625   1.180  10.953   8.055
 2425POPC   C4A34626   1.337  11.231   7.765
 2425POPC   C1B34627   0.801  11.315   8.795
 2425POPC   C2B34628   0.959  11.407   8.364
 2425POPC   C3B34629   0.814  11.308   7.968
 2425POPC   C4B34630   0.867  11.025   7.645
 2426POPC   NC334631  10.974  44.421   9.407
 2426POPC   PO434632  11.276  44.846   9.838
 2426POPC   GL134633  11.294  44.800   9.298
 2426POPC   GL234634  11.280  44.472   9.024
 2426POPC   C1A34635  11.404  44.900   8.831
 2426POPC   D2A34636  11.304  44.617   8.471
 2426POPC   C3A34637  11.328  44.700   8.060
 2426POPC   C4A34638  11.467  44.426   7.732
 2426POPC   C1B34639  11.057  44.241   8.699
 2426POPC   C2B34640  10.860  44.280   8.302
 2426POPC   C3B34641  10.959  44.376   7.853
 2426POPC   C4B34642  11.027  44.459   7.375
 2427POPC   NC334643  30.139  22.326   9.527
 2427POPC   PO434644  29.676  21.830   9.487
 2427POPC   GL134645  29.625  22.053   9.105
 2427POPC   GL234646  29.652  22.421   9.212
 2427POPC   C1A34647  29.858  21.941   8.706
 2427POPC   D2A34648  30.071  21.890   8.266
 2427POPC   C3A34649  29.910  22.025   7.843
 2427POPC   C4A34650  30.057  22.160   7.374
 2427POPC   C1B34651  29.728  22.457   8.767
 2427POPC   C2B34652  29.724  22.291   8.342
 2427POPC   C3B34653  29.715  22.483   7.921
 2427POPC   C4B34654  29.597  22.274   7.510
 2428POPC   NC334655  14.389  24.053   9.514
 2428POPC   PO434656  14.745  23.659   9.232
 2428POPC   GL134657  14.419  23.838   9.049
 2428POPC   GL234658  14.223  23.552   9.127
 2428POPC   C1A34659  14.494  23.968   8.631
 2428POPC   D2A34660  14.670  23.819   8.236
 2428POPC   C3A34661  14.560  24.046   7.865
 2428POPC   C4A34662  14.624  24.016   7.368
 2428POPC   C1B34663  14.351  23.450   8.697
 2428POPC   C2B34664  14.469  23.347   8.259
 2428POPC   C3B34665  14.366  23.557   7.862
 2428POPC   C4B34666  14.398  23.512   7.403
 2429POPC   NC334667   3.838  22.918   9.641
 2429POPC   PO434668   3.208  23.151   9.597
 2429POPC   GL134669   3.430  22.838   9.302
 2429POPC   GL234670   3.786  22.830   9.152
 2429POPC   C1A34671   3.381  22.711   8.870
 2429POPC   D2A34672   3.304  22.945   8.507
 2429POPC   C3A34673   3.423  22.723   8.150
 2429POPC   C4A34674   3.380  22.835   7.714
 2429POPC   C1B34675   3.724  23.109   8.816
 2429POPC   C2B34676   3.783  23.026   8.400
 2429POPC   C3B34677   3.764  23.052   7.990
 2429POPC   C4B34678   3.893  22.919   7.603
 2430POPC   NC334679  25.961  43.255   9.529
 2430POPC   PO434680  25.839  42.559   9.563
 2430POPC   GL134681  26.051  42.825   9.238
 2430POPC   GL234682  25.887  43.096   9.072
 2430POPC   C1A34683  26.311  42.953   8.861
 2430POPC   D2A34684  26.137  43.178   8.502
 2430POPC   C3A34685  26.293  43.284   8.106
 2430POPC   C4A34686  26.241  43.119   7.729
 2430POPC   C1B34687  25.693  43.085   8.706
 2430POPC   C2B34688  25.748  42.884   8.308
 2430POPC   C3B34689  25.774  43.149   7.947
 2430POPC   C4B34690  25.889  43.465   7.607
 2431POPC   NC334691  13.149  38.373   9.465
 2431POPC   PO434692  12.446  38.140   9.495
 2431POPC   GL134693  12.705  38.293   9.158
 2431POPC   GL234694  12.589  38.590   9.026
 2431POPC   C1A34695  13.035  38.270   8.848
 2431POPC   D2A34696  13.119  38.093   8.474
 2431POPC   C3A34697  13.149  38.400   8.180
 2431POPC   C4A34698  13.198  38.718   7.874
 2431POPC   C1B34699  12.628  38.460   8.608
 2431POPC   C2B34700  12.654  38.297   8.225
 2431POPC   C3B34701  12.795  38.421   7.802
 2431POPC   C4B34702  12.621  38.366   7.412
 2432POPC   NC334703  40.600  26.364   9.726
 2432POPC   PO434704  40.989  25.813   9.528
 2432POPC   GL134705  40.781  26.116   9.261
 2432POPC   GL234706  41.041  26.271   9.089
 2432POPC   C1A34707  40.608  26.037   8.847
 2432POPC   D2A34708  40.387  25.955   8.452
 2432POPC   C3A34709  40.626  25.952   8.072
 2432POPC   C4A34710  40.576  25.954   7.642
 2432POPC   C1B34711  40.977  26.334   8.658
 2432POPC   C2B34712  40.956  26.295   8.239
 2432POPC   C3B34713  41.099  26.150   7.863
 2432POPC   C4B34714  40.975  26.216   7.452
 2433POPC   NC334715  11.896  19.573   9.467
 2433POPC   PO434716  12.428  20.040   9.490
 2433POPC   GL134717  12.159  19.919   9.087
 2433POPC   GL234718  11.817  19.810   9.021
 2433POPC   C1A34719  12.093  19.832   8.623
 2433POPC   D2A34720  11.928  19.807   8.259
 2433POPC   C3A34721  12.282  19.890   8.024
 2433POPC   C4A34722  12.505  19.641   7.743
 2433POPC   C1B34723  11.734  20.198   8.757
 2433POPC   C2B34724  11.562  20.218   8.312
 2433POPC   C3B34725  11.633  19.995   7.903
 2433POPC   C4B34726  11.934  19.738   7.703
 2434POPC   NC334727   5.813  38.164   9.543
 2434POPC   PO434728   6.187  38.695   9.389
 2434POPC   GL134729   6.070  38.378   9.108
 2434POPC   GL234730   5.704  38.322   9.079
 2434POPC   C1A34731   6.028  38.207   8.692
 2434POPC   D2A34732   5.907  38.447   8.323
 2434POPC   C3A34733   6.120  38.627   7.963
 2434POPC   C4A34734   6.348  38.341   7.700
 2434POPC   C1B34735   5.510  38.333   8.677
 2434POPC   C2B34736   5.423  38.579   8.326
 2434POPC   C3B34737   5.600  38.585   7.913
 2434POPC   C4B34738   5.534  38.541   7.495
 2435POPC   NC334739  10.268  43.772   9.760
 2435POPC   PO434740  10.747  44.187   9.732
 2435POPC   GL134741  10.554  44.131   9.313
 2435POPC   GL234742  10.518  43.759   9.269
 2435POPC   C1A34743  10.585  44.097   8.814
 2435POPC   D2A34744  10.434  43.946   8.389
 2435POPC   C3A34745  10.536  44.077   7.942
 2435POPC   C4A34746  10.703  44.065   7.499
 2435POPC   C1B34747  10.393  43.635   8.836
 2435POPC   C2B34748  10.570  43.469   8.460
 2435POPC   C3B34749  10.566  43.561   8.039
 2435POPC   C4B34750  10.329  43.710   7.658
 2436POPC   NC334751  34.722  18.886   9.492
 2436POPC   PO434752  34.474  19.470   9.380
 2436POPC   GL134753  34.721  19.206   9.125
 2436POPC   GL234754  34.397  19.017   9.083
 2436POPC   C1A34755  34.754  18.950   8.756
 2436POPC   D2A34756  34.370  18.948   8.481
 2436POPC   C3A34757  34.441  18.950   8.048
 2436POPC   C4A34758  34.768  18.902   7.760
 2436POPC   C1B34759  34.435  19.379   8.743
 2436POPC   C2B34760  34.285  19.444   8.338
 2436POPC   C3B34761  34.246  19.594   7.926
 2436POPC   C4B34762  34.389  19.301   7.644
 2437POPC   NC334763   7.601   0.262   9.482
 2437POPC   PO434764   7.023  44.942   9.334
 2437POPC   GL134765   7.260   0.199   9.003
 2437POPC   GL234766   7.507   0.478   9.035
 2437POPC   C1A34767   7.661   0.065   8.779
 2437POPC   D2A34768   7.800   0.019   8.330
 2437POPC   C3A34769   7.555   0.313   8.029
 2437POPC   C4A34770   7.138   0.395   7.822
 2437POPC   C1B34771   7.741   0.748   8.749
 2437POPC   C2B34772   7.675   0.957   8.338
 2437POPC   C3B34773   7.345   0.926   8.036
 2437POPC   C4B34774   7.495   0.754   7.674
 2438POPC   NC334775  31.593   7.941   9.445
 2438POPC   PO434776  31.258   8.512   9.583
 2438POPC   GL134777  31.280   8.256   9.219
 2438POPC   GL234778  31.087   7.951   9.314
 2438POPC   C1A34779  31.571   8.171   8.858
 2438POPC   D2A34780  31.820   8.210   8.459
 2438POPC   C3A34781  31.650   8.387   8.118
 2438POPC   C4A34782  31.652   8.167   7.748
 2438POPC   C1B34783  31.074   7.928   8.868
 2438POPC   C2B34784  31.255   8.123   8.475
 2438POPC   C3B34785  31.169   8.150   8.042
 2438POPC   C4B34786  31.205   7.991   7.632
 2439POPC   NC334787  16.011  36.535   9.400
 2439POPC   PO434788  15.648  35.934   9.635
 2439POPC   GL134789  15.792  35.928   9.167
 2439POPC   GL234790  16.101  36.087   9.135
 2439POPC   C1A34791  15.826  36.133   8.704
 2439POPC   D2A34792  15.692  36.098   8.249
 2439POPC   C3A34793  15.869  36.409   7.958
 2439POPC   C4A34794  15.826  36.633   7.569
 2439POPC   C1B34795  16.309  35.931   8.749
 2439POPC   C2B34796  16.224  36.069   8.345
 2439POPC   C3B34797  16.161  35.999   7.915
 2439POPC   C4B34798  16.454  35.899   7.594
 2440POPC   NC334799  17.995  19.843   9.346
 2440POPC   PO434800  17.382  19.824   9.499
 2440POPC   GL134801  17.341  19.665   9.096
 2440POPC   GL234802  17.678  19.561   9.052
 2440POPC   C1A34803  17.188  19.797   8.685
 2440POPC   D2A34804  17.299  20.108   8.344
 2440POPC   C3A34805  17.214  19.978   7.911
 2440POPC   C4A34806  17.197  20.185   7.493
 2440POPC   C1B34807  17.685  19.796   8.633
 2440POPC   C2B34808  17.784  19.913   8.198
 2440POPC   C3B34809  17.707  20.193   7.897
 2440POPC   C4B34810  17.598  20.502   7.576
 2441POPC   NC334811  36.288  16.652   9.501
 2441POPC   PO434812  36.902  16.820   9.581
 2441POPC   GL134813  36.676  16.787   9.210
 2441POPC   GL234814  36.589  17.166   9.248
 2441POPC   C1A34815  36.794  16.551   8.830
 2441POPC   D2A34816  37.033  16.362   8.483
 2441POPC   C3A34817  37.118  16.604   8.110
 2441POPC   C4A34818  37.249  16.660   7.696
 2441POPC   C1B34819  36.779  17.101   8.837
 2441POPC   C2B34820  36.924  16.929   8.455
 2441POPC   C3B34821  36.814  17.011   8.014
 2441POPC   C4B34822  36.686  16.844   7.633
 2442POPC   NC334823  21.001  22.107   9.501
 2442POPC   PO434824  20.421  22.439   9.441
 2442POPC   GL134825  20.629  22.134   9.105
 2442POPC   GL234826  20.931  21.844   9.083
 2442POPC   C1A34827  20.425  22.053   8.718
 2442POPC   D2A34828  20.289  22.309   8.344
 2442POPC   C3A34829  20.378  22.231   7.925
 2442POPC   C4A34830  20.382  22.495   7.552
 2442POPC   C1B34831  20.919  21.957   8.681
 2442POPC   C2B34832  20.791  22.270   8.399
 2442POPC   C3B34833  20.874  22.339   7.989
 2442POPC   C4B34834  20.970  22.036   7.713
 2443POPC   NC334835  23.899  33.597   9.746
 2443POPC   PO434836  24.449  34.043   9.596
 2443POPC   GL134837  24.390  33.827   9.217
 2443POPC   GL234838  24.552  33.578   9.025
 2443POPC   C1A34839  24.293  33.949   8.799
 2443POPC   D2A34840  24.506  34.044   8.433
 2443POPC   C3A34841  24.392  33.791   8.125
 2443POPC   C4A34842  24.299  33.898   7.738
 2443POPC   C1B34843  24.629  33.551   8.608
 2443POPC   C2B34844  24.877  33.660   8.267
 2443POPC   C3B34845  24.828  33.728   7.860
 2443POPC   C4B34846  24.958  33.390   7.623
 2444POPC   NC334847  11.688  44.886   9.633
 2444POPC   PO434848  12.252  44.498   9.668
 2444POPC   GL134849  12.116  44.515   9.223
 2444POPC   GL234850  11.762  44.607   9.188
 2444POPC   C1A34851  12.122  44.755   8.810
 2444POPC   D2A34852  11.992  44.940   8.393
 2444POPC   C3A34853  12.307  44.823   8.065
 2444POPC   C4A34854  12.338  44.448   7.799
 2444POPC   C1B34855  11.702  44.441   8.742
 2444POPC   C2B34856  11.758  44.458   8.282
 2444POPC   C3B34857  11.840  44.718   7.915
 2444POPC   C4B34858  11.858   0.134   7.742
 2445POPC   NC334859   5.546   6.020   9.686
 2445POPC   PO434860   5.978   5.607   9.425
 2445POPC   GL134861   5.702   5.783   9.133
 2445POPC   GL234862   5.717   6.142   9.212
 2445POPC   C1A34863   5.760   5.734   8.694
 2445POPC   D2A34864   5.633   5.962   8.365
 2445POPC   C3A34865   5.739   5.740   8.027
 2445POPC   C4A34866   5.553   5.791   7.652
 2445POPC   C1B34867   5.941   6.171   8.839
 2445POPC   C2B34868   6.116   6.086   8.435
 2445POPC   C3B34869   5.957   6.203   8.033
 2445POPC   C4B34870   5.998   6.011   7.625
 2446POPC   NC334871  30.520   1.604   9.344
 2446POPC   PO434872  31.082   1.211   9.582
 2446POPC   GL134873  30.831   1.110   9.189
 2446POPC   GL234874  30.557   1.240   8.961
 2446POPC   C1A34875  30.936   0.964   8.776
 2446POPC   D2A34876  30.689   1.010   8.420
 2446POPC   C3A34877  30.790   1.185   8.038
 2446POPC   C4A34878  30.750   0.907   7.730
 2446POPC   C1B34879  30.352   1.400   8.563
 2446POPC   C2B34880  30.187   1.498   8.175
 2446POPC   C3B34881  30.415   1.503   7.814
 2446POPC   C4B34882  30.524   1.288   7.461
 2447POPC   NC334883  18.990   3.116   9.359
 2447POPC   PO434884  18.759   2.572   9.425
 2447POPC   GL134885  18.790   2.751   9.038
 2447POPC   GL234886  18.553   2.974   9.087
 2447POPC   C1A34887  19.037   2.780   8.667
 2447POPC   D2A34888  19.196   2.922   8.265
 2447POPC   C3A34889  19.244   2.638   7.900
 2447POPC   C4A34890  19.058   2.712   7.490
 2447POPC   C1B34891  18.613   3.086   8.688
 2447POPC   C2B34892  18.648   2.825   8.344
 2447POPC   C3B34893  18.763   2.790   7.953
 2447POPC   C4B34894  18.601   3.073   7.727
 2448POPC   NC334895  18.340  39.862   9.503
 2448POPC   PO434896  18.626  40.501   9.408
 2448POPC   GL134897  18.521  40.126   9.101
 2448POPC   GL234898  18.164  39.931   9.048
 2448POPC   C1A34899  18.574  39.902   8.688
 2448POPC   D2A34900  18.569  39.632   8.295
 2448POPC   C3A34901  18.513  39.872   7.912
 2448POPC   C4A34902  18.826  40.114   7.679
 2448POPC   C1B34903  18.019  40.032   8.678
 2448POPC   C2B34904  18.128  39.908   8.281
 2448POPC   C3B34905  18.072  40.138   7.899
 2448POPC   C4B34906  17.843  40.078   7.532
 2449POPC   NC334907   1.895  13.803   9.636
 2449POPC   PO434908   2.373  13.547   9.275
 2449POPC   GL134909   2.000  13.660   9.076
 2449POPC   GL234910   1.871  13.298   8.975
 2449POPC   C1A34911   2.009  13.903   8.681
 2449POPC   D2A34912   1.917  14.054   8.252
 2449POPC   C3A34913   2.212  13.941   7.943
 2449POPC   C4A34914   2.006  13.640   7.723
 2449POPC   C1B34915   2.174  13.439   8.646
 2449POPC   C2B34916   2.129  13.508   8.229
 2449POPC   C3B34917   1.974  13.194   7.952
 2449POPC   C4B34918   2.170  13.185   7.555
 2450POPC   NC334919  28.088  17.488   9.585
 2450POPC   PO434920  28.636  17.735   9.309
 2450POPC   GL134921  28.301  17.588   9.084
 2450POPC   GL234922  28.533  17.363   8.939
 2450POPC   C1A34923  28.155  17.578   8.650
 2450POPC   D2A34924  28.382  17.451   8.278
 2450POPC   C3A34925  28.158  17.435   7.928
 2450POPC   C4A34926  27.992  17.787   7.790
 2450POPC   C1B34927  28.660  17.680   8.651
 2450POPC   C2B34928  28.661  17.905   8.288
 2450POPC   C3B34929  28.564  17.757   7.891
 2450POPC   C4B34930  28.637  17.345   7.739
 2451POPC   NC334931  29.761   2.190   9.519
 2451POPC   PO434932  30.236   1.723   9.730
 2451POPC   GL134933  29.976   1.802   9.273
 2451POPC   GL234934  29.683   1.741   9.073
 2451POPC   C1A34935  30.032   2.003   8.820
 2451POPC   D2A34936  30.120   1.962   8.370
 2451POPC   C3A34937  29.780   1.943   8.042
 2451POPC   C4A34938  29.774   1.993   7.574
 2451POPC   C1B34939  29.644   1.756   8.600
 2451POPC   C2B34940  29.461   1.570   8.211
 2451POPC   C3B34941  29.422   1.672   7.757
 2451POPC   C4B34942  29.644   1.541   7.344
 2452POPC   NC334943   8.300   5.876   9.442
 2452POPC   PO434944   7.716   6.330   9.381
 2452POPC   GL134945   7.897   6.044   9.056
 2452POPC   GL234946   8.187   5.787   8.968
 2452POPC   C1A34947   8.119   6.190   8.689
 2452POPC   D2A34948   8.113   5.882   8.400
 2452POPC   C3A34949   8.074   6.025   7.984
 2452POPC   C4A34950   8.372   5.910   7.723
 2452POPC   C1B34951   7.917   5.486   8.805
 2452POPC   C2B34952   7.648   5.305   8.507
 2452POPC   C3B34953   7.661   5.364   8.025
 2452POPC   C4B34954   7.952   5.586   7.705
 2453POPC   NC334955  25.712  25.497   9.252
 2453POPC   PO434956  26.146  25.024   9.562
 2453POPC   GL134957  25.979  25.066   9.180
 2453POPC   GL234958  26.207  25.332   9.132
 2453POPC   C1A34959  25.850  25.093   8.740
 2453POPC   D2A34960  25.953  25.029   8.304
 2453POPC   C3A34961  25.899  25.328   7.970
 2453POPC   C4A34962  25.867  25.279   7.531
 2453POPC   C1B34963  26.228  25.473   8.721
 2453POPC   C2B34964  26.272  25.512   8.298
 2453POPC   C3B34965  26.427  25.459   7.886
 2453POPC   C4B34966  26.293  25.049   7.723
 2454POPC   NC334967  16.083  17.195   9.478
 2454POPC   PO434968  15.675  17.716   9.581
 2454POPC   GL134969  15.836  17.840   9.187
 2454POPC   GL234970  16.122  17.593   9.165
 2454POPC   C1A34971  15.862  17.735   8.758
 2454POPC   D2A34972  15.957  17.512   8.406
 2454POPC   C3A34973  15.920  17.801   8.101
 2454POPC   C4A34974  15.682  17.988   7.827
 2454POPC   C1B34975  16.374  17.530   8.802
 2454POPC   C2B34976  16.477  17.464   8.393
 2454POPC   C3B34977  16.255  17.334   8.017
 2454POPC   C4B34978  15.818  17.341   7.896
 2455POPC   NC334979  38.235  26.432   9.726
 2455POPC   PO434980  38.596  26.959   9.477
 2455POPC   GL134981  38.586  26.762   9.095
 2455POPC   GL234982  38.425  26.447   9.172
 2455POPC   C1A34983  38.719  26.855   8.696
 2455POPC   D2A34984  38.866  27.006   8.330
 2455POPC   C3A34985  38.590  26.930   7.968
 2455POPC   C4A34986  38.663  27.029   7.546
 2455POPC   C1B34987  38.573  26.376   8.741
 2455POPC   C2B34988  38.513  26.529   8.297
 2455POPC   C3B34989  38.309  26.491   7.890
 2455POPC   C4B34990  38.299  26.602   7.429
 2456POPC   NC334991   3.324  23.601   9.631
 2456POPC   PO434992   4.070  23.421   9.632
 2456POPC   GL134993   3.783  23.579   9.259
 2456POPC   GL234994   3.499  23.360   9.210
 2456POPC   C1A34995   3.608  23.754   8.828
 2456POPC   D2A34996   3.435  23.925   8.385
 2456POPC   C3A34997   3.556  23.735   7.954
 2456POPC   C4A34998   3.965  23.858   7.671
 2456POPC   C1B34999   3.274  23.361   8.827
 2456POPC   C2B35000   3.322  23.432   8.389
 2456POPC   C3B35001   3.293  23.268   7.986
 2456POPC   C4B35002   3.562  23.327   7.616
 2457POPC   NC335003  13.710  15.004   9.646
 2457POPC   PO435004  13.620  15.681   9.604
 2457POPC   GL135005  13.398  15.564   9.268
 2457POPC   GL235006  13.556  15.256   9.204
 2457POPC   C1A35007  13.430  15.612   8.817
 2457POPC   D2A35008  13.537  15.476   8.428
 2457POPC   C3A35009  13.537  15.546   7.994
 2457POPC   C4A35010  13.809  15.239   7.816
 2457POPC   C1B35011  13.808  15.245   8.809
 2457POPC   C2B35012  13.980  15.233   8.367
 2457POPC   C3B35013  14.155  14.955   8.064
 2457POPC   C4B35014  14.110  14.817   7.681
 2458POPC   NC335015  23.020  35.030   9.445
 2458POPC   PO435016  22.687  35.571   9.489
 2458POPC   GL135017  22.914  35.411   9.140
 2458POPC   GL235018  23.137  35.628   9.159
 2458POPC   C1A35019  23.090  35.239   8.731
 2458POPC   D2A35020  22.848  35.309   8.367
 2458POPC   C3A35021  22.910  35.153   7.980
 2458POPC   C4A35022  22.983  35.330   7.596
 2458POPC   C1B35023  22.913  35.699   8.733
 2458POPC   C2B35024  23.148  35.733   8.366
 2458POPC   C3B35025  23.195  35.618   7.968
 2458POPC   C4B35026  23.093  35.815   7.616
 2459POPC   NC335027  20.816  12.225   9.504
 2459POPC   PO435028  20.333  11.780   9.502
 2459POPC   GL135029  20.468  12.080   9.152
 2459POPC   GL235030  20.592  12.431   9.108
 2459POPC   C1A35031  20.753  12.058   8.782
 2459POPC   D2A35032  20.890  11.831   8.393
 2459POPC   C3A35033  20.687  11.871   8.025
 2459POPC   C4A35034  20.789  11.896   7.603
 2459POPC   C1B35035  20.787  12.561   8.757
 2459POPC   C2B35036  20.812  12.360   8.323
 2459POPC   C3B35037  20.561  12.360   7.912
 2459POPC   C4B35038  20.466  12.336   7.443
 2460POPC   NC335039  37.966  30.224   9.473
 2460POPC   PO435040  37.697  29.625   9.568
 2460POPC   GL135041  37.835  29.789   9.185
 2460POPC   GL235042  37.556  29.985   9.208
 2460POPC   C1A35043  37.961  29.879   8.755
 2460POPC   D2A35044  38.015  30.035   8.336
 2460POPC   C3A35045  37.635  30.059   8.093
 2460POPC   C4A35046  37.638  30.035   7.629
 2460POPC   C1B35047  37.429  29.818   8.828
 2460POPC   C2B35048  37.401  29.654   8.414
 2460POPC   C3B35049  37.264  29.503   8.017
 2460POPC   C4B35050  37.307  29.658   7.612
 2461POPC   NC335051  42.614  43.496   9.562
 2461POPC   PO435052  43.284  43.750   9.660
 2461POPC   GL135053  43.017  43.802   9.294
 2461POPC   GL235054  42.920  43.510   9.152
 2461POPC   C1A35055  42.910  43.965   8.900
 2461POPC   D2A35056  42.973  43.907   8.450
 2461POPC   C3A35057  42.835  44.049   8.040
 2461POPC   C4A35058  42.906  43.983   7.605
 2461POPC   C1B35059  42.653  43.525   8.768
 2461POPC   C2B35060  42.823  43.417   8.360
 2461POPC   C3B35061  42.937  43.553   7.947
 2461POPC   C4B35062  42.547  43.680   7.800
 2462POPC   NC335063  13.753  27.416   9.578
 2462POPC   PO435064  13.234  27.770   9.744
 2462POPC   GL135065  13.424  27.641   9.283
 2462POPC   GL235066  13.810  27.738   9.198
 2462POPC   C1A35067  13.474  27.715   8.836
 2462POPC   D2A35068  13.768  27.772   8.470
 2462POPC   C3A35069  13.640  27.879   8.051
 2462POPC   C4A35070  13.734  27.917   7.622
 2462POPC   C1B35071  13.918  27.441   8.842
 2462POPC   C2B35072  13.951  27.270   8.430
 2462POPC   C3B35073  13.940  27.465   8.051
 2462POPC   C4B35074  14.008  27.339   7.665
 2463POPC   NC335075  25.183  35.849   9.539
 2463POPC   PO435076  25.519  36.459   9.498
 2463POPC   GL135077  25.297  36.300   9.123
 2463POPC   GL235078  25.063  36.034   9.082
 2463POPC   C1A35079  25.181  36.269   8.662
 2463POPC   D2A35080  25.076  36.151   8.264
 2463POPC   C3A35081  25.436  36.288   8.069
 2463POPC   C4A35082  25.376  36.286   7.660
 2463POPC   C1B35083  25.447  35.878   8.866
 2463POPC   C2B35084  25.468  35.825   8.403
 2463POPC   C3B35085  25.343  35.795   7.951
 2463POPC   C4B35086  24.913  35.766   7.838
 2464POPC   NC335087   3.080   3.875   9.467
 2464POPC   PO435088   2.521   3.508   9.707
 2464POPC   GL135089   2.576   3.532   9.200
 2464POPC   GL235090   2.868   3.692   9.058
 2464POPC   C1A35091   2.600   3.465   8.703
 2464POPC   D2A35092   2.559   3.731   8.307
 2464POPC   C3A35093   2.427   3.550   7.913
 2464POPC   C4A35094   2.625   3.313   7.611
 2464POPC   C1B35095   3.108   3.831   8.722
 2464POPC   C2B35096   3.076   3.758   8.283
 2464POPC   C3B35097   2.920   3.878   7.897
 2464POPC   C4B35098   3.133   3.845   7.496
 2465POPC   NC335099  42.678  14.916   9.711
 2465POPC   PO435100  43.221  15.290   9.416
 2465POPC   GL135101  43.186  15.337   9.006
 2465POPC   GL235102  42.846  15.336   9.015
 2465POPC   C1A35103  43.402  15.178   8.658
 2465POPC   D2A35104  43.333  14.871   8.348
 2465POPC   C3A35105  43.191  15.150   8.038
 2465POPC   C4A35106  43.438  15.418   7.734
 2465POPC   C1B35107  42.919  15.040   8.651
 2465POPC   C2B35108  42.758  14.865   8.288
 2465POPC   C3B35109  42.790  14.896   7.869
 2465POPC   C4B35110  42.766  15.287   7.682
 2466POPC   NC335111  38.137  28.257   9.586
 2466POPC   PO435112  38.692  28.490   9.504
 2466POPC   GL135113  38.452  28.474   9.163
 2466POPC   GL235114  38.422  28.113   9.171
 2466POPC   C1A35115  38.504  28.394   8.739
 2466POPC   D2A35116  38.576  28.215   8.348
 2466POPC   C3A35117  38.474  28.441   7.995
 2466POPC   C4A35118  38.621  28.653   7.637
 2466POPC   C1B35119  38.109  28.106   8.830
 2466POPC   C2B35120  38.092  28.308   8.420
 2466POPC   C3B35121  38.043  28.151   7.982
 2466POPC   C4B35122  38.188  28.346   7.585
 2467POPC   NC335123  25.804   7.558   9.462
 2467POPC   PO435124  26.465   7.500   9.577
 2467POPC   GL135125  26.230   7.376   9.182
 2467POPC   GL235126  25.974   7.570   8.987
 2467POPC   C1A35127  26.294   7.314   8.718
 2467POPC   D2A35128  26.079   7.572   8.410
 2467POPC   C3A35129  26.417   7.704   8.147
 2467POPC   C4A35130  26.420   7.472   7.797
 2467POPC   C1B35131  25.643   7.467   8.707
 2467POPC   C2B35132  25.556   7.362   8.282
 2467POPC   C3B35133  25.792   7.560   7.950
 2467POPC   C4B35134  25.977   7.373   7.582
 2468POPC   NC335135  29.506  22.895   9.393
 2468POPC   PO435136  29.103  23.312   9.730
 2468POPC   GL135137  29.047  23.278   9.220
 2468POPC   GL235138  29.084  22.924   9.129
 2468POPC   C1A35139  29.012  23.239   8.776
 2468POPC   D2A35140  28.799  23.058   8.470
 2468POPC   C3A35141  28.850  23.150   8.049
 2468POPC   C4A35142  29.167  23.176   7.747
 2468POPC   C1B35143  29.057  22.710   8.774
 2468POPC   C2B35144  29.318  22.630   8.408
 2468POPC   C3B35145  29.157  22.718   8.026
 2468POPC   C4B35146  29.325  22.672   7.656
 2469POPC   NC335147   2.348  19.664   9.824
 2469POPC   PO435148   2.324  20.299   9.623
 2469POPC   GL135149   2.246  20.052   9.221
 2469POPC   GL235150   2.207  19.709   9.332
 2469POPC   C1A35151   2.145  19.996   8.741
 2469POPC   D2A35152   2.320  20.068   8.289
 2469POPC   C3A35153   2.062  20.031   7.900
 2469POPC   C4A35154   1.763  20.084   7.541
 2469POPC   C1B35155   2.368  19.564   8.926
 2469POPC   C2B35156   2.341  19.581   8.453
 2469POPC   C3B35157   2.351  19.623   7.968
 2469POPC   C4B35158   2.130  19.701   7.514
 2470POPC   NC335159  39.590  44.240   9.559
 2470POPC   PO435160  39.444  43.631   9.576
 2470POPC   GL135161  39.323  43.690   9.156
 2470POPC   GL235162  39.266  44.034   9.074
 2470POPC   C1A35163  39.095  43.650   8.745
 2470POPC   D2A35164  38.908  43.881   8.402
 2470POPC   C3A35165  39.146  44.014   8.031
 2470POPC   C4A35166  38.972  43.941   7.613
 2470POPC   C1B35167  39.532  43.925   8.714
 2470POPC   C2B35168  39.775  44.062   8.372
 2470POPC   C3B35169  39.700  43.901   7.957
 2470POPC   C4B35170  39.463  44.019   7.620
 2471POPC   NC335171  32.475  39.778   9.693
 2471POPC   PO435172  33.023  40.145   9.648
 2471POPC   GL135173  33.017  40.093   9.213
 2471POPC   GL235174  32.764  39.848   9.240
 2471POPC   C1A35175  33.196  40.015   8.782
 2471POPC   D2A35176  33.252  40.232   8.364
 2471POPC   C3A35177  33.234  39.982   7.979
 2471POPC   C4A35178  33.365  40.111   7.553
 2471POPC   C1B35179  32.684  40.025   8.818
 2471POPC   C2B35180  32.845  39.935   8.405
 2471POPC   C3B35181  32.755  39.789   7.986
 2471POPC   C4B35182  32.917  39.807   7.578
 2472POPC   NC335183   2.904  14.400   9.552
 2472POPC   PO435184   2.225  14.533   9.352
 2472POPC   GL135185   2.622  14.549   9.101
 2472POPC   GL235186   2.967  14.729   9.166
 2472POPC   C1A35187   2.634  14.379   8.694
 2472POPC   D2A35188   2.407  14.199   8.347
 2472POPC   C3A35189   2.611  14.286   7.943
 2472POPC   C4A35190   2.787  14.654   7.749
 2472POPC   C1B35191   3.103  14.603   8.733
 2472POPC   C2B35192   2.956  14.524   8.313
 2472POPC   C3B35193   3.216  14.692   7.992
 2472POPC   C4B35194   3.306  14.630   7.556
 2473POPC   NC335195  41.093  29.591   9.543
 2473POPC   PO435196  40.578  30.067   9.614
 2473POPC   GL135197  40.710  30.056   9.236
 2473POPC   GL235198  40.726  29.707   9.186
 2473POPC   C1A35199  41.022  30.073   8.931
 2473POPC   D2A35200  41.022  30.061   8.475
 2473POPC   C3A35201  40.793  30.057   8.078
 2473POPC   C4A35202  40.951  29.785   7.796
 2473POPC   C1B35203  40.616  29.823   8.764
 2473POPC   C2B35204  40.668  29.654   8.361
 2473POPC   C3B35205  40.464  29.664   7.965
 2473POPC   C4B35206  40.272  29.700   7.582
 2474POPC   NC335207  26.468  40.208   9.445
 2474POPC   PO435208  25.800  40.160   9.730
 2474POPC   GL135209  25.963  40.105   9.286
 2474POPC   GL235210  26.165  39.775   9.239
 2474POPC   C1A35211  25.967  40.052   8.826
 2474POPC   D2A35212  25.910  39.890   8.353
 2474POPC   C3A35213  25.951  40.231   8.014
 2474POPC   C4A35214  26.266  40.197   7.702
 2474POPC   C1B35215  26.180  39.529   8.826
 2474POPC   C2B35216  26.372  39.458   8.393
 2474POPC   C3B35217  26.326  39.706   8.017
 2474POPC   C4B35218  25.937  39.770   7.802
 2475POPC   NC335219  24.962  21.342   9.460
 2475POPC   PO435220  25.533  21.060   9.743
 2475POPC   GL135221  25.419  21.518   9.381
 2475POPC   GL235222  25.154  21.413   9.017
 2475POPC   C1A35223  25.472  21.766   8.941
 2475POPC   D2A35224  25.364  21.527   8.528
 2475POPC   C3A35225  25.271  21.558   8.067
 2475POPC   C4A35226  25.182  21.220   7.801
 2475POPC   C1B35227  24.970  21.769   8.767
 2475POPC   C2B35228  25.116  21.944   8.355
 2475POPC   C3B35229  24.840  21.819   8.047
 2475POPC   C4B35230  24.788  21.566   7.709
 2476POPC   NC335231   5.361  30.556   9.477
 2476POPC   PO435232   4.784  30.822   9.500
 2476POPC   GL135233   5.021  30.800   9.128
 2476POPC   GL235234   5.306  30.998   9.087
 2476POPC   C1A35235   5.217  30.580   8.782
 2476POPC   D2A35236   5.299  30.262   8.447
 2476POPC   C3A35237   5.124  30.381   8.049
 2476POPC   C4A35238   4.905  30.570   7.707
 2476POPC   C1B35239   5.478  31.029   8.685
 2476POPC   C2B35240   5.382  30.771   8.304
 2476POPC   C3B35241   5.447  30.720   7.849
 2476POPC   C4B35242   5.648  30.879   7.467
 2477POPC   NC335243  25.444  14.517   9.543
 2477POPC   PO435244  26.094  14.391   9.507
 2477POPC   GL135245  26.271  14.306   9.108
 2477POPC   GL235246  25.897  14.331   9.008
 2477POPC   C1A35247  26.208  14.140   8.683
 2477POPC   D2A35248  25.870  14.316   8.445
 2477POPC   C3A35249  26.003  14.345   8.032
 2477POPC   C4A35250  26.353  14.157   7.867
 2477POPC   C1B35251  26.223  14.620   8.729
 2477POPC   C2B35252  26.392  14.476   8.341
 2477POPC   C3B35253  26.443  14.667   7.975
 2477POPC   C4B35254  26.215  14.725   7.637
 2478POPC   NC335255   5.798  24.149   9.458
 2478POPC   PO435256   6.036  24.782   9.496
 2478POPC   GL135257   6.075  24.481   9.167
 2478POPC   GL235258   5.742  24.490   9.071
 2478POPC   C1A35259   6.097  24.236   8.787
 2478POPC   D2A35260   5.925  24.411   8.442
 2478POPC   C3A35261   6.175  24.528   8.153
 2478POPC   C4A35262   6.101  24.446   7.765
 2478POPC   C1B35263   5.491  24.383   8.717
 2478POPC   C2B35264   5.352  24.257   8.305
 2478POPC   C3B35265   5.635  24.453   8.019
 2478POPC   C4B35266   5.616  24.574   7.611
 2479POPC   NC335267  39.451  24.164   9.342
 2479POPC   PO435268  38.942  24.598   9.405
 2479POPC   GL135269  39.284  24.621   9.120
 2479POPC   GL235270  39.658  24.635   9.170
 2479POPC   C1A35271  39.351  24.788   8.742
 2479POPC   D2A35272  39.211  25.024   8.398
 2479POPC   C3A35273  39.275  24.760   8.031
 2479POPC   C4A35274  39.099  24.515   7.689
 2479POPC   C1B35275  39.688  24.382   8.775
 2479POPC   C2B35276  39.454  24.403   8.403
 2479POPC   C3B35277  39.432  24.278   7.999
 2479POPC   C4B35278  39.334  24.081   7.607
 2480POPC   NC335279  21.792  18.080   9.521
 2480POPC   PO435280  22.351  18.236   9.397
 2480POPC   GL135281  22.148  18.360   9.033
 2480POPC   GL235282  21.798  18.298   9.060
 2480POPC   C1A35283  22.284  18.356   8.594
 2480POPC   D2A35284  22.350  18.447   8.141
 2480POPC   C3A35285  22.180  18.158   7.912
 2480POPC   C4A35286  21.943  17.792   7.919
 2480POPC   C1B35287  21.668  18.506   8.711
 2480POPC   C2B35288  21.873  18.533   8.348
 2480POPC   C3B35289  21.899  18.647   7.964
 2480POPC   C4B35290  21.664  18.487   7.619
 2481POPC   NC335291   1.444  16.626   9.308
 2481POPC   PO435292   0.881  16.470   9.417
 2481POPC   GL135293   1.095  16.439   8.987
 2481POPC   GL235294   1.170  16.788   8.917
 2481POPC   C1A35295   1.391  16.456   8.594
 2481POPC   D2A35296   1.609  16.707   8.233
 2481POPC   C3A35297   1.520  16.564   7.824
 2481POPC   C4A35298   1.411  16.479   7.408
 2481POPC   C1B35299   1.519  16.973   8.687
 2481POPC   C2B35300   1.454  17.196   8.295
 2481POPC   C3B35301   1.526  17.100   7.853
 2481POPC   C4B35302   1.684  17.091   7.407
 2482POPC   NC335303  15.011  43.852   9.298
 2482POPC   PO435304  15.493  44.355   9.371
 2482POPC   GL135305  15.373  44.108   9.036
 2482POPC   GL235306  15.443  43.759   9.042
 2482POPC   C1A35307  15.141  44.009   8.662
 2482POPC   D2A35308  14.913  44.018   8.259
 2482POPC   C3A35309  15.193  44.151   7.915
 2482POPC   C4A35310  15.235  43.917   7.536
 2482POPC   C1B35311  15.335  43.530   8.714
 2482POPC   C2B35312  15.477  43.518   8.309
 2482POPC   C3B35313  15.183  43.629   8.005
 2482POPC   C4B35314  15.153  43.421   7.656
 2483POPC   NC335315   0.853  39.273   9.494
 2483POPC   PO435316   0.152  39.045   9.423
 2483POPC   GL135317   0.291  39.139   9.060
 2483POPC   GL235318   0.560  39.336   9.088
 2483POPC   C1A35319   0.220  39.368   8.678
 2483POPC   D2A35320  44.995  39.422   8.279
 2483POPC   C3A35321   0.290  39.309   7.960
 2483POPC   C4A35322   0.554  39.350   7.558
 2483POPC   C1B35323   0.692  39.067   8.750
 2483POPC   C2B35324   0.539  39.039   8.345
 2483POPC   C3B35325   0.729  39.033   7.945
 2483POPC   C4B35326   0.718  38.732   7.620
 2484POPC   NC335327  39.914   0.111   9.515
 2484POPC   PO435328  40.164   0.746   9.404
 2484POPC   GL135329  40.052   0.415   9.125
 2484POPC   GL235330  39.725   0.334   9.065
 2484POPC   C1A35331  40.107   0.194   8.725
 2484POPC   D2A35332  40.073   0.368   8.316
 2484POPC   C3A35333  39.899   0.133   7.998
 2484POPC   C4A35334  39.591   0.306   7.704
 2484POPC   C1B35335  39.724   0.665   8.792
 2484POPC   C2B35336  39.691   0.858   8.411
 2484POPC   C3B35337  39.727   0.655   8.045
 2484POPC   C4B35338  40.045   0.536   7.744
 2485POPC   NC335339  38.017  43.949   9.589
 2485POPC   PO435340  37.364  44.170   9.445
 2485POPC   GL135341  37.684  43.945   9.177
 2485POPC   GL235342  37.996  44.084   9.107
 2485POPC   C1A35343  37.854  43.625   8.870
 2485POPC   D2A35344  37.876  43.455   8.447
 2485POPC   C3A35345  37.789  43.729   8.087
 2485POPC   C4A35346  38.050  43.730   7.718
 2485POPC   C1B35347  37.913  44.079   8.670
 2485POPC   C2B35348  38.124  44.090   8.280
 2485POPC   C3B35349  37.919  44.215   7.912
 2485POPC   C4B35350  37.722  44.093   7.554
 2486POPC   NC335351  12.862  19.712   9.550
 2486POPC   PO435352  12.355  19.296   9.433
 2486POPC   GL135353  12.576  19.648   9.138
 2486POPC   GL235354  12.845  19.971   9.128
 2486POPC   C1A35355  12.587  19.852   8.730
 2486POPC   D2A35356  12.611  19.681   8.341
 2486POPC   C3A35357  12.817  19.926   8.039
 2486POPC   C4A35358  13.044  19.634   7.794
 2486POPC   C1B35359  13.143  19.911   8.761
 2486POPC   C2B35360  13.265  19.981   8.298
 2486POPC   C3B35361  13.306  20.064   7.830
 2486POPC   C4B35362  13.309  19.853   7.404
 2487POPC   NC335363  14.040  43.212   9.559
 2487POPC   PO435364  13.620  42.718   9.543
 2487POPC   GL135365  13.746  43.017   9.196
 2487POPC   GL235366  13.651  43.382   9.202
 2487POPC   C1A35367  13.769  43.017   8.774
 2487POPC   D2A35368  13.548  43.011   8.425
 2487POPC   C3A35369  13.837  42.954   8.098
 2487POPC   C4A35370  13.758  43.033   7.692
 2487POPC   C1B35371  13.739  43.557   8.786
 2487POPC   C2B35372  13.811  43.449   8.360
 2487POPC   C3B35373  13.777  43.633   7.959
 2487POPC   C4B35374  13.853  43.489   7.516
 2488POPC   NC335375  44.133  44.560   9.417
 2488POPC   PO435376  43.467  44.487   9.658
 2488POPC   GL135377  43.661  44.571   9.212
 2488POPC   GL235378  43.944  44.801   9.008
 2488POPC   C1A35379  43.561  44.573   8.792
 2488POPC   D2A35380  43.617  44.366   8.446
 2488POPC   C3A35381  43.601  44.621   8.095
 2488POPC   C4A35382  43.682  44.559   7.678
 2488POPC   C1B35383  44.066  44.501   8.678
 2488POPC   C2B35384  44.119  44.446   8.220
 2488POPC   C3B35385  44.156  44.344   7.778
 2488POPC   C4B35386  44.051  44.417   7.357
 2489POPC   NC335387  30.395   5.549   9.725
 2489POPC   PO435388  30.811   6.006   9.483
 2489POPC   GL135389  30.563   5.909   9.157
 2489POPC   GL235390  30.480   5.584   9.217
 2489POPC   C1A35391  30.572   6.003   8.722
 2489POPC   D2A35392  30.828   5.951   8.366
 2489POPC   C3A35393  30.723   5.815   7.930
 2489POPC   C4A35394  31.096   5.665   7.680
 2489POPC   C1B35395  30.324   5.565   8.792
 2489POPC   C2B35396  30.355   5.662   8.337
 2489POPC   C3B35397  30.414   5.385   7.974
 2489POPC   C4B35398  30.331   5.233   7.546
 2490POPC   NC335399   2.160   9.621   9.446
 2490POPC   PO435400   1.618   9.873   9.577
 2490POPC   GL135401   1.631   9.812   9.120
 2490POPC   GL235402   1.984   9.822   9.027
 2490POPC   C1A35403   1.653   9.619   8.716
 2490POPC   D2A35404   1.989   9.738   8.432
 2490POPC   C3A35405   1.804   9.662   8.044
 2490POPC   C4A35406   1.734   9.927   7.699
 2490POPC   C1B35407   2.351  10.014   8.812
 2490POPC   C2B35408   2.497  10.081   8.382
 2490POPC   C3B35409   2.217  10.035   8.023
 2490POPC   C4B35410   2.190   9.704   7.715
 2491POPC   NC335411  27.417  39.980   9.662
 2491POPC   PO435412  27.446  40.709   9.564
 2491POPC   GL135413  27.572  40.833   9.153
 2491POPC   GL235414  27.382  41.119   9.056
 2491POPC   C1A35415  27.648  40.515   8.800
 2491POPC   D2A35416  27.658  40.373   8.374
 2491POPC   C3A35417  27.800  40.690   8.098
 2491POPC   C4A35418  27.864  40.904   7.697
 2491POPC   C1B35419  27.505  40.980   8.666
 2491POPC   C2B35420  27.340  40.830   8.294
 2491POPC   C3B35421  27.447  41.050   7.914
 2491POPC   C4B35422  27.475  41.086   7.424
 2492POPC   NC335423  16.520  43.340   9.468
 2492POPC   PO435424  17.072  42.889   9.469
 2492POPC   GL135425  16.849  42.854   9.083
 2492POPC   GL235426  16.496  42.960   9.094
 2492POPC   C1A35427  16.802  43.170   8.750
 2492POPC   D2A35428  16.615  43.250   8.342
 2492POPC   C3A35429  16.742  43.125   7.897
 2492POPC   C4A35430  16.889  43.224   7.462
 2492POPC   C1B35431  16.415  42.692   8.750
 2492POPC   C2B35432  16.177  42.695   8.376
 2492POPC   C3B35433  16.291  42.956   8.065
 2492POPC   C4B35434  16.218  43.153   7.726
 2493POPC   NC335435  28.279   7.318   9.552
 2493POPC   PO435436  28.778   7.759   9.676
 2493POPC   GL135437  28.440   7.705   9.300
 2493POPC   GL235438  28.614   7.380   9.170
 2493POPC   C1A35439  28.236   7.535   8.882
 2493POPC   D2A35440  27.949   7.488   8.499
 2493POPC   C3A35441  28.044   7.309   8.068
 2493POPC   C4A35442  28.185   7.393   7.663
 2493POPC   C1B35443  28.703   7.331   8.724
 2493POPC   C2B35444  28.613   7.276   8.278
 2493POPC   C3B35445  28.670   7.334   7.820
 2493POPC   C4B35446  28.629   7.283   7.365
 2494POPC   NC335447  43.422  43.314   9.590
 2494POPC   PO435448  42.755  42.988   9.527
 2494POPC   GL135449  42.982  42.998   9.193
 2494POPC   GL235450  43.065  42.679   9.066
 2494POPC   C1A35451  43.001  43.150   8.792
 2494POPC   D2A35452  43.206  43.032   8.466
 2494POPC   C3A35453  43.074  43.069   8.065
 2494POPC   C4A35454  43.000  43.105   7.657
 2494POPC   C1B35455  43.025  42.599   8.638
 2494POPC   C2B35456  43.039  42.577   8.212
 2494POPC   C3B35457  43.122  42.595   7.784
 2494POPC   C4B35458  43.188  42.731   7.347
 2495POPC   NC335459  36.955  33.749   9.625
 2495POPC   PO435460  36.484  33.521   9.240
 2495POPC   GL135461  36.924  33.616   9.118
 2495POPC   GL235462  36.993  33.984   9.112
 2495POPC   C1A35463  37.076  33.705   8.697
 2495POPC   D2A35464  36.859  33.933   8.398
 2495POPC   C3A35465  36.819  33.672   8.047
 2495POPC   C4A35466  36.874  33.803   7.609
 2495POPC   C1B35467  37.246  34.169   8.791
 2495POPC   C2B35468  37.360  34.044   8.388
 2495POPC   C3B35469  37.150  34.071   7.991
 2495POPC   C4B35470  36.945  34.359   7.754
 2496POPC   NC335471  19.895  39.782   9.470
 2496POPC   PO435472  19.547  40.395   9.356
 2496POPC   GL135473  19.838  40.117   9.090
 2496POPC   GL235474  19.801  39.770   8.966
 2496POPC   C1A35475  19.905  40.164   8.650
 2496POPC   D2A35476  20.075  40.185   8.254
 2496POPC   C3A35477  19.801  40.170   7.925
 2496POPC   C4A35478  19.910  40.187   7.512
 2496POPC   C1B35479  20.127  39.699   8.659
 2496POPC   C2B35480  20.017  39.678   8.233
 2496POPC   C3B35481  20.174  39.810   7.834
 2496POPC   C4B35482  20.122  39.725   7.377
 2497POPC   NC335483  15.014   6.103   9.525
 2497POPC   PO435484  14.901   5.433   9.430
 2497POPC   GL135485  15.275   5.700   9.289
 2497POPC   GL235486  15.053   5.802   9.115
 2497POPC   C1A35487  15.422   6.044   8.926
 2497POPC   D2A35488  15.240   6.135   8.518
 2497POPC   C3A35489  15.358   5.884   8.180
 2497POPC   C4A35490  15.225   5.891   7.780
 2497POPC   C1B35491  14.915   5.820   8.756
 2497POPC   C2B35492  14.718   5.635   8.420
 2497POPC   C3B35493  14.832   5.791   8.075
 2497POPC   C4B35494  14.713   5.906   7.700
 2498POPC   NC335495  23.368  18.554   9.493
 2498POPC   PO435496  24.045  18.658   9.500
 2498POPC   GL135497  23.774  18.534   9.168
 2498POPC   GL235498  23.803  18.171   9.185
 2498POPC   C1A35499  23.583  18.596   8.745
 2498POPC   D2A35500  23.709  18.383   8.356
 2498POPC   C3A35501  23.757  18.643   7.975
 2498POPC   C4A35502  23.628  18.553   7.541
 2498POPC   C1B35503  24.085  17.949   8.903
 2498POPC   C2B35504  24.098  17.989   8.481
 2498POPC   C3B35505  23.882  17.937   8.132
 2498POPC   C4B35506  23.871  18.068   7.740
 2499POPC   NC335507  34.176  30.799   9.644
 2499POPC   PO435508  34.649  30.357   9.332
 2499POPC   GL135509  34.628  30.640   9.087
 2499POPC   GL235510  34.298  30.824   9.150
 2499POPC   C1A35511  34.796  30.613   8.692
 2499POPC   D2A35512  34.531  30.530   8.359
 2499POPC   C3A35513  34.772  30.339   8.094
 2499POPC   C4A35514  34.942  30.340   7.700
 2499POPC   C1B35515  34.432  30.964   8.756
 2499POPC   C2B35516  34.676  31.064   8.429
 2499POPC   C3B35517  34.450  30.952   8.076
 2499POPC   C4B35518  34.530  30.656   7.743
 2500POPC   NC335519  30.977   3.227   9.396
 2500POPC   PO435520  30.470   3.754   9.412
 2500POPC   GL135521  30.667   3.879   9.052
 2500POPC   GL235522  30.981   3.708   9.057
 2500POPC   C1A35523  30.829   4.007   8.658
 2500POPC   D2A35524  31.081   3.762   8.400
 2500POPC   C3A35525  30.818   3.757   8.043
 2500POPC   C4A35526  30.801   4.025   7.703
 2500POPC   C1B35527  31.061   3.343   8.763
 2500POPC   C2B35528  31.268   3.279   8.378
 2500POPC   C3B35529  31.026   3.283   8.026
 2500POPC   C4B35530  31.049   3.138   7.616
 2501POPC   NC335531  36.887  32.020   9.494
 2501POPC   PO435532  37.000  32.690   9.446
 2501POPC   GL135533  36.975  32.370   9.113
 2501POPC   GL235534  37.246  32.138   9.116
 2501POPC   C1A35535  36.704  32.121   8.821
 2501POPC   D2A35536  36.726  31.926   8.397
 2501POPC   C3A35537  36.764  32.035   7.949
 2501POPC   C4A35538  36.684  32.359   7.639
 2501POPC   C1B35539  37.189  32.106   8.653
 2501POPC   C2B35540  37.215  32.126   8.202
 2501POPC   C3B35541  37.191  32.261   7.758
 2501POPC   C4B35542  37.035  31.985   7.449
 2502POPC   NC335543  35.928  30.702   9.418
 2502POPC   PO435544  36.362  31.153   9.469
 2502POPC   GL135545  36.260  30.895   9.112
 2502POPC   GL235546  36.338  30.513   9.170
 2502POPC   C1A35547  36.050  30.837   8.742
 2502POPC   D2A35548  36.219  31.054   8.404
 2502POPC   C3A35549  36.032  30.921   8.042
 2502POPC   C4A35550  35.805  30.866   7.700
 2502POPC   C1B35551  36.256  30.344   8.777
 2502POPC   C2B35552  36.283  30.520   8.374
 2502POPC   C3B35553  36.174  30.417   7.984
 2502POPC   C4B35554  36.236  30.619   7.615
 2503POPC   NC335555  18.182  27.216   9.434
 2503POPC   PO435556  18.538  27.768   9.405
 2503POPC   GL135557  18.170  27.630   9.106
 2503POPC   GL235558  17.889  27.365   9.037
 2503POPC   C1A35559  18.196  27.523   8.649
 2503POPC   D2A35560  18.578  27.615   8.410
 2503POPC   C3A35561  18.483  27.659   7.979
 2503POPC   C4A35562  18.241  27.509   7.649
 2503POPC   C1B35563  17.929  27.071   8.733
 2503POPC   C2B35564  17.921  26.963   8.304
 2503POPC   C3B35565  17.929  27.027   7.843
 2503POPC   C4B35566  18.005  27.116   7.401
 2504POPC   NC335567  16.999  39.256   9.553
 2504POPC   PO435568  16.414  38.991   9.484
 2504POPC   GL135569  16.657  39.233   9.161
 2504POPC   GL235570  16.905  39.000   9.098
 2504POPC   C1A35571  16.706  39.245   8.684
 2504POPC   D2A35572  16.556  39.042   8.275
 2504POPC   C3A35573  16.745  39.234   7.934
 2504POPC   C4A35574  16.779  39.582   7.712
 2504POPC   C1B35575  17.168  39.025   8.723
 2504POPC   C2B35576  17.104  39.002   8.262
 2504POPC   C3B35577  17.004  38.789   7.866
 2504POPC   C4B35578  17.017  38.889   7.427
 2505POPC   NC335579  34.193  26.920   9.699
 2505POPC   PO435580  33.628  26.843   9.731
 2505POPC   GL135581  33.831  26.955   9.274
 2505POPC   GL235582  34.167  27.125   9.205
 2505POPC   C1A35583  33.775  27.032   8.772
 2505POPC   D2A35584  34.048  27.199   8.396
 2505POPC   C3A35585  33.907  27.161   7.957
 2505POPC   C4A35586  33.677  26.839   7.702
 2505POPC   C1B35587  34.259  26.920   8.818
 2505POPC   C2B35588  34.080  26.694   8.421
 2505POPC   C3B35589  34.078  26.665   7.963
 2505POPC   C4B35590  34.193  26.821   7.550
 2506POPC   NC335591   9.968  26.871   9.585
 2506POPC   PO435592   9.296  26.733   9.553
 2506POPC   GL135593   9.587  26.726   9.245
 2506POPC   GL235594   9.665  27.083   9.213
 2506POPC   C1A35595   9.612  26.676   8.818
 2506POPC   D2A35596   9.440  26.808   8.452
 2506POPC   C3A35597   9.631  26.641   8.106
 2506POPC   C4A35598   9.860  26.544   7.732
 2506POPC   C1B35599   9.894  27.103   8.832
 2506POPC   C2B35600   9.872  27.221   8.411
 2506POPC   C3B35601   9.945  27.024   8.014
 2506POPC   C4B35602   9.935  27.066   7.580
 2507POPC   NC335603  14.399  12.160   9.484
 2507POPC   PO435604  14.662  11.582   9.668
 2507POPC   GL135605  14.774  11.763   9.248
 2507POPC   GL235606  14.868  12.124   9.260
 2507POPC   C1A35607  14.559  11.765   8.829
 2507POPC   D2A35608  14.318  12.060   8.531
 2507POPC   C3A35609  14.222  11.971   8.085
 2507POPC   C4A35610  14.455  11.967   7.686
 2507POPC   C1B35611  14.695  12.247   8.862
 2507POPC   C2B35612  14.603  12.498   8.501
 2507POPC   C3B35613  14.596  12.339   8.075
 2507POPC   C4B35614  14.791  12.346   7.644
 2508POPC   NC335615  10.503   8.771   9.480
 2508POPC   PO435616  10.611   9.376   9.116
 2508POPC   GL135617  10.613   8.999   9.049
 2508POPC   GL235618  10.277   8.964   9.081
 2508POPC   C1A35619  10.567   8.861   8.662
 2508POPC   D2A35620  10.364   9.076   8.363
 2508POPC   C3A35621  10.615   9.026   8.013
 2508POPC   C4A35622  10.781   8.801   7.702
 2508POPC   C1B35623  10.128   8.670   8.787
 2508POPC   C2B35624  10.236   8.567   8.372
 2508POPC   C3B35625  10.191   8.719   7.971
 2508POPC   C4B35626  10.324   8.658   7.544
 2509POPC   NC335627  19.007  37.835   9.450
 2509POPC   PO435628  19.129  37.206   9.557
 2509POPC   GL135629  19.045  37.404   9.193
 2509POPC   GL235630  19.395  37.437   9.121
 2509POPC   C1A35631  18.755  37.549   8.859
 2509POPC   D2A35632  18.870  37.861   8.556
 2509POPC   C3A35633  18.807  37.717   8.156
 2509POPC   C4A35634  18.876  37.782   7.772
 2509POPC   C1B35635  19.269  37.578   8.755
 2509POPC   C2B35636  19.261  37.548   8.344
 2509POPC   C3B35637  19.370  37.647   7.945
 2509POPC   C4B35638  19.468  37.380   7.624
 2510POPC   NC335639  34.875  23.431   9.538
 2510POPC   PO435640  35.459  23.553   9.830
 2510POPC   GL135641  35.258  23.550   9.248
 2510POPC   GL235642  35.234  23.878   9.081
 2510POPC   C1A35643  35.391  23.538   8.759
 2510POPC   D2A35644  35.514  23.814   8.403
 2510POPC   C3A35645  35.539  23.559   8.015
 2510POPC   C4A35646  35.394  23.559   7.580
 2510POPC   C1B35647  35.019  23.886   8.678
 2510POPC   C2B35648  35.022  23.819   8.249
 2510POPC   C3B35649  35.214  23.924   7.871
 2510POPC   C4B35650  35.079  24.038   7.468
 2511POPC   NC335651  17.875  25.138   9.417
 2511POPC   PO435652  18.407  24.899   9.745
 2511POPC   GL135653  18.364  25.205   9.297
 2511POPC   GL235654  18.202  25.069   8.979
 2511POPC   C1A35655  18.459  25.483   8.879
 2511POPC   D2A35656  18.247  25.449   8.464
 2511POPC   C3A35657  18.447  25.508   8.051
 2511POPC   C4A35658  18.386  25.536   7.608
 2511POPC   C1B35659  18.521  25.026   8.655
 2511POPC   C2B35660  18.681  25.034   8.245
 2511POPC   C3B35661  18.602  25.029   7.810
 2511POPC   C4B35662  18.161  25.052   7.744
 2512POPC   NC335663   1.535  12.028   9.245
 2512POPC   PO435664   0.838  11.955   9.460
 2512POPC   GL135665   1.009  11.993   9.082
 2512POPC   GL235666   1.046  11.661   9.062
 2512POPC   C1A35667   1.119  12.100   8.653
 2512POPC   D2A35668   1.031  12.376   8.304
 2512POPC   C3A35669   1.194  12.239   7.909
 2512POPC   C4A35670   1.346  12.163   7.488
 2512POPC   C1B35671   1.287  11.593   8.696
 2512POPC   C2B35672   1.330  11.773   8.272
 2512POPC   C3B35673   1.120  11.715   7.877
 2512POPC   C4B35674   1.001  11.496   7.491
 2513POPC   NC335675  18.310  20.486   9.636
 2513POPC   PO435676  18.289  20.118   9.141
 2513POPC   GL135677  18.210  20.564   9.134
 2513POPC   GL235678  18.539  20.736   9.253
 2513POPC   C1A35679  18.071  20.702   8.733
 2513POPC   D2A35680  17.916  20.875   8.348
 2513POPC   C3A35681  18.113  20.764   7.994
 2513POPC   C4A35682  18.100  20.488   7.702
 2513POPC   C1B35683  18.608  20.649   8.818
 2513POPC   C2B35684  18.487  20.682   8.387
 2513POPC   C3B35685  18.650  20.521   8.011
 2513POPC   C4B35686  18.643  20.712   7.637
 2514POPC   NC335687  34.344  33.607   9.488
 2514POPC   PO435688  34.729  33.967   9.799
 2514POPC   GL135689  34.694  33.911   9.280
 2514POPC   GL235690  34.397  33.775   9.036
 2514POPC   C1A35691  34.759  34.042   8.823
 2514POPC   D2A35692  34.723  34.292   8.425
 2514POPC   C3A35693  34.709  34.143   7.978
 2514POPC   C4A35694  34.474  33.932   7.645
 2514POPC   C1B35695  34.650  33.512   8.815
 2514POPC   C2B35696  34.545  33.710   8.478
 2514POPC   C3B35697  34.554  33.658   8.079
 2514POPC   C4B35698  34.748  33.467   7.770
 2515POPC   NC335699   5.361  10.251   9.272
 2515POPC   PO435700   5.895  10.263   9.763
 2515POPC   GL135701   5.818  10.446   9.290
 2515POPC   GL235702   5.532  10.719   9.187
 2515POPC   C1A35703   6.028  10.533   8.878
 2515POPC   D2A35704   6.271  10.574   8.451
 2515POPC   C3A35705   5.991  10.532   8.054
 2515POPC   C4A35706   5.540  10.435   7.934
 2515POPC   C1B35707   5.609  10.844   8.714
 2515POPC   C2B35708   5.476  10.949   8.267
 2515POPC   C3B35709   5.690  10.916   7.844
 2515POPC   C4B35710   5.656  10.753   7.380
 2516POPC   NC335711   4.353   8.972   9.686
 2516POPC   PO435712   4.971   8.829   9.689
 2516POPC   GL135713   4.714   9.066   9.302
 2516POPC   GL235714   4.405   8.870   9.170
 2516POPC   C1A35715   4.596   9.219   8.844
 2516POPC   D2A35716   4.565   8.986   8.437
 2516POPC   C3A35717   4.417   9.098   8.015
 2516POPC   C4A35718   4.632   8.815   7.719
 2516POPC   C1B35719   4.169   8.930   8.752
 2516POPC   C2B35720   4.087   8.747   8.356
 2516POPC   C3B35721   4.209   8.643   7.955
 2516POPC   C4B35722   3.950   8.765   7.664
 2517POPC   NC335723  41.847  33.709   9.556
 2517POPC   PO435724  41.303  34.028   9.576
 2517POPC   GL135725  41.534  33.861   9.179
 2517POPC   GL235726  41.764  33.562   9.089
 2517POPC   C1A35727  41.619  34.024   8.751
 2517POPC   D2A35728  41.790  34.075   8.323
 2517POPC   C3A35729  41.489  33.923   7.958
 2517POPC   C4A35730  41.708  33.761   7.568
 2517POPC   C1B35731  41.468  33.517   8.793
 2517POPC   C2B35732  41.487  33.656   8.402
 2517POPC   C3B35733  41.578  33.431   8.061
 2517POPC   C4B35734  41.327  33.412   7.736
 2518POPC   NC335735  11.740   9.906   9.412
 2518POPC   PO435736  12.396   9.593   9.406
 2518POPC   GL135737  12.137   9.728   9.135
 2518POPC   GL235738  11.868   9.507   9.098
 2518POPC   C1A35739  12.196   9.685   8.720
 2518POPC   D2A35740  12.371   9.396   8.428
 2518POPC   C3A35741  12.313   9.606   8.039
 2518POPC   C4A35742  12.214   9.550   7.629
 2518POPC   C1B35743  11.705   9.548   8.695
 2518POPC   C2B35744  11.877   9.619   8.308
 2518POPC   C3B35745  11.851   9.882   7.941
 2518POPC   C4B35746  11.636   9.912   7.542
 2519POPC   NC335747  23.141  30.497   9.644
 2519POPC   PO435748  22.467  30.459   9.585
 2519POPC   GL135749  22.733  30.582   9.209
 2519POPC   GL235750  23.045  30.810   9.224
 2519POPC   C1A35751  22.767  30.702   8.751
 2519POPC   D2A35752  22.679  30.513   8.327
 2519POPC   C3A35753  22.749  30.796   7.957
 2519POPC   C4A35754  22.926  30.884   7.549
 2519POPC   C1B35755  23.254  30.819   8.798
 2519POPC   C2B35756  23.135  30.895   8.320
 2519POPC   C3B35757  23.370  30.874   7.881
 2519POPC   C4B35758  23.369  31.072   7.435
 2520POPC   NC335759  43.322  11.508   9.819
 2520POPC   PO435760  43.897  11.351   9.471
 2520POPC   GL135761  43.901  11.099   9.129
 2520POPC   GL235762  43.652  10.860   9.154
 2520POPC   C1A35763  43.893  11.300   8.747
 2520POPC   D2A35764  44.017  11.649   8.474
 2520POPC   C3A35765  43.943  11.454   8.075
 2520POPC   C4A35766  43.711  11.529   7.716
 2520POPC   C1B35767  43.776  10.789   8.716
 2520POPC   C2B35768  43.766  11.018   8.340
 2520POPC   C3B35769  43.514  11.140   8.020
 2520POPC   C4B35770  43.682  11.033   7.686
 2521POPC   NC335771  20.169   4.229   9.526
 2521POPC   PO435772  19.671   4.608   9.473
 2521POPC   GL135773  19.824   4.375   9.144
 2521POPC   GL235774  20.116   4.566   9.130
 2521POPC   C1A35775  19.614   4.341   8.740
 2521POPC   D2A35776  19.451   4.060   8.428
 2521POPC   C3A35777  19.532   4.095   7.977
 2521POPC   C4A35778  19.733   4.249   7.601
 2521POPC   C1B35779  20.115   4.479   8.710
 2521POPC   C2B35780  20.308   4.665   8.350
 2521POPC   C3B35781  20.116   4.566   7.976
 2521POPC   C4B35782  20.072   4.121   7.932
 2522POPC   NC335783  42.873  15.625   9.437
 2522POPC   PO435784  42.906  16.237   9.355
 2522POPC   GL135785  42.918  15.959   9.039
 2522POPC   GL235786  43.234  15.832   9.118
 2522POPC   C1A35787  42.913  15.811   8.640
 2522POPC   D2A35788  43.075  15.487   8.408
 2522POPC   C3A35789  43.081  15.653   7.996
 2522POPC   C4A35790  43.030  15.948   7.661
 2522POPC   C1B35791  43.428  15.702   8.727
 2522POPC   C2B35792  43.422  15.872   8.309
 2522POPC   C3B35793  43.439  16.092   7.917
 2522POPC   C4B35794  43.547  15.874   7.513
 2523POPC   NC335795   1.969   6.262   9.693
 2523POPC   PO435796   2.316   5.768   9.540
 2523POPC   GL135797   2.359   5.923   9.149
 2523POPC   GL235798   2.020   5.974   9.131
 2523POPC   C1A35799   2.283   5.802   8.723
 2523POPC   D2A35800   2.067   5.875   8.324
 2523POPC   C3A35801   2.135   5.767   7.908
 2523POPC   C4A35802   2.466   5.629   7.684
 2523POPC   C1B35803   1.774   5.951   8.741
 2523POPC   C2B35804   1.641   6.175   8.363
 2523POPC   C3B35805   1.660   6.217   7.895
 2523POPC   C4B35806   1.810   5.934   7.555
 2524POPC   NC335807  18.066  36.799   9.690
 2524POPC   PO435808  18.152  36.090   9.541
 2524POPC   GL135809  18.177  36.256   9.118
 2524POPC   GL235810  18.441  36.537   9.058
 2524POPC   C1A35811  18.052  36.012   8.721
 2524POPC   D2A35812  18.108  35.694   8.392
 2524POPC   C3A35813  18.281  35.806   8.024
 2524POPC   C4A35814  18.163  36.091   7.715
 2524POPC   C1B35815  18.534  36.227   8.736
 2524POPC   C2B35816  18.365  36.213   8.328
 2524POPC   C3B35817  18.372  36.468   7.968
 2524POPC   C4B35818  18.393  36.519   7.495
 2525POPC   NC335819  26.301   8.973   9.625
 2525POPC   PO435820  25.677   8.721   9.487
 2525POPC   GL135821  25.862   8.929   9.114
 2525POPC   GL235822  26.079   9.199   9.130
 2525POPC   C1A35823  25.797   9.118   8.705
 2525POPC   D2A35824  25.810   9.393   8.365
 2525POPC   C3A35825  25.804   9.103   8.045
 2525POPC   C4A35826  25.906   8.969   7.625
 2525POPC   C1B35827  26.278   9.004   8.721
 2525POPC   C2B35828  26.269   8.971   8.283
 2525POPC   C3B35829  26.282   9.169   7.903
 2525POPC   C4B35830  26.343   9.255   7.500
 2526POPC   NC335831   7.249   7.311   9.768
 2526POPC   PO435832   7.736   7.720   9.821
 2526POPC   GL135833   7.521   7.566   9.357
 2526POPC   GL235834   7.228   7.313   9.248
 2526POPC   C1A35835   7.391   7.634   8.881
 2526POPC   D2A35836   7.520   7.390   8.502
 2526POPC   C3A35837   7.497   7.383   8.032
 2526POPC   C4A35838   7.213   7.501   7.676
 2526POPC   C1B35839   7.156   7.162   8.798
 2526POPC   C2B35840   7.195   7.038   8.323
 2526POPC   C3B35841   7.115   7.039   7.869
 2526POPC   C4B35842   7.090   7.049   7.392
 2527POPC   NC335843  41.281  12.748   9.525
 2527POPC   PO435844  41.779  13.074   9.222
 2527POPC   GL135845  41.583  12.757   9.090
 2527POPC   GL235846  41.824  12.511   9.035
 2527POPC   C1A35847  41.322  12.854   8.794
 2527POPC   D2A35848  41.406  13.071   8.477
 2527POPC   C3A35849  41.385  12.891   8.107
 2527POPC   C4A35850  41.304  13.020   7.740
 2527POPC   C1B35851  41.753  12.634   8.611
 2527POPC   C2B35852  41.731  12.533   8.200
 2527POPC   C3B35853  41.699  12.653   7.767
 2527POPC   C4B35854  41.918  12.470   7.415
 2528POPC   NC335855  15.116  24.819   9.812
 2528POPC   PO435856  15.186  25.437   9.549
 2528POPC   GL135857  15.170  25.281   9.148
 2528POPC   GL235858  14.905  25.149   8.957
 2528POPC   C1A35859  15.400  25.341   8.767
 2528POPC   D2A35860  15.197  25.221   8.404
 2528POPC   C3A35861  14.942  25.531   8.181
 2528POPC   C4A35862  15.141  25.668   7.820
 2528POPC   C1B35863  14.770  24.918   8.592
 2528POPC   C2B35864  14.825  24.990   8.154
 2528POPC   C3B35865  15.147  25.118   7.873
 2528POPC   C4B35866  15.572  24.951   7.776
 2529POPC   NC335867  44.518  31.502   9.504
 2529POPC   PO435868   0.027  31.788   9.318
 2529POPC   GL135869  44.716  31.815   9.026
 2529POPC   GL235870  44.357  31.730   9.058
 2529POPC   C1A35871  44.660  31.728   8.599
 2529POPC   D2A35872  44.410  31.763   8.288
 2529POPC   C3A35873  44.694  31.645   7.977
 2529POPC   C4A35874  44.826  31.643   7.533
 2529POPC   C1B35875  44.480  31.330   8.828
 2529POPC   C2B35876  44.557  31.253   8.357
 2529POPC   C3B35877  44.574  31.170   7.882
 2529POPC   C4B35878  44.373  31.288   7.485
 2530POPC   NC335879  17.707  17.441   9.321
 2530POPC   PO435880  17.041  17.317   9.553
 2530POPC   GL135881  17.202  17.389   9.144
 2530POPC   GL235882  17.399  17.136   9.010
 2530POPC   C1A35883  17.355  17.546   8.715
 2530POPC   D2A35884  17.389  17.326   8.303
 2530POPC   C3A35885  17.324  17.465   7.853
 2530POPC   C4A35886  17.707  17.652   7.738
 2530POPC   C1B35887  17.761  17.228   8.698
 2530POPC   C2B35888  17.911  17.338   8.274
 2530POPC   C3B35889  17.722  17.158   7.923
 2530POPC   C4B35890  17.758  17.197   7.463
 2531POPC   NC335891   1.860  11.427   9.531
 2531POPC   PO435892   2.189  10.859   9.527
 2531POPC   GL135893   2.031  11.098   9.208
 2531POPC   GL235894   1.698  10.986   9.310
 2531POPC   C1A35895   1.913  11.382   8.868
 2531POPC   D2A35896   1.830  11.261   8.470
 2531POPC   C3A35897   1.870  11.478   8.114
 2531POPC   C4A35898   1.849  11.358   7.708
 2531POPC   C1B35899   1.649  10.939   8.871
 2531POPC   C2B35900   1.722  10.750   8.466
 2531POPC   C3B35901   1.695  10.968   8.063
 2531POPC   C4B35902   1.762  10.825   7.649
 2532POPC   NC335903   2.218  37.240   9.629
 2532POPC   PO435904   2.310  37.920   9.448
 2532POPC   GL135905   2.056  37.762   9.145
 2532POPC   GL235906   2.013  37.447   9.197
 2532POPC   C1A35907   1.948  37.826   8.733
 2532POPC   D2A35908   2.218  37.945   8.358
 2532POPC   C3A35909   2.049  37.804   7.956
 2532POPC   C4A35910   2.293  37.541   7.694
 2532POPC   C1B35911   2.064  37.325   8.758
 2532POPC   C2B35912   1.888  37.492   8.335
 2532POPC   C3B35913   1.818  37.312   7.895
 2532POPC   C4B35914   1.503  37.249   7.527
 2533POPC   NC335915  44.401   6.943   9.550
 2533POPC   PO435916   0.051   6.794   9.736
 2533POPC   GL135917  44.984   6.660   9.321
 2533POPC   GL235918  44.660   6.629   9.227
 2533POPC   C1A35919   0.004   6.660   8.867
 2533POPC   D2A35920  44.897   6.433   8.506
 2533POPC   C3A35921  44.927   6.681   8.138
 2533POPC   C4A35922  44.801   6.605   7.694
 2533POPC   C1B35923  44.510   6.489   8.848
 2533POPC   C2B35924  44.439   6.655   8.432
 2533POPC   C3B35925  44.500   6.427   8.080
 2533POPC   C4B35926  44.298   6.540   7.728
 2534POPC   NC335927   5.091   4.786   9.439
 2534POPC   PO435928   4.755   5.414   9.297
 2534POPC   GL135929   4.988   5.126   9.084
 2534POPC   GL235930   5.341   5.105   9.119
 2534POPC   C1A35931   5.108   4.894   8.735
 2534POPC   D2A35932   5.317   5.001   8.400
 2534POPC   C3A35933   4.983   5.022   8.110
 2534POPC   C4A35934   5.031   4.844   7.720
 2534POPC   C1B35935   5.478   5.333   8.795
 2534POPC   C2B35936   5.423   5.496   8.380
 2534POPC   C3B35937   5.376   5.368   7.974
 2534POPC   C4B35938   5.443   5.108   7.611
 2535POPC   NC335939   4.577  40.122   9.538
 2535POPC   PO435940   3.986  39.704   9.316
 2535POPC   GL135941   4.290  40.013   9.124
 2535POPC   GL235942   4.594  40.253   9.067
 2535POPC   C1A35943   4.525  39.869   8.756
 2535POPC   D2A35944   4.533  39.621   8.376
 2535POPC   C3A35945   4.179  39.684   8.090
 2535POPC   C4A35946   4.200  39.889   7.717
 2535POPC   C1B35947   4.682  40.341   8.645
 2535POPC   C2B35948   4.826  40.051   8.344
 2535POPC   C3B35949   4.656  39.971   7.974
 2535POPC   C4B35950   4.489  40.309   7.718
 2536POPC   NC335951   1.672  34.331   9.421
 2536POPC   PO435952   1.142  34.713   9.652
 2536POPC   GL135953   1.048  34.785   9.181
 2536POPC   GL235954   1.372  34.793   9.158
 2536POPC   C1A35955   0.929  34.638   8.764
 2536POPC   D2A35956   1.117  34.376   8.414
 2536POPC   C3A35957   1.064  34.528   7.993
 2536POPC   C4A35958   0.986  34.285   7.632
 2536POPC   C1B35959   1.443  34.678   8.710
 2536POPC   C2B35960   1.500  34.859   8.314
 2536POPC   C3B35961   1.376  34.952   7.907
 2536POPC   C4B35962   1.552  34.796   7.555
 2537POPC   NC335963  29.385   8.736   9.820
 2537POPC   PO435964  29.925   8.953   9.428
 2537POPC   GL135965  29.909   8.974   9.022
 2537POPC   GL235966  30.294   8.992   9.058
 2537POPC   C1A35967  29.597   8.849   8.671
 2537POPC   D2A35968  29.397   8.675   8.276
 2537POPC   C3A35969  29.626   8.885   7.908
 2537POPC   C4A35970  29.703   9.317   7.717
 2537POPC   C1B35971  30.244   9.049   8.629
 2537POPC   C2B35972  30.020   8.955   8.261
 2537POPC   C3B35973  30.134   9.027   7.840
 2537POPC   C4B35974  29.961   8.995   7.430
 2538POPC   NC335975   8.566   4.444   9.599
 2538POPC   PO435976   7.981   4.499   9.243
 2538POPC   GL135977   8.249   4.320   8.978
 2538POPC   GL235978   8.491   4.218   9.139
 2538POPC   C1A35979   8.336   4.345   8.577
 2538POPC   D2A35980   7.985   4.452   8.347
 2538POPC   C3A35981   8.109   4.554   7.976
 2538POPC   C4A35982   8.300   4.408   7.626
 2538POPC   C1B35983   8.616   3.922   8.821
 2538POPC   C2B35984   8.622   3.929   8.381
 2538POPC   C3B35985   8.327   4.115   8.111
 2538POPC   C4B35986   8.028   4.024   7.807
 2539POPC   NC335987   8.582  30.386   9.449
 2539POPC   PO435988   8.261  30.942   9.441
 2539POPC   GL135989   8.187  30.725   9.060
 2539POPC   GL235990   7.916  30.878   8.993
 2539POPC   C1A35991   8.289  30.524   8.657
 2539POPC   D2A35992   8.472  30.297   8.291
 2539POPC   C3A35993   8.349  30.392   7.870
 2539POPC   C4A35994   8.491  30.745   7.667
 2539POPC   C1B35995   7.760  30.606   8.762
 2539POPC   C2B35996   7.859  30.539   8.385
 2539POPC   C3B35997   8.046  30.741   8.069
 2539POPC   C4B35998   7.982  30.702   7.651
 2540POPC   NC335999  23.338  22.624   9.362
 2540POPC   PO436000  23.231  23.208   9.603
 2540POPC   GL136001  23.507  23.091   9.218
 2540POPC   GL236002  23.882  23.133   9.277
 2540POPC   C1A36003  23.446  22.936   8.775
 2540POPC   D2A36004  23.352  22.740   8.354
 2540POPC   C3A36005  23.537  22.920   7.976
 2540POPC   C4A36006  23.875  22.902   7.679
 2540POPC   C1B36007  23.939  23.068   8.821
 2540POPC   C2B36008  23.810  23.078   8.392
 2540POPC   C3B36009  23.895  23.279   7.996
 2540POPC   C4B36010  24.084  23.343   7.553
 2541POPC   NC336011  23.253  28.901   9.487
 2541POPC   PO436012  23.984  28.928   9.485
 2541POPC   GL136013  23.765  29.211   9.246
 2541POPC   GL236014  23.965  29.441   9.101
 2541POPC   C1A36015  23.498  29.244   8.868
 2541POPC   D2A36016  23.406  29.071   8.451
 2541POPC   C3A36017  23.391  29.224   8.058
 2541POPC   C4A36018  23.519  29.045   7.671
 2541POPC   C1B36019  23.929  29.541   8.665
 2541POPC   C2B36020  23.844  29.624   8.202
 2541POPC   C3B36021  23.759  29.464   7.796
 2541POPC   C4B36022  23.713  29.439   7.334
 2542POPC   NC336023   5.204   5.418   9.474
 2542POPC   PO436024   5.078   6.054   9.650
 2542POPC   GL136025   5.222   6.002   9.224
 2542POPC   GL236026   5.168   5.664   9.033
 2542POPC   C1A36027   5.356   6.071   8.792
 2542POPC   D2A36028   5.090   5.880   8.467
 2542POPC   C3A36029   5.211   5.875   8.039
 2542POPC   C4A36030   4.956   6.009   7.696
 2542POPC   C1B36031   4.989   5.413   8.677
 2542POPC   C2B36032   4.739   5.440   8.338
 2542POPC   C3B36033   4.878   5.485   7.922
 2542POPC   C4B36034   5.115   5.557   7.589
 2543POPC   NC336035  26.915  35.649   9.418
 2543POPC   PO436036  26.438  35.107   9.533
 2543POPC   GL136037  26.640  35.294   9.171
 2543POPC   GL236038  26.433  35.608   9.138
 2543POPC   C1A36039  26.849  35.523   8.786
 2543POPC   D2A36040  26.724  35.659   8.348
 2543POPC   C3A36041  26.989  35.485   8.010
 2543POPC   C4A36042  27.153  35.171   7.744
 2543POPC   C1B36043  26.362  35.476   8.702
 2543POPC   C2B36044  26.446  35.227   8.294
 2543POPC   C3B36045  26.506  35.411   7.856
 2543POPC   C4B36046  26.342  35.363   7.336
 2544POPC   NC336047   6.797  26.049   9.488
 2544POPC   PO436048   6.226  25.756   9.492
 2544POPC   GL136049   6.446  25.958   9.116
 2544POPC   GL236050   6.803  26.149   9.003
 2544POPC   C1A36051   6.549  25.822   8.701
 2544POPC   D2A36052   6.557  26.048   8.316
 2544POPC   C3A36053   6.716  25.817   7.999
 2544POPC   C4A36054   6.563  25.746   7.584
 2544POPC   C1B36055   6.432  26.347   8.807
 2544POPC   C2B36056   6.310  26.479   8.400
 2544POPC   C3B36057   6.241  26.421   7.970
 2544POPC   C4B36058   6.489  26.204   7.762
 2545POPC   NC336059   4.100  39.251   9.418
 2545POPC   PO436060   4.542  39.662   9.603
 2545POPC   GL136061   4.455  39.533   9.148
 2545POPC   GL236062   4.403  39.178   9.035
 2545POPC   C1A36063   4.175  39.515   8.741
 2545POPC   D2A36064   4.110  39.251   8.409
 2545POPC   C3A36065   4.408  39.240   8.050
 2545POPC   C4A36066   4.558  39.524   7.750
 2545POPC   C1B36067   4.592  38.922   8.769
 2545POPC   C2B36068   4.425  38.841   8.362
 2545POPC   C3B36069   4.034  38.892   8.065
 2545POPC   C4B36070   4.298  38.859   7.714
 2546POPC   NC336071  42.567  16.568   9.305
 2546POPC   PO436072  41.886  16.812   9.394
 2546POPC   GL136073  42.086  16.536   9.138
 2546POPC   GL236074  41.991  16.225   9.240
 2546POPC   C1A36075  42.269  16.646   8.750
 2546POPC   D2A36076  42.240  16.795   8.349
 2546POPC   C3A36077  42.480  16.557   8.070
 2546POPC   C4A36078  42.583  16.700   7.695
 2546POPC   C1B36079  41.965  16.137   8.834
 2546POPC   C2B36080  42.150  16.264   8.452
 2546POPC   C3B36081  41.961  16.439   8.099
 2546POPC   C4B36082  42.117  16.478   7.700
 2547POPC   NC336083  24.296  26.488   9.564
 2547POPC   PO436084  24.357  27.136   9.413
 2547POPC   GL136085  24.515  26.930   9.046
 2547POPC   GL236086  24.523  26.570   9.133
 2547POPC   C1A36087  24.747  27.018   8.658
 2547POPC   D2A36088  24.826  27.036   8.200
 2547POPC   C3A36089  24.435  27.111   7.991
 2547POPC   C4A36090  24.247  27.053   7.595
 2547POPC   C1B36091  24.445  26.521   8.716
 2547POPC   C2B36092  24.453  26.325   8.319
 2547POPC   C3B36093  24.591  26.584   7.994
 2547POPC   C4B36094  24.570  26.665   7.585
 2548POPC   NC336095  16.194  39.360   9.651
 2548POPC   PO436096  15.906  38.745   9.589
 2548POPC   GL136097  15.952  39.093   9.246
 2548POPC   GL236098  15.923  39.501   9.241
 2548POPC   C1A36099  15.870  39.104   8.795
 2548POPC   D2A36100  15.734  38.962   8.385
 2548POPC   C3A36101  16.041  39.087   8.101
 2548POPC   C4A36102  15.970  39.007   7.707
 2548POPC   C1B36103  16.243  39.432   8.940
 2548POPC   C2B36104  16.248  39.394   8.503
 2548POPC   C3B36105  16.260  39.543   8.079
 2548POPC   C4B36106  16.296  39.396   7.680
 2549POPC   NC336107  27.453  38.009   9.550
 2549POPC   PO436108  27.861  37.426   9.715
 2549POPC   GL136109  27.614  37.558   9.315
 2549POPC   GL236110  27.666  37.879   9.107
 2549POPC   C1A36111  27.492  37.470   8.862
 2549POPC   D2A36112  27.488  37.705   8.476
 2549POPC   C3A36113  27.553  37.630   8.037
 2549POPC   C4A36114  27.897  37.740   7.763
 2549POPC   C1B36115  27.302  38.048   8.820
 2549POPC   C2B36116  27.125  38.040   8.344
 2549POPC   C3B36117  27.284  38.198   7.921
 2549POPC   C4B36118  27.451  38.128   7.488
 2550POPC   NC336119  10.847  44.650   9.910
 2550POPC   PO436120  10.438  44.752   9.347
 2550POPC   GL136121  10.418  44.550   9.011
 2550POPC   GL236122  10.754  44.532   8.985
 2550POPC   C1A36123  10.414  44.650   8.608
 2550POPC   D2A36124  10.350  44.433   8.278
 2550POPC   C3A36125  10.467  44.574   7.924
 2550POPC   C4A36126  10.572  44.564   7.550
 2550POPC   C1B36127  10.898  44.789   8.699
 2550POPC   C2B36128  10.789  44.785   8.262
 2550POPC   C3B36129  10.887  44.880   7.841
 2550POPC   C4B36130  11.229  44.877   7.584
 2551POPC   NC336131   9.795   1.015   9.463
 2551POPC   PO436132   9.694   1.605   9.455
 2551POPC   GL136133   9.651   1.369   9.118
 2551POPC   GL236134   9.619   1.662   8.947
 2551POPC   C1A36135   9.579   1.210   8.682
 2551POPC   D2A36136   9.678   1.349   8.273
 2551POPC   C3A36137   9.699   0.970   8.017
 2551POPC   C4A36138   9.999   0.901   7.695
 2551POPC   C1B36139  10.009   1.520   8.761
 2551POPC   C2B36140  10.126   1.640   8.344
 2551POPC   C3B36141  10.108   1.353   8.001
 2551POPC   C4B36142   9.765   1.360   7.707
 2552POPC   NC336143   9.248   8.079   9.718
 2552POPC   PO436144   8.972   8.702   9.514
 2552POPC   GL136145   9.061   8.289   9.296
 2552POPC   GL236146   9.341   8.339   9.162
 2552POPC   C1A36147   8.961   8.050   8.924
 2552POPC   D2A36148   8.686   8.070   8.578
 2552POPC   C3A36149   8.906   8.208   8.219
 2552POPC   C4A36150   8.714   8.225   7.823
 2552POPC   C1B36151   9.272   8.411   8.696
 2552POPC   C2B36152   9.301   8.563   8.252
 2552POPC   C3B36153   9.291   8.345   7.866
 2552POPC   C4B36154   9.175   7.986   7.631
 2553POPC   NC336155  13.459  24.160   9.465
 2553POPC   PO436156  13.993  23.710   9.564
 2553POPC   GL136157  13.757  23.812   9.195
 2553POPC   GL236158  13.954  24.112   9.134
 2553POPC   C1A36159  13.506  23.814   8.796
 2553POPC   D2A36160  13.621  23.967   8.363
 2553POPC   C3A36161  13.394  23.799   8.051
 2553POPC   C4A36162  13.488  23.522   7.736
 2553POPC   C1B36163  14.007  23.861   8.740
 2553POPC   C2B36164  14.112  23.752   8.309
 2553POPC   C3B36165  13.912  23.836   7.905
 2553POPC   C4B36166  14.154  23.959   7.556
 2554POPC   NC336167  29.273   6.408   9.621
 2554POPC   PO436168  29.382   7.000   9.430
 2554POPC   GL136169  29.307   6.673   9.166
 2554POPC   GL236170  28.962   6.534   9.201
 2554POPC   C1A36171  29.376   6.732   8.742
 2554POPC   D2A36172  29.308   6.556   8.340
 2554POPC   C3A36173  29.315   6.683   7.905
 2554POPC   C4A36174  29.247   6.521   7.479
 2554POPC   C1B36175  28.926   6.899   8.896
 2554POPC   C2B36176  28.998   6.977   8.452
 2554POPC   C3B36177  28.854   6.858   8.037
 2554POPC   C4B36178  28.964   6.965   7.630
 2555POPC   NC336179  39.214  41.676   9.495
 2555POPC   PO436180  39.238  41.047   9.719
 2555POPC   GL136181  39.248  41.211   9.241
 2555POPC   GL236182  39.492  41.505   9.107
 2555POPC   C1A36183  39.121  41.346   8.799
 2555POPC   D2A36184  39.260  41.413   8.367
 2555POPC   C3A36185  39.030  41.335   7.993
 2555POPC   C4A36186  38.906  41.554   7.625
 2555POPC   C1B36187  39.604  41.660   8.682
 2555POPC   C2B36188  39.457  41.873   8.287
 2555POPC   C3B36189  39.243  41.796   7.915
 2555POPC   C4B36190  39.342  41.685   7.442
 2556POPC   NC336191   5.027  31.206   9.478
 2556POPC   PO436192   5.350  31.777   9.489
 2556POPC   GL136193   5.146  31.596   9.149
 2556POPC   GL236194   4.821  31.685   9.184
 2556POPC   C1A36195   5.068  31.370   8.761
 2556POPC   D2A36196   4.879  31.385   8.321
 2556POPC   C3A36197   5.188  31.179   8.043
 2556POPC   C4A36198   5.108  31.050   7.649
 2556POPC   C1B36199   4.640  31.645   8.785
 2556POPC   C2B36200   4.498  31.808   8.389
 2556POPC   C3B36201   4.630  31.725   7.981
 2556POPC   C4B36202   5.009  31.584   7.795
 2557POPC   NC336203   1.059  35.144   9.528
 2557POPC   PO436204   1.421  35.670   9.578
 2557POPC   GL136205   1.348  35.424   9.208
 2557POPC   GL236206   0.996  35.474   9.121
 2557POPC   C1A36207   1.291  35.172   8.829
 2557POPC   D2A36208   1.345  35.338   8.417
 2557POPC   C3A36209   1.001  35.195   8.187
 2557POPC   C4A36210   0.934  35.210   7.783
 2557POPC   C1B36211   1.213  35.686   8.776
 2557POPC   C2B36212   1.087  35.815   8.367
 2557POPC   C3B36213   1.161  35.649   7.988
 2557POPC   C4B36214   1.478  35.641   7.682
 2558POPC   NC336215  25.836  20.973   9.365
 2558POPC   PO436216  26.048  20.456   9.728
 2558POPC   GL136217  25.962  20.480   9.252
 2558POPC   GL236218  25.662  20.621   9.057
 2558POPC   C1A36219  25.951  20.281   8.827
 2558POPC   D2A36220  25.726  20.400   8.464
 2558POPC   C3A36221  25.820  20.181   8.078
 2558POPC   C4A36222  26.021  20.320   7.715
 2558POPC   C1B36223  26.013  20.794   8.787
 2558POPC   C2B36224  26.215  20.596   8.482
 2558POPC   C3B36225  26.103  20.664   8.076
 2558POPC   C4B36226  26.249  20.961   7.785
 2559POPC   NC336227   3.635  12.755   9.448
 2559POPC   PO436228   3.149  13.106   9.726
 2559POPC   GL136229   3.189  12.886   9.212
 2559POPC   GL236230   3.277  12.579   9.101
 2559POPC   C1A36231   3.473  12.950   8.751
 2559POPC   D2A36232   3.774  12.777   8.369
 2559POPC   C3A36233   3.838  12.951   7.957
 2559POPC   C4A36234   3.715  12.639   7.688
 2559POPC   C1B36235   3.096  12.593   8.740
 2559POPC   C2B36236   3.308  12.600   8.406
 2559POPC   C3B36237   3.350  12.816   8.036
 2559POPC   C4B36238   3.203  12.620   7.681
 2560POPC   NC336239  16.867  26.492   9.787
 2560POPC   PO436240  16.394  26.706   9.295
 2560POPC   GL136241  16.665  26.801   8.966
 2560POPC   GL236242  16.995  26.756   9.087
 2560POPC   C1A36243  16.924  27.147   8.782
 2560POPC   D2A36244  17.100  27.208   8.388
 2560POPC   C3A36245  16.919  26.907   8.114
 2560POPC   C4A36246  16.528  26.893   7.860
 2560POPC   C1B36247  17.058  26.591   8.711
 2560POPC   C2B36248  17.078  26.436   8.328
 2560POPC   C3B36249  17.224  26.483   7.960
 2560POPC   C4B36250  16.935  26.635   7.684
 2561POPC   NC336251  35.519  12.097   9.592
 2561POPC   PO436252  35.554  11.454   9.720
 2561POPC   GL136253  35.329  11.754   9.292
 2561POPC   GL236254  35.591  12.050   9.106
 2561POPC   C1A36255  35.317  11.786   8.801
 2561POPC   D2A36256  35.601  11.950   8.488
 2561POPC   C3A36257  35.547  12.085   8.058
 2561POPC   C4A36258  35.624  12.262   7.650
 2561POPC   C1B36259  35.453  12.358   8.756
 2561POPC   C2B36260  35.463  12.559   8.317
 2561POPC   C3B36261  35.230  12.483   7.907
 2561POPC   C4B36262  35.146  12.271   7.470
 2562POPC   NC336263  43.802   7.493   9.671
 2562POPC   PO436264  43.962   6.851   9.693
 2562POPC   GL136265  43.997   7.126   9.295
 2562POPC   GL236266  44.091   7.475   9.238
 2562POPC   C1A36267  43.832   7.247   8.875
 2562POPC   D2A36268  43.895   7.515   8.502
 2562POPC   C3A36269  43.912   7.254   8.113
 2562POPC   C4A36270  43.682   7.216   7.717
 2562POPC   C1B36271  44.324   7.412   8.799
 2562POPC   C2B36272  44.362   7.485   8.308
 2562POPC   C3B36273  44.121   7.695   7.949
 2562POPC   C4B36274  44.032   7.569   7.520
 2563POPC   NC336275  29.733  10.220   9.806
 2563POPC   PO436276  29.061  10.192   9.689
 2563POPC   GL136277  29.070  10.177   9.230
 2563POPC   GL236278  29.052  10.549   9.125
 2563POPC   C1A36279  28.975  10.199   8.776
 2563POPC   D2A36280  29.155  10.519   8.544
 2563POPC   C3A36281  29.165  10.422   8.123
 2563POPC   C4A36282  28.842  10.318   7.853
 2563POPC   C1B36283  29.008  10.924   8.832
 2563POPC   C2B36284  28.852  10.913   8.391
 2563POPC   C3B36285  28.929  10.835   7.946
 2563POPC   C4B36286  28.766  10.743   7.536
 2564POPC   NC336287  30.546  40.573   9.443
 2564POPC   PO436288  30.682  41.238   9.424
 2564POPC   GL136289  30.562  41.003   9.099
 2564POPC   GL236290  30.844  40.804   9.087
 2564POPC   C1A36291  30.564  41.124   8.688
 2564POPC   D2A36292  30.407  40.887   8.359
 2564POPC   C3A36293  30.546  40.969   7.945
 2564POPC   C4A36294  30.958  41.091   7.840
 2564POPC   C1B36295  30.755  40.653   8.671
 2564POPC   C2B36296  30.894  40.785   8.270
 2564POPC   C3B36297  30.949  40.565   7.895
 2564POPC   C4B36298  30.911  40.337   7.503
 2565POPC   NC336299   6.930   4.560   9.469
 2565POPC   PO436300   6.507   3.950   9.589
 2565POPC   GL136301   6.701   4.171   9.235
 2565POPC   GL236302   6.552   4.464   9.097
 2565POPC   C1A36303   6.819   4.113   8.799
 2565POPC   D2A36304   6.948   4.289   8.406
 2565POPC   C3A36305   6.747   4.192   8.037
 2565POPC   C4A36306   6.802   4.307   7.640
 2565POPC   C1B36307   6.800   4.658   8.819
 2565POPC   C2B36308   6.869   4.811   8.430
 2565POPC   C3B36309   6.638   4.689   8.100
 2565POPC   C4B36310   6.626   4.814   7.678
 2566POPC   NC336311  16.075  23.636   9.576
 2566POPC   PO436312  15.574  23.809   9.312
 2566POPC   GL136313  15.910  23.734   9.090
 2566POPC   GL236314  16.132  23.992   9.200
 2566POPC   C1A36315  15.950  23.596   8.693
 2566POPC   D2A36316  15.843  23.368   8.364
 2566POPC   C3A36317  15.943  23.603   8.019
 2566POPC   C4A36318  16.250  23.516   7.672
 2566POPC   C1B36319  16.078  24.087   8.765
 2566POPC   C2B36320  16.224  23.932   8.387
 2566POPC   C3B36321  16.145  24.074   7.984
 2566POPC   C4B36322  15.959  23.928   7.627
 2567POPC   NC336323  40.304  30.388   9.404
 2567POPC   PO436324  39.837  30.860   9.556
 2567POPC   GL136325  39.851  30.812   9.112
 2567POPC   GL236326  39.980  30.488   9.012
 2567POPC   C1A36327  39.852  30.808   8.645
 2567POPC   D2A36328  39.698  30.501   8.347
 2567POPC   C3A36329  39.836  30.590   7.931
 2567POPC   C4A36330  39.985  30.967   7.787
 2567POPC   C1B36331  40.242  30.492   8.625
 2567POPC   C2B36332  40.260  30.701   8.234
 2567POPC   C3B36333  40.404  30.413   7.925
 2567POPC   C4B36334  40.128  30.239   7.648
 2568POPC   NC336335  43.187  16.574   9.451
 2568POPC   PO436336  42.847  16.901   9.135
 2568POPC   GL136337  42.883  16.502   8.894
 2568POPC   GL236338  43.221  16.380   8.972
 2568POPC   C1A36339  42.664  16.356   8.504
 2568POPC   D2A36340  42.810  16.134   8.118
 2568POPC   C3A36341  43.008  16.425   7.826
 2568POPC   C4A36342  43.061  16.822   7.612
 2568POPC   C1B36343  43.357  16.686   8.656
 2568POPC   C2B36344  43.509  16.597   8.238
 2568POPC   C3B36345  43.491  16.617   7.798
 2568POPC   C4B36346  43.525  16.848   7.398
 2569POPC   NC336347  14.246  35.986   9.322
 2569POPC   PO436348  14.859  36.220   9.467
 2569POPC   GL136349  14.585  36.327   9.119
 2569POPC   GL236350  14.272  36.500   9.250
 2569POPC   C1A36351  14.492  36.136   8.702
 2569POPC   D2A36352  14.655  36.288   8.351
 2569POPC   C3A36353  14.605  36.048   8.050
 2569POPC   C4A36354  14.340  36.003   7.760
 2569POPC   C1B36355  14.142  36.461   8.821
 2569POPC   C2B36356  14.275  36.603   8.423
 2569POPC   C3B36357  14.360  36.512   7.975
 2569POPC   C4B36358  14.223  36.626   7.583
 2570POPC   NC336359  24.830  27.088   9.419
 2570POPC   PO436360  25.396  26.922   9.550
 2570POPC   GL136361  25.444  26.898   9.152
 2570POPC   GL236362  25.327  26.563   9.132
 2570POPC   C1A36363  25.255  26.981   8.786
 2570POPC   D2A36364  25.388  26.795   8.443
 2570POPC   C3A36365  25.370  27.012   8.102
 2570POPC   C4A36366  25.492  27.017   7.678
 2570POPC   C1B36367  24.947  26.590   8.875
 2570POPC   C2B36368  24.916  26.591   8.424
 2570POPC   C3B36369  25.209  26.532   8.051
 2570POPC   C4B36370  25.026  26.810   7.773
 2571POPC   NC336371   6.363  43.893   9.583
 2571POPC   PO436372   5.751  43.926   9.893
 2571POPC   GL136373   5.856  43.848   9.410
 2571POPC   GL236374   6.098  44.077   9.185
 2571POPC   C1A36375   5.850  43.719   8.936
 2571POPC   D2A36376   6.072  43.692   8.529
 2571POPC   C3A36377   5.861  43.739   8.125
 2571POPC   C4A36378   5.740  43.630   7.686
 2571POPC   C1B36379   6.004  44.177   8.722
 2571POPC   C2B36380   6.172  44.131   8.274
 2571POPC   C3B36381   6.080  44.076   7.810
 2571POPC   C4B36382   6.165  44.375   7.473
 2572POPC   NC336383   8.094  38.764   9.361
 2572POPC   PO436384   7.958  39.378   9.581
 2572POPC   GL136385   8.145  39.356   9.174
 2572POPC   GL236386   8.515  39.356   9.201
 2572POPC   C1A36387   8.200  39.121   8.777
 2572POPC   D2A36388   8.006  38.867   8.444
 2572POPC   C3A36389   8.180  38.965   8.062
 2572POPC   C4A36390   7.992  39.231   7.759
 2572POPC   C1B36391   8.496  39.552   8.795
 2572POPC   C2B36392   8.227  39.502   8.410
 2572POPC   C3B36393   8.385  39.457   7.982
 2572POPC   C4B36394   8.536  39.104   7.718
 2573POPC   NC336395  35.857  44.353   9.433
 2573POPC   PO436396  36.441  44.551   9.490
 2573POPC   GL136397  36.215  44.806   9.207
 2573POPC   GL236398  36.314  44.576   8.958
 2573POPC   C1A36399  36.064  44.992   8.823
 2573POPC   D2A36400  36.102  44.715   8.472
 2573POPC   C3A36401  35.858  44.841   8.098
 2573POPC   C4A36402  36.124  44.918   7.766
 2573POPC   C1B36403  35.996  44.297   8.768
 2573POPC   C2B36404  36.050  44.203   8.338
 2573POPC   C3B36405  36.215  44.483   8.012
 2573POPC   C4B36406  36.291  44.482   7.538
 2574POPC   NC336407  19.602  23.512   9.518
 2574POPC   PO436408  20.073  23.945   9.229
 2574POPC   GL136409  19.857  23.606   9.085
 2574POPC   GL236410  19.576  23.832   9.147
 2574POPC   C1A36411  19.808  23.593   8.664
 2574POPC   D2A36412  19.815  23.976   8.425
 2574POPC   C3A36413  19.982  23.863   8.012
 2574POPC   C4A36414  19.988  23.443   7.807
 2574POPC   C1B36415  19.385  23.860   8.812
 2574POPC   C2B36416  19.361  23.730   8.419
 2574POPC   C3B36417  19.463  23.910   8.033
 2574POPC   C4B36418  19.599  24.006   7.627
 2575POPC   NC336419  36.356  43.577   9.453
 2575POPC   PO436420  35.711  43.878   9.373
 2575POPC   GL136421  36.041  43.901   9.142
 2575POPC   GL236422  36.292  44.134   9.228
 2575POPC   C1A36423  36.022  43.782   8.731
 2575POPC   D2A36424  36.017  43.552   8.380
 2575POPC   C3A36425  35.916  43.778   8.002
 2575POPC   C4A36426  36.060  44.090   7.764
 2575POPC   C1B36427  36.449  44.059   8.860
 2575POPC   C2B36428  36.447  43.886   8.473
 2575POPC   C3B36429  36.444  44.007   8.084
 2575POPC   C4B36430  36.421  43.735   7.772
 2576POPC   NC336431  25.679  38.532   9.908
 2576POPC   PO436432  26.174  38.383   9.506
 2576POPC   GL136433  26.014  38.335   9.138
 2576POPC   GL236434  26.227  38.027   9.122
 2576POPC   C1A36435  25.855  38.548   8.761
 2576POPC   D2A36436  25.625  38.485   8.361
 2576POPC   C3A36437  25.848  38.521   7.957
 2576POPC   C4A36438  25.859  38.202   7.631
 2576POPC   C1B36439  26.033  38.050   8.722
 2576POPC   C2B36440  26.067  38.232   8.350
 2576POPC   C3B36441  26.219  38.094   7.983
 2576POPC   C4B36442  26.390  38.148   7.603
 2577POPC   NC336443  15.992   0.461   9.777
 2577POPC   PO436444  15.710   0.311   9.281
 2577POPC   GL136445  15.685   0.489   8.911
 2577POPC   GL236446  15.980   0.675   9.011
 2577POPC   C1A36447  15.645   0.324   8.501
 2577POPC   D2A36448  15.991   0.272   8.225
 2577POPC   C3A36449  15.832   0.549   7.854
 2577POPC   C4A36450  15.999   0.807   7.477
 2577POPC   C1B36451  16.142   0.563   8.617
 2577POPC   C2B36452  16.171   0.753   8.178
 2577POPC   C3B36453  16.328   0.543   7.795
 2577POPC   C4B36454  16.487   0.616   7.381
 2578POPC   NC336455  39.215  43.227   9.559
 2578POPC   PO436456  39.422  42.732   9.155
 2578POPC   GL136457  39.382  43.162   9.054
 2578POPC   GL236458  39.026  43.269   9.089
 2578POPC   C1A36459  39.258  43.160   8.608
 2578POPC   D2A36460  39.200  42.837   8.267
 2578POPC   C3A36461  39.153  43.090   7.929
 2578POPC   C4A36462  39.460  43.433   7.994
 2578POPC   C1B36463  38.746  43.250   8.728
 2578POPC   C2B36464  38.785  43.267   8.282
 2578POPC   C3B36465  38.951  43.557   7.969
 2578POPC   C4B36466  39.097  43.447   7.540
 2579POPC   NC336467  27.787  44.985   9.519
 2579POPC   PO436468  27.396  44.499   9.437
 2579POPC   GL136469  27.777  44.598   9.163
 2579POPC   GL236470  27.619  44.900   9.043
 2579POPC   C1A36471  27.960  44.690   8.726
 2579POPC   D2A36472  27.890  44.899   8.298
 2579POPC   C3A36473  27.696  44.770   7.894
 2579POPC   C4A36474  27.462  44.430   7.657
 2579POPC   C1B36475  27.484  44.947   8.608
 2579POPC   C2B36476  27.306  44.743   8.232
 2579POPC   C3B36477  27.202  44.859   7.817
 2579POPC   C4B36478  27.380   0.206   7.590
 2580POPC   NC336479  37.902  16.073   9.519
 2580POPC   PO436480  38.514  15.792   9.469
 2580POPC   GL136481  38.358  15.667   9.092
 2580POPC   GL236482  38.656  15.530   9.008
 2580POPC   C1A36483  38.231  15.846   8.699
 2580POPC   D2A36484  38.296  16.171   8.441
 2580POPC   C3A36485  38.597  16.201   8.131
 2580POPC   C4A36486  38.492  16.301   7.730
 2580POPC   C1B36487  38.543  15.464   8.604
 2580POPC   C2B36488  38.489  15.714   8.260
 2580POPC   C3B36489  38.587  15.734   7.850
 2580POPC   C4B36490  38.582  15.650   7.400
 2581POPC   NC336491  23.795  35.002   9.346
 2581POPC   PO436492  23.887  35.652   9.545
 2581POPC   GL136493  23.635  35.490   9.170
 2581POPC   GL236494  23.404  35.185   9.107
 2581POPC   C1A36495  23.447  35.632   8.768
 2581POPC   D2A36496  23.680  35.674   8.381
 2581POPC   C3A36497  23.703  35.554   7.939
 2581POPC   C4A36498  23.939  35.680   7.573
 2581POPC   C1B36499  23.611  35.167   8.682
 2581POPC   C2B36500  23.397  35.253   8.272
 2581POPC   C3B36501  23.419  35.153   7.816
 2581POPC   C4B36502  23.801  35.165   7.524
 2582POPC   NC336503  35.896  37.180   9.578
 2582POPC   PO436504  36.131  37.769   9.646
 2582POPC   GL136505  36.106  37.515   9.258
 2582POPC   GL236506  36.394  37.406   9.115
 2582POPC   C1A36507  36.017  37.447   8.804
 2582POPC   D2A36508  36.236  37.483   8.415
 2582POPC   C3A36509  35.951  37.586   8.087
 2582POPC   C4A36510  35.970  37.796   7.703
 2582POPC   C1B36511  36.543  37.718   8.807
 2582POPC   C2B36512  36.512  37.935   8.400
 2582POPC   C3B36513  36.449  37.761   8.002
 2582POPC   C4B36514  36.501  37.746   7.556
 2583POPC   NC336515  19.023  42.790   9.567
 2583POPC   PO436516  19.304  43.403   9.519
 2583POPC   GL136517  19.220  43.101   9.201
 2583POPC   GL236518  18.903  42.928   9.106
 2583POPC   C1A36519  19.310  42.997   8.792
 2583POPC   D2A36520  19.436  43.179   8.404
 2583POPC   C3A36521  19.233  42.995   8.071
 2583POPC   C4A36522  19.162  43.154   7.671
 2583POPC   C1B36523  18.766  43.197   8.801
 2583POPC   C2B36524  18.926  43.263   8.397
 2583POPC   C3B36525  18.769  43.335   7.983
 2583POPC   C4B36526  18.838  43.534   7.572
 2584POPC   NC336527   2.325  15.213   9.469
 2584POPC   PO436528   2.937  15.199   9.575
 2584POPC   GL136529   2.760  15.212   9.135
 2584POPC   GL236530   2.415  15.235   8.976
 2584POPC   C1A36531   2.754  14.962   8.749
 2584POPC   D2A36532   2.891  15.015   8.357
 2584POPC   C3A36533   2.840  15.194   7.979
 2584POPC   C4A36534   3.103  15.097   7.695
 2584POPC   C1B36535   2.272  14.865   8.719
 2584POPC   C2B36536   2.448  14.723   8.336
 2584POPC   C3B36537   2.387  14.941   7.962
 2584POPC   C4B36538   2.548  15.065   7.561
 2585POPC   NC336539  11.843  44.237   9.624
 2585POPC   PO436540  12.275  43.792   9.514
 2585POPC   GL136541  12.122  43.894   9.145
 2585POPC   GL236542  11.837  44.101   9.096
 2585POPC   C1A36543  11.979  43.717   8.766
 2585POPC   D2A36544  11.848  43.901   8.395
 2585POPC   C3A36545  11.935  43.599   8.099
 2585POPC   C4A36546  11.900  43.708   7.712
 2585POPC   C1B36547  12.164  44.208   8.727
 2585POPC   C2B36548  12.214  44.232   8.246
 2585POPC   C3B36549  11.912  44.185   7.864
 2585POPC   C4B36550  11.694  44.070   7.415
 2586POPC   NC336551  30.470  44.096   9.435
 2586POPC   PO436552  31.020  43.795   9.300
 2586POPC   GL136553  30.680  43.833   9.004
 2586POPC   GL236554  30.315  43.913   8.997
 2586POPC   C1A36555  30.562  43.748   8.584
 2586POPC   D2A36556  30.518  43.780   8.170
 2586POPC   C3A36557  30.865  44.053   8.009
 2586POPC   C4A36558  31.004  44.078   7.580
 2586POPC   C1B36559  30.438  44.249   8.696
 2586POPC   C2B36560  30.430  44.331   8.240
 2586POPC   C3B36561  30.380  44.113   7.834
 2586POPC   C4B36562  30.244  43.862   7.465
 2587POPC   NC336563  35.073   4.665   9.465
 2587POPC   PO436564  35.518   4.273   9.555
 2587POPC   GL136565  35.331   4.116   9.165
 2587POPC   GL236566  35.009   4.180   9.249
 2587POPC   C1A36567  35.435   4.197   8.711
 2587POPC   D2A36568  35.461   4.452   8.306
 2587POPC   C3A36569  35.570   4.361   7.833
 2587POPC   C4A36570  35.633   4.420   7.360
 2587POPC   C1B36571  34.967   4.386   8.845
 2587POPC   C2B36572  34.911   4.481   8.394
 2587POPC   C3B36573  35.078   4.456   7.980
 2587POPC   C4B36574  35.231   4.655   7.566
 2588POPC   NC336575  33.137   5.498   9.591
 2588POPC   PO436576  32.859   6.037   9.933
 2588POPC   GL136577  32.789   5.927   9.445
 2588POPC   GL236578  33.111   5.977   9.290
 2588POPC   C1A36579  32.727   6.094   8.989
 2588POPC   D2A36580  32.888   6.138   8.542
 2588POPC   C3A36581  32.849   5.921   8.123
 2588POPC   C4A36582  32.867   5.905   7.665
 2588POPC   C1B36583  33.262   5.944   8.853
 2588POPC   C2B36584  33.322   5.887   8.384
 2588POPC   C3B36585  33.363   5.860   7.905
 2588POPC   C4B36586  33.341   5.998   7.443
 2589POPC   NC336587  42.325  27.175   9.168
 2589POPC   PO436588  42.353  27.666   9.619
 2589POPC   GL136589  42.201  27.705   9.183
 2589POPC   GL236590  41.982  27.509   9.070
 2589POPC   C1A36591  42.143  27.788   8.706
 2589POPC   D2A36592  42.033  27.702   8.297
 2589POPC   C3A36593  42.340  27.600   7.996
 2589POPC   C4A36594  42.399  27.648   7.566
 2589POPC   C1B36595  41.859  27.363   8.673
 2589POPC   C2B36596  41.720  27.293   8.275
 2589POPC   C3B36597  41.915  27.308   7.875
 2589POPC   C4B36598  41.953  27.479   7.495
 2590POPC   NC336599   7.729   8.179   9.739
 2590POPC   PO436600   7.352   8.460   9.269
 2590POPC   GL136601   7.405   8.112   9.050
 2590POPC   GL236602   7.718   8.025   9.247
 2590POPC   C1A36603   7.235   8.068   8.605
 2590POPC   D2A36604   7.136   8.325   8.217
 2590POPC   C3A36605   7.396   8.313   7.831
 2590POPC   C4A36606   7.116   8.014   7.647
 2590POPC   C1B36607   7.854   8.040   8.830
 2590POPC   C2B36608   7.704   7.872   8.472
 2590POPC   C3B36609   7.446   7.889   8.133
 2590POPC   C4B36610   7.611   7.827   7.745
 2591POPC   NC336611  36.253  40.431   9.618
 2591POPC   PO436612  36.037  41.106   9.658
 2591POPC   GL136613  36.081  40.858   9.278
 2591POPC   GL236614  35.757  40.758   9.168
 2591POPC   C1A36615  36.242  40.910   8.829
 2591POPC   D2A36616  36.108  41.049   8.424
 2591POPC   C3A36617  36.321  40.859   8.096
 2591POPC   C4A36618  36.271  41.074   7.744
 2591POPC   C1B36619  35.995  40.473   8.924
 2591POPC   C2B36620  36.206  40.468   8.523
 2591POPC   C3B36621  36.000  40.456   8.131
 2591POPC   C4B36622  36.033  40.623   7.720
 2592POPC   NC336623  39.552  29.730   9.358
 2592POPC   PO436624  39.110  30.175   9.576
 2592POPC   GL136625  39.135  29.970   9.186
 2592POPC   GL236626  38.817  29.863   9.111
 2592POPC   C1A36627  39.376  30.071   8.793
 2592POPC   D2A36628  39.446  30.039   8.340
 2592POPC   C3A36629  39.380  29.715   8.003
 2592POPC   C4A36630  39.287  29.918   7.592
 2592POPC   C1B36631  39.007  29.699   8.764
 2592POPC   C2B36632  38.932  29.875   8.400
 2592POPC   C3B36633  38.975  30.047   8.005
 2592POPC   C4B36634  38.794  30.073   7.627
 2593POPC   NC336635  35.031   7.850   9.387
 2593POPC   PO436636  35.248   8.431   9.656
 2593POPC   GL136637  35.381   8.226   9.208
 2593POPC   GL236638  35.458   7.875   9.096
 2593POPC   C1A36639  35.241   8.171   8.728
 2593POPC   D2A36640  35.295   7.973   8.318
 2593POPC   C3A36641  35.113   8.085   7.967
 2593POPC   C4A36642  35.112   8.408   7.719
 2593POPC   C1B36643  35.629   7.782   8.664
 2593POPC   C2B36644  35.744   7.779   8.199
 2593POPC   C3B36645  35.617   8.007   7.800
 2593POPC   C4B36646  35.690   7.872   7.378
 2594POPC   NC336647  35.653   8.615   9.556
 2594POPC   PO436648  35.341   9.145   9.426
 2594POPC   GL136649  35.346   8.986   9.062
 2594POPC   GL236650  35.199   8.667   9.040
 2594POPC   C1A36651  35.403   9.180   8.700
 2594POPC   D2A36652  35.274   9.105   8.308
 2594POPC   C3A36653  35.531   9.002   7.970
 2594POPC   C4A36654  35.283   9.300   7.764
 2594POPC   C1B36655  35.388   8.663   8.635
 2594POPC   C2B36656  35.304   8.602   8.201
 2594POPC   C3B36657  35.038   8.866   7.899
 2594POPC   C4B36658  35.272   8.854   7.505
 2595POPC   NC336659  27.052  30.100   9.477
 2595POPC   PO436660  26.469  29.675   9.479
 2595POPC   GL136661  26.516  29.900   9.076
 2595POPC   GL236662  26.815  30.131   9.005
 2595POPC   C1A36663  26.486  29.978   8.647
 2595POPC   D2A36664  26.843  29.871   8.458
 2595POPC   C3A36665  27.001  30.052   8.123
 2595POPC   C4A36666  26.858  30.014   7.741
 2595POPC   C1B36667  27.204  30.058   8.755
 2595POPC   C2B36668  27.447  30.146   8.356
 2595POPC   C3B36669  27.493  30.076   7.897
 2595POPC   C4B36670  27.300  30.088   7.482
 2596POPC   NC336671  34.593  10.716   9.335
 2596POPC   PO436672  34.819   9.998   9.417
 2596POPC   GL136673  34.808  10.298   9.088
 2596POPC   GL236674  34.435  10.354   8.994
 2596POPC   C1A36675  34.835  10.494   8.696
 2596POPC   D2A36676  34.531  10.443   8.378
 2596POPC   C3A36677  34.757  10.380   8.015
 2596POPC   C4A36678  34.788  10.734   7.758
 2596POPC   C1B36679  34.186  10.155   8.639
 2596POPC   C2B36680  34.151  10.072   8.196
 2596POPC   C3B36681  34.266  10.387   7.918
 2596POPC   C4B36682  34.348  10.514   7.519
 2597POPC   NC336683  38.738  12.627   9.541
 2597POPC   PO436684  38.364  13.211   9.557
 2597POPC   GL136685  38.356  12.937   9.151
 2597POPC   GL236686  38.370  12.569   9.107
 2597POPC   C1A36687  38.408  12.849   8.695
 2597POPC   D2A36688  38.243  12.641   8.324
 2597POPC   C3A36689  38.362  12.886   7.996
 2597POPC   C4A36690  38.443  13.085   7.610
 2597POPC   C1B36691  38.705  12.448   8.748
 2597POPC   C2B36692  38.752  12.549   8.272
 2597POPC   C3B36693  38.480  12.408   7.900
 2597POPC   C4B36694  38.216  12.599   7.598
 2598POPC   NC336695   3.972  18.283   9.705
 2598POPC   PO436696   3.499  18.506   9.350
 2598POPC   GL136697   3.602  18.151   9.101
 2598POPC   GL236698   3.299  18.246   8.892
 2598POPC   C1A36699   3.677  17.986   8.702
 2598POPC   D2A36700   3.691  18.237   8.339
 2598POPC   C3A36701   3.859  18.029   7.967
 2598POPC   C4A36702   3.716  17.949   7.535
 2598POPC   C1B36703   3.553  18.615   8.707
 2598POPC   C2B36704   3.662  18.789   8.300
 2598POPC   C3B36705   3.615  18.528   7.922
 2598POPC   C4B36706   3.354  18.141   7.849
 2599POPC   NC336707   7.795   8.672   9.301
 2599POPC   PO436708   7.242   8.804   9.662
 2599POPC   GL136709   7.248   8.946   9.200
 2599POPC   GL236710   7.524   9.137   9.084
 2599POPC   C1A36711   7.339   8.786   8.750
 2599POPC   D2A36712   7.503   8.654   8.368
 2599POPC   C3A36713   7.281   8.789   8.028
 2599POPC   C4A36714   7.310   8.799   7.559
 2599POPC   C1B36715   7.787   9.020   8.709
 2599POPC   C2B36716   7.827   9.041   8.259
 2599POPC   C3B36717   7.623   9.091   7.852
 2599POPC   C4B36718   7.676   9.079   7.339
 2600POPC   NC336719  35.468  16.415   9.525
 2600POPC   PO436720  35.176  17.126   9.564
 2600POPC   GL136721  35.388  16.879   9.253
 2600POPC   GL236722  35.143  16.697   9.227
 2600POPC   C1A36723  35.496  16.817   8.827
 2600POPC   D2A36724  35.460  17.144   8.508
 2600POPC   C3A36725  35.396  17.008   8.114
 2600POPC   C4A36726  35.452  16.650   7.823
 2600POPC   C1B36727  35.017  16.966   8.877
 2600POPC   C2B36728  35.110  16.767   8.473
 2600POPC   C3B36729  35.012  16.643   8.066
 2600POPC   C4B36730  35.007  16.988   7.791
 2601POPC   NC336731  32.781  42.880   9.535
 2601POPC   PO436732  33.053  42.334   9.750
 2601POPC   GL136733  33.034  42.354   9.225
 2601POPC   GL236734  32.915  42.680   9.045
 2601POPC   C1A36735  33.130  42.264   8.804
 2601POPC   D2A36736  33.289  42.189   8.378
 2601POPC   C3A36737  33.135  42.495   8.099
 2601POPC   C4A36738  33.025  42.521   7.664
 2601POPC   C1B36739  32.614  42.447   8.755
 2601POPC   C2B36740  32.527  42.424   8.326
 2601POPC   C3B36741  32.633  42.325   7.906
 2601POPC   C4B36742  32.630  42.268   7.430
 2602POPC   NC336743   6.317  22.880   9.912
 2602POPC   PO436744   6.669  23.277   9.525
 2602POPC   GL136745   6.677  23.076   9.142
 2602POPC   GL236746   6.409  22.839   9.185
 2602POPC   C1A36747   6.799  23.175   8.726
 2602POPC   D2A36748   6.545  23.187   8.352
 2602POPC   C3A36749   6.697  23.235   7.904
 2602POPC   C4A36750   6.694  23.129   7.440
 2602POPC   C1B36751   6.490  22.785   8.731
 2602POPC   C2B36752   6.554  22.674   8.284
 2602POPC   C3B36753   6.529  22.772   7.816
 2602POPC   C4B36754   6.472  22.713   7.315
 2603POPC   NC336755  10.903  19.421   9.422
 2603POPC   PO436756  10.463  18.774   9.413
 2603POPC   GL136757  10.689  19.048   9.137
 2603POPC   GL236758  10.494  19.359   9.099
 2603POPC   C1A36759  10.910  19.155   8.727
 2603POPC   D2A36760  10.744  19.165   8.280
 2603POPC   C3A36761  10.513  18.767   8.095
 2603POPC   C4A36762  10.471  18.463   7.745
 2603POPC   C1B36763  10.402  19.191   8.702
 2603POPC   C2B36764  10.228  19.141   8.299
 2603POPC   C3B36765  10.382  19.225   7.894
 2603POPC   C4B36766  10.310  18.928   7.615
 2604POPC   NC336767  10.866  18.560   9.542
 2604POPC   PO436768  11.486  18.424   9.714
 2604POPC   GL136769  11.538  18.524   9.261
 2604POPC   GL236770  11.210  18.482   9.167
 2604POPC   C1A36771  11.542  18.357   8.795
 2604POPC   D2A36772  11.299  18.311   8.379
 2604POPC   C3A36773  11.476  18.310   7.930
 2604POPC   C4A36774  11.562  17.986   7.610
 2604POPC   C1B36775  11.085  18.661   8.767
 2604POPC   C2B36776  10.988  18.714   8.319
 2604POPC   C3B36777  10.984  18.476   7.914
 2604POPC   C4B36778  10.884  18.370   7.463
 2605POPC   NC336779  44.999  11.973   9.365
 2605POPC   PO436780  44.481  12.276   9.623
 2605POPC   GL136781  44.581  12.183   9.175
 2605POPC   GL236782  44.504  11.837   9.191
 2605POPC   C1A36783  44.834  12.344   8.803
 2605POPC   D2A36784   0.008  12.358   8.420
 2605POPC   C3A36785  44.708  12.167   8.193
 2605POPC   C4A36786  44.735  12.118   7.796
 2605POPC   C1B36787  44.679  11.853   8.759
 2605POPC   C2B36788  44.523  11.709   8.358
 2605POPC   C3B36789  44.295  11.846   7.997
 2605POPC   C4B36790  44.348  11.936   7.554
 2606POPC   NC336791  22.348   7.534   9.354
 2606POPC   PO436792  21.932   7.019   9.073
 2606POPC   GL136793  22.242   7.212   8.960
 2606POPC   GL236794  22.022   7.511   8.951
 2606POPC   C1A36795  22.325   7.152   8.533
 2606POPC   D2A36796  21.972   7.182   8.283
 2606POPC   C3A36797  21.944   7.502   8.019
 2606POPC   C4A36798  22.261   7.317   7.845
 2606POPC   C1B36799  22.360   7.626   8.679
 2606POPC   C2B36800  22.425   7.608   8.248
 2606POPC   C3B36801  22.307   7.857   7.887
 2606POPC   C4B36802  22.073   7.704   7.524
 2607POPC   NC336803  35.121   9.555   9.407
 2607POPC   PO436804  35.568  10.101   9.512
 2607POPC   GL136805  35.418   9.990   9.093
 2607POPC   GL236806  35.396   9.612   8.987
 2607POPC   C1A36807  35.526   9.958   8.643
 2607POPC   D2A36808  35.435   9.608   8.408
 2607POPC   C3A36809  35.423   9.729   8.004
 2607POPC   C4A36810  35.520  10.125   7.824
 2607POPC   C1B36811  35.057   9.812   8.722
 2607POPC   C2B36812  35.107  10.043   8.303
 2607POPC   C3B36813  35.010   9.976   7.858
 2607POPC   C4B36814  35.139   9.710   7.527
 2608POPC   NC336815  29.216  21.943   9.496
 2608POPC   PO436816  28.997  22.565   9.464
 2608POPC   GL136817  29.139  22.314   9.130
 2608POPC   GL236818  28.980  21.979   9.041
 2608POPC   C1A36819  29.277  22.254   8.739
 2608POPC   D2A36820  29.093  22.095   8.404
 2608POPC   C3A36821  29.300  22.223   8.065
 2608POPC   C4A36822  29.152  22.154   7.696
 2608POPC   C1B36823  29.329  21.768   8.779
 2608POPC   C2B36824  29.504  21.790   8.370
 2608POPC   C3B36825  29.300  21.721   7.992
 2608POPC   C4B36826  29.494  21.761   7.599
 2609POPC   NC336827  14.836  22.338   9.720
 2609POPC   PO436828  15.361  21.934   9.695
 2609POPC   GL136829  15.210  22.167   9.266
 2609POPC   GL236830  15.226  22.551   9.163
 2609POPC   C1A36831  15.186  22.193   8.777
 2609POPC   D2A36832  15.437  22.024   8.371
 2609POPC   C3A36833  15.255  22.177   8.018
 2609POPC   C4A36834  14.838  22.361   7.947
 2609POPC   C1B36835  15.523  22.601   8.764
 2609POPC   C2B36836  15.666  22.517   8.333
 2609POPC   C3B36837  15.588  22.532   7.872
 2609POPC   C4B36838  15.241  22.482   7.598
 2610POPC   NC336839  16.460  40.119   9.471
 2610POPC   PO436840  16.988  39.733   9.511
 2610POPC   GL136841  16.819  39.882   9.129
 2610POPC   GL236842  16.824  40.243   9.126
 2610POPC   C1A36843  16.617  39.755   8.738
 2610POPC   D2A36844  16.704  39.625   8.301
 2610POPC   C3A36845  16.769  39.983   7.998
 2610POPC   C4A36846  16.991  40.008   7.545
 2610POPC   C1B36847  16.472  40.264   8.802
 2610POPC   C2B36848  16.386  40.364   8.358
 2610POPC   C3B36849  16.299  40.212   7.943
 2610POPC   C4B36850  16.474  40.000   7.581
 2611POPC   NC336851   1.009   5.977   9.481
 2611POPC   PO436852   1.660   6.260   9.357
 2611POPC   GL136853   1.470   5.893   9.137
 2611POPC   GL236854   1.128   5.940   8.987
 2611POPC   C1A36855   1.409   5.558   8.809
 2611POPC   D2A36856   1.118   5.679   8.470
 2611POPC   C3A36857   1.306   5.846   8.122
 2611POPC   C4A36858   1.335   5.803   7.695
 2611POPC   C1B36859   0.892   6.158   8.662
 2611POPC   C2B36860   0.771   5.992   8.262
 2611POPC   C3B36861   0.851   5.811   7.873
 2611POPC   C4B36862   0.920   6.064   7.505
 2612POPC   NC336863  13.494  29.524   9.581
 2612POPC   PO436864  13.669  28.843   9.516
 2612POPC   GL136865  13.856  29.034   9.133
 2612POPC   GL236866  13.743  29.359   9.158
 2612POPC   C1A36867  13.821  29.174   8.690
 2612POPC   D2A36868  13.998  29.338   8.339
 2612POPC   C3A36869  13.834  29.194   7.954
 2612POPC   C4A36870  13.748  29.067   7.526
 2612POPC   C1B36871  13.408  29.406   8.870
 2612POPC   C2B36872  13.470  29.478   8.420
 2612POPC   C3B36873  13.356  29.366   8.002
 2612POPC   C4B36874  13.119  29.240   7.645
 2613POPC   NC336875  39.831  23.901   9.734
 2613POPC   PO436876  40.374  23.511   9.768
 2613POPC   GL136877  40.234  23.637   9.311
 2613POPC   GL236878  39.901  23.811   9.226
 2613POPC   C1A36879  40.273  23.652   8.853
 2613POPC   D2A36880  40.032  23.602   8.482
 2613POPC   C3A36881  40.168  23.833   8.132
 2613POPC   C4A36882  40.308  23.622   7.759
 2613POPC   C1B36883  39.719  23.865   8.795
 2613POPC   C2B36884  39.670  23.943   8.324
 2613POPC   C3B36885  39.753  23.898   7.833
 2613POPC   C4B36886  39.764  24.005   7.355
 2614POPC   NC336887  41.985  11.056   9.448
 2614POPC   PO436888  41.433  11.394   9.414
 2614POPC   GL136889  41.593  11.533   9.062
 2614POPC   GL236890  41.881  11.318   9.037
 2614POPC   C1A36891  41.511  11.385   8.668
 2614POPC   D2A36892  41.777  11.149   8.415
 2614POPC   C3A36893  41.542  11.011   8.055
 2614POPC   C4A36894  41.328  11.243   7.736
 2614POPC   C1B36895  42.005  11.604   8.755
 2614POPC   C2B36896  41.781  11.719   8.411
 2614POPC   C3B36897  41.646  11.525   8.069
 2614POPC   C4B36898  41.656  11.669   7.692
 2615POPC   NC336899  21.418  18.790   9.740
 2615POPC   PO436900  21.330  18.047   9.580
 2615POPC   GL136901  21.290  18.216   9.186
 2615POPC   GL236902  21.052  18.486   9.139
 2615POPC   C1A36903  21.430  18.045   8.801
 2615POPC   D2A36904  21.414  18.201   8.380
 2615POPC   C3A36905  21.615  18.158   8.008
 2615POPC   C4A36906  21.492  17.997   7.591
 2615POPC   C1B36907  21.130  18.509   8.680
 2615POPC   C2B36908  21.000  18.423   8.221
 2615POPC   C3B36909  21.177  18.355   7.794
 2615POPC   C4B36910  21.203  18.355   7.343
 2616POPC   NC336911  23.588  37.556   9.555
 2616POPC   PO436912  23.892  38.180   9.546
 2616POPC   GL136913  23.896  37.852   9.225
 2616POPC   GL236914  24.040  37.533   9.313
 2616POPC   C1A36915  23.693  37.847   8.816
 2616POPC   D2A36916  23.463  38.014   8.500
 2616POPC   C3A36917  23.657  38.140   8.157
 2616POPC   C4A36918  23.733  37.794   7.903
 2616POPC   C1B36919  23.982  37.448   8.859
 2616POPC   C2B36920  23.948  37.621   8.426
 2616POPC   C3B36921  24.141  37.536   8.037
 2616POPC   C4B36922  23.934  37.332   7.642
 2617POPC   NC336923  14.909   3.204   9.654
 2617POPC   PO436924  15.193   3.840   9.604
 2617POPC   GL136925  15.219   3.529   9.261
 2617POPC   GL236926  14.863   3.441   9.199
 2617POPC   C1A36927  15.385   3.747   8.865
 2617POPC   D2A36928  15.192   3.749   8.441
 2617POPC   C3A36929  15.415   3.670   8.077
 2617POPC   C4A36930  15.482   3.912   7.707
 2617POPC   C1B36931  15.029   3.394   8.779
 2617POPC   C2B36932  15.147   3.190   8.387
 2617POPC   C3B36933  15.297   3.079   7.976
 2617POPC   C4B36934  15.418   3.365   7.664
 2618POPC   NC336935  31.125  18.523   9.552
 2618POPC   PO436936  31.553  18.008   9.584
 2618POPC   GL136937  31.503  18.339   9.225
 2618POPC   GL236938  31.176  18.345   9.056
 2618POPC   C1A36939  31.605  18.522   8.775
 2618POPC   D2A36940  31.464  18.428   8.310
 2618POPC   C3A36941  31.735  18.467   7.915
 2618POPC   C4A36942  31.823  18.291   7.486
 2618POPC   C1B36943  31.359  18.090   8.695
 2618POPC   C2B36944  31.305  17.926   8.264
 2618POPC   C3B36945  31.325  18.156   7.864
 2618POPC   C4B36946  31.150  18.198   7.484
 2619POPC   NC336947  35.737  24.837   9.542
 2619POPC   PO436948  36.077  24.346   9.571
 2619POPC   GL136949  36.289  24.573   9.251
 2619POPC   GL236950  36.000  24.757   9.113
 2619POPC   C1A36951  36.330  24.485   8.813
 2619POPC   D2A36952  36.083  24.315   8.488
 2619POPC   C3A36953  36.301  24.280   8.120
 2619POPC   C4A36954  36.163  24.109   7.763
 2619POPC   C1B36955  35.598  24.741   8.862
 2619POPC   C2B36956  35.588  24.580   8.434
 2619POPC   C3B36957  35.872  24.558   8.029
 2619POPC   C4B36958  36.278  24.683   7.806
 2620POPC   NC336959   1.398  41.805   9.366
 2620POPC   PO436960   1.219  41.301   9.461
 2620POPC   GL136961   1.152  41.433   9.069
 2620POPC   GL236962   0.833  41.252   9.085
 2620POPC   C1A36963   1.307  41.504   8.631
 2620POPC   D2A36964   1.170  41.323   8.234
 2620POPC   C3A36965   1.257  41.358   7.810
 2620POPC   C4A36966   1.543  41.565   7.554
 2620POPC   C1B36967   0.863  41.249   8.646
 2620POPC   C2B36968   0.660  41.281   8.219
 2620POPC   C3B36969   0.776  41.514   7.815
 2620POPC   C4B36970   1.011  41.549   7.395
 2621POPC   NC336971  20.732  12.947   9.705
 2621POPC   PO436972  20.397  12.423   9.573
 2621POPC   GL136973  20.357  12.832   9.294
 2621POPC   GL236974  20.717  12.942   9.193
 2621POPC   C1A36975  20.382  12.875   8.807
 2621POPC   D2A36976  20.644  12.897   8.412
 2621POPC   C3A36977  20.559  12.998   7.999
 2621POPC   C4A36978  20.363  12.781   7.667
 2621POPC   C1B36979  20.871  13.134   8.803
 2621POPC   C2B36980  20.938  13.301   8.354
 2621POPC   C3B36981  20.999  13.254   7.906
 2621POPC   C4B36982  20.957  13.109   7.460
 2622POPC   NC336983  15.629  25.284   9.397
 2622POPC   PO436984  16.338  25.205   9.398
 2622POPC   GL136985  16.256  25.440   9.015
 2622POPC   GL236986  15.891  25.546   9.036
 2622POPC   C1A36987  16.281  25.207   8.634
 2622POPC   D2A36988  16.038  24.961   8.369
 2622POPC   C3A36989  16.102  25.081   7.968
 2622POPC   C4A36990  16.054  24.888   7.580
 2622POPC   C1B36991  15.869  25.493   8.592
 2622POPC   C2B36992  15.960  25.777   8.262
 2622POPC   C3B36993  16.077  25.680   7.852
 2622POPC   C4B36994  15.866  25.360   7.610
 2623POPC   NC336995  40.341  41.194   9.450
 2623POPC   PO436996  39.955  40.617   9.544
 2623POPC   GL136997  40.053  40.814   9.168
 2623POPC   GL236998  40.184  40.493   9.082
 2623POPC   C1A36999  40.024  40.986   8.741
 2623POPC   D2A37000  40.072  40.841   8.312
 2623POPC   C3A37001  39.776  40.983   7.968
 2623POPC   C4A37002  39.696  41.038   7.494
 2623POPC   C1B37003  39.872  40.484   8.784
 2623POPC   C2B37004  39.936  40.317   8.401
 2623POPC   C3B37005  40.184  40.458   8.021
 2623POPC   C4B37006  40.099  40.723   7.662
 2624POPC   NC337007   0.158  40.357   9.462
 2624POPC   PO437008   0.542  39.702   9.465
 2624POPC   GL137009   0.426  39.842   9.036
 2624POPC   GL237010   0.279  40.194   8.999
 2624POPC   C1A37011   0.445  39.932   8.574
 2624POPC   D2A37012   0.158  39.916   8.220
 2624POPC   C3A37013   0.267  39.785   7.814
 2624POPC   C4A37014   0.648  39.833   7.663
 2624POPC   C1B37015   0.726  40.246   8.913
 2624POPC   C2B37016   0.823  40.293   8.474
 2624POPC   C3B37017   0.647  40.124   8.088
 2624POPC   C4B37018   0.354  40.287   7.785
 2625POPC   NC337019  38.991  25.887   9.569
 2625POPC   PO437020  39.606  26.142   9.442
 2625POPC   GL137021  39.376  26.050   9.086
 2625POPC   GL237022  39.163  25.756   9.114
 2625POPC   C1A37023  39.492  26.127   8.673
 2625POPC   D2A37024  39.254  26.068   8.332
 2625POPC   C3A37025  39.384  26.225   7.952
 2625POPC   C4A37026  39.216  26.330   7.578
 2625POPC   C1B37027  39.311  25.654   8.738
 2625POPC   C2B37028  39.180  25.557   8.367
 2625POPC   C3B37029  39.351  25.714   7.984
 2625POPC   C4B37030  39.338  25.837   7.595
 2626POPC   NC337031  13.352   4.008   9.402
 2626POPC   PO437032  13.856   3.598   9.430
 2626POPC   GL137033  13.832   3.443   9.018
 2626POPC   GL237034  13.473   3.290   9.039
 2626POPC   C1A37035  13.913   3.482   8.555
 2626POPC   D2A37036  13.751   3.199   8.192
 2626POPC   C3A37037  13.891   3.326   7.776
 2626POPC   C4A37038  13.890   3.766   7.643
 2626POPC   C1B37039  13.403   3.380   8.593
 2626POPC   C2B37040  13.207   3.413   8.186
 2626POPC   C3B37041  13.473   3.614   7.888
 2626POPC   C4B37042  13.421   3.879   7.493
 2627POPC   NC337043  25.500   9.572   9.628
 2627POPC   PO437044  26.104   9.619   9.589
 2627POPC   GL137045  26.070   9.716   9.156
 2627POPC   GL237046  25.754   9.597   9.160
 2627POPC   C1A37047  26.138   9.560   8.738
 2627POPC   D2A37048  26.319   9.494   8.319
 2627POPC   C3A37049  26.060   9.647   7.935
 2627POPC   C4A37050  26.028   9.621   7.430
 2627POPC   C1B37051  25.706   9.873   8.811
 2627POPC   C2B37052  25.897   9.939   8.405
 2627POPC   C3B37053  25.774  10.119   8.020
 2627POPC   C4B37054  25.746   9.946   7.650
 2628POPC   NC337055  39.721  35.185   9.507
 2628POPC   PO437056  40.096  35.685   9.539
 2628POPC   GL137057  40.115  35.435   9.136
 2628POPC   GL237058  40.399  35.208   9.009
 2628POPC   C1A37059  39.922  35.463   8.729
 2628POPC   D2A37060  39.927  35.780   8.385
 2628POPC   C3A37061  39.951  35.577   7.966
 2628POPC   C4A37062  39.723  35.211   7.887
 2628POPC   C1B37063  40.228  35.033   8.667
 2628POPC   C2B37064  40.094  35.230   8.313
 2628POPC   C3B37065  40.222  35.123   7.957
 2628POPC   C4B37066  40.350  35.107   7.609
 2629POPC   NC337067  44.310  41.990   9.332
 2629POPC   PO437068  43.856  41.459   9.550
 2629POPC   GL137069  43.819  41.748   9.223
 2629POPC   GL237070  44.084  41.588   9.077
 2629POPC   C1A37071  43.678  41.738   8.790
 2629POPC   D2A37072  43.550  41.470   8.445
 2629POPC   C3A37073  43.752  41.597   8.032
 2629POPC   C4A37074  44.073  41.587   7.712
 2629POPC   C1B37075  44.002  41.328   8.729
 2629POPC   C2B37076  44.130  41.354   8.307
 2629POPC   C3B37077  44.101  41.123   7.946
 2629POPC   C4B37078  44.201  41.046   7.525
 2630POPC   NC337079  20.955   7.125   9.537
 2630POPC   PO437080  20.700   6.477   9.459
 2630POPC   GL137081  20.609   6.825   9.195
 2630POPC   GL237082  20.904   6.850   9.123
 2630POPC   C1A37083  20.607   6.747   8.724
 2630POPC   D2A37084  20.676   6.962   8.357
 2630POPC   C3A37085  20.606   6.702   8.003
 2630POPC   C4A37086  20.455   6.765   7.601
 2630POPC   C1B37087  21.058   6.498   8.814
 2630POPC   C2B37088  21.046   6.218   8.438
 2630POPC   C3B37089  20.952   6.335   8.017
 2630POPC   C4B37090  20.663   6.280   7.658
 2631POPC   NC337091  18.632   2.122   9.482
 2631POPC   PO437092  19.212   1.737   9.650
 2631POPC   GL137093  19.074   1.800   9.261
 2631POPC   GL237094  18.870   1.516   9.201
 2631POPC   C1A37095  19.215   2.034   8.893
 2631POPC   D2A37096  19.226   1.883   8.471
 2631POPC   C3A37097  19.256   2.133   8.080
 2631POPC   C4A37098  19.096   2.205   7.652
 2631POPC   C1B37099  18.811   1.751   8.820
 2631POPC   C2B37100  18.688   1.859   8.425
 2631POPC   C3B37101  18.913   1.766   8.079
 2631POPC   C4B37102  19.013   1.676   7.649
 2632POPC   NC337103  37.312  34.539   9.393
 2632POPC   PO437104  37.942  34.812   9.467
 2632POPC   GL137105  37.790  34.532   9.148
 2632POPC   GL237106  38.014  34.209   9.152
 2632POPC   C1A37107  37.611  34.515   8.740
 2632POPC   D2A37108  37.526  34.714   8.358
 2632POPC   C3A37109  37.490  34.437   8.075
 2632POPC   C4A37110  37.442  34.568   7.724
 2632POPC   C1B37111  38.112  34.404   8.779
 2632POPC   C2B37112  38.044  34.672   8.420
 2632POPC   C3B37113  37.969  34.561   7.976
 2632POPC   C4B37114  37.980  34.543   7.510
 2633POPC   NC337115  15.588   3.564   9.607
 2633POPC   PO437116  16.203   3.272   9.632
 2633POPC   GL137117  16.114   3.366   9.250
 2633POPC   GL237118  16.435   3.333   9.134
 2633POPC   C1A37119  15.903   3.652   8.992
 2633POPC   D2A37120  15.924   3.788   8.572
 2633POPC   C3A37121  15.913   3.489   8.238
 2633POPC   C4A37122  15.861   3.606   7.807
 2633POPC   C1B37123  16.255   3.389   8.703
 2633POPC   C2B37124  16.446   3.337   8.282
 2633POPC   C3B37125  16.228   3.264   7.891
 2633POPC   C4B37126  15.810   3.093   7.817
 2634POPC   NC337127  34.216  23.035   9.537
 2634POPC   PO437128  34.785  22.816   9.787
 2634POPC   GL137129  34.610  22.862   9.280
 2634POPC   GL237130  34.857  22.659   9.077
 2634POPC   C1A37131  34.517  23.105   8.913
 2634POPC   D2A37132  34.432  23.094   8.479
 2634POPC   C3A37133  34.575  23.180   8.063
 2634POPC   C4A37134  34.325  23.247   7.725
 2634POPC   C1B37135  34.630  22.652   8.664
 2634POPC   C2B37136  34.638  22.684   8.198
 2634POPC   C3B37137  34.730  22.678   7.734
 2634POPC   C4B37138  34.970  22.753   7.328
 2635POPC   NC337139   0.983  40.902   9.480
 2635POPC   PO437140   1.319  40.317   9.519
 2635POPC   GL137141   1.395  40.604   9.154
 2635POPC   GL237142   1.257  40.934   9.055
 2635POPC   C1A37143   1.566  40.698   8.730
 2635POPC   D2A37144   1.314  40.840   8.379
 2635POPC   C3A37145   1.319  40.569   7.988
 2635POPC   C4A37146   1.621  40.599   7.670
 2635POPC   C1B37147   0.996  40.690   8.779
 2635POPC   C2B37148   0.808  40.815   8.382
 2635POPC   C3B37149   0.961  40.916   7.993
 2635POPC   C4B37150   0.797  40.551   7.815
 2636POPC   NC337151  41.521  32.765   9.504
 2636POPC   PO437152  41.451  33.430   9.508
 2636POPC   GL137153  41.478  33.150   9.173
 2636POPC   GL237154  41.819  33.036   9.206
 2636POPC   C1A37155  41.251  33.046   8.809
 2636POPC   D2A37156  41.165  33.260   8.426
 2636POPC   C3A37157  41.289  32.989   8.104
 2636POPC   C4A37158  41.444  32.874   7.708
 2636POPC   C1B37159  41.727  32.853   8.818
 2636POPC   C2B37160  41.678  33.070   8.445
 2636POPC   C3B37161  41.839  32.984   8.035
 2636POPC   C4B37162  41.860  33.250   7.663
 2637POPC   NC337163  11.903   6.743   9.569
 2637POPC   PO437164  12.334   6.366   9.168
 2637POPC   GL137165  12.030   6.612   9.012
 2637POPC   GL237166  12.089   6.898   9.117
 2637POPC   C1A37167  12.029   6.653   8.586
 2637POPC   D2A37168  12.191   6.784   8.207
 2637POPC   C3A37169  12.049   6.630   7.847
 2637POPC   C4A37170  11.638   6.483   7.780
 2637POPC   C1B37171  12.009   7.129   8.753
 2637POPC   C2B37172  11.788   7.072   8.392
 2637POPC   C3B37173  11.882   7.139   7.984
 2637POPC   C4B37174  11.629   7.143   7.651
 2638POPC   NC337175  12.520   3.445   9.439
 2638POPC   PO437176  12.912   3.917   9.351
 2638POPC   GL137177  12.769   3.704   9.028
 2638POPC   GL237178  12.891   3.391   9.080
 2638POPC   C1A37179  12.997   3.683   8.640
 2638POPC   D2A37180  12.847   3.892   8.291
 2638POPC   C3A37181  12.781   3.663   7.907
 2638POPC   C4A37182  13.083   3.480   7.617
 2638POPC   C1B37183  12.679   3.305   8.690
 2638POPC   C2B37184  12.796   3.094   8.342
 2638POPC   C3B37185  12.712   3.150   7.932
 2638POPC   C4B37186  12.726   3.137   7.510
 2639POPC   NC337187  26.598  23.924   9.419
 2639POPC   PO437188  27.142  23.526   9.361
 2639POPC   GL137189  26.793  23.581   9.114
 2639POPC   GL237190  26.871  23.922   9.001
 2639POPC   C1A37191  26.602  23.530   8.745
 2639POPC   D2A37192  26.895  23.592   8.449
 2639POPC   C3A37193  26.792  23.548   8.066
 2639POPC   C4A37194  26.519  23.522   7.738
 2639POPC   C1B37195  26.657  24.033   8.601
 2639POPC   C2B37196  26.724  24.050   8.130
 2639POPC   C3B37197  26.945  23.891   7.731
 2639POPC   C4B37198  27.016  24.076   7.300
 2640POPC   NC337199   4.802  36.935   9.551
 2640POPC   PO437200   4.161  36.750   9.628
 2640POPC   GL137201   4.219  36.981   9.279
 2640POPC   GL237202   4.468  36.740   9.212
 2640POPC   C1A37203   4.221  37.066   8.845
 2640POPC   D2A37204   4.364  36.935   8.436
 2640POPC   C3A37205   4.150  37.077   8.058
 2640POPC   C4A37206   4.282  36.887   7.660
 2640POPC   C1B37207   4.577  36.653   8.808
 2640POPC   C2B37208   4.469  36.425   8.449
 2640POPC   C3B37209   4.471  36.611   8.043
 2640POPC   C4B37210   4.673  36.515   7.666
 2641POPC   NC337211  17.652  11.455   9.579
 2641POPC   PO437212  17.188  11.015   9.517
 2641POPC   GL137213  17.337  11.127   9.127
 2641POPC   GL237214  17.392  10.804   8.961
 2641POPC   C1A37215  17.397  11.421   8.773
 2641POPC   D2A37216  17.514  11.576   8.326
 2641POPC   C3A37217  17.407  11.376   7.937
 2641POPC   C4A37218  17.283  10.939   7.872
 2641POPC   C1B37219  17.767  11.018   8.876
 2641POPC   C2B37220  17.773  11.175   8.521
 2641POPC   C3B37221  17.708  11.037   8.162
 2641POPC   C4B37222  17.858  11.136   7.801
 2642POPC   NC337223  35.594   1.417   9.411
 2642POPC   PO437224  36.241   1.256   9.502
 2642POPC   GL137225  36.132   1.030   9.151
 2642POPC   GL237226  35.777   1.020   9.135
 2642POPC   C1A37227  36.134   0.958   8.720
 2642POPC   D2A37228  36.315   0.951   8.329
 2642POPC   C3A37229  36.220   1.218   7.960
 2642POPC   C4A37230  36.305   1.084   7.529
 2642POPC   C1B37231  35.705   1.254   8.759
 2642POPC   C2B37232  35.880   1.259   8.367
 2642POPC   C3B37233  35.737   1.138   7.975
 2642POPC   C4B37234  35.811   0.953   7.587
 2643POPC   NC337235  29.117   1.427   9.576
 2643POPC   PO437236  29.629   1.019   9.565
 2643POPC   GL137237  29.292   1.069   9.262
 2643POPC   GL237238  29.316   1.410   9.131
 2643POPC   C1A37239  29.155   1.008   8.855
 2643POPC   D2A37240  29.344   1.067   8.456
 2643POPC   C3A37241  29.196   0.962   8.065
 2643POPC   C4A37242  29.391   1.172   7.752
 2643POPC   C1B37243  29.220   1.510   8.737
 2643POPC   C2B37244  28.997   1.467   8.395
 2643POPC   C3B37245  29.000   1.436   7.972
 2643POPC   C4B37246  28.791   1.222   7.688
 2644POPC   NC337247  25.922  21.317   9.739
 2644POPC   PO437248  26.345  21.630   9.368
 2644POPC   GL137249  26.154  21.360   9.135
 2644POPC   GL237250  25.853  21.429   9.170
 2644POPC   C1A37251  26.256  21.285   8.738
 2644POPC   D2A37252  26.227  21.090   8.355
 2644POPC   C3A37253  26.269  21.397   8.071
 2644POPC   C4A37254  26.069  21.455   7.681
 2644POPC   C1B37255  25.750  21.277   8.776
 2644POPC   C2B37256  25.855  21.444   8.425
 2644POPC   C3B37257  25.749  21.429   8.071
 2644POPC   C4B37258  25.721  21.092   7.828
 2645POPC   NC337259  23.098  40.279   9.486
 2645POPC   PO437260  22.833  39.673   9.528
 2645POPC   GL137261  22.764  39.768   9.123
 2645POPC   GL237262  23.020  39.988   9.064
 2645POPC   C1A37263  22.641  39.777   8.684
 2645POPC   D2A37264  22.894  39.931   8.337
 2645POPC   C3A37265  22.701  39.985   7.936
 2645POPC   C4A37266  22.660  39.891   7.480
 2645POPC   C1B37267  22.834  40.249   8.755
 2645POPC   C2B37268  22.932  40.498   8.406
 2645POPC   C3B37269  23.101  40.330   8.038
 2645POPC   C4B37270  22.974  40.259   7.630
 2646POPC   NC337271  42.056  36.096   9.265
 2646POPC   PO437272  41.537  36.036   9.740
 2646POPC   GL137273  41.568  36.043   9.241
 2646POPC   GL237274  41.662  36.335   9.052
 2646POPC   C1A37275  41.718  35.916   8.766
 2646POPC   D2A37276  41.491  35.768   8.427
 2646POPC   C3A37277  41.625  35.958   8.045
 2646POPC   C4A37278  41.488  35.757   7.702
 2646POPC   C1B37279  41.873  36.474   8.712
 2646POPC   C2B37280  41.714  36.552   8.318
 2646POPC   C3B37281  41.568  36.486   7.921
 2646POPC   C4B37282  41.643  36.506   7.495
 2647POPC   NC337283  25.049  24.804   9.500
 2647POPC   PO437284  25.522  24.253   9.436
 2647POPC   GL137285  25.283  24.495   9.110
 2647POPC   GL237286  24.957  24.517   9.114
 2647POPC   C1A37287  25.197  24.278   8.710
 2647POPC   D2A37288  25.381  24.168   8.303
 2647POPC   C3A37289  25.350  24.459   7.944
 2647POPC   C4A37290  25.471  24.503   7.512
 2647POPC   C1B37291  24.940  24.728   8.732
 2647POPC   C2B37292  25.037  24.618   8.341
 2647POPC   C3B37293  24.955  24.797   7.958
 2647POPC   C4B37294  25.050  24.778   7.575
 2648POPC   NC337295  33.975   5.680   9.630
 2648POPC   PO437296  33.454   6.097   9.660
 2648POPC   GL137297  33.656   5.934   9.297
 2648POPC   GL237298  33.489   5.640   9.240
 2648POPC   C1A37299  33.766   5.834   8.859
 2648POPC   D2A37300  33.802   5.705   8.425
 2648POPC   C3A37301  33.923   5.998   8.108
 2648POPC   C4A37302  33.802   6.054   7.666
 2648POPC   C1B37303  33.430   5.436   8.841
 2648POPC   C2B37304  33.363   5.374   8.408
 2648POPC   C3B37305  33.605   5.328   8.033
 2648POPC   C4B37306  33.907   5.565   7.826
 2649POPC   NC337307  43.651  13.042   9.353
 2649POPC   PO437308  43.890  12.492   9.639
 2649POPC   GL137309  43.761  12.566   9.192
 2649POPC   GL237310  44.036  12.796   9.109
 2649POPC   C1A37311  43.866  12.520   8.737
 2649POPC   D2A37312  44.056  12.722   8.382
 2649POPC   C3A37313  43.831  13.074   8.238
 2649POPC   C4A37314  43.532  13.124   7.889
 2649POPC   C1B37315  44.200  13.068   8.758
 2649POPC   C2B37316  44.434  13.132   8.377
 2649POPC   C3B37317  44.321  13.039   7.989
 2649POPC   C4B37318  43.980  12.840   7.791
 2650POPC   NC337319  21.994  30.446   9.455
 2650POPC   PO437320  22.088  31.053   9.222
 2650POPC   GL137321  22.235  30.684   9.056
 2650POPC   GL237322  21.993  30.439   8.945
 2650POPC   C1A37323  22.278  30.749   8.629
 2650POPC   D2A37324  22.470  30.993   8.360
 2650POPC   C3A37325  22.280  31.058   7.969
 2650POPC   C4A37326  21.935  30.931   7.697
 2650POPC   C1B37327  22.005  30.353   8.512
 2650POPC   C2B37328  22.052  30.608   8.163
 2650POPC   C3B37329  22.206  30.460   7.789
 2650POPC   C4B37330  22.227  30.347   7.337
 2651POPC   NC337331   8.991  27.080   9.617
 2651POPC   PO437332   8.576  26.532   9.517
 2651POPC   GL137333   8.864  26.763   9.215
 2651POPC   GL237334   9.143  26.994   9.149
 2651POPC   C1A37335   8.994  26.716   8.765
 2651POPC   D2A37336   8.961  27.021   8.437
 2651POPC   C3A37337   9.075  26.801   8.071
 2651POPC   C4A37338   9.094  26.518   7.743
 2651POPC   C1B37339   9.315  27.168   8.815
 2651POPC   C2B37340   9.357  27.361   8.432
 2651POPC   C3B37341   9.474  27.169   8.078
 2651POPC   C4B37342   9.429  26.923   7.705
 2652POPC   NC337343  11.977  27.873   9.532
 2652POPC   PO437344  11.879  28.485   9.396
 2652POPC   GL137345  12.038  28.158   9.098
 2652POPC   GL237346  11.749  27.915   9.040
 2652POPC   C1A37347  12.434  28.085   8.828
 2652POPC   D2A37348  12.570  28.213   8.372
 2652POPC   C3A37349  12.282  28.171   8.022
 2652POPC   C4A37350  12.065  28.476   7.773
 2652POPC   C1B37351  11.820  28.101   8.638
 2652POPC   C2B37352  11.873  27.939   8.235
 2652POPC   C3B37353  11.792  28.061   7.827
 2652POPC   C4B37354  11.660  28.324   7.506
 2653POPC   NC337355  21.995  40.983   9.611
 2653POPC   PO437356  22.478  40.603   9.441
 2653POPC   GL137357  22.273  40.874   9.172
 2653POPC   GL237358  21.912  40.969   9.113
 2653POPC   C1A37359  22.219  40.749   8.747
 2653POPC   D2A37360  22.047  40.550   8.392
 2653POPC   C3A37361  22.271  40.751   8.071
 2653POPC   C4A37362  22.397  40.851   7.662
 2653POPC   C1B37363  21.839  41.079   8.682
 2653POPC   C2B37364  21.801  40.976   8.220
 2653POPC   C3B37365  21.932  41.007   7.786
 2653POPC   C4B37366  22.026  40.951   7.337
 2654POPC   NC337367  41.454   0.662   9.345
 2654POPC   PO437368  41.669   1.285   9.773
 2654POPC   GL137369  41.497   1.265   9.368
 2654POPC   GL237370  41.812   1.276   9.234
 2654POPC   C1A37371  41.370   1.199   8.918
 2654POPC   D2A37372  41.215   0.961   8.526
 2654POPC   C3A37373  41.297   1.128   8.101
 2654POPC   C4A37374  41.300   1.373   7.722
 2654POPC   C1B37375  41.909   1.179   8.828
 2654POPC   C2B37376  41.696   1.107   8.459
 2654POPC   C3B37377  41.816   1.057   8.047
 2654POPC   C4B37378  41.624   0.982   7.672
 2655POPC   NC337379  10.624  27.201   9.573
 2655POPC   PO437380  10.922  27.892   9.531
 2655POPC   GL137381  10.644  27.779   9.211
 2655POPC   GL237382  10.505  27.450   9.144
 2655POPC   C1A37383  10.530  27.959   8.840
 2655POPC   D2A37384  10.429  28.061   8.421
 2655POPC   C3A37385  10.590  27.702   8.147
 2655POPC   C4A37386  10.598  27.708   7.693
 2655POPC   C1B37387  10.321  27.404   8.737
 2655POPC   C2B37388  10.401  27.219   8.315
 2655POPC   C3B37389  10.298  27.339   7.880
 2655POPC   C4B37390  10.387  27.311   7.401
 2656POPC   NC337391  36.534  37.542   9.585
 2656POPC   PO437392  37.168  37.390   9.528
 2656POPC   GL137393  37.136  37.561   9.094
 2656POPC   GL237394  36.991  37.861   9.082
 2656POPC   C1A37395  37.070  37.636   8.626
 2656POPC   D2A37396  36.754  37.471   8.337
 2656POPC   C3A37397  36.888  37.492   7.902
 2656POPC   C4A37398  37.322  37.611   7.820
 2656POPC   C1B37399  36.873  38.121   8.718
 2656POPC   C2B37400  36.980  38.043   8.270
 2656POPC   C3B37401  36.838  38.073   7.849
 2656POPC   C4B37402  37.065  38.293   7.545
 2657POPC   NC337403  41.004  23.347   9.413
 2657POPC   PO437404  40.756  22.726   9.571
 2657POPC   GL137405  40.649  22.749   9.116
 2657POPC   GL237406  40.954  22.667   9.046
 2657POPC   C1A37407  40.794  23.002   8.697
 2657POPC   D2A37408  41.029  23.334   8.466
 2657POPC   C3A37409  40.982  23.256   8.039
 2657POPC   C4A37410  40.706  23.217   7.695
 2657POPC   C1B37411  40.806  22.500   8.663
 2657POPC   C2B37412  40.683  22.667   8.285
 2657POPC   C3B37413  40.551  22.742   7.849
 2657POPC   C4B37414  40.860  22.750   7.469
 2658POPC   NC337415  41.196  43.114   9.305
 2658POPC   PO437416  40.525  43.275   9.487
 2658POPC   GL137417  40.753  43.297   9.095
 2658POPC   GL237418  40.779  42.946   9.063
 2658POPC   C1A37419  40.928  43.250   8.687
 2658POPC   D2A37420  40.686  43.015   8.431
 2658POPC   C3A37421  40.724  43.155   8.049
 2658POPC   C4A37422  40.482  43.476   7.937
 2658POPC   C1B37423  40.987  42.699   8.739
 2658POPC   C2B37424  40.754  42.518   8.380
 2658POPC   C3B37425  40.586  42.659   8.010
 2658POPC   C4B37426  40.922  42.784   7.752
 2659POPC   NC337427  40.061  31.909   9.421
 2659POPC   PO437428  40.217  32.574   9.509
 2659POPC   GL137429  40.356  32.314   9.171
 2659POPC   GL237430  40.490  31.950   9.150
 2659POPC   C1A37431  40.181  32.353   8.776
 2659POPC   D2A37432  39.943  32.196   8.477
 2659POPC   C3A37433  40.023  32.291   8.069
 2659POPC   C4A37434  40.124  32.438   7.650
 2659POPC   C1B37435  40.311  31.865   8.734
 2659POPC   C2B37436  40.500  32.069   8.381
 2659POPC   C3B37437  40.489  32.156   7.966
 2659POPC   C4B37438  40.274  31.956   7.636
 2660POPC   NC337439   5.797  35.109   9.399
 2660POPC   PO437440   6.227  35.658   9.381
 2660POPC   GL137441   5.950  35.467   9.050
 2660POPC   GL237442   6.024  35.127   8.958
 2660POPC   C1A37443   6.041  35.541   8.627
 2660POPC   D2A37444   6.258  35.496   8.254
 2660POPC   C3A37445   6.063  35.567   7.870
 2660POPC   C4A37446   5.616  35.615   7.805
 2660POPC   C1B37447   5.870  35.063   8.572
 2660POPC   C2B37448   5.752  35.266   8.191
 2660POPC   C3B37449   5.818  35.135   7.801
 2660POPC   C4B37450   6.261  35.113   7.734
 2661POPC   NC337451  13.848  16.853   9.524
 2661POPC   PO437452  13.174  16.610   9.623
 2661POPC   GL137453  13.414  16.714   9.208
 2661POPC   GL237454  13.748  16.560   9.108
 2661POPC   C1A37455  13.386  16.662   8.768
 2661POPC   D2A37456  13.402  16.502   8.352
 2661POPC   C3A37457  13.376  16.846   8.072
 2661POPC   C4A37458  13.406  16.915   7.619
 2661POPC   C1B37459  13.795  16.959   8.886
 2661POPC   C2B37460  13.740  16.886   8.443
 2661POPC   C3B37461  13.859  16.697   8.050
 2661POPC   C4B37462  13.914  16.884   7.658
 2662POPC   NC337463  16.793  22.315   9.515
 2662POPC   PO437464  16.188  22.443   9.697
 2662POPC   GL137465  16.437  22.375   9.186
 2662POPC   GL237466  16.588  22.024   9.143
 2662POPC   C1A37467  16.482  22.227   8.712
 2662POPC   D2A37468  16.680  21.969   8.363
 2662POPC   C3A37469  16.396  21.953   8.040
 2662POPC   C4A37470  16.321  22.271   7.741
 2662POPC   C1B37471  16.929  21.970   8.811
 2662POPC   C2B37472  17.175  21.753   8.468
 2662POPC   C3B37473  17.148  21.908   8.035
 2662POPC   C4B37474  16.828  22.111   7.794
 2663POPC   NC337475   1.521   4.261   9.477
 2663POPC   PO437476   2.137   4.352   9.655
 2663POPC   GL137477   2.077   4.507   9.209
 2663POPC   GL237478   1.793   4.338   9.040
 2663POPC   C1A37479   2.083   4.737   8.811
 2663POPC   D2A37480   1.946   4.617   8.371
 2663POPC   C3A37481   2.216   4.740   7.987
 2663POPC   C4A37482   2.033   4.712   7.532
 2663POPC   C1B37483   1.858   4.115   8.665
 2663POPC   C2B37484   1.647   4.156   8.280
 2663POPC   C3B37485   1.621   4.456   7.973
 2663POPC   C4B37486   1.982   4.320   7.844
 2664POPC   NC337487  27.556  13.972   9.860
 2664POPC   PO437488  27.490  14.562   9.567
 2664POPC   GL137489  27.372  14.361   9.181
 2664POPC   GL237490  27.678  14.479   9.034
 2664POPC   C1A37491  27.244  14.313   8.741
 2664POPC   D2A37492  27.168  14.172   8.313
 2664POPC   C3A37493  27.371  14.359   7.945
 2664POPC   C4A37494  27.588  14.235   7.534
 2664POPC   C1B37495  27.777  14.205   8.691
 2664POPC   C2B37496  27.766  14.239   8.239
 2664POPC   C3B37497  27.898  14.474   7.856
 2664POPC   C4B37498  27.948  14.544   7.381
 2665POPC   NC337499  33.204  26.828   9.584
 2665POPC   PO437500  32.694  26.831   9.374
 2665POPC   GL137501  33.065  26.793   9.066
 2665POPC   GL237502  33.342  27.016   9.122
 2665POPC   C1A37503  33.348  26.723   8.669
 2665POPC   D2A37504  33.489  26.760   8.200
 2665POPC   C3A37505  33.130  26.748   7.872
 2665POPC   C4A37506  32.966  26.794   7.453
 2665POPC   C1B37507  33.302  27.231   8.718
 2665POPC   C2B37508  33.521  27.264   8.311
 2665POPC   C3B37509  33.368  27.188   7.888
 2665POPC   C4B37510  33.400  27.183   7.437
 2666POPC   NC337511   8.856  21.011   9.551
 2666POPC   PO437512   8.954  20.386   9.503
 2666POPC   GL137513   9.082  20.673   9.210
 2666POPC   GL237514   8.761  20.817   9.066
 2666POPC   C1A37515   9.139  20.646   8.770
 2666POPC   D2A37516   8.842  20.520   8.431
 2666POPC   C3A37517   9.067  20.517   8.051
 2666POPC   C4A37518   9.187  20.498   7.602
 2666POPC   C1B37519   8.753  21.001   8.631
 2666POPC   C2B37520   8.692  20.947   8.160
 2666POPC   C3B37521   8.742  20.722   7.728
 2666POPC   C4B37522   8.598  20.754   7.274
 2667POPC   NC337523  22.349  41.873   9.605
 2667POPC   PO437524  21.764  41.388   9.611
 2667POPC   GL137525  22.099  41.416   9.290
 2667POPC   GL237526  21.997  41.754   9.222
 2667POPC   C1A37527  22.317  41.275   8.868
 2667POPC   D2A37528  22.204  41.304   8.405
 2667POPC   C3A37529  22.432  41.256   8.014
 2667POPC   C4A37530  22.277  41.375   7.606
 2667POPC   C1B37531  21.928  41.612   8.803
 2667POPC   C2B37532  22.039  41.814   8.389
 2667POPC   C3B37533  22.241  41.762   7.963
 2667POPC   C4B37534  21.979  41.814   7.584
 2668POPC   NC337535  29.441  31.854   9.554
 2668POPC   PO437536  29.161  32.489   9.531
 2668POPC   GL137537  29.236  32.286   9.194
 2668POPC   GL237538  29.310  32.559   9.010
 2668POPC   C1A37539  28.990  32.191   8.838
 2668POPC   D2A37540  28.784  32.100   8.479
 2668POPC   C3A37541  29.010  32.068   8.073
 2668POPC   C4A37542  29.135  32.299   7.750
 2668POPC   C1B37543  29.375  32.503   8.604
 2668POPC   C2B37544  29.270  32.552   8.177
 2668POPC   C3B37545  29.455  32.717   7.769
 2668POPC   C4B37546  29.488  32.565   7.309
 2669POPC   NC337547  32.885  22.094   9.462
 2669POPC   PO437548  33.541  22.103   9.390
 2669POPC   GL137549  33.246  21.935   9.089
 2669POPC   GL237550  33.100  22.268   9.054
 2669POPC   C1A37551  32.933  21.890   8.730
 2669POPC   D2A37552  32.770  21.765   8.302
 2669POPC   C3A37553  32.843  22.091   8.022
 2669POPC   C4A37554  33.053  22.186   7.689
 2669POPC   C1B37555  32.730  22.358   8.837
 2669POPC   C2B37556  32.740  22.411   8.403
 2669POPC   C3B37557  32.566  22.540   8.019
 2669POPC   C4B37558  32.552  22.341   7.657
 2670POPC   NC337559   3.549  41.110   9.226
 2670POPC   PO437560   3.466  40.488   9.454
 2670POPC   GL137561   3.450  40.361   9.043
 2670POPC   GL237562   3.295  40.687   9.005
 2670POPC   C1A37563   3.651  40.480   8.658
 2670POPC   D2A37564   3.809  40.892   8.477
 2670POPC   C3A37565   3.822  40.943   8.029
 2670POPC   C4A37566   3.471  40.950   7.760
 2670POPC   C1B37567   3.283  40.840   8.592
 2670POPC   C2B37568   3.289  40.712   8.175
 2670POPC   C3B37569   3.093  40.564   7.782
 2670POPC   C4B37570   2.987  40.649   7.288
 2671POPC   NC337571   0.961  16.032   9.510
 2671POPC   PO437572   1.650  16.218   9.414
 2671POPC   GL137573   1.361  16.039   9.175
 2671POPC   GL237574   1.272  15.684   9.227
 2671POPC   C1A37575   1.260  15.982   8.769
 2671POPC   D2A37576   1.366  15.920   8.359
 2671POPC   C3A37577   1.163  16.204   8.072
 2671POPC   C4A37578   1.149  16.063   7.643
 2671POPC   C1B37579   0.908  15.653   8.911
 2671POPC   C2B37580   0.932  15.640   8.455
 2671POPC   C3B37581   0.971  15.690   7.998
 2671POPC   C4B37582   0.617  15.737   7.696
 2672POPC   NC337583  44.336   5.022   9.575
 2672POPC   PO437584  44.904   5.178   9.336
 2672POPC   GL137585  44.654   4.889   9.071
 2672POPC   GL237586  44.279   4.839   9.120
 2672POPC   C1A37587  44.644   4.896   8.603
 2672POPC   D2A37588  44.463   5.128   8.240
 2672POPC   C3A37589  44.718   5.090   7.873
 2672POPC   C4A37590  44.935   5.337   7.592
 2672POPC   C1B37591  44.201   4.685   8.729
 2672POPC   C2B37592  44.273   4.629   8.281
 2672POPC   C3B37593  44.281   4.793   7.859
 2672POPC   C4B37594  44.347   5.077   7.521
 2673POPC   NC337595  36.807   9.837   9.684
 2673POPC   PO437596  36.646   9.341   9.226
 2673POPC   GL137597  36.786   9.765   9.146
 2673POPC   GL237598  36.547  10.008   9.284
 2673POPC   C1A37599  36.842   9.836   8.695
 2673POPC   D2A37600  36.821   9.652   8.286
 2673POPC   C3A37601  37.093   9.762   7.952
 2673POPC   C4A37602  37.211   9.426   7.706
 2673POPC   C1B37603  36.455  10.072   8.906
 2673POPC   C2B37604  36.442  10.139   8.510
 2673POPC   C3B37605  36.423   9.922   8.174
 2673POPC   C4B37606  36.663  10.018   7.835
 2674POPC   NC337607  29.003   7.251   9.474
 2674POPC   PO437608  28.883   7.822   9.137
 2674POPC   GL137609  29.266   7.563   9.084
 2674POPC   GL237610  29.526   7.895   9.118
 2674POPC   C1A37611  29.248   7.324   8.741
 2674POPC   D2A37612  29.050   7.546   8.395
 2674POPC   C3A37613  29.117   7.300   8.054
 2674POPC   C4A37614  29.225   7.409   7.622
 2674POPC   C1B37615  29.521   7.771   8.714
 2674POPC   C2B37616  29.569   7.546   8.371
 2674POPC   C3B37617  29.467   7.702   7.981
 2674POPC   C4B37618  29.403   7.894   7.582
 2675POPC   NC337619  12.616  24.315   9.584
 2675POPC   PO437620  13.241  24.589   9.587
 2675POPC   GL137621  13.034  24.555   9.195
 2675POPC   GL237622  12.692  24.665   9.211
 2675POPC   C1A37623  12.922  24.683   8.765
 2675POPC   D2A37624  13.050  24.740   8.355
 2675POPC   C3A37625  13.220  24.398   8.111
 2675POPC   C4A37626  13.089  24.453   7.706
 2675POPC   C1B37627  12.456  24.472   8.873
 2675POPC   C2B37628  12.572  24.303   8.472
 2675POPC   C3B37629  12.683  24.477   8.074
 2675POPC   C4B37630  12.605  24.632   7.671
 2676POPC   NC337631  13.390   5.007   9.447
 2676POPC   PO437632  13.830   5.515   9.639
 2676POPC   GL137633  13.691   5.351   9.233
 2676POPC   GL237634  13.356   5.449   9.146
 2676POPC   C1A37635  13.805   5.141   8.854
 2676POPC   D2A37636  13.818   5.230   8.427
 2676POPC   C3A37637  13.658   5.062   8.065
 2676POPC   C4A37638  13.736   5.094   7.648
 2676POPC   C1B37639  13.434   5.466   8.702
 2676POPC   C2B37640  13.349   5.414   8.265
 2676POPC   C3B37641  13.361   5.428   7.827
 2676POPC   C4B37642  13.199   5.030   7.698
 2677POPC   NC337643  29.565   4.809   9.313
 2677POPC   PO437644  30.069   5.198   9.624
 2677POPC   GL137645  30.027   5.333   9.187
 2677POPC   GL237646  29.694   5.312   9.091
 2677POPC   C1A37647  30.040   5.135   8.758
 2677POPC   D2A37648  30.138   5.100   8.316
 2677POPC   C3A37649  29.784   4.894   8.113
 2677POPC   C4A37650  29.711   4.752   7.715
 2677POPC   C1B37651  29.458   5.245   8.758
 2677POPC   C2B37652  29.673   5.295   8.423
 2677POPC   C3B37653  29.577   5.349   8.047
 2677POPC   C4B37654  29.891   5.259   7.771
 2678POPC   NC337655   6.416  36.744   9.723
 2678POPC   PO437656   6.849  37.206   9.443
 2678POPC   GL137657   6.622  37.033   9.153
 2678POPC   GL237658   6.555  36.702   9.227
 2678POPC   C1A37659   6.802  36.841   8.772
 2678POPC   D2A37660   6.867  36.703   8.362
 2678POPC   C3A37661   6.856  36.997   8.029
 2678POPC   C4A37662   6.962  36.796   7.667
 2678POPC   C1B37663   6.314  36.752   8.849
 2678POPC   C2B37664   6.351  36.583   8.420
 2678POPC   C3B37665   6.427  36.768   8.032
 2678POPC   C4B37666   6.476  36.666   7.638
 2679POPC   NC337667  16.176  17.940   9.555
 2679POPC   PO437668  16.857  18.299   9.528
 2679POPC   GL137669  16.972  18.190   9.104
 2679POPC   GL237670  17.044  17.852   8.992
 2679POPC   C1A37671  16.920  18.412   8.718
 2679POPC   D2A37672  16.789  18.652   8.365
 2679POPC   C3A37673  16.724  18.469   7.959
 2679POPC   C4A37674  16.544  18.541   7.583
 2679POPC   C1B37675  16.734  17.930   8.715
 2679POPC   C2B37676  16.778  18.111   8.327
 2679POPC   C3B37677  16.896  17.982   7.925
 2679POPC   C4B37678  16.625  18.019   7.598
 2680POPC   NC337679  31.187  19.232   9.635
 2680POPC   PO437680  31.680  18.721   9.569
 2680POPC   GL137681  31.701  18.861   9.161
 2680POPC   GL237682  31.457  19.078   9.220
 2680POPC   C1A37683  31.747  19.026   8.733
 2680POPC   D2A37684  31.597  18.937   8.289
 2680POPC   C3A37685  31.741  18.985   7.842
 2680POPC   C4A37686  31.938  18.778   7.465
 2680POPC   C1B37687  31.254  18.960   8.836
 2680POPC   C2B37688  31.143  19.141   8.421
 2680POPC   C3B37689  31.209  19.115   7.962
 2680POPC   C4B37690  31.020  18.843   7.658
 2681POPC   NC337691  30.243  40.031   9.797
 2681POPC   PO437692  30.782  40.216   9.586
 2681POPC   GL137693  30.547  40.076   9.219
 2681POPC   GL237694  30.746  40.301   9.043
 2681POPC   C1A37695  30.572  39.946   8.738
 2681POPC   D2A37696  30.721  40.230   8.364
 2681POPC   C3A37697  30.850  40.046   7.928
 2681POPC   C4A37698  30.790  39.844   7.475
 2681POPC   C1B37699  30.343  40.385   8.836
 2681POPC   C2B37700  30.222  40.429   8.397
 2681POPC   C3B37701  30.455  40.467   7.996
 2681POPC   C4B37702  30.447  40.181   7.650
 2682POPC   NC337703  20.164  17.879   9.338
 2682POPC   PO437704  19.606  18.145   9.644
 2682POPC   GL137705  19.789  18.254   9.204
 2682POPC   GL237706  20.107  18.271   9.033
 2682POPC   C1A37707  19.644  18.404   8.769
 2682POPC   D2A37708  19.410  18.457   8.347
 2682POPC   C3A37709  19.553  18.301   7.956
 2682POPC   C4A37710  19.792  18.495   7.670
 2682POPC   C1B37711  20.131  18.340   8.611
 2682POPC   C2B37712  19.959  18.392   8.249
 2682POPC   C3B37713  20.145  18.227   7.911
 2682POPC   C4B37714  20.284  18.329   7.530
 2683POPC   NC337715  13.690  17.747   9.397
 2683POPC   PO437716  13.455  17.113   9.508
 2683POPC   GL137717  13.446  17.308   9.121
 2683POPC   GL237718  13.752  17.476   8.967
 2683POPC   C1A37719  13.404  17.209   8.705
 2683POPC   D2A37720  13.596  17.405   8.363
 2683POPC   C3A37721  13.663  17.254   7.968
 2683POPC   C4A37722  14.017  17.363   7.758
 2683POPC   C1B37723  13.952  17.722   8.621
 2683POPC   C2B37724  13.890  17.789   8.162
 2683POPC   C3B37725  14.177  17.830   7.817
 2683POPC   C4B37726  14.103  17.709   7.368
 2684POPC   NC337727  25.420  20.591   9.768
 2684POPC   PO437728  25.384  21.035   9.254
 2684POPC   GL137729  25.159  20.743   9.065
 2684POPC   GL237730  24.816  20.879   9.066
 2684POPC   C1A37731  25.358  20.780   8.638
 2684POPC   D2A37732  25.711  20.912   8.362
 2684POPC   C3A37733  25.592  20.642   8.018
 2684POPC   C4A37734  25.326  20.736   7.695
 2684POPC   C1B37735  24.849  20.595   8.694
 2684POPC   C2B37736  25.004  20.661   8.258
 2684POPC   C3B37737  24.851  20.809   7.871
 2684POPC   C4B37738  24.882  20.501   7.520
 2685POPC   NC337739  27.920  43.192   9.512
 2685POPC   PO437740  27.453  42.738   9.564
 2685POPC   GL137741  27.598  42.975   9.194
 2685POPC   GL237742  27.795  42.709   9.159
 2685POPC   C1A37743  27.815  43.167   8.804
 2685POPC   D2A37744  27.670  43.279   8.366
 2685POPC   C3A37745  27.818  43.185   7.921
 2685POPC   C4A37746  27.549  43.160   7.525
 2685POPC   C1B37747  27.578  42.688   8.772
 2685POPC   C2B37748  27.578  42.740   8.310
 2685POPC   C3B37749  27.473  42.775   7.854
 2685POPC   C4B37750  27.423  42.692   7.392
 2686POPC   NC337751  38.025  40.541   9.639
 2686POPC   PO437752  37.487  40.886   9.455
 2686POPC   GL137753  37.604  40.976   9.054
 2686POPC   GL237754  37.400  40.726   8.943
 2686POPC   C1A37755  37.801  40.858   8.651
 2686POPC   D2A37756  37.835  40.977   8.243
 2686POPC   C3A37757  37.513  40.967   7.983
 2686POPC   C4A37758  37.625  40.808   7.597
 2686POPC   C1B37759  37.347  40.639   8.525
 2686POPC   C2B37760  37.375  40.363   8.205
 2686POPC   C3B37761  37.286  40.530   7.825
 2686POPC   C4B37762  37.091  40.625   7.452
 2687POPC   NC337763  20.202  24.388   9.220
 2687POPC   PO437764  20.727  24.120   9.674
 2687POPC   GL137765  20.890  24.193   9.235
 2687POPC   GL237766  20.589  24.100   9.084
 2687POPC   C1A37767  20.826  24.461   8.816
 2687POPC   D2A37768  20.503  24.672   8.530
 2687POPC   C3A37769  20.613  24.666   8.070
 2687POPC   C4A37770  20.414  24.722   7.663
 2687POPC   C1B37771  20.439  24.165   8.651
 2687POPC   C2B37772  20.244  24.256   8.267
 2687POPC   C3B37773  20.318  24.227   7.865
 2687POPC   C4B37774  20.685  24.156   7.706
 2688POPC   NC337775   3.174  39.415   9.461
 2688POPC   PO437776   3.715  39.008   9.596
 2688POPC   GL137777   3.547  39.151   9.199
 2688POPC   GL237778   3.390  38.848   9.107
 2688POPC   C1A37779   3.651  39.370   8.800
 2688POPC   D2A37780   3.760  39.638   8.431
 2688POPC   C3A37781   3.766  39.389   8.034
 2688POPC   C4A37782   3.502  39.446   7.678
 2688POPC   C1B37783   3.646  38.799   8.761
 2688POPC   C2B37784   3.626  39.022   8.385
 2688POPC   C3B37785   3.515  38.927   7.968
 2688POPC   C4B37786   3.318  38.984   7.586
 2689POPC   NC337787  18.567  36.292   9.472
 2689POPC   PO437788  19.146  35.964   9.486
 2689POPC   GL137789  19.269  36.268   9.194
 2689POPC   GL237790  18.978  36.455   9.197
 2689POPC   C1A37791  19.112  36.176   8.779
 2689POPC   D2A37792  18.980  35.911   8.459
 2689POPC   C3A37793  19.258  36.061   8.173
 2689POPC   C4A37794  19.222  36.077   7.733
 2689POPC   C1B37795  18.852  36.624   8.779
 2689POPC   C2B37796  18.869  36.412   8.373
 2689POPC   C3B37797  18.799  36.202   7.993
 2689POPC   C4B37798  18.821  36.573   7.746
 2690POPC   NC337799   4.329  41.602   9.649
 2690POPC   PO437800   3.727  41.334   9.601
 2690POPC   GL137801   4.028  41.577   9.218
 2690POPC   GL237802   4.413  41.560   9.157
 2690POPC   C1A37803   4.181  41.739   8.757
 2690POPC   D2A37804   4.203  41.493   8.340
 2690POPC   C3A37805   4.378  41.705   7.951
 2690POPC   C4A37806   4.310  41.601   7.512
 2690POPC   C1B37807   4.560  41.408   8.739
 2690POPC   C2B37808   4.708  41.598   8.360
 2690POPC   C3B37809   4.879  41.517   7.960
 2690POPC   C4B37810   4.815  41.276   7.625
 2691POPC   NC337811  33.482  43.305   5.269
 2691POPC   PO437812  32.944  42.918   5.397
 2691POPC   GL137813  32.897  43.091   5.778
 2691POPC   GL237814  33.053  43.435   5.706
 2691POPC   C1A37815  32.979  43.016   6.200
 2691POPC   D2A37816  33.216  43.163   6.543
 2691POPC   C3A37817  33.021  43.071   6.926
 2691POPC   C4A37818  33.229  43.332   7.237
 2691POPC   C1B37819  32.843  43.493   6.105
 2691POPC   C2B37820  32.733  43.330   6.533
 2691POPC   C3B37821  32.836  43.531   6.945
 2691POPC   C4B37822  32.738  43.499   7.373
 2692POPC   NC337823  17.572  34.858   5.645
 2692POPC   PO437824  17.371  34.287   5.427
 2692POPC   GL137825  17.301  34.475   5.874
 2692POPC   GL237826  17.233  34.835   5.997
 2692POPC   C1A37827  17.539  34.491   6.296
 2692POPC   D2A37828  17.491  34.358   6.748
 2692POPC   C3A37829  17.831  34.380   7.035
 2692POPC   C4A37830  17.953  34.649   7.388
 2692POPC   C1B37831  17.256  34.898   6.432
 2692POPC   C2B37832  17.560  34.879   6.755
 2692POPC   C3B37833  17.480  34.735   7.149
 2692POPC   C4B37834  17.157  34.385   7.148
 2693POPC   NC337835  42.568  14.052   5.088
 2693POPC   PO437836  42.188  13.496   5.257
 2693POPC   GL137837  42.233  13.584   5.671
 2693POPC   GL237838  42.482  13.874   5.679
 2693POPC   C1A37839  42.429  13.485   6.070
 2693POPC   D2A37840  42.536  13.506   6.518
 2693POPC   C3A37841  42.245  13.428   6.873
 2693POPC   C4A37842  42.334  13.292   7.293
 2693POPC   C1B37843  42.147  13.960   6.028
 2693POPC   C2B37844  42.046  13.839   6.479
 2693POPC   C3B37845  42.234  13.945   6.891
 2693POPC   C4B37846  42.518  13.752   7.219
 2694POPC   NC337847  17.910  41.820   5.463
 2694POPC   PO437848  17.310  41.492   5.522
 2694POPC   GL137849  17.364  41.791   5.868
 2694POPC   GL237850  17.741  41.880   5.937
 2694POPC   C1A37851  17.415  41.802   6.308
 2694POPC   D2A37852  17.769  41.886   6.566
 2694POPC   C3A37853  17.605  41.632   6.878
 2694POPC   C4A37854  17.290  41.526   7.189
 2694POPC   C1B37855  17.758  41.446   6.112
 2694POPC   C2B37856  17.974  41.294   6.503
 2694POPC   C3B37857  18.023  41.347   6.949
 2694POPC   C4B37858  17.767  41.422   7.344
 2695POPC   NC337859   7.262  40.630   5.160
 2695POPC   PO437860   7.609  41.141   5.305
 2695POPC   GL137861   7.582  40.769   5.628
 2695POPC   GL237862   7.233  40.715   5.710
 2695POPC   C1A37863   7.720  40.712   6.100
 2695POPC   D2A37864   7.610  40.969   6.489
 2695POPC   C3A37865   7.625  40.820   6.938
 2695POPC   C4A37866   7.798  40.393   7.047
 2695POPC   C1B37867   7.236  40.564   6.158
 2695POPC   C2B37868   7.470  40.479   6.555
 2695POPC   C3B37869   7.290  40.384   6.950
 2695POPC   C4B37870   7.168  40.692   7.219
 2696POPC   NC337871  44.238  39.222   5.240
 2696POPC   PO437872  43.715  39.470   5.421
 2696POPC   GL137873  43.553  39.343   5.819
 2696POPC   GL237874  43.570  38.984   5.929
 2696POPC   C1A37875  43.706  39.433   6.230
 2696POPC   D2A37876  43.842  39.574   6.626
 2696POPC   C3A37877  44.178  39.339   6.792
 2696POPC   C4A37878  44.163  39.328   7.205
 2696POPC   C1B37879  43.527  38.966   6.359
 2696POPC   C2B37880  43.772  39.037   6.669
 2696POPC   C3B37881  43.692  39.248   7.027
 2696POPC   C4B37882  43.706  39.160   7.454
 2697POPC   NC337883  16.358  10.445   5.432
 2697POPC   PO437884  16.944  10.809   5.430
 2697POPC   GL137885  16.921  10.617   5.847
 2697POPC   GL237886  16.602  10.767   5.932
 2697POPC   C1A37887  16.841  10.382   6.276
 2697POPC   D2A37888  16.596  10.180   6.647
 2697POPC   C3A37889  16.546  10.476   7.018
 2697POPC   C4A37890  16.715  10.680   7.406
 2697POPC   C1B37891  16.886  10.919   6.270
 2697POPC   C2B37892  17.134  11.004   6.618
 2697POPC   C3B37893  17.093  10.818   7.014
 2697POPC   C4B37894  17.139  10.984   7.388
 2698POPC   NC337895  39.666  34.924   5.471
 2698POPC   PO437896  40.122  34.366   5.379
 2698POPC   GL137897  39.980  34.574   5.785
 2698POPC   GL237898  39.609  34.566   5.844
 2698POPC   C1A37899  40.168  34.578   6.233
 2698POPC   D2A37900  40.162  34.741   6.678
 2698POPC   C3A37901  39.956  34.530   7.050
 2698POPC   C4A37902  39.735  34.252   7.338
 2698POPC   C1B37903  39.702  34.749   6.269
 2698POPC   C2B37904  39.671  34.903   6.738
 2698POPC   C3B37905  39.884  35.028   7.137
 2698POPC   C4B37906  39.923  34.828   7.579
 2699POPC   NC337907  21.725  38.118   5.169
 2699POPC   PO437908  21.179  38.317   5.462
 2699POPC   GL137909  21.336  38.242   5.821
 2699POPC   GL237910  21.656  38.261   5.719
 2699POPC   C1A37911  21.251  38.479   6.179
 2699POPC   D2A37912  21.071  38.479   6.553
 2699POPC   C3A37913  21.358  38.436   6.868
 2699POPC   C4A37914  21.281  38.676   7.173
 2699POPC   C1B37915  21.700  38.226   6.176
 2699POPC   C2B37916  21.724  38.182   6.605
 2699POPC   C3B37917  21.874  38.308   6.978
 2699POPC   C4B37918  21.678  38.434   7.339
 2700POPC   NC337919   9.030  11.558   5.464
 2700POPC   PO437920   8.649  11.058   5.490
 2700POPC   GL137921   8.970  11.177   5.855
 2700POPC   GL237922   9.130  11.517   5.957
 2700POPC   C1A37923   9.237  11.130   6.256
 2700POPC   D2A37924   9.199  11.381   6.625
 2700POPC   C3A37925   9.126  11.166   7.016
 2700POPC   C4A37926   9.131  11.240   7.465
 2700POPC   C1B37927   8.798  11.435   6.288
 2700POPC   C2B37928   8.703  11.381   6.739
 2700POPC   C3B37929   8.872  11.598   7.131
 2700POPC   C4B37930   8.948  11.715   7.577
 2701POPC   NC337931  22.744   4.055   5.170
 2701POPC   PO437932  23.269   3.773   5.446
 2701POPC   GL137933  23.166   3.560   5.865
 2701POPC   GL237934  22.785   3.588   5.909
 2701POPC   C1A37935  23.043   3.491   6.329
 2701POPC   D2A37936  22.756   3.263   6.622
 2701POPC   C3A37937  22.790   3.410   7.057
 2701POPC   C4A37938  23.020   3.798   7.202
 2701POPC   C1B37939  22.547   3.641   6.325
 2701POPC   C2B37940  22.593   3.790   6.781
 2701POPC   C3B37941  22.510   3.823   7.232
 2701POPC   C4B37942  22.387   3.648   7.636
 2702POPC   NC337943  10.560  35.855   5.275
 2702POPC   PO437944  10.832  36.442   5.205
 2702POPC   GL137945  10.727  36.258   5.667
 2702POPC   GL237946  10.584  35.941   5.782
 2702POPC   C1A37947  10.534  36.326   6.119
 2702POPC   D2A37948  10.661  36.315   6.584
 2702POPC   C3A37949  10.435  36.168   6.975
 2702POPC   C4A37950  10.567  36.066   7.404
 2702POPC   C1B37951  10.597  35.812   6.232
 2702POPC   C2B37952  10.567  35.761   6.675
 2702POPC   C3B37953  10.528  35.654   7.107
 2702POPC   C4B37954  10.159  35.748   7.370
 2703POPC   NC337955  16.839   4.251   5.203
 2703POPC   PO437956  16.836   3.530   5.373
 2703POPC   GL137957  16.831   3.393   5.777
 2703POPC   GL237958  16.565   3.127   5.790
 2703POPC   C1A37959  17.103   3.495   6.150
 2703POPC   D2A37960  17.125   3.591   6.597
 2703POPC   C3A37961  16.797   3.720   6.912
 2703POPC   C4A37962  16.462   3.552   7.146
 2703POPC   C1B37963  16.642   3.284   6.234
 2703POPC   C2B37964  16.476   3.339   6.664
 2703POPC   C3B37965  16.455   3.050   7.028
 2703POPC   C4B37966  16.503   3.171   7.474
 2704POPC   NC337967  30.887  43.441   5.458
 2704POPC   PO437968  30.380  43.017   5.378
 2704POPC   GL137969  30.607  43.019   5.772
 2704POPC   GL237970  30.977  43.021   5.802
 2704POPC   C1A37971  30.433  43.063   6.183
 2704POPC   D2A37972  30.522  42.913   6.589
 2704POPC   C3A37973  30.557  43.194   6.927
 2704POPC   C4A37974  30.532  43.263   7.351
 2704POPC   C1B37975  30.939  42.938   6.249
 2704POPC   C2B37976  31.008  43.123   6.691
 2704POPC   C3B37977  31.031  43.128   7.169
 2704POPC   C4B37978  30.957  43.246   7.596
 2705POPC   NC337979  14.318   0.790   5.614
 2705POPC   PO437980  14.253   0.098   5.389
 2705POPC   GL137981  14.401   0.290   5.778
 2705POPC   GL237982  14.065   0.392   5.810
 2705POPC   C1A37983  14.661   0.395   6.183
 2705POPC   D2A37984  14.726   0.629   6.553
 2705POPC   C3A37985  14.713   0.456   6.967
 2705POPC   C4A37986  14.405   0.719   7.207
 2705POPC   C1B37987  14.180   0.467   6.236
 2705POPC   C2B37988  14.350   0.260   6.646
 2705POPC   C3B37989  14.267   0.227   7.118
 2705POPC   C4B37990  14.261  44.883   7.430
 2706POPC   NC337991   9.689  41.912   5.476
 2706POPC   PO437992   9.791  42.544   5.239
 2706POPC   GL137993   9.596  42.434   5.698
 2706POPC   GL237994   9.526  42.133   5.898
 2706POPC   C1A37995   9.753  42.464   6.182
 2706POPC   D2A37996   9.910  42.356   6.586
 2706POPC   C3A37997   9.709  42.557   6.920
 2706POPC   C4A37998   9.372  42.465   7.188
 2706POPC   C1B37999   9.595  41.964   6.348
 2706POPC   C2B38000   9.705  41.944   6.839
 2706POPC   C3B38001   9.861  42.137   7.256
 2706POPC   C4B38002   9.964  41.996   7.723
 2707POPC   NC338003  13.133   4.120   5.391
 2707POPC   PO438004  12.471   4.011   5.552
 2707POPC   GL138005  12.801   4.184   5.830
 2707POPC   GL238006  13.187   4.242   5.893
 2707POPC   C1A38007  12.775   4.353   6.220
 2707POPC   D2A38008  12.847   4.166   6.610
 2707POPC   C3A38009  12.741   4.430   6.968
 2707POPC   C4A38010  12.672   4.392   7.397
 2707POPC   C1B38011  13.233   4.600   6.169
 2707POPC   C2B38012  13.074   4.643   6.555
 2707POPC   C3B38013  13.218   4.410   6.891
 2707POPC   C4B38014  13.217   4.319   7.299
 2708POPC   NC338015  24.832  10.236   5.455
 2708POPC   PO438016  24.993   9.674   5.138
 2708POPC   GL138017  25.254   9.662   5.596
 2708POPC   GL238018  25.331  10.000   5.774
 2708POPC   C1A38019  25.363   9.589   6.087
 2708POPC   D2A38020  25.280   9.822   6.481
 2708POPC   C3A38021  25.351   9.619   6.871
 2708POPC   C4A38022  25.537   9.633   7.259
 2708POPC   C1B38023  24.960   9.947   6.089
 2708POPC   C2B38024  24.792   9.957   6.556
 2708POPC   C3B38025  25.027  10.008   6.977
 2708POPC   C4B38026  25.476  10.095   7.093
 2709POPC   NC338027   3.532  22.526   5.287
 2709POPC   PO438028   3.747  21.859   5.380
 2709POPC   GL138029   3.618  22.169   5.683
 2709POPC   GL238030   3.296  22.031   5.817
 2709POPC   C1A38031   3.767  22.373   6.082
 2709POPC   D2A38032   3.745  22.208   6.517
 2709POPC   C3A38033   3.512  22.302   6.889
 2709POPC   C4A38034   3.781  22.264   7.194
 2709POPC   C1B38035   3.514  21.924   6.169
 2709POPC   C2B38036   3.279  21.989   6.548
 2709POPC   C3B38037   3.256  21.838   6.948
 2709POPC   C4B38038   3.470  21.891   7.332
 2710POPC   NC338039  35.235  28.651   5.520
 2710POPC   PO438040  35.039  29.272   5.446
 2710POPC   GL138041  35.268  29.137   5.783
 2710POPC   GL238042  35.058  28.901   5.944
 2710POPC   C1A38043  35.486  29.305   6.145
 2710POPC   D2A38044  35.514  29.597   6.501
 2710POPC   C3A38045  35.438  29.369   6.902
 2710POPC   C4A38046  35.027  29.168   7.062
 2710POPC   C1B38047  35.471  28.727   6.105
 2710POPC   C2B38048  35.623  28.794   6.511
 2710POPC   C3B38049  35.393  28.848   6.881
 2710POPC   C4B38050  35.486  28.917   7.312
 2711POPC   NC338051   8.272  38.578   5.346
 2711POPC   PO438052   7.655  38.525   5.096
 2711POPC   GL138053   7.837  38.538   5.633
 2711POPC   GL238054   8.159  38.712   5.812
 2711POPC   C1A38055   7.934  38.415   6.118
 2711POPC   D2A38056   8.183  38.527   6.485
 2711POPC   C3A38057   8.040  38.446   6.878
 2711POPC   C4A38058   7.971  38.468   7.306
 2711POPC   C1B38059   8.381  38.883   6.172
 2711POPC   C2B38060   8.625  38.791   6.549
 2711POPC   C3B38061   8.500  38.758   6.975
 2711POPC   C4B38062   8.700  38.738   7.373
 2712POPC   NC338063  25.634  22.946   5.550
 2712POPC   PO438064  24.997  22.695   5.358
 2712POPC   GL138065  25.108  22.864   5.766
 2712POPC   GL238066  25.414  22.758   5.960
 2712POPC   C1A38067  25.018  22.998   6.203
 2712POPC   D2A38068  25.264  22.858   6.583
 2712POPC   C3A38069  25.178  23.004   7.001
 2712POPC   C4A38070  24.831  22.760   7.212
 2712POPC   C1B38071  25.543  23.114   6.231
 2712POPC   C2B38072  25.732  23.063   6.643
 2712POPC   C3B38073  25.630  22.760   6.969
 2712POPC   C4B38074  25.304  22.527   7.148
 2713POPC   NC338075  31.340  42.752   5.353
 2713POPC   PO438076  30.772  42.328   5.499
 2713POPC   GL138077  30.820  42.528   5.877
 2713POPC   GL238078  31.177  42.550   5.818
 2713POPC   C1A38079  30.609  42.455   6.292
 2713POPC   D2A38080  30.592  42.099   6.618
 2713POPC   C3A38081  30.441  42.093   7.061
 2713POPC   C4A38082  30.378  42.393   7.423
 2713POPC   C1B38083  31.138  42.446   6.257
 2713POPC   C2B38084  30.944  42.610   6.638
 2713POPC   C3B38085  30.779  42.482   7.000
 2713POPC   C4B38086  31.084  42.420   7.308
 2714POPC   NC338087  16.944  11.249   5.314
 2714POPC   PO438088  16.406  11.629   5.294
 2714POPC   GL138089  16.554  11.358   5.643
 2714POPC   GL238090  16.742  11.593   5.797
 2714POPC   C1A38091  16.514  11.248   6.107
 2714POPC   D2A38092  16.662  11.309   6.548
 2714POPC   C3A38093  16.611  11.036   6.909
 2714POPC   C4A38094  16.445  11.143   7.315
 2714POPC   C1B38095  16.586  11.735   6.243
 2714POPC   C2B38096  16.707  11.809   6.713
 2714POPC   C3B38097  16.769  11.592   7.137
 2714POPC   C4B38098  16.656  11.560   7.596
 2715POPC   NC338099  32.648  41.653   5.419
 2715POPC   PO438100  32.050  41.298   5.472
 2715POPC   GL138101  32.270  41.560   5.794
 2715POPC   GL238102  32.543  41.365   5.899
 2715POPC   C1A38103  32.216  41.542   6.261
 2715POPC   D2A38104  32.207  41.754   6.654
 2715POPC   C3A38105  32.164  41.515   7.035
 2715POPC   C4A38106  32.275  41.739   7.394
 2715POPC   C1B38107  32.707  41.346   6.337
 2715POPC   C2B38108  32.568  41.287   6.762
 2715POPC   C3B38109  32.608  41.281   7.223
 2715POPC   C4B38110  32.471  41.349   7.665
 2716POPC   NC338111  18.254  25.846   5.210
 2716POPC   PO438112  18.520  26.391   5.505
 2716POPC   GL138113  18.292  26.159   5.866
 2716POPC   GL238114  18.115  25.872   5.720
 2716POPC   C1A38115  18.165  26.155   6.343
 2716POPC   D2A38116  17.981  26.176   6.795
 2716POPC   C3A38117  18.256  26.079   7.173
 2716POPC   C4A38118  18.657  25.859   7.305
 2716POPC   C1B38119  17.799  25.930   6.052
 2716POPC   C2B38120  17.738  25.780   6.478
 2716POPC   C3B38121  17.991  25.622   6.801
 2716POPC   C4B38122  18.031  25.609   7.238
 2717POPC   NC338123  23.566  35.519   5.376
 2717POPC   PO438124  23.679  34.811   5.164
 2717POPC   GL138125  23.786  35.057   5.641
 2717POPC   GL238126  23.773  35.396   5.810
 2717POPC   C1A38127  23.541  35.100   6.122
 2717POPC   D2A38128  23.674  35.095   6.594
 2717POPC   C3A38129  23.484  35.379   6.935
 2717POPC   C4A38130  23.472  35.543   7.409
 2717POPC   C1B38131  24.092  35.415   6.098
 2717POPC   C2B38132  24.140  35.208   6.467
 2717POPC   C3B38133  24.178  35.371   6.875
 2717POPC   C4B38134  24.248  35.400   7.296
 2718POPC   NC338135  20.160   7.157   5.546
 2718POPC   PO438136  20.595   7.645   5.272
 2718POPC   GL138137  20.732   7.626   5.704
 2718POPC   GL238138  20.600   7.310   5.755
 2718POPC   C1A38139  20.756   7.572   6.172
 2718POPC   D2A38140  20.675   7.383   6.588
 2718POPC   C3A38141  20.840   7.543   6.997
 2718POPC   C4A38142  20.737   7.586   7.443
 2718POPC   C1B38143  20.354   7.221   6.176
 2718POPC   C2B38144  20.220   7.123   6.619
 2718POPC   C3B38145  20.402   7.284   7.025
 2718POPC   C4B38146  20.356   7.234   7.467
 2719POPC   NC338147  35.503  22.610   5.344
 2719POPC   PO438148  35.137  23.178   5.492
 2719POPC   GL138149  35.436  23.049   5.801
 2719POPC   GL238150  35.600  22.711   5.836
 2719POPC   C1A38151  35.585  23.069   6.224
 2719POPC   D2A38152  35.543  22.816   6.586
 2719POPC   C3A38153  35.267  22.937   6.917
 2719POPC   C4A38154  35.335  23.224   7.218
 2719POPC   C1B38155  35.867  22.604   6.209
 2719POPC   C2B38156  35.745  22.346   6.578
 2719POPC   C3B38157  35.537  22.483   6.980
 2719POPC   C4B38158  35.559  22.769   7.345
 2720POPC   NC338159   1.087   8.771   5.388
 2720POPC   PO438160   1.740   8.846   5.472
 2720POPC   GL138161   1.479   9.085   5.790
 2720POPC   GL238162   1.118   9.134   5.756
 2720POPC   C1A38163   1.343   8.963   6.215
 2720POPC   D2A38164   0.986   8.745   6.470
 2720POPC   C3A38165   1.098   8.584   6.895
 2720POPC   C4A38166   1.403   8.748   7.189
 2720POPC   C1B38167   0.883   9.165   6.130
 2720POPC   C2B38168   1.055   9.271   6.525
 2720POPC   C3B38169   1.066   9.110   6.913
 2720POPC   C4B38170   0.949   8.987   7.310
 2721POPC   NC338171  12.463  37.520   5.402
 2721POPC   PO438172  11.918  37.963   5.486
 2721POPC   GL138173  12.148  37.779   5.752
 2721POPC   GL238174  12.393  38.007   5.804
 2721POPC   C1A38175  12.123  37.751   6.190
 2721POPC   D2A38176  11.859  37.813   6.562
 2721POPC   C3A38177  12.006  37.947   6.935
 2721POPC   C4A38178  11.970  37.641   7.252
 2721POPC   C1B38179  12.306  38.220   6.195
 2721POPC   C2B38180  12.405  37.991   6.569
 2721POPC   C3B38181  12.539  37.974   6.993
 2721POPC   C4B38182  12.325  37.969   7.369
 2722POPC   NC338183  41.112  33.825   5.522
 2722POPC   PO438184  40.477  33.440   5.504
 2722POPC   GL138185  40.766  33.558   5.791
 2722POPC   GL238186  41.082  33.380   5.787
 2722POPC   C1A38187  40.680  33.816   6.136
 2722POPC   D2A38188  40.416  33.695   6.474
 2722POPC   C3A38189  40.531  33.831   6.851
 2722POPC   C4A38190  40.784  33.819   7.205
 2722POPC   C1B38191  41.166  33.619   6.146
 2722POPC   C2B38192  40.968  33.693   6.537
 2722POPC   C3B38193  41.107  33.566   6.908
 2722POPC   C4B38194  41.280  33.696   7.309
 2723POPC   NC338195  29.780  17.318   5.435
 2723POPC   PO438196  30.306  17.754   5.336
 2723POPC   GL138197  30.052  17.721   5.713
 2723POPC   GL238198  29.823  17.952   5.629
 2723POPC   C1A38199  30.009  17.573   6.150
 2723POPC   D2A38200  30.214  17.598   6.541
 2723POPC   C3A38201  30.087  17.713   6.967
 2723POPC   C4A38202  29.859  17.550   7.335
 2723POPC   C1B38203  29.758  18.020   6.106
 2723POPC   C2B38204  29.771  17.923   6.599
 2723POPC   C3B38205  29.684  17.999   7.093
 2723POPC   C4B38206  29.620  17.930   7.586
 2724POPC   NC338207  29.980  40.910   5.424
 2724POPC   PO438208  30.393  41.360   5.766
 2724POPC   GL138209  30.081  41.023   5.929
 2724POPC   GL238210  29.964  40.679   5.874
 2724POPC   C1A38211  29.988  40.883   6.352
 2724POPC   D2A38212  30.142  41.070   6.728
 2724POPC   C3A38213  30.139  40.770   7.053
 2724POPC   C4A38214  30.227  40.795   7.512
 2724POPC   C1B38215  29.586  40.626   6.155
 2724POPC   C2B38216  29.364  40.571   6.553
 2724POPC   C3B38217  29.487  40.533   6.980
 2724POPC   C4B38218  29.776  40.564   7.330
 2725POPC   NC338219  43.317  12.642   5.516
 2725POPC   PO438220  42.883  13.127   5.522
 2725POPC   GL138221  42.944  12.789   5.840
 2725POPC   GL238222  42.659  12.592   5.925
 2725POPC   C1A38223  43.021  12.666   6.287
 2725POPC   D2A38224  43.247  12.848   6.639
 2725POPC   C3A38225  43.073  12.828   7.063
 2725POPC   C4A38226  43.278  12.945   7.468
 2725POPC   C1B38227  42.605  12.984   6.169
 2725POPC   C2B38228  42.744  13.040   6.589
 2725POPC   C3B38229  42.746  13.283   6.962
 2725POPC   C4B38230  42.830  13.196   7.377
 2726POPC   NC338231  29.604   1.009   5.249
 2726POPC   PO438232  30.188   1.292   5.587
 2726POPC   GL138233  29.848   1.339   5.831
 2726POPC   GL238234  29.721   1.023   5.769
 2726POPC   C1A38235  29.892   1.266   6.270
 2726POPC   D2A38236  29.840   1.525   6.628
 2726POPC   C3A38237  29.858   1.246   6.926
 2726POPC   C4A38238  30.034   1.176   7.295
 2726POPC   C1B38239  29.557   0.861   6.154
 2726POPC   C2B38240  29.667   0.730   6.551
 2726POPC   C3B38241  29.461   0.810   6.912
 2726POPC   C4B38242  29.533   1.040   7.278
 2727POPC   NC338243  13.274   0.902   5.436
 2727POPC   PO438244  13.935   0.867   5.365
 2727POPC   GL138245  13.765   1.056   5.763
 2727POPC   GL238246  13.412   1.174   5.842
 2727POPC   C1A38247  13.730   0.969   6.217
 2727POPC   D2A38248  13.776   1.142   6.646
 2727POPC   C3A38249  13.553   0.987   7.023
 2727POPC   C4A38250  13.685   0.770   7.400
 2727POPC   C1B38251  13.516   1.466   6.193
 2727POPC   C2B38252  13.530   1.593   6.630
 2727POPC   C3B38253  13.655   1.493   7.062
 2727POPC   C4B38254  13.533   1.259   7.468
 2728POPC   NC338255  22.611  39.369   5.532
 2728POPC   PO438256  23.025  38.845   5.348
 2728POPC   GL138257  22.970  39.062   5.742
 2728POPC   GL238258  23.102  39.406   5.762
 2728POPC   C1A38259  23.149  39.041   6.148
 2728POPC   D2A38260  23.257  39.248   6.522
 2728POPC   C3A38261  23.043  39.170   6.917
 2728POPC   C4A38262  23.050  38.987   7.324
 2728POPC   C1B38263  22.848  39.469   6.168
 2728POPC   C2B38264  22.868  39.597   6.616
 2728POPC   C3B38265  22.719  39.579   7.036
 2728POPC   C4B38266  22.596  39.174   7.197
 2729POPC   NC338267  12.439  15.059   5.426
 2729POPC   PO438268  12.026  15.657   5.396
 2729POPC   GL138269  12.170  15.392   5.701
 2729POPC   GL238270  11.859  15.298   5.854
 2729POPC   C1A38271  12.281  15.412   6.150
 2729POPC   D2A38272  12.126  15.539   6.561
 2729POPC   C3A38273  12.203  15.451   7.003
 2729POPC   C4A38274  12.073  15.299   7.417
 2729POPC   C1B38275  11.851  15.180   6.327
 2729POPC   C2B38276  11.809  15.152   6.817
 2729POPC   C3B38277  11.757  14.883   7.218
 2729POPC   C4B38278  11.680  14.482   7.466
 2730POPC   NC338279  17.250  31.932   5.419
 2730POPC   PO438280  17.910  31.983   5.167
 2730POPC   GL138281  17.707  32.159   5.605
 2730POPC   GL238282  17.687  32.532   5.690
 2730POPC   C1A38283  17.787  32.247   6.084
 2730POPC   D2A38284  17.806  32.152   6.525
 2730POPC   C3A38285  17.706  32.417   6.871
 2730POPC   C4A38286  17.796  32.189   7.209
 2730POPC   C1B38287  17.409  32.573   6.129
 2730POPC   C2B38288  17.292  32.396   6.545
 2730POPC   C3B38289  17.215  32.572   6.973
 2730POPC   C4B38290  17.293  32.309   7.317
 2731POPC   NC338291  43.649  38.983   5.441
 2731POPC   PO438292  43.688  38.257   5.377
 2731POPC   GL138293  43.791  38.536   5.719
 2731POPC   GL238294  43.865  38.220   5.885
 2731POPC   C1A38295  43.900  38.641   6.178
 2731POPC   D2A38296  44.147  38.557   6.569
 2731POPC   C3A38297  44.120  38.812   6.973
 2731POPC   C4A38298  43.849  38.674   7.274
 2731POPC   C1B38299  44.156  38.143   6.220
 2731POPC   C2B38300  44.003  37.995   6.613
 2731POPC   C3B38301  43.986  38.231   6.976
 2731POPC   C4B38302  44.235  38.215   7.319
 2732POPC   NC338303  34.202   0.602   5.328
 2732POPC   PO438304  34.511   1.167   5.210
 2732POPC   GL138305  34.461   1.074   5.639
 2732POPC   GL238306  34.607   1.372   5.782
 2732POPC   C1A38307  34.521   0.984   6.103
 2732POPC   D2A38308  34.746   1.164   6.465
 2732POPC   C3A38309  34.576   1.133   6.864
 2732POPC   C4A38310  34.316   1.062   7.220
 2732POPC   C1B38311  34.892   1.513   6.125
 2732POPC   C2B38312  35.074   1.566   6.546
 2732POPC   C3B38313  34.888   1.567   6.946
 2732POPC   C4B38314  34.686   1.384   7.305
 2733POPC   NC338315  28.338  15.938   5.499
 2733POPC   PO438316  27.727  16.145   5.622
 2733POPC   GL138317  27.944  15.931   5.925
 2733POPC   GL238318  28.283  16.079   5.979
 2733POPC   C1A38319  27.875  15.901   6.387
 2733POPC   D2A38320  27.983  15.881   6.832
 2733POPC   C3A38321  28.028  15.923   7.268
 2733POPC   C4A38322  28.367  16.134   7.469
 2733POPC   C1B38323  28.321  15.700   6.198
 2733POPC   C2B38324  28.397  15.650   6.628
 2733POPC   C3B38325  28.477  15.899   6.998
 2733POPC   C4B38326  28.666  15.720   7.367
 2734POPC   NC338327  11.893   1.756   5.632
 2734POPC   PO438328  11.854   2.457   5.464
 2734POPC   GL138329  11.753   2.225   5.860
 2734POPC   GL238330  12.093   2.170   5.880
 2734POPC   C1A38331  11.833   2.141   6.329
 2734POPC   D2A38332  11.661   2.017   6.750
 2734POPC   C3A38333  11.956   1.940   7.064
 2734POPC   C4A38334  12.360   2.047   7.203
 2734POPC   C1B38335  12.300   1.941   6.205
 2734POPC   C2B38336  12.219   1.887   6.635
 2734POPC   C3B38337  12.586   1.760   6.865
 2734POPC   C4B38338  12.731   1.611   7.263
 2735POPC   NC338339  12.226  44.389   5.221
 2735POPC   PO438340  11.793  44.892   5.291
 2735POPC   GL138341  11.918  44.638   5.682
 2735POPC   GL238342  12.277  44.661   5.764
 2735POPC   C1A38343  11.883  44.559   6.157
 2735POPC   D2A38344  12.105  44.574   6.582
 2735POPC   C3A38345  11.908  44.468   6.985
 2735POPC   C4A38346  11.955  44.508   7.447
 2735POPC   C1B38347  12.285  44.878   6.188
 2735POPC   C2B38348  12.468  44.935   6.622
 2735POPC   C3B38349  12.274  44.856   7.044
 2735POPC   C4B38350  12.269  44.885   7.530
 2736POPC   NC338351  10.916   1.687   5.563
 2736POPC   PO438352  10.196   1.564   5.390
 2736POPC   GL138353  10.389   1.362   5.768
 2736POPC   GL238354  10.737   1.220   5.705
 2736POPC   C1A38355  10.336   1.254   6.222
 2736POPC   D2A38356  10.294   1.124   6.673
 2736POPC   C3A38357  10.289   1.400   7.032
 2736POPC   C4A38358  10.256   1.304   7.498
 2736POPC   C1B38359  10.833   1.400   6.131
 2736POPC   C2B38360  10.794   1.255   6.546
 2736POPC   C3B38361  10.752   1.081   6.960
 2736POPC   C4B38362  10.729   1.186   7.406
 2737POPC   NC338363   9.294   5.962   5.132
 2737POPC   PO438364   9.830   6.008   5.432
 2737POPC   GL138365   9.729   5.817   5.786
 2737POPC   GL238366   9.417   5.659   5.749
 2737POPC   C1A38367   9.825   5.937   6.199
 2737POPC   D2A38368   9.743   6.321   6.385
 2737POPC   C3A38369   9.751   6.355   6.835
 2737POPC   C4A38370   9.479   6.273   7.190
 2737POPC   C1B38371   9.469   5.513   6.162
 2737POPC   C2B38372   9.458   5.759   6.517
 2737POPC   C3B38373   9.732   5.860   6.837
 2737POPC   C4B38374   9.719   5.797   7.282
 2738POPC   NC338375  14.578  26.065   5.439
 2738POPC   PO438376  15.298  26.181   5.365
 2738POPC   GL138377  15.320  26.303   5.789
 2738POPC   GL238378  14.964  26.195   5.793
 2738POPC   C1A38379  15.397  26.211   6.248
 2738POPC   D2A38380  15.681  26.153   6.609
 2738POPC   C3A38381  15.441  25.935   6.937
 2738POPC   C4A38382  15.187  26.237   7.126
 2738POPC   C1B38383  14.936  25.960   6.187
 2738POPC   C2B38384  15.016  25.982   6.630
 2738POPC   C3B38385  14.870  25.814   6.997
 2738POPC   C4B38386  15.110  25.756   7.324
 2739POPC   NC338387  17.269  32.867   5.378
 2739POPC   PO438388  18.042  32.886   5.387
 2739POPC   GL138389  17.780  33.014   5.795
 2739POPC   GL238390  17.416  32.986   5.842
 2739POPC   C1A38391  17.699  33.057   6.264
 2739POPC   D2A38392  17.506  32.862   6.642
 2739POPC   C3A38393  17.610  32.907   7.093
 2739POPC   C4A38394  17.683  32.649   7.441
 2739POPC   C1B38395  17.258  33.294   6.116
 2739POPC   C2B38396  17.380  33.357   6.543
 2739POPC   C3B38397  17.205  33.185   6.923
 2739POPC   C4B38398  17.148  33.447   7.261
 2740POPC   NC338399  33.038  33.323   5.329
 2740POPC   PO438400  33.212  32.636   5.416
 2740POPC   GL138401  33.284  33.025   5.684
 2740POPC   GL238402  32.952  33.036   5.771
 2740POPC   C1A38403  33.295  33.003   6.165
 2740POPC   D2A38404  33.160  32.769   6.553
 2740POPC   C3A38405  33.295  32.937   6.940
 2740POPC   C4A38406  33.113  32.936   7.320
 2740POPC   C1B38407  32.682  33.056   6.121
 2740POPC   C2B38408  32.643  32.920   6.533
 2740POPC   C3B38409  32.762  33.016   6.934
 2740POPC   C4B38410  32.666  33.204   7.321
 2741POPC   NC338411   4.401  36.466   5.445
 2741POPC   PO438412   4.081  35.907   5.407
 2741POPC   GL138413   4.281  36.055   5.777
 2741POPC   GL238414   4.051  36.300   5.865
 2741POPC   C1A38415   4.409  35.914   6.206
 2741POPC   D2A38416   4.543  35.758   6.619
 2741POPC   C3A38417   4.537  35.982   7.034
 2741POPC   C4A38418   4.180  35.975   7.346
 2741POPC   C1B38419   4.289  36.422   6.203
 2741POPC   C2B38420   4.369  36.275   6.627
 2741POPC   C3B38421   4.045  36.276   6.951
 2741POPC   C4B38422   3.964  36.636   7.205
 2742POPC   NC338423  35.441   3.793   5.342
 2742POPC   PO438424  35.386   4.537   5.310
 2742POPC   GL138425  35.332   4.355   5.702
 2742POPC   GL238426  35.460   4.040   5.796
 2742POPC   C1A38427  35.100   4.322   6.085
 2742POPC   D2A38428  35.091   4.095   6.467
 2742POPC   C3A38429  35.247   4.219   6.830
 2742POPC   C4A38430  35.076   4.016   7.130
 2742POPC   C1B38431  35.576   4.155   6.241
 2742POPC   C2B38432  35.729   4.187   6.689
 2742POPC   C3B38433  35.694   3.987   7.099
 2742POPC   C4B38434  35.887   4.011   7.555
 2743POPC   NC338435  38.864  18.741   5.171
 2743POPC   PO438436  38.410  19.234   5.447
 2743POPC   GL138437  38.568  19.069   5.781
 2743POPC   GL238438  38.795  18.789   5.741
 2743POPC   C1A38439  38.704  19.251   6.146
 2743POPC   D2A38440  38.604  19.448   6.511
 2743POPC   C3A38441  38.694  19.246   6.864
 2743POPC   C4A38442  38.396  19.079   7.174
 2743POPC   C1B38443  38.549  18.740   6.164
 2743POPC   C2B38444  38.457  18.845   6.607
 2743POPC   C3B38445  38.459  18.604   6.996
 2743POPC   C4B38446  38.419  18.592   7.460
 2744POPC   NC338447  32.662  38.937   5.436
 2744POPC   PO438448  32.996  39.367   5.499
 2744POPC   GL138449  32.888  39.356   5.905
 2744POPC   GL238450  32.529  39.341   5.837
 2744POPC   C1A38451  33.055  39.603   6.275
 2744POPC   D2A38452  33.226  39.681   6.695
 2744POPC   C3A38453  33.132  39.402   7.055
 2744POPC   C4A38454  32.933  39.291   7.465
 2744POPC   C1B38455  32.570  39.454   6.292
 2744POPC   C2B38456  32.760  39.406   6.701
 2744POPC   C3B38457  32.660  39.576   7.140
 2744POPC   C4B38458  32.484  39.540   7.573
 2745POPC   NC338459  23.962   5.930   5.123
 2745POPC   PO438460  24.547   6.213   5.330
 2745POPC   GL138461  24.483   6.082   5.784
 2745POPC   GL238462  24.170   5.859   5.825
 2745POPC   C1A38463  24.376   6.110   6.246
 2745POPC   D2A38464  24.250   6.327   6.645
 2745POPC   C3A38465  24.344   6.083   7.045
 2745POPC   C4A38466  24.471   5.838   7.435
 2745POPC   C1B38467  24.011   5.692   6.249
 2745POPC   C2B38468  24.018   5.675   6.723
 2745POPC   C3B38469  24.103   5.602   7.178
 2745POPC   C4B38470  24.241   5.406   7.592
 2746POPC   NC338471  23.820  15.461   5.340
 2746POPC   PO438472  23.273  14.994   5.219
 2746POPC   GL138473  23.637  15.038   5.651
 2746POPC   GL238474  23.912  15.248   5.777
 2746POPC   C1A38475  23.600  15.225   6.158
 2746POPC   D2A38476  23.354  15.188   6.541
 2746POPC   C3A38477  23.443  15.236   6.992
 2746POPC   C4A38478  23.441  14.948   7.354
 2746POPC   C1B38479  24.037  14.981   6.097
 2746POPC   C2B38480  24.124  15.109   6.530
 2746POPC   C3B38481  24.144  15.307   6.902
 2746POPC   C4B38482  23.894  15.177   7.217
 2747POPC   NC338483   7.579  23.031   5.413
 2747POPC   PO438484   7.335  23.644   5.319
 2747POPC   GL138485   7.444  23.684   5.772
 2747POPC   GL238486   7.603  23.351   5.818
 2747POPC   C1A38487   7.446  23.642   6.267
 2747POPC   D2A38488   7.504  23.838   6.718
 2747POPC   C3A38489   7.254  23.813   7.134
 2747POPC   C4A38490   7.295  23.894   7.582
 2747POPC   C1B38491   7.783  23.252   6.229
 2747POPC   C2B38492   7.610  23.326   6.666
 2747POPC   C3B38493   7.572  23.416   7.130
 2747POPC   C4B38494   7.564  23.461   7.601
 2748POPC   NC338495  44.988  12.730   5.451
 2748POPC   PO438496  44.581  13.253   5.271
 2748POPC   GL138497  44.653  13.159   5.727
 2748POPC   GL238498  44.687  12.806   5.850
 2748POPC   C1A38499  44.435  13.106   6.150
 2748POPC   D2A38500  44.389  12.778   6.455
 2748POPC   C3A38501  44.594  13.013   6.785
 2748POPC   C4A38502  44.605  13.227   7.182
 2748POPC   C1B38503  44.890  12.862   6.265
 2748POPC   C2B38504  44.997  12.679   6.688
 2748POPC   C3B38505  44.837  12.711   7.124
 2748POPC   C4B38506  44.892  12.555   7.533
 2749POPC   NC338507  44.915   6.285   5.258
 2749POPC   PO438508  44.327   6.372   5.454
 2749POPC   GL138509  44.402   6.516   5.864
 2749POPC   GL238510  44.748   6.449   5.848
 2749POPC   C1A38511  44.597   6.769   6.226
 2749POPC   D2A38512  44.652   6.697   6.673
 2749POPC   C3A38513  44.906   6.949   6.940
 2749POPC   C4A38514  44.737   6.975   7.342
 2749POPC   C1B38515  44.617   6.252   6.292
 2749POPC   C2B38516  44.727   6.206   6.773
 2749POPC   C3B38517  44.647   6.382   7.237
 2749POPC   C4B38518  44.597   6.143   7.661
 2750POPC   NC338519  42.421  13.130   5.447
 2750POPC   PO438520  42.080  12.531   5.496
 2750POPC   GL138521  42.156  12.766   5.854
 2750POPC   GL238522  41.974  13.095   5.787
 2750POPC   C1A38523  42.279  12.623   6.288
 2750POPC   D2A38524  42.591  12.554   6.628
 2750POPC   C3A38525  42.544  12.807   7.031
 2750POPC   C4A38526  42.310  12.810   7.414
 2750POPC   C1B38527  42.101  13.116   6.241
 2750POPC   C2B38528  42.201  12.952   6.667
 2750POPC   C3B38529  41.985  12.996   7.068
 2750POPC   C4B38530  41.922  13.112   7.534
 2751POPC   NC338531  13.210  15.522   5.527
 2751POPC   PO438532  13.690  15.021   5.377
 2751POPC   GL138533  13.790  15.065   5.787
 2751POPC   GL238534  13.734  15.406   5.857
 2751POPC   C1A38535  13.735  15.036   6.221
 2751POPC   D2A38536  13.549  15.099   6.624
 2751POPC   C3A38537  13.711  15.251   6.996
 2751POPC   C4A38538  13.747  14.997   7.368
 2751POPC   C1B38539  13.442  15.453   6.225
 2751POPC   C2B38540  13.353  15.569   6.694
 2751POPC   C3B38541  13.293  15.556   7.153
 2751POPC   C4B38542  13.385  15.333   7.545
 2752POPC   NC338543  23.397  13.060   5.374
 2752POPC   PO438544  22.701  12.775   5.396
 2752POPC   GL138545  22.799  13.028   5.742
 2752POPC   GL238546  23.128  13.089   5.824
 2752POPC   C1A38547  22.666  12.917   6.161
 2752POPC   D2A38548  22.392  12.911   6.546
 2752POPC   C3A38549  22.688  13.046   6.859
 2752POPC   C4A38550  22.976  13.027   7.198
 2752POPC   C1B38551  23.163  13.014   6.282
 2752POPC   C2B38552  23.215  13.060   6.734
 2752POPC   C3B38553  23.471  13.069   7.125
 2752POPC   C4B38554  23.315  13.119   7.582
 2753POPC   NC338555  23.384  39.939   5.326
 2753POPC   PO438556  22.723  39.812   5.447
 2753POPC   GL138557  22.684  39.921   5.829
 2753POPC   GL238558  23.035  39.904   5.908
 2753POPC   C1A38559  22.655  40.072   6.236
 2753POPC   D2A38560  23.026  40.027   6.430
 2753POPC   C3A38561  23.010  40.098   6.842
 2753POPC   C4A38562  22.765  40.289   7.148
 2753POPC   C1B38563  23.311  39.666   6.165
 2753POPC   C2B38564  23.420  39.720   6.580
 2753POPC   C3B38565  23.239  39.639   6.978
 2753POPC   C4B38566  23.126  39.906   7.301
 2754POPC   NC338567  13.850   0.338   5.278
 2754POPC   PO438568  13.201   0.406   5.458
 2754POPC   GL138569  13.244   0.589   5.832
 2754POPC   GL238570  13.595   0.583   5.750
 2754POPC   C1A38571  13.224   0.771   6.232
 2754POPC   D2A38572  13.472   0.715   6.596
 2754POPC   C3A38573  13.422   0.346   6.859
 2754POPC   C4A38574  13.273   0.364   7.266
 2754POPC   C1B38575  13.630   0.454   6.184
 2754POPC   C2B38576  13.857   0.398   6.592
 2754POPC   C3B38577  13.887   0.548   6.988
 2754POPC   C4B38578  13.765   0.255   7.296
 2755POPC   NC338579  34.637   2.575   5.406
 2755POPC   PO438580  34.206   3.201   5.087
 2755POPC   GL138581  34.139   2.958   5.626
 2755POPC   GL238582  34.399   2.772   5.803
 2755POPC   C1A38583  34.161   3.089   6.107
 2755POPC   D2A38584  34.261   3.275   6.545
 2755POPC   C3A38585  34.640   3.123   6.733
 2755POPC   C4A38586  34.711   2.929   7.129
 2755POPC   C1B38587  34.622   2.815   6.215
 2755POPC   C2B38588  34.643   2.510   6.565
 2755POPC   C3B38589  34.794   2.462   6.954
 2755POPC   C4B38590  34.508   2.415   7.207
 2756POPC   NC338591  41.731  16.825   5.264
 2756POPC   PO438592  41.145  16.533   5.173
 2756POPC   GL138593  41.400  16.769   5.642
 2756POPC   GL238594  41.176  17.005   5.850
 2756POPC   C1A38595  41.533  16.736   6.113
 2756POPC   D2A38596  41.714  16.843   6.543
 2756POPC   C3A38597  41.592  16.806   6.983
 2756POPC   C4A38598  41.827  16.667   7.326
 2756POPC   C1B38599  41.094  17.023   6.272
 2756POPC   C2B38600  41.235  16.987   6.657
 2756POPC   C3B38601  41.114  17.015   7.065
 2756POPC   C4B38602  41.345  16.869   7.435
 2757POPC   NC338603  24.385  19.706   5.482
 2757POPC   PO438604  25.031  19.879   5.255
 2757POPC   GL138605  24.812  19.847   5.730
 2757POPC   GL238606  24.499  20.048   5.868
 2757POPC   C1A38607  24.648  19.674   6.174
 2757POPC   D2A38608  24.522  19.734   6.618
 2757POPC   C3A38609  24.845  19.842   6.934
 2757POPC   C4A38610  24.849  20.291   7.058
 2757POPC   C1B38611  24.226  20.155   6.266
 2757POPC   C2B38612  23.885  20.255   6.614
 2757POPC   C3B38613  23.969  20.160   7.069
 2757POPC   C4B38614  24.391  19.985   7.184
 2758POPC   NC338615  35.112  41.597   5.318
 2758POPC   PO438616  35.724  41.350   5.390
 2758POPC   GL138617  35.475  41.421   5.774
 2758POPC   GL238618  35.122  41.459   5.814
 2758POPC   C1A38619  35.478  41.555   6.207
 2758POPC   D2A38620  35.271  41.488   6.592
 2758POPC   C3A38621  35.534  41.512   6.908
 2758POPC   C4A38622  35.742  41.501   7.239
 2758POPC   C1B38623  34.999  41.731   6.195
 2758POPC   C2B38624  35.280  41.978   6.449
 2758POPC   C3B38625  35.259  41.958   6.905
 2758POPC   C4B38626  35.102  41.616   7.174
 2759POPC   NC338627  34.398   1.609   5.360
 2759POPC   PO438628  34.241   2.325   5.286
 2759POPC   GL138629  34.447   2.232   5.715
 2759POPC   GL238630  34.539   1.882   5.806
 2759POPC   C1A38631  34.642   2.266   6.119
 2759POPC   D2A38632  34.764   1.956   6.428
 2759POPC   C3A38633  34.611   2.006   6.848
 2759POPC   C4A38634  34.660   1.898   7.263
 2759POPC   C1B38635  34.408   1.652   6.184
 2759POPC   C2B38636  34.453   1.577   6.623
 2759POPC   C3B38637  34.297   1.574   7.044
 2759POPC   C4B38638  34.276   1.576   7.525
 2760POPC   NC338639  41.578  42.788   5.528
 2760POPC   PO438640  41.673  43.475   5.362
 2760POPC   GL138641  41.725  43.272   5.753
 2760POPC   GL238642  41.878  42.992   5.904
 2760POPC   C1A38643  41.483  43.278   6.142
 2760POPC   D2A38644  41.363  43.329   6.573
 2760POPC   C3A38645  41.673  43.240   6.874
 2760POPC   C4A38646  41.554  43.345   7.276
 2760POPC   C1B38647  41.727  42.807   6.283
 2760POPC   C2B38648  41.424  42.758   6.641
 2760POPC   C3B38649  41.505  42.778   7.082
 2760POPC   C4B38650  41.864  42.947   7.293
 2761POPC   NC338651  10.716   2.510   5.255
 2761POPC   PO438652  10.142   2.774   5.334
 2761POPC   GL138653  10.274   2.676   5.729
 2761POPC   GL238654  10.617   2.737   5.738
 2761POPC   C1A38655  10.240   2.846   6.144
 2761POPC   D2A38656  10.404   2.789   6.541
 2761POPC   C3A38657  10.226   2.777   6.927
 2761POPC   C4A38658  10.418   2.504   7.204
 2761POPC   C1B38659  10.757   2.733   6.179
 2761POPC   C2B38660  10.949   2.702   6.587
 2761POPC   C3B38661  10.912   2.665   7.046
 2761POPC   C4B38662  10.937   2.926   7.412
 2762POPC   NC338663   5.383   7.195   5.207
 2762POPC   PO438664   5.985   7.566   5.433
 2762POPC   GL138665   5.886   7.575   5.840
 2762POPC   GL238666   5.829   7.215   5.835
 2762POPC   C1A38667   5.731   7.490   6.255
 2762POPC   D2A38668   5.722   7.178   6.560
 2762POPC   C3A38669   5.663   7.378   6.940
 2762POPC   C4A38670   5.779   7.349   7.345
 2762POPC   C1B38671   6.148   7.160   6.181
 2762POPC   C2B38672   6.270   7.136   6.646
 2762POPC   C3B38673   6.199   7.203   7.109
 2762POPC   C4B38674   6.224   7.319   7.592
 2763POPC   NC338675  16.356   3.451   5.419
 2763POPC   PO438676  15.840   3.825   5.301
 2763POPC   GL138677  15.985   3.698   5.754
 2763POPC   GL238678  16.297   3.537   5.924
 2763POPC   C1A38679  15.920   3.663   6.222
 2763POPC   D2A38680  15.850   3.511   6.642
 2763POPC   C3A38681  16.014   3.741   7.006
 2763POPC   C4A38682  15.951   3.947   7.434
 2763POPC   C1B38683  16.139   3.187   6.239
 2763POPC   C2B38684  16.042   3.024   6.624
 2763POPC   C3B38685  15.971   3.199   7.016
 2763POPC   C4B38686  16.038   3.366   7.406
 2764POPC   NC338687  18.209  42.559   5.717
 2764POPC   PO438688  18.190  42.104   5.223
 2764POPC   GL138689  18.239  42.029   5.791
 2764POPC   GL238690  18.530  42.057   5.995
 2764POPC   C1A38691  18.090  42.185   6.238
 2764POPC   D2A38692  18.328  42.174   6.616
 2764POPC   C3A38693  18.095  42.238   6.982
 2764POPC   C4A38694  17.900  42.504   7.274
 2764POPC   C1B38695  18.591  42.451   6.256
 2764POPC   C2B38696  18.792  42.447   6.647
 2764POPC   C3B38697  18.645  42.283   7.040
 2764POPC   C4B38698  18.651  42.571   7.378
 2765POPC   NC338699  27.704  26.383   5.318
 2765POPC   PO438700  27.361  25.855   5.189
 2765POPC   GL138701  27.472  25.886   5.657
 2765POPC   GL238702  27.386  26.216   5.801
 2765POPC   C1A38703  27.525  25.864   6.142
 2765POPC   D2A38704  27.347  25.868   6.600
 2765POPC   C3A38705  27.469  25.815   7.047
 2765POPC   C4A38706  27.708  25.954   7.433
 2765POPC   C1B38707  27.127  26.196   6.221
 2765POPC   C2B38708  27.064  26.280   6.684
 2765POPC   C3B38709  27.293  26.313   7.097
 2765POPC   C4B38710  27.497  26.408   7.490
 2766POPC   NC338711  24.377   6.554   5.595
 2766POPC   PO438712  23.917   6.988   5.343
 2766POPC   GL138713  24.112   6.974   5.789
 2766POPC   GL238714  24.483   6.904   5.935
 2766POPC   C1A38715  24.095   6.802   6.223
 2766POPC   D2A38716  24.423   6.824   6.530
 2766POPC   C3A38717  24.281   6.847   6.944
 2766POPC   C4A38718  24.309   6.679   7.334
 2766POPC   C1B38719  24.673   6.533   6.168
 2766POPC   C2B38720  24.781   6.338   6.556
 2766POPC   C3B38721  24.682   6.513   6.931
 2766POPC   C4B38722  24.788   6.811   7.224
 2767POPC   NC338723  17.336  40.268   5.524
 2767POPC   PO438724  17.780  39.754   5.613
 2767POPC   GL138725  17.683  40.103   5.865
 2767POPC   GL238726  17.352  39.972   5.959
 2767POPC   C1A38727  17.632  40.321   6.227
 2767POPC   D2A38728  17.295  40.273   6.492
 2767POPC   C3A38729  17.516  40.067   6.818
 2767POPC   C4A38730  17.501  39.880   7.202
 2767POPC   C1B38731  17.606  39.765   6.266
 2767POPC   C2B38732  17.668  39.571   6.667
 2767POPC   C3B38733  17.352  39.457   6.931
 2767POPC   C4B38734  17.145  39.541   7.346
 2768POPC   NC338735  36.614  32.131   5.271
 2768POPC   PO438736  36.947  32.628   5.513
 2768POPC   GL138737  36.825  32.472   5.874
 2768POPC   GL238738  36.760  32.157   5.765
 2768POPC   C1A38739  36.934  32.268   6.250
 2768POPC   D2A38740  36.822  32.430   6.634
 2768POPC   C3A38741  36.916  32.174   6.983
 2768POPC   C4A38742  37.010  32.488   7.285
 2768POPC   C1B38743  36.481  32.069   6.123
 2768POPC   C2B38744  36.603  31.968   6.570
 2768POPC   C3B38745  36.502  31.820   6.974
 2768POPC   C4B38746  36.541  31.914   7.394
 2769POPC   NC338747  41.747  26.830   5.509
 2769POPC   PO438748  41.137  26.495   5.505
 2769POPC   GL138749  41.321  26.692   5.863
 2769POPC   GL238750  41.603  26.486   5.876
 2769POPC   C1A38751  41.278  26.891   6.285
 2769POPC   D2A38752  41.119  26.904   6.725
 2769POPC   C3A38753  41.368  27.066   7.077
 2769POPC   C4A38754  41.779  27.201   7.111
 2769POPC   C1B38755  41.455  26.411   6.293
 2769POPC   C2B38756  41.452  26.494   6.755
 2769POPC   C3B38757  41.670  26.634   7.128
 2769POPC   C4B38758  41.897  26.402   7.423
 2770POPC   NC338759  34.857  20.239   5.102
 2770POPC   PO438760  34.601  20.809   5.326
 2770POPC   GL138761  34.610  20.626   5.738
 2770POPC   GL238762  34.691  20.303   5.614
 2770POPC   C1A38763  34.516  20.622   6.207
 2770POPC   D2A38764  34.526  20.925   6.559
 2770POPC   C3A38765  34.766  20.870   6.962
 2770POPC   C4A38766  34.462  20.892   7.282
 2770POPC   C1B38767  34.768  20.206   6.063
 2770POPC   C2B38768  34.629  20.187   6.527
 2770POPC   C3B38769  34.599  20.368   6.986
 2770POPC   C4B38770  34.631  20.428   7.472
 2771POPC   NC338771  37.679   1.630   5.107
 2771POPC   PO438772  37.916   1.141   5.547
 2771POPC   GL138773  37.801   1.121   5.943
 2771POPC   GL238774  37.772   0.783   6.001
 2771POPC   C1A38775  37.818   1.387   6.294
 2771POPC   D2A38776  37.654   1.441   6.691
 2771POPC   C3A38777  37.914   1.433   7.027
 2771POPC   C4A38778  37.591   1.249   7.229
 2771POPC   C1B38779  37.544   0.977   6.384
 2771POPC   C2B38780  37.596   0.922   6.829
 2771POPC   C3B38781  37.631   0.733   7.244
 2771POPC   C4B38782  37.654   0.972   7.635
 2772POPC   NC338783  23.068  21.887   5.646
 2772POPC   PO438784  22.669  22.288   5.174
 2772POPC   GL138785  22.686  22.350   5.672
 2772POPC   GL238786  23.045  22.406   5.765
 2772POPC   C1A38787  22.698  22.158   6.138
 2772POPC   D2A38788  22.605  22.023   6.593
 2772POPC   C3A38789  22.928  21.941   6.884
 2772POPC   C4A38790  22.800  22.023   7.276
 2772POPC   C1B38791  23.210  22.300   6.178
 2772POPC   C2B38792  23.165  22.375   6.627
 2772POPC   C3B38793  23.254  22.304   7.075
 2772POPC   C4B38794  23.252  22.265   7.539
 2773POPC   NC338795  43.402  44.744   5.400
 2773POPC   PO438796  42.951  44.164   5.445
 2773POPC   GL138797  43.053  44.385   5.786
 2773POPC   GL238798  42.945  44.718   5.687
 2773POPC   C1A38799  43.175  44.346   6.227
 2773POPC   D2A38800  43.008  44.561   6.602
 2773POPC   C3A38801  43.108  44.514   7.019
 2773POPC   C4A38802  43.433  44.657   7.247
 2773POPC   C1B38803  42.907  44.764   6.142
 2773POPC   C2B38804  42.878   0.051   6.511
 2773POPC   C3B38805  42.986   0.055   6.944
 2773POPC   C4B38806  43.054  44.978   7.366
 2774POPC   NC338807   7.344   9.868   5.558
 2774POPC   PO438808   7.879   9.499   5.371
 2774POPC   GL138809   7.605   9.444   5.752
 2774POPC   GL238810   7.214   9.389   5.773
 2774POPC   C1A38811   7.592   9.557   6.190
 2774POPC   D2A38812   7.406   9.645   6.617
 2774POPC   C3A38813   7.686   9.504   6.949
 2774POPC   C4A38814   7.775   9.595   7.368
 2774POPC   C1B38815   7.088   9.480   6.220
 2774POPC   C2B38816   6.869   9.647   6.573
 2774POPC   C3B38817   6.977   9.863   6.916
 2774POPC   C4B38818   7.263   9.684   7.165
 2775POPC   NC338819  39.911  25.634   5.555
 2775POPC   PO438820  40.174  26.226   5.516
 2775POPC   GL138821  39.900  26.192   5.840
 2775POPC   GL238822  39.881  26.531   5.936
 2775POPC   C1A38823  40.017  25.902   6.171
 2775POPC   D2A38824  40.174  25.798   6.577
 2775POPC   C3A38825  39.980  25.989   6.928
 2775POPC   C4A38826  40.234  25.883   7.264
 2775POPC   C1B38827  40.099  26.443   6.326
 2775POPC   C2B38828  40.079  26.602   6.754
 2775POPC   C3B38829  39.981  26.462   7.169
 2775POPC   C4B38830  39.627  26.187   7.301
 2776POPC   NC338831  28.522   3.176   5.293
 2776POPC   PO438832  28.238   3.752   5.402
 2776POPC   GL138833  28.160   3.806   5.836
 2776POPC   GL238834  28.476   3.984   5.872
 2776POPC   C1A38835  28.113   3.650   6.285
 2776POPC   D2A38836  28.324   3.446   6.628
 2776POPC   C3A38837  28.204   3.576   7.049
 2776POPC   C4A38838  28.007   3.724   7.442
 2776POPC   C1B38839  28.619   3.728   6.238
 2776POPC   C2B38840  28.803   3.649   6.681
 2776POPC   C3B38841  28.683   3.344   7.001
 2776POPC   C4B38842  28.462   3.290   7.381
 2777POPC   NC338843  22.278  36.819   5.537
 2777POPC   PO438844  22.242  37.541   5.454
 2777POPC   GL138845  22.276  37.249   5.804
 2777POPC   GL238846  21.902  37.107   5.767
 2777POPC   C1A38847  22.133  37.108   6.228
 2777POPC   D2A38848  21.796  37.113   6.543
 2777POPC   C3A38849  21.912  37.239   6.952
 2777POPC   C4A38850  22.106  37.078   7.283
 2777POPC   C1B38851  21.753  36.788   6.081
 2777POPC   C2B38852  21.954  36.573   6.436
 2777POPC   C3B38853  22.073  36.742   6.843
 2777POPC   C4B38854  22.196  36.584   7.230
 2778POPC   NC338855  38.562   9.523   5.589
 2778POPC   PO438856  38.095   9.966   5.446
 2778POPC   GL138857  38.308   9.899   5.900
 2778POPC   GL238858  38.468   9.576   6.077
 2778POPC   C1A38859  38.130   9.802   6.341
 2778POPC   D2A38860  38.144   9.436   6.641
 2778POPC   C3A38861  38.316   9.673   6.977
 2778POPC   C4A38862  38.645   9.728   7.281
 2778POPC   C1B38863  38.603   9.613   6.530
 2778POPC   C2B38864  38.762   9.939   6.828
 2778POPC   C3B38865  38.927  10.128   7.210
 2778POPC   C4B38866  38.984   9.919   7.638
 2779POPC   NC338867   8.981   6.888   5.192
 2779POPC   PO438868   8.917   6.323   5.578
 2779POPC   GL138869   8.936   6.589   5.870
 2779POPC   GL238870   8.853   6.907   5.740
 2779POPC   C1A38871   9.026   6.457   6.275
 2779POPC   D2A38872   9.280   6.375   6.607
 2779POPC   C3A38873   9.029   6.425   6.959
 2779POPC   C4A38874   9.113   6.606   7.335
 2779POPC   C1B38875   9.005   6.974   6.200
 2779POPC   C2B38876   8.893   6.819   6.636
 2779POPC   C3B38877   8.987   6.994   7.028
 2779POPC   C4B38878   9.298   7.309   7.064
 2780POPC   NC338879  14.350  42.493   5.251
 2780POPC   PO438880  14.736  42.036   5.535
 2780POPC   GL138881  14.552  42.349   5.855
 2780POPC   GL238882  14.220  42.535   5.872
 2780POPC   C1A38883  14.381  42.254   6.291
 2780POPC   D2A38884  14.243  42.277   6.744
 2780POPC   C3A38885  14.598  42.365   6.977
 2780POPC   C4A38886  14.914  42.565   6.728
 2780POPC   C1B38887  14.089  42.676   6.332
 2780POPC   C2B38888  13.919  42.678   6.786
 2780POPC   C3B38889  14.094  42.485   7.196
 2780POPC   C4B38890  14.131  42.669   7.623
 2781POPC   NC338891  16.900   7.230   5.392
 2781POPC   PO438892  16.437   7.730   5.428
 2781POPC   GL138893  16.693   7.552   5.750
 2781POPC   GL238894  16.519   7.261   5.738
 2781POPC   C1A38895  16.920   7.597   6.155
 2781POPC   D2A38896  16.734   7.706   6.564
 2781POPC   C3A38897  16.759   7.444   6.944
 2781POPC   C4A38898  16.573   7.509   7.362
 2781POPC   C1B38899  16.761   7.112   6.066
 2781POPC   C2B38900  16.851   7.173   6.486
 2781POPC   C3B38901  16.635   6.945   6.822
 2781POPC   C4B38902  16.577   6.979   7.253
 2782POPC   NC338903  35.824  27.163   5.398
 2782POPC   PO438904  36.026  26.470   5.457
 2782POPC   GL138905  36.124  26.863   5.754
 2782POPC   GL238906  36.474  26.983   5.819
 2782POPC   C1A38907  36.127  27.077   6.190
 2782POPC   D2A38908  36.312  27.086   6.622
 2782POPC   C3A38909  36.092  26.922   6.943
 2782POPC   C4A38910  35.969  26.530   7.123
 2782POPC   C1B38911  36.437  26.674   6.171
 2782POPC   C2B38912  36.305  26.576   6.600
 2782POPC   C3B38913  36.491  26.562   6.995
 2782POPC   C4B38914  36.382  26.800   7.347
 2783POPC   NC338915  19.861  20.115   5.376
 2783POPC   PO438916  19.517  19.459   5.377
 2783POPC   GL138917  19.828  19.643   5.626
 2783POPC   GL238918  19.632  19.912   5.772
 2783POPC   C1A38919  19.945  19.678   6.072
 2783POPC   D2A38920  19.921  19.521   6.473
 2783POPC   C3A38921  19.987  19.770   6.827
 2783POPC   C4A38922  19.998  19.691   7.253
 2783POPC   C1B38923  19.451  19.969   6.188
 2783POPC   C2B38924  19.516  20.130   6.624
 2783POPC   C3B38925  19.736  20.164   7.021
 2783POPC   C4B38926  19.613  19.969   7.408
 2784POPC   NC338927  20.856  32.888   5.550
 2784POPC   PO438928  20.280  32.609   5.527
 2784POPC   GL138929  20.391  32.822   5.912
 2784POPC   GL238930  20.419  33.153   6.073
 2784POPC   C1A38931  20.593  32.702   6.283
 2784POPC   D2A38932  20.676  32.946   6.644
 2784POPC   C3A38933  20.546  32.806   7.052
 2784POPC   C4A38934  20.545  32.719   7.534
 2784POPC   C1B38935  20.714  33.398   6.260
 2784POPC   C2B38936  21.029  33.370   6.551
 2784POPC   C3B38937  21.004  33.204   6.972
 2784POPC   C4B38938  21.074  33.308   7.451
 2785POPC   NC338939  35.167  25.518   5.286
 2785POPC   PO438940  35.604  24.970   5.375
 2785POPC   GL138941  35.501  25.171   5.719
 2785POPC   GL238942  35.166  25.142   5.625
 2785POPC   C1A38943  35.673  25.289   6.138
 2785POPC   D2A38944  35.811  25.399   6.536
 2785POPC   C3A38945  35.602  25.244   6.897
 2785POPC   C4A38946  35.662  25.323   7.339
 2785POPC   C1B38947  35.158  25.126   6.075
 2785POPC   C2B38948  35.272  25.082   6.495
 2785POPC   C3B38949  35.086  25.283   6.855
 2785POPC   C4B38950  35.177  25.216   7.278
 2786POPC   NC338951  16.740   6.299   5.420
 2786POPC   PO438952  16.461   6.909   5.363
 2786POPC   GL138953  16.735   6.755   5.700
 2786POPC   GL238954  17.102   6.740   5.749
 2786POPC   C1A38955  16.793   6.577   6.128
 2786POPC   D2A38956  16.619   6.326   6.458
 2786POPC   C3A38957  16.829   6.336   6.841
 2786POPC   C4A38958  16.649   6.421   7.223
 2786POPC   C1B38959  17.205   6.881   6.170
 2786POPC   C2B38960  17.034   6.720   6.577
 2786POPC   C3B38961  17.049   6.745   7.056
 2786POPC   C4B38962  17.088   7.023   7.429
 2787POPC   NC338963  34.294   2.756   5.095
 2787POPC   PO438964  33.714   2.714   5.367
 2787POPC   GL138965  33.727   2.682   5.787
 2787POPC   GL238966  33.978   2.443   5.766
 2787POPC   C1A38967  33.735   2.818   6.230
 2787POPC   D2A38968  33.798   3.066   6.629
 2787POPC   C3A38969  33.741   2.862   7.044
 2787POPC   C4A38970  33.786   2.992   7.482
 2787POPC   C1B38971  34.174   2.528   6.169
 2787POPC   C2B38972  34.205   2.765   6.534
 2787POPC   C3B38973  34.243   2.785   6.965
 2787POPC   C4B38974  34.050   2.561   7.339
 2788POPC   NC338975  33.712   2.249   5.369
 2788POPC   PO438976  33.631   1.594   5.429
 2788POPC   GL138977  33.715   1.898   5.734
 2788POPC   GL238978  34.047   1.932   5.604
 2788POPC   C1A38979  33.645   1.911   6.189
 2788POPC   D2A38980  33.908   1.666   6.514
 2788POPC   C3A38981  33.830   1.790   6.942
 2788POPC   C4A38982  33.712   2.190   7.143
 2788POPC   C1B38983  34.114   2.036   6.047
 2788POPC   C2B38984  34.267   2.101   6.465
 2788POPC   C3B38985  34.157   2.251   6.875
 2788POPC   C4B38986  34.174   2.025   7.273
 2789POPC   NC338987   3.223  15.778   5.464
 2789POPC   PO438988   3.691  16.234   5.369
 2789POPC   GL138989   3.540  16.035   5.759
 2789POPC   GL238990   3.184  16.176   5.817
 2789POPC   C1A38991   3.645  15.852   6.150
 2789POPC   D2A38992   3.804  16.034   6.517
 2789POPC   C3A38993   3.704  15.978   6.941
 2789POPC   C4A38994   3.843  15.984   7.378
 2789POPC   C1B38995   3.380  16.288   6.198
 2789POPC   C2B38996   3.448  16.408   6.607
 2789POPC   C3B38997   3.215  16.404   6.980
 2789POPC   C4B38998   3.433  16.269   7.322
 2790POPC   NC338999  23.503  38.947   5.369
 2790POPC   PO439000  23.656  39.597   5.160
 2790POPC   GL139001  23.653  39.412   5.626
 2790POPC   GL239002  23.977  39.234   5.721
 2790POPC   C1A39003  23.606  39.254   6.092
 2790POPC   D2A39004  23.771  39.325   6.545
 2790POPC   C3A39005  23.581  39.108   6.911
 2790POPC   C4A39006  23.442  39.286   7.296
 2790POPC   C1B39007  24.106  39.262   6.164
 2790POPC   C2B39008  24.324  39.338   6.553
 2790POPC   C3B39009  24.216  39.402   6.963
 2790POPC   C4B39010  24.002  39.140   7.282
 2791POPC   NC339011  19.007  19.601   5.288
 2791POPC   PO439012  19.344  20.230   5.210
 2791POPC   GL139013  19.149  19.998   5.609
 2791POPC   GL239014  19.207  19.623   5.749
 2791POPC   C1A39015  18.922  19.942   6.031
 2791POPC   D2A39016  18.880  19.733   6.433
 2791POPC   C3A39017  18.984  19.970   6.790
 2791POPC   C4A39018  18.809  19.991   7.195
 2791POPC   C1B39019  19.264  19.504   6.161
 2791POPC   C2B39020  19.373  19.638   6.583
 2791POPC   C3B39021  19.420  19.734   7.000
 2791POPC   C4B39022  19.182  19.688   7.362
 2792POPC   NC339023  16.085  29.705   5.320
 2792POPC   PO439024  16.015  30.296   5.567
 2792POPC   GL139025  15.927  29.863   5.773
 2792POPC   GL239026  16.265  29.655   5.789
 2792POPC   C1A39027  15.827  29.686   6.174
 2792POPC   D2A39028  15.866  30.076   6.425
 2792POPC   C3A39029  15.787  30.120   6.845
 2792POPC   C4A39030  15.743  30.411   7.187
 2792POPC   C1B39031  16.292  29.882   6.158
 2792POPC   C2B39032  16.294  29.715   6.564
 2792POPC   C3B39033  16.268  29.786   6.995
 2792POPC   C4B39034  15.927  29.896   7.267
 2793POPC   NC339035  23.301   6.150   5.535
 2793POPC   PO439036  23.547   5.735   5.122
 2793POPC   GL139037  23.708   5.876   5.583
 2793POPC   GL239038  23.664   5.601   5.823
 2793POPC   C1A39039  23.747   6.071   6.029
 2793POPC   D2A39040  23.670   5.994   6.498
 2793POPC   C3A39041  23.840   6.118   6.897
 2793POPC   C4A39042  23.797   5.969   7.317
 2793POPC   C1B39043  23.435   5.365   6.173
 2793POPC   C2B39044  23.489   5.502   6.604
 2793POPC   C3B39045  23.591   5.597   7.036
 2793POPC   C4B39046  23.692   5.502   7.508
 2794POPC   NC339047  16.988   4.695   4.937
 2794POPC   PO439048  16.492   4.529   5.381
 2794POPC   GL139049  16.510   4.270   5.764
 2794POPC   GL239050  16.540   3.902   5.644
 2794POPC   C1A39051  16.627   4.415   6.204
 2794POPC   D2A39052  16.930   4.614   6.501
 2794POPC   C3A39053  16.845   4.606   6.957
 2794POPC   C4A39054  16.900   4.201   7.180
 2794POPC   C1B39055  16.714   3.835   6.073
 2794POPC   C2B39056  16.823   4.030   6.492
 2794POPC   C3B39057  16.538   4.212   6.811
 2794POPC   C4B39058  16.398   4.057   7.214
 2795POPC   NC339059   3.124   4.094   5.416
 2795POPC   PO439060   2.464   4.216   5.442
 2795POPC   GL139061   2.729   4.358   5.782
 2795POPC   GL239062   2.895   4.051   5.885
 2795POPC   C1A39063   2.636   4.397   6.246
 2795POPC   D2A39064   2.390   4.291   6.629
 2795POPC   C3A39065   2.558   4.448   7.026
 2795POPC   C4A39066   2.984   4.569   7.161
 2795POPC   C1B39067   3.056   4.102   6.305
 2795POPC   C2B39068   2.889   4.205   6.689
 2795POPC   C3B39069   2.899   4.051   7.085
 2795POPC   C4B39070   3.326   4.156   7.141
 2796POPC   NC339071  14.098   2.234   5.369
 2796POPC   PO439072  14.425   1.601   5.416
 2796POPC   GL139073  14.537   1.861   5.764
 2796POPC   GL239074  14.729   2.144   5.609
 2796POPC   C1A39075  14.348   1.934   6.164
 2796POPC   D2A39076  14.297   2.077   6.574
 2796POPC   C3A39077  13.957   1.946   6.842
 2796POPC   C4A39078  14.136   1.981   7.231
 2796POPC   C1B39079  14.792   2.371   6.006
 2796POPC   C2B39080  14.632   2.445   6.425
 2796POPC   C3B39081  14.706   2.302   6.837
 2796POPC   C4B39082  14.554   2.276   7.256
 2797POPC   NC339083  12.481  30.172   5.130
 2797POPC   PO439084  12.813  29.584   5.385
 2797POPC   GL139085  13.055  29.645   5.803
 2797POPC   GL239086  12.999  30.002   5.898
 2797POPC   C1A39087  12.974  29.634   6.259
 2797POPC   D2A39088  12.916  29.841   6.656
 2797POPC   C3A39089  13.161  29.769   7.000
 2797POPC   C4A39090  13.061  29.359   7.157
 2797POPC   C1B39091  12.910  30.212   6.296
 2797POPC   C2B39092  12.714  30.294   6.716
 2797POPC   C3B39093  12.643  30.034   7.101
 2797POPC   C4B39094  12.546  30.158   7.538
 2798POPC   NC339095  18.538  17.071   5.462
 2798POPC   PO439096  18.111  16.532   5.408
 2798POPC   GL139097  18.334  16.676   5.779
 2798POPC   GL239098  18.127  16.976   5.805
 2798POPC   C1A39099  18.412  16.481   6.219
 2798POPC   D2A39100  18.317  16.238   6.630
 2798POPC   C3A39101  18.330  16.529   6.966
 2798POPC   C4A39102  18.084  16.894   7.087
 2798POPC   C1B39103  18.376  17.036   6.172
 2798POPC   C2B39104  18.537  17.183   6.574
 2798POPC   C3B39105  18.666  17.021   6.992
 2798POPC   C4B39106  18.570  16.795   7.369
 2799POPC   NC339107  13.997  44.447   5.632
 2799POPC   PO439108  13.694  44.907   5.225
 2799POPC   GL139109  13.857  44.921   5.689
 2799POPC   GL239110  13.658  44.653   5.950
 2799POPC   C1A39111  13.895   0.037   6.130
 2799POPC   D2A39112  13.622  44.959   6.475
 2799POPC   C3A39113  13.789  44.962   6.883
 2799POPC   C4A39114  13.782  44.742   7.261
 2799POPC   C1B39115  13.443  44.302   6.161
 2799POPC   C2B39116  13.231  44.232   6.517
 2799POPC   C3B39117  13.267  44.387   6.907
 2799POPC   C4B39118  13.578  44.288   7.197
 2800POPC   NC339119   1.322  37.536   5.303
 2800POPC   PO439120   0.923  38.061   5.422
 2800POPC   GL139121   1.202  37.738   5.745
 2800POPC   GL239122   1.373  37.338   5.751
 2800POPC   C1A39123   1.346  37.633   6.163
 2800POPC   D2A39124   1.471  37.671   6.584
 2800POPC   C3A39125   1.179  37.675   6.880
 2800POPC   C4A39126   1.303  37.625   7.256
 2800POPC   C1B39127   1.378  37.122   6.122
 2800POPC   C2B39128   1.185  37.238   6.487
 2800POPC   C3B39129   1.296  37.185   6.895
 2800POPC   C4B39130   1.033  37.195   7.243
 2801POPC   NC339131  20.561  40.182   5.446
 2801POPC   PO439132  20.262  39.587   5.570
 2801POPC   GL139133  20.455  39.888   5.877
 2801POPC   GL239134  20.815  40.056   5.880
 2801POPC   C1A39135  20.559  39.909   6.327
 2801POPC   D2A39136  20.693  39.611   6.637
 2801POPC   C3A39137  20.465  39.701   6.979
 2801POPC   C4A39138  20.721  39.962   7.204
 2801POPC   C1B39139  20.545  40.364   6.087
 2801POPC   C2B39140  20.487  40.527   6.440
 2801POPC   C3B39141  20.544  40.300   6.765
 2801POPC   C4B39142  20.614  40.462   7.154
 2802POPC   NC339143   1.565  33.032   5.381
 2802POPC   PO439144   0.884  33.239   5.406
 2802POPC   GL139145   1.199  33.177   5.768
 2802POPC   GL239146   1.335  33.521   5.880
 2802POPC   C1A39147   1.160  32.857   6.165
 2802POPC   D2A39148   1.344  32.583   6.492
 2802POPC   C3A39149   1.310  32.728   6.925
 2802POPC   C4A39150   1.169  33.055   7.165
 2802POPC   C1B39151   1.225  33.336   6.251
 2802POPC   C2B39152   1.164  33.232   6.654
 2802POPC   C3B39153   1.174  33.512   6.961
 2802POPC   C4B39154   0.794  33.573   7.202
 2803POPC   NC339155  27.413  14.469   5.234
 2803POPC   PO439156  28.026  14.557   5.364
 2803POPC   GL139157  27.733  14.562   5.756
 2803POPC   GL239158  27.351  14.596   5.847
 2803POPC   C1A39159  27.701  14.576   6.226
 2803POPC   D2A39160  27.455  14.294   6.475
 2803POPC   C3A39161  27.469  14.257   6.917
 2803POPC   C4A39162  27.281  14.008   7.201
 2803POPC   C1B39163  27.187  14.685   6.292
 2803POPC   C2B39164  27.389  14.731   6.721
 2803POPC   C3B39165  27.501  14.707   7.175
 2803POPC   C4B39166  27.484  14.749   7.639
 2804POPC   NC339167   8.386  30.256   5.415
 2804POPC   PO439168   8.070  30.780   5.399
 2804POPC   GL139169   8.029  30.558   5.786
 2804POPC   GL239170   8.357  30.510   5.868
 2804POPC   C1A39171   7.974  30.397   6.213
 2804POPC   D2A39172   7.917  30.636   6.607
 2804POPC   C3A39173   8.256  30.647   6.897
 2804POPC   C4A39174   8.260  30.440   7.309
 2804POPC   C1B39175   8.341  30.739   6.284
 2804POPC   C2B39176   8.409  31.079   6.574
 2804POPC   C3B39177   8.581  31.103   6.960
 2804POPC   C4B39178   8.684  30.742   7.183
 2805POPC   NC339179  20.065  11.506   5.480
 2805POPC   PO439180  19.649  12.048   5.422
 2805POPC   GL139181  19.653  11.999   5.834
 2805POPC   GL239182  19.693  11.652   5.804
 2805POPC   C1A39183  19.923  12.033   6.173
 2805POPC   D2A39184  19.835  12.029   6.580
 2805POPC   C3A39185  19.920  12.312   6.872
 2805POPC   C4A39186  20.028  12.130   7.259
 2805POPC   C1B39187  19.493  11.640   6.207
 2805POPC   C2B39188  19.324  11.867   6.554
 2805POPC   C3B39189  19.452  12.035   6.952
 2805POPC   C4B39190  19.688  11.768   7.159
 2806POPC   NC339191  10.827   9.923   5.195
 2806POPC   PO439192  10.493   9.397   4.990
 2806POPC   GL139193  10.438   9.533   5.490
 2806POPC   GL239194  10.703   9.691   5.722
 2806POPC   C1A39195  10.234   9.585   5.970
 2806POPC   D2A39196  10.344   9.789   6.389
 2806POPC   C3A39197  10.462   9.540   6.747
 2806POPC   C4A39198  10.319   9.447   7.169
 2806POPC   C1B39199  10.764   9.978   6.140
 2806POPC   C2B39200  10.720  10.106   6.594
 2806POPC   C3B39201  10.724   9.903   7.010
 2806POPC   C4B39202  10.755   9.823   7.456
 2807POPC   NC339203  32.380  18.446   5.404
 2807POPC   PO439204  31.767  18.440   5.434
 2807POPC   GL139205  31.971  18.221   5.826
 2807POPC   GL239206  32.321  18.093   5.819
 2807POPC   C1A39207  32.160  18.360   6.271
 2807POPC   D2A39208  32.366  18.496   6.670
 2807POPC   C3A39209  32.151  18.355   7.063
 2807POPC   C4A39210  32.339  18.269   7.465
 2807POPC   C1B39211  32.225  17.864   6.253
 2807POPC   C2B39212  32.274  17.979   6.718
 2807POPC   C3B39213  32.283  17.851   7.170
 2807POPC   C4B39214  32.088  17.866   7.587
 2808POPC   NC339215  35.291  16.991   5.492
 2808POPC   PO439216  35.698  16.386   5.530
 2808POPC   GL139217  35.558  16.556   5.924
 2808POPC   GL239218  35.473  16.921   5.944
 2808POPC   C1A39219  35.363  16.491   6.340
 2808POPC   D2A39220  35.141  16.838   6.528
 2808POPC   C3A39221  35.175  16.940   6.949
 2808POPC   C4A39222  35.215  16.718   7.359
 2808POPC   C1B39223  35.634  16.902   6.317
 2808POPC   C2B39224  35.624  17.072   6.698
 2808POPC   C3B39225  35.645  17.002   7.125
 2808POPC   C4B39226  35.772  16.757   7.444
 2809POPC   NC339227  14.891  18.320   5.334
 2809POPC   PO439228  15.536  18.435   5.431
 2809POPC   GL139229  15.233  18.334   5.747
 2809POPC   GL239230  15.008  18.604   5.758
 2809POPC   C1A39231  15.210  18.310   6.203
 2809POPC   D2A39232  14.962  18.207   6.561
 2809POPC   C3A39233  15.176  18.196   6.935
 2809POPC   C4A39234  15.146  18.411   7.329
 2809POPC   C1B39235  14.782  18.604   6.157
 2809POPC   C2B39236  14.784  18.702   6.590
 2809POPC   C3B39237  14.774  18.497   6.982
 2809POPC   C4B39238  14.521  18.524   7.375
 2810POPC   NC339239  26.731  41.719   5.195
 2810POPC   PO439240  26.970  41.173   5.395
 2810POPC   GL139241  26.796  41.533   5.665
 2810POPC   GL239242  27.011  41.845   5.653
 2810POPC   C1A39243  26.493  41.504   6.034
 2810POPC   D2A39244  26.277  41.342   6.443
 2810POPC   C3A39245  26.430  41.488   6.853
 2810POPC   C4A39246  26.669  41.663   7.208
 2810POPC   C1B39247  27.000  41.767   6.121
 2810POPC   C2B39248  26.893  41.817   6.595
 2810POPC   C3B39249  27.120  41.824   7.016
 2810POPC   C4B39250  26.986  41.989   7.458
 2811POPC   NC339251  34.027  42.632   5.422
 2811POPC   PO439252  33.575  42.230   5.575
 2811POPC   GL139253  33.696  42.374   5.921
 2811POPC   GL239254  34.066  42.418   5.876
 2811POPC   C1A39255  33.518  42.233   6.292
 2811POPC   D2A39256  33.448  42.305   6.698
 2811POPC   C3A39257  33.583  42.168   7.064
 2811POPC   C4A39258  33.655  42.560   7.276
 2811POPC   C1B39259  33.975  42.592   6.279
 2811POPC   C2B39260  33.956  42.363   6.687
 2811POPC   C3B39261  34.069  42.299   7.114
 2811POPC   C4B39262  34.427  42.202   7.306
 2812POPC   NC339263  36.959  12.963   5.305
 2812POPC   PO439264  36.525  12.436   5.454
 2812POPC   GL139265  36.902  12.632   5.694
 2812POPC   GL239266  36.917  13.007   5.821
 2812POPC   C1A39267  37.230  12.672   6.047
 2812POPC   D2A39268  36.995  12.790   6.423
 2812POPC   C3A39269  37.097  12.736   6.849
 2812POPC   C4A39270  36.791  12.747   7.214
 2812POPC   C1B39271  37.234  13.179   6.152
 2812POPC   C2B39272  37.274  13.175   6.625
 2812POPC   C3B39273  36.831  13.151   6.857
 2812POPC   C4B39274  36.654  13.264   7.238
 2813POPC   NC339275  27.508  24.762   5.461
 2813POPC   PO439276  27.494  24.123   5.440
 2813POPC   GL139277  27.441  24.221   5.884
 2813POPC   GL239278  27.485  24.561   5.926
 2813POPC   C1A39279  27.360  24.263   6.335
 2813POPC   D2A39280  27.564  24.541   6.630
 2813POPC   C3A39281  27.694  24.423   7.005
 2813POPC   C4A39282  27.497  24.124   7.236
 2813POPC   C1B39283  27.843  24.524   6.203
 2813POPC   C2B39284  28.062  24.360   6.586
 2813POPC   C3B39285  28.194  24.408   7.024
 2813POPC   C4B39286  28.015  24.786   7.237
 2814POPC   NC339287   1.059  10.834   5.521
 2814POPC   PO439288   1.478  10.430   5.296
 2814POPC   GL139289   1.417  10.507   5.744
 2814POPC   GL239290   1.096  10.355   5.739
 2814POPC   C1A39291   1.483  10.553   6.222
 2814POPC   D2A39292   1.211  10.581   6.609
 2814POPC   C3A39293   1.327  10.676   7.056
 2814POPC   C4A39294   1.277  10.777   7.516
 2814POPC   C1B39295   0.953  10.564   6.136
 2814POPC   C2B39296   0.715  10.441   6.518
 2814POPC   C3B39297   0.850  10.416   6.936
 2814POPC   C4B39298   0.795  10.722   7.242
 2815POPC   NC339299  20.085  42.120   5.284
 2815POPC   PO439300  19.544  42.542   5.461
 2815POPC   GL139301  19.684  42.412   5.839
 2815POPC   GL239302  19.959  42.187   5.783
 2815POPC   C1A39303  19.914  42.476   6.233
 2815POPC   D2A39304  20.061  42.338   6.637
 2815POPC   C3A39305  19.697  42.353   6.916
 2815POPC   C4A39306  19.526  42.449   7.306
 2815POPC   C1B39307  20.137  42.026   6.165
 2815POPC   C2B39308  20.073  41.810   6.558
 2815POPC   C3B39309  19.918  41.898   6.981
 2815POPC   C4B39310  19.854  42.059   7.430
 2816POPC   NC339311   5.782   7.996   5.456
 2816POPC   PO439312   5.804   8.482   5.075
 2816POPC   GL139313   6.005   8.429   5.606
 2816POPC   GL239314   6.127   8.086   5.789
 2816POPC   C1A39315   6.023   8.476   6.107
 2816POPC   D2A39316   6.093   8.400   6.589
 2816POPC   C3A39317   5.717   8.383   6.903
 2816POPC   C4A39318   5.733   8.291   7.344
 2816POPC   C1B39319   5.948   7.963   6.175
 2816POPC   C2B39320   5.727   7.993   6.554
 2816POPC   C3B39321   5.831   7.881   6.951
 2816POPC   C4B39322   5.635   7.806   7.329
 2817POPC   NC339323  20.098  33.070   5.554
 2817POPC   PO439324  19.421  32.979   5.505
 2817POPC   GL139325  19.684  32.996   5.853
 2817POPC   GL239326  19.855  32.668   5.805
 2817POPC   C1A39327  19.983  32.957   6.216
 2817POPC   D2A39328  19.868  32.990   6.617
 2817POPC   C3A39329  20.060  33.034   6.993
 2817POPC   C4A39330  19.786  33.288   7.249
 2817POPC   C1B39331  19.626  32.599   6.179
 2817POPC   C2B39332  19.716  32.506   6.580
 2817POPC   C3B39333  19.710  32.646   6.980
 2817POPC   C4B39334  19.712  32.746   7.403
 2818POPC   NC339335  27.219  23.100   5.569
 2818POPC   PO439336  26.991  22.569   5.219
 2818POPC   GL139337  26.788  22.773   5.665
 2818POPC   GL239338  26.931  23.005   5.968
 2818POPC   C1A39339  26.528  22.726   6.098
 2818POPC   D2A39340  26.602  22.644   6.574
 2818POPC   C3A39341  26.618  22.996   6.857
 2818POPC   C4A39342  26.594  23.267   7.193
 2818POPC   C1B39343  27.030  22.674   6.253
 2818POPC   C2B39344  27.151  22.658   6.657
 2818POPC   C3B39345  26.934  22.632   7.024
 2818POPC   C4B39346  26.908  22.902   7.361
 2819POPC   NC339347  25.016  32.051   5.598
 2819POPC   PO439348  25.601  32.461   5.565
 2819POPC   GL139349  25.356  32.306   5.895
 2819POPC   GL239350  25.620  32.127   6.052
 2819POPC   C1A39351  25.095  32.113   6.253
 2819POPC   D2A39352  24.867  32.274   6.625
 2819POPC   C3A39353  25.019  32.149   7.021
 2819POPC   C4A39354  25.194  32.558   7.142
 2819POPC   C1B39355  25.492  32.428   6.356
 2819POPC   C2B39356  25.424  32.343   6.754
 2819POPC   C3B39357  25.502  32.159   7.163
 2819POPC   C4B39358  25.227  32.002   7.511
 2820POPC   NC339359   3.815  39.562   5.468
 2820POPC   PO439360   3.688  38.947   5.261
 2820POPC   GL139361   3.677  39.059   5.720
 2820POPC   GL239362   3.491  39.338   5.830
 2820POPC   C1A39363   3.564  39.003   6.186
 2820POPC   D2A39364   3.446  39.214   6.586
 2820POPC   C3A39365   3.363  39.000   6.951
 2820POPC   C4A39366   3.653  39.156   7.261
 2820POPC   C1B39367   3.594  39.558   6.229
 2820POPC   C2B39368   3.843  39.624   6.594
 2820POPC   C3B39369   3.666  39.596   6.997
 2820POPC   C4B39370   3.845  39.696   7.391
 2821POPC   NC339371  39.413  24.452   5.106
 2821POPC   PO439372  38.874  24.101   5.305
 2821POPC   GL139373  38.961  24.322   5.698
 2821POPC   GL239374  39.317  24.509   5.692
 2821POPC   C1A39375  38.747  24.402   6.102
 2821POPC   D2A39376  38.755  24.571   6.500
 2821POPC   C3A39377  38.809  24.372   6.924
 2821POPC   C4A39378  38.878  24.163   7.376
 2821POPC   C1B39379  39.244  24.323   6.116
 2821POPC   C2B39380  39.375  24.084   6.472
 2821POPC   C3B39381  39.431  24.077   6.937
 2821POPC   C4B39382  39.257  24.428   7.196
 2822POPC   NC339383   2.264   4.645   5.454
 2822POPC   PO439384   1.749   4.112   5.495
 2822POPC   GL139385   2.029   4.345   5.814
 2822POPC   GL239386   2.309   4.136   5.968
 2822POPC   C1A39387   2.067   4.488   6.245
 2822POPC   D2A39388   1.888   4.301   6.612
 2822POPC   C3A39389   2.000   4.363   7.057
 2822POPC   C4A39390   1.701   4.336   7.396
 2822POPC   C1B39391   2.098   3.939   6.310
 2822POPC   C2B39392   2.249   3.809   6.702
 2822POPC   C3B39393   2.291   3.950   7.109
 2822POPC   C4B39394   2.046   3.957   7.507
 2823POPC   NC339395   4.889   9.522   5.508
 2823POPC   PO439396   5.369  10.017   5.486
 2823POPC   GL139397   5.078   9.928   5.801
 2823POPC   GL239398   4.790  10.077   5.661
 2823POPC   C1A39399   5.099   9.777   6.243
 2823POPC   D2A39400   5.229   9.502   6.580
 2823POPC   C3A39401   5.231   9.617   7.020
 2823POPC   C4A39402   4.882   9.476   7.250
 2823POPC   C1B39403   4.785  10.220   6.110
 2823POPC   C2B39404   4.885  10.154   6.557
 2823POPC   C3B39405   4.806  10.159   7.027
 2823POPC   C4B39406   5.033   9.945   7.390
 2824POPC   NC339407   4.911  24.503   5.333
 2824POPC   PO439408   5.581  24.615   5.190
 2824POPC   GL139409   5.306  24.553   5.652
 2824POPC   GL239410   5.031  24.326   5.786
 2824POPC   C1A39411   5.290  24.506   6.162
 2824POPC   D2A39412   5.042  24.566   6.526
 2824POPC   C3A39413   5.172  24.650   6.940
 2824POPC   C4A39414   5.258  24.401   7.292
 2824POPC   C1B39415   4.784  24.322   6.155
 2824POPC   C2B39416   4.811  24.126   6.566
 2824POPC   C3B39417   4.754  24.341   6.973
 2824POPC   C4B39418   4.822  24.141   7.370
 2825POPC   NC339419  25.669  25.118   5.448
 2825POPC   PO439420  25.120  25.050   5.149
 2825POPC   GL139421  25.210  25.150   5.639
 2825POPC   GL239422  25.069  24.925   5.804
 2825POPC   C1A39423  25.303  25.330   6.076
 2825POPC   D2A39424  25.486  25.204   6.488
 2825POPC   C3A39425  25.382  25.300   6.898
 2825POPC   C4A39426  25.604  25.549   7.186
 2825POPC   C1B39427  24.904  25.024   6.184
 2825POPC   C2B39428  24.979  25.301   6.501
 2825POPC   C3B39429  24.827  25.215   6.858
 2825POPC   C4B39430  25.028  25.024   7.131
 2826POPC   NC339431  36.739  20.786   5.086
 2826POPC   PO439432  36.177  20.415   5.262
 2826POPC   GL139433  36.103  20.490   5.669
 2826POPC   GL239434  36.195  20.136   5.728
 2826POPC   C1A39435  36.267  20.621   6.078
 2826POPC   D2A39436  36.036  20.639   6.457
 2826POPC   C3A39437  36.220  20.815   6.795
 2826POPC   C4A39438  36.157  20.706   7.207
 2826POPC   C1B39439  35.947  20.233   6.104
 2826POPC   C2B39440  35.896  20.134   6.518
 2826POPC   C3B39441  35.974  20.299   6.927
 2826POPC   C4B39442  35.828  20.124   7.319
 2827POPC   NC339443  27.748  17.493   5.227
 2827POPC   PO439444  28.377  17.375   5.384
 2827POPC   GL139445  28.315  17.374   5.846
 2827POPC   GL239446  28.037  17.238   5.998
 2827POPC   C1A39447  28.308  17.578   6.270
 2827POPC   D2A39448  28.619  17.681   6.580
 2827POPC   C3A39449  28.435  17.530   6.970
 2827POPC   C4A39450  28.328  17.598   7.434
 2827POPC   C1B39451  27.825  17.383   6.335
 2827POPC   C2B39452  28.016  17.344   6.719
 2827POPC   C3B39453  28.021  17.166   7.122
 2827POPC   C4B39454  27.865  17.372   7.479
 2828POPC   NC339455  12.436  24.134   5.333
 2828POPC   PO439456  13.079  23.733   5.257
 2828POPC   GL139457  12.981  23.692   5.717
 2828POPC   GL239458  12.699  23.943   5.835
 2828POPC   C1A39459  12.906  23.585   6.155
 2828POPC   D2A39460  12.846  23.759   6.563
 2828POPC   C3A39461  12.833  23.544   6.962
 2828POPC   C4A39462  12.660  23.837   7.270
 2828POPC   C1B39463  13.037  24.103   6.148
 2828POPC   C2B39464  13.239  24.098   6.591
 2828POPC   C3B39465  13.113  23.976   7.038
 2828POPC   C4B39466  13.090  23.937   7.538
 2829POPC   NC339467  35.908  10.328   5.271
 2829POPC   PO439468  36.278  10.928   5.355
 2829POPC   GL139469  36.128  10.735   5.746
 2829POPC   GL239470  36.142  10.362   5.771
 2829POPC   C1A39471  35.888  10.695   6.145
 2829POPC   D2A39472  35.894  10.486   6.552
 2829POPC   C3A39473  35.995  10.672   6.948
 2829POPC   C4A39474  36.359  10.506   7.177
 2829POPC   C1B39475  35.927  10.168   6.147
 2829POPC   C2B39476  35.859   9.973   6.580
 2829POPC   C3B39477  36.009  10.147   6.985
 2829POPC   C4B39478  35.868  10.176   7.428
 2830POPC   NC339479  14.517  14.195   5.165
 2830POPC   PO439480  14.254  13.603   5.279
 2830POPC   GL139481  14.420  13.688   5.673
 2830POPC   GL239482  14.144  13.895   5.817
 2830POPC   C1A39483  14.649  13.530   6.068
 2830POPC   D2A39484  14.775  13.639   6.504
 2830POPC   C3A39485  14.436  13.708   6.826
 2830POPC   C4A39486  14.513  13.681   7.265
 2830POPC   C1B39487  14.136  13.456   6.041
 2830POPC   C2B39488  14.299  13.342   6.472
 2830POPC   C3B39489  14.163  13.206   6.895
 2830POPC   C4B39490  14.336  13.214   7.314
 2831POPC   NC339491  30.547   8.775   5.376
 2831POPC   PO439492  31.009   9.240   5.405
 2831POPC   GL139493  30.766   9.039   5.768
 2831POPC   GL239494  30.838   8.670   5.786
 2831POPC   C1A39495  30.694   9.000   6.250
 2831POPC   D2A39496  30.877   8.935   6.708
 2831POPC   C3A39497  30.713   9.160   7.121
 2831POPC   C4A39498  30.399   9.305   7.461
 2831POPC   C1B39499  30.766   8.480   6.178
 2831POPC   C2B39500  30.604   8.476   6.594
 2831POPC   C3B39501  30.552   8.661   6.990
 2831POPC   C4B39502  30.869   8.693   7.250
 2832POPC   NC339503   8.486   3.633   5.182
 2832POPC   PO439504   8.006   3.238   5.471
 2832POPC   GL139505   8.073   3.457   5.814
 2832POPC   GL239506   8.371   3.630   5.689
 2832POPC   C1A39507   8.155   3.460   6.250
 2832POPC   D2A39508   7.919   3.427   6.624
 2832POPC   C3A39509   8.112   3.504   7.012
 2832POPC   C4A39510   8.088   3.685   7.412
 2832POPC   C1B39511   8.560   3.733   6.076
 2832POPC   C2B39512   8.578   3.752   6.519
 2832POPC   C3B39513   8.433   3.921   6.915
 2832POPC   C4B39514   8.547   3.878   7.338
 2833POPC   NC339515   0.816  13.272   5.594
 2833POPC   PO439516   0.417  13.743   5.302
 2833POPC   GL139517   0.652  13.783   5.683
 2833POPC   GL239518   0.463  13.532   5.849
 2833POPC   C1A39519   0.579  13.955   6.118
 2833POPC   D2A39520   0.415  13.672   6.482
 2833POPC   C3A39521   0.261  13.853   6.876
 2833POPC   C4A39522   0.477  13.817   7.253
 2833POPC   C1B39523   0.359  13.238   6.168
 2833POPC   C2B39524   0.240  13.142   6.569
 2833POPC   C3B39525   0.402  13.326   6.912
 2833POPC   C4B39526   0.487  13.288   7.339
 2834POPC   NC339527  41.596   1.500   5.380
 2834POPC   PO439528  41.735   2.199   5.387
 2834POPC   GL139529  41.828   2.101   5.807
 2834POPC   GL239530  41.802   1.749   5.767
 2834POPC   C1A39531  41.691   2.156   6.252
 2834POPC   D2A39532  41.593   2.353   6.685
 2834POPC   C3A39533  41.476   2.070   7.035
 2834POPC   C4A39534  41.658   2.001   7.487
 2834POPC   C1B39535  41.518   1.625   6.106
 2834POPC   C2B39536  41.363   1.519   6.520
 2834POPC   C3B39537  41.496   1.564   6.970
 2834POPC   C4B39538  41.281   1.687   7.329
 2835POPC   NC339539  15.339  11.748   5.386
 2835POPC   PO439540  15.050  11.108   5.461
 2835POPC   GL139541  15.161  11.377   5.782
 2835POPC   GL239542  14.803  11.382   5.910
 2835POPC   C1A39543  15.488  11.327   6.140
 2835POPC   D2A39544  15.649  11.195   6.584
 2835POPC   C3A39545  15.481  11.480   6.924
 2835POPC   C4A39546  15.036  11.615   7.023
 2835POPC   C1B39547  14.963  11.312   6.240
 2835POPC   C2B39548  15.171  11.394   6.549
 2835POPC   C3B39549  15.132  11.119   6.874
 2835POPC   C4B39550  14.966  11.137   7.272
 2836POPC   NC339551  13.490  17.934   5.568
 2836POPC   PO439552  13.894  17.449   5.306
 2836POPC   GL139553  13.821  17.240   5.731
 2836POPC   GL239554  13.797  17.567   5.879
 2836POPC   C1A39555  13.621  17.227   6.212
 2836POPC   D2A39556  13.618  17.476   6.630
 2836POPC   C3A39557  13.414  17.370   7.031
 2836POPC   C4A39558  13.621  17.401   7.448
 2836POPC   C1B39559  13.625  17.803   6.247
 2836POPC   C2B39560  13.677  18.007   6.668
 2836POPC   C3B39561  13.677  17.834   7.082
 2836POPC   C4B39562  13.304  17.784   7.308
 2837POPC   NC339563  37.003  17.348   5.453
 2837POPC   PO439564  36.944  17.984   5.396
 2837POPC   GL139565  36.847  17.713   5.783
 2837POPC   GL239566  36.559  17.482   5.798
 2837POPC   C1A39567  36.935  17.432   6.155
 2837POPC   D2A39568  37.279  17.421   6.458
 2837POPC   C3A39569  37.117  17.491   6.864
 2837POPC   C4A39570  37.047  17.555   7.299
 2837POPC   C1B39571  36.412  17.437   6.221
 2837POPC   C2B39572  36.504  17.365   6.670
 2837POPC   C3B39573  36.598  17.448   7.095
 2837POPC   C4B39574  36.618  17.345   7.541
 2838POPC   NC339575  39.503  39.912   5.523
 2838POPC   PO439576  38.918  40.226   5.445
 2838POPC   GL139577  39.127  40.142   5.822
 2838POPC   GL239578  39.428  40.352   5.813
 2838POPC   C1A39579  39.343  39.998   6.197
 2838POPC   D2A39580  39.411  40.135   6.602
 2838POPC   C3A39581  39.406  39.891   6.952
 2838POPC   C4A39582  39.174  39.889   7.329
 2838POPC   C1B39583  39.183  40.493   6.188
 2838POPC   C2B39584  39.056  40.503   6.627
 2838POPC   C3B39585  39.146  40.326   7.045
 2838POPC   C4B39586  39.162  40.357   7.526
 2839POPC   NC339587  29.875  30.713   5.435
 2839POPC   PO439588  30.215  31.139   5.778
 2839POPC   GL139589  29.902  30.823   5.966
 2839POPC   GL239590  29.771  30.487   5.887
 2839POPC   C1A39591  29.817  30.727   6.411
 2839POPC   D2A39592  30.072  30.794   6.810
 2839POPC   C3A39593  29.832  30.871   7.155
 2839POPC   C4A39594  29.550  31.212   7.072
 2839POPC   C1B39595  29.988  30.272   6.220
 2839POPC   C2B39596  30.024  30.313   6.673
 2839POPC   C3B39597  30.078  30.383   7.130
 2839POPC   C4B39598  29.799  30.413   7.466
 2840POPC   NC339599  10.258  10.010   5.505
 2840POPC   PO439600   9.664   9.595   5.459
 2840POPC   GL139601   9.703   9.566   5.845
 2840POPC   GL239602   9.497   9.253   5.887
 2840POPC   C1A39603   9.821   9.798   6.228
 2840POPC   D2A39604   9.945  10.107   6.556
 2840POPC   C3A39605   9.999   9.863   6.917
 2840POPC   C4A39606   9.759   9.866   7.312
 2840POPC   C1B39607   9.779   9.276   6.230
 2840POPC   C2B39608   9.999   9.437   6.543
 2840POPC   C3B39609   9.861   9.376   6.915
 2840POPC   C4B39610   9.820   9.371   7.285
 2841POPC   NC339611  33.281  18.436   5.448
 2841POPC   PO439612  32.712  18.131   5.385
 2841POPC   GL139613  32.868  18.135   5.762
 2841POPC   GL239614  32.723  18.436   5.825
 2841POPC   C1A39615  33.124  18.037   6.135
 2841POPC   D2A39616  33.294  18.269   6.497
 2841POPC   C3A39617  33.153  18.283   6.935
 2841POPC   C4A39618  33.117  17.938   7.214
 2841POPC   C1B39619  32.638  18.181   6.215
 2841POPC   C2B39620  32.769  18.131   6.620
 2841POPC   C3B39621  32.644  18.225   7.035
 2841POPC   C4B39622  32.852  18.393   7.353
 2842POPC   NC339623  13.615  22.681   5.488
 2842POPC   PO439624  13.371  23.236   5.057
 2842POPC   GL139625  13.319  23.171   5.578
 2842POPC   GL239626  13.400  22.895   5.870
 2842POPC   C1A39627  13.349  23.335   6.064
 2842POPC   D2A39628  13.407  23.121   6.467
 2842POPC   C3A39629  13.595  23.180   6.889
 2842POPC   C4A39630  13.457  23.347   7.263
 2842POPC   C1B39631  13.625  22.709   6.197
 2842POPC   C2B39632  13.727  22.757   6.623
 2842POPC   C3B39633  13.436  22.683   6.961
 2842POPC   C4B39634  13.130  22.946   7.179
 2843POPC   NC339635  29.176  37.683   5.573
 2843POPC   PO439636  29.562  37.240   5.512
 2843POPC   GL139637  29.706  37.590   5.791
 2843POPC   GL239638  29.438  37.615   6.018
 2843POPC   C1A39639  29.875  37.762   6.230
 2843POPC   D2A39640  29.564  37.636   6.535
 2843POPC   C3A39641  29.544  37.705   6.979
 2843POPC   C4A39642  29.812  37.880   7.308
 2843POPC   C1B39643  29.716  37.277   6.204
 2843POPC   C2B39644  29.976  37.329   6.592
 2843POPC   C3B39645  29.984  37.472   7.022
 2843POPC   C4B39646  29.637  37.403   7.363
 2844POPC   NC339647   1.085  36.614   4.926
 2844POPC   PO439648   1.180  37.105   5.275
 2844POPC   GL139649   1.098  36.869   5.662
 2844POPC   GL239650   1.441  36.774   5.712
 2844POPC   C1A39651   1.086  36.688   6.107
 2844POPC   D2A39652   1.270  36.732   6.532
 2844POPC   C3A39653   1.042  36.732   6.939
 2844POPC   C4A39654   0.986  36.467   7.305
 2844POPC   C1B39655   1.629  36.674   6.106
 2844POPC   C2B39656   1.766  36.909   6.460
 2844POPC   C3B39657   1.661  36.814   6.873
 2844POPC   C4B39658   1.444  36.829   7.242
 2845POPC   NC339659  28.064  19.165   5.504
 2845POPC   PO439660  27.424  18.830   5.477
 2845POPC   GL139661  27.528  18.778   5.889
 2845POPC   GL239662  27.830  18.856   5.839
 2845POPC   C1A39663  27.456  18.950   6.300
 2845POPC   D2A39664  27.452  19.064   6.712
 2845POPC   C3A39665  27.668  18.824   6.997
 2845POPC   C4A39666  27.549  18.925   7.380
 2845POPC   C1B39667  27.862  19.204   6.130
 2845POPC   C2B39668  27.942  19.072   6.545
 2845POPC   C3B39669  27.884  19.284   6.911
 2845POPC   C4B39670  28.024  19.108   7.289
 2846POPC   NC339671  38.410  30.283   5.353
 2846POPC   PO439672  38.470  29.675   5.524
 2846POPC   GL139673  38.274  29.977   5.774
 2846POPC   GL239674  38.532  29.872   6.006
 2846POPC   C1A39675  38.236  30.228   6.180
 2846POPC   D2A39676  38.620  30.143   6.438
 2846POPC   C3A39677  38.525  29.974   6.832
 2846POPC   C4A39678  38.465  29.960   7.257
 2846POPC   C1B39679  38.791  29.685   6.310
 2846POPC   C2B39680  38.593  29.467   6.633
 2846POPC   C3B39681  38.631  29.518   7.057
 2846POPC   C4B39682  38.930  29.723   7.269
 2847POPC   NC339683  17.847  11.467   5.122
 2847POPC   PO439684  17.200  11.633   5.393
 2847POPC   GL139685  17.274  11.336   5.740
 2847POPC   GL239686  16.996  11.139   5.828
 2847POPC   C1A39687  17.493  11.250   6.166
 2847POPC   D2A39688  17.847  11.312   6.493
 2847POPC   C3A39689  17.711  11.231   6.946
 2847POPC   C4A39690  17.567  11.260   7.417
 2847POPC   C1B39691  17.012  11.432   6.189
 2847POPC   C2B39692  17.133  11.521   6.616
 2847POPC   C3B39693  17.208  11.356   7.038
 2847POPC   C4B39694  17.132  11.479   7.504
 2848POPC   NC339695  13.175  37.869   5.357
 2848POPC   PO439696  12.902  37.309   5.427
 2848POPC   GL139697  12.819  37.679   5.747
 2848POPC   GL239698  12.561  37.540   5.947
 2848POPC   C1A39699  12.783  37.960   6.166
 2848POPC   D2A39700  12.940  38.000   6.641
 2848POPC   C3A39701  13.022  37.708   6.995
 2848POPC   C4A39702  13.281  37.736   7.360
 2848POPC   C1B39703  12.454  37.422   6.374
 2848POPC   C2B39704  12.296  37.536   6.781
 2848POPC   C3B39705  12.460  37.482   7.192
 2848POPC   C4B39706  12.460  37.547   7.620
 2849POPC   NC339707  21.436  20.089   5.490
 2849POPC   PO439708  21.160  19.488   5.402
 2849POPC   GL139709  21.381  19.639   5.779
 2849POPC   GL239710  21.219  19.938   5.921
 2849POPC   C1A39711  21.640  19.744   6.145
 2849POPC   D2A39712  21.666  19.943   6.550
 2849POPC   C3A39713  21.421  19.704   6.850
 2849POPC   C4A39714  21.608  19.635   7.234
 2849POPC   C1B39715  20.914  20.070   6.218
 2849POPC   C2B39716  20.925  20.078   6.652
 2849POPC   C3B39717  20.923  19.862   7.021
 2849POPC   C4B39718  21.217  19.926   7.314
 2850POPC   NC339719  44.459  14.153   5.370
 2850POPC   PO439720   0.047  14.407   5.444
 2850POPC   GL139721  44.841  14.562   5.801
 2850POPC   GL239722  44.483  14.525   5.760
 2850POPC   C1A39723  44.738  14.346   6.202
 2850POPC   D2A39724  44.872  14.018   6.489
 2850POPC   C3A39725  44.916  14.271   6.846
 2850POPC   C4A39726  44.773  14.375   7.244
 2850POPC   C1B39727  44.242  14.425   6.112
 2850POPC   C2B39728  44.355  14.492   6.547
 2850POPC   C3B39729  44.315  14.443   7.001
 2850POPC   C4B39730  44.316  14.074   7.235
 2851POPC   NC339731  16.064  31.198   5.481
 2851POPC   PO439732  16.327  31.826   5.434
 2851POPC   GL139733  16.226  31.561   5.805
 2851POPC   GL239734  15.839  31.525   5.801
 2851POPC   C1A39735  16.105  31.343   6.203
 2851POPC   D2A39736  16.112  31.138   6.613
 2851POPC   C3A39737  15.988  31.294   7.004
 2851POPC   C4A39738  16.058  31.296   7.438
 2851POPC   C1B39739  15.688  31.662   6.231
 2851POPC   C2B39740  15.647  31.505   6.682
 2851POPC   C3B39741  15.653  31.672   7.130
 2851POPC   C4B39742  15.363  31.828   7.451
 2852POPC   NC339743  11.587  28.869   5.534
 2852POPC   PO439744  10.913  28.719   5.504
 2852POPC   GL139745  11.203  28.529   5.817
 2852POPC   GL239746  11.470  28.268   5.906
 2852POPC   C1A39747  11.058  28.275   6.170
 2852POPC   D2A39748  11.021  28.393   6.554
 2852POPC   C3A39749  11.292  28.298   6.864
 2852POPC   C4A39750  11.194  28.342   7.286
 2852POPC   C1B39751  11.456  28.587   6.266
 2852POPC   C2B39752  11.559  28.694   6.704
 2852POPC   C3B39753  11.534  28.700   7.164
 2852POPC   C4B39754  11.786  28.824   7.534
 2853POPC   NC339755  15.250  17.636   5.511
 2853POPC   PO439756  15.021  16.998   5.454
 2853POPC   GL139757  15.090  17.251   5.834
 2853POPC   GL239758  15.461  17.298   5.869
 2853POPC   C1A39759  15.178  17.157   6.280
 2853POPC   D2A39760  15.310  17.428   6.604
 2853POPC   C3A39761  15.069  17.662   6.866
 2853POPC   C4A39762  15.287  17.528   7.237
 2853POPC   C1B39763  15.423  17.668   6.163
 2853POPC   C2B39764  15.403  17.932   6.542
 2853POPC   C3B39765  15.586  17.896   6.955
 2853POPC   C4B39766  15.462  17.975   7.355
 2854POPC   NC339767  39.613  13.324   5.553
 2854POPC   PO439768  40.039  13.788   5.322
 2854POPC   GL139769  39.958  13.679   5.748
 2854POPC   GL239770  40.232  13.436   5.806
 2854POPC   C1A39771  39.875  13.631   6.201
 2854POPC   D2A39772  40.145  13.598   6.551
 2854POPC   C3A39773  39.980  13.675   6.935
 2854POPC   C4A39774  39.620  13.620   7.161
 2854POPC   C1B39775  40.416  13.307   6.214
 2854POPC   C2B39776  40.587  13.364   6.646
 2854POPC   C3B39777  40.317  13.242   6.996
 2854POPC   C4B39778  40.033  13.357   7.335
 2855POPC   NC339779  38.322   1.399   5.557
 2855POPC   PO439780  38.512   0.728   5.362
 2855POPC   GL139781  38.595   0.989   5.737
 2855POPC   GL239782  38.306   0.990   5.881
 2855POPC   C1A39783  38.658   1.251   6.168
 2855POPC   D2A39784  38.863   1.135   6.585
 2855POPC   C3A39785  38.778   1.375   6.976
 2855POPC   C4A39786  38.382   1.283   7.158
 2855POPC   C1B39787  38.162   0.994   6.267
 2855POPC   C2B39788  38.047   1.110   6.654
 2855POPC   C3B39789  38.077   0.894   7.012
 2855POPC   C4B39790  38.117   0.838   7.422
 2856POPC   NC339791  18.728  25.981   5.647
 2856POPC   PO439792  19.377  26.233   5.496
 2856POPC   GL139793  19.127  26.272   5.834
 2856POPC   GL239794  19.211  25.954   5.897
 2856POPC   C1A39795  18.957  26.159   6.270
 2856POPC   D2A39796  19.119  26.332   6.647
 2856POPC   C3A39797  18.954  26.241   7.077
 2856POPC   C4A39798  18.986  26.274   7.538
 2856POPC   C1B39799  19.472  25.673   6.150
 2856POPC   C2B39800  19.647  25.618   6.589
 2856POPC   C3B39801  19.484  25.607   7.029
 2856POPC   C4B39802  19.179  25.823   7.332
 2857POPC   NC339803  18.468  29.350   5.300
 2857POPC   PO439804  17.965  28.989   5.138
 2857POPC   GL139805  18.085  29.244   5.606
 2857POPC   GL239806  18.445  29.104   5.745
 2857POPC   C1A39807  18.090  29.323   6.101
 2857POPC   D2A39808  18.358  29.510   6.419
 2857POPC   C3A39809  18.336  29.339   6.842
 2857POPC   C4A39810  18.021  29.088   7.090
 2857POPC   C1B39811  18.604  28.836   6.118
 2857POPC   C2B39812  18.439  28.905   6.538
 2857POPC   C3B39813  18.432  28.790   6.967
 2857POPC   C4B39814  18.659  28.771   7.322
 2858POPC   NC339815  16.031   6.742   5.296
 2858POPC   PO439816  15.541   6.288   5.450
 2858POPC   GL139817  15.835   6.570   5.765
 2858POPC   GL239818  16.222   6.545   5.748
 2858POPC   C1A39819  15.810   6.831   6.177
 2858POPC   D2A39820  15.587   6.807   6.590
 2858POPC   C3A39821  15.699   6.733   7.051
 2858POPC   C4A39822  15.745   6.609   7.512
 2858POPC   C1B39823  16.288   6.657   6.193
 2858POPC   C2B39824  16.164   6.836   6.606
 2858POPC   C3B39825  16.224   6.659   7.027
 2858POPC   C4B39826  16.252   6.625   7.479
 2859POPC   NC339827  43.972   3.718   5.092
 2859POPC   PO439828  43.567   3.394   5.473
 2859POPC   GL139829  43.767   3.444   5.804
 2859POPC   GL239830  44.071   3.481   5.671
 2859POPC   C1A39831  43.635   3.454   6.196
 2859POPC   D2A39832  43.776   3.658   6.545
 2859POPC   C3A39833  43.540   3.582   6.844
 2859POPC   C4A39834  43.612   3.448   7.250
 2859POPC   C1B39835  44.142   3.471   6.140
 2859POPC   C2B39836  43.964   3.197   6.489
 2859POPC   C3B39837  43.980   3.325   6.913
 2859POPC   C4B39838  44.288   3.409   7.243
 2860POPC   NC339839   5.566   9.630   5.311
 2860POPC   PO439840   6.150   9.975   5.429
 2860POPC   GL139841   5.955   9.780   5.771
 2860POPC   GL239842   5.922   9.446   5.688
 2860POPC   C1A39843   5.935   9.875   6.220
 2860POPC   D2A39844   5.642   9.793   6.541
 2860POPC   C3A39845   5.779   9.814   6.959
 2860POPC   C4A39846   5.624   9.887   7.361
 2860POPC   C1B39847   5.630   9.460   6.058
 2860POPC   C2B39848   5.686   9.260   6.468
 2860POPC   C3B39849   5.625   9.336   6.867
 2860POPC   C4B39850   5.714   9.394   7.271
 2861POPC   NC339851  34.972   1.235   5.406
 2861POPC   PO439852  35.641   1.403   5.492
 2861POPC   GL139853  35.393   1.096   5.804
 2861POPC   GL239854  34.998   1.050   5.882
 2861POPC   C1A39855  35.283   1.193   6.258
 2861POPC   D2A39856  35.486   1.169   6.647
 2861POPC   C3A39857  35.409   1.481   6.945
 2861POPC   C4A39858  35.542   1.246   7.284
 2861POPC   C1B39859  34.978   0.762   6.250
 2861POPC   C2B39860  35.086   0.829   6.696
 2861POPC   C3B39861  35.065   1.091   7.074
 2861POPC   C4B39862  34.856   0.937   7.460
 2862POPC   NC339863  15.741   5.798   5.450
 2862POPC   PO439864  16.442   5.947   5.417
 2862POPC   GL139865  16.142   5.817   5.771
 2862POPC   GL239866  15.831   6.065   5.865
 2862POPC   C1A39867  15.994   5.725   6.196
 2862POPC   D2A39868  15.785   5.918   6.551
 2862POPC   C3A39869  15.997   5.795   6.924
 2862POPC   C4A39870  15.926   5.687   7.327
 2862POPC   C1B39871  15.859   6.324   6.241
 2862POPC   C2B39872  15.918   6.389   6.697
 2862POPC   C3B39873  15.889   6.250   7.130
 2862POPC   C4B39874  15.989   6.168   7.562
 2863POPC   NC339875   6.950  42.212   5.369
 2863POPC   PO439876   6.338  42.223   5.534
 2863POPC   GL139877   6.706  42.175   5.811
 2863POPC   GL239878   6.962  42.461   5.830
 2863POPC   C1A39879   6.923  42.083   6.182
 2863POPC   D2A39880   6.723  42.142   6.602
 2863POPC   C3A39881   6.979  42.135   7.001
 2863POPC   C4A39882   6.773  42.127   7.432
 2863POPC   C1B39883   6.839  42.572   6.286
 2863POPC   C2B39884   6.855  42.613   6.751
 2863POPC   C3B39885   6.764  42.559   7.179
 2863POPC   C4B39886   6.628  42.684   7.600
 2864POPC   NC339887  29.829  20.216   5.489
 2864POPC   PO439888  30.211  20.685   5.265
 2864POPC   GL139889  30.108  20.592   5.735
 2864POPC   GL239890  29.758  20.701   5.806
 2864POPC   C1A39891  29.991  20.509   6.212
 2864POPC   D2A39892  29.658  20.400   6.551
 2864POPC   C3A39893  29.823  20.407   7.003
 2864POPC   C4A39894  30.179  20.580   7.292
 2864POPC   C1B39895  29.609  20.874   6.224
 2864POPC   C2B39896  29.740  21.053   6.649
 2864POPC   C3B39897  29.666  20.939   7.101
 2864POPC   C4B39898  29.759  20.764   7.528
 2865POPC   NC339899   4.401  10.918   5.246
 2865POPC   PO439900   4.400  11.630   5.160
 2865POPC   GL139901   4.222  11.542   5.696
 2865POPC   GL239902   4.177  11.217   5.911
 2865POPC   C1A39903   4.422  11.560   6.157
 2865POPC   D2A39904   4.170  11.492   6.502
 2865POPC   C3A39905   4.342  11.546   6.873
 2865POPC   C4A39906   4.448  11.298   7.213
 2865POPC   C1B39907   4.081  11.018   6.324
 2865POPC   C2B39908   4.122  11.060   6.777
 2865POPC   C3B39909   4.184  10.885   7.162
 2865POPC   C4B39910   4.266  10.859   7.621
 2866POPC   NC339911  25.846  37.919   5.387
 2866POPC   PO439912  26.063  37.287   5.408
 2866POPC   GL139913  26.007  37.589   5.813
 2866POPC   GL239914  26.186  37.894   5.831
 2866POPC   C1A39915  26.082  37.759   6.302
 2866POPC   D2A39916  26.374  37.904   6.657
 2866POPC   C3A39917  26.305  37.654   7.031
 2866POPC   C4A39918  25.901  37.460   7.132
 2866POPC   C1B39919  25.876  38.171   6.051
 2866POPC   C2B39920  25.821  38.239   6.472
 2866POPC   C3B39921  25.878  37.964   6.818
 2866POPC   C4B39922  26.088  38.086   7.182
 2867POPC   NC339923  35.232   9.497   5.153
 2867POPC   PO439924  34.985   9.790   5.692
 2867POPC   GL139925  35.239   9.658   5.972
 2867POPC   GL239926  35.515   9.581   5.715
 2867POPC   C1A39927  35.264   9.722   6.405
 2867POPC   D2A39928  35.272   9.504   6.774
 2867POPC   C3A39929  35.321   9.799   7.053
 2867POPC   C4A39930  35.371  10.102   7.335
 2867POPC   C1B39931  35.697   9.696   6.154
 2867POPC   C2B39932  35.738   9.463   6.571
 2867POPC   C3B39933  35.699   9.441   7.056
 2867POPC   C4B39934  35.645   9.672   7.511
 2868POPC   NC339935  16.547   0.312   5.542
 2868POPC   PO439936  16.686  44.536   5.503
 2868POPC   GL139937  16.863  44.629   5.883
 2868POPC   GL239938  16.778  44.979   5.878
 2868POPC   C1A39939  16.780  44.699   6.335
 2868POPC   D2A39940  16.541  44.993   6.612
 2868POPC   C3A39941  16.526  44.816   7.033
 2868POPC   C4A39942  16.737  44.408   7.092
 2868POPC   C1B39943  17.076   0.082   6.197
 2868POPC   C2B39944  17.028   0.167   6.641
 2868POPC   C3B39945  17.032  44.853   6.981
 2868POPC   C4B39946  16.907  44.801   7.410
 2869POPC   NC339947   8.676  23.432   5.348
 2869POPC   PO439948   9.002  22.757   5.361
 2869POPC   GL139949   8.964  22.905   5.788
 2869POPC   GL239950   9.018  23.236   5.771
 2869POPC   C1A39951   8.773  23.027   6.189
 2869POPC   D2A39952   8.615  23.049   6.613
 2869POPC   C3A39953   8.921  22.883   6.864
 2869POPC   C4A39954   8.896  22.558   7.178
 2869POPC   C1B39955   9.294  23.137   6.137
 2869POPC   C2B39956   9.382  23.020   6.581
 2869POPC   C3B39957   9.320  23.275   6.953
 2869POPC   C4B39958   9.321  23.206   7.366
 2870POPC   NC339959   2.008  40.223   5.548
 2870POPC   PO439960   1.596  39.705   5.415
 2870POPC   GL139961   1.700  39.832   5.839
 2870POPC   GL239962   1.773  40.163   6.001
 2870POPC   C1A39963   1.999  39.739   6.185
 2870POPC   D2A39964   2.223  39.839   6.553
 2870POPC   C3A39965   1.960  39.836   6.911
 2870POPC   C4A39966   2.109  39.737   7.339
 2870POPC   C1B39967   2.192  40.258   6.235
 2870POPC   C2B39968   2.325  40.335   6.697
 2870POPC   C3B39969   2.101  40.301   7.113
 2870POPC   C4B39970   2.036  40.321   7.581
 2871POPC   NC339971  22.475   8.811   5.411
 2871POPC   PO439972  21.797   8.956   5.096
 2871POPC   GL139973  21.862   8.797   5.581
 2871POPC   GL239974  22.181   8.771   5.812
 2871POPC   C1A39975  21.749   8.758   6.053
 2871POPC   D2A39976  21.971   8.923   6.426
 2871POPC   C3A39977  21.853   8.767   6.857
 2871POPC   C4A39978  21.826   8.956   7.280
 2871POPC   C1B39979  22.441   8.541   6.131
 2871POPC   C2B39980  22.310   8.572   6.576
 2871POPC   C3B39981  22.357   8.704   7.002
 2871POPC   C4B39982  22.610   8.495   7.285
 2872POPC   NC339983  19.792  25.035   5.079
 2872POPC   PO439984  19.960  24.465   5.428
 2872POPC   GL139985  19.868  24.427   5.821
 2872POPC   GL239986  19.550  24.219   5.720
 2872POPC   C1A39987  20.111  24.576   6.176
 2872POPC   D2A39988  19.930  24.529   6.566
 2872POPC   C3A39989  20.065  24.422   6.947
 2872POPC   C4A39990  20.078  24.745   7.269
 2872POPC   C1B39991  19.477  24.199   6.165
 2872POPC   C2B39992  19.545  24.213   6.604
 2872POPC   C3B39993  19.525  24.512   6.907
 2872POPC   C4B39994  19.657  24.379   7.289
 2873POPC   NC339995  16.645  15.571   5.619
 2873POPC   PO439996  16.566  15.160   5.079
 2873POPC   GL139997  16.766  15.090   5.583
 2873POPC   GL239998  16.548  15.222   5.958
 2873POPC   C1A39999  16.985  15.008   6.010
 2873POPC   D2A40000  17.090  15.182   6.413
 2873POPC   C3A40001  16.785  15.240   6.755
 2873POPC   C4A40002  16.580  15.008   7.072
 2873POPC   C1B40003  16.586  15.512   6.328
 2873POPC   C2B40004  16.326  15.562   6.735
 2873POPC   C3B40005  16.549  15.519   7.106
 2873POPC   C4B40006  16.989  15.582   7.118
 2874POPC   NC340007  38.819  17.894   5.356
 2874POPC   PO440008  39.480  17.972   5.526
 2874POPC   GL140009  39.131  18.246   5.716
 2874POPC   GL240010  38.992  17.982   5.880
 2874POPC   C1A40011  38.992  18.475   6.103
 2874POPC   D2A40012  39.216  18.534   6.559
 2874POPC   C3A40013  38.990  18.475   6.974
 2874POPC   C4A40014  39.024  18.057   7.146
 2874POPC   C1B40015  39.364  18.152   6.173
 2874POPC   C2B40016  39.629  18.187   6.532
 2874POPC   C3B40017  39.545  18.059   6.912
 2874POPC   C4B40018  39.442  18.349   7.206
 2875POPC   NC340019   7.302  43.685   5.334
 2875POPC   PO440020   7.812  44.029   5.507
 2875POPC   GL140021   7.515  44.121   5.779
 2875POPC   GL240022   7.317  43.834   5.819
 2875POPC   C1A40023   7.643  44.018   6.186
 2875POPC   D2A40024   7.443  44.138   6.560
 2875POPC   C3A40025   7.667  43.956   6.897
 2875POPC   C4A40026   7.589  44.036   7.309
 2875POPC   C1B40027   7.169  43.818   6.230
 2875POPC   C2B40028   7.279  43.669   6.646
 2875POPC   C3B40029   7.181  43.863   7.045
 2875POPC   C4B40030   7.288  43.624   7.390
 2876POPC   NC340031  33.360   6.329   5.426
 2876POPC   PO440032  32.951   6.865   5.330
 2876POPC   GL140033  32.944   6.702   5.748
 2876POPC   GL240034  33.200   6.925   5.823
 2876POPC   C1A40035  32.879   6.672   6.222
 2876POPC   D2A40036  33.012   6.909   6.585
 2876POPC   C3A40037  33.061   6.821   7.040
 2876POPC   C4A40038  32.970   6.748   7.483
 2876POPC   C1B40039  33.365   6.584   6.082
 2876POPC   C2B40040  33.374   6.527   6.537
 2876POPC   C3B40041  33.312   6.393   6.973
 2876POPC   C4B40042  33.390   6.504   7.405
 2877POPC   NC340043  26.667  12.078   5.502
 2877POPC   PO440044  27.289  11.777   5.459
 2877POPC   GL140045  27.044  11.903   5.815
 2877POPC   GL240046  26.810  12.159   5.972
 2877POPC   C1A40047  27.058  11.759   6.230
 2877POPC   D2A40048  26.939  11.798   6.665
 2877POPC   C3A40049  27.102  12.131   6.991
 2877POPC   C4A40050  27.206  12.201   7.439
 2877POPC   C1B40051  26.629  12.049   6.333
 2877POPC   C2B40052  26.636  12.205   6.751
 2877POPC   C3B40053  26.683  11.898   7.107
 2877POPC   C4B40054  26.518  11.909   7.493
 2878POPC   NC340055  36.063  16.114   5.604
 2878POPC   PO440056  36.468  15.656   5.362
 2878POPC   GL140057  36.308  15.645   5.865
 2878POPC   GL240058  36.061  15.926   6.056
 2878POPC   C1A40059  36.105  15.498   6.288
 2878POPC   D2A40060  36.102  15.364   6.705
 2878POPC   C3A40061  36.148  15.701   6.954
 2878POPC   C4A40062  35.853  15.920   7.201
 2878POPC   C1B40063  35.873  16.325   6.260
 2878POPC   C2B40064  35.774  16.555   6.663
 2878POPC   C3B40065  35.597  16.473   7.074
 2878POPC   C4B40066  35.653  16.263   7.515
 2879POPC   NC340067   6.805  35.063   5.407
 2879POPC   PO440068   6.295  35.456   5.356
 2879POPC   GL140069   6.525  35.324   5.743
 2879POPC   GL240070   6.895  35.411   5.776
 2879POPC   C1A40071   6.441  35.232   6.187
 2879POPC   D2A40072   6.362  35.573   6.522
 2879POPC   C3A40073   6.440  35.518   6.970
 2879POPC   C4A40074   6.416  35.180   7.245
 2879POPC   C1B40075   6.923  35.273   6.237
 2879POPC   C2B40076   6.769  35.193   6.659
 2879POPC   C3B40077   6.943  35.383   7.019
 2879POPC   C4B40078   6.932  35.674   7.313
 2880POPC   NC340079  15.928  14.684   5.576
 2880POPC   PO440080  15.883  14.042   5.408
 2880POPC   GL140081  15.812  14.231   5.825
 2880POPC   GL240082  16.149  14.393   5.925
 2880POPC   C1A40083  15.804  14.353   6.285
 2880POPC   D2A40084  16.078  14.241   6.624
 2880POPC   C3A40085  15.852  14.324   7.013
 2880POPC   C4A40086  15.478  14.557   7.168
 2880POPC   C1B40087  16.325  14.613   6.318
 2880POPC   C2B40088  16.342  14.660   6.780
 2880POPC   C3B40089  16.207  14.662   7.235
 2880POPC   C4B40090  15.925  14.786   7.610
 2881POPC   NC340091  10.942  25.192   5.382
 2881POPC   PO440092  11.627  25.006   5.380
 2881POPC   GL140093  11.452  25.166   5.792
 2881POPC   GL240094  11.105  25.290   5.851
 2881POPC   C1A40095  11.393  25.155   6.252
 2881POPC   D2A40096  11.674  25.144   6.577
 2881POPC   C3A40097  11.459  25.149   6.943
 2881POPC   C4A40098  11.515  24.806   7.228
 2881POPC   C1B40099  10.870  25.522   6.184
 2881POPC   C2B40100  10.929  25.609   6.628
 2881POPC   C3B40101  10.999  25.395   7.023
 2881POPC   C4B40102  10.761  25.408   7.400
 2882POPC   NC340103  30.103  42.774   5.102
 2882POPC   PO440104  29.550  43.187   5.081
 2882POPC   GL140105  29.838  42.904   5.514
 2882POPC   GL240106  29.972  43.150   5.806
 2882POPC   C1A40107  29.897  42.699   6.011
 2882POPC   D2A40108  29.916  42.757   6.518
 2882POPC   C3A40109  30.053  43.110   6.775
 2882POPC   C4A40110  30.052  43.242   7.212
 2882POPC   C1B40111  29.653  43.092   6.196
 2882POPC   C2B40112  29.514  43.142   6.615
 2882POPC   C3B40113  29.598  43.068   7.042
 2882POPC   C4B40114  29.670  42.983   7.461
 2883POPC   NC340115  40.696  27.269   5.355
 2883POPC   PO440116  40.374  26.730   5.257
 2883POPC   GL140117  40.620  26.809   5.685
 2883POPC   GL240118  40.583  27.139   5.820
 2883POPC   C1A40119  40.779  26.778   6.159
 2883POPC   D2A40120  40.566  26.707   6.587
 2883POPC   C3A40121  40.787  26.625   6.978
 2883POPC   C4A40122  41.167  26.606   7.184
 2883POPC   C1B40123  40.610  27.314   6.185
 2883POPC   C2B40124  40.749  27.211   6.557
 2883POPC   C3B40125  40.665  27.196   6.968
 2883POPC   C4B40126  40.863  27.126   7.335
 2884POPC   NC340127  33.221  23.952   5.566
 2884POPC   PO440128  32.614  23.839   5.604
 2884POPC   GL140129  32.950  23.584   5.864
 2884POPC   GL240130  33.323  23.468   5.773
 2884POPC   C1A40131  33.025  23.628   6.321
 2884POPC   D2A40132  33.152  23.771   6.746
 2884POPC   C3A40133  32.905  23.636   7.106
 2884POPC   C4A40134  32.672  23.980   7.342
 2884POPC   C1B40135  33.283  23.223   6.164
 2884POPC   C2B40136  33.382  23.351   6.596
 2884POPC   C3B40137  33.396  23.401   7.039
 2884POPC   C4B40138  33.445  23.471   7.470
 2885POPC   NC340139  25.761   7.557   5.464
 2885POPC   PO440140  26.417   7.634   5.551
 2885POPC   GL140141  26.084   7.575   5.876
 2885POPC   GL240142  25.903   7.247   5.871
 2885POPC   C1A40143  25.833   7.623   6.258
 2885POPC   D2A40144  26.025   7.611   6.651
 2885POPC   C3A40145  26.059   7.451   7.069
 2885POPC   C4A40146  26.341   7.682   7.340
 2885POPC   C1B40147  25.982   7.128   6.313
 2885POPC   C2B40148  26.321   7.189   6.617
 2885POPC   C3B40149  26.397   6.994   7.013
 2885POPC   C4B40150  26.402   7.150   7.394
 2886POPC   NC340151  16.176  12.986   5.392
 2886POPC   PO440152  15.465  12.916   5.368
 2886POPC   GL140153  15.709  12.934   5.728
 2886POPC   GL240154  15.603  12.622   5.865
 2886POPC   C1A40155  15.858  13.103   6.128
 2886POPC   D2A40156  15.875  12.930   6.548
 2886POPC   C3A40157  16.179  12.948   6.897
 2886POPC   C4A40158  15.777  12.963   7.141
 2886POPC   C1B40159  15.914  12.562   6.181
 2886POPC   C2B40160  16.121  12.478   6.583
 2886POPC   C3B40161  15.950  12.509   7.005
 2886POPC   C4B40162  15.761  12.555   7.445
 2887POPC   NC340163   6.296  26.762   5.442
 2887POPC   PO440164   5.709  27.134   5.434
 2887POPC   GL140165   5.814  26.964   5.821
 2887POPC   GL240166   6.132  27.049   5.859
 2887POPC   C1A40167   5.796  26.851   6.263
 2887POPC   D2A40168   5.495  26.789   6.596
 2887POPC   C3A40169   5.626  26.948   6.970
 2887POPC   C4A40170   5.895  26.867   7.274
 2887POPC   C1B40171   6.277  27.040   6.296
 2887POPC   C2B40172   6.125  26.915   6.711
 2887POPC   C3B40173   6.350  26.957   7.098
 2887POPC   C4B40174   6.270  27.099   7.552
 2888POPC   NC340175  34.020   8.434   5.415
 2888POPC   PO440176  33.385   8.569   5.378
 2888POPC   GL140177  33.592   8.240   5.687
 2888POPC   GL240178  33.917   8.022   5.719
 2888POPC   C1A40179  33.683   8.191   6.149
 2888POPC   D2A40180  33.477   8.061   6.542
 2888POPC   C3A40181  33.589   8.266   6.932
 2888POPC   C4A40182  33.795   8.377   7.295
 2888POPC   C1B40183  34.073   7.794   6.094
 2888POPC   C2B40184  33.982   7.849   6.540
 2888POPC   C3B40185  33.865   7.820   6.977
 2888POPC   C4B40186  34.018   7.639   7.373
 2889POPC   NC340187  28.974  44.429   5.427
 2889POPC   PO440188  28.911   0.036   5.277
 2889POPC   GL140189  28.992  44.850   5.750
 2889POPC   GL240190  28.936  44.518   5.915
 2889POPC   C1A40191  29.050  44.898   6.238
 2889POPC   D2A40192  29.243  44.770   6.626
 2889POPC   C3A40193  29.079  44.980   6.961
 2889POPC   C4A40194  28.920  44.718   7.261
 2889POPC   C1B40195  29.275  44.434   6.218
 2889POPC   C2B40196  29.495  44.322   6.617
 2889POPC   C3B40197  29.334  44.434   7.044
 2889POPC   C4B40198  29.482  44.368   7.484
 2890POPC   NC340199  21.247  27.059   5.491
 2890POPC   PO440200  21.534  27.640   5.508
 2890POPC   GL140201  21.348  27.423   5.831
 2890POPC   GL240202  21.686  27.261   5.831
 2890POPC   C1A40203  21.167  27.560   6.220
 2890POPC   D2A40204  21.376  27.745   6.571
 2890POPC   C3A40205  21.266  27.561   6.937
 2890POPC   C4A40206  21.115  27.768   7.293
 2890POPC   C1B40207  21.687  27.604   6.165
 2890POPC   C2B40208  21.910  27.647   6.550
 2890POPC   C3B40209  21.772  27.739   6.949
 2890POPC   C4B40210  21.600  27.584   7.325
 2891POPC   NC340211  36.837   0.998   5.222
 2891POPC   PO440212  37.223   1.560   5.281
 2891POPC   GL140213  36.903   1.447   5.631
 2891POPC   GL240214  36.775   1.084   5.704
 2891POPC   C1A40215  36.927   1.343   6.097
 2891POPC   D2A40216  37.236   1.390   6.427
 2891POPC   C3A40217  37.195   1.253   6.867
 2891POPC   C4A40218  36.895   1.358   7.182
 2891POPC   C1B40219  36.817   0.828   6.073
 2891POPC   C2B40220  36.969   0.928   6.469
 2891POPC   C3B40221  36.748   0.990   6.833
 2891POPC   C4B40222  36.668   0.903   7.236
 2892POPC   NC340223  13.194  14.786   5.327
 2892POPC   PO440224  12.767  15.359   5.562
 2892POPC   GL140225  13.022  15.270   5.923
 2892POPC   GL240226  13.272  14.999   5.819
 2892POPC   C1A40227  12.948  15.423   6.352
 2892POPC   D2A40228  12.618  15.388   6.658
 2892POPC   C3A40229  12.728  15.510   7.070
 2892POPC   C4A40230  12.895  15.312   7.419
 2892POPC   C1B40231  13.196  14.964   6.285
 2892POPC   C2B40232  13.054  15.071   6.730
 2892POPC   C3B40233  13.243  15.039   7.145
 2892POPC   C4B40234  13.211  14.863   7.583
 2893POPC   NC340235   6.758  10.180   5.410
 2893POPC   PO440236   6.683  10.819   5.493
 2893POPC   GL140237   6.639  10.489   5.813
 2893POPC   GL240238   6.976  10.432   5.833
 2893POPC   C1A40239   6.733  10.168   6.188
 2893POPC   D2A40240   6.864  10.303   6.642
 2893POPC   C3A40241   6.658  10.267   7.060
 2893POPC   C4A40242   6.344  10.170   7.396
 2893POPC   C1B40243   6.816  10.658   6.257
 2893POPC   C2B40244   6.818  10.875   6.652
 2893POPC   C3B40245   6.941  10.708   7.054
 2893POPC   C4B40246   7.060  10.581   7.500
 2894POPC   NC340247  14.422   6.818   5.335
 2894POPC   PO440248  14.290   6.171   5.398
 2894POPC   GL140249  14.447   6.446   5.702
 2894POPC   GL240250  14.141   6.648   5.766
 2894POPC   C1A40251  14.543   6.675   6.083
 2894POPC   D2A40252  14.398   6.559   6.491
 2894POPC   C3A40253  14.505   6.762   6.901
 2894POPC   C4A40254  14.200   6.900   7.213
 2894POPC   C1B40255  14.104   6.304   6.095
 2894POPC   C2B40256  13.951   6.225   6.519
 2894POPC   C3B40257  14.093   6.433   6.892
 2894POPC   C4B40258  14.301   6.379   7.276
 2895POPC   NC340259  25.455  21.865   5.420
 2895POPC   PO440260  25.585  22.505   5.415
 2895POPC   GL140261  25.245  22.347   5.699
 2895POPC   GL240262  25.194  22.002   5.844
 2895POPC   C1A40263  25.085  22.406   6.148
 2895POPC   D2A40264  25.264  22.329   6.579
 2895POPC   C3A40265  25.096  22.091   6.950
 2895POPC   C4A40266  24.953  22.247   7.376
 2895POPC   C1B40267  25.402  21.826   6.246
 2895POPC   C2B40268  25.440  21.756   6.727
 2895POPC   C3B40269  25.472  21.823   7.212
 2895POPC   C4B40270  25.562  21.571   7.614
 2896POPC   NC340271  26.935  25.814   5.023
 2896POPC   PO440272  26.380  25.954   5.354
 2896POPC   GL140273  26.596  25.869   5.803
 2896POPC   GL240274  26.978  25.891   5.817
 2896POPC   C1A40275  26.566  25.968   6.281
 2896POPC   D2A40276  26.561  26.142   6.718
 2896POPC   C3A40277  26.412  26.012   7.134
 2896POPC   C4A40278  26.653  26.257   7.457
 2896POPC   C1B40279  27.028  25.695   6.234
 2896POPC   C2B40280  26.865  25.720   6.653
 2896POPC   C3B40281  26.937  25.940   7.051
 2896POPC   C4B40282  27.176  25.963   7.466
 2897POPC   NC340283  23.234  18.251   5.215
 2897POPC   PO440284  23.758  18.671   5.427
 2897POPC   GL140285  23.637  18.467   5.825
 2897POPC   GL240286  23.665  18.080   5.844
 2897POPC   C1A40287  23.483  18.345   6.256
 2897POPC   D2A40288  23.696  18.123   6.537
 2897POPC   C3A40289  23.875  18.339   6.861
 2897POPC   C4A40290  23.889  18.225   7.264
 2897POPC   C1B40291  23.396  17.838   6.177
 2897POPC   C2B40292  23.413  17.714   6.629
 2897POPC   C3B40293  23.516  17.950   7.010
 2897POPC   C4B40294  23.450  18.077   7.460
 2898POPC   NC340295  24.967  39.766   5.589
 2898POPC   PO440296  25.367  40.228   5.175
 2898POPC   GL140297  25.400  40.126   5.638
 2898POPC   GL240298  25.477  39.760   5.747
 2898POPC   C1A40299  25.296  40.089   6.103
 2898POPC   D2A40300  25.528  40.024   6.498
 2898POPC   C3A40301  25.464  40.165   6.926
 2898POPC   C4A40302  25.191  40.151   7.247
 2898POPC   C1B40303  25.664  39.635   6.158
 2898POPC   C2B40304  25.797  39.606   6.614
 2898POPC   C3B40305  25.658  39.628   7.046
 2898POPC   C4B40306  25.609  39.878   7.408
 2899POPC   NC340307  19.885   7.905   5.542
 2899POPC   PO440308  19.621   8.439   5.396
 2899POPC   GL140309  19.584   8.225   5.792
 2899POPC   GL240310  19.442   7.879   5.814
 2899POPC   C1A40311  19.769   8.137   6.216
 2899POPC   D2A40312  19.929   8.377   6.568
 2899POPC   C3A40313  19.946   8.120   6.912
 2899POPC   C4A40314  19.756   8.203   7.300
 2899POPC   C1B40315  19.528   7.678   6.217
 2899POPC   C2B40316  19.688   7.750   6.649
 2899POPC   C3B40317  19.661   7.733   7.107
 2899POPC   C4B40318  19.695   7.786   7.577
 2900POPC   NC340319  18.473   4.868   5.433
 2900POPC   PO440320  17.846   5.276   5.383
 2900POPC   GL140321  18.106   5.097   5.731
 2900POPC   GL240322  18.419   5.293   5.731
 2900POPC   C1A40323  18.288   4.967   6.139
 2900POPC   D2A40324  18.319   5.213   6.518
 2900POPC   C3A40325  18.247   5.054   6.915
 2900POPC   C4A40326  18.350   4.841   7.286
 2900POPC   C1B40327  18.615   5.398   6.128
 2900POPC   C2B40328  18.707   5.608   6.503
 2900POPC   C3B40329  18.652   5.407   6.884
 2900POPC   C4B40330  18.414   5.382   7.242
 2901POPC   NC340331  16.686  24.769   5.299
 2901POPC   PO440332  16.952  25.378   5.230
 2901POPC   GL140333  16.920  25.183   5.665
 2901POPC   GL240334  16.637  25.314   5.923
 2901POPC   C1A40335  17.109  25.269   6.070
 2901POPC   D2A40336  16.905  25.431   6.428
 2901POPC   C3A40337  17.020  25.228   6.808
 2901POPC   C4A40338  16.782  25.181   7.206
 2901POPC   C1B40339  16.414  25.308   6.308
 2901POPC   C2B40340  16.332  25.441   6.707
 2901POPC   C3B40341  16.468  25.573   7.097
 2901POPC   C4B40342  16.385  25.381   7.528
 2902POPC   NC340343  30.988   2.716   5.545
 2902POPC   PO440344  30.396   2.586   5.697
 2902POPC   GL140345  30.656   2.791   5.952
 2902POPC   GL240346  30.632   3.166   5.912
 2902POPC   C1A40347  30.770   2.612   6.328
 2902POPC   D2A40348  30.795   2.362   6.670
 2902POPC   C3A40349  30.631   2.547   7.047
 2902POPC   C4A40350  30.642   2.376   7.434
 2902POPC   C1B40351  30.874   3.106   6.299
 2902POPC   C2B40352  30.802   2.938   6.726
 2902POPC   C3B40353  30.884   2.978   7.152
 2902POPC   C4B40354  30.639   2.883   7.516
 2903POPC   NC340355  35.818  34.629   5.407
 2903POPC   PO440356  36.432  34.810   5.622
 2903POPC   GL140357  36.138  34.526   5.847
 2903POPC   GL240358  35.781  34.319   5.816
 2903POPC   C1A40359  36.356  34.496   6.251
 2903POPC   D2A40360  36.432  34.778   6.582
 2903POPC   C3A40361  36.363  34.518   6.922
 2903POPC   C4A40362  36.233  34.601   7.309
 2903POPC   C1B40363  35.846  34.420   6.236
 2903POPC   C2B40364  35.965  34.562   6.609
 2903POPC   C3B40365  35.891  34.771   6.963
 2903POPC   C4B40366  35.600  34.649   7.260
 2904POPC   NC340367  39.380  28.168   5.494
 2904POPC   PO440368  39.129  28.772   5.426
 2904POPC   GL140369  39.370  28.588   5.815
 2904POPC   GL240370  39.685  28.408   5.833
 2904POPC   C1A40371  39.292  28.282   6.157
 2904POPC   D2A40372  39.088  28.208   6.532
 2904POPC   C3A40373  39.244  28.027   6.890
 2904POPC   C4A40374  39.148  28.119   7.301
 2904POPC   C1B40375  39.729  28.518   6.293
 2904POPC   C2B40376  39.454  28.544   6.666
 2904POPC   C3B40377  39.516  28.418   7.101
 2904POPC   C4B40378  39.632  28.173   7.479
 2905POPC   NC340379   8.206  19.836   5.456
 2905POPC   PO440380   8.751  19.409   5.472
 2905POPC   GL140381   8.567  19.720   5.808
 2905POPC   GL240382   8.608  20.083   5.829
 2905POPC   C1A40383   8.219  19.850   6.110
 2905POPC   D2A40384   7.984  19.853   6.495
 2905POPC   C3A40385   8.130  19.871   6.938
 2905POPC   C4A40386   7.774  20.021   7.159
 2905POPC   C1B40387   8.610  20.109   6.296
 2905POPC   C2B40388   8.658  19.914   6.728
 2905POPC   C3B40389   8.634  19.847   7.207
 2905POPC   C4B40390   8.588  19.859   7.688
 2906POPC   NC340391   7.144  26.133   5.608
 2906POPC   PO440392   6.590  25.700   5.403
 2906POPC   GL140393   6.459  25.830   5.822
 2906POPC   GL240394   6.534  26.207   5.849
 2906POPC   C1A40395   6.655  25.795   6.241
 2906POPC   D2A40396   6.875  25.808   6.648
 2906POPC   C3A40397   6.660  25.824   7.048
 2906POPC   C4A40398   6.373  26.090   7.254
 2906POPC   C1B40399   6.594  26.295   6.306
 2906POPC   C2B40400   6.554  26.232   6.758
 2906POPC   C3B40401   6.690  26.446   7.134
 2906POPC   C4B40402   6.874  26.143   7.447
 2907POPC   NC340403  12.085  10.193   5.356
 2907POPC   PO440404  12.040   9.539   5.076
 2907POPC   GL140405  12.078   9.642   5.552
 2907POPC   GL240406  12.340   9.908   5.704
 2907POPC   C1A40407  11.989   9.712   6.005
 2907POPC   D2A40408  11.928   9.829   6.428
 2907POPC   C3A40409  12.081   9.572   6.781
 2907POPC   C4A40410  11.954   9.659   7.213
 2907POPC   C1B40411  12.381  10.021   6.167
 2907POPC   C2B40412  12.298  10.182   6.582
 2907POPC   C3B40413  12.312   9.993   7.006
 2907POPC   C4B40414  12.139  10.072   7.441
 2908POPC   NC340415  25.210  10.951   5.577
 2908POPC   PO440416  25.422  11.453   5.190
 2908POPC   GL140417  25.424  11.438   5.696
 2908POPC   GL240418  25.101  11.446   5.837
 2908POPC   C1A40419  25.499  11.174   6.123
 2908POPC   D2A40420  25.392  10.866   6.459
 2908POPC   C3A40421  25.400  11.115   6.853
 2908POPC   C4A40422  25.145  11.250   7.194
 2908POPC   C1B40423  25.202  11.598   6.250
 2908POPC   C2B40424  25.060  11.534   6.669
 2908POPC   C3B40425  25.000  11.729   7.055
 2908POPC   C4B40426  24.988  11.662   7.480
 2909POPC   NC340427  20.700   9.171   5.371
 2909POPC   PO440428  20.720   8.513   5.209
 2909POPC   GL140429  20.723   8.765   5.653
 2909POPC   GL240430  20.396   8.918   5.717
 2909POPC   C1A40431  20.817   8.824   6.107
 2909POPC   D2A40432  20.797   9.118   6.483
 2909POPC   C3A40433  20.576   8.925   6.820
 2909POPC   C4A40434  20.643   8.693   7.196
 2909POPC   C1B40435  20.460   9.174   6.064
 2909POPC   C2B40436  20.332   9.289   6.475
 2909POPC   C3B40437  20.261   9.339   6.925
 2909POPC   C4B40438  20.577   9.202   7.259
 2910POPC   NC340439  13.115  44.379   5.310
 2910POPC   PO440440  12.846  43.772   5.246
 2910POPC   GL140441  12.897  44.026   5.620
 2910POPC   GL240442  13.018  43.721   5.738
 2910POPC   C1A40443  12.944  44.111   6.089
 2910POPC   D2A40444  12.685  44.094   6.482
 2910POPC   C3A40445  12.807  44.167   6.920
 2910POPC   C4A40446  12.676  43.905   7.253
 2910POPC   C1B40447  12.968  43.538   6.134
 2910POPC   C2B40448  13.085  43.751   6.501
 2910POPC   C3B40449  13.042  43.703   6.919
 2910POPC   C4B40450  13.018  43.513   7.302
 2911POPC   NC340451  22.984  20.927   5.308
 2911POPC   PO440452  22.665  20.275   5.406
 2911POPC   GL140453  22.876  20.356   5.806
 2911POPC   GL240454  23.046  20.667   5.761
 2911POPC   C1A40455  22.939  20.456   6.271
 2911POPC   D2A40456  22.712  20.537   6.676
 2911POPC   C3A40457  22.863  20.620   7.093
 2911POPC   C4A40458  22.750  20.927   7.444
 2911POPC   C1B40459  23.313  20.766   6.111
 2911POPC   C2B40460  23.400  20.625   6.529
 2911POPC   C3B40461  23.304  20.807   6.900
 2911POPC   C4B40462  23.237  20.986   7.268
 2912POPC   NC340463  40.488  40.083   5.535
 2912POPC   PO440464  41.038  39.803   5.343
 2912POPC   GL140465  40.881  39.838   5.774
 2912POPC   GL240466  40.549  39.700   5.866
 2912POPC   C1A40467  40.745  40.068   6.167
 2912POPC   D2A40468  40.936  40.219   6.538
 2912POPC   C3A40469  40.878  40.033   6.897
 2912POPC   C4A40470  40.713  40.124   7.252
 2912POPC   C1B40471  40.324  39.738   6.263
 2912POPC   C2B40472  40.371  39.934   6.677
 2912POPC   C3B40473  40.367  39.782   7.112
 2912POPC   C4B40474  40.368  39.897   7.551
 2913POPC   NC340475  35.547  26.418   5.499
 2913POPC   PO440476  35.370  27.041   5.313
 2913POPC   GL140477  35.386  27.031   5.770
 2913POPC   GL240478  35.188  27.280   5.962
 2913POPC   C1A40479  35.404  26.819   6.175
 2913POPC   D2A40480  35.112  26.697   6.526
 2913POPC   C3A40481  35.106  26.860   6.952
 2913POPC   C4A40482  35.242  26.675   7.343
 2913POPC   C1B40483  35.220  27.215   6.432
 2913POPC   C2B40484  35.531  26.970   6.667
 2913POPC   C3B40485  35.612  26.918   7.087
 2913POPC   C4B40486  35.566  27.143   7.408
 2914POPC   NC340487   4.565  44.060   5.081
 2914POPC   PO440488   5.102  43.893   5.176
 2914POPC   GL140489   5.270  43.931   5.636
 2914POPC   GL240490   5.256  43.640   5.865
 2914POPC   C1A40491   5.207  44.091   6.104
 2914POPC   D2A40492   5.089  44.063   6.574
 2914POPC   C3A40493   5.329  43.791   6.846
 2914POPC   C4A40494   5.500  43.611   7.213
 2914POPC   C1B40495   5.245  43.628   6.334
 2914POPC   C2B40496   4.932  43.543   6.680
 2914POPC   C3B40497   4.950  43.590   7.145
 2914POPC   C4B40498   4.838  43.828   7.505
 2915POPC   NC340499  20.259  17.769   5.719
 2915POPC   PO440500  20.712  17.457   5.397
 2915POPC   GL140501  20.509  17.302   5.792
 2915POPC   GL240502  20.342  17.477   6.118
 2915POPC   C1A40503  20.710  17.103   6.168
 2915POPC   D2A40504  20.750  17.029   6.605
 2915POPC   C3A40505  20.715  17.410   6.833
 2915POPC   C4A40506  20.745  17.676   7.191
 2915POPC   C1B40507  20.718  17.609   6.348
 2915POPC   C2B40508  20.757  17.907   6.701
 2915POPC   C3B40509  20.426  18.038   7.008
 2915POPC   C4B40510  20.305  17.851   7.405
 2916POPC   NC340511  20.949  13.819   5.438
 2916POPC   PO440512  20.362  13.693   5.354
 2916POPC   GL140513  20.566  13.679   5.731
 2916POPC   GL240514  20.706  13.368   5.564
 2916POPC   C1A40515  20.640  13.724   6.176
 2916POPC   D2A40516  20.419  13.625   6.553
 2916POPC   C3A40517  20.522  13.834   6.939
 2916POPC   C4A40518  20.687  13.809   7.334
 2916POPC   C1B40519  20.891  13.328   5.975
 2916POPC   C2B40520  20.857  13.285   6.427
 2916POPC   C3B40521  20.852  13.150   6.854
 2916POPC   C4B40522  20.604  13.355   7.137
 2917POPC   NC340523  42.021   0.901   5.483
 2917POPC   PO440524  41.333   1.065   5.393
 2917POPC   GL140525  41.360   1.268   5.763
 2917POPC   GL240526  41.706   1.237   5.789
 2917POPC   C1A40527  41.253   1.168   6.148
 2917POPC   D2A40528  41.417   0.954   6.452
 2917POPC   C3A40529  41.395   1.111   6.805
 2917POPC   C4A40530  41.493   1.067   7.193
 2917POPC   C1B40531  41.808   1.177   6.192
 2917POPC   C2B40532  41.857   1.344   6.580
 2917POPC   C3B40533  41.924   1.232   6.985
 2917POPC   C4B40534  41.936   0.830   7.228
 2918POPC   NC340535  15.507   8.077   5.575
 2918POPC   PO440536  15.004   8.515   5.515
 2918POPC   GL140537  15.228   8.471   5.905
 2918POPC   GL240538  15.582   8.498   5.924
 2918POPC   C1A40539  15.318   8.364   6.335
 2918POPC   D2A40540  15.575   8.248   6.679
 2918POPC   C3A40541  15.274   8.227   6.970
 2918POPC   C4A40542  15.155   8.466   7.274
 2918POPC   C1B40543  15.723   8.067   6.204
 2918POPC   C2B40544  15.546   7.759   6.564
 2918POPC   C3B40545  15.356   7.725   7.042
 2918POPC   C4B40546  15.274   7.990   7.458
 2919POPC   NC340547  27.889  35.807   5.173
 2919POPC   PO440548  27.364  35.423   5.256
 2919POPC   GL140549  27.319  35.498   5.733
 2919POPC   GL240550  27.360  35.161   5.811
 2919POPC   C1A40551  27.472  35.678   6.181
 2919POPC   D2A40552  27.602  35.855   6.596
 2919POPC   C3A40553  27.480  35.752   7.023
 2919POPC   C4A40554  27.741  35.677   7.399
 2919POPC   C1B40555  27.192  35.266   6.236
 2919POPC   C2B40556  27.432  35.365   6.625
 2919POPC   C3B40557  27.572  35.257   7.030
 2919POPC   C4B40558  27.219  35.229   7.259
 2920POPC   NC340559  37.258  32.192   5.483
 2920POPC   PO440560  37.768  32.605   5.327
 2920POPC   GL140561  37.668  32.366   5.748
 2920POPC   GL240562  37.344  32.401   5.945
 2920POPC   C1A40563  37.722  32.099   6.136
 2920POPC   D2A40564  37.979  32.100   6.524
 2920POPC   C3A40565  37.830  31.963   6.943
 2920POPC   C4A40566  37.958  32.078   7.344
 2920POPC   C1B40567  37.680  32.605   6.233
 2920POPC   C2B40568  37.812  32.670   6.679
 2920POPC   C3B40569  37.752  32.507   7.086
 2920POPC   C4B40570  37.468  32.260   7.315
 2921POPC   NC340571  15.215  39.053   5.612
 2921POPC   PO440572  14.986  38.462   5.416
 2921POPC   GL140573  15.311  38.356   5.753
 2921POPC   GL240574  15.481  38.660   5.843
 2921POPC   C1A40575  15.392  38.148   6.180
 2921POPC   D2A40576  15.228  37.929   6.582
 2921POPC   C3A40577  15.216  38.081   7.027
 2921POPC   C4A40578  14.996  38.442   7.248
 2921POPC   C1B40579  15.188  38.626   6.221
 2921POPC   C2B40580  15.198  38.478   6.666
 2921POPC   C3B40581  15.450  38.552   7.051
 2921POPC   C4B40582  15.410  38.785   7.479
 2922POPC   NC340583  36.608  20.529   5.516
 2922POPC   PO440584  37.156  20.617   5.109
 2922POPC   GL140585  37.011  20.800   5.623
 2922POPC   GL240586  36.967  20.564   5.883
 2922POPC   C1A40587  36.919  20.949   6.144
 2922POPC   D2A40588  37.017  20.611   6.455
 2922POPC   C3A40589  37.028  20.576   6.907
 2922POPC   C4A40590  36.699  20.734   7.219
 2922POPC   C1B40591  36.702  20.314   6.149
 2922POPC   C2B40592  36.406  20.281   6.477
 2922POPC   C3B40593  36.494  20.389   6.896
 2922POPC   C4B40594  36.794  20.232   7.195
 2923POPC   NC340595  11.156  22.060   5.327
 2923POPC   PO440596  11.701  22.377   5.457
 2923POPC   GL140597  11.477  22.126   5.760
 2923POPC   GL240598  11.126  22.253   5.802
 2923POPC   C1A40599  11.385  22.036   6.207
 2923POPC   D2A40600  11.336  21.882   6.621
 2923POPC   C3A40601  11.256  22.071   7.039
 2923POPC   C4A40602  11.524  22.265   7.365
 2923POPC   C1B40603  11.093  22.470   6.196
 2923POPC   C2B40604  11.169  22.381   6.635
 2923POPC   C3B40605  11.243  22.572   7.055
 2923POPC   C4B40606  10.971  22.547   7.447
 2924POPC   NC340607  24.437  23.959   5.038
 2924POPC   PO440608  24.539  23.540   5.560
 2924POPC   GL140609  24.188  23.626   5.832
 2924POPC   GL240610  23.974  23.343   5.871
 2924POPC   C1A40611  24.146  23.830   6.239
 2924POPC   D2A40612  24.486  23.981   6.498
 2924POPC   C3A40613  24.510  23.880   6.906
 2924POPC   C4A40614  24.678  23.605   7.179
 2924POPC   C1B40615  24.160  23.312   6.249
 2924POPC   C2B40616  24.308  23.479   6.632
 2924POPC   C3B40617  24.157  23.464   7.036
 2924POPC   C4B40618  24.212  23.793   7.327
 2925POPC   NC340619  32.262  34.701   5.397
 2925POPC   PO440620  32.715  34.437   5.279
 2925POPC   GL140621  32.568  34.466   5.760
 2925POPC   GL240622  32.183  34.466   5.849
 2925POPC   C1A40623  32.472  34.581   6.248
 2925POPC   D2A40624  32.159  34.519   6.637
 2925POPC   C3A40625  32.265  34.496   7.100
 2925POPC   C4A40626  32.537  34.321   7.452
 2925POPC   C1B40627  31.969  34.740   6.195
 2925POPC   C2B40628  31.842  34.922   6.642
 2925POPC   C3B40629  32.000  34.951   7.098
 2925POPC   C4B40630  31.788  34.795   7.491
 2926POPC   NC340631  25.815  29.084   5.472
 2926POPC   PO440632  26.505  29.116   5.552
 2926POPC   GL140633  26.165  29.153   5.832
 2926POPC   GL240634  26.170  29.486   5.872
 2926POPC   C1A40635  25.899  29.134   6.221
 2926POPC   D2A40636  25.731  29.291   6.622
 2926POPC   C3A40637  25.865  29.100   6.999
 2926POPC   C4A40638  25.959  29.235   7.419
 2926POPC   C1B40639  26.386  29.351   6.244
 2926POPC   C2B40640  26.268  29.185   6.635
 2926POPC   C3B40641  26.306  29.361   7.024
 2926POPC   C4B40642  26.468  29.225   7.393
 2927POPC   NC340643  37.804  15.647   5.382
 2927POPC   PO440644  37.293  16.220   5.398
 2927POPC   GL140645  37.535  16.030   5.709
 2927POPC   GL240646  37.873  16.109   5.688
 2927POPC   C1A40647  37.494  15.813   6.101
 2927POPC   D2A40648  37.440  15.586   6.468
 2927POPC   C3A40649  37.459  15.791   6.827
 2927POPC   C4A40650  37.549  15.859   7.224
 2927POPC   C1B40651  38.001  15.818   6.026
 2927POPC   C2B40652  37.904  15.785   6.483
 2927POPC   C3B40653  37.985  15.909   6.912
 2927POPC   C4B40654  37.917  16.206   7.268
 2928POPC   NC340655  32.427  23.208   5.416
 2928POPC   PO440656  32.032  22.587   5.488
 2928POPC   GL140657  32.280  22.715   5.835
 2928POPC   GL240658  32.246  23.058   5.898
 2928POPC   C1A40659  32.524  22.778   6.217
 2928POPC   D2A40660  32.472  22.968   6.620
 2928POPC   C3A40661  32.263  22.701   6.926
 2928POPC   C4A40662  32.484  22.648   7.271
 2928POPC   C1B40663  32.023  22.916   6.309
 2928POPC   C2B40664  32.001  23.105   6.751
 2928POPC   C3B40665  32.224  23.186   7.134
 2928POPC   C4B40666  32.106  23.329   7.548
 2929POPC   NC340667  29.205  21.602   5.310
 2929POPC   PO440668  28.724  21.154   5.479
 2929POPC   GL140669  28.957  21.516   5.730
 2929POPC   GL240670  28.791  21.682   5.981
 2929POPC   C1A40671  29.285  21.564   6.060
 2929POPC   D2A40672  29.312  21.292   6.433
 2929POPC   C3A40673  29.179  21.404   6.843
 2929POPC   C4A40674  29.377  21.430   7.229
 2929POPC   C1B40675  28.898  21.220   6.130
 2929POPC   C2B40676  28.846  21.047   6.518
 2929POPC   C3B40677  28.712  21.178   6.892
 2929POPC   C4B40678  28.902  21.140   7.260
 2930POPC   NC340679   6.876  23.732   5.290
 2930POPC   PO440680   6.442  23.193   5.326
 2930POPC   GL140681   6.449  23.544   5.688
 2930POPC   GL240682   6.316  23.912   5.696
 2930POPC   C1A40683   6.473  23.501   6.173
 2930POPC   D2A40684   6.275  23.432   6.626
 2930POPC   C3A40685   6.571  23.435   6.997
 2930POPC   C4A40686   7.020  23.344   7.100
 2930POPC   C1B40687   6.702  23.926   5.957
 2930POPC   C2B40688   6.793  23.972   6.409
 2930POPC   C3B40689   6.561  24.054   6.779
 2930POPC   C4B40690   6.737  23.941   7.160
 2931POPC   NC340691  17.717   7.304   5.439
 2931POPC   PO440692  17.120   7.658   5.437
 2931POPC   GL140693  17.355   7.424   5.795
 2931POPC   GL240694  17.727   7.531   5.893
 2931POPC   C1A40695  17.384   7.345   6.247
 2931POPC   D2A40696  17.213   7.504   6.617
 2931POPC   C3A40697  17.251   7.234   6.965
 2931POPC   C4A40698  17.379   7.461   7.335
 2931POPC   C1B40699  17.891   7.423   6.307
 2931POPC   C2B40700  17.709   7.358   6.709
 2931POPC   C3B40701  17.755   7.163   7.116
 2931POPC   C4B40702  17.890   7.461   7.431
 2932POPC   NC340703  38.113  33.995   5.391
 2932POPC   PO440704  38.721  33.873   5.438
 2932POPC   GL140705  38.438  33.819   5.792
 2932POPC   GL240706  38.409  33.470   5.922
 2932POPC   C1A40707  38.325  34.087   6.150
 2932POPC   D2A40708  38.588  34.037   6.510
 2932POPC   C3A40709  38.473  34.142   6.921
 2932POPC   C4A40710  38.397  33.938   7.308
 2932POPC   C1B40711  38.189  33.611   6.258
 2932POPC   C2B40712  38.124  33.836   6.635
 2932POPC   C3B40713  38.100  33.614   7.014
 2932POPC   C4B40714  38.113  33.492   7.419
 2933POPC   NC340715   3.626   8.556   5.074
 2933POPC   PO440716   3.441   8.040   5.382
 2933POPC   GL140717   3.452   8.212   5.784
 2933POPC   GL240718   3.189   7.915   5.796
 2933POPC   C1A40719   3.659   8.402   6.191
 2933POPC   D2A40720   3.715   8.698   6.580
 2933POPC   C3A40721   3.525   8.489   6.968
 2933POPC   C4A40722   3.633   8.104   7.205
 2933POPC   C1B40723   3.240   8.007   6.185
 2933POPC   C2B40724   3.451   8.057   6.519
 2933POPC   C3B40725   3.248   8.062   6.862
 2933POPC   C4B40726   3.104   8.021   7.244
 2934POPC   NC340727  18.383  18.628   5.523
 2934POPC   PO440728  18.042  18.083   5.468
 2934POPC   GL140729  18.157  18.268   5.841
 2934POPC   GL240730  18.510  18.169   5.931
 2934POPC   C1A40731  18.194  18.451   6.244
 2934POPC   D2A40732  18.455  18.511   6.574
 2934POPC   C3A40733  18.220  18.443   6.932
 2934POPC   C4A40734  18.393  18.326   7.273
 2934POPC   C1B40735  18.494  18.045   6.378
 2934POPC   C2B40736  18.513  18.042   6.842
 2934POPC   C3B40737  18.539  17.839   7.264
 2934POPC   C4B40738  18.576  17.638   7.718
 2935POPC   NC340739  25.344   6.649   5.499
 2935POPC   PO440740  24.711   6.900   5.477
 2935POPC   GL140741  25.059   6.976   5.811
 2935POPC   GL240742  25.100   6.671   5.940
 2935POPC   C1A40743  25.515   6.918   6.118
 2935POPC   D2A40744  25.526   7.039   6.612
 2935POPC   C3A40745  25.738   6.904   7.049
 2935POPC   C4A40746  25.712   6.930   7.558
 2935POPC   C1B40747  25.195   6.598   6.345
 2935POPC   C2B40748  25.183   6.648   6.751
 2935POPC   C3B40749  25.268   6.690   7.149
 2935POPC   C4B40750  25.158   6.483   7.483
 2936POPC   NC340751  37.445  30.373   5.598
 2936POPC   PO440752  38.024  30.558   5.379
 2936POPC   GL140753  37.853  30.765   5.767
 2936POPC   GL240754  37.520  30.853   5.823
 2936POPC   C1A40755  37.886  30.633   6.219
 2936POPC   D2A40756  38.061  30.513   6.647
 2936POPC   C3A40757  38.059  30.882   6.943
 2936POPC   C4A40758  37.801  31.062   7.280
 2936POPC   C1B40759  37.431  30.885   6.269
 2936POPC   C2B40760  37.595  30.775   6.680
 2936POPC   C3B40761  37.433  30.745   7.094
 2936POPC   C4B40762  37.345  30.901   7.529
 2937POPC   NC340763  44.543  10.211   5.548
 2937POPC   PO440764  44.755  10.718   5.232
 2937POPC   GL140765  44.754  10.656   5.721
 2937POPC   GL240766  45.000  10.886   5.832
 2937POPC   C1A40767  44.667  10.523   6.195
 2937POPC   D2A40768  44.791  10.609   6.645
 2937POPC   C3A40769  44.493  10.419   6.927
 2937POPC   C4A40770  44.384  10.508   7.332
 2937POPC   C1B40771  44.970  10.919   6.248
 2937POPC   C2B40772   0.025  11.095   6.614
 2937POPC   C3B40773   0.019  10.946   6.993
 2937POPC   C4B40774  44.878  10.582   7.234
 2938POPC   NC340775  42.210  31.507   5.095
 2938POPC   PO440776  42.469  31.320   5.661
 2938POPC   GL140777  42.284  31.467   5.967
 2938POPC   GL240778  42.018  31.699   5.877
 2938POPC   C1A40779  42.308  31.266   6.323
 2938POPC   D2A40780  42.582  31.354   6.633
 2938POPC   C3A40781  42.345  31.196   6.948
 2938POPC   C4A40782  42.402  31.366   7.340
 2938POPC   C1B40783  42.154  31.845   6.269
 2938POPC   C2B40784  42.128  31.631   6.635
 2938POPC   C3B40785  42.322  31.707   6.981
 2938POPC   C4B40786  42.147  31.844   7.322
 2939POPC   NC340787  42.756  30.109   5.628
 2939POPC   PO440788  42.910  30.669   5.308
 2939POPC   GL140789  43.097  30.612   5.728
 2939POPC   GL240790  42.945  30.408   5.971
 2939POPC   C1A40791  43.184  30.815   6.125
 2939POPC   D2A40792  43.299  30.774   6.561
 2939POPC   C3A40793  43.181  30.766   7.006
 2939POPC   C4A40794  43.132  31.092   7.309
 2939POPC   C1B40795  42.813  30.476   6.384
 2939POPC   C2B40796  42.850  30.401   6.835
 2939POPC   C3B40797  42.719  30.357   7.245
 2939POPC   C4B40798  42.789  30.171   7.680
 2940POPC   NC340799  28.149  39.618   4.994
 2940POPC   PO440800  28.171  38.991   5.317
 2940POPC   GL140801  28.253  39.037   5.752
 2940POPC   GL240802  28.172  39.360   5.722
 2940POPC   C1A40803  28.232  38.965   6.203
 2940POPC   D2A40804  28.050  39.304   6.472
 2940POPC   C3A40805  28.104  39.310   6.929
 2940POPC   C4A40806  28.286  38.983   7.197
 2940POPC   C1B40807  28.417  39.407   6.095
 2940POPC   C2B40808  28.510  39.495   6.525
 2940POPC   C3B40809  28.563  39.555   6.933
 2940POPC   C4B40810  28.508  39.436   7.322
 2941POPC   NC340811  15.141  44.412   5.371
 2941POPC   PO440812  15.682  44.762   5.377
 2941POPC   GL140813  15.477  44.873   5.768
 2941POPC   GL240814  15.115  44.731   5.786
 2941POPC   C1A40815  15.454  44.746   6.209
 2941POPC   D2A40816  15.150  44.666   6.553
 2941POPC   C3A40817  15.257  44.532   6.982
 2941POPC   C4A40818  15.608  44.717   7.173
 2941POPC   C1B40819  14.807  44.632   6.142
 2941POPC   C2B40820  14.639  44.742   6.567
 2941POPC   C3B40821  14.768  44.939   6.967
 2941POPC   C4B40822  15.177   0.030   7.121
 2942POPC   NC340823  26.822  38.133   5.356
 2942POPC   PO440824  27.232  38.692   5.490
 2942POPC   GL140825  27.036  38.316   5.788
 2942POPC   GL240826  26.647  38.242   5.829
 2942POPC   C1A40827  26.939  38.125   6.232
 2942POPC   D2A40828  26.798  38.202   6.689
 2942POPC   C3A40829  26.995  38.427   7.100
 2942POPC   C4A40830  27.129  38.558   7.555
 2942POPC   C1B40831  26.384  38.203   6.213
 2942POPC   C2B40832  26.308  38.423   6.599
 2942POPC   C3B40833  26.477  38.484   6.989
 2942POPC   C4B40834  26.592  38.109   7.146
 2943POPC   NC340835  24.800  41.642   5.538
 2943POPC   PO440836  24.279  41.341   5.244
 2943POPC   GL140837  24.233  41.323   5.684
 2943POPC   GL240838  24.526  41.285   5.800
 2943POPC   C1A40839  24.158  41.291   6.163
 2943POPC   D2A40840  24.330  41.261   6.610
 2943POPC   C3A40841  24.173  41.446   7.040
 2943POPC   C4A40842  24.401  41.593   7.425
 2943POPC   C1B40843  24.688  41.408   6.206
 2943POPC   C2B40844  24.840  41.315   6.627
 2943POPC   C3B40845  24.715  41.328   7.056
 2943POPC   C4B40846  24.946  41.089   7.356
 2944POPC   NC340847   7.397  18.498   5.076
 2944POPC   PO440848   7.719  18.392   5.390
 2944POPC   GL140849   7.379  18.458   5.721
 2944POPC   GL240850   7.178  18.153   5.832
 2944POPC   C1A40851   7.290  18.517   6.198
 2944POPC   D2A40852   7.517  18.490   6.607
 2944POPC   C3A40853   7.354  18.530   7.041
 2944POPC   C4A40854   7.287  18.712   7.490
 2944POPC   C1B40855   7.139  18.030   6.285
 2944POPC   C2B40856   7.178  18.125   6.742
 2944POPC   C3B40857   7.385  18.006   7.142
 2944POPC   C4B40858   7.369  17.980   7.617
 2945POPC   NC340859  30.507  40.137   5.398
 2945POPC   PO440860  30.850  39.712   5.403
 2945POPC   GL140861  30.758  39.935   5.806
 2945POPC   GL240862  30.845  40.296   5.786
 2945POPC   C1A40863  30.539  40.145   6.164
 2945POPC   D2A40864  30.499  40.428   6.533
 2945POPC   C3A40865  30.656  40.275   6.913
 2945POPC   C4A40866  30.491  40.454   7.236
 2945POPC   C1B40867  31.070  40.127   6.187
 2945POPC   C2B40868  31.017  40.010   6.638
 2945POPC   C3B40869  31.118  40.097   7.096
 2945POPC   C4B40870  31.279  39.992   7.543
 2946POPC   NC340871  19.025  40.385   5.393
 2946POPC   PO440872  19.235  41.023   5.264
 2946POPC   GL140873  19.362  40.867   5.688
 2946POPC   GL240874  19.172  40.593   5.843
 2946POPC   C1A40875  19.387  41.000   6.126
 2946POPC   D2A40876  19.224  40.808   6.488
 2946POPC   C3A40877  19.385  40.925   6.845
 2946POPC   C4A40878  19.466  41.043   7.221
 2946POPC   C1B40879  18.946  40.473   6.216
 2946POPC   C2B40880  18.707  40.682   6.549
 2946POPC   C3B40881  18.894  40.757   6.936
 2946POPC   C4B40882  19.131  40.610   7.304
 2947POPC   NC340883  43.783  41.625   5.407
 2947POPC   PO440884  44.051  41.017   5.207
 2947POPC   GL140885  44.164  41.349   5.618
 2947POPC   GL240886  43.884  41.482   5.868
 2947POPC   C1A40887  44.346  41.547   6.040
 2947POPC   D2A40888  44.378  41.439   6.512
 2947POPC   C3A40889  44.257  41.645   6.898
 2947POPC   C4A40890  44.372  41.463   7.307
 2947POPC   C1B40891  43.748  41.635   6.290
 2947POPC   C2B40892  43.491  41.548   6.691
 2947POPC   C3B40893  43.473  41.367   7.112
 2947POPC   C4B40894  43.886  41.457   7.225
 2948POPC   NC340895  14.192  25.997   5.093
 2948POPC   PO440896  14.600  25.657   5.638
 2948POPC   GL140897  14.249  25.871   5.786
 2948POPC   GL240898  14.184  26.230   5.748
 2948POPC   C1A40899  14.147  25.971   6.181
 2948POPC   D2A40900  14.036  26.067   6.580
 2948POPC   C3A40901  14.324  25.861   6.862
 2948POPC   C4A40902  14.342  25.928   7.277
 2948POPC   C1B40903  14.537  26.280   6.066
 2948POPC   C2B40904  14.556  26.146   6.501
 2948POPC   C3B40905  14.626  26.259   6.960
 2948POPC   C4B40906  14.767  26.160   7.391
 2949POPC   NC340907  13.435   6.977   5.310
 2949POPC   PO440908  13.668   7.594   5.138
 2949POPC   GL140909  13.653   7.484   5.603
 2949POPC   GL240910  13.851   7.227   5.786
 2949POPC   C1A40911  13.646   7.619   6.044
 2949POPC   D2A40912  13.398   7.488   6.412
 2949POPC   C3A40913  13.488   7.443   6.842
 2949POPC   C4A40914  13.525   7.427   7.290
 2949POPC   C1B40915  13.809   7.173   6.235
 2949POPC   C2B40916  13.921   7.513   6.514
 2949POPC   C3B40917  13.990   7.609   6.938
 2949POPC   C4B40918  14.077   7.422   7.343
 2950POPC   NC340919  19.352   0.566   5.403
 2950POPC   PO440920  18.736   0.298   5.600
 2950POPC   GL140921  18.772   0.596   5.922
 2950POPC   GL240922  19.134   0.600   5.859
 2950POPC   C1A40923  18.949   0.596   6.357
 2950POPC   D2A40924  18.969   0.331   6.679
 2950POPC   C3A40925  19.202   0.400   7.024
 2950POPC   C4A40926  18.983   0.559   7.329
 2950POPC   C1B40927  19.433   0.757   6.187
 2950POPC   C2B40928  19.463   0.658   6.618
 2950POPC   C3B40929  19.624   0.711   7.032
 2950POPC   C4B40930  19.493   0.601   7.418
 2951POPC   NC340931   1.775   9.312   5.435
 2951POPC   PO440932   1.993   9.983   5.189
 2951POPC   GL140933   1.977   9.762   5.656
 2951POPC   GL240934   2.280   9.601   5.847
 2951POPC   C1A40935   1.780   9.798   6.117
 2951POPC   D2A40936   1.557   9.621   6.528
 2951POPC   C3A40937   1.647   9.773   6.958
 2951POPC   C4A40938   1.784   9.573   7.344
 2951POPC   C1B40939   2.215   9.560   6.262
 2951POPC   C2B40940   2.042   9.783   6.586
 2951POPC   C3B40941   2.155   9.697   6.988
 2951POPC   C4B40942   2.071   9.978   7.299
 2952POPC   NC340943  12.173  26.392   5.298
 2952POPC   PO440944  11.669  25.922   5.381
 2952POPC   GL140945  11.986  25.998   5.671
 2952POPC   GL240946  11.900  26.345   5.747
 2952POPC   C1A40947  12.102  25.901   6.107
 2952POPC   D2A40948  12.194  26.042   6.536
 2952POPC   C3A40949  12.256  25.823   6.925
 2952POPC   C4A40950  12.128  26.111   7.264
 2952POPC   C1B40951  11.623  26.111   6.030
 2952POPC   C2B40952  11.688  26.027   6.449
 2952POPC   C3B40953  11.768  25.978   6.883
 2952POPC   C4B40954  11.619  26.037   7.303
 2953POPC   NC340955  15.416  16.742   5.414
 2953POPC   PO440956  14.977  16.318   5.143
 2953POPC   GL140957  15.019  16.502   5.680
 2953POPC   GL240958  15.239  16.768   5.887
 2953POPC   C1A40959  15.012  16.408   6.164
 2953POPC   D2A40960  15.258  16.632   6.445
 2953POPC   C3A40961  15.106  16.500   6.851
 2953POPC   C4A40962  15.109  16.741   7.222
 2953POPC   C1B40963  14.802  16.859   6.071
 2953POPC   C2B40964  14.775  16.791   6.513
 2953POPC   C3B40965  15.090  16.992   6.781
 2953POPC   C4B40966  14.928  17.215   7.090
 2954POPC   NC340967  26.252   9.897   5.382
 2954POPC   PO440968  26.954   9.671   5.371
 2954POPC   GL140969  26.819   9.738   5.761
 2954POPC   GL240970  26.567   9.527   5.847
 2954POPC   C1A40971  26.906   9.890   6.160
 2954POPC   D2A40972  26.982   9.756   6.573
 2954POPC   C3A40973  26.771   9.990   6.896
 2954POPC   C4A40974  26.524  10.237   7.193
 2954POPC   C1B40975  26.646   9.274   6.227
 2954POPC   C2B40976  26.921   9.222   6.594
 2954POPC   C3B40977  26.971   9.459   6.980
 2954POPC   C4B40978  26.749   9.571   7.378
 2955POPC   NC340979  23.706  21.111   5.512
 2955POPC   PO440980  23.440  21.756   5.396
 2955POPC   GL140981  23.427  21.490   5.781
 2955POPC   GL240982  23.256  21.143   5.741
 2955POPC   C1A40983  23.722  21.373   6.152
 2955POPC   D2A40984  24.083  21.330   6.461
 2955POPC   C3A40985  24.013  21.584   6.830
 2955POPC   C4A40986  23.870  21.652   7.245
 2955POPC   C1B40987  23.201  21.260   6.184
 2955POPC   C2B40988  23.444  21.185   6.585
 2955POPC   C3B40989  23.590  21.277   7.026
 2955POPC   C4B40990  23.582  21.351   7.504
 2956POPC   NC340991   9.467  23.886   5.453
 2956POPC   PO440992   9.805  23.406   5.454
 2956POPC   GL140993   9.697  23.565   5.850
 2956POPC   GL240994   9.357  23.607   5.896
 2956POPC   C1A40995   9.807  23.637   6.288
 2956POPC   D2A40996   9.711  23.409   6.651
 2956POPC   C3A40997   9.866  23.557   7.032
 2956POPC   C4A40998   9.929  23.898   7.287
 2956POPC   C1B40999   9.324  23.762   6.344
 2956POPC   C2B41000   9.501  23.854   6.790
 2956POPC   C3B41001   9.437  23.740   7.246
 2956POPC   C4B41002   9.359  23.597   7.700
 2957POPC   NC341003  27.599   0.240   5.262
 2957POPC   PO441004  27.720  44.576   5.433
 2957POPC   GL141005  27.831  44.512   5.859
 2957POPC   GL241006  27.519  44.316   5.905
 2957POPC   C1A41007  27.707  44.532   6.311
 2957POPC   D2A41008  27.615  44.301   6.674
 2957POPC   C3A41009  27.754  44.583   6.981
 2957POPC   C4A41010  27.617  44.796   7.356
 2957POPC   C1B41011  27.211  44.439   6.217
 2957POPC   C2B41012  27.104  44.320   6.638
 2957POPC   C3B41013  27.260  44.413   7.038
 2957POPC   C4B41014  27.110  44.701   7.350
 2958POPC   NC341015  12.354   3.571   5.483
 2958POPC   PO441016  13.055   3.563   5.386
 2958POPC   GL141017  12.986   3.512   5.824
 2958POPC   GL241018  12.687   3.682   5.901
 2958POPC   C1A41019  12.928   3.277   6.220
 2958POPC   D2A41020  12.709   3.251   6.624
 2958POPC   C3A41021  12.704   3.680   6.783
 2958POPC   C4A41022  13.030   3.928   7.027
 2958POPC   C1B41023  12.451   3.525   6.257
 2958POPC   C2B41024  12.240   3.496   6.661
 2958POPC   C3B41025  12.400   3.368   7.080
 2958POPC   C4B41026  12.728   3.597   7.287
 2959POPC   NC341027  11.577  15.555   5.393
 2959POPC   PO441028  11.144  15.205   5.263
 2959POPC   GL141029  11.383  15.169   5.658
 2959POPC   GL241030  11.362  15.458   5.879
 2959POPC   C1A41031  11.441  14.987   6.068
 2959POPC   D2A41032  11.372  15.167   6.478
 2959POPC   C3A41033  11.308  15.010   6.875
 2959POPC   C4A41034  11.253  14.945   7.271
 2959POPC   C1B41035  11.222  15.615   6.299
 2959POPC   C2B41036  11.076  15.501   6.739
 2959POPC   C3B41037  11.179  15.439   7.164
 2959POPC   C4B41038  11.271  15.716   7.514
 2960POPC   NC341039  38.449  37.755   5.426
 2960POPC   PO441040  37.833  37.578   5.341
 2960POPC   GL141041  38.161  37.505   5.767
 2960POPC   GL241042  38.437  37.712   5.922
 2960POPC   C1A41043  38.176  37.381   6.225
 2960POPC   D2A41044  38.345  37.582   6.620
 2960POPC   C3A41045  38.453  37.453   7.051
 2960POPC   C4A41046  38.266  37.438   7.490
 2960POPC   C1B41047  38.701  37.551   6.237
 2960POPC   C2B41048  38.866  37.613   6.664
 2960POPC   C3B41049  38.634  37.941   6.886
 2960POPC   C4B41050  38.441  37.911   7.279
 2961POPC   NC341051  36.698  27.402   5.601
 2961POPC   PO441052  36.997  27.997   5.512
 2961POPC   GL141053  36.918  27.758   5.880
 2961POPC   GL241054  37.040  27.396   5.968
 2961POPC   C1A41055  36.739  27.729   6.270
 2961POPC   D2A41056  36.944  27.891   6.628
 2961POPC   C3A41057  36.895  27.705   7.014
 2961POPC   C4A41058  36.666  27.638   7.341
 2961POPC   C1B41059  37.159  27.446   6.384
 2961POPC   C2B41060  37.316  27.489   6.786
 2961POPC   C3B41061  37.163  27.303   7.173
 2961POPC   C4B41062  37.078  27.411   7.606
 2962POPC   NC341063  42.449  15.249   5.469
 2962POPC   PO441064  41.837  15.017   5.306
 2962POPC   GL141065  42.051  15.020   5.730
 2962POPC   GL241066  42.403  14.894   5.816
 2962POPC   C1A41067  42.241  15.286   6.087
 2962POPC   D2A41068  42.530  15.159   6.378
 2962POPC   C3A41069  42.436  15.294   6.791
 2962POPC   C4A41070  42.449  15.278   7.231
 2962POPC   C1B41071  42.740  14.792   6.090
 2962POPC   C2B41072  42.734  14.686   6.512
 2962POPC   C3B41073  42.726  14.891   6.914
 2962POPC   C4B41074  42.743  14.850   7.362
 2963POPC   NC341075  17.184  30.223   5.131
 2963POPC   PO441076  16.541  29.872   5.354
 2963POPC   GL141077  16.771  29.826   5.769
 2963POPC   GL241078  16.872  29.460   5.835
 2963POPC   C1A41079  16.754  30.116   6.157
 2963POPC   D2A41080  16.838  30.361   6.541
 2963POPC   C3A41081  16.734  30.131   6.924
 2963POPC   C4A41082  16.989  30.034   7.254
 2963POPC   C1B41083  16.704  29.602   6.244
 2963POPC   C2B41084  16.807  29.667   6.678
 2963POPC   C3B41085  16.732  29.589   7.112
 2963POPC   C4B41086  16.474  29.494   7.450
 2964POPC   NC341087  17.265  30.942   5.502
 2964POPC   PO441088  17.626  30.467   5.239
 2964POPC   GL141089  17.372  30.357   5.606
 2964POPC   GL241090  17.565  30.580   5.800
 2964POPC   C1A41091  17.236  30.272   6.055
 2964POPC   D2A41092  17.327  30.550   6.414
 2964POPC   C3A41093  17.388  30.389   6.846
 2964POPC   C4A41094  17.774  30.483   7.096
 2964POPC   C1B41095  17.605  30.931   6.099
 2964POPC   C2B41096  17.725  31.097   6.499
 2964POPC   C3B41097  17.537  30.885   6.822
 2964POPC   C4B41098  17.475  30.884   7.243
 2965POPC   NC341099  17.820  14.482   4.951
 2965POPC   PO441100  17.319  14.512   5.446
 2965POPC   GL141101  17.484  14.431   5.853
 2965POPC   GL241102  17.794  14.623   5.804
 2965POPC   C1A41103  17.412  14.275   6.273
 2965POPC   D2A41104  17.163  14.389   6.616
 2965POPC   C3A41105  17.342  14.452   6.993
 2965POPC   C4A41106  17.196  14.611   7.366
 2965POPC   C1B41107  17.864  14.532   6.247
 2965POPC   C2B41108  17.722  14.466   6.657
 2965POPC   C3B41109  17.892  14.411   7.065
 2965POPC   C4B41110  17.905  14.597   7.475
 2966POPC   NC341111  40.350  11.301   5.387
 2966POPC   PO441112  39.829  11.321   5.703
 2966POPC   GL141113  40.195  11.266   5.883
 2966POPC   GL241114  40.211  11.566   6.065
 2966POPC   C1A41115  40.209  11.120   6.308
 2966POPC   D2A41116  39.918  11.110   6.676
 2966POPC   C3A41117  40.150  11.148   7.049
 2966POPC   C4A41118  40.171  11.168   7.487
 2966POPC   C1B41119  39.968  11.623   6.412
 2966POPC   C2B41120  40.082  11.621   6.823
 2966POPC   C3B41121  39.886  11.551   7.196
 2966POPC   C4B41122  39.959  11.612   7.623
 2967POPC   NC341123  19.625  35.831   4.958
 2967POPC   PO441124  19.683  36.327   5.474
 2967POPC   GL141125  19.830  36.144   5.864
 2967POPC   GL241126  20.175  35.997   5.848
 2967POPC   C1A41127  19.673  36.321   6.259
 2967POPC   D2A41128  19.487  36.487   6.627
 2967POPC   C3A41129  19.768  36.354   6.985
 2967POPC   C4A41130  19.634  36.252   7.423
 2967POPC   C1B41131  20.092  36.022   6.303
 2967POPC   C2B41132  19.840  35.841   6.633
 2967POPC   C3B41133  19.745  35.855   7.089
 2967POPC   C4B41134  20.058  35.989   7.430
 2968POPC   NC341135  15.840   4.287   5.229
 2968POPC   PO441136  15.831   4.881   5.556
 2968POPC   GL141137  16.038   4.500   5.684
 2968POPC   GL241138  15.824   4.196   5.730
 2968POPC   C1A41139  16.096   4.340   6.132
 2968POPC   D2A41140  15.857   4.120   6.493
 2968POPC   C3A41141  15.945   4.240   6.937
 2968POPC   C4A41142  16.070   4.428   7.312
 2968POPC   C1B41143  15.557   3.965   6.029
 2968POPC   C2B41144  15.472   3.777   6.438
 2968POPC   C3B41145  15.511   3.889   6.867
 2968POPC   C4B41146  15.520   4.147   7.253
 2969POPC   NC341147  32.524   7.612   5.521
 2969POPC   PO441148  32.179   7.118   5.302
 2969POPC   GL141149  32.192   7.290   5.722
 2969POPC   GL241150  31.900   7.402   5.850
 2969POPC   C1A41151  32.364   7.418   6.135
 2969POPC   D2A41152  32.176   7.475   6.524
 2969POPC   C3A41153  32.424   7.511   6.899
 2969POPC   C4A41154  32.294   7.254   7.250
 2969POPC   C1B41155  31.918   7.756   6.136
 2969POPC   C2B41156  32.195   7.962   6.403
 2969POPC   C3B41157  32.055   7.888   6.827
 2969POPC   C4B41158  32.066   7.694   7.208
 2970POPC   NC341159   9.157  19.583   5.380
 2970POPC   PO441160   9.220  20.253   5.214
 2970POPC   GL141161   9.073  20.163   5.627
 2970POPC   GL241162   9.073  19.838   5.812
 2970POPC   C1A41163   9.047  20.280   6.070
 2970POPC   D2A41164   8.991  20.364   6.526
 2970POPC   C3A41165   9.170  20.052   6.798
 2970POPC   C4A41166   9.116  20.064   7.223
 2970POPC   C1B41167   9.057  19.820   6.293
 2970POPC   C2B41168   9.033  19.561   6.666
 2970POPC   C3B41169   9.042  19.537   7.111
 2970POPC   C4B41170   9.103  19.656   7.528
 2971POPC   NC341171  32.159   0.653   4.912
 2971POPC   PO441172  31.925   0.140   5.342
 2971POPC   GL141173  32.240   0.363   5.699
 2971POPC   GL241174  32.353   0.212   5.971
 2971POPC   C1A41175  32.148   0.663   6.089
 2971POPC   D2A41176  31.934   0.743   6.496
 2971POPC   C3A41177  32.114   0.705   6.912
 2971POPC   C4A41178  32.278   0.789   7.316
 2971POPC   C1B41179  32.408   0.171   6.399
 2971POPC   C2B41180  32.167   0.224   6.764
 2971POPC   C3B41181  32.215   0.256   7.220
 2971POPC   C4B41182  32.453  44.990   7.599
 2972POPC   NC341183   5.444   4.810   5.250
 2972POPC   PO441184   4.920   5.307   5.212
 2972POPC   GL141185   5.130   5.121   5.591
 2972POPC   GL241186   5.017   4.782   5.561
 2972POPC   C1A41187   5.167   5.187   6.077
 2972POPC   D2A41188   5.399   5.097   6.479
 2972POPC   C3A41189   5.322   5.189   6.898
 2972POPC   C4A41190   5.072   5.188   7.270
 2972POPC   C1B41191   5.282   4.707   5.948
 2972POPC   C2B41192   5.166   4.656   6.401
 2972POPC   C3B41193   5.360   4.659   6.834
 2972POPC   C4B41194   5.278   4.732   7.281
 2973POPC   NC341195  20.320  43.601   5.556
 2973POPC   PO441196  20.742  43.150   5.354
 2973POPC   GL141197  20.795  43.033   5.784
 2973POPC   GL241198  20.859  43.382   5.909
 2973POPC   C1A41199  20.659  43.022   6.233
 2973POPC   D2A41200  20.830  43.260   6.574
 2973POPC   C3A41201  20.729  43.011   6.932
 2973POPC   C4A41202  20.490  42.975   7.273
 2973POPC   C1B41203  20.538  43.526   6.198
 2973POPC   C2B41204  20.316  43.383   6.574
 2973POPC   C3B41205  20.544  43.490   6.961
 2973POPC   C4B41206  20.787  43.378   7.301
 2974POPC   NC341207   0.174  41.109   5.444
 2974POPC   PO441208   0.751  40.810   5.455
 2974POPC   GL141209   0.658  40.619   5.848
 2974POPC   GL241210   0.328  40.769   5.830
 2974POPC   C1A41211   0.464  40.546   6.270
 2974POPC   D2A41212   0.237  40.806   6.596
 2974POPC   C3A41213   0.382  40.655   7.009
 2974POPC   C4A41214   0.630  40.749   7.371
 2974POPC   C1B41215   0.572  41.042   6.154
 2974POPC   C2B41216   0.557  41.223   6.570
 2974POPC   C3B41217   0.412  41.169   6.961
 2974POPC   C4B41218   0.592  41.278   7.328
 2975POPC   NC341219   9.939  29.552   5.136
 2975POPC   PO441220   9.365  29.579   5.563
 2975POPC   GL141221   9.527  29.810   5.942
 2975POPC   GL241222   9.739  30.064   5.850
 2975POPC   C1A41223   9.742  29.710   6.316
 2975POPC   D2A41224   9.642  29.985   6.644
 2975POPC   C3A41225   9.471  29.831   7.017
 2975POPC   C4A41226   9.420  29.811   7.430
 2975POPC   C1B41227   9.993  30.137   6.230
 2975POPC   C2B41228  10.156  29.927   6.601
 2975POPC   C3B41229   9.984  29.740   6.943
 2975POPC   C4B41230   9.956  29.832   7.370
 2976POPC   NC341231  44.877  32.519   5.048
 2976POPC   PO441232   0.459  32.261   5.269
 2976POPC   GL141233   0.491  32.219   5.724
 2976POPC   GL241234   0.278  32.426   5.896
 2976POPC   C1A41235   0.681  32.113   6.137
 2976POPC   D2A41236   0.561  31.972   6.557
 2976POPC   C3A41237   0.335  32.140   6.912
 2976POPC   C4A41238   0.595  32.135   7.281
 2976POPC   C1B41239   0.276  32.368   6.346
 2976POPC   C2B41240   0.402  32.596   6.689
 2976POPC   C3B41241   0.508  32.611   7.131
 2976POPC   C4B41242   0.296  32.527   7.486
 2977POPC   NC341243  21.810   7.847   5.506
 2977POPC   PO441244  22.250   8.395   5.463
 2977POPC   GL141245  21.979   8.277   5.787
 2977POPC   GL241246  22.203   7.985   5.868
 2977POPC   C1A41247  21.987   8.323   6.232
 2977POPC   D2A41248  22.131   8.089   6.567
 2977POPC   C3A41249  22.058   8.281   6.957
 2977POPC   C4A41250  22.274   8.095   7.278
 2977POPC   C1B41251  21.891   7.804   6.162
 2977POPC   C2B41252  21.695   7.801   6.559
 2977POPC   C3B41253  21.832   7.816   7.006
 2977POPC   C4B41254  21.766   8.079   7.352
 2978POPC   NC341255  21.768  42.617   5.455
 2978POPC   PO441256  21.184  42.255   5.299
 2978POPC   GL141257  21.384  42.353   5.677
 2978POPC   GL241258  21.120  42.543   5.791
 2978POPC   C1A41259  21.401  42.240   6.120
 2978POPC   D2A41260  21.190  42.292   6.531
 2978POPC   C3A41261  21.345  42.170   6.938
 2978POPC   C4A41262  21.170  42.167   7.340
 2978POPC   C1B41263  20.956  42.596   6.180
 2978POPC   C2B41264  21.033  42.779   6.576
 2978POPC   C3B41265  21.087  42.636   6.984
 2978POPC   C4B41266  20.786  42.560   7.271
 2979POPC   NC341267  34.774  24.052   5.221
 2979POPC   PO441268  34.310  23.528   5.390
 2979POPC   GL141269  34.572  23.553   5.747
 2979POPC   GL241270  34.661  23.904   5.743
 2979POPC   C1A41271  34.657  23.308   6.154
 2979POPC   D2A41272  34.429  23.312   6.548
 2979POPC   C3A41273  34.567  23.584   6.888
 2979POPC   C4A41274  34.437  23.514   7.316
 2979POPC   C1B41275  34.600  23.814   6.187
 2979POPC   C2B41276  34.893  23.810   6.517
 2979POPC   C3B41277  34.917  23.954   6.956
 2979POPC   C4B41278  34.597  23.998   7.291
 2980POPC   NC341279  16.783   8.893   5.455
 2980POPC   PO441280  17.220   9.417   5.483
 2980POPC   GL141281  17.148   9.159   5.934
 2980POPC   GL241282  16.989   8.807   5.925
 2980POPC   C1A41283  16.971   8.962   6.380
 2980POPC   D2A41284  16.651   9.050   6.654
 2980POPC   C3A41285  16.810   9.167   7.032
 2980POPC   C4A41286  16.599   9.241   7.410
 2980POPC   C1B41287  16.580   8.677   6.173
 2980POPC   C2B41288  16.300   8.708   6.551
 2980POPC   C3B41289  16.294   8.810   7.003
 2980POPC   C4B41290  16.662   8.694   7.245
 2981POPC   NC341291  38.947  25.387   5.457
 2981POPC   PO441292  39.144  24.795   5.248
 2981POPC   GL141293  39.020  24.938   5.707
 2981POPC   GL241294  39.312  25.031   5.856
 2981POPC   C1A41295  38.978  25.281   6.097
 2981POPC   D2A41296  39.226  25.282   6.480
 2981POPC   C3A41297  39.065  25.406   6.898
 2981POPC   C4A41298  39.230  25.398   7.358
 2981POPC   C1B41299  39.131  24.811   6.226
 2981POPC   C2B41300  39.166  24.809   6.695
 2981POPC   C3B41301  39.219  24.936   7.128
 2981POPC   C4B41302  39.454  24.851   7.523
 2982POPC   NC341303  38.707  34.793   5.491
 2982POPC   PO441304  38.546  35.497   5.392
 2982POPC   GL141305  38.519  35.316   5.771
 2982POPC   GL241306  38.225  35.513   5.855
 2982POPC   C1A41307  38.588  35.061   6.142
 2982POPC   D2A41308  38.706  35.257   6.519
 2982POPC   C3A41309  38.671  35.094   6.916
 2982POPC   C4A41310  38.670  35.248   7.320
 2982POPC   C1B41311  38.076  35.179   6.139
 2982POPC   C2B41312  38.242  35.038   6.547
 2982POPC   C3B41313  38.180  35.197   6.963
 2982POPC   C4B41314  38.189  35.030   7.387
 2983POPC   NC341315  41.603  37.184   5.608
 2983POPC   PO441316  41.799  36.593   5.348
 2983POPC   GL141317  41.713  36.679   5.835
 2983POPC   GL241318  41.484  36.969   6.024
 2983POPC   C1A41319  41.541  36.551   6.268
 2983POPC   D2A41320  41.374  36.877   6.529
 2983POPC   C3A41321  41.386  36.763   6.926
 2983POPC   C4A41322  41.316  36.872   7.325
 2983POPC   C1B41323  41.673  37.270   6.307
 2983POPC   C2B41324  41.709  37.201   6.731
 2983POPC   C3B41325  41.488  37.280   7.060
 2983POPC   C4B41326  41.590  37.427   7.446
 2984POPC   NC341327  23.652  36.516   5.393
 2984POPC   PO441328  24.234  36.260   5.325
 2984POPC   GL141329  23.962  36.153   5.673
 2984POPC   GL241330  24.070  35.824   5.779
 2984POPC   C1A41331  23.662  36.191   6.021
 2984POPC   D2A41332  23.489  35.949   6.374
 2984POPC   C3A41333  23.571  36.072   6.808
 2984POPC   C4A41334  23.376  36.036   7.215
 2984POPC   C1B41335  24.003  35.902   6.251
 2984POPC   C2B41336  23.844  35.643   6.606
 2984POPC   C3B41337  23.840  35.715   7.071
 2984POPC   C4B41338  23.872  36.112   7.274
 2985POPC   NC341339  25.353  35.119   5.540
 2985POPC   PO441340  24.879  35.564   5.404
 2985POPC   GL141341  25.091  35.503   5.795
 2985POPC   GL241342  24.980  35.833   5.950
 2985POPC   C1A41343  25.206  35.168   6.171
 2985POPC   D2A41344  25.151  34.971   6.578
 2985POPC   C3A41345  25.395  34.999   6.954
 2985POPC   C4A41346  25.135  35.007   7.362
 2985POPC   C1B41347  25.290  35.658   6.247
 2985POPC   C2B41348  25.407  35.428   6.638
 2985POPC   C3B41349  25.156  35.447   7.063
 2985POPC   C4B41350  25.207  35.473   7.544
 2986POPC   NC341351  40.385  44.198   5.476
 2986POPC   PO441352  39.764  44.568   5.450
 2986POPC   GL141353  39.904  44.387   5.835
 2986POPC   GL241354  40.226  44.528   5.825
 2986POPC   C1A41355  39.820  44.258   6.287
 2986POPC   D2A41356  39.746  44.070   6.702
 2986POPC   C3A41357  40.014  44.293   6.985
 2986POPC   C4A41358  39.964  44.718   7.155
 2986POPC   C1B41359  40.108  44.675   6.227
 2986POPC   C2B41360  39.987  44.806   6.635
 2986POPC   C3B41361  40.350  44.887   6.890
 2986POPC   C4B41362  40.668   0.012   7.121
 2987POPC   NC341363   6.079  27.450   5.471
 2987POPC   PO441364   5.591  27.857   5.257
 2987POPC   GL141365   5.740  27.795   5.685
 2987POPC   GL241366   5.635  27.481   5.803
 2987POPC   C1A41367   5.871  27.869   6.125
 2987POPC   D2A41368   5.904  28.052   6.533
 2987POPC   C3A41369   5.870  27.804   6.888
 2987POPC   C4A41370   6.089  27.777   7.253
 2987POPC   C1B41371   5.888  27.370   6.163
 2987POPC   C2B41372   5.802  27.281   6.598
 2987POPC   C3B41373   5.986  27.321   7.019
 2987POPC   C4B41374   5.836  27.364   7.443
 2988POPC   NC341375   2.837  10.740   5.045
 2988POPC   PO441376   2.889  10.187   5.453
 2988POPC   GL141377   2.788  10.421   5.823
 2988POPC   GL241378   2.747  10.773   5.741
 2988POPC   C1A41379   2.860  10.326   6.266
 2988POPC   D2A41380   2.926  10.172   6.700
 2988POPC   C3A41381   2.769  10.459   7.044
 2988POPC   C4A41382   2.763  10.599   7.487
 2988POPC   C1B41383   2.884  10.838   6.162
 2988POPC   C2B41384   2.760  10.733   6.584
 2988POPC   C3B41385   2.855  10.949   6.970
 2988POPC   C4B41386   3.194  10.815   7.224
 2989POPC   NC341387  27.303  23.023   5.025
 2989POPC   PO441388  27.687  23.151   5.576
 2989POPC   GL141389  27.506  23.073   5.990
 2989POPC   GL241390  27.374  22.730   5.893
 2989POPC   C1A41391  27.505  23.136   6.447
 2989POPC   D2A41392  27.581  23.177   6.894
 2989POPC   C3A41393  27.858  22.971   7.150
 2989POPC   C4A41394  27.965  23.079   7.582
 2989POPC   C1B41395  27.556  22.627   6.299
 2989POPC   C2B41396  27.680  22.707   6.715
 2989POPC   C3B41397  27.443  22.687   7.084
 2989POPC   C4B41398  27.238  22.518   7.439
 2990POPC   NC341399  37.153  23.918   5.399
 2990POPC   PO441400  36.698  23.449   5.418
 2990POPC   GL141401  36.854  23.701   5.776
 2990POPC   GL241402  37.213  23.619   5.792
 2990POPC   C1A41403  36.844  23.872   6.225
 2990POPC   D2A41404  36.868  24.055   6.657
 2990POPC   C3A41405  36.925  23.767   7.015
 2990POPC   C4A41406  36.706  23.412   7.186
 2990POPC   C1B41407  37.164  23.450   6.195
 2990POPC   C2B41408  37.212  23.580   6.608
 2990POPC   C3B41409  37.202  23.344   6.993
 2990POPC   C4B41410  37.276  23.474   7.402
 2991POPC   NC341411  18.988  31.948   5.456
 2991POPC   PO441412  19.097  31.317   5.411
 2991POPC   GL141413  19.054  31.478   5.808
 2991POPC   GL241414  19.237  31.776   5.878
 2991POPC   C1A41415  18.839  31.360   6.180
 2991POPC   D2A41416  19.066  31.327   6.551
 2991POPC   C3A41417  19.010  31.531   6.938
 2991POPC   C4A41418  19.178  31.484   7.352
 2991POPC   C1B41419  19.091  31.780   6.285
 2991POPC   C2B41420  19.107  32.013   6.675
 2991POPC   C3B41421  19.209  31.963   7.102
 2991POPC   C4B41422  19.412  31.910   7.481
 2992POPC   NC341423  14.115  29.966   5.324
 2992POPC   PO441424  14.671  29.635   5.445
 2992POPC   GL141425  14.327  29.602   5.754
 2992POPC   GL241426  14.322  29.936   5.854
 2992POPC   C1A41427  14.328  29.561   6.206
 2992POPC   D2A41428  14.118  29.715   6.609
 2992POPC   C3A41429  14.304  29.681   7.022
 2992POPC   C4A41430  14.324  29.734   7.459
 2992POPC   C1B41431  14.374  30.063   6.310
 2992POPC   C2B41432  14.494  30.080   6.774
 2992POPC   C3B41433  14.283  30.174   7.194
 2992POPC   C4B41434  14.024  30.130   7.604
 2993POPC   NC341435  21.609  13.157   5.224
 2993POPC   PO441436  21.373  13.808   5.278
 2993POPC   GL141437  21.313  13.699   5.771
 2993POPC   GL241438  21.260  14.019   5.950
 2993POPC   C1A41439  21.241  13.611   6.233
 2993POPC   D2A41440  21.190  13.894   6.581
 2993POPC   C3A41441  21.001  13.672   6.897
 2993POPC   C4A41442  21.192  13.449   7.182
 2993POPC   C1B41443  21.607  14.020   6.294
 2993POPC   C2B41444  21.679  14.105   6.721
 2993POPC   C3B41445  21.512  13.835   7.021
 2993POPC   C4B41446  21.550  13.804   7.467
 2994POPC   NC341447   1.497   6.823   5.391
 2994POPC   PO441448   1.072   6.286   5.334
 2994POPC   GL141449   1.163   6.275   5.778
 2994POPC   GL241450   1.473   6.457   5.841
 2994POPC   C1A41451   1.020   6.356   6.183
 2994POPC   D2A41452   1.112   6.205   6.573
 2994POPC   C3A41453   1.098   6.539   6.836
 2994POPC   C4A41454   1.038   6.546   7.260
 2994POPC   C1B41455   1.476   6.607   6.275
 2994POPC   C2B41456   1.581   6.763   6.692
 2994POPC   C3B41457   1.431   6.861   7.107
 2994POPC   C4B41458   1.129   7.037   7.404
 2995POPC   NC341459  14.439  22.398   5.670
 2995POPC   PO441460  14.815  22.089   5.162
 2995POPC   GL141461  14.488  21.912   5.552
 2995POPC   GL241462  14.165  21.968   5.722
 2995POPC   C1A41463  14.531  21.934   6.079
 2995POPC   D2A41464  14.367  21.945   6.511
 2995POPC   C3A41465  14.560  22.302   6.726
 2995POPC   C4A41466  14.603  22.442   7.134
 2995POPC   C1B41467  14.055  22.181   6.165
 2995POPC   C2B41468  14.072  22.387   6.585
 2995POPC   C3B41469  14.124  22.280   7.027
 2995POPC   C4B41470  14.422  21.948   7.178
 2996POPC   NC341471  29.670  41.595   5.398
 2996POPC   PO441472  30.293  41.478   5.250
 2996POPC   GL141473  30.069  41.735   5.674
 2996POPC   GL241474  29.859  41.463   5.836
 2996POPC   C1A41475  29.858  41.843   6.146
 2996POPC   D2A41476  29.679  41.636   6.555
 2996POPC   C3A41477  29.974  41.559   6.932
 2996POPC   C4A41478  30.143  41.250   7.228
 2996POPC   C1B41479  29.676  41.249   6.197
 2996POPC   C2B41480  29.568  41.051   6.599
 2996POPC   C3B41481  29.697  41.011   7.003
 2996POPC   C4B41482  29.580  41.345   7.186
 2997POPC   NC341483  28.736  17.637   5.171
 2997POPC   PO441484  29.365  17.530   5.377
 2997POPC   GL141485  29.087  17.705   5.705
 2997POPC   GL241486  29.363  17.859   5.816
 2997POPC   C1A41487  29.011  17.803   6.184
 2997POPC   D2A41488  29.188  17.718   6.618
 2997POPC   C3A41489  28.911  17.819   6.982
 2997POPC   C4A41490  28.824  17.506   7.283
 2997POPC   C1B41491  29.490  17.600   6.186
 2997POPC   C2B41492  29.691  17.424   6.563
 2997POPC   C3B41493  29.543  17.390   6.981
 2997POPC   C4B41494  29.316  17.676   7.254
 2998POPC   NC341495   8.879   5.260   5.557
 2998POPC   PO441496   9.190   4.724   5.197
 2998POPC   GL141497   9.162   4.838   5.707
 2998POPC   GL241498   9.273   5.131   5.873
 2998POPC   C1A41499   8.862   4.823   6.100
 2998POPC   D2A41500   8.696   4.923   6.524
 2998POPC   C3A41501   8.990   5.055   6.865
 2998POPC   C4A41502   9.005   5.377   7.179
 2998POPC   C1B41503   9.296   5.009   6.306
 2998POPC   C2B41504   9.443   5.250   6.622
 2998POPC   C3B41505   9.463   5.459   6.980
 2998POPC   C4B41506   9.432   5.347   7.400
 2999POPC   NC341507  39.171  37.797   5.336
 2999POPC   PO441508  38.738  37.397   5.455
 2999POPC   GL141509  38.960  37.674   5.801
 2999POPC   GL241510  39.346  37.687   5.788
 2999POPC   C1A41511  39.190  37.662   6.260
 2999POPC   D2A41512  39.461  37.475   6.595
 2999POPC   C3A41513  39.344  37.548   7.034
 2999POPC   C4A41514  38.919  37.666   7.214
 2999POPC   C1B41515  39.461  38.039   6.074
 2999POPC   C2B41516  39.494  37.991   6.531
 2999POPC   C3B41517  39.688  37.974   6.954
 2999POPC   C4B41518  39.666  37.793   7.391
 3000POPC   NC341519   0.167  44.753   5.450
 3000POPC   PO441520  44.631  44.660   5.415
 3000POPC   GL141521  44.530  44.706   5.866
 3000POPC   GL241522  44.231  44.905   5.913
 3000POPC   C1A41523  44.672  44.560   6.280
 3000POPC   D2A41524  44.957  44.383   6.588
 3000POPC   C3A41525  44.783  44.464   6.989
 3000POPC   C4A41526  44.436  44.217   7.109
 3000POPC   C1B41527  44.155  44.603   6.258
 3000POPC   C2B41528  44.265  44.461   6.680
 3000POPC   C3B41529  44.339  44.728   7.042
 3000POPC   C4B41530  44.370  44.793   7.479
 3001POPC   NC341531   9.905  27.979   5.546
 3001POPC   PO441532   9.699  27.297   5.590
 3001POPC   GL141533   9.962  27.491   5.885
 3001POPC   GL241534   9.695  27.702   5.961
 3001POPC   C1A41535   9.993  27.508   6.349
 3001POPC   D2A41536  10.028  27.344   6.745
 3001POPC   C3A41537  10.078  27.594   7.069
 3001POPC   C4A41538   9.796  27.891   7.163
 3001POPC   C1B41539   9.480  27.513   6.329
 3001POPC   C2B41540   9.544  27.485   6.815
 3001POPC   C3B41541   9.660  27.339   7.238
 3001POPC   C4B41542   9.485  27.463   7.665
 3002POPC   NC341543  35.436  13.024   5.298
 3002POPC   PO441544  34.853  13.308   5.528
 3002POPC   GL141545  35.125  12.959   5.795
 3002POPC   GL241546  35.505  12.877   5.784
 3002POPC   C1A41547  35.309  13.024   6.237
 3002POPC   D2A41548  35.414  13.258   6.648
 3002POPC   C3A41549  35.421  12.976   7.028
 3002POPC   C4A41550  35.091  12.702   7.195
 3002POPC   C1B41551  35.617  12.529   6.091
 3002POPC   C2B41552  35.618  12.285   6.479
 3002POPC   C3B41553  35.410  12.333   6.842
 3002POPC   C4B41554  35.549  12.500   7.207
 3003POPC   NC341555   1.214  16.450   5.025
 3003POPC   PO441556   1.508  16.605   5.568
 3003POPC   GL141557   1.347  16.718   5.913
 3003POPC   GL241558   1.222  16.396   5.966
 3003POPC   C1A41559   1.271  16.903   6.304
 3003POPC   D2A41560   1.139  16.739   6.686
 3003POPC   C3A41561   1.371  16.846   7.063
 3003POPC   C4A41562   1.200  16.933   7.494
 3003POPC   C1B41563   1.467  16.428   6.363
 3003POPC   C2B41564   1.466  16.373   6.827
 3003POPC   C3B41565   1.050  16.406   7.073
 3003POPC   C4B41566   0.905  16.500   7.514
 3004POPC   NC341567  42.929  24.703   5.465
 3004POPC   PO441568  43.425  24.259   5.444
 3004POPC   GL141569  43.232  24.466   5.828
 3004POPC   GL241570  42.904  24.356   5.922
 3004POPC   C1A41571  43.140  24.611   6.269
 3004POPC   D2A41572  42.839  24.539   6.595
 3004POPC   C3A41573  42.982  24.270   6.907
 3004POPC   C4A41574  43.269  24.569   7.097
 3004POPC   C1B41575  42.657  24.700   6.128
 3004POPC   C2B41576  42.473  24.907   6.495
 3004POPC   C3B41577  42.618  24.896   6.918
 3004POPC   C4B41578  42.769  24.618   7.202
 3005POPC   NC341579  38.688  22.799   5.429
 3005POPC   PO441580  38.076  22.764   5.414
 3005POPC   GL141581  38.337  22.821   5.821
 3005POPC   GL241582  38.655  23.064   5.860
 3005POPC   C1A41583  38.282  23.060   6.220
 3005POPC   D2A41584  38.111  23.306   6.562
 3005POPC   C3A41585  38.133  23.032   6.962
 3005POPC   C4A41586  38.478  22.734   7.125
 3005POPC   C1B41587  38.789  23.173   6.292
 3005POPC   C2B41588  38.605  23.058   6.695
 3005POPC   C3B41589  38.734  23.184   7.109
 3005POPC   C4B41590  38.945  23.321   7.504
 3006POPC   NC341591  17.795  17.702   5.376
 3006POPC   PO441592  17.292  17.434   5.341
 3006POPC   GL141593  17.474  17.563   5.760
 3006POPC   GL241594  17.780  17.375   5.792
 3006POPC   C1A41595  17.510  17.691   6.226
 3006POPC   D2A41596  17.495  17.548   6.699
 3006POPC   C3A41597  17.114  17.588   7.009
 3006POPC   C4A41598  17.014  17.698   7.469
 3006POPC   C1B41599  17.970  17.364   6.192
 3006POPC   C2B41600  17.999  17.184   6.618
 3006POPC   C3B41601  17.899  17.392   7.005
 3006POPC   C4B41602  17.581  17.623   7.238
 3007POPC   NC341603  13.784  41.213   5.598
 3007POPC   PO441604  13.428  41.706   5.259
 3007POPC   GL141605  13.526  41.725   5.731
 3007POPC   GL241606  13.219  41.695   5.980
 3007POPC   C1A41607  13.673  41.789   6.141
 3007POPC   D2A41608  13.390  41.789   6.530
 3007POPC   C3A41609  13.558  41.625   6.921
 3007POPC   C4A41610  13.551  41.629   7.363
 3007POPC   C1B41611  13.427  41.358   6.282
 3007POPC   C2B41612  13.519  41.146   6.621
 3007POPC   C3B41613  13.701  41.089   6.988
 3007POPC   C4B41614  13.391  41.145   7.245
 3008POPC   NC341615  34.693  18.133   4.969
 3008POPC   PO441616  35.293  18.218   5.395
 3008POPC   GL141617  35.115  18.358   5.761
 3008POPC   GL241618  35.445  18.338   5.907
 3008POPC   C1A41619  35.061  18.368   6.239
 3008POPC   D2A41620  35.392  18.372   6.559
 3008POPC   C3A41621  35.213  18.375   6.977
 3008POPC   C4A41622  35.415  18.577   7.321
 3008POPC   C1B41623  35.794  18.254   6.179
 3008POPC   C2B41624  35.918  18.124   6.610
 3008POPC   C3B41625  35.714  18.251   6.978
 3008POPC   C4B41626  35.499  18.075   7.307
 3009POPC   NC341627  20.440  39.203   5.353
 3009POPC   PO441628  21.124  39.192   5.254
 3009POPC   GL141629  20.831  39.174   5.718
 3009POPC   GL241630  20.487  39.033   5.828
 3009POPC   C1A41631  20.643  39.303   6.208
 3009POPC   D2A41632  20.371  39.218   6.631
 3009POPC   C3A41633  20.648  39.227   7.022
 3009POPC   C4A41634  20.629  39.498   7.433
 3009POPC   C1B41635  20.347  38.855   6.255
 3009POPC   C2B41636  20.355  38.667   6.698
 3009POPC   C3B41637  20.379  38.769   7.153
 3009POPC   C4B41638  20.542  38.996   7.477
 3010POPC   NC341639  33.971  19.802   5.257
 3010POPC   PO441640  33.751  20.311   5.499
 3010POPC   GL141641  33.831  20.007   5.848
 3010POPC   GL241642  33.876  19.655   5.761
 3010POPC   C1A41643  33.820  19.816   6.273
 3010POPC   D2A41644  33.978  19.900   6.695
 3010POPC   C3A41645  33.688  19.796   7.057
 3010POPC   C4A41646  33.612  19.965   7.483
 3010POPC   C1B41647  34.150  19.469   6.089
 3010POPC   C2B41648  34.043  19.386   6.543
 3010POPC   C3B41649  34.108  19.487   6.975
 3010POPC   C4B41650  34.005  19.598   7.419
 3011POPC   NC341651  24.302  12.042   5.457
 3011POPC   PO441652  24.936  12.133   5.463
 3011POPC   GL141653  24.693  12.266   5.804
 3011POPC   GL241654  24.422  12.079   5.936
 3011POPC   C1A41655  24.618  12.406   6.242
 3011POPC   D2A41656  24.437  12.436   6.641
 3011POPC   C3A41657  24.514  12.119   6.956
 3011POPC   C4A41658  24.775  12.101   7.332
 3011POPC   C1B41659  24.160  12.139   6.309
 3011POPC   C2B41660  24.155  11.866   6.687
 3011POPC   C3B41661  24.180  11.803   7.149
 3011POPC   C4B41662  24.304  12.104   7.490
 3012POPC   NC341663  32.737   0.010   5.235
 3012POPC   PO441664  33.362   0.270   5.289
 3012POPC   GL141665  33.187   0.172   5.720
 3012POPC   GL241666  32.808   0.213   5.739
 3012POPC   C1A41667  33.106   0.314   6.149
 3012POPC   D2A41668  32.974   0.600   6.492
 3012POPC   C3A41669  32.896   0.320   6.827
 3012POPC   C4A41670  33.150   0.311   7.181
 3012POPC   C1B41671  32.670   0.584   6.061
 3012POPC   C2B41672  32.473   0.718   6.483
 3012POPC   C3B41673  32.616   0.749   6.918
 3012POPC   C4B41674  32.666   0.473   7.264
 3013POPC   NC341675  22.290  19.972   5.399
 3013POPC   PO441676  21.765  19.648   5.439
 3013POPC   GL141677  21.939  19.893   5.764
 3013POPC   GL241678  22.211  19.746   5.860
 3013POPC   C1A41679  22.051  20.034   6.221
 3013POPC   D2A41680  22.238  19.905   6.628
 3013POPC   C3A41681  22.164  19.824   7.089
 3013POPC   C4A41682  21.984  19.737   7.533
 3013POPC   C1B41683  22.388  19.571   6.204
 3013POPC   C2B41684  22.408  19.365   6.600
 3013POPC   C3B41685  22.584  19.510   6.989
 3013POPC   C4B41686  22.435  19.499   7.419
 3014POPC   NC341687  37.109  23.217   5.343
 3014POPC   PO441688  36.667  22.679   5.430
 3014POPC   GL141689  36.677  22.946   5.808
 3014POPC   GL241690  36.948  23.171   5.810
 3014POPC   C1A41691  36.746  23.086   6.261
 3014POPC   D2A41692  36.811  23.263   6.664
 3014POPC   C3A41693  36.807  22.961   6.972
 3014POPC   C4A41694  36.463  22.712   7.165
 3014POPC   C1B41695  37.210  22.919   6.097
 3014POPC   C2B41696  37.236  22.983   6.538
 3014POPC   C3B41697  37.329  22.835   6.954
 3014POPC   C4B41698  37.141  22.965   7.359
 3015POPC   NC341699  17.718  22.829   5.395
 3015POPC   PO441700  17.022  22.972   5.273
 3015POPC   GL141701  17.168  23.083   5.739
 3015POPC   GL241702  17.536  23.173   5.852
 3015POPC   C1A41703  17.267  22.824   6.125
 3015POPC   D2A41704  17.430  22.996   6.461
 3015POPC   C3A41705  17.331  22.929   6.870
 3015POPC   C4A41706  17.266  22.740   7.271
 3015POPC   C1B41707  17.846  22.926   6.168
 3015POPC   C2B41708  17.828  22.731   6.633
 3015POPC   C3B41709  17.792  22.857   7.077
 3015POPC   C4B41710  17.541  23.236   7.220
 3016POPC   NC341711  29.123  42.971   5.137
 3016POPC   PO441712  29.530  43.281   5.585
 3016POPC   GL141713  29.129  43.162   5.742
 3016POPC   GL241714  29.010  43.504   5.813
 3016POPC   C1A41715  28.941  43.099   6.123
 3016POPC   D2A41716  29.020  42.929   6.530
 3016POPC   C3A41717  29.091  43.133   6.919
 3016POPC   C4A41718  29.144  42.916   7.329
 3016POPC   C1B41719  29.284  43.447   6.187
 3016POPC   C2B41720  29.349  43.645   6.578
 3016POPC   C3B41721  29.418  43.533   6.976
 3016POPC   C4B41722  29.347  43.374   7.369
 3017POPC   NC341723  40.850  32.408   5.233
 3017POPC   PO441724  41.259  31.880   5.409
 3017POPC   GL141725  40.963  32.132   5.660
 3017POPC   GL241726  41.225  32.384   5.704
 3017POPC   C1A41727  40.720  32.320   6.043
 3017POPC   D2A41728  40.570  32.131   6.451
 3017POPC   C3A41729  40.501  32.308   6.858
 3017POPC   C4A41730  40.604  32.284   7.306
 3017POPC   C1B41731  41.204  32.170   6.112
 3017POPC   C2B41732  41.036  32.348   6.486
 3017POPC   C3B41733  41.032  32.375   6.940
 3017POPC   C4B41734  41.151  32.051   7.246
 3018POPC   NC341735  14.047  37.382   5.313
 3018POPC   PO441736  14.655  37.271   5.185
 3018POPC   GL141737  14.646  37.559   5.559
 3018POPC   GL241738  14.345  37.791   5.641
 3018POPC   C1A41739  14.589  37.550   6.015
 3018POPC   D2A41740  14.291  37.564   6.367
 3018POPC   C3A41741  14.373  37.505   6.829
 3018POPC   C4A41742  14.163  37.326   7.180
 3018POPC   C1B41743  14.370  38.011   6.080
 3018POPC   C2B41744  14.135  38.064   6.481
 3018POPC   C3B41745  14.312  38.023   6.881
 3018POPC   C4B41746  14.241  37.827   7.256
 3019POPC   NC341747  27.616  16.566   5.505
 3019POPC   PO441748  27.847  17.136   5.552
 3019POPC   GL141749  27.736  16.845   5.907
 3019POPC   GL241750  27.550  16.568   5.998
 3019POPC   C1A41751  27.835  16.870   6.320
 3019POPC   D2A41752  27.983  16.776   6.722
 3019POPC   C3A41753  27.671  16.708   7.051
 3019POPC   C4A41754  27.772  16.848   7.464
 3019POPC   C1B41755  27.373  16.700   6.411
 3019POPC   C2B41756  27.091  16.880   6.739
 3019POPC   C3B41757  27.188  16.883   7.196
 3019POPC   C4B41758  27.344  16.614   7.563
 3020POPC   NC341759  40.444  14.654   5.193
 3020POPC   PO441760  40.717  14.093   5.301
 3020POPC   GL141761  40.696  14.223   5.760
 3020POPC   GL241762  40.482  14.527   5.877
 3020POPC   C1A41763  40.873  14.060   6.162
 3020POPC   D2A41764  41.088  13.958   6.574
 3020POPC   C3A41765  40.939  14.189   6.941
 3020POPC   C4A41766  40.986  14.659   7.007
 3020POPC   C1B41767  40.388  14.310   6.293
 3020POPC   C2B41768  40.295  14.325   6.760
 3020POPC   C3B41769  40.440  14.536   7.167
 3020POPC   C4B41770  40.478  14.749   7.595
 3021POPC   NC341771  42.729  39.066   5.111
 3021POPC   PO441772  42.137  39.081   5.379
 3021POPC   GL141773  42.269  39.199   5.773
 3021POPC   GL241774  42.610  39.117   5.631
 3021POPC   C1A41775  42.206  39.459   6.174
 3021POPC   D2A41776  42.023  39.548   6.612
 3021POPC   C3A41777  42.276  39.389   6.914
 3021POPC   C4A41778  42.258  39.010   7.144
 3021POPC   C1B41779  42.671  39.174   6.089
 3021POPC   C2B41780  42.564  39.274   6.512
 3021POPC   C3B41781  42.776  39.224   6.931
 3021POPC   C4B41782  42.757  38.917   7.233
 3022POPC   NC341783  30.863   0.164   5.626
 3022POPC   PO441784  30.890  44.598   5.263
 3022POPC   GL141785  30.943  44.528   5.717
 3022POPC   GL241786  30.645  44.712   5.815
 3022POPC   C1A41787  30.971  44.618   6.197
 3022POPC   D2A41788  30.751  44.812   6.563
 3022POPC   C3A41789  30.796  44.628   6.976
 3022POPC   C4A41790  30.758  44.768   7.406
 3022POPC   C1B41791  30.399  44.891   6.179
 3022POPC   C2B41792  30.240  44.896   6.615
 3022POPC   C3B41793  30.407  44.967   7.065
 3022POPC   C4B41794  30.327   0.020   7.524
 3023POPC   NC341795  10.235  23.248   5.523
 3023POPC   PO441796  10.780  22.787   5.573
 3023POPC   GL141797  10.483  22.934   5.836
 3023POPC   GL241798  10.659  23.253   5.922
 3023POPC   C1A41799  10.289  22.811   6.211
 3023POPC   D2A41800  10.469  22.960   6.577
 3023POPC   C3A41801  10.380  22.747   6.935
 3023POPC   C4A41802  10.595  22.874   7.288
 3023POPC   C1B41803  10.312  23.335   6.237
 3023POPC   C2B41804  10.217  23.373   6.697
 3023POPC   C3B41805  10.264  23.237   7.153
 3023POPC   C4B41806  10.327  23.164   7.632
 3024POPC   NC341807  11.949  18.065   5.263
 3024POPC   PO441808  12.479  18.577   5.341
 3024POPC   GL141809  12.374  18.450   5.791
 3024POPC   GL241810  12.012  18.529   5.823
 3024POPC   C1A41811  12.254  18.255   6.210
 3024POPC   D2A41812  12.046  18.100   6.602
 3024POPC   C3A41813  12.244  18.280   6.970
 3024POPC   C4A41814  12.130  18.644   7.167
 3024POPC   C1B41815  11.839  18.605   6.257
 3024POPC   C2B41816  11.887  18.617   6.711
 3024POPC   C3B41817  11.723  18.342   7.046
 3024POPC   C4B41818  11.377  18.387   7.359
 3025POPC   NC341819   8.001  32.930   5.292
 3025POPC   PO441820   7.979  33.569   5.171
 3025POPC   GL141821   8.122  33.290   5.672
 3025POPC   GL241822   8.256  32.998   5.745
 3025POPC   C1A41823   7.963  33.081   6.142
 3025POPC   D2A41824   8.195  32.839   6.507
 3025POPC   C3A41825   8.120  32.912   6.938
 3025POPC   C4A41826   7.859  33.152   7.167
 3025POPC   C1B41827   8.484  33.001   6.124
 3025POPC   C2B41828   8.634  33.184   6.519
 3025POPC   C3B41829   8.609  33.255   6.973
 3025POPC   C4B41830   8.380  33.128   7.341
 3026POPC   NC341831  24.186  29.286   5.135
 3026POPC   PO441832  23.554  29.178   5.287
 3026POPC   GL141833  23.674  29.303   5.675
 3026POPC   GL241834  23.355  29.411   5.740
 3026POPC   C1A41835  23.863  29.443   6.081
 3026POPC   D2A41836  23.733  29.532   6.514
 3026POPC   C3A41837  23.967  29.360   6.903
 3026POPC   C4A41838  23.947  28.987   7.256
 3026POPC   C1B41839  23.427  29.196   6.117
 3026POPC   C2B41840  23.334  29.175   6.522
 3026POPC   C3B41841  23.458  29.293   6.900
 3026POPC   C4B41842  23.284  29.182   7.267
 3027POPC   NC341843  30.018  21.046   5.487
 3027POPC   PO441844  29.647  21.508   5.323
 3027POPC   GL141845  29.835  21.476   5.742
 3027POPC   GL241846  30.057  21.740   5.828
 3027POPC   C1A41847  29.759  21.375   6.195
 3027POPC   D2A41848  29.703  21.589   6.626
 3027POPC   C3A41849  29.864  21.414   7.030
 3027POPC   C4A41850  30.139  21.111   7.238
 3027POPC   C1B41851  30.207  21.591   6.274
 3027POPC   C2B41852  30.314  21.634   6.723
 3027POPC   C3B41853  30.321  21.622   7.177
 3027POPC   C4B41854  30.019  21.679   7.490
 3028POPC   NC341855  19.681  39.660   5.185
 3028POPC   PO441856  20.086  40.177   5.443
 3028POPC   GL141857  20.079  40.233   5.913
 3028POPC   GL241858  19.776  40.058   6.051
 3028POPC   C1A41859  20.090  40.185   6.404
 3028POPC   D2A41860  19.697  40.026   6.627
 3028POPC   C3A41861  19.782  40.006   7.049
 3028POPC   C4A41862  20.201  40.144   7.096
 3028POPC   C1B41863  19.621  39.653   6.273
 3028POPC   C2B41864  19.461  39.550   6.710
 3028POPC   C3B41865  19.502  39.598   7.179
 3028POPC   C4B41866  19.653  39.763   7.630
 3029POPC   NC341867  13.516  26.307   5.368
 3029POPC   PO441868  13.495  26.974   5.319
 3029POPC   GL141869  13.613  26.731   5.682
 3029POPC   GL241870  13.310  26.555   5.760
 3029POPC   C1A41871  13.691  26.767   6.134
 3029POPC   D2A41872  13.994  26.932   6.444
 3029POPC   C3A41873  13.877  26.790   6.841
 3029POPC   C4A41874  13.563  26.991   7.057
 3029POPC   C1B41875  13.264  26.486   6.202
 3029POPC   C2B41876  13.406  26.648   6.613
 3029POPC   C3B41877  13.287  26.574   7.051
 3029POPC   C4B41878  13.210  26.755   7.446
 3030POPC   NC341879  42.652  23.844   5.244
 3030POPC   PO441880  42.005  23.967   5.331
 3030POPC   GL141881  42.024  23.803   5.798
 3030POPC   GL241882  41.933  23.464   5.869
 3030POPC   C1A41883  42.197  23.767   6.251
 3030POPC   D2A41884  42.135  23.945   6.666
 3030POPC   C3A41885  42.199  23.844   7.094
 3030POPC   C4A41886  42.248  24.003   7.541
 3030POPC   C1B41887  42.144  23.262   6.248
 3030POPC   C2B41888  42.390  23.431   6.613
 3030POPC   C3B41889  42.375  23.354   7.051
 3030POPC   C4B41890  42.146  23.451   7.466
 3031POPC   NC341891  11.818   6.746   5.262
 3031POPC   PO441892  12.353   6.346   5.320
 3031POPC   GL141893  12.137   6.592   5.657
 3031POPC   GL241894  12.322   6.878   5.810
 3031POPC   C1A41895  12.042   6.594   6.132
 3031POPC   D2A41896  11.896   6.822   6.518
 3031POPC   C3A41897  11.953   6.609   6.919
 3031POPC   C4A41898  12.094   6.546   7.332
 3031POPC   C1B41899  12.345   7.045   6.247
 3031POPC   C2B41900  12.274   7.176   6.688
 3031POPC   C3B41901  12.015   7.090   7.069
 3031POPC   C4B41902  12.083   7.034   7.506
 3032POPC   NC341903  40.546  38.410   5.411
 3032POPC   PO441904  41.123  38.156   5.421
 3032POPC   GL141905  41.019  38.439   5.776
 3032POPC   GL241906  40.670  38.553   5.871
 3032POPC   C1A41907  41.036  38.511   6.234
 3032POPC   D2A41908  40.761  38.423   6.581
 3032POPC   C3A41909  40.945  38.523   6.971
 3032POPC   C4A41910  40.987  38.291   7.325
 3032POPC   C1B41911  40.381  38.450   6.207
 3032POPC   C2B41912  40.280  38.627   6.610
 3032POPC   C3B41913  40.505  38.772   6.947
 3032POPC   C4B41914  40.619  38.678   7.359
 3033POPC   NC341915  29.028  33.864   5.248
 3033POPC   PO441916  29.430  34.243   5.607
 3033POPC   GL141917  29.159  33.913   5.803
 3033POPC   GL241918  28.908  33.618   5.763
 3033POPC   C1A41919  29.242  33.797   6.228
 3033POPC   D2A41920  29.295  33.480   6.551
 3033POPC   C3A41921  29.474  33.713   6.897
 3033POPC   C4A41922  29.338  33.950   7.275
 3033POPC   C1B41923  28.850  33.490   6.224
 3033POPC   C2B41924  28.793  33.641   6.675
 3033POPC   C3B41925  28.873  33.793   7.120
 3033POPC   C4B41926  28.972  33.596   7.527
 3034POPC   NC341927   4.604   7.227   5.431
 3034POPC   PO441928   4.119   7.706   5.453
 3034POPC   GL141929   4.330   7.603   5.819
 3034POPC   GL241930   4.225   7.282   5.798
 3034POPC   C1A41931   4.440   7.498   6.278
 3034POPC   D2A41932   4.408   7.767   6.654
 3034POPC   C3A41933   4.623   7.667   7.047
 3034POPC   C4A41934   4.421   7.513   7.408
 3034POPC   C1B41935   3.965   7.339   6.167
 3034POPC   C2B41936   4.046   7.310   6.623
 3034POPC   C3B41937   4.095   6.955   6.919
 3034POPC   C4B41938   4.249   7.045   7.311
 3035POPC   NC341939   2.808   5.428   5.328
 3035POPC   PO441940   2.399   5.061   5.660
 3035POPC   GL141941   2.778   4.903   5.862
 3035POPC   GL241942   3.009   5.159   5.736
 3035POPC   C1A41943   2.977   4.795   6.295
 3035POPC   D2A41944   3.037   4.930   6.745
 3035POPC   C3A41945   2.691   4.995   7.055
 3035POPC   C4A41946   2.539   4.778   7.445
 3035POPC   C1B41947   2.951   5.306   6.177
 3035POPC   C2B41948   2.788   5.408   6.601
 3035POPC   C3B41949   3.012   5.643   6.904
 3035POPC   C4B41950   3.110   5.535   7.314
 3036POPC   NC341951  26.359  18.049   5.437
 3036POPC   PO441952  25.839  18.490   5.308
 3036POPC   GL141953  25.981  18.414   5.713
 3036POPC   GL241954  25.797  18.677   5.865
 3036POPC   C1A41955  26.295  18.421   6.079
 3036POPC   D2A41956  26.217  18.273   6.515
 3036POPC   C3A41957  26.418  18.403   6.868
 3036POPC   C4A41958  26.480  18.130   7.144
 3036POPC   C1B41959  25.807  18.402   6.231
 3036POPC   C2B41960  25.707  18.266   6.662
 3036POPC   C3B41961  25.907  18.236   7.066
 3036POPC   C4B41962  26.142  18.505   7.297
 3037POPC   NC341963  24.943   5.894   5.312
 3037POPC   PO441964  25.540   6.260   5.388
 3037POPC   GL141965  25.354   6.130   5.740
 3037POPC   GL241966  24.992   6.246   5.683
 3037POPC   C1A41967  25.498   5.864   6.122
 3037POPC   D2A41968  25.667   5.661   6.531
 3037POPC   C3A41969  25.372   5.696   6.907
 3037POPC   C4A41970  24.966   5.723   7.173
 3037POPC   C1B41971  25.050   6.149   6.145
 3037POPC   C2B41972  25.286   6.140   6.572
 3037POPC   C3B41973  25.146   6.194   7.023
 3037POPC   C4B41974  24.784   6.204   7.311
 3038POPC   NC341975   5.765  21.911   5.332
 3038POPC   PO441976   5.768  22.544   5.172
 3038POPC   GL141977   5.902  22.372   5.644
 3038POPC   GL241978   6.068  22.070   5.725
 3038POPC   C1A41979   5.777  22.236   6.108
 3038POPC   D2A41980   5.835  22.045   6.525
 3038POPC   C3A41981   5.730  22.182   6.954
 3038POPC   C4A41982   5.909  22.164   7.377
 3038POPC   C1B41983   6.206  21.815   6.094
 3038POPC   C2B41984   6.152  21.649   6.504
 3038POPC   C3B41985   6.217  21.910   6.871
 3038POPC   C4B41986   6.202  21.748   7.256
 3039POPC   NC341987  24.346   8.687   5.521
 3039POPC   PO441988  24.431   9.291   5.263
 3039POPC   GL141989  24.467   9.190   5.715
 3039POPC   GL241990  24.768   8.962   5.745
 3039POPC   C1A41991  24.346   9.203   6.190
 3039POPC   D2A41992  24.514   9.181   6.635
 3039POPC   C3A41993  24.299   9.132   7.042
 3039POPC   C4A41994  24.382   8.717   7.221
 3039POPC   C1B41995  24.864   8.644   6.099
 3039POPC   C2B41996  25.012   8.690   6.546
 3039POPC   C3B41997  24.767   8.805   6.919
 3039POPC   C4B41998  24.754   9.092   7.296
 3040POPC   NC341999  44.153   2.110   5.430
 3040POPC   PO442000  43.509   1.816   5.361
 3040POPC   GL142001  43.602   1.929   5.802
 3040POPC   GL242002  43.883   2.181   5.891
 3040POPC   C1A42003  43.666   1.842   6.243
 3040POPC   D2A42004  43.908   2.087   6.513
 3040POPC   C3A42005  43.803   2.207   6.916
 3040POPC   C4A42006  43.767   1.938   7.233
 3040POPC   C1B42007  44.171   1.892   6.109
 3040POPC   C2B42008  44.353   1.866   6.539
 3040POPC   C3B42009  44.231   1.906   6.975
 3040POPC   C4B42010  44.307   1.816   7.397
 3041POPC   NC342011  32.454  44.069   5.420
 3041POPC   PO442012  32.244  43.443   5.535
 3041POPC   GL142013  32.465  43.673   5.808
 3041POPC   GL242014  32.266  43.979   5.893
 3041POPC   C1A42015  32.369  43.623   6.256
 3041POPC   D2A42016  32.244  43.869   6.623
 3041POPC   C3A42017  32.448  43.836   7.030
 3041POPC   C4A42018  32.426  43.879   7.502
 3041POPC   C1B42019  32.100  44.265   6.227
 3041POPC   C2B42020  31.977  44.304   6.660
 3041POPC   C3B42021  32.194  44.262   7.045
 3041POPC   C4B42022  32.043  44.181   7.458
 3042POPC   NC342023  23.567  12.006   5.464
 3042POPC   PO442024  23.514  12.622   5.590
 3042POPC   GL142025  23.802  12.367   5.855
 3042POPC   GL242026  23.931  12.000   5.826
 3042POPC   C1A42027  23.627  12.143   6.207
 3042POPC   D2A42028  23.661  12.162   6.633
 3042POPC   C3A42029  23.986  12.328   6.904
 3042POPC   C4A42030  23.867  12.301   7.329
 3042POPC   C1B42031  23.904  11.705   6.210
 3042POPC   C2B42032  23.700  11.654   6.647
 3042POPC   C3B42033  23.680  11.895   7.073
 3042POPC   C4B42034  23.851  11.831   7.528
 3043POPC   NC342035  11.530  27.954   5.499
 3043POPC   PO442036  11.355  27.332   5.191
 3043POPC   GL142037  11.269  27.364   5.648
 3043POPC   GL242038  11.580  27.310   5.815
 3043POPC   C1A42039  11.168  27.442   6.107
 3043POPC   D2A42040  10.855  27.563   6.430
 3043POPC   C3A42041  10.903  27.906   6.720
 3043POPC   C4A42042  11.164  27.865   7.096
 3043POPC   C1B42043  11.684  27.439   6.250
 3043POPC   C2B42044  11.684  27.676   6.659
 3043POPC   C3B42045  11.576  27.526   7.075
 3043POPC   C4B42046  11.574  27.315   7.461
 3044POPC   NC342047   1.624  34.882   5.129
 3044POPC   PO442048   2.175  34.645   5.294
 3044POPC   GL142049   2.234  34.653   5.763
 3044POPC   GL242050   2.193  34.310   5.938
 3044POPC   C1A42051   2.005  34.737   6.174
 3044POPC   D2A42052   1.596  34.608   6.389
 3044POPC   C3A42053   1.612  34.537   6.835
 3044POPC   C4A42054   1.887  34.423   7.181
 3044POPC   C1B42055   2.121  34.287   6.382
 3044POPC   C2B42056   2.117  34.605   6.712
 3044POPC   C3B42057   2.314  34.723   7.100
 3044POPC   C4B42058   2.346  34.397   7.466
 3045POPC   NC342059  21.658  33.994   5.411
 3045POPC   PO442060  21.182  33.539   5.298
 3045POPC   GL142061  21.212  33.778   5.654
 3045POPC   GL242062  21.474  33.591   5.741
 3045POPC   C1A42063  21.132  33.702   6.124
 3045POPC   D2A42064  21.057  33.937   6.509
 3045POPC   C3A42065  21.138  33.740   6.887
 3045POPC   C4A42066  21.338  33.839   7.261
 3045POPC   C1B42067  21.645  33.646   6.127
 3045POPC   C2B42068  21.518  33.577   6.535
 3045POPC   C3B42069  21.678  33.775   6.883
 3045POPC   C4B42070  21.870  33.663   7.271
 3046POPC   NC342071  26.594  43.636   5.390
 3046POPC   PO442072  27.207  43.733   5.430
 3046POPC   GL142073  26.993  43.651   5.829
 3046POPC   GL242074  27.017  43.996   5.927
 3046POPC   C1A42075  26.812  43.651   6.285
 3046POPC   D2A42076  26.712  43.871   6.677
 3046POPC   C3A42077  26.884  43.827   7.077
 3046POPC   C4A42078  26.747  43.787   7.513
 3046POPC   C1B42079  26.764  44.183   6.267
 3046POPC   C2B42080  26.604  44.384   6.666
 3046POPC   C3B42081  26.732  44.336   7.103
 3046POPC   C4B42082  27.020  44.201   7.412
 3047POPC   NC342083  22.677  22.737   5.296
 3047POPC   PO442084  22.061  22.799   5.288
 3047POPC   GL142085  22.292  22.911   5.684
 3047POPC   GL242086  22.041  23.187   5.814
 3047POPC   C1A42087  22.396  23.011   6.126
 3047POPC   D2A42088  22.105  23.104   6.469
 3047POPC   C3A42089  22.357  23.010   6.846
 3047POPC   C4A42090  22.370  23.119   7.277
 3047POPC   C1B42091  21.902  22.797   6.032
 3047POPC   C2B42092  21.687  22.546   6.357
 3047POPC   C3B42093  21.727  22.564   6.822
 3047POPC   C4B42094  21.905  22.912   7.114
 3048POPC   NC342095  30.382  42.588   5.588
 3048POPC   PO442096  29.850  42.408   5.217
 3048POPC   GL142097  29.722  42.230   5.637
 3048POPC   GL242098  30.033  42.236   5.856
 3048POPC   C1A42099  29.548  42.264   6.081
 3048POPC   D2A42100  29.443  42.122   6.512
 3048POPC   C3A42101  29.701  42.315   6.846
 3048POPC   C4A42102  29.942  42.173   7.219
 3048POPC   C1B42103  30.084  42.302   6.337
 3048POPC   C2B42104  30.303  42.483   6.730
 3048POPC   C3B42105  30.329  42.758   7.061
 3048POPC   C4B42106  29.936  42.705   7.139
 3049POPC   NC342107  27.634   7.086   5.377
 3049POPC   PO442108  27.921   6.443   5.453
 3049POPC   GL142109  27.637   6.509   5.821
 3049POPC   GL242110  27.309   6.705   5.790
 3049POPC   C1A42111  27.399   6.373   6.189
 3049POPC   D2A42112  27.251   6.589   6.574
 3049POPC   C3A42113  27.433   6.401   6.934
 3049POPC   C4A42114  27.749   6.316   7.217
 3049POPC   C1B42115  27.555   6.862   6.189
 3049POPC   C2B42116  27.759   6.812   6.600
 3049POPC   C3B42117  27.656   6.882   7.035
 3049POPC   C4B42118  27.560   6.725   7.440
 3050POPC   NC342119  20.822  17.003   5.408
 3050POPC   PO442120  21.098  16.500   5.072
 3050POPC   GL142121  20.714  16.559   5.584
 3050POPC   GL242122  20.509  16.779   5.807
 3050POPC   C1A42123  20.799  16.557   6.117
 3050POPC   D2A42124  20.451  16.651   6.422
 3050POPC   C3A42125  20.569  16.538   6.832
 3050POPC   C4A42126  20.924  16.685   7.097
 3050POPC   C1B42127  20.220  17.002   6.103
 3050POPC   C2B42128  20.249  17.159   6.563
 3050POPC   C3B42129  20.428  17.033   7.001
 3050POPC   C4B42130  20.432  17.119   7.433
 3051POPC   NC342131  24.852  19.014   5.380
 3051POPC   PO442132  25.510  19.089   5.298
 3051POPC   GL142133  25.360  18.920   5.662
 3051POPC   GL242134  25.137  19.192   5.749
 3051POPC   C1A42135  25.433  19.003   6.102
 3051POPC   D2A42136  25.323  19.119   6.536
 3051POPC   C3A42137  25.555  18.954   6.871
 3051POPC   C4A42138  25.503  19.008   7.291
 3051POPC   C1B42139  24.979  18.811   6.016
 3051POPC   C2B42140  24.924  18.723   6.449
 3051POPC   C3B42141  24.920  18.936   6.828
 3051POPC   C4B42142  25.003  18.928   7.260
 3052POPC   NC342143  26.504  37.360   5.510
 3052POPC   PO442144  27.098  37.746   5.410
 3052POPC   GL142145  26.744  37.764   5.696
 3052POPC   GL242146  26.870  37.484   5.822
 3052POPC   C1A42147  26.583  37.742   6.138
 3052POPC   D2A42148  26.834  37.690   6.505
 3052POPC   C3A42149  26.820  37.708   6.934
 3052POPC   C4A42150  27.135  37.847   7.193
 3052POPC   C1B42151  26.886  37.291   6.198
 3052POPC   C2B42152  27.038  37.162   6.593
 3052POPC   C3B42153  26.899  37.202   7.005
 3052POPC   C4B42154  27.000  37.386   7.409
 3053POPC   NC342155   1.754  38.437   5.326
 3053POPC   PO442156   2.417  38.243   5.492
 3053POPC   GL142157   2.115  38.109   5.849
 3053POPC   GL242158   1.739  38.256   5.848
 3053POPC   C1A42159   2.141  38.279   6.285
 3053POPC   D2A42160   2.162  38.692   6.470
 3053POPC   C3A42161   2.020  38.746   6.879
 3053POPC   C4A42162   1.958  38.366   7.163
 3053POPC   C1B42163   1.645  38.469   6.278
 3053POPC   C2B42164   1.606  38.461   6.766
 3053POPC   C3B42165   1.565  38.736   7.167
 3053POPC   C4B42166   1.621  38.647   7.641
 3054POPC   NC342167  12.673  40.723   5.356
 3054POPC   PO442168  13.344  40.558   5.228
 3054POPC   GL142169  13.085  40.569   5.646
 3054POPC   GL242170  12.947  40.933   5.722
 3054POPC   C1A42171  13.062  40.621   6.123
 3054POPC   D2A42172  13.018  40.514   6.568
 3054POPC   C3A42173  13.269  40.749   6.889
 3054POPC   C4A42174  13.083  40.719   7.290
 3054POPC   C1B42175  12.798  41.049   6.136
 3054POPC   C2B42176  12.968  41.021   6.535
 3054POPC   C3B42177  12.798  40.952   6.927
 3054POPC   C4B42178  12.887  41.194   7.248
 3055POPC   NC342179   5.330  17.482   5.478
 3055POPC   PO442180   4.747  17.248   5.454
 3055POPC   GL142181   4.939  17.581   5.807
 3055POPC   GL242182   5.223  17.419   5.960
 3055POPC   C1A42183   5.052  17.799   6.264
 3055POPC   D2A42184   5.233  17.796   6.727
 3055POPC   C3A42185   5.037  17.653   7.138
 3055POPC   C4A42186   5.077  17.328   7.457
 3055POPC   C1B42187   4.919  17.307   6.271
 3055POPC   C2B42188   4.876  17.410   6.701
 3055POPC   C3B42189   4.720  17.223   7.091
 3055POPC   C4B42190   4.635  17.046   7.521
 3056POPC   NC342191   7.163  22.202   5.320
 3056POPC   PO442192   7.808  21.957   5.383
 3056POPC   GL142193   7.484  22.044   5.694
 3056POPC   GL242194   7.523  22.362   5.789
 3056POPC   C1A42195   7.234  22.044   6.110
 3056POPC   D2A42196   7.405  22.117   6.532
 3056POPC   C3A42197   7.309  21.917   6.892
 3056POPC   C4A42198   7.478  22.018   7.299
 3056POPC   C1B42199   7.398  22.520   6.204
 3056POPC   C2B42200   7.248  22.605   6.626
 3056POPC   C3B42201   7.404  22.463   7.033
 3056POPC   C4B42202   7.328  22.475   7.498
 3057POPC   NC342203  18.079   8.801   5.325
 3057POPC   PO442204  18.772   8.848   5.324
 3057POPC   GL142205  18.446   8.862   5.702
 3057POPC   GL242206  18.115   9.029   5.796
 3057POPC   C1A42207  18.474   8.795   6.165
 3057POPC   D2A42208  18.449   8.640   6.615
 3057POPC   C3A42209  18.584   8.970   6.936
 3057POPC   C4A42210  18.420   9.112   7.334
 3057POPC   C1B42211  17.817   9.191   6.134
 3057POPC   C2B42212  17.880   9.262   6.605
 3057POPC   C3B42213  17.999   9.177   7.041
 3057POPC   C4B42214  18.038   9.399   7.457
 3058POPC   NC342215   3.830  23.133   5.629
 3058POPC   PO442216   3.347  22.945   5.217
 3058POPC   GL142217   3.524  22.757   5.744
 3058POPC   GL242218   3.330  22.536   5.903
 3058POPC   C1A42219   3.647  22.907   6.231
 3058POPC   D2A42220   3.691  23.193   6.665
 3058POPC   C3A42221   3.763  23.078   7.108
 3058POPC   C4A42222   3.575  22.720   7.255
 3058POPC   C1B42223   3.146  22.785   6.206
 3058POPC   C2B42224   3.228  23.087   6.483
 3058POPC   C3B42225   3.271  22.946   6.896
 3058POPC   C4B42226   3.241  23.133   7.288
 3059POPC   NC342227  22.278   2.817   5.137
 3059POPC   PO442228  22.430   2.763   5.568
 3059POPC   GL142229  22.268   2.748   5.986
 3059POPC   GL242230  21.992   2.979   6.016
 3059POPC   C1A42231  22.262   2.616   6.418
 3059POPC   D2A42232  22.477   2.838   6.743
 3059POPC   C3A42233  22.227   2.855   7.108
 3059POPC   C4A42234  21.880   2.614   7.291
 3059POPC   C1B42235  22.235   3.136   6.375
 3059POPC   C2B42236  22.274   3.381   6.738
 3059POPC   C3B42237  22.284   3.369   7.176
 3059POPC   C4B42238  22.522   3.135   7.461
 3060POPC   NC342239  38.316  30.864   5.572
 3060POPC   PO442240  38.676  30.379   5.715
 3060POPC   GL142241  38.573  30.654   5.960
 3060POPC   GL242242  38.795  30.906   5.792
 3060POPC   C1A42243  38.508  30.631   6.394
 3060POPC   D2A42244  38.682  30.496   6.792
 3060POPC   C3A42245  38.352  30.477   7.096
 3060POPC   C4A42246  38.203  30.777   7.439
 3060POPC   C1B42247  38.706  31.074   6.214
 3060POPC   C2B42248  38.466  31.079   6.613
 3060POPC   C3B42249  38.624  30.953   6.996
 3060POPC   C4B42250  38.831  31.212   7.303
 3061POPC   NC342251  21.761  32.495   5.385
 3061POPC   PO442252  21.695  31.844   5.162
 3061POPC   GL142253  21.584  31.914   5.633
 3061POPC   GL242254  21.266  31.850   5.794
 3061POPC   C1A42255  21.562  32.180   6.033
 3061POPC   D2A42256  21.436  32.483   6.345
 3061POPC   C3A42257  21.468  32.427   6.809
 3061POPC   C4A42258  21.612  32.104   7.123
 3061POPC   C1B42259  21.094  31.948   6.183
 3061POPC   C2B42260  21.269  31.988   6.582
 3061POPC   C3B42261  21.075  32.119   6.963
 3061POPC   C4B42262  21.161  31.975   7.355
 3062POPC   NC342263  41.647  43.949   5.341
 3062POPC   PO442264  40.927  44.129   5.406
 3062POPC   GL142265  41.214  43.978   5.765
 3062POPC   GL242266  41.469  43.734   5.785
 3062POPC   C1A42267  41.245  43.743   6.230
 3062POPC   D2A42268  41.360  43.957   6.585
 3062POPC   C3A42269  41.398  43.702   6.932
 3062POPC   C4A42270  41.141  43.676   7.296
 3062POPC   C1B42271  41.561  44.115   6.097
 3062POPC   C2B42272  41.771  44.273   6.500
 3062POPC   C3B42273  41.724  44.128   6.938
 3062POPC   C4B42274  41.679  43.857   7.324
 3063POPC   NC342275   7.887   2.633   5.459
 3063POPC   PO442276   7.330   3.001   5.478
 3063POPC   GL142277   7.411   2.898   5.879
 3063POPC   GL242278   7.511   2.569   5.828
 3063POPC   C1A42279   7.249   2.807   6.288
 3063POPC   D2A42280   7.139   2.660   6.689
 3063POPC   C3A42281   7.372   2.861   7.019
 3063POPC   C4A42282   7.306   3.058   7.388
 3063POPC   C1B42283   7.690   2.556   6.239
 3063POPC   C2B42284   7.533   2.339   6.619
 3063POPC   C3B42285   7.358   2.349   7.042
 3063POPC   C4B42286   7.751   2.534   7.159
 3064POPC   NC342287  22.608   4.907   5.474
 3064POPC   PO442288  23.171   5.234   5.544
 3064POPC   GL142289  22.921   5.139   5.845
 3064POPC   GL242290  22.720   5.385   5.761
 3064POPC   C1A42291  22.967   5.038   6.279
 3064POPC   D2A42292  23.036   5.260   6.666
 3064POPC   C3A42293  22.828   5.126   7.054
 3064POPC   C4A42294  22.976   4.746   7.282
 3064POPC   C1B42295  22.886   5.522   6.177
 3064POPC   C2B42296  22.751   5.672   6.562
 3064POPC   C3B42297  22.940   5.639   6.985
 3064POPC   C4B42298  22.674   5.549   7.311
 3065POPC   NC342299  13.520   3.476   5.374
 3065POPC   PO442300  14.172   3.587   5.488
 3065POPC   GL142301  13.825   3.751   5.792
 3065POPC   GL242302  13.423   3.794   5.784
 3065POPC   C1A42303  13.653   3.696   6.238
 3065POPC   D2A42304  13.644   3.484   6.641
 3065POPC   C3A42305  13.518   3.699   7.012
 3065POPC   C4A42306  13.568   3.408   7.380
 3065POPC   C1B42307  13.150   3.837   6.181
 3065POPC   C2B42308  13.161   3.635   6.582
 3065POPC   C3B42309  13.104   3.392   6.961
 3065POPC   C4B42310  13.156   3.092   7.269
 3066POPC   NC342311  16.695  19.000   5.509
 3066POPC   PO442312  17.271  19.406   5.407
 3066POPC   GL142313  17.082  19.230   5.796
 3066POPC   GL242314  16.688  19.238   5.944
 3066POPC   C1A42315  17.068  19.100   6.221
 3066POPC   D2A42316  16.663  19.130   6.457
 3066POPC   C3A42317  16.646  19.393   6.801
 3066POPC   C4A42318  16.770  19.105   7.115
 3066POPC   C1B42319  16.373  18.908   6.084
 3066POPC   C2B42320  16.159  18.941   6.482
 3066POPC   C3B42321  16.275  19.075   6.878
 3066POPC   C4B42322  16.362  18.811   7.213
 3067POPC   NC342323  22.414  13.239   5.415
 3067POPC   PO442324  21.925  12.822   5.137
 3067POPC   GL142325  22.043  12.709   5.617
 3067POPC   GL242326  22.311  12.891   5.756
 3067POPC   C1A42327  22.043  12.738   6.132
 3067POPC   D2A42328  21.796  12.987   6.461
 3067POPC   C3A42329  21.822  12.858   6.888
 3067POPC   C4A42330  22.030  12.599   7.188
 3067POPC   C1B42331  22.258  13.220   6.116
 3067POPC   C2B42332  22.137  13.352   6.530
 3067POPC   C3B42333  22.170  13.203   6.974
 3067POPC   C4B42334  22.402  12.928   7.245
 3068POPC   NC342335  43.388  33.438   5.475
 3068POPC   PO442336  43.100  34.037   5.461
 3068POPC   GL142337  43.346  33.882   5.774
 3068POPC   GL242338  43.300  34.192   5.937
 3068POPC   C1A42339  43.295  33.621   6.111
 3068POPC   D2A42340  43.052  33.596   6.455
 3068POPC   C3A42341  43.264  33.740   6.801
 3068POPC   C4A42342  43.171  33.740   7.206
 3068POPC   C1B42343  42.975  34.050   6.203
 3068POPC   C2B42344  42.867  34.210   6.607
 3068POPC   C3B42345  42.884  34.124   7.042
 3068POPC   C4B42346  43.105  34.167   7.465
 3069POPC   NC342347  17.026   1.085   5.544
 3069POPC   PO442348  16.552   1.076   5.090
 3069POPC   GL142349  16.528   1.130   5.647
 3069POPC   GL242350  16.696   1.275   5.890
 3069POPC   C1A42351  16.377   0.947   6.100
 3069POPC   D2A42352  16.596   0.963   6.510
 3069POPC   C3A42353  16.402   0.919   6.927
 3069POPC   C4A42354  16.537   1.096   7.294
 3069POPC   C1B42355  16.893   1.428   6.239
 3069POPC   C2B42356  17.043   1.248   6.585
 3069POPC   C3B42357  16.861   1.203   6.928
 3069POPC   C4B42358  17.049   1.195   7.293
 3070POPC   NC342359  23.247  33.198   5.280
 3070POPC   PO442360  22.603  33.212   5.231
 3070POPC   GL142361  22.668  33.121   5.716
 3070POPC   GL242362  23.024  32.981   5.734
 3070POPC   C1A42363  22.746  32.922   6.166
 3070POPC   D2A42364  22.896  32.765   6.583
 3070POPC   C3A42365  22.796  32.955   6.981
 3070POPC   C4A42366  22.619  32.618   7.205
 3070POPC   C1B42367  23.301  32.913   6.111
 3070POPC   C2B42368  23.401  32.802   6.519
 3070POPC   C3B42369  23.290  32.960   6.881
 3070POPC   C4B42370  23.223  33.127   7.279
 3071POPC   NC342371  18.198   3.975   4.983
 3071POPC   PO442372  18.228   4.448   5.461
 3071POPC   GL142373  18.159   4.315   5.856
 3071POPC   GL242374  17.942   4.598   5.880
 3071POPC   C1A42375  18.291   4.457   6.242
 3071POPC   D2A42376  18.333   4.671   6.613
 3071POPC   C3A42377  18.381   4.423   7.015
 3071POPC   C4A42378  18.154   4.031   7.173
 3071POPC   C1B42379  17.845   4.716   6.282
 3071POPC   C2B42380  17.671   4.588   6.628
 3071POPC   C3B42381  17.933   4.654   6.954
 3071POPC   C4B42382  17.952   4.483   7.339
 3072POPC   NC342383  30.537  44.263   5.338
 3072POPC   PO442384  31.078  43.857   5.376
 3072POPC   GL142385  30.879  43.999   5.826
 3072POPC   GL242386  30.553  44.202   5.862
 3072POPC   C1A42387  30.660  43.872   6.269
 3072POPC   D2A42388  30.393  43.592   6.594
 3072POPC   C3A42389  30.465  43.681   7.036
 3072POPC   C4A42390  30.885  43.627   7.218
 3072POPC   C1B42391  30.490  44.380   6.293
 3072POPC   C2B42392  30.615  44.188   6.693
 3072POPC   C3B42393  30.706  44.136   7.132
 3072POPC   C4B42394  30.451  44.359   7.406
 3073POPC   NC342395  32.216   8.542   5.380
 3073POPC   PO442396  32.117   7.841   5.529
 3073POPC   GL142397  32.233   8.204   5.796
 3073POPC   GL242398  31.977   8.469   5.827
 3073POPC   C1A42399  32.560   8.368   6.103
 3073POPC   D2A42400  32.794   8.279   6.490
 3073POPC   C3A42401  32.551   8.017   6.785
 3073POPC   C4A42402  32.464   8.006   7.240
 3073POPC   C1B42403  32.082   8.454   6.240
 3073POPC   C2B42404  32.285   8.419   6.606
 3073POPC   C3B42405  32.145   8.337   7.004
 3073POPC   C4B42406  31.884   8.175   7.301
 3074POPC   NC342407  36.368  12.186   5.089
 3074POPC   PO442408  35.834  12.188   5.463
 3074POPC   GL142409  36.013  12.093   5.857
 3074POPC   GL242410  36.374  12.096   5.861
 3074POPC   C1A42411  36.084  12.289   6.249
 3074POPC   D2A42412  36.233  12.244   6.660
 3074POPC   C3A42413  35.925  12.217   6.959
 3074POPC   C4A42414  36.017  12.049   7.347
 3074POPC   C1B42415  36.620  11.871   6.208
 3074POPC   C2B42416  36.656  11.943   6.663
 3074POPC   C3B42417  36.523  11.951   7.106
 3074POPC   C4B42418  36.493  11.992   7.586
 3075POPC   NC342419  15.331  10.754   5.581
 3075POPC   PO442420  15.959  10.734   5.276
 3075POPC   GL142421  15.870  10.468   5.687
 3075POPC   GL242422  15.529  10.368   5.854
 3075POPC   C1A42423  15.951  10.437   6.171
 3075POPC   D2A42424  16.161  10.458   6.599
 3075POPC   C3A42425  15.992  10.539   7.015
 3075POPC   C4A42426  16.205  10.554   7.406
 3075POPC   C1B42427  15.446  10.361   6.280
 3075POPC   C2B42428  15.661  10.295   6.643
 3075POPC   C3B42429  15.508  10.318   7.043
 3075POPC   C4B42430  15.628  10.567   7.397
 3076POPC   NC342431  44.509  41.026   5.069
 3076POPC   PO442432   0.016  40.668   5.359
 3076POPC   GL142433  44.810  40.776   5.729
 3076POPC   GL242434  44.644  41.081   5.757
 3076POPC   C1A42435  44.928  40.725   6.171
 3076POPC   D2A42436  44.750  40.472   6.499
 3076POPC   C3A42437  44.840  40.584   6.924
 3076POPC   C4A42438  44.950  40.984   7.026
 3076POPC   C1B42439  44.549  41.081   6.185
 3076POPC   C2B42440  44.641  40.987   6.612
 3076POPC   C3B42441  44.429  41.027   7.020
 3076POPC   C4B42442  44.259  40.653   7.181
 3077POPC   NC342443  25.163  38.952   5.430
 3077POPC   PO442444  25.611  38.377   5.351
 3077POPC   GL142445  25.357  38.548   5.755
 3077POPC   GL242446  25.052  38.422   5.847
 3077POPC   C1A42447  25.366  38.312   6.207
 3077POPC   D2A42448  25.336  38.151   6.626
 3077POPC   C3A42449  25.219  38.355   6.983
 3077POPC   C4A42450  25.612  38.264   7.151
 3077POPC   C1B42451  25.052  38.804   6.145
 3077POPC   C2B42452  25.016  39.029   6.573
 3077POPC   C3B42453  24.991  38.835   6.994
 3077POPC   C4B42454  25.156  38.677   7.388
 3078POPC   NC342455  33.142   8.165   5.387
 3078POPC   PO442456  32.659   8.673   5.418
 3078POPC   GL142457  32.983   8.495   5.753
 3078POPC   GL242458  32.922   8.122   5.840
 3078POPC   C1A42459  33.205   8.426   6.170
 3078POPC   D2A42460  33.268   8.535   6.627
 3078POPC   C3A42461  33.049   8.291   6.954
 3078POPC   C4A42462  32.636   8.460   7.015
 3078POPC   C1B42463  32.863   7.838   6.204
 3078POPC   C2B42464  33.010   7.831   6.638
 3078POPC   C3B42465  32.866   7.748   7.073
 3078POPC   C4B42466  33.014   8.000   7.423
 3079POPC   NC342467   2.907  38.239   5.482
 3079POPC   PO442468   2.911  38.880   5.146
 3079POPC   GL142469   2.867  38.738   5.615
 3079POPC   GL242470   3.172  38.703   5.785
 3079POPC   C1A42471   2.721  38.514   6.046
 3079POPC   D2A42472   2.674  38.639   6.492
 3079POPC   C3A42473   2.436  38.422   6.836
 3079POPC   C4A42474   2.519  38.342   7.281
 3079POPC   C1B42475   3.139  38.751   6.230
 3079POPC   C2B42476   3.183  38.618   6.629
 3079POPC   C3B42477   2.916  38.611   6.958
 3079POPC   C4B42478   2.958  38.739   7.342
 3080POPC   NC342479  38.989  26.900   5.232
 3080POPC   PO442480  39.427  26.471   5.446
 3080POPC   GL142481  39.385  26.654   5.878
 3080POPC   GL242482  39.064  26.713   6.042
 3080POPC   C1A42483  39.501  26.604   6.331
 3080POPC   D2A42484  39.280  26.730   6.716
 3080POPC   C3A42485  39.288  26.593   7.149
 3080POPC   C4A42486  39.142  26.818   7.509
 3080POPC   C1B42487  39.270  27.065   6.307
 3080POPC   C2B42488  39.146  27.247   6.677
 3080POPC   C3B42489  39.245  27.113   7.075
 3080POPC   C4B42490  39.505  27.136   7.448
 3081POPC   NC342491  36.205  42.721   5.593
 3081POPC   PO442492  35.876  43.263   5.352
 3081POPC   GL142493  35.950  43.100   5.801
 3081POPC   GL242494  36.272  43.191   5.817
 3081POPC   C1A42495  36.118  42.964   6.251
 3081POPC   D2A42496  35.972  43.156   6.666
 3081POPC   C3A42497  36.025  43.136   7.119
 3081POPC   C4A42498  36.352  42.987   7.377
 3081POPC   C1B42499  36.437  43.423   6.158
 3081POPC   C2B42500  36.462  43.589   6.552
 3081POPC   C3B42501  36.379  43.442   6.928
 3081POPC   C4B42502  36.431  43.473   7.342
 3082POPC   NC342503   0.417  33.330   5.497
 3082POPC   PO442504   0.119  32.777   5.341
 3082POPC   GL142505   0.141  32.917   5.760
 3082POPC   GL242506   0.482  32.875   5.714
 3082POPC   C1A42507   0.273  32.882   6.199
 3082POPC   D2A42508   0.222  33.186   6.521
 3082POPC   C3A42509   0.267  33.009   6.926
 3082POPC   C4A42510   0.163  32.998   7.341
 3082POPC   C1B42511   0.730  33.100   6.023
 3082POPC   C2B42512   0.730  33.033   6.444
 3082POPC   C3B42513   0.796  32.914   6.846
 3082POPC   C4B42514   0.663  33.094   7.237
 3083POPC   NC342515  24.311  27.787   5.522
 3083POPC   PO442516  24.799  27.387   5.408
 3083POPC   GL142517  24.613  27.520   5.878
 3083POPC   GL242518  24.550  27.847   6.011
 3083POPC   C1A42519  24.628  27.520   6.391
 3083POPC   D2A42520  24.420  27.611   6.802
 3083POPC   C3A42521  24.374  27.443   7.253
 3083POPC   C4A42522  24.386  27.539   7.705
 3083POPC   C1B42523  24.325  28.193   6.181
 3083POPC   C2B42524  24.180  28.132   6.588
 3083POPC   C3B42525  24.527  28.102   6.836
 3083POPC   C4B42526  24.612  27.881   7.209
 3084POPC   NC342527   0.913   3.816   5.350
 3084POPC   PO442528   0.323   3.506   5.161
 3084POPC   GL142529   0.354   3.519   5.637
 3084POPC   GL242530   0.681   3.610   5.791
 3084POPC   C1A42531   0.247   3.447   6.081
 3084POPC   D2A42532   0.135   3.332   6.518
 3084POPC   C3A42533   0.477   3.413   6.824
 3084POPC   C4A42534   0.521   3.309   7.253
 3084POPC   C1B42535   0.797   3.753   6.236
 3084POPC   C2B42536   0.876   3.869   6.693
 3084POPC   C3B42537   0.774   3.764   7.155
 3084POPC   C4B42538   0.626   3.677   7.595
 3085POPC   NC342539  27.186   8.474   5.485
 3085POPC   PO442540  26.713   8.115   5.151
 3085POPC   GL142541  26.824   8.120   5.692
 3085POPC   GL242542  27.008   8.371   5.935
 3085POPC   C1A42543  26.733   7.976   6.145
 3085POPC   D2A42544  26.536   8.179   6.543
 3085POPC   C3A42545  26.629   7.993   6.953
 3085POPC   C4A42546  26.885   8.150   7.294
 3085POPC   C1B42547  27.217   8.146   6.265
 3085POPC   C2B42548  27.087   8.090   6.684
 3085POPC   C3B42549  26.927   8.460   6.891
 3085POPC   C4B42550  26.876   8.667   7.296
 3086POPC   NC342551  27.154  30.224   5.530
 3086POPC   PO442552  26.478  30.104   5.402
 3086POPC   GL142553  26.771  29.994   5.776
 3086POPC   GL242554  26.628  29.717   5.902
 3086POPC   C1A42555  27.049  30.216   6.144
 3086POPC   D2A42556  27.241  30.129   6.535
 3086POPC   C3A42557  27.049  29.897   6.857
 3086POPC   C4A42558  27.262  29.684   7.195
 3086POPC   C1B42559  26.768  29.833   6.308
 3086POPC   C2B42560  26.551  29.933   6.658
 3086POPC   C3B42561  26.588  29.780   7.048
 3086POPC   C4B42562  26.510  29.961   7.393
 3087POPC   NC342563  19.322   6.802   5.486
 3087POPC   PO442564  19.300   6.155   5.488
 3087POPC   GL142565  19.052   6.355   5.832
 3087POPC   GL242566  18.984   6.727   5.877
 3087POPC   C1A42567  19.175   6.444   6.254
 3087POPC   D2A42568  19.259   6.872   6.412
 3087POPC   C3A42569  19.206   6.837   6.837
 3087POPC   C4A42570  19.292   6.538   7.165
 3087POPC   C1B42571  18.763   6.990   6.174
 3087POPC   C2B42572  18.829   7.139   6.584
 3087POPC   C3B42573  18.695   7.022   6.989
 3087POPC   C4B42574  19.023   7.007   7.265
 3088POPC   NC342575   4.080   9.987   5.418
 3088POPC   PO442576   4.455   9.369   5.528
 3088POPC   GL142577   4.431   9.719   5.849
 3088POPC   GL242578   4.083   9.791   5.885
 3088POPC   C1A42579   4.593   9.759   6.304
 3088POPC   D2A42580   4.770   9.702   6.763
 3088POPC   C3A42581   4.473   9.780   7.109
 3088POPC   C4A42582   4.084   9.601   7.144
 3088POPC   C1B42583   4.101   9.902   6.297
 3088POPC   C2B42584   4.331  10.047   6.648
 3088POPC   C3B42585   4.097  10.139   6.985
 3088POPC   C4B42586   4.064  10.055   7.376
 3089POPC   NC342587  32.820  19.300   5.126
 3089POPC   PO442588  32.221  19.170   5.473
 3089POPC   GL142589  32.125  19.012   5.871
 3089POPC   GL242590  32.217  18.662   5.862
 3089POPC   C1A42591  32.119  18.917   6.304
 3089POPC   D2A42592  31.973  18.820   6.653
 3089POPC   C3A42593  32.233  18.980   6.921
 3089POPC   C4A42594  32.222  19.311   7.223
 3089POPC   C1B42595  32.555  18.694   6.214
 3089POPC   C2B42596  32.720  18.913   6.573
 3089POPC   C3B42597  32.744  18.777   6.995
 3089POPC   C4B42598  32.419  18.720   7.292
 3090POPC   NC342599  26.966  31.360   5.457
 3090POPC   PO442600  26.637  31.828   5.089
 3090POPC   GL142601  26.676  31.713   5.644
 3090POPC   GL242602  26.665  31.373   5.878
 3090POPC   C1A42603  26.974  31.692   6.087
 3090POPC   D2A42604  26.816  31.488   6.472
 3090POPC   C3A42605  26.901  31.605   6.918
 3090POPC   C4A42606  26.725  31.443   7.330
 3090POPC   C1B42607  27.050  31.182   6.114
 3090POPC   C2B42608  27.249  31.259   6.540
 3090POPC   C3B42609  27.149  31.167   6.993
 3090POPC   C4B42610  27.111  31.112   7.440
 3091POPC   NC342611  33.883  24.505   5.219
 3091POPC   PO442612  33.490  24.322   5.613
 3091POPC   GL142613  33.921  24.339   5.735
 3091POPC   GL242614  33.935  24.636   5.905
 3091POPC   C1A42615  34.150  24.233   6.157
 3091POPC   D2A42616  33.976  24.212   6.599
 3091POPC   C3A42617  33.983  24.348   7.029
 3091POPC   C4A42618  33.594  24.377   7.288
 3091POPC   C1B42619  33.944  24.684   6.370
 3091POPC   C2B42620  33.876  24.802   6.812
 3091POPC   C3B42621  33.897  24.792   7.289
 3091POPC   C4B42622  34.054  24.734   7.746
 3092POPC   NC342623  39.166  23.240   5.268
 3092POPC   PO442624  39.097  22.557   5.370
 3092POPC   GL142625  39.120  22.826   5.711
 3092POPC   GL242626  39.455  22.989   5.675
 3092POPC   C1A42627  38.938  22.726   6.124
 3092POPC   D2A42628  39.099  22.818   6.534
 3092POPC   C3A42629  38.956  22.756   6.929
 3092POPC   C4A42630  39.022  22.842   7.354
 3092POPC   C1B42631  39.347  23.054   6.117
 3092POPC   C2B42632  39.466  23.162   6.559
 3092POPC   C3B42633  39.456  22.966   6.984
 3092POPC   C4B42634  39.415  23.198   7.361
 3093POPC   NC342635  34.962   8.449   5.322
 3093POPC   PO442636  34.354   8.115   5.382
 3093POPC   GL142637  34.358   8.289   5.786
 3093POPC   GL242638  34.599   8.529   5.789
 3093POPC   C1A42639  34.192   8.282   6.176
 3093POPC   D2A42640  34.377   8.325   6.558
 3093POPC   C3A42641  34.145   8.231   6.905
 3093POPC   C4A42642  34.208   8.091   7.322
 3093POPC   C1B42643  34.781   8.456   6.231
 3093POPC   C2B42644  34.872   8.212   6.623
 3093POPC   C3B42645  34.674   8.151   7.040
 3093POPC   C4B42646  34.685   8.171   7.506
 3094POPC   NC342647   5.739   1.723   5.053
 3094POPC   PO442648   6.128   2.081   5.432
 3094POPC   GL142649   6.071   2.191   5.840
 3094POPC   GL242650   6.381   2.030   5.920
 3094POPC   C1A42651   5.801   2.250   6.200
 3094POPC   D2A42652   5.713   2.019   6.531
 3094POPC   C3A42653   5.981   1.996   6.879
 3094POPC   C4A42654   5.828   2.110   7.264
 3094POPC   C1B42655   6.279   1.758   6.259
 3094POPC   C2B42656   6.084   1.576   6.578
 3094POPC   C3B42657   6.194   1.512   6.986
 3094POPC   C4B42658   5.919   1.602   7.311
 3095POPC   NC342659  34.827  34.742   5.468
 3095POPC   PO442660  35.436  34.363   5.402
 3095POPC   GL142661  35.271  34.298   5.738
 3095POPC   GL242662  35.206  34.626   5.837
 3095POPC   C1A42663  35.306  34.193   6.149
 3095POPC   D2A42664  35.415  34.424   6.495
 3095POPC   C3A42665  35.421  34.288   6.901
 3095POPC   C4A42666  35.132  34.407   7.189
 3095POPC   C1B42667  35.585  34.817   6.030
 3095POPC   C2B42668  35.631  34.923   6.473
 3095POPC   C3B42669  35.405  34.803   6.833
 3095POPC   C4B42670  35.152  34.921   7.193
 3096POPC   NC342671  13.246  19.242   5.542
 3096POPC   PO442672  13.867  19.048   5.551
 3096POPC   GL142673  13.584  18.949   5.857
 3096POPC   GL242674  13.330  18.744   5.701
 3096POPC   C1A42675  13.626  19.163   6.273
 3096POPC   D2A42676  13.715  19.317   6.693
 3096POPC   C3A42677  13.604  19.080   7.046
 3096POPC   C4A42678  13.735  19.085   7.462
 3096POPC   C1B42679  13.237  18.681   6.133
 3096POPC   C2B42680  13.464  18.744   6.526
 3096POPC   C3B42681  13.287  18.734   6.903
 3096POPC   C4B42682  13.383  18.699   7.348
 3097POPC   NC342683  13.065   1.790   5.430
 3097POPC   PO442684  13.635   2.212   5.368
 3097POPC   GL142685  13.437   2.194   5.743
 3097POPC   GL242686  13.756   2.123   5.911
 3097POPC   C1A42687  13.283   2.055   6.156
 3097POPC   D2A42688  13.557   2.097   6.519
 3097POPC   C3A42689  13.433   2.008   6.931
 3097POPC   C4A42690  13.648   1.967   7.287
 3097POPC   C1B42691  13.599   2.472   6.163
 3097POPC   C2B42692  13.598   2.606   6.608
 3097POPC   C3B42693  13.684   2.461   7.052
 3097POPC   C4B42694  13.632   2.426   7.549
 3098POPC   NC342695  44.518  31.647   5.466
 3098POPC   PO442696   0.179  31.447   5.388
 3098POPC   GL142697  44.965  31.443   5.799
 3098POPC   GL242698  44.845  31.766   5.837
 3098POPC   C1A42699  44.906  31.476   6.277
 3098POPC   D2A42700  44.531  31.382   6.544
 3098POPC   C3A42701  44.480  31.435   6.993
 3098POPC   C4A42702  44.810  31.227   7.251
 3098POPC   C1B42703  44.526  31.796   6.182
 3098POPC   C2B42704  44.458  31.883   6.617
 3098POPC   C3B42705  44.180  31.930   6.951
 3098POPC   C4B42706  44.241  31.780   7.364
 3099POPC   NC342707  15.441   5.045   5.744
 3099POPC   PO442708  15.988   5.390   5.452
 3099POPC   GL142709  16.046   5.207   5.889
 3099POPC   GL242710  15.913   4.847   6.038
 3099POPC   C1A42711  15.981   5.236   6.326
 3099POPC   D2A42712  15.801   5.420   6.650
 3099POPC   C3A42713  16.002   5.275   7.024
 3099POPC   C4A42714  15.697   5.207   7.333
 3099POPC   C1B42715  16.357   4.873   6.173
 3099POPC   C2B42716  16.470   4.804   6.604
 3099POPC   C3B42717  16.252   4.778   6.994
 3099POPC   C4B42718  16.120   4.923   7.411
 3100POPC   NC342719  16.997  29.528   5.344
 3100POPC   PO442720  16.548  29.048   5.224
 3100POPC   GL142721  16.578  29.006   5.717
 3100POPC   GL242722  16.933  28.883   5.791
 3100POPC   C1A42723  16.690  29.107   6.160
 3100POPC   D2A42724  17.048  29.249   6.423
 3100POPC   C3A42725  16.998  29.195   6.877
 3100POPC   C4A42726  16.659  29.037   7.115
 3100POPC   C1B42727  16.967  28.696   6.229
 3100POPC   C2B42728  16.785  28.796   6.613
 3100POPC   C3B42729  16.938  28.630   6.977
 3100POPC   C4B42730  17.175  28.790   7.263
 3101POPC   NC342731  19.758   6.169   5.450
 3101POPC   PO442732  19.909   6.821   5.328
 3101POPC   GL142733  19.874   6.622   5.743
 3101POPC   GL242734  20.180   6.420   5.783
 3101POPC   C1A42735  19.680   6.590   6.187
 3101POPC   D2A42736  19.542   6.491   6.641
 3101POPC   C3A42737  19.713   6.811   6.942
 3101POPC   C4A42738  20.182   6.837   7.070
 3101POPC   C1B42739  20.199   6.696   6.158
 3101POPC   C2B42740  20.048   6.615   6.586
 3101POPC   C3B42741  19.958   6.383   6.976
 3101POPC   C4B42742  20.232   6.374   7.339
 3102POPC   NC342743  13.495   4.683   5.534
 3102POPC   PO442744  13.593   4.013   5.353
 3102POPC   GL142745  13.684   4.241   5.730
 3102POPC   GL242746  13.930   4.473   5.751
 3102POPC   C1A42747  13.641   4.226   6.177
 3102POPC   D2A42748  13.440   4.079   6.559
 3102POPC   C3A42749  13.670   4.213   6.917
 3102POPC   C4A42750  13.778   4.213   7.325
 3102POPC   C1B42751  14.131   4.457   6.184
 3102POPC   C2B42752  14.085   4.472   6.659
 3102POPC   C3B42753  13.906   4.673   7.068
 3102POPC   C4B42754  13.936   4.638   7.564
 3103POPC   NC342755  41.263   2.440   5.452
 3103POPC   PO442756  41.780   2.945   5.648
 3103POPC   GL142757  41.550   2.635   5.829
 3103POPC   GL242758  41.223   2.818   5.820
 3103POPC   C1A42759  41.489   2.608   6.245
 3103POPC   D2A42760  41.587   2.912   6.543
 3103POPC   C3A42761  41.593   2.788   6.968
 3103POPC   C4A42762  41.543   2.483   7.305
 3103POPC   C1B42763  41.145   2.970   6.254
 3103POPC   C2B42764  41.122   2.684   6.624
 3103POPC   C3B42765  41.118   2.615   7.064
 3103POPC   C4B42766  41.121   2.710   7.509
 3104POPC   NC342767   6.133  31.364   5.234
 3104POPC   PO442768   6.251  31.972   5.494
 3104POPC   GL142769   6.033  31.813   5.872
 3104POPC   GL242770   5.699  31.696   5.752
 3104POPC   C1A42771   5.884  31.562   6.262
 3104POPC   D2A42772   6.055  31.291   6.628
 3104POPC   C3A42773   5.909  31.397   7.080
 3104POPC   C4A42774   6.012  31.250   7.491
 3104POPC   C1B42775   5.489  31.339   6.007
 3104POPC   C2B42776   5.610  31.072   6.392
 3104POPC   C3B42777   5.632  31.022   6.853
 3104POPC   C4B42778   5.330  31.171   7.163
 3105POPC   NC342779  25.173  40.618   5.366
 3105POPC   PO442780  25.371  41.224   5.086
 3105POPC   GL142781  25.380  40.986   5.647
 3105POPC   GL242782  25.270  40.633   5.842
 3105POPC   C1A42783  25.298  41.032   6.149
 3105POPC   D2A42784  25.328  41.176   6.586
 3105POPC   C3A42785  25.151  40.942   6.911
 3105POPC   C4A42786  25.336  40.632   7.194
 3105POPC   C1B42787  25.463  40.547   6.230
 3105POPC   C2B42788  25.358  40.562   6.631
 3105POPC   C3B42789  24.997  40.459   6.860
 3105POPC   C4B42790  24.831  40.573   7.235
 3106POPC   NC342791  34.718  44.838   4.954
 3106POPC   PO442792  34.509  44.387   5.419
 3106POPC   GL142793  34.645  44.596   5.799
 3106POPC   GL242794  34.963  44.587   5.723
 3106POPC   C1A42795  34.455  44.558   6.230
 3106POPC   D2A42796  34.296  44.581   6.682
 3106POPC   C3A42797  34.494  44.532   7.091
 3106POPC   C4A42798  34.455  44.829   7.391
 3106POPC   C1B42799  34.925  44.326   6.126
 3106POPC   C2B42800  34.763  44.318   6.560
 3106POPC   C3B42801  34.868  44.704   6.793
 3106POPC   C4B42802  34.940  44.756   7.235
 3107POPC   NC342803  11.804   3.902   5.369
 3107POPC   PO442804  12.107   3.367   5.136
 3107POPC   GL142805  11.877   3.399   5.588
 3107POPC   GL242806  11.562   3.246   5.758
 3107POPC   C1A42807  11.952   3.507   6.060
 3107POPC   D2A42808  11.895   3.849   6.397
 3107POPC   C3A42809  11.875   3.799   6.866
 3107POPC   C4A42810  12.084   3.736   7.272
 3107POPC   C1B42811  11.634   3.126   6.203
 3107POPC   C2B42812  11.760   3.346   6.578
 3107POPC   C3B42813  11.887   3.293   7.017
 3107POPC   C4B42814  11.927   3.245   7.463
 3108POPC   NC342815  20.755  33.793   5.340
 3108POPC   PO442816  20.537  33.216   5.592
 3108POPC   GL142817  20.546  33.634   5.824
 3108POPC   GL242818  20.244  33.874   5.870
 3108POPC   C1A42819  20.645  33.898   6.204
 3108POPC   D2A42820  20.604  33.720   6.653
 3108POPC   C3A42821  20.518  33.994   6.988
 3108POPC   C4A42822  20.892  34.107   7.200
 3108POPC   C1B42823  20.221  33.644   6.302
 3108POPC   C2B42824  20.296  33.290   6.580
 3108POPC   C3B42825  20.500  33.311   6.990
 3108POPC   C4B42826  20.759  33.601   7.200
 3109POPC   NC342827  22.588   8.059   5.439
 3109POPC   PO442828  23.227   8.455   5.465
 3109POPC   GL142829  22.962   8.443   5.814
 3109POPC   GL242830  22.923   8.091   5.856
 3109POPC   C1A42831  22.933   8.378   6.274
 3109POPC   D2A42832  22.759   8.362   6.683
 3109POPC   C3A42833  23.086   8.404   6.973
 3109POPC   C4A42834  23.103   8.376   7.383
 3109POPC   C1B42835  22.625   7.973   6.207
 3109POPC   C2B42836  22.618   7.861   6.663
 3109POPC   C3B42837  22.757   8.015   7.091
 3109POPC   C4B42838  22.705   8.062   7.559
 3110POPC   NC342839  12.896  10.115   5.465
 3110POPC   PO442840  12.962   9.462   5.361
 3110POPC   GL142841  12.799   9.671   5.722
 3110POPC   GL242842  13.077   9.822   5.863
 3110POPC   C1A42843  12.714   9.618   6.175
 3110POPC   D2A42844  12.530   9.724   6.587
 3110POPC   C3A42845  12.577   9.539   7.017
 3110POPC   C4A42846  12.610   9.776   7.427
 3110POPC   C1B42847  12.990  10.039   6.279
 3110POPC   C2B42848  12.802  10.150   6.679
 3110POPC   C3B42849  12.890   9.937   7.025
 3110POPC   C4B42850  13.081   9.989   7.415
 3111POPC   NC342851  37.237  34.016   5.127
 3111POPC   PO442852  36.725  33.858   5.539
 3111POPC   GL142853  36.934  33.674   5.841
 3111POPC   GL242854  37.095  33.940   5.945
 3111POPC   C1A42855  36.776  33.688   6.274
 3111POPC   D2A42856  36.437  33.607   6.569
 3111POPC   C3A42857  36.652  33.681   6.984
 3111POPC   C4A42858  37.016  33.521   7.219
 3111POPC   C1B42859  37.259  33.893   6.317
 3111POPC   C2B42860  37.069  33.929   6.715
 3111POPC   C3B42861  37.273  33.959   7.110
 3111POPC   C4B42862  37.378  33.892   7.557
 3112POPC   NC342863  14.536  12.336   5.342
 3112POPC   PO442864  14.252  11.711   5.497
 3112POPC   GL142865  14.533  11.972   5.719
 3112POPC   GL242866  14.314  12.152   5.910
 3112POPC   C1A42867  14.747  12.097   6.152
 3112POPC   D2A42868  14.403  12.152   6.464
 3112POPC   C3A42869  14.417  12.344   6.861
 3112POPC   C4A42870  14.281  12.356   7.310
 3112POPC   C1B42871  14.381  11.742   6.135
 3112POPC   C2B42872  14.229  11.669   6.505
 3112POPC   C3B42873  14.351  11.806   6.885
 3112POPC   C4B42874  14.187  11.852   7.266
 3113POPC   NC342875  15.858  18.101   5.466
 3113POPC   PO442876  16.188  18.579   5.242
 3113POPC   GL142877  16.268  18.347   5.681
 3113POPC   GL242878  16.247  17.952   5.767
 3113POPC   C1A42879  16.082  18.309   6.119
 3113POPC   D2A42880  15.889  18.099   6.491
 3113POPC   C3A42881  15.967  18.249   6.904
 3113POPC   C4A42882  15.614  18.394   7.119
 3113POPC   C1B42883  16.173  17.769   6.210
 3113POPC   C2B42884  16.281  17.806   6.658
 3113POPC   C3B42885  16.098  17.741   7.050
 3113POPC   C4B42886  15.951  17.995   7.368
 3114POPC   NC342887  43.295  15.613   5.383
 3114POPC   PO442888  42.982  16.228   5.256
 3114POPC   GL142889  42.785  15.878   5.621
 3114POPC   GL242890  43.062  15.689   5.822
 3114POPC   C1A42891  42.636  15.607   6.040
 3114POPC   D2A42892  42.794  15.580   6.478
 3114POPC   C3A42893  42.793  15.728   6.908
 3114POPC   C4A42894  43.143  15.809   7.192
 3114POPC   C1B42895  42.924  16.030   6.119
 3114POPC   C2B42896  42.891  16.091   6.568
 3114POPC   C3B42897  43.072  16.250   6.949
 3114POPC   C4B42898  43.287  16.329   7.389
 3115POPC   NC342899  20.917   3.974   5.480
 3115POPC   PO442900  20.429   3.457   5.376
 3115POPC   GL142901  20.496   3.479   5.813
 3115POPC   GL242902  20.526   3.846   5.893
 3115POPC   C1A42903  20.630   3.489   6.264
 3115POPC   D2A42904  20.459   3.595   6.668
 3115POPC   C3A42905  20.614   3.432   7.056
 3115POPC   C4A42906  20.781   3.592   7.436
 3115POPC   C1B42907  20.504   4.013   6.333
 3115POPC   C2B42908  20.310   4.070   6.753
 3115POPC   C3B42909  20.525   3.930   7.141
 3115POPC   C4B42910  20.352   3.864   7.566
 3116POPC   NC342911  13.902  16.229   5.382
 3116POPC   PO442912  13.336  15.936   5.355
 3116POPC   GL142913  13.468  15.858   5.841
 3116POPC   GL242914  13.830  15.915   5.776
 3116POPC   C1A42915  13.524  15.936   6.358
 3116POPC   D2A42916  13.411  16.198   6.747
 3116POPC   C3A42917  13.487  16.036   7.176
 3116POPC   C4A42918  13.361  15.845   7.606
 3116POPC   C1B42919  13.967  15.786   6.169
 3116POPC   C2B42920  13.877  15.535   6.527
 3116POPC   C3B42921  13.825  15.755   6.902
 3116POPC   C4B42922  13.994  16.120   7.119
 3117POPC   NC342923  18.694  30.069   5.293
 3117POPC   PO442924  18.112  29.708   5.389
 3117POPC   GL142925  18.068  29.764   5.814
 3117POPC   GL242926  18.384  29.638   5.851
 3117POPC   C1A42927  17.999  29.851   6.263
 3117POPC   D2A42928  18.249  29.950   6.637
 3117POPC   C3A42929  18.204  29.802   7.064
 3117POPC   C4A42930  17.944  29.938   7.401
 3117POPC   C1B42931  18.716  29.848   6.083
 3117POPC   C2B42932  18.816  29.859   6.512
 3117POPC   C3B42933  18.685  30.019   6.893
 3117POPC   C4B42934  18.690  29.787   7.226
 3118POPC   NC342935   9.021  21.418   5.293
 3118POPC   PO442936   8.554  20.929   5.457
 3118POPC   GL142937   8.822  21.129   5.796
 3118POPC   GL242938   8.813  21.501   5.751
 3118POPC   C1A42939   9.221  21.240   6.065
 3118POPC   D2A42940   9.315  21.507   6.438
 3118POPC   C3A42941   9.143  21.446   6.858
 3118POPC   C4A42942   9.143  21.739   7.195
 3118POPC   C1B42943   8.825  21.532   6.189
 3118POPC   C2B42944   8.566  21.584   6.524
 3118POPC   C3B42945   8.638  21.590   6.958
 3118POPC   C4B42946   8.598  21.256   7.231
 3119POPC   NC342947  43.607   2.947   5.396
 3119POPC   PO442948  44.124   2.569   5.571
 3119POPC   GL142949  43.932   2.933   5.808
 3119POPC   GL242950  43.541   2.990   5.892
 3119POPC   C1A42951  43.890   2.767   6.200
 3119POPC   D2A42952  43.800   2.572   6.538
 3119POPC   C3A42953  43.929   2.708   6.893
 3119POPC   C4A42954  44.236   2.560   7.185
 3119POPC   C1B42955  43.461   2.986   6.322
 3119POPC   C2B42956  43.535   3.060   6.751
 3119POPC   C3B42957  43.575   2.965   7.141
 3119POPC   C4B42958  43.993   2.999   7.319
 3120POPC   NC342959   8.776   2.175   5.479
 3120POPC   PO442960   9.237   1.703   5.635
 3120POPC   GL142961   9.050   1.981   5.853
 3120POPC   GL242962   8.812   1.740   5.914
 3120POPC   C1A42963   9.045   2.328   6.123
 3120POPC   D2A42964   9.004   2.482   6.528
 3120POPC   C3A42965   9.060   2.281   6.924
 3120POPC   C4A42966   8.888   2.407   7.284
 3120POPC   C1B42967   8.929   1.880   6.342
 3120POPC   C2B42968   9.150   1.826   6.741
 3120POPC   C3B42969   9.131   1.756   7.207
 3120POPC   C4B42970   8.941   1.518   7.572
 3121POPC   NC342971  24.197  18.857   5.383
 3121POPC   PO442972  24.651  19.355   5.591
 3121POPC   GL142973  24.615  19.083   5.847
 3121POPC   GL242974  24.325  19.032   5.853
 3121POPC   C1A42975  24.654  19.131   6.274
 3121POPC   D2A42976  24.421  19.208   6.627
 3121POPC   C3A42977  24.430  18.929   6.948
 3121POPC   C4A42978  24.644  19.284   7.120
 3121POPC   C1B42979  24.124  19.118   6.230
 3121POPC   C2B42980  23.948  19.006   6.640
 3121POPC   C3B42981  23.992  19.157   7.034
 3121POPC   C4B42982  24.212  19.189   7.389
 3122POPC   NC342983  18.067  20.196   5.380
 3122POPC   PO442984  18.538  19.662   5.377
 3122POPC   GL142985  18.361  19.872   5.739
 3122POPC   GL242986  18.001  19.856   5.792
 3122POPC   C1A42987  18.432  19.700   6.149
 3122POPC   D2A42988  18.431  19.504   6.550
 3122POPC   C3A42989  18.515  19.685   6.924
 3122POPC   C4A42990  18.372  19.769   7.356
 3122POPC   C1B42991  17.925  19.722   6.235
 3122POPC   C2B42992  18.018  19.828   6.689
 3122POPC   C3B42993  17.912  19.801   7.132
 3122POPC   C4B42994  17.645  19.963   7.457
 3123POPC   NC342995   3.193   9.848   5.323
 3123POPC   PO442996   3.807   9.594   5.413
 3123POPC   GL142997   3.618   9.583   5.839
 3123POPC   GL242998   3.563   9.955   5.911
 3123POPC   C1A42999   3.662   9.643   6.310
 3123POPC   D2A43000   3.846   9.764   6.715
 3123POPC   C3A43001   3.630   9.834   7.107
 3123POPC   C4A43002   3.735   9.667   7.525
 3123POPC   C1B43003   3.285   9.987   6.314
 3123POPC   C2B43004   3.313   9.748   6.693
 3123POPC   C3B43005   3.246   9.475   7.053
 3123POPC   C4B43006   3.225   9.686   7.456
 3124POPC   NC343007   6.256  41.761   5.522
 3124POPC   PO443008   6.885  41.740   5.379
 3124POPC   GL143009   6.681  41.654   5.793
 3124POPC   GL243010   6.436  41.352   5.800
 3124POPC   C1A43011   6.462  41.839   6.184
 3124POPC   D2A43012   6.452  41.671   6.621
 3124POPC   C3A43013   6.549  41.867   7.019
 3124POPC   C4A43014   6.358  41.813   7.417
 3124POPC   C1B43015   6.654  41.368   6.225
 3124POPC   C2B43016   6.769  41.264   6.648
 3124POPC   C3B43017   6.601  41.364   7.076
 3124POPC   C4B43018   6.818  41.619   7.410
 3125POPC   NC343019   7.715  31.799   5.520
 3125POPC   PO443020   7.636  31.202   5.322
 3125POPC   GL143021   7.619  31.302   5.736
 3125POPC   GL243022   7.368  31.515   5.763
 3125POPC   C1A43023   7.727  31.476   6.137
 3125POPC   D2A43024   7.557  31.464   6.537
 3125POPC   C3A43025   7.760  31.559   6.910
 3125POPC   C4A43026   7.630  31.595   7.294
 3125POPC   C1B43027   7.208  31.622   6.156
 3125POPC   C2B43028   7.072  31.503   6.562
 3125POPC   C3B43029   7.220  31.581   6.970
 3125POPC   C4B43030   7.126  31.820   7.333
 3126POPC   NC343031  20.789  11.962   5.167
 3126POPC   PO443032  20.393  12.496   5.211
 3126POPC   GL143033  20.327  12.444   5.661
 3126POPC   GL243034  20.143  12.114   5.685
 3126POPC   C1A43035  20.598  12.335   6.048
 3126POPC   D2A43036  20.764  12.017   6.346
 3126POPC   C3A43037  20.799  11.949   6.801
 3126POPC   C4A43038  20.852  12.176   7.175
 3126POPC   C1B43039  20.361  11.835   6.010
 3126POPC   C2B43040  20.316  11.783   6.469
 3126POPC   C3B43041  20.291  11.955   6.848
 3126POPC   C4B43042  20.433  11.831   7.237
 3127POPC   NC343043   8.014  41.325   5.159
 3127POPC   PO443044   8.090  40.722   5.522
 3127POPC   GL143045   8.292  40.643   5.869
 3127POPC   GL243046   8.312  40.994   5.968
 3127POPC   C1A43047   8.205  40.611   6.276
 3127POPC   D2A43048   7.994  40.661   6.620
 3127POPC   C3A43049   8.256  40.646   6.937
 3127POPC   C4A43050   8.248  40.473   7.335
 3127POPC   C1B43051   8.079  41.123   6.346
 3127POPC   C2B43052   8.113  41.148   6.813
 3127POPC   C3B43053   8.134  41.026   7.269
 3127POPC   C4B43054   8.280  40.968   7.706
 3128POPC   NC343055   5.709  28.921   5.446
 3128POPC   PO443056   5.999  29.546   5.430
 3128POPC   GL143057   5.827  29.308   5.776
 3128POPC   GL243058   6.061  29.024   5.855
 3128POPC   C1A43059   5.801  29.260   6.228
 3128POPC   D2A43060   6.021  29.041   6.579
 3128POPC   C3A43061   6.023  29.303   6.954
 3128POPC   C4A43062   5.844  29.426   7.346
 3128POPC   C1B43063   5.870  28.754   6.178
 3128POPC   C2B43064   5.665  28.665   6.594
 3128POPC   C3B43065   5.851  28.808   7.035
 3128POPC   C4B43066   6.156  29.017   7.377
 3129POPC   NC343067  38.245  41.349   5.377
 3129POPC   PO443068  38.476  40.781   5.251
 3129POPC   GL143069  38.437  40.786   5.719
 3129POPC   GL243070  38.342  40.467   5.845
 3129POPC   C1A43071  38.322  40.859   6.172
 3129POPC   D2A43072  38.048  40.832   6.543
 3129POPC   C3A43073  38.209  41.075   6.884
 3129POPC   C4A43074  38.410  40.952   7.266
 3129POPC   C1B43075  38.651  40.420   6.160
 3129POPC   C2B43076  38.555  40.338   6.583
 3129POPC   C3B43077  38.347  40.553   6.902
 3129POPC   C4B43078  38.368  40.408   7.315
 3130POPC   NC343079  27.151  27.875   5.344
 3130POPC   PO443080  27.665  27.623   5.229
 3130POPC   GL143081  27.621  27.680   5.688
 3130POPC   GL243082  27.300  27.595   5.749
 3130POPC   C1A43083  27.738  27.587   6.184
 3130POPC   D2A43084  27.842  27.332   6.594
 3130POPC   C3A43085  27.760  27.497   7.035
 3130POPC   C4A43086  27.661  27.884   7.287
 3130POPC   C1B43087  27.225  27.566   6.192
 3130POPC   C2B43088  27.334  27.370   6.579
 3130POPC   C3B43089  27.214  27.450   6.993
 3130POPC   C4B43090  27.163  27.740   7.324
 3131POPC   NC343091  33.938  28.765   5.381
 3131POPC   PO443092  34.174  28.207   5.383
 3131POPC   GL143093  34.124  28.438   5.798
 3131POPC   GL243094  34.199  28.794   5.823
 3131POPC   C1A43095  34.060  28.477   6.287
 3131POPC   D2A43096  34.113  28.310   6.748
 3131POPC   C3A43097  33.857  28.299   7.161
 3131POPC   C4A43098  34.048  28.197   7.572
 3131POPC   C1B43099  34.128  29.000   6.230
 3131POPC   C2B43100  34.238  28.832   6.659
 3131POPC   C3B43101  34.076  28.744   7.076
 3131POPC   C4B43102  33.627  28.767   7.224
 3132POPC   NC343103  33.419   0.741   5.254
 3132POPC   PO443104  33.058   1.231   5.353
 3132POPC   GL143105  33.128   1.273   5.827
 3132POPC   GL243106  33.420   1.497   5.891
 3132POPC   C1A43107  33.044   1.112   6.263
 3132POPC   D2A43108  32.769   1.150   6.636
 3132POPC   C3A43109  32.965   1.102   7.045
 3132POPC   C4A43110  33.075   0.786   7.334
 3132POPC   C1B43111  33.443   1.461   6.309
 3132POPC   C2B43112  33.200   1.439   6.655
 3132POPC   C3B43113  33.403   1.331   6.989
 3132POPC   C4B43114  33.382   1.450   7.390
 3133POPC   NC343115  33.329   7.201   5.358
 3133POPC   PO443116  32.952   7.741   5.431
 3133POPC   GL143117  32.950   7.356   5.691
 3133POPC   GL243118  32.679   7.134   5.677
 3133POPC   C1A43119  32.912   7.217   6.144
 3133POPC   D2A43120  32.811   7.380   6.569
 3133POPC   C3A43121  33.137   7.341   6.920
 3133POPC   C4A43122  33.185   7.515   7.393
 3133POPC   C1B43123  32.481   6.924   6.003
 3133POPC   C2B43124  32.480   6.998   6.458
 3133POPC   C3B43125  32.606   7.038   6.898
 3133POPC   C4B43126  32.794   7.219   7.261
 3134POPC   NC343127  10.442  28.784   5.532
 3134POPC   PO443128  10.265  29.428   5.497
 3134POPC   GL143129  10.458  29.251   5.863
 3134POPC   GL243130  10.768  29.053   5.849
 3134POPC   C1A43131  10.607  29.190   6.303
 3134POPC   D2A43132  10.441  29.202   6.698
 3134POPC   C3A43133  10.621  29.101   7.081
 3134POPC   C4A43134  10.592  29.192   7.525
 3134POPC   C1B43135  10.954  28.819   6.218
 3134POPC   C2B43136  10.781  28.821   6.634
 3134POPC   C3B43137  11.035  28.755   6.966
 3134POPC   C4B43138  10.893  28.770   7.361
 3135POPC   NC343139  28.465   6.562   5.519
 3135POPC   PO443140  28.130   7.150   5.531
 3135POPC   GL143141  28.352   6.938   5.870
 3135POPC   GL243142  28.145   6.639   5.919
 3135POPC   C1A43143  28.560   6.742   6.266
 3135POPC   D2A43144  28.602   6.644   6.730
 3135POPC   C3A43145  28.603   6.775   7.195
 3135POPC   C4A43146  28.755   6.517   7.585
 3135POPC   C1B43147  27.916   6.419   6.254
 3135POPC   C2B43148  27.907   6.319   6.690
 3135POPC   C3B43149  28.123   6.589   6.970
 3135POPC   C4B43150  28.054   6.787   7.360
 3136POPC   NC343151   0.228   4.534   5.477
 3136POPC   PO443152   0.853   4.306   5.442
 3136POPC   GL143153   0.577   4.335   5.791
 3136POPC   GL243154   0.401   4.042   5.688
 3136POPC   C1A43155   0.413   4.483   6.189
 3136POPC   D2A43156   0.537   4.373   6.613
 3136POPC   C3A43157   0.352   4.547   7.021
 3136POPC   C4A43158   0.448   4.523   7.523
 3136POPC   C1B43159   0.344   3.980   6.114
 3136POPC   C2B43160   0.397   3.840   6.536
 3136POPC   C3B43161   0.406   4.024   6.942
 3136POPC   C4B43162   0.304   4.070   7.364
 3137POPC   NC343163   2.319   6.267   5.422
 3137POPC   PO443164   1.859   5.759   5.456
 3137POPC   GL143165   1.921   6.068   5.816
 3137POPC   GL243166   2.239   5.931   5.879
 3137POPC   C1A43167   2.000   6.101   6.300
 3137POPC   D2A43168   1.855   5.791   6.638
 3137POPC   C3A43169   1.943   5.955   7.053
 3137POPC   C4A43170   2.297   5.989   7.354
 3137POPC   C1B43171   2.009   5.610   6.168
 3137POPC   C2B43172   2.109   5.341   6.525
 3137POPC   C3B43173   2.174   5.490   6.923
 3137POPC   C4B43174   2.077   5.539   7.357
 3138POPC   NC343175  37.130  13.769   5.401
 3138POPC   PO443176  37.726  14.272   5.461
 3138POPC   GL143177  37.733  14.359   5.892
 3138POPC   GL243178  37.404  14.512   5.917
 3138POPC   C1A43179  37.859  14.276   6.324
 3138POPC   D2A43180  37.890  14.139   6.768
 3138POPC   C3A43181  37.770  14.368   7.129
 3138POPC   C4A43182  37.346  14.309   7.205
 3138POPC   C1B43183  37.530  14.688   6.293
 3138POPC   C2B43184  37.493  14.479   6.683
 3138POPC   C3B43185  37.251  14.707   6.939
 3138POPC   C4B43186  37.386  14.839   7.316
 3139POPC   NC343187  38.697  17.125   5.502
 3139POPC   PO443188  38.412  17.785   5.569
 3139POPC   GL143189  38.183  17.589   5.905
 3139POPC   GL243190  38.278  17.232   5.817
 3139POPC   C1A43191  38.298  17.708   6.348
 3139POPC   D2A43192  38.702  17.683   6.602
 3139POPC   C3A43193  38.680  17.683   7.057
 3139POPC   C4A43194  38.298  17.742   7.324
 3139POPC   C1B43195  38.507  17.216   6.208
 3139POPC   C2B43196  38.362  17.256   6.623
 3139POPC   C3B43197  38.337  17.312   7.044
 3139POPC   C4B43198  38.595  17.286   7.394
 3140POPC   NC343199  33.109  34.285   5.067
 3140POPC   PO443200  33.312  33.642   5.172
 3140POPC   GL143201  33.268  33.724   5.609
 3140POPC   GL243202  32.962  33.567   5.755
 3140POPC   C1A43203  33.282  33.866   6.063
 3140POPC   D2A43204  33.162  33.759   6.534
 3140POPC   C3A43205  33.154  33.910   6.976
 3140POPC   C4A43206  33.021  33.855   7.418
 3140POPC   C1B43207  33.024  33.426   6.162
 3140POPC   C2B43208  33.041  33.265   6.591
 3140POPC   C3B43209  33.059  33.407   7.071
 3140POPC   C4B43210  33.102  33.370   7.569
 3141POPC   NC343211  40.345   9.397   5.599
 3141POPC   PO443212  40.493   8.867   5.485
 3141POPC   GL143213  40.726   8.990   5.854
 3141POPC   GL243214  40.939   9.286   5.827
 3141POPC   C1A43215  40.731   9.143   6.289
 3141POPC   D2A43216  40.944   9.241   6.681
 3141POPC   C3A43217  40.715   9.062   7.039
 3141POPC   C4A43218  40.423   8.776   7.281
 3141POPC   C1B43219  41.221   9.293   6.220
 3141POPC   C2B43220  41.475   9.328   6.596
 3141POPC   C3B43221  41.351   9.126   7.002
 3141POPC   C4B43222  41.090   8.871   7.317
 3142POPC   NC343223  27.402  32.763   5.144
 3142POPC   PO443224  27.792  33.305   5.206
 3142POPC   GL143225  27.620  33.151   5.620
 3142POPC   GL243226  27.440  32.825   5.678
 3142POPC   C1A43227  27.775  33.118   6.056
 3142POPC   D2A43228  27.720  33.193   6.475
 3142POPC   C3A43229  27.921  33.093   6.840
 3142POPC   C4A43230  27.762  33.179   7.259
 3142POPC   C1B43231  27.504  32.699   6.142
 3142POPC   C2B43232  27.672  32.698   6.613
 3142POPC   C3B43233  27.644  32.713   7.115
 3142POPC   C4B43234  27.351  32.931   7.426
 3143POPC   NC343235  14.365  24.108   5.486
 3143POPC   PO443236  14.642  24.722   5.285
 3143POPC   GL143237  14.517  24.599   5.694
 3143POPC   GL243238  14.160  24.530   5.777
 3143POPC   C1A43239  14.629  24.400   6.084
 3143POPC   D2A43240  14.531  24.571   6.474
 3143POPC   C3A43241  14.716  24.390   6.820
 3143POPC   C4A43242  14.765  24.493   7.235
 3143POPC   C1B43243  14.122  24.319   6.208
 3143POPC   C2B43244  14.199  24.207   6.656
 3143POPC   C3B43245  14.250  24.374   7.090
 3143POPC   C4B43246  13.871  24.336   7.386
 3144POPC   NC343247  26.244  11.358   5.374
 3144POPC   PO443248  25.654  11.048   5.501
 3144POPC   GL143249  25.968  11.119   5.771
 3144POPC   GL243250  26.283  10.968   5.690
 3144POPC   C1A43251  25.983  11.332   6.128
 3144POPC   D2A43252  25.738  11.539   6.450
 3144POPC   C3A43253  25.960  11.509   6.867
 3144POPC   C4A43254  25.858  11.382   7.304
 3144POPC   C1B43255  26.415  11.032   6.110
 3144POPC   C2B43256  26.316  11.234   6.511
 3144POPC   C3B43257  26.348  11.079   6.912
 3144POPC   C4B43258  26.289  11.119   7.330
 3145POPC   NC343259  42.489  12.336   5.528
 3145POPC   PO443260  42.172  11.717   5.442
 3145POPC   GL143261  42.340  11.922   5.788
 3145POPC   GL243262  42.714  11.931   5.767
 3145POPC   C1A43263  42.133  12.177   6.125
 3145POPC   D2A43264  42.258  12.166   6.555
 3145POPC   C3A43265  42.201  12.402   6.943
 3145POPC   C4A43266  42.174  12.049   7.206
 3145POPC   C1B43267  42.641  12.128   6.168
 3145POPC   C2B43268  42.718  11.922   6.554
 3145POPC   C3B43269  42.623  12.057   6.949
 3145POPC   C4B43270  42.780  12.372   7.179
 3146POPC   NC343271   4.510   8.934   5.346
 3146POPC   PO443272   3.863   8.673   5.444
 3146POPC   GL143273   4.166   8.893   5.768
 3146POPC   GL243274   4.119   9.252   5.878
 3146POPC   C1A43275   4.090   8.860   6.225
 3146POPC   D2A43276   4.307   9.006   6.573
 3146POPC   C3A43277   4.110   8.931   6.934
 3146POPC   C4A43278   4.307   8.831   7.320
 3146POPC   C1B43279   4.194   9.406   6.256
 3146POPC   C2B43280   4.296   9.510   6.680
 3146POPC   C3B43281   4.469   9.267   7.039
 3146POPC   C4B43282   4.498   9.261   7.506
 3147POPC   NC343283  28.087  34.163   5.407
 3147POPC   PO443284  28.052  34.806   5.464
 3147POPC   GL143285  28.141  34.698   5.836
 3147POPC   GL243286  28.435  34.519   5.728
 3147POPC   C1A43287  28.008  34.726   6.234
 3147POPC   D2A43288  28.064  34.345   6.475
 3147POPC   C3A43289  28.006  34.501   6.858
 3147POPC   C4A43290  28.092  34.466   7.255
 3147POPC   C1B43291  28.474  34.525   6.189
 3147POPC   C2B43292  28.380  34.747   6.591
 3147POPC   C3B43293  28.502  34.614   7.006
 3147POPC   C4B43294  28.559  34.235   7.286
 3148POPC   NC343295  31.712   8.070   5.591
 3148POPC   PO443296  31.295   7.863   5.128
 3148POPC   GL143297  31.228   8.128   5.636
 3148POPC   GL243298  31.318   8.434   5.806
 3148POPC   C1A43299  31.421   8.052   6.139
 3148POPC   D2A43300  31.725   8.148   6.482
 3148POPC   C3A43301  31.571   8.110   6.893
 3148POPC   C4A43302  31.257   7.881   7.129
 3148POPC   C1B43303  31.589   8.539   6.190
 3148POPC   C2B43304  31.805   8.624   6.635
 3148POPC   C3B43305  31.717   8.594   7.074
 3148POPC   C4B43306  31.376   8.368   7.313
 3149POPC   NC343307  29.312   4.996   5.348
 3149POPC   PO443308  28.794   5.356   5.605
 3149POPC   GL143309  29.122   5.202   5.862
 3149POPC   GL243310  29.394   5.456   5.821
 3149POPC   C1A43311  29.073   5.045   6.297
 3149POPC   D2A43312  29.326   4.804   6.571
 3149POPC   C3A43313  29.185   4.845   6.970
 3149POPC   C4A43314  28.843   4.783   7.231
 3149POPC   C1B43315  29.279   5.514   6.277
 3149POPC   C2B43316  29.251   5.327   6.729
 3149POPC   C3B43317  29.222   5.308   7.175
 3149POPC   C4B43318  29.374   5.390   7.600
 3150POPC   NC343319  36.901  41.415   5.344
 3150POPC   PO443320  37.080  41.988   5.641
 3150POPC   GL143321  36.852  41.625   5.853
 3150POPC   GL243322  36.899  41.250   5.825
 3150POPC   C1A43323  36.769  41.530   6.297
 3150POPC   D2A43324  36.855  41.251   6.624
 3150POPC   C3A43325  36.825  41.520   6.961
 3150POPC   C4A43326  36.655  41.819   7.220
 3150POPC   C1B43327  37.185  41.239   6.175
 3150POPC   C2B43328  37.280  41.515   6.531
 3150POPC   C3B43329  37.345  41.441   6.959
 3150POPC   C4B43330  37.183  41.490   7.341
 3151POPC   NC343331   8.346  26.980   5.586
 3151POPC   PO443332   8.439  26.322   5.441
 3151POPC   GL143333   8.474  26.511   5.835
 3151POPC   GL243334   8.103  26.619   5.906
 3151POPC   C1A43335   8.459  26.654   6.255
 3151POPC   D2A43336   8.165  26.760   6.544
 3151POPC   C3A43337   8.253  26.766   6.962
 3151POPC   C4A43338   8.152  26.579   7.372
 3151POPC   C1B43339   8.057  27.056   6.146
 3151POPC   C2B43340   8.063  27.272   6.552
 3151POPC   C3B43341   8.305  27.287   6.901
 3151POPC   C4B43342   8.285  27.135   7.301
 3152POPC   NC343343  38.103  43.271   5.516
 3152POPC   PO443344  37.435  42.986   5.441
 3152POPC   GL143345  37.577  43.258   5.724
 3152POPC   GL243346  37.287  43.186   5.925
 3152POPC   C1A43347  37.743  43.237   6.113
 3152POPC   D2A43348  37.684  43.361   6.536
 3152POPC   C3A43349  37.630  43.036   6.842
 3152POPC   C4A43350  37.729  43.165   7.236
 3152POPC   C1B43351  37.275  43.124   6.348
 3152POPC   C2B43352  37.126  42.888   6.690
 3152POPC   C3B43353  37.203  42.900   7.127
 3152POPC   C4B43354  37.337  42.972   7.547
 3153POPC   NC343355  12.371  43.745   5.096
 3153POPC   PO443356  11.939  44.151   5.486
 3153POPC   GL143357  12.347  44.147   5.691
 3153POPC   GL243358  12.443  43.781   5.649
 3153POPC   C1A43359  12.343  44.276   6.139
 3153POPC   D2A43360  12.149  44.071   6.518
 3153POPC   C3A43361  12.281  44.108   6.972
 3153POPC   C4A43362  12.214  44.061   7.444
 3153POPC   C1B43363  12.090  43.754   5.993
 3153POPC   C2B43364  11.850  43.659   6.397
 3153POPC   C3B43365  11.988  43.670   6.822
 3153POPC   C4B43366  11.955  43.576   7.248
 3154POPC   NC343367   5.433  32.010   5.382
 3154POPC   PO443368   4.795  32.302   5.408
 3154POPC   GL143369   4.872  32.070   5.777
 3154POPC   GL243370   5.183  32.214   5.774
 3154POPC   C1A43371   4.951  32.115   6.222
 3154POPC   D2A43372   4.872  32.207   6.631
 3154POPC   C3A43373   4.924  31.996   6.972
 3154POPC   C4A43374   5.107  32.178   7.267
 3154POPC   C1B43375   5.383  32.365   6.121
 3154POPC   C2B43376   5.288  32.466   6.485
 3154POPC   C3B43377   5.354  32.287   6.839
 3154POPC   C4B43378   5.435  32.542   7.176
 3155POPC   NC343379   7.155  34.431   5.688
 3155POPC   PO443380   6.675  34.630   5.258
 3155POPC   GL143381   6.565  34.522   5.746
 3155POPC   GL243382   6.757  34.290   5.962
 3155POPC   C1A43383   6.444  34.631   6.211
 3155POPC   D2A43384   6.416  34.464   6.657
 3155POPC   C3A43385   6.523  34.746   6.973
 3155POPC   C4A43386   6.916  34.890   7.115
 3155POPC   C1B43387   6.811  34.022   6.335
 3155POPC   C2B43388   6.983  34.104   6.758
 3155POPC   C3B43389   6.879  34.358   7.128
 3155POPC   C4B43390   6.648  34.259   7.495
 3156POPC   NC343391  12.867  10.748   5.638
 3156POPC   PO443392  12.735  11.278   5.181
 3156POPC   GL143393  12.748  11.300   5.695
 3156POPC   GL243394  13.030  11.173   5.869
 3156POPC   C1A43395  12.733  11.431   6.188
 3156POPC   D2A43396  12.537  11.619   6.601
 3156POPC   C3A43397  12.628  11.441   6.973
 3156POPC   C4A43398  12.787  11.602   7.337
 3156POPC   C1B43399  12.892  10.947   6.277
 3156POPC   C2B43400  12.923  11.054   6.725
 3156POPC   C3B43401  13.115  11.263   7.092
 3156POPC   C4B43402  13.020  11.199   7.554
 3157POPC   NC343403  36.758  12.032   5.530
 3157POPC   PO443404  37.414  11.978   5.461
 3157POPC   GL143405  37.191  12.224   5.757
 3157POPC   GL243406  37.118  11.914   5.901
 3157POPC   C1A43407  36.929  12.292   6.167
 3157POPC   D2A43408  37.114  12.297   6.573
 3157POPC   C3A43409  36.861  12.304   6.950
 3157POPC   C4A43410  36.917  12.174   7.357
 3157POPC   C1B43411  37.314  11.882   6.302
 3157POPC   C2B43412  37.303  11.708   6.693
 3157POPC   C3B43413  36.999  11.725   7.008
 3157POPC   C4B43414  36.831  11.663   7.401
 3158POPC   NC343415  35.257  31.663   5.103
 3158POPC   PO443416  35.567  31.170   5.436
 3158POPC   GL143417  35.480  31.475   5.747
 3158POPC   GL243418  35.166  31.621   5.668
 3158POPC   C1A43419  35.560  31.603   6.180
 3158POPC   D2A43420  35.654  31.547   6.613
 3158POPC   C3A43421  35.299  31.389   6.901
 3158POPC   C4A43422  35.288  31.519   7.360
 3158POPC   C1B43423  35.074  31.393   6.107
 3158POPC   C2B43424  34.807  31.402   6.502
 3158POPC   C3B43425  34.815  31.566   6.943
 3158POPC   C4B43426  34.881  31.239   7.239
 3159POPC   NC343427  41.248  40.252   5.500
 3159POPC   PO443428  41.848  39.926   5.515
 3159POPC   GL143429  41.531  39.803   5.804
 3159POPC   GL243430  41.314  40.074   5.971
 3159POPC   C1A43431  41.720  39.757   6.216
 3159POPC   D2A43432  41.858  40.035   6.565
 3159POPC   C3A43433  41.674  39.816   6.923
 3159POPC   C4A43434  41.449  39.572   7.239
 3159POPC   C1B43435  41.180  40.486   6.176
 3159POPC   C2B43436  41.271  40.588   6.613
 3159POPC   C3B43437  41.376  40.313   6.941
 3159POPC   C4B43438  41.242  40.040   7.271
 3160POPC   NC343439  27.660  31.915   5.477
 3160POPC   PO443440  27.478  31.336   5.185
 3160POPC   GL143441  27.475  31.381   5.675
 3160POPC   GL243442  27.458  31.716   5.900
 3160POPC   C1A43443  27.581  31.278   6.129
 3160POPC   D2A43444  27.629  31.593   6.467
 3160POPC   C3A43445  27.504  31.513   6.907
 3160POPC   C4A43446  27.594  31.252   7.259
 3160POPC   C1B43447  27.865  31.869   6.091
 3160POPC   C2B43448  28.097  31.806   6.470
 3160POPC   C3B43449  27.881  31.832   6.857
 3160POPC   C4B43450  27.984  31.615   7.187
 3161POPC   NC343451  34.054  34.076   5.319
 3161POPC   PO443452  34.623  34.339   5.389
 3161POPC   GL143453  34.778  34.297   5.818
 3161POPC   GL243454  34.894  33.956   5.884
 3161POPC   C1A43455  34.869  34.429   6.270
 3161POPC   D2A43456  34.954  34.666   6.685
 3161POPC   C3A43457  34.698  34.681   7.080
 3161POPC   C4A43458  34.297  34.732   7.325
 3161POPC   C1B43459  34.876  33.916   6.349
 3161POPC   C2B43460  34.933  34.159   6.727
 3161POPC   C3B43461  34.703  34.167   7.126
 3161POPC   C4B43462  34.654  34.416   7.519
 3162POPC   NC343463  24.234  40.302   5.506
 3162POPC   PO443464  24.916  40.211   5.442
 3162POPC   GL143465  24.627  40.079   5.783
 3162POPC   GL243466  24.333  39.844   5.722
 3162POPC   C1A43467  24.778  39.990   6.216
 3162POPC   D2A43468  25.017  40.035   6.583
 3162POPC   C3A43469  24.766  40.018   6.972
 3162POPC   C4A43470  24.763  39.946   7.407
 3162POPC   C1B43471  24.363  39.709   6.182
 3162POPC   C2B43472  24.420  39.869   6.630
 3162POPC   C3B43473  24.260  39.919   7.074
 3162POPC   C4B43474  24.087  39.666   7.388
 3163POPC   NC343475  35.754  20.666   5.213
 3163POPC   PO443476  35.268  20.233   5.337
 3163POPC   GL143477  35.239  20.495   5.687
 3163POPC   GL243478  35.433  20.809   5.675
 3163POPC   C1A43479  35.067  20.631   6.073
 3163POPC   D2A43480  35.021  20.766   6.497
 3163POPC   C3A43481  35.214  20.616   6.889
 3163POPC   C4A43482  35.132  20.455   7.328
 3163POPC   C1B43483  35.630  20.696   6.068
 3163POPC   C2B43484  35.544  20.550   6.488
 3163POPC   C3B43485  35.702  20.766   6.862
 3163POPC   C4B43486  35.634  20.602   7.257
 3164POPC   NC343487  39.203  30.889   5.388
 3164POPC   PO443488  38.961  30.289   5.296
 3164POPC   GL143489  39.154  30.512   5.735
 3164POPC   GL243490  39.310  30.813   5.865
 3164POPC   C1A43491  39.000  30.648   6.224
 3164POPC   D2A43492  39.086  30.838   6.628
 3164POPC   C3A43493  39.061  30.724   7.100
 3164POPC   C4A43494  38.732  30.616   7.403
 3164POPC   C1B43495  39.504  30.869   6.248
 3164POPC   C2B43496  39.634  30.946   6.662
 3164POPC   C3B43497  39.570  30.811   7.088
 3164POPC   C4B43498  39.572  30.809   7.532
 3165POPC   NC343499  37.357   8.260   5.438
 3165POPC   PO443500  36.873   7.966   5.639
 3165POPC   GL143501  37.251   8.103   5.918
 3165POPC   GL243502  37.429   8.442   5.911
 3165POPC   C1A43503  37.474   8.149   6.315
 3165POPC   D2A43504  37.288   8.290   6.692
 3165POPC   C3A43505  37.494   8.291   7.109
 3165POPC   C4A43506  37.509   8.528   7.503
 3165POPC   C1B43507  37.562   8.677   6.317
 3165POPC   C2B43508  37.702   8.646   6.755
 3165POPC   C3B43509  37.939   8.575   7.148
 3165POPC   C4B43510  37.960   8.269   7.503
 3166POPC   NC343511   0.829  13.581   5.161
 3166POPC   PO443512   1.315  13.341   5.537
 3166POPC   GL143513   1.138  13.641   5.803
 3166POPC   GL243514   1.411  13.845   5.960
 3166POPC   C1A43515   0.910  13.583   6.187
 3166POPC   D2A43516   0.898  13.872   6.525
 3166POPC   C3A43517   0.788  13.663   6.879
 3166POPC   C4A43518   0.972  13.614   7.250
 3166POPC   C1B43519   1.408  13.558   6.262
 3166POPC   C2B43520   1.245  13.511   6.679
 3166POPC   C3B43521   1.455  13.530   7.069
 3166POPC   C4B43522   1.744  13.375   7.374
 3167POPC   NC343523  15.359  26.633   5.290
 3167POPC   PO443524  16.000  26.541   5.423
 3167POPC   GL143525  15.936  26.644   5.820
 3167POPC   GL243526  15.611  26.745   5.715
 3167POPC   C1A43527  16.032  26.931   6.160
 3167POPC   D2A43528  16.245  26.888   6.573
 3167POPC   C3A43529  16.018  27.002   6.922
 3167POPC   C4A43530  16.152  27.056   7.354
 3167POPC   C1B43531  15.504  26.698   6.129
 3167POPC   C2B43532  15.719  26.711   6.538
 3167POPC   C3B43533  15.660  26.580   6.962
 3167POPC   C4B43534  15.695  26.856   7.283
 3168POPC   NC343535  28.362  31.546   5.394
 3168POPC   PO443536  28.966  31.791   5.215
 3168POPC   GL143537  28.767  31.781   5.700
 3168POPC   GL243538  28.405  31.719   5.863
 3168POPC   C1A43539  28.780  31.586   6.161
 3168POPC   D2A43540  28.481  31.449   6.466
 3168POPC   C3A43541  28.530  31.367   6.917
 3168POPC   C4A43542  28.487  31.633   7.268
 3168POPC   C1B43543  28.108  31.421   6.088
 3168POPC   C2B43544  28.015  31.235   6.505
 3168POPC   C3B43545  28.007  31.178   6.943
 3168POPC   C4B43546  28.222  31.215   7.368
 3169POPC   NC343547  18.426   9.910   5.077
 3169POPC   PO443548  18.198   9.325   5.346
 3169POPC   GL143549  18.358   9.690   5.643
 3169POPC   GL243550  18.477   9.467   5.893
 3169POPC   C1A43551  18.334   9.898   6.109
 3169POPC   D2A43552  18.522  10.101   6.466
 3169POPC   C3A43553  18.419   9.947   6.880
 3169POPC   C4A43554  18.238  10.040   7.272
 3169POPC   C1B43555  18.276   9.388   6.284
 3169POPC   C2B43556  18.370   9.410   6.739
 3169POPC   C3B43557  18.647   9.522   7.076
 3169POPC   C4B43558  18.509   9.641   7.465
 3170POPC   NC343559  29.389   2.619   5.286
 3170POPC   PO443560  28.855   2.918   5.473
 3170POPC   GL143561  28.981   2.746   5.868
 3170POPC   GL243562  29.292   2.539   5.819
 3170POPC   C1A43563  29.220   2.800   6.283
 3170POPC   D2A43564  29.419   2.598   6.664
 3170POPC   C3A43565  29.387   2.860   7.037
 3170POPC   C4A43566  28.968   2.949   7.183
 3170POPC   C1B43567  28.972   2.331   6.134
 3170POPC   C2B43568  28.815   2.282   6.537
 3170POPC   C3B43569  28.951   2.507   6.911
 3170POPC   C4B43570  29.274   2.376   7.171
 3171POPC   NC343571   7.486  30.383   5.286
 3171POPC   PO443572   7.521  29.704   5.255
 3171POPC   GL143573   7.623  29.838   5.693
 3171POPC   GL243574   7.650  29.501   5.767
 3171POPC   C1A43575   7.478  30.010   6.151
 3171POPC   D2A43576   7.095  30.023   6.492
 3171POPC   C3A43577   7.186  30.128   6.951
 3171POPC   C4A43578   7.531  30.186   7.258
 3171POPC   C1B43579   7.760  29.542   6.184
 3171POPC   C2B43580   7.493  29.669   6.530
 3171POPC   C3B43581   7.587  29.815   6.914
 3171POPC   C4B43582   7.522  29.680   7.351
 3172POPC   NC343583   1.938  34.247   5.495
 3172POPC   PO443584   1.638  33.578   5.427
 3172POPC   GL143585   1.830  33.640   5.809
 3172POPC   GL243586   1.781  33.266   5.820
 3172POPC   C1A43587   2.047  33.804   6.194
 3172POPC   D2A43588   2.167  33.749   6.609
 3172POPC   C3A43589   2.098  34.077   6.859
 3172POPC   C4A43590   2.167  33.983   7.246
 3172POPC   C1B43591   1.734  33.401   6.241
 3172POPC   C2B43592   1.570  33.573   6.605
 3172POPC   C3B43593   1.803  33.650   6.969
 3172POPC   C4B43594   2.137  33.472   7.147
 3173POPC   NC343595  28.612   7.200   5.410
 3173POPC   PO443596  28.093   7.561   5.140
 3173POPC   GL143597  28.345   7.612   5.564
 3173POPC   GL243598  28.235   7.826   5.769
 3173POPC   C1A43599  28.495   7.423   6.017
 3173POPC   D2A43600  28.685   7.223   6.414
 3173POPC   C3A43601  28.485   7.146   6.834
 3173POPC   C4A43602  28.174   7.234   7.162
 3173POPC   C1B43603  28.526   7.927   6.083
 3173POPC   C2B43604  28.536   7.725   6.490
 3173POPC   C3B43605  28.417   7.667   6.911
 3173POPC   C4B43606  28.360   7.719   7.319
 3174POPC   NC343607  35.336  16.078   5.493
 3174POPC   PO443608  35.899  15.671   5.590
 3174POPC   GL143609  35.595  15.675   5.914
 3174POPC   GL243610  35.540  16.039   5.957
 3174POPC   C1A43611  35.570  15.741   6.371
 3174POPC   D2A43612  35.497  16.092   6.678
 3174POPC   C3A43613  35.354  16.036   7.117
 3174POPC   C4A43614  35.391  15.796   7.456
 3174POPC   C1B43615  35.096  16.139   6.094
 3174POPC   C2B43616  35.005  16.176   6.518
 3174POPC   C3B43617  35.121  16.413   6.853
 3174POPC   C4B43618  34.917  16.307   7.228
 3175POPC   NC343619   8.662   0.090   5.521
 3175POPC   PO443620   9.080  44.492   5.633
 3175POPC   GL143621   8.828  44.599   5.925
 3175POPC   GL243622   8.958  44.943   5.904
 3175POPC   C1A43623   8.940  44.694   6.353
 3175POPC   D2A43624   9.123   0.004   6.638
 3175POPC   C3A43625   8.909  44.928   7.008
 3175POPC   C4A43626   8.828  44.499   7.122
 3175POPC   C1B43627   9.280   0.152   6.141
 3175POPC   C2B43628   9.585  44.962   6.412
 3175POPC   C3B43629   9.646  44.944   6.843
 3175POPC   C4B43630   9.379  44.987   7.195
 3176POPC   NC343631   6.143   2.556   5.429
 3176POPC   PO443632   5.475   2.775   5.334
 3176POPC   GL143633   5.724   2.725   5.700
 3176POPC   GL243634   5.572   2.404   5.772
 3176POPC   C1A43635   6.023   2.685   6.069
 3176POPC   D2A43636   6.204   2.487   6.457
 3176POPC   C3A43637   6.122   2.762   6.816
 3176POPC   C4A43638   5.999   2.805   7.265
 3176POPC   C1B43639   5.501   2.680   6.149
 3176POPC   C2B43640   5.691   2.628   6.542
 3176POPC   C3B43641   5.707   2.486   6.957
 3176POPC   C4B43642   5.554   2.607   7.376
 3177POPC   NC343643   8.869  34.069   5.439
 3177POPC   PO443644   8.930  33.499   5.395
 3177POPC   GL143645   8.685  33.572   5.815
 3177POPC   GL243646   8.621  33.919   5.858
 3177POPC   C1A43647   8.833  33.638   6.292
 3177POPC   D2A43648   9.006  33.474   6.699
 3177POPC   C3A43649   8.893  33.656   7.105
 3177POPC   C4A43650   8.997  34.062   7.252
 3177POPC   C1B43651   8.434  33.930   6.267
 3177POPC   C2B43652   8.513  33.703   6.696
 3177POPC   C3B43653   8.497  33.959   7.091
 3177POPC   C4B43654   8.557  34.181   7.502
 3178POPC   NC343655  13.057  41.579   5.512
 3178POPC   PO443656  12.571  41.192   5.226
 3178POPC   GL143657  12.538  41.544   5.547
 3178POPC   GL243658  12.558  41.310   5.781
 3178POPC   C1A43659  12.663  41.717   6.022
 3178POPC   D2A43660  12.932  41.503   6.359
 3178POPC   C3A43661  13.064  41.455   6.819
 3178POPC   C4A43662  13.058  41.683   7.221
 3178POPC   C1B43663  12.387  41.340   6.252
 3178POPC   C2B43664  12.548  41.395   6.712
 3178POPC   C3B43665  12.557  41.562   7.160
 3178POPC   C4B43666  12.660  41.452   7.625
 3179POPC   NC343667   0.484  37.970   5.296
 3179POPC   PO443668   0.144  37.466   5.225
 3179POPC   GL143669   0.302  37.646   5.670
 3179POPC   GL243670   0.673  37.656   5.672
 3179POPC   C1A43671   0.331  37.723   6.159
 3179POPC   D2A43672   0.196  37.491   6.565
 3179POPC   C3A43673   0.176  37.717   6.986
 3179POPC   C4A43674   0.270  38.002   7.353
 3179POPC   C1B43675   0.847  37.531   6.054
 3179POPC   C2B43676   0.900  37.681   6.442
 3179POPC   C3B43677   0.667  37.732   6.799
 3179POPC   C4B43678   0.779  37.764   7.225
 3180POPC   NC343679  16.659  27.560   5.377
 3180POPC   PO443680  16.778  28.109   5.411
 3180POPC   GL143681  16.943  27.810   5.777
 3180POPC   GL243682  16.974  27.429   5.767
 3180POPC   C1A43683  16.878  27.665   6.227
 3180POPC   D2A43684  16.957  27.831   6.631
 3180POPC   C3A43685  16.659  27.666   6.946
 3180POPC   C4A43686  16.470  27.888   7.302
 3180POPC   C1B43687  16.568  27.319   6.024
 3180POPC   C2B43688  16.509  27.319   6.489
 3180POPC   C3B43689  16.505  27.177   6.957
 3180POPC   C4B43690  16.539  27.368   7.418
 3181POPC   NC343691  35.937  25.276   5.415
 3181POPC   PO443692  36.600  25.055   5.423
 3181POPC   GL143693  36.316  25.139   5.789
 3181POPC   GL243694  35.978  25.012   5.833
 3181POPC   C1A43695  36.196  25.361   6.193
 3181POPC   D2A43696  36.255  25.679   6.575
 3181POPC   C3A43697  35.981  25.637   6.946
 3181POPC   C4A43698  36.093  25.259   7.105
 3181POPC   C1B43699  36.119  24.757   6.138
 3181POPC   C2B43700  36.206  24.654   6.534
 3181POPC   C3B43701  36.355  24.913   6.838
 3181POPC   C4B43702  36.293  24.839   7.284
 3182POPC   NC343703  23.049  19.933   5.401
 3182POPC   PO443704  22.426  19.496   5.461
 3182POPC   GL143705  22.689  19.787   5.718
 3182POPC   GL243706  23.023  19.621   5.792
 3182POPC   C1A43707  22.775  19.953   6.129
 3182POPC   D2A43708  22.725  19.800   6.543
 3182POPC   C3A43709  22.665  20.070   6.875
 3182POPC   C4A43710  22.630  19.945   7.282
 3182POPC   C1B43711  23.278  19.714   6.145
 3182POPC   C2B43712  23.198  19.651   6.586
 3182POPC   C3B43713  23.052  19.761   6.970
 3182POPC   C4B43714  23.196  19.622   7.333
 3183POPC   NC343715  19.986  28.952   5.278
 3183POPC   PO443716  19.674  29.549   5.285
 3183POPC   GL143717  19.739  29.224   5.643
 3183POPC   GL243718  20.102  29.136   5.747
 3183POPC   C1A43719  19.738  29.181   6.131
 3183POPC   D2A43720  19.712  29.262   6.603
 3183POPC   C3A43721  19.775  28.970   6.957
 3183POPC   C4A43722  19.812  28.754   7.353
 3183POPC   C1B43723  20.241  29.306   6.169
 3183POPC   C2B43724  20.221  29.357   6.604
 3183POPC   C3B43725  20.050  29.394   6.993
 3183POPC   C4B43726  20.141  29.128   7.306
 3184POPC   NC343727  27.294  20.081   5.219
 3184POPC   PO443728  27.877  19.717   5.067
 3184POPC   GL143729  27.814  19.621   5.567
 3184POPC   GL243730  27.589  19.306   5.675
 3184POPC   C1A43731  27.771  19.769   6.029
 3184POPC   D2A43732  27.929  20.038   6.380
 3184POPC   C3A43733  27.774  19.887   6.782
 3184POPC   C4A43734  27.585  19.977   7.190
 3184POPC   C1B43735  27.398  19.424   6.068
 3184POPC   C2B43736  27.543  19.523   6.467
 3184POPC   C3B43737  27.416  19.551   6.882
 3184POPC   C4B43738  27.518  19.409   7.272
 3185POPC   NC343739  10.288  19.952   5.321
 3185POPC   PO443740  10.915  20.101   5.354
 3185POPC   GL143741  10.668  19.907   5.761
 3185POPC   GL243742  10.785  19.578   5.895
 3185POPC   C1A43743  10.436  19.912   6.185
 3185POPC   D2A43744  10.228  20.102   6.578
 3185POPC   C3A43745  10.304  19.894   6.993
 3185POPC   C4A43746  10.641  20.033   7.260
 3185POPC   C1B43747  10.906  19.793   6.287
 3185POPC   C2B43748  10.687  19.788   6.679
 3185POPC   C3B43749  10.738  19.581   7.068
 3185POPC   C4B43750  10.964  19.660   7.437
 3186POPC   NC343751  31.371  11.970   5.111
 3186POPC   PO443752  31.353  11.455   5.368
 3186POPC   GL143753  31.315  11.358   5.818
 3186POPC   GL243754  31.583  11.562   5.964
 3186POPC   C1A43755  31.251  11.323   6.296
 3186POPC   D2A43756  31.257  11.469   6.742
 3186POPC   C3A43757  31.444  11.209   7.064
 3186POPC   C4A43758  31.463  10.877   7.402
 3186POPC   C1B43759  31.586  11.703   6.415
 3186POPC   C2B43760  31.726  11.621   6.860
 3186POPC   C3B43761  31.560  11.684   7.290
 3186POPC   C4B43762  31.657  11.629   7.749
 3187POPC   NC343763  29.401  22.276   5.435
 3187POPC   PO443764  28.840  21.923   5.406
 3187POPC   GL143765  29.048  22.074   5.748
 3187POPC   GL243766  29.003  22.426   5.708
 3187POPC   C1A43767  29.215  22.071   6.151
 3187POPC   D2A43768  29.243  21.821   6.513
 3187POPC   C3A43769  29.089  22.033   6.877
 3187POPC   C4A43770  29.042  21.857   7.307
 3187POPC   C1B43771  29.100  22.588   6.108
 3187POPC   C2B43772  29.094  22.423   6.511
 3187POPC   C3B43773  29.135  22.584   6.894
 3187POPC   C4B43774  29.096  22.411   7.280
 3188POPC   NC343775  27.445  34.927   5.341
 3188POPC   PO443776  27.387  34.219   5.237
 3188POPC   GL143777  27.657  34.329   5.646
 3188POPC   GL243778  27.615  34.687   5.771
 3188POPC   C1A43779  27.703  34.335   6.117
 3188POPC   D2A43780  27.597  34.530   6.536
 3188POPC   C3A43781  27.507  34.358   6.918
 3188POPC   C4A43782  27.623  34.270   7.347
 3188POPC   C1B43783  27.522  34.879   6.186
 3188POPC   C2B43784  27.234  34.885   6.566
 3188POPC   C3B43785  27.302  34.816   6.973
 3188POPC   C4B43786  27.677  34.770   7.169
 3189POPC   NC343787  10.761  40.203   5.515
 3189POPC   PO443788  10.286  39.776   5.657
 3189POPC   GL143789  10.421  40.084   5.892
 3189POPC   GL243790  10.137  40.308   5.828
 3189POPC   C1A43791  10.690  39.988   6.238
 3189POPC   D2A43792  10.647  39.721   6.600
 3189POPC   C3A43793  10.646  40.021   6.938
 3189POPC   C4A43794  10.668  39.865   7.330
 3189POPC   C1B43795  10.020  40.129   6.254
 3189POPC   C2B43796  10.182  39.977   6.668
 3189POPC   C3B43797  10.203  39.810   7.107
 3189POPC   C4B43798  10.233  39.963   7.581
 3190POPC   NC343799  13.886  11.398   5.517
 3190POPC   PO443800  13.292  10.971   5.438
 3190POPC   GL143801  13.526  11.108   5.789
 3190POPC   GL243802  13.503  11.423   5.924
 3190POPC   C1A43803  13.380  11.083   6.256
 3190POPC   D2A43804  13.437  11.282   6.634
 3190POPC   C3A43805  13.605  11.067   6.978
 3190POPC   C4A43806  13.504  11.137   7.428
 3190POPC   C1B43807  13.557  11.676   6.306
 3190POPC   C2B43808  13.770  11.677   6.687
 3190POPC   C3B43809  13.594  11.564   7.041
 3190POPC   C4B43810  13.782  11.589   7.443
 3191POPC   NC343811  16.344  37.762   5.400
 3191POPC   PO443812  16.941  38.002   5.518
 3191POPC   GL143813  16.780  37.753   5.886
 3191POPC   GL243814  16.413  37.735   5.915
 3191POPC   C1A43815  16.688  37.876   6.348
 3191POPC   D2A43816  16.586  37.861   6.805
 3191POPC   C3A43817  16.926  38.034   7.081
 3191POPC   C4A43818  17.280  37.919   7.346
 3191POPC   C1B43819  16.452  37.399   6.242
 3191POPC   C2B43820  16.255  37.244   6.627
 3191POPC   C3B43821  16.356  37.308   7.076
 3191POPC   C4B43822  16.663  37.605   7.247
 3192POPC   NC343823  25.843  12.593   5.430
 3192POPC   PO443824  26.347  12.946   5.441
 3192POPC   GL143825  26.063  12.966   5.779
 3192POPC   GL243826  25.978  12.661   5.927
 3192POPC   C1A43827  26.273  13.102   6.129
 3192POPC   D2A43828  26.209  13.232   6.530
 3192POPC   C3A43829  26.105  12.964   6.856
 3192POPC   C4A43830  26.180  12.973   7.287
 3192POPC   C1B43831  26.048  12.729   6.376
 3192POPC   C2B43832  26.093  12.452   6.739
 3192POPC   C3B43833  25.914  12.572   7.144
 3192POPC   C4B43834  25.515  12.592   7.334
 3193POPC   NC343835  18.613  10.848   4.948
 3193POPC   PO443836  18.460  10.290   5.367
 3193POPC   GL143837  18.433  10.289   5.789
 3193POPC   GL243838  18.701  10.495   5.832
 3193POPC   C1A43839  18.213  10.419   6.181
 3193POPC   D2A43840  18.041  10.286   6.579
 3193POPC   C3A43841  18.209  10.434   6.939
 3193POPC   C4A43842  18.110  10.662   7.290
 3193POPC   C1B43843  18.612  10.729   6.204
 3193POPC   C2B43844  18.615  10.575   6.634
 3193POPC   C3B43845  18.612  10.721   7.045
 3193POPC   C4B43846  18.519  10.962   7.375
 3194POPC   NC343847  21.660  11.768   5.443
 3194POPC   PO443848  21.155  12.217   5.289
 3194POPC   GL143849  21.435  12.193   5.721
 3194POPC   GL243850  21.705  12.431   5.857
 3194POPC   C1A43851  21.523  12.080   6.176
 3194POPC   D2A43852  21.253  11.981   6.524
 3194POPC   C3A43853  21.303  12.068   6.948
 3194POPC   C4A43854  21.239  11.886   7.342
 3194POPC   C1B43855  21.576  12.590   6.245
 3194POPC   C2B43856  21.494  12.473   6.648
 3194POPC   C3B43857  21.562  12.462   7.075
 3194POPC   C4B43858  21.699  12.145   7.351
 3195POPC   NC343859  38.299   8.587   5.517
 3195POPC   PO443860  38.249   9.200   5.526
 3195POPC   GL143861  38.449   9.093   5.887
 3195POPC   GL243862  38.231   8.836   5.984
 3195POPC   C1A43863  38.448   9.124   6.342
 3195POPC   D2A43864  38.140   8.904   6.603
 3195POPC   C3A43865  38.299   8.948   6.999
 3195POPC   C4A43866  38.597   9.252   7.117
 3195POPC   C1B43867  37.967   9.177   6.186
 3195POPC   C2B43868  37.695   9.168   6.568
 3195POPC   C3B43869  37.813   9.085   7.011
 3195POPC   C4B43870  37.836   8.946   7.484
 3196POPC   NC343871  25.960  32.753   5.534
 3196POPC   PO443872  26.168  33.366   5.456
 3196POPC   GL143873  26.101  33.137   5.851
 3196POPC   GL243874  26.356  32.858   5.840
 3196POPC   C1A43875  25.774  32.934   6.151
 3196POPC   D2A43876  25.687  32.830   6.590
 3196POPC   C3A43877  25.859  33.077   6.949
 3196POPC   C4A43878  25.995  33.066   7.391
 3196POPC   C1B43879  26.294  32.906   6.288
 3196POPC   C2B43880  26.185  32.772   6.703
 3196POPC   C3B43881  26.291  32.751   7.146
 3196POPC   C4B43882  26.304  32.675   7.597
 3197POPC   NC343883  19.888   1.410   5.375
 3197POPC   PO443884  19.433   1.012   5.539
 3197POPC   GL143885  19.584   1.374   5.795
 3197POPC   GL243886  19.964   1.323   5.895
 3197POPC   C1A43887  19.521   1.368   6.227
 3197POPC   D2A43888  19.710   1.127   6.552
 3197POPC   C3A43889  19.549   1.202   6.952
 3197POPC   C4A43890  19.650   1.097   7.395
 3197POPC   C1B43891  20.140   1.397   6.336
 3197POPC   C2B43892  20.144   1.327   6.795
 3197POPC   C3B43893  20.099   1.071   7.162
 3197POPC   C4B43894  20.083   1.242   7.598
 3198POPC   NC343895   6.257   4.924   5.340
 3198POPC   PO443896   5.635   5.256   5.255
 3198POPC   GL143897   5.760   5.032   5.618
 3198POPC   GL243898   6.051   5.200   5.730
 3198POPC   C1A43899   5.709   5.026   6.066
 3198POPC   D2A43900   5.899   5.178   6.463
 3198POPC   C3A43901   5.793   4.961   6.836
 3198POPC   C4A43902   5.789   5.100   7.242
 3198POPC   C1B43903   6.074   5.517   6.065
 3198POPC   C2B43904   6.012   5.678   6.486
 3198POPC   C3B43905   5.850   5.544   6.881
 3198POPC   C4B43906   6.012   5.560   7.313
 3199POPC   NC343907  28.827  32.914   5.395
 3199POPC   PO443908  29.243  33.422   5.388
 3199POPC   GL143909  29.163  33.152   5.807
 3199POPC   GL243910  28.801  33.063   5.887
 3199POPC   C1A43911  29.127  33.025   6.290
 3199POPC   D2A43912  29.143  32.719   6.690
 3199POPC   C3A43913  29.237  32.953   7.067
 3199POPC   C4A43914  29.136  33.367   7.079
 3199POPC   C1B43915  28.613  33.063   6.315
 3199POPC   C2B43916  28.812  33.113   6.703
 3199POPC   C3B43917  28.733  32.902   7.085
 3199POPC   C4B43918  28.810  33.141   7.416
 3200POPC   NC343919  38.069  28.490   5.522
 3200POPC   PO443920  37.470  28.222   5.288
 3200POPC   GL143921  37.469  28.141   5.748
 3200POPC   GL243922  37.174  28.258   5.903
 3200POPC   C1A43923  37.618  28.303   6.165
 3200POPC   D2A43924  37.599  28.619   6.488
 3200POPC   C3A43925  37.625  28.387   6.859
 3200POPC   C4A43926  37.855  28.484   7.234
 3200POPC   C1B43927  37.251  27.938   6.204
 3200POPC   C2B43928  37.455  27.966   6.574
 3200POPC   C3B43929  37.324  27.970   6.987
 3200POPC   C4B43930  37.425  28.204   7.319
 3201POPC   NC343931  35.681  43.692   5.382
 3201POPC   PO443932  35.042  43.629   5.583
 3201POPC   GL143933  35.150  43.926   5.898
 3201POPC   GL243934  35.519  43.938   5.808
 3201POPC   C1A43935  35.148  43.943   6.373
 3201POPC   D2A43936  35.534  43.934   6.599
 3201POPC   C3A43937  35.533  44.087   6.996
 3201POPC   C4A43938  35.314  43.828   7.265
 3201POPC   C1B43939  35.514  43.663   6.141
 3201POPC   C2B43940  35.525  43.416   6.504
 3201POPC   C3B43941  35.449  43.492   6.910
 3201POPC   C4B43942  35.596  43.344   7.316
 3202POPC   NC343943  40.062  16.266   5.576
 3202POPC   PO443944  39.794  16.942   5.497
 3202POPC   GL143945  39.847  16.808   5.898
 3202POPC   GL243946  39.714  16.434   5.908
 3202POPC   C1A43947  40.119  16.975   6.242
 3202POPC   D2A43948  40.312  17.006   6.675
 3202POPC   C3A43949  40.038  17.066   6.999
 3202POPC   C4A43950  39.787  16.896   7.299
 3202POPC   C1B43951  39.976  16.428   6.246
 3202POPC   C2B43952  40.002  16.625   6.608
 3202POPC   C3B43953  40.173  16.541   6.982
 3202POPC   C4B43954  39.930  16.386   7.306
 3203POPC   NC343955  28.988  41.027   5.384
 3203POPC   PO443956  29.553  40.879   5.556
 3203POPC   GL143957  29.231  40.857   5.834
 3203POPC   GL243958  28.867  40.925   5.871
 3203POPC   C1A43959  29.229  40.991   6.228
 3203POPC   D2A43960  29.002  40.911   6.563
 3203POPC   C3A43961  29.187  40.968   6.964
 3203POPC   C4A43962  29.344  40.834   7.366
 3203POPC   C1B43963  28.917  40.568   6.190
 3203POPC   C2B43964  28.796  40.458   6.661
 3203POPC   C3B43965  28.985  40.493   7.087
 3203POPC   C4B43966  29.160  40.379   7.509
 3204POPC   NC343967  20.126  35.127   5.325
 3204POPC   PO443968  19.686  34.549   5.433
 3204POPC   GL143969  19.833  34.764   5.786
 3204POPC   GL243970  19.508  34.925   5.902
 3204POPC   C1A43971  19.859  34.542   6.186
 3204POPC   D2A43972  19.483  34.389   6.414
 3204POPC   C3A43973  19.543  34.356   6.853
 3204POPC   C4A43974  19.933  34.391   7.084
 3204POPC   C1B43975  19.543  34.906   6.372
 3204POPC   C2B43976  19.854  34.765   6.686
 3204POPC   C3B43977  20.111  34.901   7.071
 3204POPC   C4B43978  20.529  34.873   7.226
 3205POPC   NC343979  34.238  25.396   4.936
 3205POPC   PO443980  34.756  25.291   5.301
 3205POPC   GL143981  34.688  25.107   5.763
 3205POPC   GL243982  34.837  24.768   5.888
 3205POPC   C1A43983  34.656  25.148   6.216
 3205POPC   D2A43984  34.361  25.053   6.541
 3205POPC   C3A43985  34.549  25.219   6.914
 3205POPC   C4A43986  34.725  25.473   7.243
 3205POPC   C1B43987  34.932  24.725   6.286
 3205POPC   C2B43988  34.828  24.839   6.661
 3205POPC   C3B43989  34.979  24.820   7.031
 3205POPC   C4B43990  34.740  24.961   7.301
 3206POPC   NC343991  25.715   5.721   5.474
 3206POPC   PO443992  26.124   6.179   5.327
 3206POPC   GL143993  26.269   5.914   5.689
 3206POPC   GL243994  26.224   5.555   5.685
 3206POPC   C1A43995  26.396   5.999   6.110
 3206POPC   D2A43996  26.249   6.215   6.460
 3206POPC   C3A43997  26.371   6.108   6.861
 3206POPC   C4A43998  26.008   6.096   7.115
 3206POPC   C1B43999  26.248   5.502   6.145
 3206POPC   C2B44000  26.212   5.711   6.540
 3206POPC   C3B44001  26.127   5.600   6.955
 3206POPC   C4B44002  25.752   5.400   7.104
 3207POPC   NC344003  26.061  13.326   5.415
 3207POPC   PO444004  25.565  13.754   5.261
 3207POPC   GL144005  25.852  13.738   5.689
 3207POPC   GL244006  26.159  13.527   5.866
 3207POPC   C1A44007  25.886  13.827   6.155
 3207POPC   D2A44008  25.926  13.658   6.584
 3207POPC   C3A44009  26.002  13.927   6.954
 3207POPC   C4A44010  25.805  13.812   7.318
 3207POPC   C1B44011  26.423  13.614   6.255
 3207POPC   C2B44012  26.417  13.666   6.734
 3207POPC   C3B44013  26.170  13.453   7.096
 3207POPC   C4B44014  25.985  13.418   7.559
 3208POPC   NC344015  25.008   7.355   5.418
 3208POPC   PO444016  25.622   7.035   5.455
 3208POPC   GL144017  25.406   7.344   5.829
 3208POPC   GL244018  25.069   7.539   5.879
 3208POPC   C1A44019  25.170   7.241   6.259
 3208POPC   D2A44020  24.966   7.391   6.626
 3208POPC   C3A44021  25.092   7.133   6.947
 3208POPC   C4A44022  25.358   7.164   7.289
 3208POPC   C1B44023  25.315   7.720   6.207
 3208POPC   C2B44024  25.445   7.566   6.610
 3208POPC   C3B44025  25.278   7.606   7.038
 3208POPC   C4B44026  25.568   7.611   7.409
 3209POPC   NC344027  31.633  21.938   5.560
 3209POPC   PO444028  31.182  22.405   5.364
 3209POPC   GL144029  31.323  22.318   5.790
 3209POPC   GL244030  31.689  22.365   5.833
 3209POPC   C1A44031  31.259  22.225   6.238
 3209POPC   D2A44032  31.444  22.348   6.643
 3209POPC   C3A44033  31.244  22.306   7.024
 3209POPC   C4A44034  31.083  22.047   7.354
 3209POPC   C1B44035  31.760  22.083   6.215
 3209POPC   C2B44036  31.716  21.924   6.642
 3209POPC   C3B44037  31.586  21.913   7.072
 3209POPC   C4B44038  31.591  22.203   7.383
 3210POPC   NC344039  41.122  44.637   5.446
 3210POPC   PO444040  40.529  44.623   5.169
 3210POPC   GL144041  40.637  44.791   5.592
 3210POPC   GL244042  40.743  44.472   5.763
 3210POPC   C1A44043  40.760  44.886   6.036
 3210POPC   D2A44044  41.009  44.694   6.371
 3210POPC   C3A44045  40.844  44.670   6.795
 3210POPC   C4A44046  40.966  44.593   7.210
 3210POPC   C1B44047  40.555  44.416   6.206
 3210POPC   C2B44048  40.397  44.420   6.653
 3210POPC   C3B44049  40.485  44.442   7.136
 3210POPC   C4B44050  40.655  44.458   7.606
 3211POPC   NC344051   9.076  33.104   5.252
 3211POPC   PO444052   8.464  32.997   5.285
 3211POPC   GL144053   8.759  33.077   5.668
 3211POPC   GL244054   9.118  32.926   5.722
 3211POPC   C1A44055   8.944  33.197   6.093
 3211POPC   D2A44056   9.151  32.946   6.412
 3211POPC   C3A44057   9.052  32.977   6.834
 3211POPC   C4A44058   9.213  33.264   7.143
 3211POPC   C1B44059   8.882  32.684   6.057
 3211POPC   C2B44060   8.704  32.681   6.511
 3211POPC   C3B44061   8.609  32.746   6.973
 3211POPC   C4B44062   8.877  32.915   7.308
 3212POPC   NC344063   4.827   8.012   5.364
 3212POPC   PO444064   5.480   8.342   5.535
 3212POPC   GL144065   5.197   8.042   5.732
 3212POPC   GL244066   5.378   7.706   5.725
 3212POPC   C1A44067   5.012   8.218   6.129
 3212POPC   D2A44068   5.184   8.481   6.484
 3212POPC   C3A44069   5.017   8.404   6.895
 3212POPC   C4A44070   5.257   8.417   7.253
 3212POPC   C1B44071   5.414   7.882   6.158
 3212POPC   C2B44072   5.202   7.981   6.560
 3212POPC   C3B44073   5.329   8.002   6.976
 3212POPC   C4B44074   5.151   7.921   7.409
 3213POPC   NC344075  17.271  26.116   5.357
 3213POPC   PO444076  17.770  25.746   5.350
 3213POPC   GL144077  17.437  25.761   5.721
 3213POPC   GL244078  17.325  26.126   5.849
 3213POPC   C1A44079  17.302  25.754   6.190
 3213POPC   D2A44080  17.219  25.783   6.653
 3213POPC   C3A44081  17.554  25.882   6.971
 3213POPC   C4A44082  17.732  26.138   7.266
 3213POPC   C1B44083  17.506  26.352   6.189
 3213POPC   C2B44084  17.499  26.237   6.610
 3213POPC   C3B44085  17.330  26.377   7.014
 3213POPC   C4B44086  17.335  26.430   7.459
 3214POPC   NC344087  37.693  10.238   5.582
 3214POPC   PO444088  37.386   9.593   5.452
 3214POPC   GL144089  37.467   9.840   5.804
 3214POPC   GL244090  37.808   9.806   5.882
 3214POPC   C1A44091  37.485  10.077   6.196
 3214POPC   D2A44092  37.279  10.067   6.584
 3214POPC   C3A44093  37.443   9.992   6.997
 3214POPC   C4A44094  37.365   9.679   7.297
 3214POPC   C1B44095  37.673   9.608   6.278
 3214POPC   C2B44096  37.715   9.669   6.725
 3214POPC   C3B44097  37.835   9.590   7.131
 3214POPC   C4B44098  38.137   9.329   7.333
 3215POPC   NC344099  16.046  44.471   5.377
 3215POPC   PO444100  16.236   0.141   5.247
 3215POPC   GL144101  16.052  44.949   5.680
 3215POPC   GL244102  15.902  44.594   5.832
 3215POPC   C1A44103  15.922  44.998   6.121
 3215POPC   D2A44104  16.052  44.771   6.488
 3215POPC   C3A44105  16.070  44.980   6.874
 3215POPC   C4A44106  16.075  44.856   7.300
 3215POPC   C1B44107  15.812  44.370   6.214
 3215POPC   C2B44108  15.669  44.474   6.641
 3215POPC   C3B44109  15.995  44.457   6.953
 3215POPC   C4B44110  15.989  44.381   7.388
 3216POPC   NC344111  30.903   7.841   5.382
 3216POPC   PO444112  30.599   7.321   5.416
 3216POPC   GL144113  30.727   7.537   5.782
 3216POPC   GL244114  30.937   7.322   5.980
 3216POPC   C1A44115  30.583   7.611   6.210
 3216POPC   D2A44116  30.756   7.435   6.589
 3216POPC   C3A44117  30.552   7.550   6.963
 3216POPC   C4A44118  30.687   7.460   7.370
 3216POPC   C1B44119  31.083   7.027   6.311
 3216POPC   C2B44120  31.013   6.941   6.761
 3216POPC   C3B44121  30.814   6.993   7.179
 3216POPC   C4B44122  30.923   7.095   7.649
 3217POPC   NC344123  24.728  23.123   5.453
 3217POPC   PO444124  24.350  22.538   5.535
 3217POPC   GL144125  24.264  22.879   5.820
 3217POPC   GL244126  24.513  23.173   5.916
 3217POPC   C1A44127  24.404  22.775   6.216
 3217POPC   D2A44128  24.400  22.983   6.575
 3217POPC   C3A44129  24.386  22.775   6.937
 3217POPC   C4A44130  24.194  22.720   7.343
 3217POPC   C1B44131  24.636  23.526   6.215
 3217POPC   C2B44132  24.815  23.520   6.630
 3217POPC   C3B44133  24.720  23.191   6.912
 3217POPC   C4B44134  24.478  23.142   7.276
 3218POPC   NC344135  41.502  10.357   5.280
 3218POPC   PO444136  41.430  10.940   5.579
 3218POPC   GL144137  41.556  10.564   5.774
 3218POPC   GL244138  41.331  10.247   5.754
 3218POPC   C1A44139  41.731  10.656   6.173
 3218POPC   D2A44140  41.764  10.862   6.555
 3218POPC   C3A44141  41.775  10.705   6.968
 3218POPC   C4A44142  41.630  10.843   7.373
 3218POPC   C1B44143  41.704  10.168   6.067
 3218POPC   C2B44144  41.750  10.282   6.521
 3218POPC   C3B44145  41.458  10.287   6.860
 3218POPC   C4B44146  41.500  10.360   7.280
 3219POPC   NC344147  34.907  42.513   5.080
 3219POPC   PO444148  35.497  42.204   5.335
 3219POPC   GL144149  35.531  42.173   5.765
 3219POPC   GL244150  35.356  41.927   5.876
 3219POPC   C1A44151  35.432  42.405   6.173
 3219POPC   D2A44152  35.260  42.461   6.609
 3219POPC   C3A44153  35.499  42.437   6.976
 3219POPC   C4A44154  35.355  42.359   7.367
 3219POPC   C1B44155  35.740  41.980   6.170
 3219POPC   C2B44156  35.776  41.835   6.591
 3219POPC   C3B44157  35.764  41.983   7.011
 3219POPC   C4B44158  35.875  42.187   7.395
 3220POPC   NC344159  43.178  38.222   5.347
 3220POPC   PO444160  42.640  38.614   5.124
 3220POPC   GL144161  42.870  38.629   5.558
 3220POPC   GL244162  43.261  38.650   5.613
 3220POPC   C1A44163  42.880  38.479   6.021
 3220POPC   D2A44164  42.694  38.698   6.382
 3220POPC   C3A44165  42.885  38.634   6.804
 3220POPC   C4A44166  43.071  38.260   6.982
 3220POPC   C1B44167  43.397  38.489   6.032
 3220POPC   C2B44168  43.306  38.519   6.481
 3220POPC   C3B44169  43.535  38.486   6.876
 3220POPC   C4B44170  43.336  38.592   7.257
 3221POPC   NC344171  31.082  19.601   5.418
 3221POPC   PO444172  30.535  20.012   5.382
 3221POPC   GL144173  30.642  19.754   5.761
 3221POPC   GL244174  30.924  19.554   5.886
 3221POPC   C1A44175  30.490  19.723   6.188
 3221POPC   D2A44176  30.410  19.862   6.609
 3221POPC   C3A44177  30.558  19.594   6.934
 3221POPC   C4A44178  30.481  19.642   7.384
 3221POPC   C1B44179  31.019  19.813   6.175
 3221POPC   C2B44180  30.897  19.751   6.551
 3221POPC   C3B44181  31.029  19.806   6.931
 3221POPC   C4B44182  30.976  19.557   7.254
 3222POPC   NC344183   9.627  17.489   5.502
 3222POPC   PO444184   9.201  17.148   5.628
 3222POPC   GL144185   9.350  17.465   5.949
 3222POPC   GL244186   9.611  17.728   5.937
 3222POPC   C1A44187   9.493  17.485   6.373
 3222POPC   D2A44188   9.831  17.412   6.648
 3222POPC   C3A44189   9.710  17.578   7.062
 3222POPC   C4A44190   9.264  17.690   7.140
 3222POPC   C1B44191   9.845  17.889   6.315
 3222POPC   C2B44192  10.025  17.877   6.747
 3222POPC   C3B44193   9.991  18.014   7.183
 3222POPC   C4B44194  10.082  17.973   7.638
 3223POPC   NC344195  21.914  37.850   5.617
 3223POPC   PO444196  21.448  37.617   5.288
 3223POPC   GL144197  21.553  37.497   5.705
 3223POPC   GL244198  21.487  37.775   5.926
 3223POPC   C1A44199  21.558  37.302   6.124
 3223POPC   D2A44200  21.304  37.423   6.493
 3223POPC   C3A44201  21.409  37.300   6.918
 3223POPC   C4A44202  21.604  37.549   7.230
 3223POPC   C1B44203  21.292  37.959   6.317
 3223POPC   C2B44204  21.223  37.954   6.749
 3223POPC   C3B44205  21.463  38.014   7.132
 3223POPC   C4B44206  21.789  37.969   7.491
 3224POPC   NC344207  13.592  10.130   5.335
 3224POPC   PO444208  13.456   9.501   5.119
 3224POPC   GL144209  13.548   9.728   5.635
 3224POPC   GL244210  13.848   9.889   5.753
 3224POPC   C1A44211  13.610   9.525   6.117
 3224POPC   D2A44212  13.635   9.339   6.575
 3224POPC   C3A44213  13.696   9.642   6.909
 3224POPC   C4A44214  13.313   9.651   7.110
 3224POPC   C1B44215  13.498  10.013   6.067
 3224POPC   C2B44216  13.415   9.835   6.469
 3224POPC   C3B44217  13.323  10.069   6.783
 3224POPC   C4B44218  13.538  10.108   7.142
 3225POPC   NC344219   8.913   1.444   5.455
 3225POPC   PO444220   8.849   0.787   5.425
 3225POPC   GL144221   8.862   1.013   5.785
 3225POPC   GL244222   9.163   1.210   5.836
 3225POPC   C1A44223   8.801   1.110   6.198
 3225POPC   D2A44224   9.086   1.048   6.507
 3225POPC   C3A44225   8.957   0.962   6.908
 3225POPC   C4A44226   9.015   1.056   7.329
 3225POPC   C1B44227   9.193   1.455   6.208
 3225POPC   C2B44228   9.472   1.484   6.518
 3225POPC   C3B44229   9.293   1.362   6.901
 3225POPC   C4B44230   9.430   1.338   7.313
 3226POPC   NC344231   7.199  31.331   5.242
 3226POPC   PO444232   6.586  31.397   5.280
 3226POPC   GL144233   6.492  31.500   5.710
 3226POPC   GL244234   6.850  31.508   5.779
 3226POPC   C1A44235   6.375  31.460   6.152
 3226POPC   D2A44236   6.582  31.424   6.583
 3226POPC   C3A44237   6.426  31.374   7.014
 3226POPC   C4A44238   6.371  31.589   7.428
 3226POPC   C1B44239   6.853  31.256   6.138
 3226POPC   C2B44240   6.939  31.010   6.483
 3226POPC   C3B44241   6.989  31.101   6.920
 3226POPC   C4B44242   6.878  31.356   7.286
 3227POPC   NC344243   6.666   3.400   5.549
 3227POPC   PO444244   6.065   3.867   5.635
 3227POPC   GL144245   6.326   3.579   5.917
 3227POPC   GL244246   6.728   3.622   6.014
 3227POPC   C1A44247   6.381   3.594   6.366
 3227POPC   D2A44248   6.746   3.593   6.641
 3227POPC   C3A44249   6.614   3.533   7.065
 3227POPC   C4A44250   6.264   3.666   7.314
 3227POPC   C1B44251   6.741   3.255   6.205
 3227POPC   C2B44252   6.879   3.079   6.540
 3227POPC   C3B44253   6.948   3.156   6.947
 3227POPC   C4B44254   7.116   3.494   7.196
 3228POPC   NC344255  17.478   4.963   5.418
 3228POPC   PO444256  17.008   5.390   5.597
 3228POPC   GL144257  17.284   5.182   5.910
 3228POPC   GL244258  17.620   5.019   5.898
 3228POPC   C1A44259  17.359   5.080   6.349
 3228POPC   D2A44260  17.269   4.894   6.746
 3228POPC   C3A44261  17.249   5.082   7.156
 3228POPC   C4A44262  17.467   4.935   7.551
 3228POPC   C1B44263  17.848   5.217   6.236
 3228POPC   C2B44264  17.781   5.118   6.697
 3228POPC   C3B44265  17.814   5.125   7.184
 3228POPC   C4B44266  18.011   5.380   7.547
 3229POPC   NC344267   1.282   4.470   5.384
 3229POPC   PO444268   1.308   3.829   5.128
 3229POPC   GL144269   1.272   4.035   5.625
 3229POPC   GL244270   0.979   4.017   5.840
 3229POPC   C1A44271   1.398   4.217   6.062
 3229POPC   D2A44272   1.359   4.072   6.523
 3229POPC   C3A44273   1.484   4.313   6.892
 3229POPC   C4A44274   1.289   4.560   7.170
 3229POPC   C1B44275   0.910   4.267   6.249
 3229POPC   C2B44276   1.024   4.446   6.683
 3229POPC   C3B44277   0.824   4.395   7.096
 3229POPC   C4B44278   0.922   4.680   7.476
 3230POPC   NC344279  14.935  39.807   5.357
 3230POPC   PO444280  15.433  40.199   5.226
 3230POPC   GL144281  15.227  40.111   5.651
 3230POPC   GL244282  15.390  39.811   5.821
 3230POPC   C1A44283  15.247  40.226   6.103
 3230POPC   D2A44284  15.156  40.373   6.528
 3230POPC   C3A44285  15.376  40.332   6.923
 3230POPC   C4A44286  15.025  40.479   7.168
 3230POPC   C1B44287  15.253  39.736   6.262
 3230POPC   C2B44288  15.295  39.869   6.663
 3230POPC   C3B44289  15.003  39.984   6.965
 3230POPC   C4B44290  15.200  40.038   7.362
 3231POPC   NC344291   9.101  36.568   5.474
 3231POPC   PO444292   8.876  35.957   5.409
 3231POPC   GL144293   8.879  36.170   5.799
 3231POPC   GL244294   8.541  36.129   5.840
 3231POPC   C1A44295   9.078  36.192   6.227
 3231POPC   D2A44296   8.857  36.240   6.629
 3231POPC   C3A44297   9.054  36.370   7.024
 3231POPC   C4A44298   9.022  36.134   7.398
 3231POPC   C1B44299   8.626  35.947   6.238
 3231POPC   C2B44300   8.489  35.888   6.663
 3231POPC   C3B44301   8.637  35.998   7.065
 3231POPC   C4B44302   8.745  35.698   7.370
 3232POPC   NC344303  36.538  34.307   5.604
 3232POPC   PO444304  37.176  34.417   5.357
 3232POPC   GL144305  36.947  34.676   5.730
 3232POPC   GL244306  36.943  34.413   5.893
 3232POPC   C1A44307  36.802  34.767   6.220
 3232POPC   D2A44308  36.897  34.644   6.712
 3232POPC   C3A44309  36.714  34.781   7.154
 3232POPC   C4A44310  36.505  34.933   7.570
 3232POPC   C1B44311  36.917  34.276   6.305
 3232POPC   C2B44312  37.304  34.375   6.503
 3232POPC   C3B44313  37.349  34.465   6.902
 3232POPC   C4B44314  37.075  34.422   7.251
 3233POPC   NC344315  15.096  29.801   5.427
 3233POPC   PO444316  15.264  30.435   5.351
 3233POPC   GL144317  15.426  30.162   5.681
 3233POPC   GL244318  15.067  30.134   5.826
 3233POPC   C1A44319  15.456  30.039   6.118
 3233POPC   D2A44320  15.155  29.977   6.453
 3233POPC   C3A44321  15.241  29.896   6.870
 3233POPC   C4A44322  15.290  30.172   7.165
 3233POPC   C1B44323  14.835  29.804   6.077
 3233POPC   C2B44324  14.728  29.699   6.505
 3233POPC   C3B44325  14.797  29.618   6.924
 3233POPC   C4B44326  14.756  29.933   7.233
 3234POPC   NC344327   3.969  15.837   5.329
 3234POPC   PO444328   4.606  15.839   5.455
 3234POPC   GL144329   4.295  15.958   5.776
 3234POPC   GL244330   4.045  15.715   5.858
 3234POPC   C1A44331   4.237  16.107   6.210
 3234POPC   D2A44332   4.361  16.028   6.628
 3234POPC   C3A44333   4.199  16.138   7.032
 3234POPC   C4A44334   4.312  16.224   7.490
 3234POPC   C1B44335   4.062  15.643   6.329
 3234POPC   C2B44336   4.059  15.649   6.774
 3234POPC   C3B44337   4.115  15.615   7.174
 3234POPC   C4B44338   4.450  15.759   7.301
 3235POPC   NC344339  25.079  14.059   5.341
 3235POPC   PO444340  25.173  14.791   5.352
 3235POPC   GL144341  25.162  14.486   5.680
 3235POPC   GL244342  24.854  14.623   5.810
 3235POPC   C1A44343  25.270  14.397   6.150
 3235POPC   D2A44344  25.400  14.688   6.514
 3235POPC   C3A44345  25.538  14.684   6.948
 3235POPC   C4A44346  25.316  14.634   7.358
 3235POPC   C1B44347  24.930  14.775   6.244
 3235POPC   C2B44348  24.925  14.534   6.665
 3235POPC   C3B44349  24.957  14.408   7.108
 3235POPC   C4B44350  24.889  14.592   7.609
 3236POPC   NC344351  20.900  42.695   5.351
 3236POPC   PO444352  20.272  42.494   5.465
 3236POPC   GL144353  20.479  42.311   5.833
 3236POPC   GL244354  20.807  42.124   5.753
 3236POPC   C1A44355  20.447  42.465   6.273
 3236POPC   D2A44356  20.568  42.571   6.718
 3236POPC   C3A44357  20.276  42.538   7.087
 3236POPC   C4A44358  20.351  42.555   7.546
 3236POPC   C1B44359  20.651  41.932   6.151
 3236POPC   C2B44360  20.535  42.062   6.576
 3236POPC   C3B44361  20.593  42.117   7.021
 3236POPC   C4B44362  20.317  41.913   7.302
 3237POPC   NC344363  15.785   8.836   5.480
 3237POPC   PO444364  16.324   9.226   5.558
 3237POPC   GL144365  15.942   9.293   5.805
 3237POPC   GL244366  15.899   8.958   5.952
 3237POPC   C1A44367  15.818   9.382   6.235
 3237POPC   D2A44368  16.024   9.146   6.586
 3237POPC   C3A44369  15.863   9.102   7.022
 3237POPC   C4A44370  16.110   9.227   7.376
 3237POPC   C1B44371  15.691   8.849   6.316
 3237POPC   C2B44372  15.807   8.686   6.700
 3237POPC   C3B44373  15.640   8.611   7.097
 3237POPC   C4B44374  15.879   8.760   7.438
 3238POPC   NC344375  38.228  11.074   5.464
 3238POPC   PO444376  38.853  11.183   5.533
 3238POPC   GL144377  38.534  11.335   5.823
 3238POPC   GL244378  38.446  11.692   5.780
 3238POPC   C1A44379  38.375  11.358   6.249
 3238POPC   D2A44380  38.170  11.302   6.655
 3238POPC   C3A44381  38.344  11.093   6.995
 3238POPC   C4A44382  38.261  11.079   7.468
 3238POPC   C1B44383  38.737  11.721   6.147
 3238POPC   C2B44384  38.775  11.609   6.573
 3238POPC   C3B44385  38.529  11.594   6.924
 3238POPC   C4B44386  38.547  11.446   7.314
 3239POPC   NC344387  26.433  23.538   5.443
 3239POPC   PO444388  25.842  23.787   5.637
 3239POPC   GL144389  26.229  23.774   5.853
 3239POPC   GL244390  26.176  24.050   6.057
 3239POPC   C1A44391  26.336  23.492   6.209
 3239POPC   D2A44392  26.351  23.728   6.596
 3239POPC   C3A44393  26.242  23.694   7.014
 3239POPC   C4A44394  26.160  23.500   7.376
 3239POPC   C1B44395  25.908  23.765   6.310
 3239POPC   C2B44396  25.834  23.574   6.714
 3239POPC   C3B44397  25.737  23.737   7.114
 3239POPC   C4B44398  25.799  23.801   7.546
 3240POPC   NC344399  38.618  42.691   5.704
 3240POPC   PO444400  38.546  43.301   5.343
 3240POPC   GL144401  38.453  43.254   5.863
 3240POPC   GL244402  38.228  43.030   5.950
 3240POPC   C1A44403  38.615  43.081   6.297
 3240POPC   D2A44404  38.598  43.293   6.666
 3240POPC   C3A44405  38.562  42.997   6.980
 3240POPC   C4A44406  38.686  43.253   7.271
 3240POPC   C1B44407  38.186  43.319   6.309
 3240POPC   C2B44408  38.117  43.142   6.713
 3240POPC   C3B44409  38.198  43.356   7.084
 3240POPC   C4B44410  38.215  43.295   7.501
 3241POPC   NC344411  33.629   5.960   5.766
 3241POPC   PO444412  33.873   6.497   5.396
 3241POPC   GL144413  33.840   6.598   5.851
 3241POPC   GL244414  33.713   6.939   5.880
 3241POPC   C1A44415  33.824   6.708   6.320
 3241POPC   D2A44416  33.982   6.872   6.706
 3241POPC   C3A44417  33.988   6.571   7.044
 3241POPC   C4A44418  33.744   6.211   7.176
 3241POPC   C1B44419  33.459   7.075   6.259
 3241POPC   C2B44420  33.499   7.035   6.702
 3241POPC   C3B44421  33.587   6.883   7.102
 3241POPC   C4B44422  33.417   7.029   7.482
 3242POPC   NC344423  28.366  30.551   5.497
 3242POPC   PO444424  28.083  31.163   5.386
 3242POPC   GL144425  28.094  30.905   5.782
 3242POPC   GL244426  28.092  30.538   5.930
 3242POPC   C1A44427  28.327  30.970   6.180
 3242POPC   D2A44428  28.509  30.951   6.597
 3242POPC   C3A44429  28.368  30.845   7.029
 3242POPC   C4A44430  28.381  30.748   7.470
 3242POPC   C1B44431  28.454  30.491   6.265
 3242POPC   C2B44432  28.527  30.454   6.734
 3242POPC   C3B44433  28.454  30.327   7.176
 3242POPC   C4B44434  28.678  30.160   7.570
 3243POPC   NC344435  37.318  26.027   5.196
 3243POPC   PO444436  37.947  25.817   5.320
 3243POPC   GL144437  37.864  26.002   5.693
 3243POPC   GL244438  37.867  26.366   5.732
 3243POPC   C1A44439  37.802  25.975   6.109
 3243POPC   D2A44440  37.683  26.131   6.494
 3243POPC   C3A44441  37.700  25.912   6.876
 3243POPC   C4A44442  37.774  25.871   7.321
 3243POPC   C1B44443  37.595  26.481   6.094
 3243POPC   C2B44444  37.318  26.500   6.479
 3243POPC   C3B44445  37.514  26.397   6.895
 3243POPC   C4B44446  37.564  26.406   7.336
 3244POPC   NC344447   9.155  35.575   5.375
 3244POPC   PO444448   8.573  35.406   5.313
 3244POPC   GL144449   8.664  35.356   5.746
 3244POPC   GL244450   8.713  35.659   5.808
 3244POPC   C1A44451   8.794  35.291   6.195
 3244POPC   D2A44452   9.185  35.277   6.436
 3244POPC   C3A44453   9.187  35.356   6.885
 3244POPC   C4A44454   8.984  35.230   7.250
 3244POPC   C1B44455   9.068  35.700   6.088
 3244POPC   C2B44456   9.031  35.759   6.549
 3244POPC   C3B44457   9.131  35.844   6.994
 3244POPC   C4B44458   9.249  35.653   7.410
 3245POPC   NC344459  14.687  43.953   5.429
 3245POPC   PO444460  14.081  44.049   5.424
 3245POPC   GL144461  14.325  44.062   5.810
 3245POPC   GL244462  14.650  44.256   5.833
 3245POPC   C1A44463  14.356  44.028   6.262
 3245POPC   D2A44464  14.130  43.998   6.650
 3245POPC   C3A44465  14.417  43.887   6.954
 3245POPC   C4A44466  14.446  44.056   7.347
 3245POPC   C1B44467  14.860  44.055   6.176
 3245POPC   C2B44468  14.938  43.864   6.600
 3245POPC   C3B44469  14.825  43.561   6.946
 3245POPC   C4B44470  14.808  43.688   7.382
 3246POPC   NC344471  34.414  40.727   5.274
 3246POPC   PO444472  34.899  41.200   5.275
 3246POPC   GL144473  34.789  40.926   5.659
 3246POPC   GL244474  34.774  41.131   5.937
 3246POPC   C1A44475  34.610  40.683   6.062
 3246POPC   D2A44476  34.773  40.515   6.474
 3246POPC   C3A44477  34.630  40.691   6.866
 3246POPC   C4A44478  34.402  40.949   7.115
 3246POPC   C1B44479  34.957  40.958   6.282
 3246POPC   C2B44480  34.962  41.083   6.648
 3246POPC   C3B44481  34.825  41.217   6.996
 3246POPC   C4B44482  34.904  40.896   7.270
 3247POPC   NC344483   5.889  19.549   5.058
 3247POPC   PO444484   5.939  20.165   5.262
 3247POPC   GL144485   5.873  19.956   5.718
 3247POPC   GL244486   5.551  19.812   5.824
 3247POPC   C1A44487   5.918  19.841   6.192
 3247POPC   D2A44488   5.626  19.889   6.582
 3247POPC   C3A44489   5.757  19.781   7.013
 3247POPC   C4A44490   5.725  20.023   7.414
 3247POPC   C1B44491   5.506  19.523   6.228
 3247POPC   C2B44492   5.672  19.374   6.656
 3247POPC   C3B44493   5.668  19.300   7.112
 3247POPC   C4B44494   5.754  19.540   7.487
 3248POPC   NC344495  37.107  43.351   5.480
 3248POPC   PO444496  36.642  42.845   5.563
 3248POPC   GL144497  36.778  43.148   5.831
 3248POPC   GL244498  36.696  43.507   5.740
 3248POPC   C1A44499  36.769  43.031   6.257
 3248POPC   D2A44500  36.504  43.061   6.602
 3248POPC   C3A44501  36.722  43.051   6.997
 3248POPC   C4A44502  36.854  43.179   7.400
 3248POPC   C1B44503  36.933  43.499   6.153
 3248POPC   C2B44504  36.929  43.397   6.595
 3248POPC   C3B44505  37.255  43.385   6.883
 3248POPC   C4B44506  37.284  43.412   7.319
 3249POPC   NC344507   3.181   5.958   5.484
 3249POPC   PO444508   2.569   5.822   5.437
 3249POPC   GL144509   2.739   6.034   5.739
 3249POPC   GL244510   2.895   5.698   5.847
 3249POPC   C1A44511   2.656   6.055   6.145
 3249POPC   D2A44512   2.872   5.901   6.470
 3249POPC   C3A44513   2.894   6.177   6.815
 3249POPC   C4A44514   2.860   6.008   7.229
 3249POPC   C1B44515   2.531   5.576   6.155
 3249POPC   C2B44516   2.362   5.793   6.502
 3249POPC   C3B44517   2.499   5.870   6.891
 3249POPC   C4B44518   2.595   5.557   7.200
 3250POPC   NC344519  13.185  28.391   5.235
 3250POPC   PO444520  12.643  28.150   5.406
 3250POPC   GL144521  12.714  28.119   5.855
 3250POPC   GL244522  13.015  28.274   5.806
 3250POPC   C1A44523  13.003  27.933   6.186
 3250POPC   D2A44524  13.170  28.087   6.610
 3250POPC   C3A44525  13.008  28.042   7.011
 3250POPC   C4A44526  12.896  28.156   7.417
 3250POPC   C1B44527  12.907  28.422   6.253
 3250POPC   C2B44528  12.795  28.417   6.709
 3250POPC   C3B44529  12.969  28.558   7.120
 3250POPC   C4B44530  12.873  28.800   7.505
 3251POPC   NC344531  16.747  31.109   5.283
 3251POPC   PO444532  16.951  31.700   5.165
 3251POPC   GL144533  16.799  31.672   5.642
 3251POPC   GL244534  16.732  31.303   5.796
 3251POPC   C1A44535  16.952  31.696   6.114
 3251POPC   D2A44536  17.051  31.840   6.580
 3251POPC   C3A44537  16.985  31.558   6.965
 3251POPC   C4A44538  16.792  31.531   7.378
 3251POPC   C1B44539  16.601  31.175   6.255
 3251POPC   C2B44540  16.615  31.216   6.731
 3251POPC   C3B44541  16.491  31.132   7.165
 3251POPC   C4B44542  16.551  31.172   7.629
 3252POPC   NC344543  42.324   0.249   5.156
 3252POPC   PO444544  42.503   0.772   5.490
 3252POPC   GL144545  42.284   0.480   5.692
 3252POPC   GL244546  42.484   0.195   5.645
 3252POPC   C1A44547  42.185   0.386   6.096
 3252POPC   D2A44548  42.223   0.497   6.532
 3252POPC   C3A44549  41.998   0.373   6.886
 3252POPC   C4A44550  42.159   0.366   7.295
 3252POPC   C1B44551  42.470  44.970   6.019
 3252POPC   C2B44552  42.379   0.026   6.452
 3252POPC   C3B44553  42.493   0.216   6.861
 3252POPC   C4B44554  42.573   0.075   7.269
 3253POPC   NC344555  15.842  28.129   5.472
 3253POPC   PO444556  16.228  28.615   5.582
 3253POPC   GL144557  16.065  28.369   5.934
 3253POPC   GL244558  15.974  28.004   5.945
 3253POPC   C1A44559  16.121  28.271   6.372
 3253POPC   D2A44560  15.832  28.340   6.702
 3253POPC   C3A44561  15.910  28.590   7.043
 3253POPC   C4A44562  15.783  28.544   7.426
 3253POPC   C1B44563  16.384  27.903   6.086
 3253POPC   C2B44564  16.440  27.845   6.515
 3253POPC   C3B44565  16.237  28.060   6.866
 3253POPC   C4B44566  16.017  28.117   7.257
 3254POPC   NC344567   5.551  43.929   5.177
 3254POPC   PO444568   6.077  44.094   5.153
 3254POPC   GL144569   5.856  44.027   5.590
 3254POPC   GL244570   6.129  43.907   5.790
 3254POPC   C1A44571   5.678  43.892   6.028
 3254POPC   D2A44572   5.615  44.021   6.484
 3254POPC   C3A44573   5.825  43.878   6.895
 3254POPC   C4A44574   5.822  44.008   7.358
 3254POPC   C1B44575   6.139  44.080   6.227
 3254POPC   C2B44576   6.277  44.007   6.657
 3254POPC   C3B44577   6.279  43.996   7.122
 3254POPC   C4B44578   6.231  43.710   7.482
 3255POPC   NC344579  42.282  38.632   5.414
 3255POPC   PO444580  42.715  38.091   5.537
 3255POPC   GL144581  42.443  38.343   5.795
 3255POPC   GL244582  42.447  38.712   5.891
 3255POPC   C1A44583  42.379  38.317   6.221
 3255POPC   D2A44584  42.316  37.944   6.455
 3255POPC   C3A44585  41.986  38.038   6.731
 3255POPC   C4A44586  42.151  38.130   7.139
 3255POPC   C1B44587  42.239  38.928   6.241
 3255POPC   C2B44588  42.306  38.848   6.675
 3255POPC   C3B44589  42.424  38.553   7.021
 3255POPC   C4B44590  42.240  38.579   7.449
 3256POPC   NC344591   5.620   3.953   5.506
 3256POPC   PO444592   5.921   4.604   5.397
 3256POPC   GL144593   5.751   4.515   5.804
 3256POPC   GL244594   5.998   4.278   5.949
 3256POPC   C1A44595   5.569   4.331   6.212
 3256POPC   D2A44596   5.720   4.035   6.553
 3256POPC   C3A44597   5.657   4.234   6.948
 3256POPC   C4A44598   5.753   4.567   7.215
 3256POPC   C1B44599   5.997   4.641   6.256
 3256POPC   C2B44600   6.223   4.792   6.610
 3256POPC   C3B44601   6.111   4.436   6.829
 3256POPC   C4B44602   6.142   4.137   7.151
 3257POPC   NC344603  33.349  20.977   5.188
 3257POPC   PO444604  32.979  21.513   5.216
 3257POPC   GL144605  32.923  21.379   5.665
 3257POPC   GL244606  32.843  21.711   5.714
 3257POPC   C1A44607  33.074  21.337   6.137
 3257POPC   D2A44608  32.998  21.122   6.551
 3257POPC   C3A44609  33.146  21.308   6.919
 3257POPC   C4A44610  33.070  21.408   7.325
 3257POPC   C1B44611  32.905  21.828   6.132
 3257POPC   C2B44612  33.072  21.693   6.537
 3257POPC   C3B44613  32.857  21.741   6.921
 3257POPC   C4B44614  32.914  21.880   7.310
 3258POPC   NC344615  21.373   5.841   5.362
 3258POPC   PO444616  21.884   6.198   5.511
 3258POPC   GL144617  21.574   5.959   5.811
 3258POPC   GL244618  21.186   5.861   5.826
 3258POPC   C1A44619  21.421   6.062   6.228
 3258POPC   D2A44620  21.205   5.876   6.544
 3258POPC   C3A44621  21.344   5.943   6.950
 3258POPC   C4A44622  21.218   5.697   7.307
 3258POPC   C1B44623  20.924   6.094   6.120
 3258POPC   C2B44624  21.050   6.389   6.442
 3258POPC   C3B44625  20.982   6.304   6.869
 3258POPC   C4B44626  21.036   6.179   7.306
 3259POPC   NC344627  43.345  39.730   5.490
 3259POPC   PO444628  43.137  39.088   5.335
 3259POPC   GL144629  43.102  39.115   5.745
 3259POPC   GL244630  43.012  39.442   5.785
 3259POPC   C1A44631  43.099  38.913   6.114
 3259POPC   D2A44632  43.026  39.046   6.518
 3259POPC   C3A44633  43.289  38.950   6.855
 3259POPC   C4A44634  43.246  39.088   7.264
 3259POPC   C1B44635  43.187  39.420   6.200
 3259POPC   C2B44636  43.358  39.410   6.626
 3259POPC   C3B44637  43.262  39.553   7.039
 3259POPC   C4B44638  43.316  39.537   7.500
 3260POPC   NC344639  27.858  36.817   5.340
 3260POPC   PO444640  27.268  36.786   5.368
 3260POPC   GL144641  27.360  36.802   5.811
 3260POPC   GL244642  27.665  36.954   5.866
 3260POPC   C1A44643  27.499  36.640   6.273
 3260POPC   D2A44644  27.424  36.843   6.707
 3260POPC   C3A44645  27.690  36.943   7.091
 3260POPC   C4A44646  27.844  36.768   7.487
 3260POPC   C1B44647  27.492  37.165   6.271
 3260POPC   C2B44648  27.717  37.274   6.671
 3260POPC   C3B44649  27.911  37.413   7.087
 3260POPC   C4B44650  27.889  37.266   7.552
 3261POPC   NC344651   5.917  24.938   5.188
 3261POPC   PO444652   5.663  25.578   5.444
 3261POPC   GL144653   5.966  25.399   5.712
 3261POPC   GL244654   5.917  25.077   5.707
 3261POPC   C1A44655   5.947  25.430   6.143
 3261POPC   D2A44656   5.698  25.293   6.457
 3261POPC   C3A44657   5.874  25.439   6.835
 3261POPC   C4A44658   5.663  25.379   7.195
 3261POPC   C1B44659   6.120  24.944   6.109
 3261POPC   C2B44660   6.147  25.096   6.518
 3261POPC   C3B44661   6.028  24.948   6.920
 3261POPC   C4B44662   6.015  25.061   7.355
 3262POPC   NC344663  25.631  27.125   5.374
 3262POPC   PO444664  26.283  26.882   5.480
 3262POPC   GL144665  26.143  26.762   5.872
 3262POPC   GL244666  25.845  26.588   5.780
 3262POPC   C1A44667  26.240  26.875   6.318
 3262POPC   D2A44668  26.083  26.986   6.744
 3262POPC   C3A44669  26.343  26.979   7.103
 3262POPC   C4A44670  26.529  26.753   7.424
 3262POPC   C1B44671  25.746  26.782   6.212
 3262POPC   C2B44672  25.602  26.808   6.660
 3262POPC   C3B44673  25.806  26.651   7.065
 3262POPC   C4B44674  25.930  26.873   7.444
 3263POPC   NC344675   8.614  40.468   5.490
 3263POPC   PO444676   9.007  40.992   5.228
 3263POPC   GL144677   9.102  40.947   5.670
 3263POPC   GL244678   8.763  40.879   5.747
 3263POPC   C1A44679   9.256  40.845   6.126
 3263POPC   D2A44680   9.279  40.625   6.530
 3263POPC   C3A44681   8.950  40.674   6.847
 3263POPC   C4A44682   9.088  40.799   7.256
 3263POPC   C1B44683   8.713  40.764   6.196
 3263POPC   C2B44684   8.521  40.943   6.556
 3263POPC   C3B44685   8.645  41.082   6.959
 3263POPC   C4B44686   8.597  40.818   7.286
 3264POPC   NC344687  40.872  20.442   4.882
 3264POPC   PO444688  41.446  20.289   5.332
 3264POPC   GL144689  41.390  20.542   5.842
 3264POPC   GL244690  41.293  20.847   6.063
 3264POPC   C1A44691  41.093  20.394   6.191
 3264POPC   D2A44692  41.090  20.203   6.627
 3264POPC   C3A44693  41.281  20.491   6.933
 3264POPC   C4A44694  41.325  20.839   7.222
 3264POPC   C1B44695  41.453  20.639   6.467
 3264POPC   C2B44696  41.774  20.531   6.794
 3264POPC   C3B44697  41.810  20.641   7.247
 3264POPC   C4B44698  42.140  20.783   7.541
 3265POPC   NC344699  38.353  21.566   5.272
 3265POPC   PO444700  38.673  21.142   5.612
 3265POPC   GL144701  38.346  21.396   5.807
 3265POPC   GL244702  38.461  21.739   5.755
 3265POPC   C1A44703  38.233  21.471   6.276
 3265POPC   D2A44704  38.376  21.252   6.697
 3265POPC   C3A44705  38.326  21.366   7.163
 3265POPC   C4A44706  38.199  21.084   7.530
 3265POPC   C1B44707  38.662  21.752   6.145
 3265POPC   C2B44708  38.708  21.644   6.565
 3265POPC   C3B44709  38.933  21.766   6.928
 3265POPC   C4B44710  38.839  21.531   7.295
 3266POPC   NC344711  17.077  13.644   5.293
 3266POPC   PO444712  16.670  14.063   5.312
 3266POPC   GL144713  16.715  13.763   5.665
 3266POPC   GL244714  16.877  13.423   5.732
 3266POPC   C1A44715  16.664  13.731   6.103
 3266POPC   D2A44716  16.457  13.787   6.514
 3266POPC   C3A44717  16.727  13.832   6.874
 3266POPC   C4A44718  16.950  13.588   7.174
 3266POPC   C1B44719  16.749  13.257   6.144
 3266POPC   C2B44720  16.838  13.431   6.548
 3266POPC   C3B44721  16.556  13.354   6.893
 3266POPC   C4B44722  16.535  13.140   7.255
 3267POPC   NC344723   9.838  12.267   5.351
 3267POPC   PO444724   9.466  11.673   5.421
 3267POPC   GL144725   9.694  11.901   5.736
 3267POPC   GL244726   9.391  11.973   5.947
 3267POPC   C1A44727   9.852  12.011   6.158
 3267POPC   D2A44728   9.603  12.043   6.536
 3267POPC   C3A44729   9.694  12.000   6.993
 3267POPC   C4A44730  10.007  12.171   7.251
 3267POPC   C1B44731   9.151  11.849   6.359
 3267POPC   C2B44732   9.212  11.860   6.819
 3267POPC   C3B44733   9.232  11.998   7.257
 3267POPC   C4B44734   9.338  12.043   7.722
 3268POPC   NC344735  31.864   1.468   5.428
 3268POPC   PO444736  31.174   1.271   5.421
 3268POPC   GL144737  31.331   1.417   5.832
 3268POPC   GL244738  31.682   1.463   5.889
 3268POPC   C1A44739  31.426   1.207   6.243
 3268POPC   D2A44740  31.707   1.192   6.598
 3268POPC   C3A44741  31.639   0.903   6.914
 3268POPC   C4A44742  31.515   0.985   7.286
 3268POPC   C1B44743  31.839   1.735   6.173
 3268POPC   C2B44744  31.724   1.824   6.582
 3268POPC   C3B44745  31.771   1.562   6.933
 3268POPC   C4B44746  31.726   1.442   7.365
 3269POPC   NC344747  44.482  36.442   5.507
 3269POPC   PO444748  44.834  36.959   5.378
 3269POPC   GL144749  44.746  37.153   5.778
 3269POPC   GL244750  44.385  37.079   5.728
 3269POPC   C1A44751  44.923  37.158   6.214
 3269POPC   D2A44752   0.210  36.929   6.525
 3269POPC   C3A44753   0.011  36.750   6.917
 3269POPC   C4A44754  44.700  36.948   7.185
 3269POPC   C1B44755  44.493  36.836   6.100
 3269POPC   C2B44756  44.664  36.804   6.524
 3269POPC   C3B44757  44.483  36.593   6.878
 3269POPC   C4B44758  44.548  36.454   7.305
 3270POPC   NC344759  19.422  25.748   5.388
 3270POPC   PO444760  20.023  26.070   5.242
 3270POPC   GL144761  20.048  26.083   5.708
 3270POPC   GL244762  19.716  25.988   5.806
 3270POPC   C1A44763  20.033  26.199   6.150
 3270POPC   D2A44764  20.057  25.966   6.552
 3270POPC   C3A44765  19.995  26.164   6.965
 3270POPC   C4A44766  20.204  26.022   7.310
 3270POPC   C1B44767  19.519  26.174   6.221
 3270POPC   C2B44768  19.605  26.181   6.626
 3270POPC   C3B44769  19.460  26.126   7.014
 3270POPC   C4B44770  19.699  25.954   7.339
 3271POPC   NC344771  36.624  18.311   5.292
 3271POPC   PO444772  37.164  18.739   5.451
 3271POPC   GL144773  36.812  18.646   5.738
 3271POPC   GL244774  36.756  18.268   5.786
 3271POPC   C1A44775  36.887  18.529   6.184
 3271POPC   D2A44776  37.033  18.299   6.528
 3271POPC   C3A44777  36.846  18.504   6.854
 3271POPC   C4A44778  36.689  18.352   7.238
 3271POPC   C1B44779  36.752  18.012   6.180
 3271POPC   C2B44780  36.854  17.792   6.551
 3271POPC   C3B44781  36.853  17.930   6.985
 3271POPC   C4B44782  36.650  17.866   7.409
 3272POPC   NC344783  17.664  21.413   5.137
 3272POPC   PO444784  17.186  21.547   5.422
 3272POPC   GL144785  17.475  21.370   5.681
 3272POPC   GL244786  17.458  21.637   5.972
 3272POPC   C1A44787  17.494  21.128   6.056
 3272POPC   D2A44788  17.560  21.098   6.507
 3272POPC   C3A44789  17.363  21.317   6.847
 3272POPC   C4A44790  17.456  21.143   7.285
 3272POPC   C1B44791  17.723  21.635   6.331
 3272POPC   C2B44792  17.953  21.440   6.672
 3272POPC   C3B44793  17.800  21.452   7.075
 3272POPC   C4B44794  17.413  21.711   7.199
 3273POPC   NC344795  43.734  11.443   5.102
 3273POPC   PO444796  43.069  11.422   5.337
 3273POPC   GL144797  43.031  11.485   5.782
 3273POPC   GL244798  43.192  11.778   5.922
 3273POPC   C1A44799  42.982  11.311   6.201
 3273POPC   D2A44800  43.033  10.971   6.507
 3273POPC   C3A44801  42.971  11.158   6.877
 3273POPC   C4A44802  42.894  11.312   7.283
 3273POPC   C1B44803  43.460  11.633   6.211
 3273POPC   C2B44804  43.240  11.594   6.586
 3273POPC   C3B44805  43.288  11.526   6.995
 3273POPC   C4B44806  43.492  11.682   7.284
 3274POPC   NC344807   5.951   6.519   5.212
 3274POPC   PO444808   5.414   6.830   5.512
 3274POPC   GL144809   5.693   6.697   5.787
 3274POPC   GL244810   6.038   6.775   5.683
 3274POPC   C1A44811   5.764   6.804   6.205
 3274POPC   D2A44812   5.750   6.653   6.617
 3274POPC   C3A44813   5.534   6.851   6.922
 3274POPC   C4A44814   5.793   6.866   7.255
 3274POPC   C1B44815   6.182   6.574   6.049
 3274POPC   C2B44816   6.262   6.637   6.493
 3274POPC   C3B44817   6.174   6.693   6.942
 3274POPC   C4B44818   6.023   6.394   7.248
 3275POPC   NC344819  40.992  41.980   5.590
 3275POPC   PO444820  41.085  41.341   5.265
 3275POPC   GL144821  40.980  41.375   5.711
 3275POPC   GL244822  40.698  41.566   5.761
 3275POPC   C1A44823  40.991  41.466   6.175
 3275POPC   D2A44824  40.723  41.482   6.561
 3275POPC   C3A44825  40.799  41.568   6.979
 3275POPC   C4A44826  40.732  41.777   7.322
 3275POPC   C1B44827  40.561  41.771   6.155
 3275POPC   C2B44828  40.330  41.815   6.552
 3275POPC   C3B44829  40.374  41.948   6.990
 3275POPC   C4B44830  40.329  42.039   7.449
 3276POPC   NC344831   4.618  26.809   5.400
 3276POPC   PO444832   3.973  26.709   5.405
 3276POPC   GL144833   4.284  26.851   5.779
 3276POPC   GL244834   4.139  27.061   6.034
 3276POPC   C1A44835   4.648  27.037   6.085
 3276POPC   D2A44836   4.765  27.168   6.568
 3276POPC   C3A44837   4.705  27.061   7.065
 3276POPC   C4A44838   4.506  27.190   7.494
 3276POPC   C1B44839   4.331  26.839   6.432
 3276POPC   C2B44840   4.411  26.691   6.879
 3276POPC   C3B44841   4.293  26.745   7.337
 3276POPC   C4B44842   4.034  26.505   7.631
 3277POPC   NC344843  38.043  13.893   5.361
 3277POPC   PO444844  37.515  13.458   5.348
 3277POPC   GL144845  37.717  13.660   5.704
 3277POPC   GL244846  38.016  13.439   5.641
 3277POPC   C1A44847  37.636  13.827   6.159
 3277POPC   D2A44848  37.429  13.788   6.603
 3277POPC   C3A44849  37.579  13.843   7.064
 3277POPC   C4A44850  37.558  13.536   7.423
 3277POPC   C1B44851  38.043  13.518   6.059
 3277POPC   C2B44852  38.106  13.797   6.396
 3277POPC   C3B44853  37.925  13.637   6.752
 3277POPC   C4B44854  38.000  13.407   7.092
 3278POPC   NC344855  16.133   9.652   5.484
 3278POPC   PO444856  15.580  10.126   5.416
 3278POPC   GL144857  15.792   9.927   5.765
 3278POPC   GL244858  16.132  10.039   5.843
 3278POPC   C1A44859  15.817   9.941   6.232
 3278POPC   D2A44860  16.111   9.937   6.583
 3278POPC   C3A44861  15.959  10.030   7.000
 3278POPC   C4A44862  15.738  10.043   7.397
 3278POPC   C1B44863  16.261   9.686   6.139
 3278POPC   C2B44864  16.413   9.500   6.525
 3278POPC   C3B44865  16.336   9.359   6.936
 3278POPC   C4B44866  16.301   9.677   7.211
 3279POPC   NC344867  26.763  32.336   5.340
 3279POPC   PO444868  27.178  31.794   5.474
 3279POPC   GL144869  26.985  32.112   5.790
 3279POPC   GL244870  26.615  32.183   5.813
 3279POPC   C1A44871  26.870  32.151   6.254
 3279POPC   D2A44872  27.086  31.950   6.579
 3279POPC   C3A44873  26.902  32.132   6.943
 3279POPC   C4A44874  26.829  31.975   7.333
 3279POPC   C1B44875  26.479  32.443   6.139
 3279POPC   C2B44876  26.450  32.376   6.564
 3279POPC   C3B44877  26.402  32.285   6.997
 3279POPC   C4B44878  26.680  32.458   7.323
 3280POPC   NC344879  27.204  40.752   5.516
 3280POPC   PO444880  26.529  40.591   5.492
 3280POPC   GL144881  26.743  40.741   5.856
 3280POPC   GL244882  26.750  41.075   5.871
 3280POPC   C1A44883  26.745  40.748   6.347
 3280POPC   D2A44884  26.648  40.798   6.830
 3280POPC   C3A44885  26.858  40.607   7.200
 3280POPC   C4A44886  27.163  40.707   7.569
 3280POPC   C1B44887  26.351  40.972   6.083
 3280POPC   C2B44888  26.245  40.790   6.485
 3280POPC   C3B44889  26.179  40.999   6.876
 3280POPC   C4B44890  26.445  41.140   7.218
 3281POPC   NC344891  16.214  20.212   5.649
 3281POPC   PO444892  15.824  20.765   5.461
 3281POPC   GL144893  15.887  20.565   5.848
 3281POPC   GL244894  16.156  20.755   5.855
 3281POPC   C1A44895  16.027  20.514   6.299
 3281POPC   D2A44896  15.715  20.527   6.639
 3281POPC   C3A44897  15.801  20.606   7.035
 3281POPC   C4A44898  16.015  20.933   7.220
 3281POPC   C1B44899  16.238  20.993   6.198
 3281POPC   C2B44900  16.488  20.908   6.528
 3281POPC   C3B44901  16.294  20.703   6.856
 3281POPC   C4B44902  16.269  20.489   7.242
 3282POPC   NC344903  32.245   5.834   5.028
 3282POPC   PO444904  31.982   5.395   5.535
 3282POPC   GL144905  32.154   5.660   5.875
 3282POPC   GL244906  32.189   6.018   5.856
 3282POPC   C1A44907  32.331   5.593   6.290
 3282POPC   D2A44908  32.564   5.622   6.683
 3282POPC   C3A44909  32.292   5.722   7.047
 3282POPC   C4A44910  32.019   5.728   7.431
 3282POPC   C1B44911  32.429   6.099   6.232
 3282POPC   C2B44912  32.271   6.077   6.646
 3282POPC   C3B44913  32.208   6.254   7.048
 3282POPC   C4B44914  32.427   6.057   7.412
 3283POPC   NC344915  41.604  34.690   5.348
 3283POPC   PO444916  41.355  34.201   5.619
 3283POPC   GL144917  41.391  34.630   5.829
 3283POPC   GL244918  41.342  34.997   5.727
 3283POPC   C1A44919  41.583  34.727   6.242
 3283POPC   D2A44920  41.479  34.485   6.629
 3283POPC   C3A44921  41.604  34.659   7.028
 3283POPC   C4A44922  41.687  34.785   7.524
 3283POPC   C1B44923  41.118  34.919   6.151
 3283POPC   C2B44924  41.249  34.946   6.579
 3283POPC   C3B44925  41.082  34.949   6.975
 3283POPC   C4B44926  41.227  34.731   7.343
 3284POPC   NC344927  41.623  12.527   5.452
 3284POPC   PO444928  41.491  13.179   5.474
 3284POPC   GL144929  41.470  12.855   5.818
 3284POPC   GL244930  41.275  12.512   5.832
 3284POPC   C1A44931  41.733  12.731   6.176
 3284POPC   D2A44932  41.841  12.484   6.549
 3284POPC   C3A44933  41.697  12.579   6.978
 3284POPC   C4A44934  41.542  12.878   7.305
 3284POPC   C1B44935  41.217  12.656   6.258
 3284POPC   C2B44936  41.293  12.641   6.693
 3284POPC   C3B44937  41.106  12.666   7.104
 3284POPC   C4B44938  41.241  12.557   7.541
 3285POPC   NC344939  19.285  43.173   5.378
 3285POPC   PO444940  18.663  42.964   5.374
 3285POPC   GL144941  18.910  43.144   5.734
 3285POPC   GL244942  18.871  42.897   6.003
 3285POPC   C1A44943  19.189  43.263   6.092
 3285POPC   D2A44944  19.055  43.345   6.500
 3285POPC   C3A44945  19.245  43.201   6.837
 3285POPC   C4A44946  19.187  43.344   7.213
 3285POPC   C1B44947  18.675  43.170   6.243
 3285POPC   C2B44948  18.606  43.006   6.660
 3285POPC   C3B44949  18.762  43.042   7.077
 3285POPC   C4B44950  18.693  43.037   7.546
 3286POPC   NC344951  24.795  26.950   5.267
 3286POPC   PO444952  24.387  26.402   5.509
 3286POPC   GL144953  24.489  26.643   5.861
 3286POPC   GL244954  24.555  27.004   5.781
 3286POPC   C1A44955  24.533  26.644   6.299
 3286POPC   D2A44956  24.229  26.785   6.613
 3286POPC   C3A44957  24.296  26.654   6.998
 3286POPC   C4A44958  24.529  26.947   7.174
 3286POPC   C1B44959  24.394  27.117   6.231
 3286POPC   C2B44960  24.613  27.122   6.693
 3286POPC   C3B44961  24.834  27.344   7.074
 3286POPC   C4B44962  24.734  27.224   7.551
 3287POPC   NC344963  39.524  19.995   5.473
 3287POPC   PO444964  40.076  19.596   5.364
 3287POPC   GL144965  39.903  19.694   5.764
 3287POPC   GL244966  39.698  19.421   5.861
 3287POPC   C1A44967  40.099  19.804   6.168
 3287POPC   D2A44968  40.035  19.979   6.549
 3287POPC   C3A44969  40.151  19.800   6.907
 3287POPC   C4A44970  39.985  19.785   7.287
 3287POPC   C1B44971  39.653  19.612   6.237
 3287POPC   C2B44972  39.857  19.502   6.601
 3287POPC   C3B44973  39.680  19.514   6.998
 3287POPC   C4B44974  39.454  19.805   7.265
 3288POPC   NC344975  23.193  15.625   5.439
 3288POPC   PO444976  22.703  16.038   5.332
 3288POPC   GL144977  22.796  15.989   5.782
 3288POPC   GL244978  23.158  15.947   5.825
 3288POPC   C1A44979  22.803  15.868   6.197
 3288POPC   D2A44980  23.093  15.595   6.359
 3288POPC   C3A44981  23.266  15.646   6.750
 3288POPC   C4A44982  23.148  15.688   7.179
 3288POPC   C1B44983  23.253  16.138   6.215
 3288POPC   C2B44984  23.047  16.087   6.599
 3288POPC   C3B44985  22.853  16.155   6.973
 3288POPC   C4B44986  22.766  15.991   7.360
 3289POPC   NC344987  42.627  41.072   5.163
 3289POPC   PO444988  41.990  40.800   5.321
 3289POPC   GL144989  42.102  40.811   5.741
 3289POPC   GL244990  42.489  40.847   5.710
 3289POPC   C1A44991  42.070  40.643   6.166
 3289POPC   D2A44992  42.295  40.396   6.498
 3289POPC   C3A44993  42.289  40.619   6.892
 3289POPC   C4A44994  42.254  40.778   7.293
 3289POPC   C1B44995  42.604  40.711   6.174
 3289POPC   C2B44996  42.734  40.707   6.634
 3289POPC   C3B44997  42.691  40.908   7.068
 3289POPC   C4B44998  42.693  40.793   7.550
 3290POPC   NC344999  43.670  40.672   5.406
 3290POPC   PO445000  42.990  40.781   5.299
 3290POPC   GL145001  43.050  40.777   5.731
 3290POPC   GL245002  42.875  40.490   5.799
 3290POPC   C1A45003  43.193  40.981   6.120
 3290POPC   D2A45004  43.433  41.065   6.510
 3290POPC   C3A45005  43.208  40.963   6.890
 3290POPC   C4A45006  43.133  40.929   7.326
 3290POPC   C1B45007  43.120  40.470   6.198
 3290POPC   C2B45008  43.209  40.472   6.656
 3290POPC   C3B45009  42.987  40.499   7.067
 3290POPC   C4B45010  43.092  40.470   7.517
 3291POPC   NC345011  16.547  36.166   5.422
 3291POPC   PO445012  17.051  36.627   5.716
 3291POPC   GL145013  16.645  36.461   5.862
 3291POPC   GL245014  16.302  36.451   5.753
 3291POPC   C1A45015  16.606  36.098   6.151
 3291POPC   D2A45016  16.968  35.973   6.429
 3291POPC   C3A45017  16.870  36.134   6.845
 3291POPC   C4A45018  17.011  36.055   7.256
 3291POPC   C1B45019  16.200  36.443   6.198
 3291POPC   C2B45020  16.353  36.224   6.593
 3291POPC   C3B45021  16.458  36.364   7.007
 3291POPC   C4B45022  16.624  36.327   7.408
 3292POPC   NC345023  40.781  28.811   5.231
 3292POPC   PO445024  40.774  28.117   5.373
 3292POPC   GL145025  40.918  28.418   5.665
 3292POPC   GL245026  41.043  28.757   5.696
 3292POPC   C1A45027  40.914  28.363   6.118
 3292POPC   D2A45028  40.676  28.460   6.489
 3292POPC   C3A45029  40.835  28.353   6.889
 3292POPC   C4A45030  40.568  28.471   7.195
 3292POPC   C1B45031  41.080  28.884   6.152
 3292POPC   C2B45032  41.344  28.829   6.537
 3292POPC   C3B45033  41.186  28.791   6.960
 3292POPC   C4B45034  41.108  28.559   7.319
 3293POPC   NC345035  10.768  37.607   5.474
 3293POPC   PO445036  10.280  38.063   5.461
 3293POPC   GL145037  10.477  37.878   5.794
 3293POPC   GL245038  10.833  37.914   5.905
 3293POPC   C1A45039  10.426  37.735   6.174
 3293POPC   D2A45040  10.570  37.479   6.463
 3293POPC   C3A45041  10.524  37.686   6.846
 3293POPC   C4A45042  10.299  37.610   7.201
 3293POPC   C1B45043  10.802  38.002   6.387
 3293POPC   C2B45044  10.873  38.072   6.820
 3293POPC   C3B45045  10.946  37.766   7.163
 3293POPC   C4B45046  10.931  37.731   7.624
 3294POPC   NC345047   8.815  22.453   5.036
 3294POPC   PO445048   8.794  21.827   5.282
 3294POPC   GL145049   8.809  22.066   5.705
 3294POPC   GL245050   9.064  22.359   5.758
 3294POPC   C1A45051   8.823  22.054   6.178
 3294POPC   D2A45052   8.970  21.898   6.614
 3294POPC   C3A45053   8.784  22.075   7.001
 3294POPC   C4A45054   8.684  21.891   7.398
 3294POPC   C1B45055   9.047  22.554   6.190
 3294POPC   C2B45056   9.053  22.421   6.643
 3294POPC   C3B45057   9.271  22.224   6.994
 3294POPC   C4B45058   9.296  22.353   7.413
 3295POPC   NC345059  20.193   5.613   4.969
 3295POPC   PO445060  19.687   5.704   5.394
 3295POPC   GL145061  19.595   5.822   5.821
 3295POPC   GL245062  19.930   5.948   5.901
 3295POPC   C1A45063  19.592   5.743   6.292
 3295POPC   D2A45064  19.670   5.976   6.700
 3295POPC   C3A45065  19.544   5.844   7.126
 3295POPC   C4A45066  19.755   5.878   7.523
 3295POPC   C1B45067  19.974   6.165   6.305
 3295POPC   C2B45068  20.200   6.062   6.688
 3295POPC   C3B45069  20.084   5.909   7.107
 3295POPC   C4B45070  20.265   5.908   7.530
 3296POPC   NC345071   6.007  23.304   5.538
 3296POPC   PO445072   5.715  23.852   5.404
 3296POPC   GL145073   5.669  23.605   5.804
 3296POPC   GL245074   5.993  23.551   5.987
 3296POPC   C1A45075   5.511  23.536   6.245
 3296POPC   D2A45076   5.730  23.464   6.659
 3296POPC   C3A45077   5.594  23.700   7.004
 3296POPC   C4A45078   5.701  23.654   7.432
 3296POPC   C1B45079   6.127  23.861   6.331
 3296POPC   C2B45080   6.048  23.910   6.797
 3296POPC   C3B45081   6.181  23.944   7.233
 3296POPC   C4B45082   6.257  23.986   7.682
 3297POPC   NC345083   0.317  36.285   5.289
 3297POPC   PO445084   0.892  35.903   5.408
 3297POPC   GL145085   0.510  35.907   5.658
 3297POPC   GL245086   0.384  35.602   5.827
 3297POPC   C1A45087   0.368  36.204   5.991
 3297POPC   D2A45088   0.283  36.412   6.408
 3297POPC   C3A45089   0.491  36.284   6.790
 3297POPC   C4A45090   0.376  36.394   7.224
 3297POPC   C1B45091   0.563  35.774   6.194
 3297POPC   C2B45092   0.702  35.833   6.614
 3297POPC   C3B45093   0.535  35.805   7.007
 3297POPC   C4B45094   0.493  35.587   7.413
 3298POPC   NC345095  42.813  33.676   5.508
 3298POPC   PO445096  42.290  34.107   5.560
 3298POPC   GL145097  42.358  33.729   5.798
 3298POPC   GL245098  42.059  33.558   5.883
 3298POPC   C1A45099  42.569  33.655   6.181
 3298POPC   D2A45100  42.584  33.788   6.605
 3298POPC   C3A45101  42.779  33.540   6.909
 3298POPC   C4A45102  42.566  33.472   7.265
 3298POPC   C1B45103  42.056  33.778   6.288
 3298POPC   C2B45104  42.094  33.676   6.736
 3298POPC   C3B45105  42.310  33.882   7.081
 3298POPC   C4B45106  42.140  34.066   7.473
 3299POPC   NC345107  31.793   7.387   5.345
 3299POPC   PO445108  31.237   7.629   5.622
 3299POPC   GL145109  31.407   7.572   5.951
 3299POPC   GL245110  31.433   7.214   5.948
 3299POPC   C1A45111  31.206   7.598   6.334
 3299POPC   D2A45112  31.271   7.364   6.661
 3299POPC   C3A45113  31.089   7.401   7.028
 3299POPC   C4A45114  31.295   7.071   7.252
 3299POPC   C1B45115  31.662   7.329   6.311
 3299POPC   C2B45116  31.674   7.659   6.576
 3299POPC   C3B45117  31.629   7.573   6.975
 3299POPC   C4B45118  31.780   7.235   7.205
 3300POPC   NC345119  33.257   2.751   5.387
 3300POPC   PO445120  32.596   2.892   5.456
 3300POPC   GL145121  32.850   2.777   5.826
 3300POPC   GL245122  33.219   2.913   5.876
 3300POPC   C1A45123  32.746   2.648   6.274
 3300POPC   D2A45124  32.938   2.602   6.723
 3300POPC   C3A45125  32.760   2.582   7.164
 3300POPC   C4A45126  32.587   2.436   7.547
 3300POPC   C1B45127  33.205   2.870   6.333
 3300POPC   C2B45128  33.291   2.998   6.760
 3300POPC   C3B45129  33.259   2.879   7.226
 3300POPC   C4B45130  33.308   2.970   7.681
 3301POPC   NC345131  39.427  31.772   5.402
 3301POPC   PO445132  38.937  31.285   5.382
 3301POPC   GL145133  39.053  31.349   5.808
 3301POPC   GL245134  39.185  31.676   5.845
 3301POPC   C1A45135  39.164  31.285   6.242
 3301POPC   D2A45136  38.933  31.331   6.625
 3301POPC   C3A45137  39.222  31.200   6.952
 3301POPC   C4A45138  39.345  31.266   7.348
 3301POPC   C1B45139  39.396  31.744   6.240
 3301POPC   C2B45140  39.415  31.592   6.681
 3301POPC   C3B45141  39.467  31.728   7.130
 3301POPC   C4B45142  39.347  31.752   7.592
 3302POPC   NC345143  10.046   3.224   5.280
 3302POPC   PO445144   9.762   3.784   5.346
 3302POPC   GL145145   9.850   3.511   5.719
 3302POPC   GL245146   9.612   3.635   5.969
 3302POPC   C1A45147  10.001   3.307   6.112
 3302POPC   D2A45148  10.140   3.447   6.531
 3302POPC   C3A45149  10.091   3.285   6.954
 3302POPC   C4A45150   9.785   3.356   7.268
 3302POPC   C1B45151   9.514   3.344   6.316
 3302POPC   C2B45152   9.588   3.363   6.758
 3302POPC   C3B45153   9.433   3.674   7.073
 3302POPC   C4B45154   9.329   3.586   7.496
 3303POPC   NC345155  21.882  31.531   5.444
 3303POPC   PO445156  22.596  31.497   5.422
 3303POPC   GL145157  22.420  31.748   5.749
 3303POPC   GL245158  22.074  31.692   5.860
 3303POPC   C1A45159  22.457  31.656   6.190
 3303POPC   D2A45160  22.442  31.309   6.491
 3303POPC   C3A45161  22.297  31.363   6.897
 3303POPC   C4A45162  22.087  31.138   7.248
 3303POPC   C1B45163  22.003  31.426   6.199
 3303POPC   C2B45164  21.942  31.561   6.571
 3303POPC   C3B45165  21.789  31.379   6.918
 3303POPC   C4B45166  21.885  31.677   7.205
 3304POPC   NC345167  24.527   9.722   5.120
 3304POPC   PO445168  24.386  10.150   5.597
 3304POPC   GL145169  24.437   9.738   5.714
 3304POPC   GL245170  24.733   9.623   5.580
 3304POPC   C1A45171  24.511   9.688   6.145
 3304POPC   D2A45172  24.348   9.656   6.534
 3304POPC   C3A45173  24.273  10.063   6.724
 3304POPC   C4A45174  24.510   9.987   7.066
 3304POPC   C1B45175  24.894   9.435   5.941
 3304POPC   C2B45176  24.899   9.467   6.417
 3304POPC   C3B45177  24.793   9.550   6.874
 3304POPC   C4B45178  25.009   9.569   7.288
 3305POPC   NC345179  35.893  26.065   5.245
 3305POPC   PO445180  36.308  25.533   5.304
 3305POPC   GL145181  36.198  25.643   5.728
 3305POPC   GL245182  36.062  25.992   5.738
 3305POPC   C1A45183  36.366  25.848   6.107
 3305POPC   D2A45184  36.163  26.151   6.379
 3305POPC   C3A45185  36.229  26.123   6.852
 3305POPC   C4A45186  36.129  26.073   7.296
 3305POPC   C1B45187  35.863  25.774   6.134
 3305POPC   C2B45188  35.747  25.915   6.558
 3305POPC   C3B45189  35.737  26.083   6.966
 3305POPC   C4B45190  35.676  25.845   7.327
 3306POPC   NC345191  38.211  27.005   5.484
 3306POPC   PO445192  38.702  26.514   5.354
 3306POPC   GL145193  38.605  26.663   5.768
 3306POPC   GL245194  38.246  26.706   5.872
 3306POPC   C1A45195  38.581  26.549   6.222
 3306POPC   D2A45196  38.296  26.755   6.535
 3306POPC   C3A45197  38.432  26.624   6.925
 3306POPC   C4A45198  38.790  26.748   7.157
 3306POPC   C1B45199  38.458  27.027   6.127
 3306POPC   C2B45200  38.662  27.247   6.463
 3306POPC   C3B45201  38.673  27.172   6.900
 3306POPC   C4B45202  38.298  27.051   7.179
 3307POPC   NC345203  24.890  28.720   5.359
 3307POPC   PO445204  25.360  29.192   5.463
 3307POPC   GL145205  25.339  28.995   5.821
 3307POPC   GL245206  25.034  28.775   5.832
 3307POPC   C1A45207  25.394  29.199   6.225
 3307POPC   D2A45208  25.196  29.279   6.614
 3307POPC   C3A45209  25.367  29.006   6.961
 3307POPC   C4A45210  25.471  29.123   7.377
 3307POPC   C1B45211  24.946  28.977   6.203
 3307POPC   C2B45212  25.036  28.797   6.608
 3307POPC   C3B45213  24.870  29.022   6.958
 3307POPC   C4B45214  24.975  29.019   7.374
 3308POPC   NC345215  36.389  13.780   5.390
 3308POPC   PO445216  36.813  13.392   5.395
 3308POPC   GL145217  36.869  13.530   5.805
 3308POPC   GL245218  36.736  13.833   5.787
 3308POPC   C1A45219  37.095  13.682   6.179
 3308POPC   D2A45220  36.942  13.559   6.585
 3308POPC   C3A45221  37.171  13.528   7.014
 3308POPC   C4A45222  37.142  13.863   7.357
 3308POPC   C1B45223  36.592  13.812   6.188
 3308POPC   C2B45224  36.753  14.026   6.554
 3308POPC   C3B45225  36.811  13.883   6.967
 3308POPC   C4B45226  36.594  13.762   7.321
 3309POPC   NC345227  10.051   6.645   5.301
 3309POPC   PO445228   9.350   6.587   5.336
 3309POPC   GL145229   9.635   6.599   5.744
 3309POPC   GL245230   9.946   6.405   5.750
 3309POPC   C1A45231   9.478   6.704   6.173
 3309POPC   D2A45232   9.379   6.932   6.548
 3309POPC   C3A45233   9.436   6.752   6.918
 3309POPC   C4A45234   9.542   6.903   7.261
 3309POPC   C1B45235   9.994   6.713   6.099
 3309POPC   C2B45236  10.113   6.639   6.533
 3309POPC   C3B45237   9.999   6.777   6.942
 3309POPC   C4B45238   9.898   6.538   7.315
 3310POPC   NC345239  43.458   1.390   5.128
 3310POPC   PO445240  43.175   1.029   5.668
 3310POPC   GL145241  43.024   1.335   5.923
 3310POPC   GL245242  42.691   1.456   5.954
 3310POPC   C1A45243  43.151   1.504   6.294
 3310POPC   D2A45244  43.490   1.425   6.561
 3310POPC   C3A45245  43.451   1.465   7.003
 3310POPC   C4A45246  43.272   1.109   7.187
 3310POPC   C1B45247  42.751   1.034   6.208
 3310POPC   C2B45248  43.042   1.006   6.548
 3310POPC   C3B45249  42.820   1.089   6.918
 3310POPC   C4B45250  42.807   0.994   7.326
 3311POPC   NC345251  42.033   9.878   5.529
 3311POPC   PO445252  41.376   9.923   5.344
 3311POPC   GL145253  41.577   9.790   5.729
 3311POPC   GL245254  41.414   9.516   5.817
 3311POPC   C1A45255  41.762   9.659   6.166
 3311POPC   D2A45256  41.958   9.812   6.552
 3311POPC   C3A45257  41.756   9.859   6.969
 3311POPC   C4A45258  41.635   9.502   7.223
 3311POPC   C1B45259  41.299   9.866   6.142
 3311POPC   C2B45260  41.415   9.857   6.547
 3311POPC   C3B45261  41.271   9.676   6.911
 3311POPC   C4B45262  41.285   9.878   7.279
 3312POPC   NC345263  33.602  32.513   5.166
 3312POPC   PO445264  33.785  33.086   5.484
 3312POPC   GL145265  33.998  33.053   5.812
 3312POPC   GL245266  34.166  33.346   5.787
 3312POPC   C1A45267  33.826  33.106   6.193
 3312POPC   D2A45268  33.641  32.970   6.551
 3312POPC   C3A45269  33.825  33.055   6.935
 3312POPC   C4A45270  33.648  32.948   7.341
 3312POPC   C1B45271  34.316  33.193   6.193
 3312POPC   C2B45272  34.331  33.057   6.598
 3312POPC   C3B45273  34.352  33.355   6.950
 3312POPC   C4B45274  34.074  33.324   7.266
 3313POPC   NC345275  19.249  15.581   5.342
 3313POPC   PO445276  18.774  15.084   5.354
 3313POPC   GL145277  18.858  15.243   5.754
 3313POPC   GL245278  19.217  15.241   5.742
 3313POPC   C1A45279  18.880  15.146   6.202
 3313POPC   D2A45280  18.844  15.399   6.594
 3313POPC   C3A45281  18.925  15.239   7.020
 3313POPC   C4A45282  18.724  14.883   7.174
 3313POPC   C1B45283  19.398  15.108   6.138
 3313POPC   C2B45284  19.422  15.162   6.586
 3313POPC   C3B45285  19.564  15.343   6.986
 3313POPC   C4B45286  19.359  15.240   7.359
 3314POPC   NC345287  43.905  10.562   5.378
 3314POPC   PO445288  44.189  10.287   5.820
 3314POPC   GL145289  43.728  10.355   5.902
 3314POPC   GL245290  43.572  10.678   5.761
 3314POPC   C1A45291  43.687  10.306   6.351
 3314POPC   D2A45292  44.071  10.296   6.626
 3314POPC   C3A45293  43.977  10.415   7.039
 3314POPC   C4A45294  43.648  10.280   7.394
 3314POPC   C1B45295  43.801  10.805   6.150
 3314POPC   C2B45296  43.812  10.751   6.592
 3314POPC   C3B45297  43.978  10.921   6.961
 3314POPC   C4B45298  43.735  10.780   7.269
 3315POPC   NC345299  41.836  34.134   5.480
 3315POPC   PO445300  41.457  33.599   5.327
 3315POPC   GL145301  41.545  33.592   5.763
 3315POPC   GL245302  41.657  33.887   5.892
 3315POPC   C1A45303  41.656  33.471   6.194
 3315POPC   D2A45304  41.503  33.646   6.568
 3315POPC   C3A45305  41.640  33.520   6.951
 3315POPC   C4A45306  41.994  33.486   7.213
 3315POPC   C1B45307  41.581  34.071   6.278
 3315POPC   C2B45308  41.821  34.092   6.650
 3315POPC   C3B45309  41.801  33.994   7.080
 3315POPC   C4B45310  41.652  34.277   7.372
 3316POPC   NC345311  39.241  39.063   5.066
 3316POPC   PO445312  39.662  39.512   5.332
 3316POPC   GL145313  39.564  39.316   5.720
 3316POPC   GL245314  39.391  38.988   5.645
 3316POPC   C1A45315  39.307  39.460   6.088
 3316POPC   D2A45316  39.216  39.606   6.508
 3316POPC   C3A45317  39.417  39.408   6.852
 3316POPC   C4A45318  39.177  39.360   7.229
 3316POPC   C1B45319  39.498  38.987   6.118
 3316POPC   C2B45320  39.340  39.002   6.546
 3316POPC   C3B45321  39.386  38.937   6.996
 3316POPC   C4B45322  39.126  38.761   7.241
 3317POPC   NC345323  32.922  31.475   5.210
 3317POPC   PO445324  32.278  31.307   5.408
 3317POPC   GL145325  32.162  31.419   5.825
 3317POPC   GL245326  32.459  31.517   5.864
 3317POPC   C1A45327  32.089  31.380   6.296
 3317POPC   D2A45328  32.280  31.375   6.727
 3317POPC   C3A45329  32.140  31.343   7.184
 3317POPC   C4A45330  32.011  31.197   7.619
 3317POPC   C1B45331  32.586  31.618   6.259
 3317POPC   C2B45332  32.752  31.479   6.610
 3317POPC   C3B45333  32.643  31.610   7.010
 3317POPC   C4B45334  32.608  31.419   7.405
 3318POPC   NC345335  38.137  19.812   5.347
 3318POPC   PO445336  38.819  19.843   5.417
 3318POPC   GL145337  38.524  19.954   5.699
 3318POPC   GL245338  38.398  19.625   5.780
 3318POPC   C1A45339  38.440  19.993   6.133
 3318POPC   D2A45340  38.440  19.921   6.552
 3318POPC   C3A45341  38.426  20.195   6.915
 3318POPC   C4A45342  38.465  19.969   7.303
 3318POPC   C1B45343  38.199  19.462   6.161
 3318POPC   C2B45344  38.071  19.454   6.606
 3318POPC   C3B45345  38.307  19.580   6.986
 3318POPC   C4B45346  38.282  19.500   7.446
 3319POPC   NC345347  27.239   4.384   5.626
 3319POPC   PO445348  26.683   4.179   5.283
 3319POPC   GL145349  26.744   4.282   5.767
 3319POPC   GL245350  26.857   4.598   5.907
 3319POPC   C1A45351  26.847   4.222   6.239
 3319POPC   D2A45352  26.617   4.249   6.631
 3319POPC   C3A45353  26.742   4.055   7.011
 3319POPC   C4A45354  26.845   4.270   7.384
 3319POPC   C1B45355  26.976   4.738   6.301
 3319POPC   C2B45356  27.127   4.516   6.630
 3319POPC   C3B45357  26.907   4.537   6.965
 3319POPC   C4B45358  26.871   4.793   7.293
 3320POPC   NC345359  43.708  33.279   4.907
 3320POPC   PO445360  43.831  32.882   5.487
 3320POPC   GL145361  43.977  33.044   5.843
 3320POPC   GL245362  44.187  33.335   5.738
 3320POPC   C1A45363  43.686  33.014   6.191
 3320POPC   D2A45364  43.522  33.041   6.571
 3320POPC   C3A45365  43.746  32.895   6.905
 3320POPC   C4A45366  43.763  33.048   7.310
 3320POPC   C1B45367  44.295  33.324   6.176
 3320POPC   C2B45368  44.039  33.200   6.513
 3320POPC   C3B45369  43.940  33.361   6.924
 3320POPC   C4B45370  44.234  33.262   7.259
 3321POPC   NC345371  15.435  41.593   5.384
 3321POPC   PO445372  14.989  41.087   5.349
 3321POPC   GL145373  15.083  41.363   5.724
 3321POPC   GL245374  15.410  41.261   5.878
 3321POPC   C1A45375  15.065  41.575   6.173
 3321POPC   D2A45376  14.878  41.663   6.622
 3321POPC   C3A45377  15.013  41.727   7.086
 3321POPC   C4A45378  14.971  41.435   7.480
 3321POPC   C1B45379  15.555  41.514   6.277
 3321POPC   C2B45380  15.412  41.645   6.685
 3321POPC   C3B45381  15.538  41.823   7.077
 3321POPC   C4B45382  15.430  41.588   7.413
 3322POPC   NC345383  26.571  35.134   5.468
 3322POPC   PO445384  26.073  34.966   5.104
 3322POPC   GL145385  26.074  35.022   5.596
 3322POPC   GL245386  26.119  35.404   5.623
 3322POPC   C1A45387  25.951  35.166   6.061
 3322POPC   D2A45388  25.744  35.062   6.498
 3322POPC   C3A45389  25.898  35.254   6.896
 3322POPC   C4A45390  25.875  35.084   7.324
 3322POPC   C1B45391  26.295  35.568   6.014
 3322POPC   C2B45392  26.217  35.584   6.459
 3322POPC   C3B45393  26.279  35.664   6.908
 3322POPC   C4B45394  26.024  35.771   7.255
 3323POPC   NC345395   2.579   3.269   5.269
 3323POPC   PO445396   3.064   3.624   5.465
 3323POPC   GL145397   3.105   3.563   5.885
 3323POPC   GL245398   2.733   3.561   5.918
 3323POPC   C1A45399   3.051   3.584   6.324
 3323POPC   D2A45400   3.178   3.374   6.670
 3323POPC   C3A45401   3.155   3.575   7.043
 3323POPC   C4A45402   3.063   3.341   7.383
 3323POPC   C1B45403   2.613   3.849   6.288
 3323POPC   C2B45404   2.746   3.704   6.713
 3323POPC   C3B45405   2.646   3.578   7.125
 3323POPC   C4B45406   2.612   3.826   7.493
 3324POPC   NC345407  40.396  24.626   5.159
 3324POPC   PO445408  39.759  24.571   5.377
 3324POPC   GL145409  39.916  24.329   5.795
 3324POPC   GL245410  39.705  24.142   5.994
 3324POPC   C1A45411  40.147  24.357   6.214
 3324POPC   D2A45412  40.111  24.566   6.625
 3324POPC   C3A45413  40.152  24.344   7.006
 3324POPC   C4A45414  40.246  24.553   7.378
 3324POPC   C1B45415  39.673  24.491   6.322
 3324POPC   C2B45416  39.614  24.543   6.780
 3324POPC   C3B45417  39.740  24.522   7.221
 3324POPC   C4B45418  39.744  24.437   7.636
 3325POPC   NC345419   0.452  40.440   5.393
 3325POPC   PO445420   0.145  39.825   5.514
 3325POPC   GL145421   0.422  40.012   5.819
 3325POPC   GL245422   0.253  39.768   6.032
 3325POPC   C1A45423   0.676  39.941   6.220
 3325POPC   D2A45424   0.517  39.862   6.646
 3325POPC   C3A45425   0.731  40.022   6.989
 3325POPC   C4A45426   0.680  40.247   7.378
 3325POPC   C1B45427   0.117  40.139   6.248
 3325POPC   C2B45428   0.210  40.297   6.659
 3325POPC   C3B45429   0.217  40.108   7.047
 3325POPC   C4B45430   0.375  39.716   7.220
 3326POPC   NC345431  43.582  24.638   5.230
 3326POPC   PO445432  44.163  24.330   5.292
 3326POPC   GL145433  44.043  24.422   5.727
 3326POPC   GL245434  43.733  24.588   5.751
 3326POPC   C1A45435  44.141  24.469   6.174
 3326POPC   D2A45436  43.921  24.747   6.496
 3326POPC   C3A45437  43.771  24.581   6.924
 3326POPC   C4A45438  43.915  24.249   7.184
 3326POPC   C1B45439  43.566  24.841   6.132
 3326POPC   C2B45440  43.428  24.846   6.612
 3326POPC   C3B45441  43.516  25.022   7.027
 3326POPC   C4B45442  43.559  24.840   7.444
 3327POPC   NC345443  44.531  26.803   5.328
 3327POPC   PO445444  44.698  26.401   5.455
 3327POPC   GL145445  44.662  26.651   5.859
 3327POPC   GL245446  44.991  26.789   5.933
 3327POPC   C1A45447  44.640  26.920   6.286
 3327POPC   D2A45448  44.638  26.967   6.771
 3327POPC   C3A45449  44.728  26.586   7.019
 3327POPC   C4A45450  44.950  26.430   7.405
 3327POPC   C1B45451   0.135  27.075   6.286
 3327POPC   C2B45452   0.079  27.246   6.715
 3327POPC   C3B45453   0.074  26.993   7.084
 3327POPC   C4B45454  44.785  26.925   7.387
 3328POPC   NC345455  42.992  35.734   5.333
 3328POPC   PO445456  43.264  36.373   5.379
 3328POPC   GL145457  43.201  36.077   5.684
 3328POPC   GL245458  42.850  36.048   5.719
 3328POPC   C1A45459  43.208  36.030   6.131
 3328POPC   D2A45460  43.441  35.990   6.531
 3328POPC   C3A45461  43.231  36.066   6.935
 3328POPC   C4A45462  43.124  36.425   7.201
 3328POPC   C1B45463  42.774  35.728   6.058
 3328POPC   C2B45464  42.568  35.784   6.468
 3328POPC   C3B45465  42.681  36.037   6.844
 3328POPC   C4B45466  42.829  35.946   7.261
 3329POPC   NC345467  40.414  22.371   5.385
 3329POPC   PO445468  40.542  21.725   5.343
 3329POPC   GL145469  40.641  21.829   5.828
 3329POPC   GL245470  40.701  22.176   5.820
 3329POPC   C1A45471  40.904  21.989   6.247
 3329POPC   D2A45472  41.085  22.238   6.621
 3329POPC   C3A45473  41.019  22.026   7.029
 3329POPC   C4A45474  40.607  21.990   7.175
 3329POPC   C1B45475  40.561  22.349   6.241
 3329POPC   C2B45476  40.589  22.257   6.690
 3329POPC   C3B45477  40.688  22.474   7.078
 3329POPC   C4B45478  40.471  22.390   7.489
 3330POPC   NC345479  40.345  27.917   5.417
 3330POPC   PO445480  40.985  27.625   5.279
 3330POPC   GL145481  40.747  27.676   5.696
 3330POPC   GL245482  40.986  27.462   5.813
 3330POPC   C1A45483  40.772  27.800   6.154
 3330POPC   D2A45484  40.527  27.693   6.544
 3330POPC   C3A45485  40.717  27.782   6.934
 3330POPC   C4A45486  40.695  27.593   7.346
 3330POPC   C1B45487  41.142  27.421   6.229
 3330POPC   C2B45488  41.076  27.610   6.613
 3330POPC   C3B45489  41.098  27.492   7.074
 3330POPC   C4B45490  41.149  27.641   7.523
 3331POPC   NC345491  37.471  14.707   5.458
 3331POPC   PO445492  37.972  15.216   5.435
 3331POPC   GL145493  37.626  15.159   5.706
 3331POPC   GL245494  37.770  14.877   5.848
 3331POPC   C1A45495  37.579  15.211   6.161
 3331POPC   D2A45496  37.893  15.238   6.497
 3331POPC   C3A45497  37.772  15.393   6.875
 3331POPC   C4A45498  37.474  15.352   7.220
 3331POPC   C1B45499  38.034  14.841   6.212
 3331POPC   C2B45500  37.949  14.685   6.618
 3331POPC   C3B45501  37.746  14.870   6.942
 3331POPC   C4B45502  37.897  15.050   7.297
 3332POPC   NC345503  18.889   1.442   5.351
 3332POPC   PO445504  18.903   0.783   5.089
 3332POPC   GL145505  18.939   1.028   5.627
 3332POPC   GL245506  19.041   1.390   5.815
 3332POPC   C1A45507  19.010   1.012   6.104
 3332POPC   D2A45508  19.181   1.117   6.508
 3332POPC   C3A45509  19.100   0.890   6.876
 3332POPC   C4A45510  19.167   1.021   7.286
 3332POPC   C1B45511  18.794   1.435   6.234
 3332POPC   C2B45512  18.823   1.444   6.721
 3332POPC   C3B45513  18.937   1.480   7.154
 3332POPC   C4B45514  19.359   1.510   7.307
 3333POPC   NC345515  33.925  36.513   5.390
 3333POPC   PO445516  34.104  37.062   5.284
 3333POPC   GL145517  34.098  36.878   5.709
 3333POPC   GL245518  33.735  36.826   5.786
 3333POPC   C1A45519  34.093  36.821   6.175
 3333POPC   D2A45520  33.921  36.600   6.558
 3333POPC   C3A45521  33.999  36.773   6.984
 3333POPC   C4A45522  34.061  37.201   7.063
 3333POPC   C1B45523  33.601  36.924   6.239
 3333POPC   C2B45524  33.677  37.052   6.691
 3333POPC   C3B45525  33.539  37.017   7.131
 3333POPC   C4B45526  33.321  37.050   7.538
 3334POPC   NC345527  26.595   6.190   5.401
 3334POPC   PO445528  26.677   5.506   5.392
 3334POPC   GL145529  26.917   5.633   5.753
 3334POPC   GL245530  26.799   5.952   5.796
 3334POPC   C1A45531  26.752   5.626   6.185
 3334POPC   D2A45532  26.703   5.856   6.548
 3334POPC   C3A45533  26.663   5.672   6.941
 3334POPC   C4A45534  26.809   5.806   7.327
 3334POPC   C1B45535  26.966   6.102   6.174
 3334POPC   C2B45536  27.186   6.055   6.562
 3334POPC   C3B45537  27.004   6.109   6.962
 3334POPC   C4B45538  27.248   6.062   7.323
 3335POPC   NC345539   2.585  17.182   5.412
 3335POPC   PO445540   2.941  17.788   5.376
 3335POPC   GL145541   2.886  17.567   5.832
 3335POPC   GL245542   2.639  17.272   5.930
 3335POPC   C1A45543   2.835  17.541   6.328
 3335POPC   D2A45544   2.942  17.491   6.801
 3335POPC   C3A45545   2.796  17.735   7.136
 3335POPC   C4A45546   2.379  17.882   7.161
 3335POPC   C1B45547   2.440  16.932   6.268
 3335POPC   C2B45548   2.462  16.983   6.751
 3335POPC   C3B45549   2.590  17.258   7.127
 3335POPC   C4B45550   2.468  17.516   7.512
 3336POPC   NC345551  29.162   3.181   5.691
 3336POPC   PO445552  29.241   3.789   5.369
 3336POPC   GL145553  29.340   3.657   5.729
 3336POPC   GL245554  29.000   3.642   5.858
 3336POPC   C1A45555  29.476   3.629   6.130
 3336POPC   D2A45556  29.493   3.369   6.509
 3336POPC   C3A45557  29.639   3.622   6.835
 3336POPC   C4A45558  29.529   3.659   7.249
 3336POPC   C1B45559  29.018   3.403   6.274
 3336POPC   C2B45560  29.034   3.151   6.650
 3336POPC   C3B45561  29.219   3.348   6.987
 3336POPC   C4B45562  29.278   3.252   7.439
 3337POPC   NC345563  17.029  16.306   5.564
 3337POPC   PO445564  16.568  16.865   5.464
 3337POPC   GL145565  16.664  16.648   5.807
 3337POPC   GL245566  17.005  16.773   5.803
 3337POPC   C1A45567  16.652  16.756   6.230
 3337POPC   D2A45568  16.626  17.012   6.579
 3337POPC   C3A45569  16.542  16.784   6.949
 3337POPC   C4A45570  16.421  16.799   7.385
 3337POPC   C1B45571  17.194  16.718   6.201
 3337POPC   C2B45572  16.995  16.643   6.589
 3337POPC   C3B45573  16.959  16.472   6.973
 3337POPC   C4B45574  17.191  16.725   7.251
 3338POPC   NC345575  11.559  41.544   5.390
 3338POPC   PO445576  10.865  41.331   5.484
 3338POPC   GL145577  11.119  41.606   5.751
 3338POPC   GL245578  11.323  41.308   5.774
 3338POPC   C1A45579  11.296  41.756   6.180
 3338POPC   D2A45580  11.507  41.846   6.632
 3338POPC   C3A45581  11.312  41.849   7.089
 3338POPC   C4A45582  11.482  41.993   7.533
 3338POPC   C1B45583  11.126  41.262   6.169
 3338POPC   C2B45584  11.361  41.355   6.537
 3338POPC   C3B45585  11.563  41.417   6.912
 3338POPC   C4B45586  11.364  41.367   7.293
 3339POPC   NC345587  38.154  32.465   5.133
 3339POPC   PO445588  38.678  32.134   5.387
 3339POPC   GL145589  38.463  32.160   5.765
 3339POPC   GL245590  38.761  32.205   5.927
 3339POPC   C1A45591  38.394  32.024   6.214
 3339POPC   D2A45592  38.571  32.190   6.599
 3339POPC   C3A45593  38.260  32.241   6.927
 3339POPC   C4A45594  38.235  32.530   7.234
 3339POPC   C1B45595  38.685  32.550   6.233
 3339POPC   C2B45596  38.804  32.669   6.654
 3339POPC   C3B45597  38.705  32.517   7.025
 3339POPC   C4B45598  38.702  32.080   7.092
 3340POPC   NC345599  32.478   6.764   5.313
 3340POPC   PO445600  32.251   6.150   5.367
 3340POPC   GL145601  32.202   6.519   5.703
 3340POPC   GL245602  31.963   6.833   5.767
 3340POPC   C1A45603  32.063   6.476   6.143
 3340POPC   D2A45604  32.072   6.560   6.572
 3340POPC   C3A45605  32.467   6.575   6.754
 3340POPC   C4A45606  32.583   6.612   7.189
 3340POPC   C1B45607  32.021   6.995   6.221
 3340POPC   C2B45608  32.016   7.040   6.713
 3340POPC   C3B45609  32.108   6.813   7.097
 3340POPC   C4B45610  32.007   6.948   7.555
 3341POPC   NC345611  36.867  15.996   5.382
 3341POPC   PO445612  36.574  16.554   5.527
 3341POPC   GL145613  36.806  16.328   5.801
 3341POPC   GL245614  36.552  16.088   5.784
 3341POPC   C1A45615  37.059  16.157   6.116
 3341POPC   D2A45616  36.987  15.991   6.538
 3341POPC   C3A45617  37.077  16.145   6.938
 3341POPC   C4A45618  36.942  16.076   7.359
 3341POPC   C1B45619  36.582  15.940   6.181
 3341POPC   C2B45620  36.512  15.746   6.552
 3341POPC   C3B45621  36.641  15.877   6.931
 3341POPC   C4B45622  36.440  15.954   7.278
 3342POPC   NC345623  34.069  44.172   5.323
 3342POPC   PO445624  33.608  43.705   5.454
 3342POPC   GL145625  33.756  43.958   5.756
 3342POPC   GL245626  33.809  43.659   5.969
 3342POPC   C1A45627  33.668  44.090   6.184
 3342POPC   D2A45628  33.716  43.839   6.549
 3342POPC   C3A45629  33.714  44.064   6.933
 3342POPC   C4A45630  34.019  44.336   7.065
 3342POPC   C1B45631  33.569  43.418   6.262
 3342POPC   C2B45632  33.671  43.343   6.691
 3342POPC   C3B45633  33.759  43.554   7.047
 3342POPC   C4B45634  33.660  43.605   7.475
 3343POPC   NC345635   7.121  20.955   5.244
 3343POPC   PO445636   7.443  20.403   5.308
 3343POPC   GL145637   7.382  20.445   5.763
 3343POPC   GL245638   7.437  20.785   5.793
 3343POPC   C1A45639   7.551  20.480   6.203
 3343POPC   D2A45640   7.459  20.688   6.592
 3343POPC   C3A45641   7.629  20.616   6.999
 3343POPC   C4A45642   7.352  20.647   7.366
 3343POPC   C1B45643   7.176  20.843   6.184
 3343POPC   C2B45644   6.962  20.837   6.552
 3343POPC   C3B45645   7.159  20.931   6.947
 3343POPC   C4B45646   6.911  20.937   7.299
 3344POPC   NC345647   0.269  37.033   5.276
 3344POPC   PO445648   0.688  36.545   5.161
 3344POPC   GL145649   0.540  36.694   5.612
 3344POPC   GL245650   0.266  36.969   5.777
 3344POPC   C1A45651   0.568  36.691   6.085
 3344POPC   D2A45652   0.739  36.717   6.514
 3344POPC   C3A45653   0.530  36.791   6.912
 3344POPC   C4A45654   0.612  36.884   7.348
 3344POPC   C1B45655   0.453  37.205   6.156
 3344POPC   C2B45656   0.657  37.235   6.584
 3344POPC   C3B45657   0.523  37.297   7.023
 3344POPC   C4B45658   0.136  37.240   7.263
 3345POPC   NC345659  26.029  38.638   5.288
 3345POPC   PO445660  26.339  38.046   5.386
 3345POPC   GL145661  26.177  38.407   5.726
 3345POPC   GL245662  25.855  38.602   5.759
 3345POPC   C1A45663  26.130  38.647   6.169
 3345POPC   D2A45664  25.899  38.748   6.570
 3345POPC   C3A45665  25.977  38.569   6.971
 3345POPC   C4A45666  26.142  38.553   7.387
 3345POPC   C1B45667  25.618  38.740   6.142
 3345POPC   C2B45668  25.398  38.676   6.571
 3345POPC   C3B45669  25.513  38.767   7.015
 3345POPC   C4B45670  25.659  38.667   7.462
 3346POPC   NC345671  20.793  26.422   5.513
 3346POPC   PO445672  20.792  27.082   5.565
 3346POPC   GL145673  20.636  26.801   5.831
 3346POPC   GL245674  20.320  26.907   5.787
 3346POPC   C1A45675  20.531  26.656   6.224
 3346POPC   D2A45676  20.807  26.560   6.568
 3346POPC   C3A45677  20.650  26.800   6.887
 3346POPC   C4A45678  20.699  26.735   7.280
 3346POPC   C1B45679  20.251  27.113   6.157
 3346POPC   C2B45680  20.395  27.063   6.534
 3346POPC   C3B45681  20.425  27.295   6.867
 3346POPC   C4B45682  20.432  27.157   7.266
 3347POPC   NC345683  25.477   4.910   5.548
 3347POPC   PO445684  25.276   5.587   5.401
 3347POPC   GL145685  25.428   5.398   5.826
 3347POPC   GL245686  25.759   5.398   6.017
 3347POPC   C1A45687  25.327   5.324   6.286
 3347POPC   D2A45688  25.496   5.186   6.696
 3347POPC   C3A45689  25.221   5.201   7.054
 3347POPC   C4A45690  25.049   5.102   7.472
 3347POPC   C1B45691  25.671   4.958   6.206
 3347POPC   C2B45692  25.665   4.700   6.628
 3347POPC   C3B45693  25.556   4.788   7.058
 3347POPC   C4B45694  25.554   5.047   7.420
 3348POPC   NC345695  11.123  11.378   5.337
 3348POPC   PO445696  11.836  11.362   5.332
 3348POPC   GL145697  11.626  11.193   5.734
 3348POPC   GL245698  11.311  11.323   5.796
 3348POPC   C1A45699  11.475  11.037   6.174
 3348POPC   D2A45700  11.445  11.282   6.553
 3348POPC   C3A45701  11.408  11.144   6.934
 3348POPC   C4A45702  11.524  10.976   7.319
 3348POPC   C1B45703  11.186  11.494   6.178
 3348POPC   C2B45704  10.959  11.451   6.592
 3348POPC   C3B45705  11.001  11.440   7.041
 3348POPC   C4B45706  11.255  11.385   7.386
 3349POPC   NC345707   3.298  34.790   5.282
 3349POPC   PO445708   3.850  34.426   5.462
 3349POPC   GL145709   3.407  34.488   5.713
 3349POPC   GL245710   3.243  34.848   5.812
 3349POPC   C1A45711   3.214  34.453   6.158
 3349POPC   D2A45712   3.434  34.617   6.547
 3349POPC   C3A45713   3.315  34.509   6.990
 3349POPC   C4A45714   3.537  34.536   7.399
 3349POPC   C1B45715   3.142  34.977   6.270
 3349POPC   C2B45716   3.237  35.044   6.740
 3349POPC   C3B45717   3.362  34.987   7.183
 3349POPC   C4B45718   3.557  34.982   7.629
 3350POPC   NC345719  16.953  22.647   5.587
 3350POPC   PO445720  16.414  23.055   5.433
 3350POPC   GL145721  16.640  23.041   5.781
 3350POPC   GL245722  16.550  22.702   5.872
 3350POPC   C1A45723  16.825  23.069   6.172
 3350POPC   D2A45724  16.926  22.836   6.544
 3350POPC   C3A45725  16.854  23.051   6.943
 3350POPC   C4A45726  16.799  23.002   7.341
 3350POPC   C1B45727  16.385  22.839   6.237
 3350POPC   C2B45728  16.483  23.064   6.587
 3350POPC   C3B45729  16.410  22.856   6.982
 3350POPC   C4B45730  16.425  22.644   7.373
 3351POPC   NC345731   5.688  38.662   5.235
 3351POPC   PO445732   5.919  39.338   5.309
 3351POPC   GL145733   6.141  39.047   5.664
 3351POPC   GL245734   6.199  39.361   5.831
 3351POPC   C1A45735   6.111  39.014   6.165
 3351POPC   D2A45736   5.866  39.173   6.522
 3351POPC   C3A45737   5.866  38.941   6.880
 3351POPC   C4A45738   5.537  38.872   7.120
 3351POPC   C1B45739   6.026  39.565   6.227
 3351POPC   C2B45740   5.998  39.756   6.636
 3351POPC   C3B45741   5.726  39.586   6.972
 3351POPC   C4B45742   5.446  39.363   7.250
 3352POPC   NC345743   9.653  26.345   5.499
 3352POPC   PO445744   9.890  25.708   5.327
 3352POPC   GL145745   9.791  25.912   5.755
 3352POPC   GL245746  10.035  26.054   5.839
 3352POPC   C1A45747   9.770  25.820   6.230
 3352POPC   D2A45748   9.970  25.885   6.648
 3352POPC   C3A45749   9.657  26.058   6.924
 3352POPC   C4A45750   9.339  25.907   7.171
 3352POPC   C1B45751   9.929  26.331   6.180
 3352POPC   C2B45752   9.740  26.445   6.585
 3352POPC   C3B45753   9.935  26.489   6.965
 3352POPC   C4B45754   9.959  26.237   7.318
 3353POPC   NC345755  23.283  42.043   5.335
 3353POPC   PO445756  23.688  42.546   5.314
 3353POPC   GL145757  23.567  42.253   5.716
 3353POPC   GL245758  23.255  42.055   5.845
 3353POPC   C1A45759  23.603  42.212   6.200
 3353POPC   D2A45760  23.609  42.119   6.667
 3353POPC   C3A45761  23.849  42.339   7.034
 3353POPC   C4A45762  23.947  42.658   7.362
 3353POPC   C1B45763  23.105  41.920   6.280
 3353POPC   C2B45764  23.076  42.016   6.741
 3353POPC   C3B45765  23.339  42.136   7.111
 3353POPC   C4B45766  23.490  42.435   7.453
 3354POPC   NC345767   7.950  41.173   5.641
 3354POPC   PO445768   8.432  41.616   5.319
 3354POPC   GL145769   8.271  41.774   5.757
 3354POPC   GL245770   8.184  41.492   5.936
 3354POPC   C1A45771   7.956  41.869   6.137
 3354POPC   D2A45772   8.052  41.619   6.507
 3354POPC   C3A45773   8.010  41.835   6.894
 3354POPC   C4A45774   8.084  41.899   7.326
 3354POPC   C1B45775   8.496  41.414   6.217
 3354POPC   C2B45776   8.522  41.467   6.637
 3354POPC   C3B45777   8.399  41.525   7.070
 3354POPC   C4B45778   8.546  41.324   7.426
 3355POPC   NC345779  43.540  34.252   5.490
 3355POPC   PO445780  43.033  34.596   5.103
 3355POPC   GL145781  43.087  34.561   5.577
 3355POPC   GL245782  43.377  34.681   5.746
 3355POPC   C1A45783  42.952  34.565   6.044
 3355POPC   D2A45784  42.862  34.753   6.475
 3355POPC   C3A45785  43.064  34.606   6.854
 3355POPC   C4A45786  42.928  34.596   7.282
 3355POPC   C1B45787  43.474  34.617   6.194
 3355POPC   C2B45788  43.543  34.685   6.647
 3355POPC   C3B45789  43.483  34.732   7.110
 3355POPC   C4B45790  43.374  34.597   7.531
 3356POPC   NC345791  33.492  11.379   5.727
 3356POPC   PO445792  34.065  11.379   5.592
 3356POPC   GL145793  33.954  11.092   5.934
 3356POPC   GL245794  33.630  10.922   5.871
 3356POPC   C1A45795  33.995  11.138   6.378
 3356POPC   D2A45796  34.014  10.980   6.791
 3356POPC   C3A45797  33.853  11.294   7.103
 3356POPC   C4A45798  34.051  11.345   7.526
 3356POPC   C1B45799  33.655  10.763   6.295
 3356POPC   C2B45800  33.511  10.857   6.703
 3356POPC   C3B45801  33.543  10.881   7.149
 3356POPC   C4B45802  33.597  10.861   7.594
 3357POPC   NC345803  17.702  43.441   5.450
 3357POPC   PO445804  17.164  42.904   5.318
 3357POPC   GL145805  17.340  43.157   5.703
 3357POPC   GL245806  17.675  43.117   5.880
 3357POPC   C1A45807  17.230  43.286   6.125
 3357POPC   D2A45808  17.326  43.081   6.520
 3357POPC   C3A45809  17.207  43.199   6.953
 3357POPC   C4A45810  17.383  43.183   7.371
 3357POPC   C1B45811  17.759  42.898   6.307
 3357POPC   C2B45812  17.740  42.916   6.780
 3357POPC   C3B45813  17.850  43.025   7.189
 3357POPC   C4B45814  17.909  43.231   7.583
 3358POPC   NC345815  18.739  44.217   5.401
 3358POPC   PO445816  19.040  43.569   5.422
 3358POPC   GL145817  19.035  43.855   5.811
 3358POPC   GL245818  18.728  44.072   5.876
 3358POPC   C1A45819  19.169  43.810   6.264
 3358POPC   D2A45820  19.359  43.689   6.679
 3358POPC   C3A45821  19.134  43.832   7.030
 3358POPC   C4A45822  19.349  44.176   7.203
 3358POPC   C1B45823  18.859  44.218   6.266
 3358POPC   C2B45824  18.830  43.980   6.639
 3358POPC   C3B45825  18.640  44.079   7.010
 3358POPC   C4B45826  18.553  44.385   7.292
 3359POPC   NC345827  21.687  18.423   5.497
 3359POPC   PO445828  20.989  18.222   5.429
 3359POPC   GL145829  21.089  18.236   5.838
 3359POPC   GL245830  21.413  18.094   5.832
 3359POPC   C1A45831  21.061  17.993   6.227
 3359POPC   D2A45832  21.096  18.270   6.555
 3359POPC   C3A45833  21.342  18.122   6.893
 3359POPC   C4A45834  21.664  18.299   7.134
 3359POPC   C1B45835  21.540  18.162   6.281
 3359POPC   C2B45836  21.826  18.108   6.650
 3359POPC   C3B45837  22.115  18.090   7.012
 3359POPC   C4B45838  21.980  18.083   7.459
 3360POPC   NC345839  16.093  22.715   5.390
 3360POPC   PO445840  15.602  23.148   5.489
 3360POPC   GL145841  15.776  22.818   5.783
 3360POPC   GL245842  16.096  22.974   5.834
 3360POPC   C1A45843  15.901  22.668   6.210
 3360POPC   D2A45844  15.996  22.903   6.603
 3360POPC   C3A45845  15.933  22.743   7.026
 3360POPC   C4A45846  16.080  23.033   7.348
 3360POPC   C1B45847  16.268  23.312   6.084
 3360POPC   C2B45848  16.143  23.430   6.492
 3360POPC   C3B45849  16.172  23.312   6.908
 3360POPC   C4B45850  16.452  23.346   7.242
 3361POPC   NC345851   7.266  39.529   5.377
 3361POPC   PO445852   7.335  40.258   5.428
 3361POPC   GL145853   7.470  40.245   5.823
 3361POPC   GL245854   7.613  39.917   5.743
 3361POPC   C1A45855   7.409  40.084   6.214
 3361POPC   D2A45856   7.188  40.058   6.576
 3361POPC   C3A45857   7.140  39.767   6.916
 3361POPC   C4A45858   7.086  39.957   7.334
 3361POPC   C1B45859   7.585  39.637   6.074
 3361POPC   C2B45860   7.521  39.655   6.497
 3361POPC   C3B45861   7.631  39.945   6.824
 3361POPC   C4B45862   7.585  39.843   7.251
 3362POPC   NC345863   3.973  13.997   5.343
 3362POPC   PO445864   4.355  13.456   5.352
 3362POPC   GL145865   4.058  13.516   5.661
 3362POPC   GL245866   3.825  13.232   5.701
 3362POPC   C1A45867   4.135  13.702   6.082
 3362POPC   D2A45868   4.268  13.528   6.498
 3362POPC   C3A45869   4.308  13.699   6.927
 3362POPC   C4A45870   4.510  13.885   7.312
 3362POPC   C1B45871   4.025  13.202   6.119
 3362POPC   C2B45872   3.921  13.172   6.583
 3362POPC   C3B45873   4.115  13.209   7.001
 3362POPC   C4B45874   4.227  13.449   7.366
 3363POPC   NC345875  44.456   4.534   5.408
 3363POPC   PO445876  44.963   4.148   5.452
 3363POPC   GL145877  44.827   4.342   5.792
 3363POPC   GL245878  44.524   4.170   5.802
 3363POPC   C1A45879  44.836   4.295   6.231
 3363POPC   D2A45880   0.061   4.225   6.603
 3363POPC   C3A45881  44.920   4.204   7.035
 3363POPC   C4A45882  44.981   4.490   7.362
 3363POPC   C1B45883  44.476   3.905   6.170
 3363POPC   C2B45884  44.259   3.798   6.543
 3363POPC   C3B45885  44.156   3.862   6.991
 3363POPC   C4B45886  44.433   4.155   7.211
 3364POPC   NC345887  19.260  16.388   5.454
 3364POPC   PO445888  18.842  15.849   5.407
 3364POPC   GL145889  18.965  16.064   5.769
 3364POPC   GL245890  19.118  15.752   5.849
 3364POPC   C1A45891  18.924  16.091   6.237
 3364POPC   D2A45892  18.760  15.913   6.652
 3364POPC   C3A45893  18.852  16.107   7.065
 3364POPC   C4A45894  18.721  16.279   7.493
 3364POPC   C1B45895  19.179  15.570   6.248
 3364POPC   C2B45896  19.280  15.677   6.688
 3364POPC   C3B45897  19.158  15.667   7.145
 3364POPC   C4B45898  19.169  15.611   7.631
 3365POPC   NC345899  41.941  41.984   5.363
 3365POPC   PO445900  41.291  42.381   5.466
 3365POPC   GL145901  41.441  42.385   5.862
 3365POPC   GL245902  41.624  42.079   5.795
 3365POPC   C1A45903  41.497  42.327   6.304
 3365POPC   D2A45904  41.456  42.066   6.660
 3365POPC   C3A45905  41.313  42.296   7.029
 3365POPC   C4A45906  41.169  42.518   7.400
 3365POPC   C1B45907  41.958  42.286   6.024
 3365POPC   C2B45908  41.995  42.402   6.462
 3365POPC   C3B45909  41.795  42.418   6.847
 3365POPC   C4B45910  41.965  42.446   7.242
 3366POPC   NC345911  12.385   2.596   5.405
 3366POPC   PO445912  12.940   2.208   5.555
 3366POPC   GL145913  12.684   2.005   5.827
 3366POPC   GL245914  12.563   2.361   5.874
 3366POPC   C1A45915  12.798   1.760   6.217
 3366POPC   D2A45916  13.038   1.878   6.588
 3366POPC   C3A45917  13.104   1.578   6.905
 3366POPC   C4A45918  13.240   1.651   7.322
 3366POPC   C1B45919  12.802   2.278   6.231
 3366POPC   C2B45920  12.618   2.203   6.580
 3366POPC   C3B45921  12.704   2.315   6.950
 3366POPC   C4B45922  12.960   2.030   7.102
 3367POPC   NC345923  38.110  18.142   5.460
 3367POPC   PO445924  38.685  18.314   5.168
 3367POPC   GL145925  38.597  18.292   5.652
 3367POPC   GL245926  38.327  18.545   5.737
 3367POPC   C1A45927  38.596  18.175   6.124
 3367POPC   D2A45928  38.714  18.393   6.519
 3367POPC   C3A45929  38.613  18.139   6.829
 3367POPC   C4A45930  38.540  18.160   7.237
 3367POPC   C1B45931  38.145  18.364   6.122
 3367POPC   C2B45932  38.205  18.361   6.575
 3367POPC   C3B45933  38.108  18.142   6.961
 3367POPC   C4B45934  38.046  18.269   7.387
 3368POPC   NC345935   5.738  18.127   5.377
 3368POPC   PO445936   5.740  17.487   5.295
 3368POPC   GL145937   5.724  17.584   5.790
 3368POPC   GL245938   6.055  17.677   5.902
 3368POPC   C1A45939   5.564  17.642   6.251
 3368POPC   D2A45940   5.700  17.512   6.675
 3368POPC   C3A45941   5.454  17.382   7.051
 3368POPC   C4A45942   5.584  17.176   7.454
 3368POPC   C1B45943   5.925  18.000   6.201
 3368POPC   C2B45944   5.680  18.036   6.609
 3368POPC   C3B45945   5.678  17.857   7.046
 3368POPC   C4B45946   5.934  17.493   7.198
 3369POPC   NC345947  21.679  15.242   5.339
 3369POPC   PO445948  22.348  15.373   5.182
 3369POPC   GL145949  22.193  15.230   5.596
 3369POPC   GL245950  21.922  15.453   5.723
 3369POPC   C1A45951  22.308  15.085   6.030
 3369POPC   D2A45952  22.423  14.966   6.465
 3369POPC   C3A45953  22.370  15.292   6.801
 3369POPC   C4A45954  22.241  15.200   7.223
 3369POPC   C1B45955  21.836  15.246   6.083
 3369POPC   C2B45956  21.996  15.310   6.466
 3369POPC   C3B45957  21.871  15.317   6.893
 3369POPC   C4B45958  21.661  15.388   7.247
 3370POPC   NC345959  35.323  39.359   5.340
 3370POPC   PO445960  35.745  39.044   5.640
 3370POPC   GL145961  35.692  39.408   5.907
 3370POPC   GL245962  35.330  39.463   5.863
 3370POPC   C1A45963  35.536  39.518   6.325
 3370POPC   D2A45964  35.233  39.609   6.662
 3370POPC   C3A45965  35.343  39.364   7.039
 3370POPC   C4A45966  35.331  39.339   7.489
 3370POPC   C1B45967  35.117  39.241   6.238
 3370POPC   C2B45968  34.991  39.122   6.683
 3370POPC   C3B45969  34.957  39.035   7.146
 3370POPC   C4B45970  35.168  38.843   7.506
 3371POPC   NC345971  37.598  39.952   5.166
 3371POPC   PO445972  37.934  40.398   5.490
 3371POPC   GL145973  37.793  40.231   5.824
 3371POPC   GL245974  37.540  40.085   5.708
 3371POPC   C1A45975  37.828  39.939   6.191
 3371POPC   D2A45976  37.948  39.700   6.594
 3371POPC   C3A45977  37.731  39.683   6.989
 3371POPC   C4A45978  37.769  39.929   7.368
 3371POPC   C1B45979  37.407  40.208   6.157
 3371POPC   C2B45980  37.514  40.022   6.590
 3371POPC   C3B45981  37.447  40.127   6.993
 3371POPC   C4B45982  37.506  40.397   7.323
 3372POPC   NC345983  43.008  26.247   5.378
 3372POPC   PO445984  43.544  25.978   5.374
 3372POPC   GL145985  43.262  25.992   5.777
 3372POPC   GL245986  42.905  26.068   5.870
 3372POPC   C1A45987  43.312  26.066   6.250
 3372POPC   D2A45988  43.157  26.202   6.703
 3372POPC   C3A45989  43.297  26.122   7.145
 3372POPC   C4A45990  43.107  26.103   7.550
 3372POPC   C1B45991  42.825  26.228   6.315
 3372POPC   C2B45992  42.670  26.035   6.725
 3372POPC   C3B45993  42.781  26.014   7.146
 3372POPC   C4B45994  42.668  26.322   7.492
 3373POPC   NC345995  12.401  18.984   5.114
 3373POPC   PO445996  11.844  18.963   5.523
 3373POPC   GL145997  11.916  19.021   5.947
 3373POPC   GL245998  12.027  19.350   5.979
 3373POPC   C1A45999  12.195  18.971   6.298
 3373POPC   D2A46000  12.219  19.270   6.633
 3373POPC   C3A46001  12.023  19.115   6.956
 3373POPC   C4A46002  12.336  19.090   7.248
 3373POPC   C1B46003  11.774  19.269   6.385
 3373POPC   C2B46004  11.583  19.388   6.792
 3373POPC   C3B46005  11.645  19.318   7.236
 3373POPC   C4B46006  11.867  18.993   7.441
 3374POPC   NC346007  25.324  13.351   5.294
 3374POPC   PO446008  24.780  13.709   5.229
 3374POPC   GL146009  25.068  13.633   5.632
 3374POPC   GL246010  25.416  13.443   5.776
 3374POPC   C1A46011  25.151  13.802   6.057
 3374POPC   D2A46012  24.977  14.006   6.443
 3374POPC   C3A46013  25.053  13.768   6.831
 3374POPC   C4A46014  25.280  13.829   7.191
 3374POPC   C1B46015  25.750  13.279   6.095
 3374POPC   C2B46016  25.713  13.148   6.561
 3374POPC   C3B46017  25.708  13.241   7.025
 3374POPC   C4B46018  25.473  13.401   7.373
 3375POPC   NC346019  40.437   0.094   5.193
 3375POPC   PO446020  41.113   0.112   5.420
 3375POPC   GL146021  40.963   0.316   5.786
 3375POPC   GL246022  40.603   0.375   5.727
 3375POPC   C1A46023  40.838   0.344   6.223
 3375POPC   D2A46024  40.753   0.132   6.593
 3375POPC   C3A46025  41.096   0.140   6.886
 3375POPC   C4A46026  41.029   0.345   7.274
 3375POPC   C1B46027  40.397   0.555   6.122
 3375POPC   C2B46028  40.549   0.692   6.549
 3375POPC   C3B46029  40.626   0.505   6.963
 3375POPC   C4B46030  40.470   0.372   7.411
 3376POPC   NC346031  41.685  30.664   5.206
 3376POPC   PO446032  41.329  31.154   5.508
 3376POPC   GL146033  41.639  30.806   5.711
 3376POPC   GL246034  41.697  30.466   5.746
 3376POPC   C1A46035  41.880  30.915   6.177
 3376POPC   D2A46036  41.903  31.156   6.627
 3376POPC   C3A46037  41.843  30.996   7.029
 3376POPC   C4A46038  41.478  30.857   7.234
 3376POPC   C1B46039  41.456  30.626   6.139
 3376POPC   C2B46040  41.574  30.712   6.559
 3376POPC   C3B46041  41.699  30.494   6.899
 3376POPC   C4B46042  41.882  30.529   7.281
 3377POPC   NC346043  10.354   4.721   5.582
 3377POPC   PO446044  10.611   5.421   5.584
 3377POPC   GL146045  10.399   5.215   5.833
 3377POPC   GL246046  10.629   4.990   5.886
 3377POPC   C1A46047  10.440   5.358   6.245
 3377POPC   D2A46048  10.360   5.174   6.610
 3377POPC   C3A46049  10.628   5.157   6.945
 3377POPC   C4A46050  10.384   4.933   7.235
 3377POPC   C1B46051  10.715   4.933   6.292
 3377POPC   C2B46052  11.024   5.044   6.545
 3377POPC   C3B46053  11.006   4.807   6.862
 3377POPC   C4B46054  10.733   4.584   7.072
 3378POPC   NC346055  43.195  14.881   5.254
 3378POPC   PO446056  42.878  15.414   5.407
 3378POPC   GL146057  42.892  15.143   5.734
 3378POPC   GL246058  43.165  14.883   5.778
 3378POPC   C1A46059  43.017  15.242   6.133
 3378POPC   D2A46060  43.018  15.105   6.529
 3378POPC   C3A46061  43.122  15.355   6.834
 3378POPC   C4A46062  42.946  15.343   7.227
 3378POPC   C1B46063  43.251  14.749   6.223
 3378POPC   C2B46064  43.232  14.688   6.699
 3378POPC   C3B46065  43.210  14.927   7.090
 3378POPC   C4B46066  43.185  15.015   7.549
 3379POPC   NC346067  25.345  41.673   5.198
 3379POPC   PO446068  24.946  41.205   5.546
 3379POPC   GL146069  25.150  41.407   5.850
 3379POPC   GL246070  25.290  41.680   5.756
 3379POPC   C1A46071  25.178  41.544   6.267
 3379POPC   D2A46072  25.199  41.717   6.670
 3379POPC   C3A46073  25.216  41.441   7.035
 3379POPC   C4A46074  25.442  41.133   7.283
 3379POPC   C1B46075  25.592  41.779   6.110
 3379POPC   C2B46076  25.716  41.965   6.525
 3379POPC   C3B46077  25.542  41.988   6.914
 3379POPC   C4B46078  25.639  41.655   7.213
 3380POPC   NC346079   6.228  20.510   5.172
 3380POPC   PO446080   5.613  20.781   5.379
 3380POPC   GL146081   5.937  20.789   5.676
 3380POPC   GL246082   5.971  20.458   5.694
 3380POPC   C1A46083   6.042  20.775   6.127
 3380POPC   D2A46084   5.834  20.752   6.532
 3380POPC   C3A46085   6.070  20.710   6.912
 3380POPC   C4A46086   5.984  20.853   7.311
 3380POPC   C1B46087   5.787  20.327   6.099
 3380POPC   C2B46088   6.000  20.265   6.519
 3380POPC   C3B46089   5.908  20.250   6.971
 3380POPC   C4B46090   6.075  20.367   7.380
 3381POPC   NC346091   4.350   2.628   5.389
 3381POPC   PO446092   3.882   3.048   5.487
 3381POPC   GL146093   4.286   2.984   5.757
 3381POPC   GL246094   4.375   2.643   5.899
 3381POPC   C1A46095   4.570   3.063   6.140
 3381POPC   D2A46096   4.804   2.743   6.439
 3381POPC   C3A46097   4.662   2.624   6.875
 3381POPC   C4A46098   4.400   2.695   7.234
 3381POPC   C1B46099   4.254   2.740   6.348
 3381POPC   C2B46100   4.150   2.718   6.790
 3381POPC   C3B46101   3.893   2.771   7.166
 3381POPC   C4B46102   3.731   2.552   7.531
 3382POPC   NC346103  38.919  14.019   5.075
 3382POPC   PO446104  39.373  13.802   5.613
 3382POPC   GL146105  39.224  13.439   5.858
 3382POPC   GL246106  38.873  13.442   5.811
 3382POPC   C1A46107  39.417  13.312   6.249
 3382POPC   D2A46108  39.493  13.509   6.657
 3382POPC   C3A46109  39.168  13.497   7.005
 3382POPC   C4A46110  39.182  13.559   7.438
 3382POPC   C1B46111  38.991  13.689   6.235
 3382POPC   C2B46112  39.092  13.867   6.661
 3382POPC   C3B46113  38.875  13.912   7.083
 3382POPC   C4B46114  38.900  13.956   7.549
 3383POPC   NC346115   7.833  40.333   5.484
 3383POPC   PO446116   8.423  40.053   5.390
 3383POPC   GL146117   8.308  40.102   5.825
 3383POPC   GL246118   7.989  40.199   5.949
 3383POPC   C1A46119   8.415  40.143   6.260
 3383POPC   D2A46120   8.568  40.414   6.582
 3383POPC   C3A46121   8.565  40.217   6.968
 3383POPC   C4A46122   8.554  40.073   7.372
 3383POPC   C1B46123   7.875  40.230   6.370
 3383POPC   C2B46124   8.119  40.121   6.722
 3383POPC   C3B46125   8.094  39.952   7.148
 3383POPC   C4B46126   7.899  40.171   7.507
 3384POPC   NC346127   3.546  40.305   5.505
 3384POPC   PO446128   3.298  39.645   5.490
 3384POPC   GL146129   3.239  39.780   5.894
 3384POPC   GL246130   3.569  39.924   5.881
 3384POPC   C1A46131   3.168  39.845   6.325
 3384POPC   D2A46132   3.423  39.948   6.683
 3384POPC   C3A46133   3.298  40.204   7.039
 3384POPC   C4A46134   3.417  39.982   7.431
 3384POPC   C1B46135   3.611  40.187   6.254
 3384POPC   C2B46136   3.878  40.157   6.628
 3384POPC   C3B46137   3.807  40.096   7.077
 3384POPC   C4B46138   3.877  40.221   7.510
 3385POPC   NC346139  32.187  42.550   5.319
 3385POPC   PO446140  32.589  42.103   5.466
 3385POPC   GL146141  32.303  42.149   5.813
 3385POPC   GL246142  32.072  42.460   5.811
 3385POPC   C1A46143  32.205  42.126   6.251
 3385POPC   D2A46144  32.457  42.224   6.599
 3385POPC   C3A46145  32.322  42.176   7.023
 3385POPC   C4A46146  32.004  42.374   7.279
 3385POPC   C1B46147  32.402  42.601   6.066
 3385POPC   C2B46148  32.631  42.684   6.444
 3385POPC   C3B46149  32.535  42.665   6.897
 3385POPC   C4B46150  32.721  42.800   7.293
 3386POPC   NC346151  16.078  41.784   5.379
 3386POPC   PO446152  15.630  42.351   5.217
 3386POPC   GL146153  15.843  42.178   5.603
 3386POPC   GL246154  16.188  42.194   5.671
 3386POPC   C1A46155  15.821  42.219   6.054
 3386POPC   D2A46156  15.611  42.044   6.416
 3386POPC   C3A46157  15.729  42.241   6.811
 3386POPC   C4A46158  15.646  42.317   7.227
 3386POPC   C1B46159  16.347  42.219   6.094
 3386POPC   C2B46160  16.126  42.311   6.477
 3386POPC   C3B46161  16.251  42.305   6.904
 3386POPC   C4B46162  16.281  42.397   7.351
 3387POPC   NC346163   9.681   4.862   5.187
 3387POPC   PO446164  10.237   5.101   5.323
 3387POPC   GL146165   9.950   5.010   5.701
 3387POPC   GL246166   9.742   5.269   5.707
 3387POPC   C1A46167   9.812   5.040   6.181
 3387POPC   D2A46168   9.882   4.999   6.634
 3387POPC   C3A46169   9.572   4.791   6.886
 3387POPC   C4A46170   9.782   4.648   7.251
 3387POPC   C1B46171   9.994   5.477   6.034
 3387POPC   C2B46172   9.954   5.519   6.492
 3387POPC   C3B46173  10.053   5.463   6.939
 3387POPC   C4B46174   9.855   5.150   7.173
 3388POPC   NC346175  18.014  30.780   5.109
 3388POPC   PO446176  18.503  30.537   5.441
 3388POPC   GL146177  18.300  30.673   5.842
 3388POPC   GL246178  18.057  30.408   5.823
 3388POPC   C1A46179  18.065  30.710   6.278
 3388POPC   D2A46180  18.056  30.765   6.750
 3388POPC   C3A46181  18.465  30.821   6.961
 3388POPC   C4A46182  18.692  31.179   7.123
 3388POPC   C1B46183  18.314  30.256   6.178
 3388POPC   C2B46184  18.426  30.427   6.586
 3388POPC   C3B46185  18.267  30.335   7.001
 3388POPC   C4B46186  18.567  30.300   7.316
 3389POPC   NC346187  11.159  35.262   5.589
 3389POPC   PO446188  11.518  34.906   5.788
 3389POPC   GL146189  11.374  35.255   6.049
 3389POPC   GL246190  11.485  35.549   5.911
 3389POPC   C1A46191  11.125  35.533   6.321
 3389POPC   D2A46192  10.996  35.495   6.790
 3389POPC   C3A46193  11.326  35.266   7.029
 3389POPC   C4A46194  11.271  35.028   7.434
 3389POPC   C1B46195  11.648  35.569   6.345
 3389POPC   C2B46196  11.452  35.701   6.717
 3389POPC   C3B46197  11.351  35.767   7.121
 3389POPC   C4B46198  11.433  35.510   7.493
 3390POPC   NC346199  24.811  15.553   5.428
 3390POPC   PO446200  24.243  15.154   5.400
 3390POPC   GL146201  24.414  15.320   5.788
 3390POPC   GL246202  24.429  15.666   5.738
 3390POPC   C1A46203  24.511  15.130   6.199
 3390POPC   D2A46204  24.585  14.910   6.598
 3390POPC   C3A46205  24.632  15.149   6.955
 3390POPC   C4A46206  24.412  15.210   7.321
 3390POPC   C1B46207  24.569  15.653   6.169
 3390POPC   C2B46208  24.609  15.514   6.595
 3390POPC   C3B46209  24.909  15.574   6.958
 3390POPC   C4B46210  24.773  15.540   7.427
 3391POPC   NC346211  17.100   1.660   5.122
 3391POPC   PO446212  17.471   1.210   5.460
 3391POPC   GL146213  17.621   1.252   5.848
 3391POPC   GL246214  17.768   0.939   5.947
 3391POPC   C1A46215  17.414   1.188   6.239
 3391POPC   D2A46216  17.583   0.950   6.587
 3391POPC   C3A46217  17.321   0.913   6.948
 3391POPC   C4A46218  17.463   0.919   7.371
 3391POPC   C1B46219  17.926   1.245   6.273
 3391POPC   C2B46220  17.869   1.424   6.686
 3391POPC   C3B46221  17.715   1.240   7.057
 3391POPC   C4B46222  17.793   1.271   7.518
 3392POPC   NC346223  37.663  36.465   5.371
 3392POPC   PO446224  38.163  35.969   5.573
 3392POPC   GL146225  37.892  36.173   5.789
 3392POPC   GL246226  37.573  36.088   5.721
 3392POPC   C1A46227  37.880  36.367   6.179
 3392POPC   D2A46228  37.626  36.402   6.553
 3392POPC   C3A46229  37.843  36.202   6.890
 3392POPC   C4A46230  37.782  36.277   7.305
 3392POPC   C1B46231  37.480  36.032   6.169
 3392POPC   C2B46232  37.591  35.855   6.578
 3392POPC   C3B46233  37.381  35.922   6.964
 3392POPC   C4B46234  37.347  36.013   7.389
 3393POPC   NC346235  18.184  24.644   5.323
 3393POPC   PO446236  18.784  24.605   5.392
 3393POPC   GL146237  18.532  24.613   5.755
 3393POPC   GL246238  18.175  24.517   5.812
 3393POPC   C1A46239  18.464  24.732   6.180
 3393POPC   D2A46240  18.590  24.568   6.571
 3393POPC   C3A46241  18.374  24.679   6.953
 3393POPC   C4A46242  18.549  24.510   7.327
 3393POPC   C1B46243  18.033  24.421   6.241
 3393POPC   C2B46244  17.996  24.413   6.703
 3393POPC   C3B46245  17.949  24.193   7.101
 3393POPC   C4B46246  18.193  24.135   7.461
 3394POPC   NC346247  23.476   6.797   5.235
 3394POPC   PO446248  22.858   6.890   5.492
 3394POPC   GL146249  23.145   6.600   5.719
 3394POPC   GL246250  22.976   6.729   5.995
 3394POPC   C1A46251  23.258   6.353   6.149
 3394POPC   D2A46252  23.281   6.623   6.521
 3394POPC   C3A46253  23.037   6.541   6.924
 3394POPC   C4A46254  23.210   6.430   7.324
 3394POPC   C1B46255  22.651   6.846   6.268
 3394POPC   C2B46256  22.472   6.609   6.581
 3394POPC   C3B46257  22.449   6.462   6.971
 3394POPC   C4B46258  22.606   6.781   7.204
 3395POPC   NC346259  17.857  31.577   5.402
 3395POPC   PO446260  17.215  31.387   5.569
 3395POPC   GL146261  17.461  31.717   5.814
 3395POPC   GL246262  17.761  31.577   5.962
 3395POPC   C1A46263  17.418  31.928   6.221
 3395POPC   D2A46264  17.554  31.722   6.617
 3395POPC   C3A46265  17.416  31.890   7.005
 3395POPC   C4A46266  17.583  31.761   7.392
 3395POPC   C1B46267  17.397  31.407   6.212
 3395POPC   C2B46268  17.255  31.303   6.606
 3395POPC   C3B46269  17.464  31.365   6.999
 3395POPC   C4B46270  17.261  31.339   7.384
 3396POPC   NC346271  14.235   5.874   5.064
 3396POPC   PO446272  13.658   5.866   5.463
 3396POPC   GL146273  13.671   5.946   5.881
 3396POPC   GL246274  13.453   6.231   5.853
 3396POPC   C1A46275  13.571   5.651   6.244
 3396POPC   D2A46276  13.758   5.605   6.655
 3396POPC   C3A46277  13.666   5.723   7.064
 3396POPC   C4A46278  13.867   6.083   7.214
 3396POPC   C1B46279  13.270   6.049   6.198
 3396POPC   C2B46280  13.464   6.039   6.597
 3396POPC   C3B46281  13.310   6.073   6.990
 3396POPC   C4B46282  13.388   6.234   7.368
 3397POPC   NC346283   3.629  37.920   5.363
 3397POPC   PO446284   3.526  37.296   5.321
 3397POPC   GL146285   3.502  37.543   5.705
 3397POPC   GL246286   3.171  37.459   5.780
 3397POPC   C1A46287   3.631  37.702   6.139
 3397POPC   D2A46288   3.508  37.665   6.588
 3397POPC   C3A46289   3.681  37.894   6.958
 3397POPC   C4A46290   3.725  37.608   7.285
 3397POPC   C1B46291   3.115  37.577   6.218
 3397POPC   C2B46292   2.978  37.651   6.645
 3397POPC   C3B46293   3.185  37.783   7.025
 3397POPC   C4B46294   3.160  37.597   7.426
 3398POPC   NC346295  32.043   4.913   5.504
 3398POPC   PO446296  32.414   5.454   5.213
 3398POPC   GL146297  32.445   5.179   5.670
 3398POPC   GL246298  32.152   5.169   5.941
 3398POPC   C1A46299  32.494   4.869   6.091
 3398POPC   D2A46300  32.251   5.025   6.480
 3398POPC   C3A46301  32.426   4.827   6.868
 3398POPC   C4A46302  32.473   5.010   7.297
 3398POPC   C1B46303  31.844   4.930   6.144
 3398POPC   C2B46304  31.699   5.021   6.559
 3398POPC   C3B46305  31.924   4.973   6.918
 3398POPC   C4B46306  32.059   5.268   7.222
 3399POPC   NC346307  23.390   7.966   5.628
 3399POPC   PO446308  24.012   7.983   5.295
 3399POPC   GL146309  23.815   8.320   5.639
 3399POPC   GL246310  23.504   8.389   5.889
 3399POPC   C1A46311  23.966   8.347   6.095
 3399POPC   D2A46312  24.066   8.193   6.527
 3399POPC   C3A46313  23.820   8.288   6.891
 3399POPC   C4A46314  24.073   8.316   7.222
 3399POPC   C1B46315  23.372   8.106   6.257
 3399POPC   C2B46316  23.134   7.994   6.646
 3399POPC   C3B46317  23.345   7.962   7.070
 3399POPC   C4B46318  23.650   8.053   7.400
 3400POPC   NC346319   9.674   0.216   4.897
 3400POPC   PO446320   9.891   0.687   5.384
 3400POPC   GL146321   9.643   0.524   5.736
 3400POPC   GL246322   9.634   0.173   5.757
 3400POPC   C1A46323   9.675   0.550   6.189
 3400POPC   D2A46324  10.003   0.767   6.442
 3400POPC   C3A46325   9.896   0.709   6.888
 3400POPC   C4A46326   9.620   0.422   7.100
 3400POPC   C1B46327   9.957   0.132   6.113
 3400POPC   C2B46328   9.992   0.263   6.571
 3400POPC   C3B46329  10.100   0.149   7.007
 3400POPC   C4B46330   9.845   0.067   7.409
 3401POPC   NC346331  42.933  40.294   5.325
 3401POPC   PO446332  43.604  40.132   5.467
 3401POPC   GL146333  43.255  40.137   5.802
 3401POPC   GL246334  42.915  39.958   5.770
 3401POPC   C1A46335  43.160  39.953   6.215
 3401POPC   D2A46336  43.338  39.924   6.611
 3401POPC   C3A46337  43.091  40.022   6.929
 3401POPC   C4A46338  43.228  40.035   7.310
 3401POPC   C1B46339  42.724  39.693   6.143
 3401POPC   C2B46340  42.884  39.660   6.580
 3401POPC   C3B46341  42.674  39.718   6.975
 3401POPC   C4B46342  42.854  39.683   7.340
 3402POPC   NC346343  28.638   9.245   5.626
 3402POPC   PO446344  28.468   8.644   5.356
 3402POPC   GL146345  28.296   8.819   5.780
 3402POPC   GL246346  28.054   9.056   5.869
 3402POPC   C1A46347  28.133   8.715   6.240
 3402POPC   D2A46348  28.347   8.682   6.613
 3402POPC   C3A46349  28.172   8.728   7.020
 3402POPC   C4A46350  28.485   8.664   7.281
 3402POPC   C1B46351  28.454   9.072   6.189
 3402POPC   C2B46352  28.552   9.156   6.562
 3402POPC   C3B46353  28.631   9.020   6.934
 3402POPC   C4B46354  28.460   9.152   7.302
 3403POPC   NC346355  23.532   8.262   5.180
 3403POPC   PO446356  23.846   8.871   5.422
 3403POPC   GL146357  23.750   8.863   5.854
 3403POPC   GL246358  23.720   9.216   5.850
 3403POPC   C1A46359  23.929   8.867   6.289
 3403POPC   D2A46360  24.139   8.777   6.699
 3403POPC   C3A46361  23.887   8.793   7.078
 3403POPC   C4A46362  23.616   8.563   7.359
 3403POPC   C1B46363  23.846   9.380   6.241
 3403POPC   C2B46364  23.976   9.284   6.658
 3403POPC   C3B46365  23.742   9.285   7.062
 3403POPC   C4B46366  23.629   9.092   7.457
 3404POPC   NC346367  34.893  13.786   5.614
 3404POPC   PO446368  35.297  13.441   5.126
 3404POPC   GL146369  35.324  13.397   5.671
 3404POPC   GL246370  35.104  13.464   5.945
 3404POPC   C1A46371  35.593  13.560   6.045
 3404POPC   D2A46372  35.643  13.901   6.378
 3404POPC   C3A46373  35.785  13.728   6.792
 3404POPC   C4A46374  35.520  13.471   7.124
 3404POPC   C1B46375  35.190  13.655   6.349
 3404POPC   C2B46376  35.286  13.770   6.770
 3404POPC   C3B46377  35.088  13.736   7.188
 3404POPC   C4B46378  34.939  13.516   7.524
 3405POPC   NC346379  30.582   9.454   5.442
 3405POPC   PO446380  30.495  10.078   5.436
 3405POPC   GL146381  30.589   9.786   5.824
 3405POPC   GL246382  30.903   9.554   5.829
 3405POPC   C1A46383  30.543   9.505   6.215
 3405POPC   D2A46384  30.544   9.346   6.670
 3405POPC   C3A46385  30.524   9.635   7.061
 3405POPC   C4A46386  30.374   9.822   7.473
 3405POPC   C1B46387  30.947   9.819   6.218
 3405POPC   C2B46388  30.840   9.780   6.662
 3405POPC   C3B46389  31.071   9.734   7.053
 3405POPC   C4B46390  31.272   9.832   7.476
 3406POPC   NC346391  43.046   3.465   5.370
 3406POPC   PO446392  43.538   3.836   5.149
 3406POPC   GL146393  43.295   3.674   5.750
 3406POPC   GL246394  42.945   3.660   5.827
 3406POPC   C1A46395  43.245   3.761   6.239
 3406POPC   D2A46396  42.896   3.765   6.548
 3406POPC   C3A46397  43.052   3.966   6.918
 3406POPC   C4A46398  43.373   3.897   7.193
 3406POPC   C1B46399  43.121   3.304   6.079
 3406POPC   C2B46400  43.177   3.338   6.534
 3406POPC   C3B46401  43.123   3.349   6.992
 3406POPC   C4B46402  43.198   3.206   7.428
 3407POPC   NC346403  26.368  31.454   5.084
 3407POPC   PO446404  25.701  31.500   5.212
 3407POPC   GL146405  25.832  31.497   5.676
 3407POPC   GL246406  26.182  31.577   5.820
 3407POPC   C1A46407  25.755  31.272   6.085
 3407POPC   D2A46408  25.865  31.327   6.528
 3407POPC   C3A46409  25.600  31.344   6.906
 3407POPC   C4A46410  25.861  31.472   7.232
 3407POPC   C1B46411  26.477  31.778   6.164
 3407POPC   C2B46412  26.550  31.890   6.620
 3407POPC   C3B46413  26.436  31.777   7.048
 3407POPC   C4B46414  26.276  31.675   7.446
 3408POPC   NC346415  36.517  29.951   5.291
 3408POPC   PO446416  37.147  30.078   5.392
 3408POPC   GL146417  36.812  30.049   5.745
 3408POPC   GL246418  36.577  29.740   5.754
 3408POPC   C1A46419  36.903  30.053   6.219
 3408POPC   D2A46420  37.090  29.979   6.645
 3408POPC   C3A46421  36.890  30.128   7.041
 3408POPC   C4A46422  36.992  30.041   7.499
 3408POPC   C1B46423  36.399  29.912   6.141
 3408POPC   C2B46424  36.558  29.836   6.547
 3408POPC   C3B46425  36.651  29.682   6.942
 3408POPC   C4B46426  36.553  29.801   7.358
 3409POPC   NC346427  15.192   6.216   5.157
 3409POPC   PO446428  15.312   5.568   5.375
 3409POPC   GL146429  15.365   5.773   5.790
 3409POPC   GL246430  15.046   5.873   5.853
 3409POPC   C1A46431  15.477   5.628   6.209
 3409POPC   D2A46432  15.310   5.693   6.626
 3409POPC   C3A46433  15.497   5.861   6.999
 3409POPC   C4A46434  15.410   5.630   7.366
 3409POPC   C1B46435  14.949   5.772   6.244
 3409POPC   C2B46436  14.933   6.036   6.549
 3409POPC   C3B46437  15.001   5.990   6.933
 3409POPC   C4B46438  15.036   5.971   7.321
 3410POPC   NC346439  35.429  11.960   5.349
 3410POPC   PO446440  35.093  12.523   5.292
 3410POPC   GL146441  35.242  12.393   5.750
 3410POPC   GL246442  35.475  12.107   5.817
 3410POPC   C1A46443  35.200  12.171   6.210
 3410POPC   D2A46444  35.212  11.880   6.564
 3410POPC   C3A46445  35.051  11.981   7.003
 3410POPC   C4A46446  35.038  11.740   7.406
 3410POPC   C1B46447  35.650  11.864   6.144
 3410POPC   C2B46448  35.887  11.860   6.494
 3410POPC   C3B46449  35.628  11.809   6.839
 3410POPC   C4B46450  35.511  11.991   7.207
 3411POPC   NC346451  27.771   7.696   5.457
 3411POPC   PO446452  27.320   7.222   5.678
 3411POPC   GL146453  27.560   7.490   5.925
 3411POPC   GL246454  27.903   7.444   5.875
 3411POPC   C1A46455  27.641   7.360   6.355
 3411POPC   D2A46456  27.369   7.146   6.649
 3411POPC   C3A46457  27.370   7.327   7.073
 3411POPC   C4A46458  27.251   7.313   7.519
 3411POPC   C1B46459  28.084   7.638   6.217
 3411POPC   C2B46460  28.119   7.415   6.574
 3411POPC   C3B46461  27.836   7.470   6.882
 3411POPC   C4B46462  27.821   7.596   7.282
 3412POPC   NC346463  18.586  38.226   5.550
 3412POPC   PO446464  18.137  38.665   5.478
 3412POPC   GL146465  17.987  38.396   5.789
 3412POPC   GL246466  18.281  38.269   5.968
 3412POPC   C1A46467  17.840  38.303   6.222
 3412POPC   D2A46468  18.139  38.153   6.545
 3412POPC   C3A46469  18.016  38.320   6.951
 3412POPC   C4A46470  18.108  38.334   7.398
 3412POPC   C1B46471  18.466  38.661   6.131
 3412POPC   C2B46472  18.724  38.657   6.498
 3412POPC   C3B46473  18.691  38.336   6.820
 3412POPC   C4B46474  18.640  38.385   7.244
 3413POPC   NC346475  13.483  27.443   5.250
 3413POPC   PO446476  14.146  27.389   5.204
 3413POPC   GL146477  14.027  27.575   5.628
 3413POPC   GL246478  13.683  27.680   5.682
 3413POPC   C1A46479  14.009  27.624   6.109
 3413POPC   D2A46480  13.774  27.410   6.463
 3413POPC   C3A46481  13.939  27.342   6.889
 3413POPC   C4A46482  13.710  27.414   7.271
 3413POPC   C1B46483  13.505  27.766   6.099
 3413POPC   C2B46484  13.618  27.888   6.518
 3413POPC   C3B46485  13.497  27.683   6.885
 3413POPC   C4B46486  13.357  27.774   7.286
 3414POPC   NC346487  34.089  21.469   5.379
 3414POPC   PO446488  33.444  21.202   5.588
 3414POPC   GL146489  33.850  21.306   5.805
 3414POPC   GL246490  34.064  21.647   5.858
 3414POPC   C1A46491  33.847  21.374   6.244
 3414POPC   D2A46492  33.517  21.374   6.558
 3414POPC   C3A46493  33.666  21.247   6.987
 3414POPC   C4A46494  33.576  21.356   7.399
 3414POPC   C1B46495  34.028  21.855   6.285
 3414POPC   C2B46496  33.928  21.656   6.700
 3414POPC   C3B46497  33.801  21.757   7.129
 3414POPC   C4B46498  34.050  21.620   7.495
 3415POPC   NC346499  30.989   1.718   5.474
 3415POPC   PO446500  31.681   1.896   5.404
 3415POPC   GL146501  31.551   1.969   5.817
 3415POPC   GL246502  31.232   1.923   5.891
 3415POPC   C1A46503  31.563   2.174   6.215
 3415POPC   D2A46504  31.247   2.153   6.541
 3415POPC   C3A46505  31.383   1.956   6.939
 3415POPC   C4A46506  31.738   1.979   7.224
 3415POPC   C1B46507  31.321   1.716   6.261
 3415POPC   C2B46508  31.291   1.510   6.652
 3415POPC   C3B46509  31.311   1.445   7.086
 3415POPC   C4B46510  31.337   1.735   7.460
 3416POPC   NC346511  24.326  32.827   5.416
 3416POPC   PO446512  24.504  33.478   5.400
 3416POPC   GL146513  24.324  33.326   5.816
 3416POPC   GL246514  24.252  32.958   5.879
 3416POPC   C1A46515  24.236  33.280   6.252
 3416POPC   D2A46516  24.452  33.292   6.618
 3416POPC   C3A46517  24.250  33.180   7.032
 3416POPC   C4A46518  24.530  33.236   7.372
 3416POPC   C1B46519  24.222  32.720   6.222
 3416POPC   C2B46520  24.206  32.856   6.606
 3416POPC   C3B46521  24.270  32.670   6.955
 3416POPC   C4B46522  24.359  32.754   7.387
 3417POPC   NC346523  19.295  12.283   5.572
 3417POPC   PO446524  18.648  12.127   5.548
 3417POPC   GL146525  18.927  12.019   5.835
 3417POPC   GL246526  19.181  11.763   5.754
 3417POPC   C1A46527  19.028  12.175   6.240
 3417POPC   D2A46528  18.826  12.020   6.605
 3417POPC   C3A46529  18.980  12.221   6.974
 3417POPC   C4A46530  19.105  12.530   7.292
 3417POPC   C1B46531  18.991  11.651   6.162
 3417POPC   C2B46532  18.994  11.460   6.557
 3417POPC   C3B46533  19.021  11.672   6.942
 3417POPC   C4B46534  18.719  11.819   7.214
 3418POPC   NC346535  35.920  40.157   5.418
 3418POPC   PO446536  36.417  39.704   5.524
 3418POPC   GL146537  36.069  39.840   5.785
 3418POPC   GL246538  36.055  40.227   5.897
 3418POPC   C1A46539  35.927  39.800   6.177
 3418POPC   D2A46540  36.161  39.787   6.528
 3418POPC   C3A46541  36.056  39.984   6.923
 3418POPC   C4A46542  36.076  39.793   7.339
 3418POPC   C1B46543  36.386  40.084   6.133
 3418POPC   C2B46544  36.577  40.070   6.530
 3418POPC   C3B46545  36.481  40.234   6.899
 3418POPC   C4B46546  36.217  40.303   7.303
 3419POPC   NC346547  19.510  35.881   5.554
 3419POPC   PO446548  19.804  35.456   5.165
 3419POPC   GL146549  19.901  35.527   5.650
 3419POPC   GL246550  19.575  35.443   5.829
 3419POPC   C1A46551  19.947  35.562   6.141
 3419POPC   D2A46552  19.856  35.287   6.513
 3419POPC   C3A46553  19.947  35.389   6.950
 3419POPC   C4A46554  19.964  35.497   7.387
 3419POPC   C1B46555  19.434  35.567   6.270
 3419POPC   C2B46556  19.446  35.529   6.738
 3419POPC   C3B46557  19.511  35.121   6.883
 3419POPC   C4B46558  19.618  34.791   7.131
 3420POPC   NC346559  22.978   4.006   5.699
 3420POPC   PO446560  22.572   4.474   5.295
 3420POPC   GL146561  22.770   4.491   5.739
 3420POPC   GL246562  22.631   4.741   5.962
 3420POPC   C1A46563  22.866   4.366   6.203
 3420POPC   D2A46564  22.927   4.025   6.474
 3420POPC   C3A46565  22.966   4.191   6.890
 3420POPC   C4A46566  22.739   4.284   7.245
 3420POPC   C1B46567  22.591   4.738   6.387
 3420POPC   C2B46568  22.769   4.722   6.763
 3420POPC   C3B46569  22.494   4.687   7.113
 3420POPC   C4B46570  22.563   4.654   7.589
 3421POPC   NC346571  27.241  10.042   5.381
 3421POPC   PO446572  27.779   9.775   5.340
 3421POPC   GL146573  27.681   9.674   5.786
 3421POPC   GL246574  27.330   9.638   5.746
 3421POPC   C1A46575  27.828   9.854   6.214
 3421POPC   D2A46576  27.779   9.645   6.663
 3421POPC   C3A46577  27.759   9.794   7.119
 3421POPC   C4A46578  27.874   9.697   7.573
 3421POPC   C1B46579  27.302   9.536   6.214
 3421POPC   C2B46580  27.444   9.266   6.596
 3421POPC   C3B46581  27.484   9.369   7.051
 3421POPC   C4B46582  27.275   9.656   7.331
 3422POPC   NC346583  34.455  33.170   5.394
 3422POPC   PO446584  34.988  33.491   5.602
 3422POPC   GL146585  34.737  33.226   5.860
 3422POPC   GL246586  34.513  32.937   5.826
 3422POPC   C1A46587  34.834  33.258   6.296
 3422POPC   D2A46588  34.834  33.055   6.688
 3422POPC   C3A46589  34.834  33.195   7.096
 3422POPC   C4A46590  34.553  33.152   7.437
 3422POPC   C1B46591  34.633  32.784   6.224
 3422POPC   C2B46592  34.667  32.554   6.609
 3422POPC   C3B46593  34.732  32.696   7.040
 3422POPC   C4B46594  34.310  32.879   7.085
 3423POPC   NC346595  28.022   4.163   5.483
 3423POPC   PO446596  28.631   4.462   5.580
 3423POPC   GL146597  28.545   4.487   5.953
 3423POPC   GL246598  28.201   4.441   5.895
 3423POPC   C1A46599  28.567   4.248   6.311
 3423POPC   D2A46600  28.400   3.980   6.627
 3423POPC   C3A46601  28.550   4.165   6.983
 3423POPC   C4A46602  28.936   4.269   7.169
 3423POPC   C1B46603  28.072   4.148   6.192
 3423POPC   C2B46604  27.931   4.147   6.594
 3423POPC   C3B46605  28.016   4.056   7.016
 3423POPC   C4B46606  28.163   4.350   7.264
 3424POPC   NC346607  40.550  18.416   5.439
 3424POPC   PO446608  41.020  17.875   5.242
 3424POPC   GL146609  40.949  18.075   5.763
 3424POPC   GL246610  40.629  18.086   6.005
 3424POPC   C1A46611  41.016  18.237   6.243
 3424POPC   D2A46612  40.983  18.411   6.639
 3424POPC   C3A46613  41.232  18.254   6.952
 3424POPC   C4A46614  41.124  18.224   7.392
 3424POPC   C1B46615  40.290  18.064   6.302
 3424POPC   C2B46616  40.168  18.226   6.712
 3424POPC   C3B46617  40.365  18.266   7.131
 3424POPC   C4B46618  40.418  18.588   7.448
 3425POPC   NC346619  14.049  40.262   5.436
 3425POPC   PO446620  14.764  40.260   5.421
 3425POPC   GL146621  14.463  40.092   5.728
 3425POPC   GL246622  14.536  39.724   5.690
 3425POPC   C1A46623  14.337  40.074   6.195
 3425POPC   D2A46624  14.554  40.171   6.611
 3425POPC   C3A46625  14.296  40.198   6.990
 3425POPC   C4A46626  14.221  39.901   7.323
 3425POPC   C1B46627  14.789  39.863   6.070
 3425POPC   C2B46628  14.791  39.722   6.513
 3425POPC   C3B46629  14.566  39.706   6.903
 3425POPC   C4B46630  14.760  39.632   7.279
 3426POPC   NC346631  39.747  32.443   5.349
 3426POPC   PO446632  40.419  32.422   5.404
 3426POPC   GL146633  40.109  32.215   5.690
 3426POPC   GL246634  39.919  32.423   5.829
 3426POPC   C1A46635  40.143  32.028   6.120
 3426POPC   D2A46636  40.069  32.204   6.524
 3426POPC   C3A46637  40.023  31.949   6.858
 3426POPC   C4A46638  40.101  32.173   7.212
 3426POPC   C1B46639  39.940  32.604   6.202
 3426POPC   C2B46640  39.719  32.578   6.557
 3426POPC   C3B46641  39.793  32.664   6.936
 3426POPC   C4B46642  39.747  32.594   7.356
 3427POPC   NC346643  25.378  22.821   5.136
 3427POPC   PO446644  26.039  22.859   5.320
 3427POPC   GL146645  26.133  22.870   5.744
 3427POPC   GL246646  25.912  22.613   5.819
 3427POPC   C1A46647  26.047  23.014   6.160
 3427POPC   D2A46648  26.231  22.981   6.547
 3427POPC   C3A46649  26.131  23.169   6.955
 3427POPC   C4A46650  25.739  23.236   7.140
 3427POPC   C1B46651  26.076  22.482   6.189
 3427POPC   C2B46652  25.923  22.570   6.578
 3427POPC   C3B46653  26.093  22.562   6.964
 3427POPC   C4B46654  25.966  22.780   7.367
 3428POPC   NC346655   8.670  10.644   5.278
 3428POPC   PO446656   9.270  10.323   5.220
 3428POPC   GL146657   9.089  10.274   5.646
 3428POPC   GL246658   9.384  10.302   5.822
 3428POPC   C1A46659   8.915  10.426   6.069
 3428POPC   D2A46660   8.785  10.291   6.511
 3428POPC   C3A46661   8.897  10.496   6.936
 3428POPC   C4A46662   9.265  10.681   7.134
 3428POPC   C1B46663   9.320  10.136   6.248
 3428POPC   C2B46664   9.287  10.251   6.686
 3428POPC   C3B46665   9.410  10.189   7.107
 3428POPC   C4B46666   9.563  10.309   7.516
 3429POPC   NC346667   5.395  12.370   5.261
 3429POPC   PO446668   5.027  12.849   5.453
 3429POPC   GL146669   4.832  12.626   5.784
 3429POPC   GL246670   4.776  12.976   5.897
 3429POPC   C1A46671   4.953  12.625   6.243
 3429POPC   D2A46672   4.927  12.870   6.639
 3429POPC   C3A46673   5.055  12.749   7.052
 3429POPC   C4A46674   5.377  12.863   7.370
 3429POPC   C1B46675   4.538  13.156   6.245
 3429POPC   C2B46676   4.479  13.094   6.681
 3429POPC   C3B46677   4.764  13.189   7.064
 3429POPC   C4B46678   4.915  12.999   7.492
 3430POPC   NC346679  35.222  19.852   5.584
 3430POPC   PO446680  35.753  19.509   5.268
 3430POPC   GL146681  35.693  19.757   5.689
 3430POPC   GL246682  35.667  20.137   5.678
 3430POPC   C1A46683  35.461  19.725   6.156
 3430POPC   D2A46684  35.451  19.880   6.602
 3430POPC   C3A46685  35.451  19.528   6.904
 3430POPC   C4A46686  35.325  19.505   7.335
 3430POPC   C1B46687  35.427  20.227   6.091
 3430POPC   C2B46688  35.128  20.248   6.433
 3430POPC   C3B46689  35.076  20.141   6.860
 3430POPC   C4B46690  35.350  19.994   7.199
 3431POPC   NC346691  19.931  42.774   5.563
 3431POPC   PO446692  19.784  43.436   5.372
 3431POPC   GL146693  19.747  43.221   5.776
 3431POPC   GL246694  19.484  42.952   5.787
 3431POPC   C1A46695  20.039  43.194   6.160
 3431POPC   D2A46696  20.176  42.878   6.490
 3431POPC   C3A46697  20.120  43.030   6.918
 3431POPC   C4A46698  20.137  43.375   7.237
 3431POPC   C1B46699  19.630  42.893   6.207
 3431POPC   C2B46700  19.669  42.815   6.670
 3431POPC   C3B46701  19.608  42.917   7.125
 3431POPC   C4B46702  19.548  42.854   7.626
 3432POPC   NC346703  34.361   9.245   5.399
 3432POPC   PO446704  35.016   8.843   5.567
 3432POPC   GL146705  34.668   9.030   5.827
 3432POPC   GL246706  34.293   9.049   5.867
 3432POPC   C1A46707  34.672   9.156   6.239
 3432POPC   D2A46708  34.932   9.182   6.610
 3432POPC   C3A46709  34.801   9.355   7.030
 3432POPC   C4A46710  34.832   9.183   7.473
 3432POPC   C1B46711  34.370   8.758   6.187
 3432POPC   C2B46712  34.589   8.797   6.590
 3432POPC   C3B46713  34.533   8.900   7.017
 3432POPC   C4B46714  34.356   8.554   7.244
 3433POPC   NC346715  30.441   2.129   5.622
 3433POPC   PO446716  31.092   2.261   5.540
 3433POPC   GL146717  30.822   2.256   5.949
 3433POPC   GL246718  30.730   1.903   5.974
 3433POPC   C1A46719  30.447   2.206   6.295
 3433POPC   D2A46720  30.300   2.282   6.751
 3433POPC   C3A46721  30.589   2.020   7.017
 3433POPC   C4A46722  30.582   1.879   7.474
 3433POPC   C1B46723  30.818   1.859   6.421
 3433POPC   C2B46724  30.780   1.569   6.768
 3433POPC   C3B46725  30.850   1.569   7.207
 3433POPC   C4B46726  30.925   1.565   7.701
 3434POPC   NC346727   5.541  33.915   5.489
 3434POPC   PO446728   6.142  33.826   5.265
 3434POPC   GL146729   6.014  33.694   5.706
 3434POPC   GL246730   5.703  33.519   5.761
 3434POPC   C1A46731   5.922  33.793   6.151
 3434POPC   D2A46732   5.970  33.588   6.551
 3434POPC   C3A46733   6.122  33.678   6.959
 3434POPC   C4A46734   5.944  33.975   7.236
 3434POPC   C1B46735   5.577  33.373   6.148
 3434POPC   C2B46736   5.467  33.455   6.545
 3434POPC   C3B46737   5.645  33.283   6.897
 3434POPC   C4B46738   5.651  33.564   7.232
 3435POPC   NC346739   2.244  12.220   5.455
 3435POPC   PO446740   1.871  11.729   5.151
 3435POPC   GL146741   1.870  11.939   5.651
 3435POPC   GL246742   2.156  11.953   5.893
 3435POPC   C1A46743   1.777  12.228   6.035
 3435POPC   D2A46744   2.058  12.101   6.404
 3435POPC   C3A46745   2.005  12.247   6.827
 3435POPC   C4A46746   1.675  12.051   7.104
 3435POPC   C1B46747   2.424  11.770   6.195
 3435POPC   C2B46748   2.538  11.834   6.619
 3435POPC   C3B46749   2.258  11.822   6.955
 3435POPC   C4B46750   2.153  12.061   7.293
 3436POPC   NC346751  22.470  34.418   5.575
 3436POPC   PO446752  21.833  34.420   5.335
 3436POPC   GL146753  21.853  34.615   5.797
 3436POPC   GL246754  22.196  34.734   5.914
 3436POPC   C1A46755  21.817  34.876   6.218
 3436POPC   D2A46756  21.718  35.064   6.628
 3436POPC   C3A46757  21.862  34.754   6.925
 3436POPC   C4A46758  22.195  34.477   7.075
 3436POPC   C1B46759  22.362  34.671   6.344
 3436POPC   C2B46760  22.465  34.315   6.646
 3436POPC   C3B46761  22.685  34.345   7.024
 3436POPC   C4B46762  22.637  34.697   7.252
 3437POPC   NC346763  18.399  13.532   5.408
 3437POPC   PO446764  17.874  13.745   5.733
 3437POPC   GL146765  18.208  13.640   5.955
 3437POPC   GL246766  18.461  13.867   5.802
 3437POPC   C1A46767  18.090  13.647   6.400
 3437POPC   D2A46768  17.975  13.335   6.721
 3437POPC   C3A46769  17.881  13.388   7.181
 3437POPC   C4A46770  17.822  13.317   7.615
 3437POPC   C1B46771  18.590  13.821   6.260
 3437POPC   C2B46772  18.523  13.477   6.597
 3437POPC   C3B46773  18.363  13.502   7.020
 3437POPC   C4B46774  18.398  13.889   7.195
 3438POPC   NC346775   0.420  34.321   5.367
 3438POPC   PO446776   0.291  33.740   5.642
 3438POPC   GL146777   0.613  33.859   5.868
 3438POPC   GL246778   0.822  33.568   5.826
 3438POPC   C1A46779   0.621  34.038   6.309
 3438POPC   D2A46780   0.287  33.886   6.606
 3438POPC   C3A46781   0.434  33.907   7.028
 3438POPC   C4A46782   0.683  34.093   7.284
 3438POPC   C1B46783   0.659  33.529   6.273
 3438POPC   C2B46784   0.601  33.476   6.720
 3438POPC   C3B46785   0.191  33.487   6.946
 3438POPC   C4B46786   0.303  33.488   7.342
 3439POPC   NC346787  38.901  21.922   5.530
 3439POPC   PO446788  38.249  22.027   5.381
 3439POPC   GL146789  38.279  22.233   5.785
 3439POPC   GL246790  38.613  22.364   5.718
 3439POPC   C1A46791  38.229  22.083   6.243
 3439POPC   D2A46792  38.223  22.172   6.712
 3439POPC   C3A46793  38.438  21.880   6.982
 3439POPC   C4A46794  38.555  21.939   7.413
 3439POPC   C1B46795  38.695  22.274   6.167
 3439POPC   C2B46796  38.767  22.389   6.600
 3439POPC   C3B46797  38.784  22.276   7.044
 3439POPC   C4B46798  38.713  22.420   7.470
 3440POPC   NC346799  26.423  14.607   5.259
 3440POPC   PO446800  27.048  14.397   5.493
 3440POPC   GL146801  26.816  14.373   5.854
 3440POPC   GL246802  26.537  14.579   5.756
 3440POPC   C1A46803  26.758  14.395   6.319
 3440POPC   D2A46804  27.010  14.392   6.698
 3440POPC   C3A46805  26.833  14.336   7.071
 3440POPC   C4A46806  26.459  14.128   7.095
 3440POPC   C1B46807  26.711  14.836   6.058
 3440POPC   C2B46808  26.660  14.907   6.471
 3440POPC   C3B46809  26.766  14.825   6.879
 3440POPC   C4B46810  26.465  14.705   7.179
 3441POPC   NC346811  21.511  37.157   5.203
 3441POPC   PO446812  21.873  36.612   5.437
 3441POPC   GL146813  21.474  36.682   5.640
 3441POPC   GL246814  21.369  37.018   5.705
 3441POPC   C1A46815  21.262  36.592   6.051
 3441POPC   D2A46816  21.429  36.409   6.454
 3441POPC   C3A46817  21.550  36.710   6.790
 3441POPC   C4A46818  21.704  36.796   7.220
 3441POPC   C1B46819  21.077  37.115   6.075
 3441POPC   C2B46820  20.863  37.108   6.506
 3441POPC   C3B46821  20.934  37.148   6.971
 3441POPC   C4B46822  21.206  36.859   7.158
 3442POPC   NC346823  32.624  19.399   5.580
 3442POPC   PO446824  33.140  18.899   5.430
 3442POPC   GL146825  32.956  19.076   5.800
 3442POPC   GL246826  32.632  18.943   5.778
 3442POPC   C1A46827  33.080  19.237   6.215
 3442POPC   D2A46828  33.265  19.076   6.608
 3442POPC   C3A46829  33.125  19.219   7.021
 3442POPC   C4A46830  33.116  18.949   7.368
 3442POPC   C1B46831  32.534  19.204   6.166
 3442POPC   C2B46832  32.697  19.441   6.496
 3442POPC   C3B46833  32.627  19.314   6.903
 3442POPC   C4B46834  32.680  19.167   7.324
 3443POPC   NC346835  15.756   0.221   5.361
 3443POPC   PO446836  16.299   0.709   5.472
 3443POPC   GL146837  15.954   0.749   5.798
 3443POPC   GL246838  15.697   0.445   5.826
 3443POPC   C1A46839  15.864   0.703   6.261
 3443POPC   D2A46840  15.667   0.735   6.678
 3443POPC   C3A46841  15.980   0.604   6.976
 3443POPC   C4A46842  16.068   0.345   7.319
 3443POPC   C1B46843  15.520   0.277   6.247
 3443POPC   C2B46844  15.580   0.014   6.636
 3443POPC   C3B46845  15.656   0.203   7.039
 3443POPC   C4B46846  15.594   0.197   7.484
 3444POPC   NC346847   3.254  31.331   5.342
 3444POPC   PO446848   2.662  31.500   5.441
 3444POPC   GL146849   2.894  31.558   5.805
 3444POPC   GL246850   3.243  31.685   5.750
 3444POPC   C1A46851   2.823  31.710   6.254
 3444POPC   D2A46852   2.936  31.677   6.703
 3444POPC   C3A46853   2.684  31.693   7.050
 3444POPC   C4A46854   2.836  31.624   7.454
 3444POPC   C1B46855   3.259  31.337   6.077
 3444POPC   C2B46856   3.165  31.235   6.540
 3444POPC   C3B46857   3.062  31.286   6.995
 3444POPC   C4B46858   3.061  31.159   7.420
 3445POPC   NC346859  18.785  41.128   5.410
 3445POPC   PO446860  19.056  41.731   5.558
 3445POPC   GL146861  19.134  41.477   5.925
 3445POPC   GL246862  18.949  41.138   5.892
 3445POPC   C1A46863  19.186  41.673   6.346
 3445POPC   D2A46864  18.955  41.879   6.689
 3445POPC   C3A46865  18.953  41.709   7.135
 3445POPC   C4A46866  19.276  41.469   7.397
 3445POPC   C1B46867  18.963  41.215   6.344
 3445POPC   C2B46868  19.036  41.334   6.768
 3445POPC   C3B46869  18.959  41.175   7.178
 3445POPC   C4B46870  19.136  41.019   7.613
 3446POPC   NC346871   9.835  37.961   5.417
 3446POPC   PO446872   9.541  37.390   5.418
 3446POPC   GL146873   9.650  37.584   5.774
 3446POPC   GL246874  10.003  37.660   5.805
 3446POPC   C1A46875   9.614  37.520   6.207
 3446POPC   D2A46876   9.419  37.397   6.598
 3446POPC   C3A46877   9.495  37.614   6.960
 3446POPC   C4A46878   9.795  37.510   7.201
 3446POPC   C1B46879   9.963  37.923   6.180
 3446POPC   C2B46880  10.135  37.953   6.608
 3446POPC   C3B46881   9.957  37.985   7.050
 3446POPC   C4B46882   9.957  37.895   7.508
 3447POPC   NC346883  14.294  17.343   5.504
 3447POPC   PO446884  14.775  17.882   5.448
 3447POPC   GL146885  14.622  17.650   5.781
 3447POPC   GL246886  14.298  17.735   5.935
 3447POPC   C1A46887  14.682  17.397   6.151
 3447POPC   D2A46888  14.763  17.308   6.580
 3447POPC   C3A46889  14.479  17.403   6.918
 3447POPC   C4A46890  14.585  17.533   7.327
 3447POPC   C1B46891  14.145  17.910   6.357
 3447POPC   C2B46892  14.114  17.766   6.794
 3447POPC   C3B46893  13.960  17.385   7.001
 3447POPC   C4B46894  14.182  17.164   7.313
 3448POPC   NC346895  12.205  28.256   5.378
 3448POPC   PO446896  11.606  28.418   5.437
 3448POPC   GL146897  11.936  28.430   5.784
 3448POPC   GL246898  12.187  28.135   5.867
 3448POPC   C1A46899  11.904  28.342   6.240
 3448POPC   D2A46900  11.797  28.200   6.661
 3448POPC   C3A46901  11.957  28.411   7.052
 3448POPC   C4A46902  12.223  28.668   7.313
 3448POPC   C1B46903  12.405  28.226   6.279
 3448POPC   C2B46904  12.323  28.220   6.716
 3448POPC   C3B46905  12.468  28.263   7.135
 3448POPC   C4B46906  12.193  28.106   7.459
 3449POPC   NC346907   2.847  33.843   5.393
 3449POPC   PO446908   2.248  33.914   5.594
 3449POPC   GL146909   2.554  33.677   5.845
 3449POPC   GL246910   2.916  33.493   5.798
 3449POPC   C1A46911   2.559  33.712   6.283
 3449POPC   D2A46912   2.764  33.606   6.666
 3449POPC   C3A46913   2.550  33.769   6.993
 3449POPC   C4A46914   2.658  33.968   7.379
 3449POPC   C1B46915   3.028  33.553   6.219
 3449POPC   C2B46916   3.029  33.988   6.437
 3449POPC   C3B46917   3.018  34.072   6.873
 3449POPC   C4B46918   3.059  33.729   7.129
 3450POPC   NC346919   4.725  34.136   5.522
 3450POPC   PO446920   5.229  33.594   5.598
 3450POPC   GL146921   5.270  33.804   5.966
 3450POPC   GL246922   4.897  33.831   5.926
 3450POPC   C1A46923   5.131  33.931   6.380
 3450POPC   D2A46924   4.982  33.630   6.687
 3450POPC   C3A46925   5.164  33.724   7.071
 3450POPC   C4A46926   5.437  34.051   7.152
 3450POPC   C1B46927   4.691  34.129   6.165
 3450POPC   C2B46928   4.563  34.210   6.569
 3450POPC   C3B46929   4.822  34.087   6.902
 3450POPC   C4B46930   4.982  34.207   7.297
 3451POPC   NC346931   8.181  24.295   5.452
 3451POPC   PO446932   8.651  24.689   5.173
 3451POPC   GL146933   8.474  24.853   5.634
 3451POPC   GL246934   8.331  24.563   5.875
 3451POPC   C1A46935   8.410  24.994   6.117
 3451POPC   D2A46936   8.384  24.698   6.497
 3451POPC   C3A46937   8.074  24.592   6.839
 3451POPC   C4A46938   8.117  24.727   7.244
 3451POPC   C1B46939   8.447  24.254   6.244
 3451POPC   C2B46940   8.392  24.208   6.702
 3451POPC   C3B46941   8.363  24.283   7.152
 3451POPC   C4B46942   8.136  24.302   7.556
 3452POPC   NC346943  36.145   6.289   5.480
 3452POPC   PO446944  36.282   6.873   5.101
 3452POPC   GL146945  36.170   6.803   5.593
 3452POPC   GL246946  36.381   6.625   5.860
 3452POPC   C1A46947  36.064   6.928   6.086
 3452POPC   D2A46948  36.204   7.061   6.533
 3452POPC   C3A46949  36.147   6.816   6.927
 3452POPC   C4A46950  35.798   6.571   7.143
 3452POPC   C1B46951  36.369   6.554   6.349
 3452POPC   C2B46952  36.348   6.369   6.799
 3452POPC   C3B46953  36.266   6.387   7.264
 3452POPC   C4B46954  36.324   6.554   7.729
 3453POPC   NC346955  18.758  30.937   5.474
 3453POPC   PO446956  19.254  30.456   5.314
 3453POPC   GL146957  19.098  30.597   5.735
 3453POPC   GL246958  19.245  30.935   5.726
 3453POPC   C1A46959  18.864  30.450   6.162
 3453POPC   D2A46960  18.963  30.347   6.626
 3453POPC   C3A46961  18.911  30.574   7.048
 3453POPC   C4A46962  18.966  30.529   7.514
 3453POPC   C1B46963  19.086  30.917   6.166
 3453POPC   C2B46964  18.906  30.858   6.601
 3453POPC   C3B46965  19.165  31.016   6.965
 3453POPC   C4B46966  19.091  30.987   7.389
 3454POPC   NC346967  40.239  24.692   5.616
 3454POPC   PO446968  40.771  24.384   5.132
 3454POPC   GL146969  40.718  24.247   5.663
 3454POPC   GL246970  40.511  24.344   5.871
 3454POPC   C1A46971  40.970  24.296   6.134
 3454POPC   D2A46972  41.257  24.364   6.550
 3454POPC   C3A46973  41.089  24.529   6.972
 3454POPC   C4A46974  40.706  24.685   7.196
 3454POPC   C1B46975  40.542  23.998   6.180
 3454POPC   C2B46976  40.403  24.079   6.601
 3454POPC   C3B46977  40.641  24.255   6.946
 3454POPC   C4B46978  40.621  24.199   7.404
 3455POPC   NC346979  21.876   9.341   5.388
 3455POPC   PO446980  22.377   9.647   5.109
 3455POPC   GL146981  22.348   9.531   5.632
 3455POPC   GL246982  22.010   9.593   5.821
 3455POPC   C1A46983  22.397   9.773   6.070
 3455POPC   D2A46984  22.103   9.701   6.439
 3455POPC   C3A46985  22.346   9.649   6.807
 3455POPC   C4A46986  22.567   9.704   7.181
 3455POPC   C1B46987  21.890   9.991   6.073
 3455POPC   C2B46988  21.825  10.144   6.526
 3455POPC   C3B46989  21.906   9.914   6.945
 3455POPC   C4B46990  22.086   9.568   7.246
 3456POPC   NC346991  15.087  14.991   5.346
 3456POPC   PO446992  15.175  15.618   5.259
 3456POPC   GL146993  15.275  15.418   5.713
 3456POPC   GL246994  15.184  15.066   5.831
 3456POPC   C1A46995  15.233  15.421   6.204
 3456POPC   D2A46996  14.945  15.522   6.580
 3456POPC   C3A46997  15.100  15.494   7.014
 3456POPC   C4A46998  15.419  15.371   7.330
 3456POPC   C1B46999  15.025  14.796   6.177
 3456POPC   C2B47000  15.147  15.013   6.580
 3456POPC   C3B47001  15.228  14.994   7.031
 3456POPC   C4B47002  14.936  14.846   7.346
 3457POPC   NC347003  22.231   9.946   5.408
 3457POPC   PO447004  22.097  10.580   5.382
 3457POPC   GL147005  22.194  10.345   5.737
 3457POPC   GL247006  22.562  10.299   5.636
 3457POPC   C1A47007  22.073  10.472   6.167
 3457POPC   D2A47008  22.265  10.651   6.539
 3457POPC   C3A47009  22.064  10.470   6.903
 3457POPC   C4A47010  22.170  10.565   7.345
 3457POPC   C1B47011  22.572  10.286   6.094
 3457POPC   C2B47012  22.360  10.144   6.478
 3457POPC   C3B47013  22.462  10.151   6.916
 3457POPC   C4B47014  22.242  10.065   7.311
 3458POPC   NC347015   7.967   9.087   5.600
 3458POPC   PO447016   7.434   8.784   5.261
 3458POPC   GL147017   7.482   8.942   5.684
 3458POPC   GL247018   7.718   8.718   5.846
 3458POPC   C1A47019   7.332   9.002   6.123
 3458POPC   D2A47020   7.055   9.005   6.498
 3458POPC   C3A47021   7.198   9.228   6.849
 3458POPC   C4A47022   7.069   9.157   7.249
 3458POPC   C1B47023   7.682   8.529   6.212
 3458POPC   C2B47024   7.516   8.755   6.580
 3458POPC   C3B47025   7.406   8.742   7.025
 3458POPC   C4B47026   7.689   8.559   7.348
 3459POPC   NC347027  23.430  14.566   5.165
 3459POPC   PO447028  24.013  14.337   5.360
 3459POPC   GL147029  23.710  14.208   5.644
 3459POPC   GL247030  23.536  14.523   5.666
 3459POPC   C1A47031  23.682  14.227   6.115
 3459POPC   D2A47032  23.614  14.333   6.592
 3459POPC   C3A47033  23.937  14.317   6.960
 3459POPC   C4A47034  24.130  14.060   7.291
 3459POPC   C1B47035  23.555  14.722   6.064
 3459POPC   C2B47036  23.705  14.826   6.463
 3459POPC   C3B47037  23.703  14.797   6.880
 3459POPC   C4B47038  23.467  14.474   7.100
 3460POPC   NC347039  29.574  23.861   5.528
 3460POPC   PO447040  29.085  23.556   5.194
 3460POPC   GL147041  29.082  23.590   5.661
 3460POPC   GL247042  28.756  23.767   5.699
 3460POPC   C1A47043  29.280  23.733   6.105
 3460POPC   D2A47044  29.207  23.927   6.551
 3460POPC   C3A47045  29.447  23.744   6.905
 3460POPC   C4A47046  29.332  23.440   7.242
 3460POPC   C1B47047  28.816  23.551   6.110
 3460POPC   C2B47048  28.996  23.459   6.509
 3460POPC   C3B47049  28.945  23.653   6.911
 3460POPC   C4B47050  29.087  23.952   7.222
 3461POPC   NC347051  36.369  23.106   5.416
 3461POPC   PO447052  35.959  22.615   5.405
 3461POPC   GL147053  36.136  22.820   5.770
 3461POPC   GL247054  35.947  23.102   5.848
 3461POPC   C1A47055  36.367  22.737   6.152
 3461POPC   D2A47056  36.381  22.764   6.596
 3461POPC   C3A47057  36.038  22.676   6.830
 3461POPC   C4A47058  35.989  22.501   7.211
 3461POPC   C1B47059  36.280  23.227   6.095
 3461POPC   C2B47060  36.317  23.266   6.516
 3461POPC   C3B47061  36.329  23.140   6.933
 3461POPC   C4B47062  35.980  23.050   7.186
 3462POPC   NC347063  11.038   6.194   5.556
 3462POPC   PO447064  11.352   6.749   5.246
 3462POPC   GL147065  11.504   6.857   5.677
 3462POPC   GL247066  11.187   6.959   5.819
 3462POPC   C1A47067  11.527   6.697   6.131
 3462POPC   D2A47068  11.373   6.907   6.509
 3462POPC   C3A47069  11.431   6.744   6.918
 3462POPC   C4A47070  11.641   6.743   7.330
 3462POPC   C1B47071  11.009   6.665   6.112
 3462POPC   C2B47072  11.127   6.457   6.506
 3462POPC   C3B47073  10.996   6.458   6.924
 3462POPC   C4B47074  11.236   6.438   7.328
 3463POPC   NC347075  42.434   5.724   5.151
 3463POPC   PO447076  41.917   6.158   5.378
 3463POPC   GL147077  42.205   5.966   5.708
 3463POPC   GL247078  42.523   5.790   5.687
 3463POPC   C1A47079  42.197   5.889   6.181
 3463POPC   D2A47080  42.422   5.925   6.606
 3463POPC   C3A47081  42.298   5.713   7.012
 3463POPC   C4A47082  42.099   5.914   7.383
 3463POPC   C1B47083  42.725   5.889   6.123
 3463POPC   C2B47084  42.937   5.854   6.549
 3463POPC   C3B47085  42.812   5.890   6.996
 3463POPC   C4B47086  42.606   5.812   7.398
 3464POPC   NC347087  25.266  34.449   5.150
 3464POPC   PO447088  24.941  34.867   5.568
 3464POPC   GL147089  25.246  34.652   5.778
 3464POPC   GL247090  25.210  34.303   5.712
 3464POPC   C1A47091  25.329  34.588   6.213
 3464POPC   D2A47092  25.527  34.594   6.592
 3464POPC   C3A47093  25.386  34.449   6.988
 3464POPC   C4A47094  25.517  34.691   7.341
 3464POPC   C1B47095  25.062  34.162   6.161
 3464POPC   C2B47096  24.993  34.198   6.629
 3464POPC   C3B47097  24.905  34.219   7.100
 3464POPC   C4B47098  25.103  34.433   7.441
 3465POPC   NC347099  35.714  14.517   5.436
 3465POPC   PO447100  35.328  13.916   5.517
 3465POPC   GL147101  35.323  14.268   5.778
 3465POPC   GL247102  35.642  14.332   5.938
 3465POPC   C1A47103  35.227  14.184   6.215
 3465POPC   D2A47104  35.365  14.329   6.610
 3465POPC   C3A47105  35.225  14.204   7.014
 3465POPC   C4A47106  35.551  13.976   7.201
 3465POPC   C1B47107  35.807  14.646   6.253
 3465POPC   C2B47108  35.636  14.767   6.640
 3465POPC   C3B47109  35.530  14.616   7.057
 3465POPC   C4B47110  35.687  14.778   7.450
 3466POPC   NC347111   3.954  37.216   5.541
 3466POPC   PO447112   4.383  36.827   5.161
 3466POPC   GL147113   4.425  36.938   5.659
 3466POPC   GL247114   4.146  36.952   5.930
 3466POPC   C1A47115   4.615  36.825   6.077
 3466POPC   D2A47116   4.325  36.886   6.415
 3466POPC   C3A47117   4.425  36.787   6.824
 3466POPC   C4A47118   4.416  37.006   7.200
 3466POPC   C1B47119   3.985  37.273   6.254
 3466POPC   C2B47120   3.796  37.216   6.660
 3466POPC   C3B47121   3.893  37.134   7.129
 3466POPC   C4B47122   3.964  37.281   7.610
 3467POPC   NC347123  37.818  24.137   5.319
 3467POPC   PO447124  37.466  23.539   5.341
 3467POPC   GL147125  37.777  23.654   5.640
 3467POPC   GL247126  37.636  23.945   5.752
 3467POPC   C1A47127  37.958  23.690   6.080
 3467POPC   D2A47128  37.707  23.710   6.459
 3467POPC   C3A47129  37.874  23.673   6.882
 3467POPC   C4A47130  37.697  23.725   7.281
 3467POPC   C1B47131  37.354  24.009   6.088
 3467POPC   C2B47132  37.354  24.096   6.511
 3467POPC   C3B47133  37.414  23.956   6.917
 3467POPC   C4B47134  37.476  24.203   7.275
 3468POPC   NC347135  12.765   3.211   5.473
 3468POPC   PO447136  12.802   2.616   5.190
 3468POPC   GL147137  12.857   2.726   5.643
 3468POPC   GL247138  13.108   2.571   5.879
 3468POPC   C1A47139  12.704   2.821   6.078
 3468POPC   D2A47140  12.623   2.717   6.512
 3468POPC   C3A47141  12.906   2.822   6.854
 3468POPC   C4A47142  12.750   2.706   7.269
 3468POPC   C1B47143  13.130   2.639   6.340
 3468POPC   C2B47144  13.140   2.378   6.696
 3468POPC   C3B47145  13.192   2.482   7.135
 3468POPC   C4B47146  13.206   2.675   7.538
 3469POPC   NC347147  22.718  10.709   5.306
 3469POPC   PO447148  22.994  10.136   5.381
 3469POPC   GL147149  23.110  10.319   5.771
 3469POPC   GL247150  23.069  10.697   5.745
 3469POPC   C1A47151  23.067  10.428   6.212
 3469POPC   D2A47152  22.841  10.303   6.565
 3469POPC   C3A47153  22.918  10.485   6.951
 3469POPC   C4A47154  23.164  10.569   7.339
 3469POPC   C1B47155  22.782  10.838   6.108
 3469POPC   C2B47156  22.740  10.881   6.582
 3469POPC   C3B47157  22.511  10.777   6.979
 3469POPC   C4B47158  22.672  10.655   7.397
 3470POPC   NC347159  25.067  30.394   5.722
 3470POPC   PO447160  25.227  30.950   5.312
 3470POPC   GL147161  25.261  30.952   5.758
 3470POPC   GL247162  24.931  30.867   5.903
 3470POPC   C1A47163  25.241  31.163   6.167
 3470POPC   D2A47164  25.436  31.052   6.533
 3470POPC   C3A47165  25.323  30.800   6.888
 3470POPC   C4A47166  25.562  30.666   7.235
 3470POPC   C1B47167  25.222  30.673   6.265
 3470POPC   C2B47168  25.545  30.461   6.529
 3470POPC   C3B47169  25.409  30.289   6.924
 3470POPC   C4B47170  24.996  30.317   7.064
 3471POPC   NC347171  35.338  43.290   5.134
 3471POPC   PO447172  35.110  42.739   5.472
 3471POPC   GL147173  35.465  42.959   5.696
 3471POPC   GL247174  35.481  43.337   5.707
 3471POPC   C1A47175  35.596  42.955   6.162
 3471POPC   D2A47176  35.289  42.971   6.533
 3471POPC   C3A47177  35.550  42.963   6.912
 3471POPC   C4A47178  35.505  42.835   7.349
 3471POPC   C1B47179  35.213  43.259   6.080
 3471POPC   C2B47180  35.023  43.448   6.408
 3471POPC   C3B47181  34.938  43.295   6.793
 3471POPC   C4B47182  35.163  43.153   7.173
 3472POPC   NC347183  20.126  28.054   5.419
 3472POPC   PO447184  19.726  28.561   5.291
 3472POPC   GL147185  19.706  28.423   5.713
 3472POPC   GL247186  19.797  28.739   5.822
 3472POPC   C1A47187  19.583  28.457   6.172
 3472POPC   D2A47188  19.702  28.663   6.556
 3472POPC   C3A47189  19.532  28.507   6.971
 3472POPC   C4A47190  19.530  28.343   7.401
 3472POPC   C1B47191  20.112  28.804   6.152
 3472POPC   C2B47192  20.181  28.839   6.605
 3472POPC   C3B47193  20.095  28.568   6.961
 3472POPC   C4B47194  20.269  28.537   7.369
 3473POPC   NC347195  22.640  11.659   5.609
 3473POPC   PO447196  21.999  11.457   5.527
 3473POPC   GL147197  22.113  11.300   5.888
 3473POPC   GL247198  22.240  11.606   5.967
 3473POPC   C1A47199  21.956  11.212   6.293
 3473POPC   D2A47200  21.772  11.239   6.717
 3473POPC   C3A47201  22.022  10.969   7.028
 3473POPC   C4A47202  22.332  11.043   7.382
 3473POPC   C1B47203  22.450  11.391   6.285
 3473POPC   C2B47204  22.304  11.227   6.675
 3473POPC   C3B47205  22.211  11.434   7.076
 3473POPC   C4B47206  22.495  11.525   7.453
 3474POPC   NC347207   5.492   8.755   5.290
 3474POPC   PO447208   4.941   9.140   5.266
 3474POPC   GL147209   4.864   9.044   5.722
 3474POPC   GL247210   4.729   9.316   5.964
 3474POPC   C1A47211   5.075   8.827   6.098
 3474POPC   D2A47212   5.240   8.995   6.493
 3474POPC   C3A47213   5.297   8.838   6.909
 3474POPC   C4A47214   5.294   9.133   7.241
 3474POPC   C1B47215   4.576   8.929   6.128
 3474POPC   C2B47216   4.714   8.695   6.496
 3474POPC   C3B47217   4.613   8.718   6.927
 3474POPC   C4B47218   4.828   8.935   7.250
 3475POPC   NC347219  28.816  36.170   5.086
 3475POPC   PO447220  28.296  35.771   5.364
 3475POPC   GL147221  28.028  35.777   5.805
 3475POPC   GL247222  27.677  35.927   5.781
 3475POPC   C1A47223  28.058  35.725   6.307
 3475POPC   D2A47224  28.361  35.749   6.709
 3475POPC   C3A47225  28.428  36.089   7.042
 3475POPC   C4A47226  28.323  36.191   7.493
 3475POPC   C1B47227  27.766  36.146   6.206
 3475POPC   C2B47228  28.021  36.137   6.624
 3475POPC   C3B47229  27.934  36.002   7.052
 3475POPC   C4B47230  27.813  36.202   7.452
 3476POPC   NC347231  14.813  28.375   5.539
 3476POPC   PO447232  15.533  28.472   5.531
 3476POPC   GL147233  15.272  28.239   5.797
 3476POPC   GL247234  15.474  27.963   5.801
 3476POPC   C1A47235  15.150  28.448   6.181
 3476POPC   D2A47236  14.934  28.578   6.536
 3476POPC   C3A47237  14.934  28.412   6.929
 3476POPC   C4A47238  14.946  28.362   7.348
 3476POPC   C1B47239  15.594  28.195   6.227
 3476POPC   C2B47240  15.342  28.261   6.630
 3476POPC   C3B47241  15.436  28.247   7.086
 3476POPC   C4B47242  15.414  28.230   7.551
 3477POPC   NC347243  41.868  10.864   5.500
 3477POPC   PO447244  41.387  11.410   5.319
 3477POPC   GL147245  41.608  11.406   5.756
 3477POPC   GL247246  41.762  11.124   5.939
 3477POPC   C1A47247  41.466  11.487   6.188
 3477POPC   D2A47248  41.396  11.222   6.551
 3477POPC   C3A47249  41.611  11.228   6.902
 3477POPC   C4A47250  41.579  11.353   7.300
 3477POPC   C1B47251  41.955  11.306   6.315
 3477POPC   C2B47252  42.097  11.178   6.726
 3477POPC   C3B47253  42.012  11.120   7.195
 3477POPC   C4B47254  41.879  11.190   7.686
 3478POPC   NC347255  43.287  43.005   5.407
 3478POPC   PO447256  42.615  43.225   5.369
 3478POPC   GL147257  42.863  43.013   5.678
 3478POPC   GL247258  43.133  43.237   5.842
 3478POPC   C1A47259  42.808  42.871   6.082
 3478POPC   D2A47260  42.945  43.097   6.437
 3478POPC   C3A47261  43.004  42.846   6.788
 3478POPC   C4A47262  42.830  43.033   7.162
 3478POPC   C1B47263  43.397  43.240   6.228
 3478POPC   C2B47264  43.454  43.077   6.641
 3478POPC   C3B47265  43.293  43.196   7.031
 3478POPC   C4B47266  43.418  43.284   7.423
 3479POPC   NC347267   9.632  41.432   5.111
 3479POPC   PO447268   9.866  41.223   5.686
 3479POPC   GL147269   9.837  41.601   5.878
 3479POPC   GL247270   9.502  41.636   5.900
 3479POPC   C1A47271   9.891  41.547   6.301
 3479POPC   D2A47272  10.118  41.536   6.654
 3479POPC   C3A47273   9.937  41.391   7.039
 3479POPC   C4A47274   9.818  41.646   7.390
 3479POPC   C1B47275   9.395  41.403   6.257
 3479POPC   C2B47276   9.542  41.444   6.676
 3479POPC   C3B47277   9.417  41.573   7.077
 3479POPC   C4B47278   9.368  41.953   7.273
 3480POPC   NC347279   4.522  20.356   5.494
 3480POPC   PO447280   4.157  20.948   5.400
 3480POPC   GL147281   4.148  20.774   5.777
 3480POPC   GL247282   4.043  20.452   5.784
 3480POPC   C1A47283   4.338  20.674   6.167
 3480POPC   D2A47284   4.511  20.539   6.549
 3480POPC   C3A47285   4.249  20.742   6.803
 3480POPC   C4A47286   4.247  20.856   7.162
 3480POPC   C1B47287   4.158  20.193   6.149
 3480POPC   C2B47288   4.216  20.103   6.596
 3480POPC   C3B47289   4.321  20.288   7.016
 3480POPC   C4B47290   4.226  20.424   7.472
 3481POPC   NC347291  24.274  24.447   5.481
 3481POPC   PO447292  24.795  24.256   5.098
 3481POPC   GL147293  24.751  24.303   5.591
 3481POPC   GL247294  24.655  24.644   5.754
 3481POPC   C1A47295  24.540  24.170   6.013
 3481POPC   D2A47296  24.359  24.476   6.331
 3481POPC   C3A47297  24.318  24.378   6.782
 3481POPC   C4A47298  24.462  24.305   7.211
 3481POPC   C1B47299  24.897  24.511   6.126
 3481POPC   C2B47300  24.837  24.418   6.550
 3481POPC   C3B47301  24.732  24.661   6.899
 3481POPC   C4B47302  24.622  24.798   7.291
 3482POPC   NC347303  16.196  19.642   5.365
 3482POPC   PO447304  15.773  20.092   5.564
 3482POPC   GL147305  16.004  19.809   5.871
 3482POPC   GL247306  16.278  19.562   5.858
 3482POPC   C1A47307  16.141  19.885   6.261
 3482POPC   D2A47308  15.888  20.058   6.524
 3482POPC   C3A47309  15.916  19.923   6.898
 3482POPC   C4A47310  15.907  20.146   7.222
 3482POPC   C1B47311  16.250  19.386   6.247
 3482POPC   C2B47312  16.136  19.515   6.650
 3482POPC   C3B47313  16.269  19.610   7.086
 3482POPC   C4B47314  16.370  19.983   7.344
 3483POPC   NC347315  40.885  31.088   5.633
 3483POPC   PO447316  40.440  30.703   5.429
 3483POPC   GL147317  40.656  30.669   5.820
 3483POPC   GL247318  41.030  30.651   5.859
 3483POPC   C1A47319  40.521  30.815   6.212
 3483POPC   D2A47320  40.665  30.712   6.610
 3483POPC   C3A47321  40.633  30.797   7.022
 3483POPC   C4A47322  40.562  30.546   7.393
 3483POPC   C1B47323  41.029  30.861   6.296
 3483POPC   C2B47324  41.126  30.826   6.785
 3483POPC   C3B47325  41.073  30.555   7.171
 3483POPC   C4B47326  41.053  30.259   7.529
 3484POPC   NC347327  14.926   8.962   5.353
 3484POPC   PO447328  15.542   9.228   5.495
 3484POPC   GL147329  15.372   8.986   5.871
 3484POPC   GL247330  14.990   8.926   5.850
 3484POPC   C1A47331  15.192   8.863   6.307
 3484POPC   D2A47332  15.268   8.686   6.731
 3484POPC   C3A47333  15.131   8.940   7.068
 3484POPC   C4A47334  15.387   9.283   7.250
 3484POPC   C1B47335  14.748   8.677   6.146
 3484POPC   C2B47336  14.763   8.692   6.606
 3484POPC   C3B47337  14.695   8.582   7.054
 3484POPC   C4B47338  14.716   8.555   7.498
 3485POPC   NC347339  17.923  23.747   5.429
 3485POPC   PO447340  17.373  23.477   5.456
 3485POPC   GL147341  17.516  23.768   5.778
 3485POPC   GL247342  17.813  23.666   5.921
 3485POPC   C1A47343  17.400  23.892   6.219
 3485POPC   D2A47344  17.062  23.840   6.565
 3485POPC   C3A47345  17.157  23.980   6.991
 3485POPC   C4A47346  17.460  24.120   7.289
 3485POPC   C1B47347  17.695  23.414   6.284
 3485POPC   C2B47348  17.563  23.410   6.708
 3485POPC   C3B47349  17.604  23.713   7.003
 3485POPC   C4B47350  17.806  23.759   7.368
 3486POPC   NC347351  16.786  12.695   5.408
 3486POPC   PO447352  16.549  13.297   5.357
 3486POPC   GL147353  16.536  13.001   5.753
 3486POPC   GL247354  16.879  12.847   5.884
 3486POPC   C1A47355  16.358  12.910   6.180
 3486POPC   D2A47356  16.653  12.952   6.543
 3486POPC   C3A47357  16.675  12.752   6.920
 3486POPC   C4A47358  16.429  12.593   7.228
 3486POPC   C1B47359  17.189  13.030   6.201
 3486POPC   C2B47360  17.253  13.094   6.619
 3486POPC   C3B47361  17.023  13.131   6.957
 3486POPC   C4B47362  17.012  12.916   7.304
 3487POPC   NC347363  23.886  30.880   5.472
 3487POPC   PO447364  23.710  30.202   5.465
 3487POPC   GL147365  23.943  30.462   5.807
 3487POPC   GL247366  23.693  30.705   5.907
 3487POPC   C1A47367  24.012  30.580   6.278
 3487POPC   D2A47368  23.681  30.538   6.607
 3487POPC   C3A47369  23.687  30.337   7.045
 3487POPC   C4A47370  24.031  30.385   7.402
 3487POPC   C1B47371  23.383  30.720   6.215
 3487POPC   C2B47372  23.274  30.949   6.575
 3487POPC   C3B47373  23.413  30.813   6.933
 3487POPC   C4B47374  23.727  30.810   7.199
 3488POPC   NC347375  37.079  28.441   5.402
 3488POPC   PO447376  36.523  28.848   5.289
 3488POPC   GL147377  36.747  28.749   5.698
 3488POPC   GL247378  36.698  28.396   5.751
 3488POPC   C1A47379  36.968  28.673   6.127
 3488POPC   D2A47380  37.151  28.372   6.465
 3488POPC   C3A47381  37.101  28.435   6.916
 3488POPC   C4A47382  36.754  28.648   7.131
 3488POPC   C1B47383  36.741  28.222   6.175
 3488POPC   C2B47384  36.648  28.302   6.602
 3488POPC   C3B47385  36.674  28.163   7.007
 3488POPC   C4B47386  36.930  28.131   7.331
 3489POPC   NC347387   6.590  33.763   5.204
 3489POPC   PO447388   7.086  33.982   5.606
 3489POPC   GL147389   6.667  33.824   5.736
 3489POPC   GL247390   6.385  34.048   5.673
 3489POPC   C1A47391   6.464  33.659   6.113
 3489POPC   D2A47392   6.473  33.463   6.529
 3489POPC   C3A47393   6.731  33.665   6.834
 3489POPC   C4A47394   6.898  33.851   7.245
 3489POPC   C1B47395   6.289  34.147   6.125
 3489POPC   C2B47396   6.344  33.968   6.556
 3489POPC   C3B47397   6.470  34.065   6.995
 3489POPC   C4B47398   6.408  33.843   7.378
 3490POPC   NC347399  19.337  23.480   5.473
 3490POPC   PO447400  19.048  24.056   5.412
 3490POPC   GL147401  18.949  23.811   5.747
 3490POPC   GL247402  18.877  23.441   5.723
 3490POPC   C1A47403  19.156  23.683   6.120
 3490POPC   D2A47404  19.286  23.808   6.510
 3490POPC   C3A47405  19.332  23.647   6.914
 3490POPC   C4A47406  19.208  23.692   7.354
 3490POPC   C1B47407  18.875  23.277   6.157
 3490POPC   C2B47408  19.000  23.377   6.595
 3490POPC   C3B47409  18.830  23.589   6.944
 3490POPC   C4B47410  18.752  23.347   7.292
 3491POPC   NC347411  13.118  29.950   5.401
 3491POPC   PO447412  13.706  29.757   5.303
 3491POPC   GL147413  13.819  29.818   5.720
 3491POPC   GL247414  13.508  29.945   5.813
 3491POPC   C1A47415  13.894  29.844   6.156
 3491POPC   D2A47416  13.810  30.117   6.486
 3491POPC   C3A47417  13.678  29.878   6.828
 3491POPC   C4A47418  13.844  29.856   7.214
 3491POPC   C1B47419  13.372  29.949   6.252
 3491POPC   C2B47420  13.301  30.175   6.632
 3491POPC   C3B47421  13.405  30.237   7.069
 3491POPC   C4B47422  13.513  30.130   7.497
 3492POPC   NC347423  12.887  18.337   5.314
 3492POPC   PO447424  13.484  18.358   5.381
 3492POPC   GL147425  13.205  18.264   5.815
 3492POPC   GL247426  12.890  18.401   5.821
 3492POPC   C1A47427  13.133  17.981   6.196
 3492POPC   D2A47428  13.204  17.786   6.624
 3492POPC   C3A47429  12.954  17.979   6.935
 3492POPC   C4A47430  12.787  18.099   7.314
 3492POPC   C1B47431  12.781  18.341   6.256
 3492POPC   C2B47432  12.748  18.477   6.677
 3492POPC   C3B47433  12.883  18.519   7.079
 3492POPC   C4B47434  12.632  18.699   7.337
 3493POPC   NC347435  35.091  42.284   5.571
 3493POPC   PO447436  34.513  42.170   5.175
 3493POPC   GL147437  34.443  42.107   5.654
 3493POPC   GL247438  34.636  42.390   5.824
 3493POPC   C1A47439  34.491  42.007   6.121
 3493POPC   D2A47440  34.416  42.360   6.401
 3493POPC   C3A47441  34.464  42.452   6.842
 3493POPC   C4A47442  34.479  42.685   7.228
 3493POPC   C1B47443  34.913  42.277   6.209
 3493POPC   C2B47444  34.835  42.146   6.643
 3493POPC   C3B47445  34.899  42.291   7.086
 3493POPC   C4B47446  34.894  42.271   7.545
 3494POPC   NC347447  17.670  38.663   5.417
 3494POPC   PO447448  17.718  38.033   5.424
 3494POPC   GL147449  17.479  38.270   5.758
 3494POPC   GL247450  17.530  38.624   5.891
 3494POPC   C1A47451  17.308  38.253   6.178
 3494POPC   D2A47452  17.298  38.059   6.586
 3494POPC   C3A47453  17.434  38.236   6.979
 3494POPC   C4A47454  17.236  38.438   7.319
 3494POPC   C1B47455  17.488  38.731   6.308
 3494POPC   C2B47456  17.652  38.613   6.727
 3494POPC   C3B47457  17.713  38.651   7.211
 3494POPC   C4B47458  17.483  38.775   7.614
 3495POPC   NC347459  17.522   0.243   5.334
 3495POPC   PO447460  17.760  44.746   5.760
 3495POPC   GL147461  17.470   0.147   5.842
 3495POPC   GL247462  17.676   0.459   5.779
 3495POPC   C1A47463  17.361   0.499   6.179
 3495POPC   D2A47464  17.474   0.439   6.617
 3495POPC   C3A47465  17.280   0.377   7.039
 3495POPC   C4A47466  17.207   0.231   7.473
 3495POPC   C1B47467  17.855   0.320   6.192
 3495POPC   C2B47468  17.979   0.441   6.647
 3495POPC   C3B47469  17.739   0.611   7.015
 3495POPC   C4B47470  17.651   0.461   7.455
 3496POPC   NC347471  26.863  20.608   5.410
 3496POPC   PO447472  26.431  20.099   5.459
 3496POPC   GL147473  26.607  20.395   5.796
 3496POPC   GL247474  27.001  20.402   5.852
 3496POPC   C1A47475  26.632  20.487   6.249
 3496POPC   D2A47476  26.739  20.242   6.625
 3496POPC   C3A47477  26.700  20.486   7.012
 3496POPC   C4A47478  26.852  20.448   7.439
 3496POPC   C1B47479  27.167  20.591   6.218
 3496POPC   C2B47480  27.134  20.596   6.661
 3496POPC   C3B47481  27.041  20.888   7.006
 3496POPC   C4B47482  27.339  21.067   7.263
 3497POPC   NC347483   1.376  35.755   5.346
 3497POPC   PO447484   1.278  35.081   5.376
 3497POPC   GL147485   1.178  35.305   5.809
 3497POPC   GL247486   0.953  35.611   5.836
 3497POPC   C1A47487   1.416  35.372   6.236
 3497POPC   D2A47488   1.578  35.133   6.626
 3497POPC   C3A47489   1.493  35.346   7.035
 3497POPC   C4A47490   1.288  35.235   7.422
 3497POPC   C1B47491   1.079  35.765   6.254
 3497POPC   C2B47492   1.124  35.527   6.661
 3497POPC   C3B47493   0.943  35.500   7.083
 3497POPC   C4B47494   0.991  35.645   7.501
 3498POPC   NC347495  35.113  27.394   5.479
 3498POPC   PO447496  35.543  27.834   5.399
 3498POPC   GL147497  35.435  27.737   5.786
 3498POPC   GL247498  35.626  27.478   5.760
 3498POPC   C1A47499  35.284  27.703   6.212
 3498POPC   D2A47500  35.452  27.621   6.637
 3498POPC   C3A47501  35.287  27.351   6.937
 3498POPC   C4A47502  35.102  27.640   7.194
 3498POPC   C1B47503  35.654  27.311   6.159
 3498POPC   C2B47504  35.856  27.333   6.538
 3498POPC   C3B47505  35.820  27.372   6.952
 3498POPC   C4B47506  35.620  27.609   7.241
 3499POPC   NC347507  13.856  21.533   5.446
 3499POPC   PO447508  13.337  21.120   5.350
 3499POPC   GL147509  13.503  21.135   5.819
 3499POPC   GL247510  13.766  21.369   5.931
 3499POPC   C1A47511  13.700  20.960   6.205
 3499POPC   D2A47512  13.667  21.200   6.595
 3499POPC   C3A47513  13.579  21.064   6.977
 3499POPC   C4A47514  13.435  21.272   7.360
 3499POPC   C1B47515  13.408  21.430   6.234
 3499POPC   C2B47516  13.296  21.668   6.586
 3499POPC   C3B47517  13.526  21.583   6.946
 3499POPC   C4B47518  13.433  21.786   7.320
 3500POPC   NC347519  40.867  12.051   5.294
 3500POPC   PO447520  40.411  11.696   5.638
 3500POPC   GL147521  40.748  11.782   5.926
 3500POPC   GL247522  41.004  12.031   5.811
 3500POPC   C1A47523  40.975  11.712   6.312
 3500POPC   D2A47524  40.946  11.939   6.715
 3500POPC   C3A47525  40.820  11.780   7.113
 3500POPC   C4A47526  40.767  11.861   7.568
 3500POPC   C1B47527  40.889  12.244   6.199
 3500POPC   C2B47528  40.822  12.442   6.614
 3500POPC   C3B47529  40.720  12.296   7.047
 3500POPC   C4B47530  40.704  12.387   7.503
 3501POPC   NC347531  10.650  36.818   5.021
 3501POPC   PO447532  10.408  37.328   5.390
 3501POPC   GL147533  10.396  37.329   5.826
 3501POPC   GL247534  10.705  37.400   5.934
 3501POPC   C1A47535  10.400  37.049   6.193
 3501POPC   D2A47536  10.328  37.049   6.642
 3501POPC   C3A47537  10.468  36.726   6.931
 3501POPC   C4A47538  10.416  36.542   7.342
 3501POPC   C1B47539  10.905  37.121   6.216
 3501POPC   C2B47540  10.849  37.086   6.651
 3501POPC   C3B47541  10.658  37.218   7.027
 3501POPC   C4B47542  10.764  36.904   7.332
 3502POPC   NC347543  12.500  11.745   5.175
 3502POPC   PO447544  11.998  12.276   5.361
 3502POPC   GL147545  12.171  12.097   5.728
 3502POPC   GL247546  12.493  12.249   5.854
 3502POPC   C1A47547  12.043  11.923   6.131
 3502POPC   D2A47548  11.986  12.104   6.532
 3502POPC   C3A47549  12.147  11.863   6.873
 3502POPC   C4A47550  11.940  11.922   7.224
 3502POPC   C1B47551  12.258  12.408   6.194
 3502POPC   C2B47552  12.218  12.570   6.624
 3502POPC   C3B47553  12.166  12.358   7.027
 3502POPC   C4B47554  12.176  12.357   7.489
 3503POPC   NC347555   3.194  14.189   5.291
 3503POPC   PO447556   3.818  14.454   5.391
 3503POPC   GL147557   3.558  14.456   5.806
 3503POPC   GL247558   3.342  14.170   5.773
 3503POPC   C1A47559   3.529  14.496   6.294
 3503POPC   D2A47560   3.190  14.618   6.596
 3503POPC   C3A47561   3.293  14.540   7.011
 3503POPC   C4A47562   3.704  14.672   7.161
 3503POPC   C1B47563   3.378  14.029   6.174
 3503POPC   C2B47564   3.267  14.079   6.589
 3503POPC   C3B47565   3.553  14.091   6.926
 3503POPC   C4B47566   3.534  14.237   7.345
 3504POPC   NC347567  24.935  43.137   5.452
 3504POPC   PO447568  25.502  42.873   5.438
 3504POPC   GL147569  25.580  43.023   5.840
 3504POPC   GL247570  25.254  43.113   5.873
 3504POPC   C1A47571  25.590  43.152   6.281
 3504POPC   D2A47572  25.435  42.931   6.653
 3504POPC   C3A47573  25.513  43.063   7.070
 3504POPC   C4A47574  25.500  43.116   7.514
 3504POPC   C1B47575  25.078  43.036   6.267
 3504POPC   C2B47576  24.942  43.075   6.684
 3504POPC   C3B47577  25.059  42.807   7.026
 3504POPC   C4B47578  24.788  42.576   7.269
 3505POPC   NC347579  13.599   7.964   5.408
 3505POPC   PO447580  13.613   8.622   5.266
 3505POPC   GL147581  13.626   8.427   5.734
 3505POPC   GL247582  13.507   8.112   5.886
 3505POPC   C1A47583  13.585   8.469   6.226
 3505POPC   D2A47584  13.790   8.427   6.645
 3505POPC   C3A47585  13.649   8.420   7.084
 3505POPC   C4A47586  13.898   8.371   7.475
 3505POPC   C1B47587  13.397   7.998   6.299
 3505POPC   C2B47588  13.628   7.925   6.649
 3505POPC   C3B47589  13.564   7.920   7.044
 3505POPC   C4B47590  13.810   7.871   7.354
 3506POPC   NC347591   6.633  35.779   5.408
 3506POPC   PO447592   6.486  36.423   5.421
 3506POPC   GL147593   6.425  36.113   5.793
 3506POPC   GL247594   6.236  35.775   5.774
 3506POPC   C1A47595   6.515  36.173   6.267
 3506POPC   D2A47596   6.907  36.300   6.516
 3506POPC   C3A47597   6.833  36.418   6.959
 3506POPC   C4A47598   6.816  36.354   7.412
 3506POPC   C1B47599   6.611  35.707   6.070
 3506POPC   C2B47600   6.820  35.786   6.445
 3506POPC   C3B47601   6.656  35.955   6.804
 3506POPC   C4B47602   6.537  35.970   7.211
 3507POPC   NC347603  39.653  44.037   5.409
 3507POPC   PO447604  40.268  43.902   5.134
 3507POPC   GL147605  40.039  43.906   5.677
 3507POPC   GL247606  39.890  43.608   5.817
 3507POPC   C1A47607  40.231  44.016   6.104
 3507POPC   D2A47608  40.216  43.912   6.538
 3507POPC   C3A47609  40.511  43.948   6.858
 3507POPC   C4A47610  40.359  43.949   7.268
 3507POPC   C1B47611  39.809  43.756   6.240
 3507POPC   C2B47612  39.864  43.553   6.628
 3507POPC   C3B47613  39.762  43.625   7.031
 3507POPC   C4B47614  39.860  43.930   7.314
 3508POPC   NC347615  11.888  21.945   5.409
 3508POPC   PO447616  12.409  21.457   5.508
 3508POPC   GL147617  12.074  21.416   5.798
 3508POPC   GL247618  11.809  21.181   5.710
 3508POPC   C1A47619  12.088  21.359   6.244
 3508POPC   D2A47620  12.407  21.218   6.519
 3508POPC   C3A47621  12.239  21.229   6.934
 3508POPC   C4A47622  12.489  21.271   7.291
 3508POPC   C1B47623  11.617  21.200   6.129
 3508POPC   C2B47624  11.611  21.396   6.542
 3508POPC   C3B47625  11.681  21.189   6.926
 3508POPC   C4B47626  11.879  21.317   7.297
 3509POPC   NC347627  23.603  27.820   5.249
 3509POPC   PO447628  24.037  27.339   5.499
 3509POPC   GL147629  23.822  27.697   5.716
 3509POPC   GL247630  24.038  27.853   5.943
 3509POPC   C1A47631  23.585  27.722   6.134
 3509POPC   D2A47632  23.655  27.687   6.592
 3509POPC   C3A47633  23.538  27.343   6.891
 3509POPC   C4A47634  23.538  27.551   7.294
 3509POPC   C1B47635  24.124  27.574   6.287
 3509POPC   C2B47636  24.029  27.317   6.663
 3509POPC   C3B47637  23.955  27.618   7.025
 3509POPC   C4B47638  23.997  27.751   7.485
 3510POPC   NC347639  12.606  17.480   5.453
 3510POPC   PO447640  13.030  17.925   5.473
 3510POPC   GL147641  12.868  17.745   5.835
 3510POPC   GL247642  12.553  17.930   5.803
 3510POPC   C1A47643  12.943  17.501   6.263
 3510POPC   D2A47644  12.746  17.528   6.712
 3510POPC   C3A47645  12.890  17.526   7.162
 3510POPC   C4A47646  13.114  17.309   7.492
 3510POPC   C1B47647  12.593  17.861   6.250
 3510POPC   C2B47648  12.548  18.008   6.645
 3510POPC   C3B47649  12.452  17.814   7.058
 3510POPC   C4B47650  12.418  17.777   7.513
 3511POPC   NC347651  44.871  42.754   5.290
 3511POPC   PO447652  44.311  42.986   5.507
 3511POPC   GL147653  44.356  43.086   5.901
 3511POPC   GL247654  44.740  43.079   5.795
 3511POPC   C1A47655  44.263  42.813   6.266
 3511POPC   D2A47656  44.500  42.554   6.588
 3511POPC   C3A47657  44.715  42.657   7.009
 3511POPC   C4A47658  44.665  42.670   7.483
 3511POPC   C1B47659  44.745  42.975   6.237
 3511POPC   C2B47660  44.877  42.993   6.664
 3511POPC   C3B47661   0.190  42.871   6.969
 3511POPC   C4B47662   0.153  42.615   7.321
 3512POPC   NC347663   7.758   8.362   5.416
 3512POPC   PO447664   7.214   7.951   5.488
 3512POPC   GL147665   7.438   8.162   5.774
 3512POPC   GL247666   7.328   8.463   5.661
 3512POPC   C1A47667   7.509   8.052   6.181
 3512POPC   D2A47668   7.563   8.207   6.596
 3512POPC   C3A47669   7.447   7.917   6.927
 3512POPC   C4A47670   7.494   8.091   7.323
 3512POPC   C1B47671   7.203   8.505   6.079
 3512POPC   C2B47672   7.106   8.475   6.496
 3512POPC   C3B47673   7.121   8.318   6.889
 3512POPC   C4B47674   7.062   8.402   7.296
 3513POPC   NC347675  27.668  13.731   5.371
 3513POPC   PO447676  27.115  13.419   5.483
 3513POPC   GL147677  27.268  13.700   5.824
 3513POPC   GL247678  27.370  14.063   5.737
 3513POPC   C1A47679  27.427  13.577   6.261
 3513POPC   D2A47680  27.597  13.371   6.657
 3513POPC   C3A47681  27.560  13.554   7.076
 3513POPC   C4A47682  27.621  13.703   7.500
 3513POPC   C1B47683  27.651  14.004   6.122
 3513POPC   C2B47684  27.698  13.877   6.628
 3513POPC   C3B47685  27.852  13.971   7.104
 3513POPC   C4B47686  28.049  14.016   7.539
 3514POPC   NC347687   4.791  40.574   5.296
 3514POPC   PO447688   5.286  41.052   5.409
 3514POPC   GL147689   5.177  40.701   5.708
 3514POPC   GL247690   5.529  40.623   5.848
 3514POPC   C1A47691   4.883  40.553   6.053
 3514POPC   D2A47692   4.819  40.315   6.467
 3514POPC   C3A47693   4.694  40.494   6.890
 3514POPC   C4A47694   4.836  40.421   7.316
 3514POPC   C1B47695   5.313  40.780   6.222
 3514POPC   C2B47696   5.104  40.716   6.634
 3514POPC   C3B47697   5.173  40.760   7.096
 3514POPC   C4B47698   5.208  40.972   7.519
 3515POPC   NC347699  13.990  12.100   5.535
 3515POPC   PO447700  13.516  11.706   5.516
 3515POPC   GL147701  13.616  11.928   5.872
 3515POPC   GL247702  13.928  11.724   5.919
 3515POPC   C1A47703  13.442  12.177   6.262
 3515POPC   D2A47704  13.477  12.074   6.674
 3515POPC   C3A47705  13.509  12.402   6.906
 3515POPC   C4A47706  13.291  12.444   7.275
 3515POPC   C1B47707  13.944  12.032   6.248
 3515POPC   C2B47708  13.929  12.335   6.558
 3515POPC   C3B47709  13.947  12.157   6.945
 3515POPC   C4B47710  13.640  12.030   7.220
 3516POPC   NC347711  28.246  14.943   5.446
 3516POPC   PO447712  28.077  15.549   5.480
 3516POPC   GL147713  28.218  15.296   5.864
 3516POPC   GL247714  27.974  15.026   5.961
 3516POPC   C1A47715  28.347  15.198   6.337
 3516POPC   D2A47716  28.379  15.149   6.820
 3516POPC   C3A47717  28.234  15.468   7.121
 3516POPC   C4A47718  27.993  15.459   7.500
 3516POPC   C1B47719  27.896  15.410   6.236
 3516POPC   C2B47720  27.959  15.409   6.685
 3516POPC   C3B47721  27.792  15.153   7.020
 3516POPC   C4B47722  27.541  15.195   7.401
 3517POPC   NC347723   5.331   6.379   5.449
 3517POPC   PO447724   4.926   6.955   5.635
 3517POPC   GL147725   5.161   6.743   5.973
 3517POPC   GL247726   5.195   6.394   5.945
 3517POPC   C1A47727   5.292   6.846   6.406
 3517POPC   D2A47728   5.100   6.596   6.714
 3517POPC   C3A47729   5.096   6.698   7.137
 3517POPC   C4A47730   4.997   6.487   7.529
 3517POPC   C1B47731   5.425   6.332   6.365
 3517POPC   C2B47732   5.486   6.269   6.839
 3517POPC   C3B47733   5.514   6.427   7.281
 3517POPC   C4B47734   5.424   6.284   7.742
 3518POPC   NC347735  21.750  13.644   5.518
 3518POPC   PO447736  22.367  13.703   5.310
 3518POPC   GL147737  22.258  13.600   5.764
 3518POPC   GL247738  21.972  13.772   5.961
 3518POPC   C1A47739  22.404  13.722   6.205
 3518POPC   D2A47740  22.090  13.885   6.481
 3518POPC   C3A47741  21.980  13.698   6.865
 3518POPC   C4A47742  22.162  13.636   7.261
 3518POPC   C1B47743  21.742  13.497   6.250
 3518POPC   C2B47744  21.585  13.421   6.695
 3518POPC   C3B47745  21.704  13.386   7.171
 3518POPC   C4B47746  21.883  13.485   7.652
 3519POPC   NC347747  12.533  29.224   5.445
 3519POPC   PO447748  11.960  28.981   5.271
 3519POPC   GL147749  12.077  28.940   5.713
 3519POPC   GL247750  12.161  29.270   5.835
 3519POPC   C1A47751  11.976  28.846   6.167
 3519POPC   D2A47752  12.069  28.673   6.607
 3519POPC   C3A47753  11.953  28.942   6.978
 3519POPC   C4A47754  12.101  29.200   7.347
 3519POPC   C1B47755  12.093  29.355   6.294
 3519POPC   C2B47756  12.098  29.402   6.760
 3519POPC   C3B47757  12.380  29.572   7.083
 3519POPC   C4B47758  12.350  29.689   7.527
 3520POPC   NC347759  22.919  28.044   5.380
 3520POPC   PO447760  23.272  28.577   5.309
 3520POPC   GL147761  22.999  28.451   5.705
 3520POPC   GL247762  22.695  28.221   5.803
 3520POPC   C1A47763  23.073  28.293   6.147
 3520POPC   D2A47764  23.171  28.438   6.573
 3520POPC   C3A47765  22.911  28.454   6.977
 3520POPC   C4A47766  23.229  28.212   7.193
 3520POPC   C1B47767  22.621  28.029   6.217
 3520POPC   C2B47768  22.759  28.073   6.658
 3520POPC   C3B47769  22.747  27.992   7.117
 3520POPC   C4B47770  22.822  28.217   7.506
 3521POPC   NC347771  21.643  20.684   5.672
 3521POPC   PO447772  21.357  21.296   5.474
 3521POPC   GL147773  21.422  21.115   5.878
 3521POPC   GL247774  21.779  21.070   5.982
 3521POPC   C1A47775  21.442  21.358   6.277
 3521POPC   D2A47776  21.321  21.664   6.578
 3521POPC   C3A47777  21.248  21.421   6.970
 3521POPC   C4A47778  21.143  21.187   7.361
 3521POPC   C1B47779  21.833  21.542   5.992
 3521POPC   C2B47780  21.820  21.720   6.404
 3521POPC   C3B47781  21.736  21.615   6.845
 3521POPC   C4B47782  21.643  21.641   7.274
 3522POPC   NC347783  35.526  37.106   5.313
 3522POPC   PO447784  34.944  37.162   5.492
 3522POPC   GL147785  35.173  36.885   5.807
 3522POPC   GL247786  35.525  36.898   5.807
 3522POPC   C1A47787  35.247  36.775   6.280
 3522POPC   D2A47788  34.977  36.705   6.692
 3522POPC   C3A47789  35.030  36.858   7.148
 3522POPC   C4A47790  35.167  36.668   7.557
 3522POPC   C1B47791  35.707  37.044   6.228
 3522POPC   C2B47792  35.735  37.076   6.720
 3522POPC   C3B47793  35.557  37.265   7.132
 3522POPC   C4B47794  35.742  37.338   7.577
 3523POPC   NC347795  10.682  43.502   5.120
 3523POPC   PO447796  10.543  42.887   5.408
 3523POPC   GL147797  10.578  43.014   5.826
 3523POPC   GL247798  10.276  43.238   5.916
 3523POPC   C1A47799  10.604  43.024   6.268
 3523POPC   D2A47800  10.284  43.196   6.546
 3523POPC   C3A47801  10.447  43.110   6.957
 3523POPC   C4A47802  10.374  42.840   7.330
 3523POPC   C1B47803  10.507  43.537   6.217
 3523POPC   C2B47804  10.433  43.671   6.647
 3523POPC   C3B47805  10.097  43.526   6.919
 3523POPC   C4B47806  10.153  43.332   7.316
 3524POPC   NC347807  38.543  16.318   5.435
 3524POPC   PO447808  38.059  16.852   5.492
 3524POPC   GL147809  38.190  16.718   5.899
 3524POPC   GL247810  38.530  16.776   5.932
 3524POPC   C1A47811  38.281  16.750   6.377
 3524POPC   D2A47812  38.645  16.812   6.669
 3524POPC   C3A47813  38.530  16.849   7.093
 3524POPC   C4A47814  38.251  16.583   7.343
 3524POPC   C1B47815  38.632  16.416   6.199
 3524POPC   C2B47816  38.842  16.196   6.526
 3524POPC   C3B47817  38.768  16.358   6.922
 3524POPC   C4B47818  38.747  16.485   7.343
 3525POPC   NC347819  28.135   0.859   5.519
 3525POPC   PO447820  27.759   1.416   5.369
 3525POPC   GL147821  27.676   1.200   5.774
 3525POPC   GL247822  27.694   1.502   6.002
 3525POPC   C1A47823  27.452   1.129   6.213
 3525POPC   D2A47824  27.439   1.395   6.596
 3525POPC   C3A47825  27.701   1.242   6.930
 3525POPC   C4A47826  27.628   0.828   7.136
 3525POPC   C1B47827  27.923   1.246   6.348
 3525POPC   C2B47828  28.088   0.957   6.681
 3525POPC   C3B47829  28.111   0.986   7.131
 3525POPC   C4B47830  27.856   1.169   7.460
 3526POPC   NC347831  22.437  16.806   5.262
 3526POPC   PO447832  21.872  17.040   5.239
 3526POPC   GL147833  21.935  16.799   5.627
 3526POPC   GL247834  22.273  16.769   5.767
 3526POPC   C1A47835  21.907  16.757   6.099
 3526POPC   D2A47836  22.080  16.901   6.488
 3526POPC   C3A47837  22.059  16.810   6.951
 3526POPC   C4A47838  22.304  17.041   7.282
 3526POPC   C1B47839  22.379  16.588   6.192
 3526POPC   C2B47840  22.498  16.626   6.644
 3526POPC   C3B47841  22.477  16.536   7.077
 3526POPC   C4B47842  22.291  16.267   7.354
 3527POPC   NC347843  19.438  29.953   5.165
 3527POPC   PO447844  19.916  30.227   5.736
 3527POPC   GL147845  19.732  29.856   5.885
 3527POPC   GL247846  19.971  29.621   5.854
 3527POPC   C1A47847  19.672  29.689   6.284
 3527POPC   D2A47848  19.859  29.761   6.682
 3527POPC   C3A47849  19.594  29.648   7.026
 3527POPC   C4A47850  19.636  29.785   7.450
 3527POPC   C1B47851  20.205  29.816   6.172
 3527POPC   C2B47852  20.486  29.759   6.468
 3527POPC   C3B47853  20.358  29.842   6.860
 3527POPC   C4B47854  20.050  29.871   7.180
 3528POPC   NC347855   5.774  10.233   5.579
 3528POPC   PO447856   5.814  10.911   5.535
 3528POPC   GL147857   5.797  10.665   5.889
 3528POPC   GL247858   6.151  10.633   5.909
 3528POPC   C1A47859   5.805  10.424   6.289
 3528POPC   D2A47860   5.946  10.225   6.673
 3528POPC   C3A47861   5.778  10.321   7.091
 3528POPC   C4A47862   5.872  10.298   7.549
 3528POPC   C1B47863   6.317  10.469   6.294
 3528POPC   C2B47864   6.409  10.563   6.715
 3528POPC   C3B47865   6.212  10.564   7.114
 3528POPC   C4B47866   6.112  10.740   7.557
 3529POPC   NC347867  19.143  18.657   5.447
 3529POPC   PO447868  18.726  19.036   5.073
 3529POPC   GL147869  18.809  19.186   5.572
 3529POPC   GL247870  19.007  18.951   5.837
 3529POPC   C1A47871  18.785  19.349   6.052
 3529POPC   D2A47872  18.999  19.218   6.481
 3529POPC   C3A47873  18.978  19.445   6.896
 3529POPC   C4A47874  18.745  19.419   7.307
 3529POPC   C1B47875  19.354  18.749   6.112
 3529POPC   C2B47876  19.493  18.653   6.547
 3529POPC   C3B47877  19.290  18.869   6.910
 3529POPC   C4B47878  19.336  19.195   7.215
 3530POPC   NC347879  43.975   6.665   5.494
 3530POPC   PO447880  43.683   7.221   5.263
 3530POPC   GL147881  43.581   6.957   5.671
 3530POPC   GL247882  43.552   6.602   5.765
 3530POPC   C1A47883  43.800   6.885   6.116
 3530POPC   D2A47884  43.967   7.055   6.528
 3530POPC   C3A47885  44.005   6.774   6.902
 3530POPC   C4A47886  44.283   6.768   7.266
 3530POPC   C1B47887  43.673   6.376   6.128
 3530POPC   C2B47888  43.854   6.397   6.534
 3530POPC   C3B47889  43.749   6.286   6.948
 3530POPC   C4B47890  43.562   6.389   7.332
 3531POPC   NC347891   7.658  27.702   5.521
 3531POPC   PO447892   7.188  27.347   5.283
 3531POPC   GL147893   7.351  27.346   5.747
 3531POPC   GL247894   7.681  27.343   5.870
 3531POPC   C1A47895   7.388  27.666   6.131
 3531POPC   D2A47896   7.378  27.909   6.524
 3531POPC   C3A47897   7.501  27.782   6.966
 3531POPC   C4A47898   7.451  27.606   7.406
 3531POPC   C1B47899   7.590  27.219   6.280
 3531POPC   C2B47900   7.561  27.380   6.681
 3531POPC   C3B47901   7.832  27.395   7.072
 3531POPC   C4B47902   7.910  27.435   7.530
 3532POPC   NC347903  18.314  12.477   5.553
 3532POPC   PO447904  18.518  13.095   5.331
 3532POPC   GL147905  18.291  13.112   5.779
 3532POPC   GL247906  18.377  12.774   5.978
 3532POPC   C1A47907  18.207  13.156   6.257
 3532POPC   D2A47908  18.379  12.949   6.643
 3532POPC   C3A47909  18.172  12.975   7.046
 3532POPC   C4A47910  18.357  13.153   7.416
 3532POPC   C1B47911  18.101  12.619   6.342
 3532POPC   C2B47912  18.034  12.483   6.772
 3532POPC   C3B47913  17.848  12.587   7.156
 3532POPC   C4B47914  18.140  12.431   7.422
 3533POPC   NC347915  17.528  24.621   5.455
 3533POPC   PO447916  18.059  24.204   5.412
 3533POPC   GL147917  17.730  24.245   5.789
 3533POPC   GL247918  17.328  24.278   5.768
 3533POPC   C1A47919  17.522  24.420   6.195
 3533POPC   D2A47920  17.231  24.343   6.515
 3533POPC   C3A47921  17.482  24.359   6.845
 3533POPC   C4A47922  17.649  24.611   7.145
 3533POPC   C1B47923  17.158  24.727   5.988
 3533POPC   C2B47924  17.099  24.871   6.411
 3533POPC   C3B47925  17.045  24.704   6.835
 3533POPC   C4B47926  17.097  24.454   7.192
 3534POPC   NC347927  39.061  26.146   5.430
 3534POPC   PO447928  39.443  25.509   5.520
 3534POPC   GL147929  39.205  25.794   5.801
 3534POPC   GL247930  38.839  25.712   5.860
 3534POPC   C1A47931  39.411  26.136   6.079
 3534POPC   D2A47932  39.687  26.154   6.475
 3534POPC   C3A47933  39.423  26.221   6.829
 3534POPC   C4A47934  39.141  26.035   7.161
 3534POPC   C1B47935  38.834  26.120   6.067
 3534POPC   C2B47936  39.034  26.344   6.421
 3534POPC   C3B47937  38.902  26.364   6.849
 3534POPC   C4B47938  38.645  26.252   7.224
 3535POPC   NC347939  26.295  21.379   5.178
 3535POPC   PO447940  25.693  21.487   5.521
 3535POPC   GL147941  25.853  21.174   5.783
 3535POPC   GL247942  26.205  21.245   5.788
 3535POPC   C1A47943  25.955  21.150   6.215
 3535POPC   D2A47944  25.832  21.436   6.509
 3535POPC   C3A47945  25.996  21.283   6.875
 3535POPC   C4A47946  25.920  21.563   7.216
 3535POPC   C1B47947  26.318  21.505   6.195
 3535POPC   C2B47948  26.537  21.669   6.560
 3535POPC   C3B47949  26.397  21.592   6.977
 3535POPC   C4B47950  26.378  21.772   7.399
 3536POPC   NC347951   0.803   9.465   5.458
 3536POPC   PO447952   0.365   9.925   5.242
 3536POPC   GL147953   0.291   9.859   5.680
 3536POPC   GL247954   0.383   9.539   5.805
 3536POPC   C1A47955   0.305   9.964   6.134
 3536POPC   D2A47956   0.170   9.810   6.537
 3536POPC   C3A47957   0.415   9.980   6.888
 3536POPC   C4A47958   0.435   9.739   7.262
 3536POPC   C1B47959   0.555   9.531   6.258
 3536POPC   C2B47960   0.644   9.556   6.713
 3536POPC   C3B47961   0.608   9.295   7.087
 3536POPC   C4B47962   0.510   9.293   7.556
 3537POPC   NC347963  34.278  18.851   5.284
 3537POPC   PO447964  34.840  19.101   5.271
 3537POPC   GL147965  34.742  19.030   5.729
 3537POPC   GL247966  34.387  18.978   5.795
 3537POPC   C1A47967  34.682  19.228   6.141
 3537POPC   D2A47968  34.868  19.238   6.544
 3537POPC   C3A47969  34.607  19.289   6.891
 3537POPC   C4A47970  34.697  19.132   7.294
 3537POPC   C1B47971  34.226  18.982   6.241
 3537POPC   C2B47972  34.257  18.953   6.717
 3537POPC   C3B47973  34.190  19.025   7.176
 3537POPC   C4B47974  34.324  18.795   7.544
 3538POPC   NC347975   5.245  25.426   5.525
 3538POPC   PO447976   4.816  24.995   5.416
 3538POPC   GL147977   5.137  24.998   5.844
 3538POPC   GL247978   5.164  25.330   6.008
 3538POPC   C1A47979   5.288  25.007   6.364
 3538POPC   D2A47980   5.377  25.140   6.829
 3538POPC   C3A47981   5.174  25.289   7.261
 3538POPC   C4A47982   5.076  25.276   7.737
 3538POPC   C1B47983   4.947  25.420   6.388
 3538POPC   C2B47984   4.962  25.480   6.836
 3538POPC   C3B47985   4.726  25.530   7.217
 3538POPC   C4B47986   4.929  25.750   7.550
 3539POPC   NC347987  22.883  27.001   5.367
 3539POPC   PO447988  23.437  26.714   5.505
 3539POPC   GL147989  23.133  26.665   5.818
 3539POPC   GL247990  22.774  26.796   5.839
 3539POPC   C1A47991  23.113  26.597   6.247
 3539POPC   D2A47992  22.919  26.651   6.641
 3539POPC   C3A47993  23.145  26.848   6.986
 3539POPC   C4A47994  22.980  26.529   7.232
 3539POPC   C1B47995  22.670  26.967   6.236
 3539POPC   C2B47996  22.739  27.138   6.639
 3539POPC   C3B47997  22.646  26.965   7.019
 3539POPC   C4B47998  22.674  27.107   7.417
 3540POPC   NC347999  30.092  29.742   5.337
 3540POPC   PO448000  29.924  30.253   5.418
 3540POPC   GL148001  29.786  29.972   5.786
 3540POPC   GL248002  29.482  30.043   6.010
 3540POPC   C1A48003  29.865  29.759   6.197
 3540POPC   D2A48004  30.129  29.825   6.569
 3540POPC   C3A48005  29.908  29.904   6.980
 3540POPC   C4A48006  29.973  29.936   7.442
 3540POPC   C1B48007  29.371  29.755   6.397
 3540POPC   C2B48008  29.468  29.596   6.840
 3540POPC   C3B48009  29.485  29.784   7.272
 3540POPC   C4B48010  29.507  30.030   7.675
 3541POPC   NC348011  24.937  33.616   5.348
 3541POPC   PO448012  24.321  34.094   5.435
 3541POPC   GL148013  24.470  33.829   5.771
 3541POPC   GL248014  24.806  33.937   5.787
 3541POPC   C1A48015  24.606  33.612   6.179
 3541POPC   D2A48016  24.708  33.761   6.605
 3541POPC   C3A48017  24.529  33.612   6.994
 3541POPC   C4A48018  24.641  33.740   7.381
 3541POPC   C1B48019  24.548  34.113   6.178
 3541POPC   C2B48020  24.418  34.236   6.594
 3541POPC   C3B48021  24.424  34.103   7.005
 3541POPC   C4B48022  24.224  34.224   7.362
 3542POPC   NC348023  14.780  27.377   5.581
 3542POPC   PO448024  15.425  27.129   5.323
 3542POPC   GL148025  15.196  27.043   5.693
 3542POPC   GL248026  15.024  26.719   5.724
 3542POPC   C1A48027  15.064  27.060   6.117
 3542POPC   D2A48028  14.957  26.982   6.529
 3542POPC   C3A48029  15.280  26.896   6.811
 3542POPC   C4A48030  15.245  27.078   7.208
 3542POPC   C1B48031  14.997  26.541   6.172
 3542POPC   C2B48032  14.951  26.490   6.635
 3542POPC   C3B48033  14.890  26.677   7.069
 3542POPC   C4B48034  15.137  26.632   7.453
 3543POPC   NC348035  24.047  34.643   5.419
 3543POPC   PO448036  24.653  34.704   5.138
 3543POPC   GL148037  24.483  34.690   5.689
 3543POPC   GL248038  24.753  34.493   5.883
 3543POPC   C1A48039  24.389  34.594   6.202
 3543POPC   D2A48040  24.097  34.687   6.547
 3543POPC   C3A48041  24.179  34.576   6.973
 3543POPC   C4A48042  24.028  34.715   7.374
 3543POPC   C1B48043  24.861  34.758   6.202
 3543POPC   C2B48044  24.761  34.636   6.602
 3543POPC   C3B48045  24.914  34.716   7.001
 3543POPC   C4B48046  24.593  34.618   7.307
 3544POPC   NC348047  26.343   4.418   5.464
 3544POPC   PO448048  25.726   4.470   5.450
 3544POPC   GL148049  25.953   4.576   5.789
 3544POPC   GL248050  26.056   4.259   5.855
 3544POPC   C1A48051  25.974   4.543   6.262
 3544POPC   D2A48052  26.151   4.469   6.690
 3544POPC   C3A48053  25.919   4.444   7.099
 3544POPC   C4A48054  25.888   4.653   7.503
 3544POPC   C1B48055  26.317   4.156   6.200
 3544POPC   C2B48056  26.189   3.953   6.560
 3544POPC   C3B48057  26.208   3.975   6.990
 3544POPC   C4B48058  26.339   4.237   7.286
 3545POPC   NC348059  21.121  35.374   5.119
 3545POPC   PO448060  20.580  35.152   5.420
 3545POPC   GL148061  20.429  35.313   5.792
 3545POPC   GL248062  20.752  35.228   5.928
 3545POPC   C1A48063  20.270  35.163   6.197
 3545POPC   D2A48064  20.325  34.976   6.599
 3545POPC   C3A48065  20.603  35.207   6.849
 3545POPC   C4A48066  20.432  35.395   7.188
 3545POPC   C1B48067  20.947  35.518   6.213
 3545POPC   C2B48068  20.807  35.614   6.599
 3545POPC   C3B48069  20.875  35.644   7.005
 3545POPC   C4B48070  21.230  35.601   7.226
 3546POPC   NC348071  20.249  41.281   5.439
 3546POPC   PO448072  20.958  41.441   5.445
 3546POPC   GL148073  20.668  41.575   5.753
 3546POPC   GL248074  20.359  41.804   5.695
 3546POPC   C1A48075  20.770  41.333   6.137
 3546POPC   D2A48076  21.017  41.203   6.509
 3546POPC   C3A48077  20.797  41.261   6.912
 3546POPC   C4A48078  20.750  41.631   7.219
 3546POPC   C1B48079  20.291  41.546   6.104
 3546POPC   C2B48080  20.503  41.542   6.531
 3546POPC   C3B48081  20.308  41.513   6.945
 3546POPC   C4B48082  20.301  41.414   7.381
 3547POPC   NC348083  13.251   2.495   5.354
 3547POPC   PO448084  13.664   3.016   5.395
 3547POPC   GL148085  13.577   2.756   5.732
 3547POPC   GL248086  13.878   2.584   5.712
 3547POPC   C1A48087  13.472   2.966   6.150
 3547POPC   D2A48088  13.284   3.095   6.559
 3547POPC   C3A48089  13.521   3.006   6.929
 3547POPC   C4A48090  13.621   2.887   7.355
 3547POPC   C1B48091  13.985   2.872   6.089
 3547POPC   C2B48092  13.868   3.027   6.502
 3547POPC   C3B48093  14.032   2.938   6.919
 3547POPC   C4B48094  14.049   3.122   7.308
 3548POPC   NC348095  28.872   4.102   5.433
 3548POPC   PO448096  29.351   4.553   5.455
 3548POPC   GL148097  29.103   4.472   5.792
 3548POPC   GL248098  29.199   4.141   5.814
 3548POPC   C1A48099  29.019   4.513   6.231
 3548POPC   D2A48100  28.983   4.293   6.641
 3548POPC   C3A48101  29.362   4.377   6.874
 3548POPC   C4A48102  29.591   4.592   7.206
 3548POPC   C1B48103  29.048   4.000   6.199
 3548POPC   C2B48104  29.263   3.849   6.541
 3548POPC   C3B48105  29.208   3.895   6.941
 3548POPC   C4B48106  28.960   3.719   7.225
 3549POPC   NC348107   2.513  12.723   5.147
 3549POPC   PO448108   1.812  12.476   5.362
 3549POPC   GL148109   1.927  12.699   5.717
 3549POPC   GL248110   2.250  12.702   5.637
 3549POPC   C1A48111   1.896  12.901   6.130
 3549POPC   D2A48112   1.924  12.718   6.571
 3549POPC   C3A48113   1.837  12.961   6.982
 3549POPC   C4A48114   1.776  12.874   7.434
 3549POPC   C1B48115   2.253  12.491   6.074
 3549POPC   C2B48116   2.384  12.487   6.513
 3549POPC   C3B48117   2.343  12.728   6.869
 3549POPC   C4B48118   2.113  12.575   7.210
 3550POPC   NC348119  23.605   7.077   5.698
 3550POPC   PO448120  23.682   6.442   5.453
 3550POPC   GL148121  23.696   6.580   5.888
 3550POPC   GL248122  23.471   6.794   6.069
 3550POPC   C1A48123  23.743   6.471   6.335
 3550POPC   D2A48124  23.845   6.675   6.677
 3550POPC   C3A48125  23.553   6.545   6.938
 3550POPC   C4A48126  23.734   6.456   7.272
 3550POPC   C1B48127  23.600   7.063   6.358
 3550POPC   C2B48128  23.503   7.064   6.761
 3550POPC   C3B48129  23.729   6.996   7.093
 3550POPC   C4B48130  23.449   6.873   7.337
 3551POPC   NC348131  19.448  43.851   5.435
 3551POPC   PO448132  20.133  43.951   5.316
 3551POPC   GL148133  19.934  43.894   5.756
 3551POPC   GL248134  19.569  43.947   5.918
 3551POPC   C1A48135  20.067  43.721   6.162
 3551POPC   D2A48136  19.860  43.753   6.546
 3551POPC   C3A48137  20.085  43.730   6.893
 3551POPC   C4A48138  20.069  43.944   7.259
 3551POPC   C1B48139  19.597  43.554   6.127
 3551POPC   C2B48140  19.628  43.299   6.490
 3551POPC   C3B48141  19.721  43.370   6.911
 3551POPC   C4B48142  19.623  43.732   7.145
 3552POPC   NC348143  14.546  29.197   5.526
 3552POPC   PO448144  14.038  28.857   5.340
 3552POPC   GL148145  14.169  28.939   5.836
 3552POPC   GL248146  14.500  29.091   5.994
 3552POPC   C1A48147  14.142  29.097   6.320
 3552POPC   D2A48148  14.428  29.317   6.647
 3552POPC   C3A48149  14.439  29.182   7.043
 3552POPC   C4A48150  14.127  28.901   7.174
 3552POPC   C1B48151  14.631  28.942   6.377
 3552POPC   C2B48152  14.870  29.051   6.725
 3552POPC   C3B48153  14.879  28.878   7.130
 3552POPC   C4B48154  14.566  28.864   7.430
 3553POPC   NC348155  14.781   0.055   5.505
 3553POPC   PO448156  15.334   0.455   5.412
 3553POPC   GL148157  15.187   0.296   5.780
 3553POPC   GL248158  14.916   0.499   5.780
 3553POPC   C1A48159  15.058   0.079   6.145
 3553POPC   D2A48160  14.951   0.155   6.544
 3553POPC   C3A48161  15.237   0.390   6.732
 3553POPC   C4A48162  15.290   0.531   7.127
 3553POPC   C1B48163  15.135   0.612   6.215
 3553POPC   C2B48164  15.169   0.877   6.616
 3553POPC   C3B48165  14.890   0.933   6.954
 3553POPC   C4B48166  14.888   0.718   7.377
 3554POPC   NC348167  21.637  22.929   5.428
 3554POPC   PO448168  21.136  22.476   5.478
 3554POPC   GL148169  21.252  22.805   5.753
 3554POPC   GL248170  21.050  23.098   5.733
 3554POPC   C1A48171  21.408  22.933   6.145
 3554POPC   D2A48172  21.289  23.129   6.519
 3554POPC   C3A48173  21.396  22.960   6.895
 3554POPC   C4A48174  21.491  23.199   7.254
 3554POPC   C1B48175  20.898  22.930   6.133
 3554POPC   C2B48176  20.715  22.976   6.515
 3554POPC   C3B48177  20.860  22.863   6.900
 3554POPC   C4B48178  21.046  22.937   7.293
 3555POPC   NC348179   7.949  22.487   5.535
 3555POPC   PO448180   7.274  22.656   5.462
 3555POPC   GL148181   7.362  22.872   5.843
 3555POPC   GL248182   7.713  22.838   5.873
 3555POPC   C1A48183   7.342  23.024   6.267
 3555POPC   D2A48184   7.122  23.118   6.631
 3555POPC   C3A48185   7.350  22.973   6.980
 3555POPC   C4A48186   7.339  23.046   7.419
 3555POPC   C1B48187   7.862  22.741   6.242
 3555POPC   C2B48188   7.722  22.833   6.627
 3555POPC   C3B48189   7.861  22.993   7.022
 3555POPC   C4B48190   7.739  22.737   7.346
 3556POPC   NC348191  19.442  27.352   5.577
 3556POPC   PO448192  20.024  27.612   5.400
 3556POPC   GL148193  19.890  27.603   5.816
 3556POPC   GL248194  19.706  27.906   5.758
 3556POPC   C1A48195  19.865  27.478   6.270
 3556POPC   D2A48196  19.949  27.633   6.709
 3556POPC   C3A48197  19.792  27.468   7.114
 3556POPC   C4A48198  19.906  27.139   7.423
 3556POPC   C1B48199  19.723  27.969   6.199
 3556POPC   C2B48200  19.575  28.134   6.595
 3556POPC   C3B48201  19.670  27.999   7.005
 3556POPC   C4B48202  19.466  27.831   7.349
 3557POPC   NC348203  21.566  26.121   5.356
 3557POPC   PO448204  20.898  25.951   5.468
 3557POPC   GL148205  21.196  26.136   5.755
 3557POPC   GL248206  21.557  26.022   5.859
 3557POPC   C1A48207  21.263  26.299   6.172
 3557POPC   D2A48208  21.531  26.150   6.511
 3557POPC   C3A48209  21.374  26.248   6.921
 3557POPC   C4A48210  21.636  26.304   7.265
 3557POPC   C1B48211  21.355  25.747   6.167
 3557POPC   C2B48212  21.210  25.581   6.560
 3557POPC   C3B48213  21.392  25.701   6.940
 3557POPC   C4B48214  21.306  25.886   7.355
 3558POPC   NC348215  14.781  21.375   5.790
 3558POPC   PO448216  14.181  21.169   5.441
 3558POPC   GL148217  14.266  21.456   5.753
 3558POPC   GL248218  14.251  21.169   5.975
 3558POPC   C1A48219  14.130  21.651   6.127
 3558POPC   D2A48220  14.093  21.421   6.476
 3558POPC   C3A48221  14.033  21.408   6.917
 3558POPC   C4A48222  13.942  21.296   7.329
 3558POPC   C1B48223  14.494  21.124   6.342
 3558POPC   C2B48224  14.507  21.264   6.750
 3558POPC   C3B48225  14.544  21.397   7.180
 3558POPC   C4B48226  14.646  21.176   7.565
 3559POPC   NC348227   6.984  20.337   5.447
 3559POPC   PO448228   6.589  20.805   5.166
 3559POPC   GL148229   6.463  20.647   5.651
 3559POPC   GL248230   6.703  20.396   5.856
 3559POPC   C1A48231   6.552  20.773   6.136
 3559POPC   D2A48232   6.395  20.667   6.520
 3559POPC   C3A48233   6.558  20.871   6.886
 3559POPC   C4A48234   6.471  20.672   7.269
 3559POPC   C1B48235   7.019  20.364   6.174
 3559POPC   C2B48236   7.047  20.316   6.610
 3559POPC   C3B48237   6.904  20.481   7.027
 3559POPC   C4B48238   6.894  20.452   7.487
 3560POPC   NC348239  22.695  40.786   5.611
 3560POPC   PO448240  23.207  40.629   5.134
 3560POPC   GL148241  23.201  40.661   5.645
 3560POPC   GL248242  22.967  40.347   5.644
 3560POPC   C1A48243  23.103  40.904   6.115
 3560POPC   D2A48244  22.792  41.035   6.477
 3560POPC   C3A48245  22.747  40.841   6.904
 3560POPC   C4A48246  22.413  40.655   7.155
 3560POPC   C1B48247  23.058  40.396   6.083
 3560POPC   C2B48248  22.985  40.543   6.508
 3560POPC   C3B48249  23.186  40.608   6.900
 3560POPC   C4B48250  23.256  40.388   7.223
 3561POPC   NC348251  27.119  17.425   5.633
 3561POPC   PO448252  26.609  17.649   5.313
 3561POPC   GL148253  26.643  17.587   5.781
 3561POPC   GL248254  26.541  17.243   5.844
 3561POPC   C1A48255  26.803  17.615   6.252
 3561POPC   D2A48256  26.755  17.886   6.660
 3561POPC   C3A48257  26.903  17.865   7.112
 3561POPC   C4A48258  27.206  18.026   7.436
 3561POPC   C1B48259  26.775  17.080   6.203
 3561POPC   C2B48260  26.727  17.241   6.618
 3561POPC   C3B48261  26.909  17.293   7.001
 3561POPC   C4B48262  26.858  17.289   7.432
 3562POPC   NC348263  26.857  10.723   5.492
 3562POPC   PO448264  26.266  10.397   5.410
 3562POPC   GL148265  26.542  10.185   5.742
 3562POPC   GL248266  26.933  10.256   5.769
 3562POPC   C1A48267  26.614  10.326   6.184
 3562POPC   D2A48268  26.677  10.713   6.424
 3562POPC   C3A48269  26.683  10.666   6.880
 3562POPC   C4A48270  26.778  10.946   7.200
 3562POPC   C1B48271  27.112  10.462   6.163
 3562POPC   C2B48272  27.012  10.345   6.600
 3562POPC   C3B48273  27.152  10.484   7.019
 3562POPC   C4B48274  26.993  10.548   7.448
 3563POPC   NC348275  25.076  30.499   5.211
 3563POPC   PO448276  24.367  30.679   5.463
 3563POPC   GL148277  24.380  30.764   5.893
 3563POPC   GL248278  24.130  31.005   5.901
 3563POPC   C1A48279  24.628  30.668   6.268
 3563POPC   D2A48280  24.884  30.827   6.638
 3563POPC   C3A48281  24.719  30.761   7.037
 3563POPC   C4A48282  24.496  30.399   7.160
 3563POPC   C1B48283  24.243  31.089   6.307
 3563POPC   C2B48284  24.312  30.839   6.635
 3563POPC   C3B48285  24.104  30.616   6.907
 3563POPC   C4B48286  24.230  30.848   7.226
 3564POPC   NC348287  43.464  43.989   5.396
 3564POPC   PO448288  44.088  43.838   5.588
 3564POPC   GL148289  43.779  43.924   5.886
 3564POPC   GL248290  43.612  43.633   5.947
 3564POPC   C1A48291  43.923  43.873   6.326
 3564POPC   D2A48292  44.157  43.903   6.730
 3564POPC   C3A48293  43.927  44.014   7.075
 3564POPC   C4A48294  43.549  44.186   7.112
 3564POPC   C1B48295  43.419  43.888   6.278
 3564POPC   C2B48296  43.577  43.893   6.703
 3564POPC   C3B48297  43.501  43.676   7.097
 3564POPC   C4B48298  43.361  43.776   7.537
 3565POPC   NC348299  31.189  33.130   5.253
 3565POPC   PO448300  31.723  32.934   5.322
 3565POPC   GL148301  31.578  32.851   5.759
 3565POPC   GL248302  31.806  32.639   5.928
 3565POPC   C1A48303  31.366  32.931   6.159
 3565POPC   D2A48304  31.111  32.996   6.534
 3565POPC   C3A48305  31.254  33.085   6.980
 3565POPC   C4A48306  31.002  33.312   7.307
 3565POPC   C1B48307  31.770  32.693   6.362
 3565POPC   C2B48308  31.800  32.702   6.764
 3565POPC   C3B48309  31.586  32.721   7.115
 3565POPC   C4B48310  31.608  32.543   7.482
 3566POPC   NC348311  15.415  12.667   4.999
 3566POPC   PO448312  14.895  12.849   5.422
 3566POPC   GL148313  15.183  12.962   5.783
 3566POPC   GL248314  14.962  13.133   5.966
 3566POPC   C1A48315  15.374  12.917   6.208
 3566POPC   D2A48316  15.172  12.821   6.596
 3566POPC   C3A48317  15.244  13.058   6.962
 3566POPC   C4A48318  15.331  12.965   7.382
 3566POPC   C1B48319  14.900  12.692   6.123
 3566POPC   C2B48320  14.774  12.500   6.496
 3566POPC   C3B48321  14.921  12.474   6.900
 3566POPC   C4B48322  14.953  12.657   7.269
 3567POPC   NC348323  37.687  31.290   5.455
 3567POPC   PO448324  37.298  31.772   5.682
 3567POPC   GL148325  37.723  31.637   5.847
 3567POPC   GL248326  37.766  31.279   5.963
 3567POPC   C1A48327  37.964  31.659   6.233
 3567POPC   D2A48328  37.733  31.590   6.600
 3567POPC   C3A48329  37.971  31.429   6.916
 3567POPC   C4A48330  37.913  31.559   7.311
 3567POPC   C1B48331  37.405  31.398   6.241
 3567POPC   C2B48332  37.319  31.240   6.671
 3567POPC   C3B48333  37.448  31.369   7.079
 3567POPC   C4B48334  37.465  31.770   7.264
 3568POPC   NC348335  26.471  41.054   5.417
 3568POPC   PO448336  25.782  40.906   5.357
 3568POPC   GL148337  26.054  40.740   5.677
 3568POPC   GL248338  26.117  40.384   5.707
 3568POPC   C1A48339  25.921  40.706   6.101
 3568POPC   D2A48340  25.751  40.906   6.499
 3568POPC   C3A48341  25.771  40.695   6.927
 3568POPC   C4A48342  25.791  40.744   7.390
 3568POPC   C1B48343  26.365  40.423   6.105
 3568POPC   C2B48344  26.345  40.215   6.491
 3568POPC   C3B48345  26.252  40.462   6.880
 3568POPC   C4B48346  26.288  40.661   7.278
 3569POPC   NC348347  17.523  21.850   5.524
 3569POPC   PO448348  17.369  22.515   5.383
 3569POPC   GL148349  17.228  22.248   5.762
 3569POPC   GL248350  17.067  21.928   5.740
 3569POPC   C1A48351  17.319  22.285   6.205
 3569POPC   D2A48352  17.288  22.491   6.604
 3569POPC   C3A48353  17.519  22.386   6.963
 3569POPC   C4A48354  17.666  22.417   7.373
 3569POPC   C1B48355  16.998  21.886   6.185
 3569POPC   C2B48356  17.171  21.955   6.594
 3569POPC   C3B48357  17.080  22.095   6.995
 3569POPC   C4B48358  17.189  22.230   7.401
 3570POPC   NC348359   6.275   4.320   5.513
 3570POPC   PO448360   6.490   3.760   5.310
 3570POPC   GL148361   6.550   4.013   5.771
 3570POPC   GL248362   6.876   4.120   5.895
 3570POPC   C1A48363   6.477   4.322   6.160
 3570POPC   D2A48364   6.653   4.502   6.580
 3570POPC   C3A48365   6.577   4.443   7.047
 3570POPC   C4A48366   6.645   4.037   7.237
 3570POPC   C1B48367   7.000   4.474   6.160
 3570POPC   C2B48368   7.144   4.642   6.552
 3570POPC   C3B48369   7.084   4.450   6.972
 3570POPC   C4B48370   6.986   4.670   7.337
 3571POPC   NC348371   6.117  22.842   5.236
 3571POPC   PO448372   5.539  23.158   5.492
 3571POPC   GL148373   5.654  23.088   5.920
 3571POPC   GL248374   5.759  22.733   6.016
 3571POPC   C1A48375   5.637  23.047   6.377
 3571POPC   D2A48376   5.732  22.936   6.813
 3571POPC   C3A48377   5.625  23.204   7.167
 3571POPC   C4A48378   5.696  23.188   7.637
 3571POPC   C1B48379   6.142  22.543   6.243
 3571POPC   C2B48380   6.258  22.356   6.615
 3571POPC   C3B48381   6.101  22.522   7.016
 3571POPC   C4B48382   5.825  22.747   7.294
 3572POPC   NC348383  12.213  24.904   5.343
 3572POPC   PO448384  11.965  24.216   5.308
 3572POPC   GL148385  12.048  24.353   5.714
 3572POPC   GL248386  11.915  24.674   5.701
 3572POPC   C1A48387  12.195  24.505   6.140
 3572POPC   D2A48388  12.375  24.670   6.555
 3572POPC   C3A48389  12.464  24.437   6.978
 3572POPC   C4A48390  12.256  24.346   7.416
 3572POPC   C1B48391  11.764  24.834   6.085
 3572POPC   C2B48392  11.839  24.664   6.479
 3572POPC   C3B48393  12.028  24.340   6.737
 3572POPC   C4B48394  12.038  24.677   7.073
 3573POPC   NC348395  32.138   9.778   4.821
 3573POPC   PO448396  32.092   9.708   5.430
 3573POPC   GL148397  32.245   9.871   5.835
 3573POPC   GL248398  32.583   9.807   5.814
 3573POPC   C1A48399  32.229   9.897   6.324
 3573POPC   D2A48400  32.400   9.946   6.771
 3573POPC   C3A48401  32.254   9.823   7.199
 3573POPC   C4A48402  31.907   9.552   7.367
 3573POPC   C1B48403  32.674   9.653   6.250
 3573POPC   C2B48404  32.778   9.615   6.703
 3573POPC   C3B48405  32.784   9.809   7.119
 3573POPC   C4B48406  32.674   9.987   7.508
 3574POPC   NC348407  25.577  42.370   5.470
 3574POPC   PO448408  25.054  41.981   5.379
 3574POPC   GL148409  25.236  42.193   5.802
 3574POPC   GL248410  25.253  42.587   5.800
 3574POPC   C1A48411  25.275  42.168   6.284
 3574POPC   D2A48412  25.105  42.434   6.657
 3574POPC   C3A48413  25.102  42.217   7.078
 3574POPC   C4A48414  25.332  42.003   7.422
 3574POPC   C1B48415  25.418  42.655   6.198
 3574POPC   C2B48416  25.602  42.470   6.577
 3574POPC   C3B48417  25.508  42.523   7.001
 3574POPC   C4B48418  25.692  42.664   7.353
 3575POPC   NC348419  22.024  19.335   5.645
 3575POPC   PO448420  22.170  18.736   5.500
 3575POPC   GL148421  22.244  18.919   5.904
 3575POPC   GL248422  21.870  18.994   5.993
 3575POPC   C1A48423  22.185  18.879   6.365
 3575POPC   D2A48424  22.057  19.003   6.771
 3575POPC   C3A48425  22.407  19.029   7.065
 3575POPC   C4A48426  22.430  18.982   7.511
 3575POPC   C1B48427  21.938  19.341   6.324
 3575POPC   C2B48428  21.912  19.511   6.754
 3575POPC   C3B48429  22.012  19.340   7.168
 3575POPC   C4B48430  21.915  18.975   7.394
 3576POPC   NC348431  25.449  21.091   5.455
 3576POPC   PO448432  25.012  21.697   5.409
 3576POPC   GL148433  25.236  21.490   5.755
 3576POPC   GL248434  24.976  21.310   5.892
 3576POPC   C1A48435  25.441  21.317   6.150
 3576POPC   D2A48436  25.257  21.259   6.568
 3576POPC   C3A48437  25.485  21.306   6.971
 3576POPC   C4A48438  25.491  21.107   7.376
 3576POPC   C1B48439  24.939  21.628   6.210
 3576POPC   C2B48440  24.944  21.642   6.665
 3576POPC   C3B48441  24.956  21.320   6.986
 3576POPC   C4B48442  25.134  21.458   7.353
 3577POPC   NC348443   9.970  37.231   5.505
 3577POPC   PO448444   9.416  36.876   5.369
 3577POPC   GL148445   9.593  37.041   5.809
 3577POPC   GL248446   9.913  37.157   5.996
 3577POPC   C1A48447   9.479  37.023   6.246
 3577POPC   D2A48448   9.794  37.050   6.584
 3577POPC   C3A48449   9.587  37.049   6.978
 3577POPC   C4A48450   9.338  36.760   7.286
 3577POPC   C1B48451  10.077  37.415   6.336
 3577POPC   C2B48452  10.057  37.454   6.776
 3577POPC   C3B48453  10.132  37.127   7.124
 3577POPC   C4B48454  10.209  36.948   7.542
 3578POPC   NC348455  21.168  14.455   5.454
 3578POPC   PO448456  21.688  14.096   5.680
 3578POPC   GL148457  21.563  14.461   5.945
 3578POPC   GL248458  21.208  14.529   5.939
 3578POPC   C1A48459  21.505  14.522   6.417
 3578POPC   D2A48460  21.616  14.615   6.871
 3578POPC   C3A48461  21.466  14.326   7.200
 3578POPC   C4A48462  21.122  14.039   7.263
 3578POPC   C1B48463  21.009  14.675   6.249
 3578POPC   C2B48464  21.103  14.813   6.620
 3578POPC   C3B48465  21.134  14.689   7.045
 3578POPC   C4B48466  20.980  14.504   7.404
 3579POPC   NC348467  24.655  36.720   5.646
 3579POPC   PO448468  24.779  36.117   5.256
 3579POPC   GL148469  24.770  36.215   5.675
 3579POPC   GL248470  24.472  36.158   5.763
 3579POPC   C1A48471  24.751  36.285   6.163
 3579POPC   D2A48472  24.770  35.976   6.528
 3579POPC   C3A48473  24.706  36.091   6.969
 3579POPC   C4A48474  24.574  36.345   7.337
 3579POPC   C1B48475  24.484  35.851   6.083
 3579POPC   C2B48476  24.392  35.649   6.473
 3579POPC   C3B48477  24.255  35.885   6.827
 3579POPC   C4B48478  24.326  35.896   7.263
 3580POPC   NC348479  39.736   0.018   5.585
 3580POPC   PO448480  40.183   0.468   5.333
 3580POPC   GL148481  40.071   0.416   5.738
 3580POPC   GL248482  40.209   0.055   5.784
 3580POPC   C1A48483  39.891   0.687   6.078
 3580POPC   D2A48484  40.018   0.740   6.503
 3580POPC   C3A48485  39.746   0.678   6.876
 3580POPC   C4A48486  39.758   0.561   7.293
 3580POPC   C1B48487  40.054   0.180   6.193
 3580POPC   C2B48488  40.253   0.285   6.586
 3580POPC   C3B48489  40.135   0.347   7.019
 3580POPC   C4B48490  39.987   0.147   7.423
 3581POPC   NC348491  28.106  27.586   5.287
 3581POPC   PO448492  28.651  27.604   5.398
 3581POPC   GL148493  28.354  27.646   5.794
 3581POPC   GL248494  28.055  27.453   5.799
 3581POPC   C1A48495  28.213  27.814   6.253
 3581POPC   D2A48496  27.962  27.827   6.672
 3581POPC   C3A48497  28.147  27.848   7.116
 3581POPC   C4A48498  28.570  27.933   7.331
 3581POPC   C1B48499  28.194  27.309   6.211
 3581POPC   C2B48500  28.339  27.467   6.632
 3581POPC   C3B48501  28.471  27.471   7.061
 3581POPC   C4B48502  28.397  27.500   7.512
 3582POPC   NC348503  10.632  26.549   5.481
 3582POPC   PO448504  10.423  27.186   5.330
 3582POPC   GL148505  10.443  26.965   5.727
 3582POPC   GL248506  10.815  26.976   5.716
 3582POPC   C1A48507  10.441  26.700   6.118
 3582POPC   D2A48508  10.579  26.771   6.539
 3582POPC   C3A48509  10.479  26.630   6.942
 3582POPC   C4A48510  10.652  26.420   7.297
 3582POPC   C1B48511  10.853  27.037   6.165
 3582POPC   C2B48512  10.998  27.068   6.594
 3582POPC   C3B48513  10.723  27.081   6.955
 3582POPC   C4B48514  10.731  26.924   7.363
 3583POPC   NC348515  34.832  24.761   5.401
 3583POPC   PO448516  34.320  24.358   5.243
 3583POPC   GL148517  34.422  24.394   5.730
 3583POPC   GL248518  34.375  24.716   5.659
 3583POPC   C1A48519  34.673  24.306   6.163
 3583POPC   D2A48520  34.899  24.319   6.590
 3583POPC   C3A48521  34.705  24.404   6.990
 3583POPC   C4A48522  34.861  24.489   7.420
 3583POPC   C1B48523  34.393  24.720   6.127
 3583POPC   C2B48524  34.410  24.542   6.554
 3583POPC   C3B48525  34.356  24.752   6.957
 3583POPC   C4B48526  34.357  24.594   7.333
 3584POPC   NC348527  14.592  38.755   5.404
 3584POPC   PO448528  14.248  38.175   5.316
 3584POPC   GL148529  14.446  38.342   5.686
 3584POPC   GL248530  14.277  38.649   5.793
 3584POPC   C1A48531  14.711  38.407   6.069
 3584POPC   D2A48532  14.657  38.251   6.518
 3584POPC   C3A48533  14.563  38.479   6.920
 3584POPC   C4A48534  14.368  38.351   7.313
 3584POPC   C1B48535  14.223  38.500   6.210
 3584POPC   C2B48536  14.226  38.713   6.558
 3584POPC   C3B48537  14.267  38.941   6.912
 3584POPC   C4B48538  14.444  38.876   7.278
 3585POPC   NC348539  40.885  39.359   5.335
 3585POPC   PO448540  40.831  38.766   5.343
 3585POPC   GL148541  40.963  38.965   5.741
 3585POPC   GL248542  40.881  39.311   5.842
 3585POPC   C1A48543  40.809  38.953   6.188
 3585POPC   D2A48544  40.995  38.897   6.607
 3585POPC   C3A48545  40.881  39.113   6.994
 3585POPC   C4A48546  40.967  39.034   7.434
 3585POPC   C1B48547  40.788  39.471   6.281
 3585POPC   C2B48548  40.744  39.565   6.747
 3585POPC   C3B48549  40.856  39.600   7.202
 3585POPC   C4B48550  40.651  39.444   7.566
 3586POPC   NC348551  25.540  14.899   5.628
 3586POPC   PO448552  26.245  14.992   5.442
 3586POPC   GL148553  26.043  15.167   5.774
 3586POPC   GL248554  25.716  15.361   5.750
 3586POPC   C1A48555  26.248  15.123   6.169
 3586POPC   D2A48556  26.327  15.285   6.559
 3586POPC   C3A48557  26.221  14.976   6.811
 3586POPC   C4A48558  26.019  15.029   7.176
 3586POPC   C1B48559  25.836  15.426   6.161
 3586POPC   C2B48560  25.820  15.577   6.566
 3586POPC   C3B48561  26.008  15.488   6.932
 3586POPC   C4B48562  25.830  15.508   7.304
 3587POPC   NC348563  38.458  23.940   5.166
 3587POPC   PO448564  38.733  23.314   5.404
 3587POPC   GL148565  38.456  23.536   5.746
 3587POPC   GL248566  38.525  23.904   5.828
 3587POPC   C1A48567  38.471  23.561   6.216
 3587POPC   D2A48568  38.673  23.557   6.638
 3587POPC   C3A48569  38.361  23.494   6.965
 3587POPC   C4A48570  38.203  23.739   7.300
 3587POPC   C1B48571  38.344  24.062   6.201
 3587POPC   C2B48572  38.243  23.861   6.572
 3587POPC   C3B48573  38.433  23.993   6.932
 3587POPC   C4B48574  38.413  24.272   7.253
 3588POPC   NC348575  23.317  32.201   5.271
 3588POPC   PO448576  23.944  32.345   5.460
 3588POPC   GL148577  23.681  32.211   5.810
 3588POPC   GL248578  23.551  31.836   5.798
 3588POPC   C1A48579  23.648  32.483   6.194
 3588POPC   D2A48580  23.827  32.541   6.592
 3588POPC   C3A48581  23.542  32.503   6.945
 3588POPC   C4A48582  23.533  32.412   7.420
 3588POPC   C1B48583  23.474  32.003   6.231
 3588POPC   C2B48584  23.373  32.099   6.653
 3588POPC   C3B48585  23.553  32.003   7.051
 3588POPC   C4B48586  23.928  31.778   7.144
 3589POPC   NC348587  33.050  17.823   5.392
 3589POPC   PO448588  33.245  17.266   5.320
 3589POPC   GL148589  33.247  17.451   5.747
 3589POPC   GL248590  32.970  17.635   5.849
 3589POPC   C1A48591  33.362  17.554   6.185
 3589POPC   D2A48592  33.139  17.743   6.563
 3589POPC   C3A48593  33.189  17.506   6.926
 3589POPC   C4A48594  33.491  17.550   7.206
 3589POPC   C1B48595  32.853  17.449   6.214
 3589POPC   C2B48596  32.622  17.641   6.535
 3589POPC   C3B48597  32.723  17.730   6.946
 3589POPC   C4B48598  32.780  17.442   7.262
 3590POPC   NC348599  15.307  22.110   5.265
 3590POPC   PO448600  14.946  21.763   5.629
 3590POPC   GL148601  15.239  22.108   5.798
 3590POPC   GL248602  15.055  22.454   5.790
 3590POPC   C1A48603  15.475  22.150   6.215
 3590POPC   D2A48604  15.371  22.163   6.679
 3590POPC   C3A48605  15.466  21.932   7.073
 3590POPC   C4A48606  15.361  21.970   7.526
 3590POPC   C1B48607  14.984  22.363   6.252
 3590POPC   C2B48608  15.031  22.537   6.693
 3590POPC   C3B48609  15.115  22.351   7.108
 3590POPC   C4B48610  14.880  22.150   7.460
 3591POPC   NC348611  20.797  34.767   5.563
 3591POPC   PO448612  20.434  34.189   5.388
 3591POPC   GL148613  20.263  34.434   5.746
 3591POPC   GL248614  20.362  34.793   5.840
 3591POPC   C1A48615  20.367  34.361   6.188
 3591POPC   D2A48616  20.636  34.288   6.560
 3591POPC   C3A48617  20.418  34.491   6.904
 3591POPC   C4A48618  20.400  34.383   7.352
 3591POPC   C1B48619  20.661  34.807   6.226
 3591POPC   C2B48620  20.801  34.767   6.661
 3591POPC   C3B48621  20.914  34.590   7.045
 3591POPC   C4B48622  20.983  34.755   7.459
 3592POPC   NC348623  31.474  24.666   5.225
 3592POPC   PO448624  31.884  24.361   5.388
 3592POPC   GL148625  31.565  24.490   5.726
 3592POPC   GL248626  31.532  24.854   5.832
 3592POPC   C1A48627  31.430  24.450   6.199
 3592POPC   D2A48628  31.435  24.608   6.658
 3592POPC   C3A48629  31.402  24.363   7.062
 3592POPC   C4A48630  31.422  24.094   7.464
 3592POPC   C1B48631  31.311  24.954   6.264
 3592POPC   C2B48632  31.138  25.016   6.721
 3592POPC   C3B48633  31.178  24.866   7.180
 3592POPC   C4B48634  31.014  24.863   7.631
 3593POPC   NC348635  35.180  40.104   5.275
 3593POPC   PO448636  35.679  39.676   5.444
 3593POPC   GL148637  35.562  39.917   5.826
 3593POPC   GL248638  35.557  40.255   5.833
 3593POPC   C1A48639  35.269  39.935   6.193
 3593POPC   D2A48640  35.159  40.165   6.571
 3593POPC   C3A48641  35.226  40.089   7.020
 3593POPC   C4A48642  35.249  40.116   7.495
 3593POPC   C1B48643  35.669  40.239   6.287
 3593POPC   C2B48644  35.641  39.916   6.625
 3593POPC   C3B48645  35.624  39.786   7.073
 3593POPC   C4B48646  35.700  40.189   7.275
 3594POPC   NC348647   8.855  41.432   5.203
 3594POPC   PO448648   9.383  41.837   5.104
 3594POPC   GL148649   9.150  41.458   5.597
 3594POPC   GL248650   8.760  41.443   5.708
 3594POPC   C1A48651   8.986  41.694   6.106
 3594POPC   D2A48652   9.143  41.790   6.535
 3594POPC   C3A48653   8.933  41.613   6.893
 3594POPC   C4A48654   8.878  41.753   7.301
 3594POPC   C1B48655   8.931  41.215   6.065
 3594POPC   C2B48656   8.982  41.181   6.504
 3594POPC   C3B48657   9.181  41.142   6.891
 3594POPC   C4B48658   9.042  41.288   7.298
 3595POPC   NC348659  35.165  44.253   4.926
 3595POPC   PO448660  35.462  44.749   5.402
 3595POPC   GL148661  35.452  44.778   5.845
 3595POPC   GL248662  35.420  44.434   5.862
 3595POPC   C1A48663  35.583  44.855   6.285
 3595POPC   D2A48664  35.377  44.907   6.716
 3595POPC   C3A48665  35.477  44.733   7.168
 3595POPC   C4A48666  35.646  44.912   7.600
 3595POPC   C1B48667  35.472  44.333   6.264
 3595POPC   C2B48668  35.262  44.392   6.647
 3595POPC   C3B48669  35.042  44.285   7.020
 3595POPC   C4B48670  35.224  44.296   7.404
 3596POPC   NC348671  34.280  44.844   5.568
 3596POPC   PO448672  33.657  44.506   5.372
 3596POPC   GL148673  33.665  44.744   5.747
 3596POPC   GL248674  33.808   0.078   5.715
 3596POPC   C1A48675  33.789  44.619   6.159
 3596POPC   D2A48676  33.800  44.431   6.564
 3596POPC   C3A48677  33.603  44.642   6.881
 3596POPC   C4A48678  33.557  44.545   7.302
 3596POPC   C1B48679  33.917   0.135   6.197
 3596POPC   C2B48680  34.002   0.040   6.664
 3596POPC   C3B48681  34.041  44.840   7.071
 3596POPC   C4B48682  33.996  44.655   7.482
 3597POPC   NC348683  41.118  17.614   5.625
 3597POPC   PO448684  41.749  17.313   5.337
 3597POPC   GL148685  41.526  17.358   5.811
 3597POPC   GL248686  41.192  17.496   6.102
 3597POPC   C1A48687  41.578  17.239   6.257
 3597POPC   D2A48688  41.468  17.430   6.652
 3597POPC   C3A48689  41.538  17.304   7.072
 3597POPC   C4A48690  41.750  17.154   7.479
 3597POPC   C1B48691  41.216  17.834   6.474
 3597POPC   C2B48692  41.555  17.915   6.760
 3597POPC   C3B48693  41.832  17.733   7.004
 3597POPC   C4B48694  41.735  17.648   7.415
 3598POPC   NC348695  13.881   5.407   5.490
 3598POPC   PO448696  13.413   4.984   5.197
 3598POPC   GL148697  13.419   5.169   5.674
 3598POPC   GL248698  13.732   5.073   5.856
 3598POPC   C1A48699  13.378   5.156   6.184
 3598POPC   D2A48700  13.722   5.118   6.523
 3598POPC   C3A48701  13.780   5.209   6.994
 3598POPC   C4A48702  13.428   5.257   7.287
 3598POPC   C1B48703  13.725   4.749   6.162
 3598POPC   C2B48704  13.591   4.619   6.576
 3598POPC   C3B48705  13.417   4.860   6.936
 3598POPC   C4B48706  13.484   4.743   7.372
 3599POPC   NC348707  37.846  35.657   5.510
 3599POPC   PO448708  37.640  35.078   5.455
 3599POPC   GL148709  37.584  35.243   5.851
 3599POPC   GL248710  37.524  35.599   5.902
 3599POPC   C1A48711  37.554  35.246   6.276
 3599POPC   D2A48712  37.802  35.316   6.591
 3599POPC   C3A48713  37.684  35.122   6.938
 3599POPC   C4A48714  37.770  35.285   7.332
 3599POPC   C1B48715  37.880  35.679   6.183
 3599POPC   C2B48716  38.219  35.568   6.467
 3599POPC   C3B48717  38.037  35.699   6.866
 3599POPC   C4B48718  37.789  35.779   7.206
 3600POPC   NC348719  22.116   4.367   5.344
 3600POPC   PO448720  22.543   4.008   5.580
 3600POPC   GL148721  22.304   4.324   5.834
 3600POPC   GL248722  22.201   4.680   5.721
 3600POPC   C1A48723  22.337   4.309   6.281
 3600POPC   D2A48724  22.514   4.295   6.696
 3600POPC   C3A48725  22.248   4.235   7.055
 3600POPC   C4A48726  21.845   4.200   7.290
 3600POPC   C1B48727  22.134   4.778   6.164
 3600POPC   C2B48728  22.172   4.689   6.652
 3600POPC   C3B48729  21.976   4.678   7.054
 3600POPC   C4B48730  22.083   4.641   7.457
 3601POPC   NC348731  10.378   2.033   5.106
 3601POPC   PO448732  10.912   2.159   5.501
 3601POPC   GL148733  10.540   2.223   5.706
 3601POPC   GL248734  10.417   1.899   5.718
 3601POPC   C1A48735  10.425   2.321   6.141
 3601POPC   D2A48736  10.537   2.301   6.612
 3601POPC   C3A48737  10.418   1.956   6.882
 3601POPC   C4A48738  10.206   2.028   7.276
 3601POPC   C1B48739  10.458   1.772   6.155
 3601POPC   C2B48740  10.747   1.795   6.502
 3601POPC   C3B48741  10.814   1.613   6.929
 3601POPC   C4B48742  10.594   1.688   7.295
 3602POPC   NC348743  41.283  38.670   5.371
 3602POPC   PO448744  41.890  38.284   5.516
 3602POPC   GL148745  41.570  38.478   5.759
 3602POPC   GL248746  41.648  38.847   5.683
 3602POPC   C1A48747  41.511  38.347   6.196
 3602POPC   D2A48748  41.449  38.632   6.572
 3602POPC   C3A48749  41.442  38.447   6.985
 3602POPC   C4A48750  41.351  38.620   7.393
 3602POPC   C1B48751  41.761  38.781   6.114
 3602POPC   C2B48752  41.948  38.528   6.448
 3602POPC   C3B48753  41.934  38.531   6.887
 3602POPC   C4B48754  41.809  38.767   7.220
 3603POPC   NC348755  41.898  14.566   5.428
 3603POPC   PO448756  42.586  14.660   5.414
 3603POPC   GL148757  42.353  14.393   5.722
 3603POPC   GL248758  42.033  14.478   5.904
 3603POPC   C1A48759  42.444  14.372   6.167
 3603POPC   D2A48760  42.177  14.343   6.505
 3603POPC   C3A48761  42.456  14.426   6.844
 3603POPC   C4A48762  42.541  14.256   7.204
 3603POPC   C1B48763  42.117  14.801   6.206
 3603POPC   C2B48764  42.204  14.842   6.613
 3603POPC   C3B48765  42.008  14.629   6.919
 3603POPC   C4B48766  42.276  14.809   7.175
 3604POPC   NC348767  26.940  18.818   5.413
 3604POPC   PO448768  26.487  19.305   5.300
 3604POPC   GL148769  26.747  19.145   5.736
 3604POPC   GL248770  27.112  19.080   5.812
 3604POPC   C1A48771  26.657  18.805   6.098
 3604POPC   D2A48772  26.459  18.788   6.543
 3604POPC   C3A48773  26.656  18.850   6.999
 3604POPC   C4A48774  26.579  19.182   7.340
 3604POPC   C1B48775  26.980  19.175   6.221
 3604POPC   C2B48776  27.025  19.320   6.629
 3604POPC   C3B48777  27.011  19.276   7.058
 3604POPC   C4B48778  27.043  19.377   7.471
 3605POPC   NC348779  17.736  15.136   5.388
 3605POPC   PO448780  17.110  15.482   5.566
 3605POPC   GL148781  17.390  15.266   5.770
 3605POPC   GL248782  17.399  14.935   5.742
 3605POPC   C1A48783  17.509  15.307   6.150
 3605POPC   D2A48784  17.650  15.289   6.530
 3605POPC   C3A48785  17.355  15.334   6.841
 3605POPC   C4A48786  17.482  15.338   7.228
 3605POPC   C1B48787  17.417  14.803   6.215
 3605POPC   C2B48788  17.393  14.855   6.676
 3605POPC   C3B48789  17.624  14.865   7.083
 3605POPC   C4B48790  17.529  14.942   7.527
 3606POPC   NC348791  26.570  33.312   5.234
 3606POPC   PO448792  26.947  32.770   5.215
 3606POPC   GL148793  26.936  33.074   5.609
 3606POPC   GL248794  27.141  33.409   5.640
 3606POPC   C1A48795  26.779  33.044   6.063
 3606POPC   D2A48796  26.797  32.730   6.409
 3606POPC   C3A48797  26.686  32.853   6.818
 3606POPC   C4A48798  26.903  32.944   7.188
 3606POPC   C1B48799  27.267  33.175   6.022
 3606POPC   C2B48800  27.240  32.999   6.457
 3606POPC   C3B48801  27.372  33.075   6.883
 3606POPC   C4B48802  27.269  33.395   7.173
 3607POPC   NC348803  33.378  30.458   5.467
 3607POPC   PO448804  32.981  31.021   5.308
 3607POPC   GL148805  33.030  30.843   5.770
 3607POPC   GL248806  33.258  30.590   5.937
 3607POPC   C1A48807  32.944  30.855   6.221
 3607POPC   D2A48808  33.124  30.675   6.623
 3607POPC   C3A48809  32.956  30.749   7.041
 3607POPC   C4A48810  32.806  30.637   7.475
 3607POPC   C1B48811  32.902  30.363   6.195
 3607POPC   C2B48812  32.746  30.340   6.646
 3607POPC   C3B48813  32.952  30.256   7.060
 3607POPC   C4B48814  33.349  30.469   7.253
 3608POPC   NC348815  39.709  19.232   5.384
 3608POPC   PO448816  40.143  18.639   5.446
 3608POPC   GL148817  40.041  19.016   5.730
 3608POPC   GL248818  39.757  18.905   5.906
 3608POPC   C1A48819  40.121  19.271   6.129
 3608POPC   D2A48820  40.157  19.073   6.554
 3608POPC   C3A48821  40.085  19.209   6.982
 3608POPC   C4A48822  40.092  18.966   7.368
 3608POPC   C1B48823  39.686  19.110   6.312
 3608POPC   C2B48824  39.647  19.048   6.755
 3608POPC   C3B48825  39.603  18.881   7.153
 3608POPC   C4B48826  39.635  18.901   7.577
 3609POPC   NC348827  34.959   5.765   5.394
 3609POPC   PO448828  34.351   5.619   5.366
 3609POPC   GL148829  34.556   5.847   5.706
 3609POPC   GL248830  34.657   5.585   5.821
 3609POPC   C1A48831  34.565   6.002   6.141
 3609POPC   D2A48832  34.431   5.908   6.564
 3609POPC   C3A48833  34.689   5.960   6.963
 3609POPC   C4A48834  34.650   6.058   7.384
 3609POPC   C1B48835  34.355   5.529   6.164
 3609POPC   C2B48836  34.181   5.428   6.547
 3609POPC   C3B48837  34.325   5.574   6.940
 3609POPC   C4B48838  34.488   5.557   7.339
 3610POPC   NC348839  23.407  11.038   5.454
 3610POPC   PO448840  23.760  11.667   5.204
 3610POPC   GL148841  23.683  11.542   5.699
 3610POPC   GL248842  23.842  11.220   5.754
 3610POPC   C1A48843  23.462  11.460   6.159
 3610POPC   D2A48844  23.352  11.271   6.631
 3610POPC   C3A48845  23.555  11.406   7.077
 3610POPC   C4A48846  23.375  11.676   7.440
 3610POPC   C1B48847  23.806  11.078   6.186
 3610POPC   C2B48848  23.743  10.926   6.610
 3610POPC   C3B48849  23.555  10.912   7.004
 3610POPC   C4B48850  23.829  10.966   7.312
 3611POPC   NC348851  31.797   4.784   4.946
 3611POPC   PO448852  31.336   5.173   5.275
 3611POPC   GL148853  31.494   5.077   5.717
 3611POPC   GL248854  31.652   5.352   5.906
 3611POPC   C1A48855  31.340   5.067   6.164
 3611POPC   D2A48856  31.235   5.257   6.547
 3611POPC   C3A48857  31.296   5.044   6.906
 3611POPC   C4A48858  31.537   4.962   7.241
 3611POPC   C1B48859  31.849   5.439   6.288
 3611POPC   C2B48860  31.953   5.463   6.726
 3611POPC   C3B48861  31.624   5.452   7.051
 3611POPC   C4B48862  31.439   5.786   7.308
 3612POPC   NC348863   2.752   2.426   5.441
 3612POPC   PO448864   2.964   2.996   5.289
 3612POPC   GL148865   2.964   3.093   5.720
 3612POPC   GL248866   2.933   2.746   5.844
 3612POPC   C1A48867   2.871   3.129   6.181
 3612POPC   D2A48868   2.922   2.907   6.582
 3612POPC   C3A48869   2.804   3.120   6.964
 3612POPC   C4A48870   2.417   3.082   7.196
 3612POPC   C1B48871   2.677   2.572   6.222
 3612POPC   C2B48872   2.564   2.467   6.676
 3612POPC   C3B48873   2.616   2.524   7.134
 3612POPC   C4B48874   2.683   2.292   7.542
 3613POPC   NC348875   0.943   2.173   5.459
 3613POPC   PO448876   1.523   1.820   5.244
 3613POPC   GL148877   1.327   1.862   5.696
 3613POPC   GL248878   1.165   2.116   5.922
 3613POPC   C1A48879   1.243   1.682   6.136
 3613POPC   D2A48880   1.127   1.784   6.576
 3613POPC   C3A48881   1.277   1.859   6.993
 3613POPC   C4A48882   1.431   2.231   7.177
 3613POPC   C1B48883   0.826   2.006   6.203
 3613POPC   C2B48884   0.675   2.004   6.625
 3613POPC   C3B48885   0.843   2.219   6.996
 3613POPC   C4B48886   0.981   2.055   7.378
 3614POPC   NC348887   8.473   8.407   5.351
 3614POPC   PO448888   7.987   7.955   5.352
 3614POPC   GL148889   8.007   8.128   5.790
 3614POPC   GL248890   8.341   8.294   5.847
 3614POPC   C1A48891   8.041   8.138   6.232
 3614POPC   D2A48892   8.288   8.089   6.563
 3614POPC   C3A48893   7.969   8.016   6.857
 3614POPC   C4A48894   7.999   7.883   7.266
 3614POPC   C1B48895   8.583   8.547   6.158
 3614POPC   C2B48896   8.521   8.546   6.603
 3614POPC   C3B48897   8.289   8.371   6.997
 3614POPC   C4B48898   8.390   8.315   7.415
 3615POPC   NC348899  26.376   8.340   5.374
 3615POPC   PO448900  25.769   8.372   5.363
 3615POPC   GL148901  25.902   8.149   5.761
 3615POPC   GL248902  25.667   7.877   5.848
 3615POPC   C1A48903  26.139   8.052   6.170
 3615POPC   D2A48904  26.002   8.125   6.612
 3615POPC   C3A48905  26.217   8.284   6.993
 3615POPC   C4A48906  26.384   8.201   7.401
 3615POPC   C1B48907  25.630   8.120   6.242
 3615POPC   C2B48908  25.485   8.079   6.636
 3615POPC   C3B48909  25.703   7.864   6.951
 3615POPC   C4B48910  25.937   7.957   7.286
 3616POPC   NC348911  20.048  38.748   5.355
 3616POPC   PO448912  19.705  38.236   5.204
 3616POPC   GL148913  19.776  38.387   5.630
 3616POPC   GL248914  19.557  38.683   5.678
 3616POPC   C1A48915  20.027  38.260   6.013
 3616POPC   D2A48916  19.858  38.074   6.426
 3616POPC   C3A48917  20.129  38.144   6.788
 3616POPC   C4A48918  20.025  38.417   7.126
 3616POPC   C1B48919  19.601  38.517   6.119
 3616POPC   C2B48920  19.737  38.613   6.564
 3616POPC   C3B48921  19.565  38.610   7.010
 3616POPC   C4B48922  19.559  38.261   7.320
 3617POPC   NC348923  41.684  41.146   5.488
 3617POPC   PO448924  41.604  40.520   5.654
 3617POPC   GL148925  41.487  40.807   5.858
 3617POPC   GL248926  41.214  40.919   5.620
 3617POPC   C1A48927  41.543  40.901   6.306
 3617POPC   D2A48928  41.830  40.742   6.643
 3617POPC   C3A48929  41.736  40.780   7.075
 3617POPC   C4A48930  41.558  40.445   7.395
 3617POPC   C1B48931  41.046  40.965   6.041
 3617POPC   C2B48932  41.079  41.065   6.487
 3617POPC   C3B48933  41.324  41.024   6.851
 3617POPC   C4B48934  41.266  40.846   7.259
 3618POPC   NC348935  17.418  10.859   5.534
 3618POPC   PO448936  17.514  10.173   5.668
 3618POPC   GL148937  17.769  10.354   5.946
 3618POPC   GL248938  18.004  10.594   5.735
 3618POPC   C1A48939  17.589  10.359   6.360
 3618POPC   D2A48940  17.244  10.478   6.642
 3618POPC   C3A48941  17.371  10.381   7.056
 3618POPC   C4A48942  17.750  10.300   7.287
 3618POPC   C1B48943  17.800  10.830   6.084
 3618POPC   C2B48944  17.626  10.849   6.491
 3618POPC   C3B48945  17.754  10.678   6.861
 3618POPC   C4B48946  17.593  10.803   7.224
 3619POPC   NC348947  22.301  33.435   5.499
 3619POPC   PO448948  21.944  32.897   5.215
 3619POPC   GL148949  22.032  33.030   5.639
 3619POPC   GL248950  21.875  33.280   5.840
 3619POPC   C1A48951  22.244  32.971   6.052
 3619POPC   D2A48952  22.209  32.848   6.514
 3619POPC   C3A48953  22.301  32.991   6.960
 3619POPC   C4A48954  22.228  32.859   7.401
 3619POPC   C1B48955  21.975  33.310   6.314
 3619POPC   C2B48956  21.910  33.303   6.777
 3619POPC   C3B48957  21.876  33.149   7.196
 3619POPC   C4B48958  21.919  33.181   7.642
 3620POPC   NC348959  12.841  43.314   5.333
 3620POPC   PO448960  13.169  42.665   5.373
 3620POPC   GL148961  13.035  42.943   5.686
 3620POPC   GL248962  13.240  43.251   5.696
 3620POPC   C1A48963  12.755  43.049   6.034
 3620POPC   D2A48964  12.878  43.067   6.483
 3620POPC   C3A48965  12.627  42.935   6.848
 3620POPC   C4A48966  12.791  43.084   7.222
 3620POPC   C1B48967  13.258  43.102   6.130
 3620POPC   C2B48968  13.337  43.315   6.528
 3620POPC   C3B48969  13.197  43.187   6.931
 3620POPC   C4B48970  13.410  43.137   7.333
 3621POPC   NC348971   7.403  11.566   5.386
 3621POPC   PO448972   7.668  10.981   5.435
 3621POPC   GL148973   7.538  11.170   5.841
 3621POPC   GL248974   7.204  11.323   5.905
 3621POPC   C1A48975   7.487  11.173   6.319
 3621POPC   D2A48976   7.564  10.960   6.735
 3621POPC   C3A48977   7.574  11.228   7.122
 3621POPC   C4A48978   7.665  11.368   7.545
 3621POPC   C1B48979   6.967  11.233   6.268
 3621POPC   C2B48980   7.131  11.283   6.683
 3621POPC   C3B48981   7.049  11.209   7.086
 3621POPC   C4B48982   7.194  11.459   7.399
 3622POPC   NC348983  39.937  39.058   5.443
 3622POPC   PO448984  40.346  39.640   5.386
 3622POPC   GL148985  40.220  39.333   5.750
 3622POPC   GL248986  40.438  39.036   5.793
 3622POPC   C1A48987  39.924  39.321   6.126
 3622POPC   D2A48988  40.052  39.325   6.580
 3622POPC   C3A48989  39.876  39.121   6.952
 3622POPC   C4A48990  39.702  39.280   7.314
 3622POPC   C1B48991  40.308  38.994   6.224
 3622POPC   C2B48992  40.518  39.131   6.595
 3622POPC   C3B48993  40.382  39.272   7.022
 3622POPC   C4B48994  40.200  39.010   7.347
 3623POPC   NC348995  26.834   7.742   5.380
 3623POPC   PO448996  27.202   7.210   5.164
 3623POPC   GL148997  26.856   7.352   5.664
 3623POPC   GL248998  27.056   7.657   5.828
 3623POPC   C1A48999  26.715   7.405   6.142
 3623POPC   D2A49000  26.537   7.654   6.525
 3623POPC   C3A49001  26.602   7.463   6.964
 3623POPC   C4A49002  26.786   7.486   7.402
 3623POPC   C1B49003  27.173   7.626   6.260
 3623POPC   C2B49004  27.015   7.526   6.660
 3623POPC   C3B49005  27.047   7.719   7.051
 3623POPC   C4B49006  27.179   7.803   7.487
 3624POPC   NC349007   6.350  29.196   5.450
 3624POPC   PO449008   6.956  29.383   5.479
 3624POPC   GL149009   6.803  29.208   5.848
 3624POPC   GL249010   6.595  28.923   5.803
 3624POPC   C1A49011   6.649  29.226   6.259
 3624POPC   D2A49012   6.438  29.325   6.625
 3624POPC   C3A49013   6.676  29.327   6.964
 3624POPC   C4A49014   6.858  29.364   7.355
 3624POPC   C1B49015   6.411  28.751   6.156
 3624POPC   C2B49016   6.535  28.800   6.554
 3624POPC   C3B49017   6.384  28.879   6.934
 3624POPC   C4B49018   6.642  28.910   7.270
 3625POPC   NC349019  12.268  21.021   5.445
 3625POPC   PO449020  11.677  20.747   5.376
 3625POPC   GL149021  11.975  20.690   5.741
 3625POPC   GL249022  12.145  20.357   5.740
 3625POPC   C1A49023  11.990  20.816   6.184
 3625POPC   D2A49024  11.763  20.796   6.592
 3625POPC   C3A49025  11.948  20.785   7.036
 3625POPC   C4A49026  11.706  20.822   7.421
 3625POPC   C1B49027  12.316  20.390   6.158
 3625POPC   C2B49028  12.244  20.205   6.577
 3625POPC   C3B49029  12.077  20.290   7.012
 3625POPC   C4B49030  12.113  20.495   7.444
 3626POPC   NC349031   2.343  14.705   5.205
 3626POPC   PO449032   1.997  14.037   5.312
 3626POPC   GL149033   1.740  14.290   5.616
 3626POPC   GL249034   2.036  14.465   5.778
 3626POPC   C1A49035   1.683  14.252   6.091
 3626POPC   D2A49036   1.798  14.452   6.475
 3626POPC   C3A49037   1.639  14.376   6.897
 3626POPC   C4A49038   1.822  14.441   7.296
 3626POPC   C1B49039   2.223  14.507   6.202
 3626POPC   C2B49040   2.303  14.356   6.615
 3626POPC   C3B49041   2.237  14.550   6.988
 3626POPC   C4B49042   2.498  14.602   7.335
 3627POPC   NC349043  36.853  39.806   5.499
 3627POPC   PO449044  37.246  40.283   5.308
 3627POPC   GL149045  37.056  40.208   5.751
 3627POPC   GL249046  37.128  39.852   5.930
 3627POPC   C1A49047  36.894  40.224   6.166
 3627POPC   D2A49048  37.042  39.884   6.452
 3627POPC   C3A49049  36.966  39.935   6.904
 3627POPC   C4A49050  37.025  40.159   7.289
 3627POPC   C1B49051  36.702  39.685   6.125
 3627POPC   C2B49052  36.641  39.527   6.539
 3627POPC   C3B49053  36.504  39.719   6.900
 3627POPC   C4B49054  36.569  39.921   7.280
 3628POPC   NC349055  31.594  22.658   5.364
 3628POPC   PO449056  31.268  23.214   5.420
 3628POPC   GL149057  31.395  22.846   5.775
 3628POPC   GL249058  31.764  22.871   5.826
 3628POPC   C1A49059  31.568  22.641   6.231
 3628POPC   D2A49060  31.614  22.819   6.664
 3628POPC   C3A49061  31.653  22.612   7.081
 3628POPC   C4A49062  31.324  22.646   7.455
 3628POPC   C1B49063  31.561  23.138   6.142
 3628POPC   C2B49064  31.584  23.327   6.520
 3628POPC   C3B49065  31.474  23.259   6.914
 3628POPC   C4B49066  31.727  23.093   7.205
 3629POPC   NC349067  22.423  32.790   5.145
 3629POPC   PO449068  22.283  32.167   5.442
 3629POPC   GL149069  22.016  32.195   5.780
 3629POPC   GL249070  22.102  32.542   5.774
 3629POPC   C1A49071  22.031  32.029   6.229
 3629POPC   D2A49072  22.377  32.015   6.549
 3629POPC   C3A49073  22.365  32.380   6.822
 3629POPC   C4A49074  22.090  32.292   7.177
 3629POPC   C1B49075  21.902  32.573   6.152
 3629POPC   C2B49076  21.916  32.422   6.562
 3629POPC   C3B49077  21.912  32.681   6.914
 3629POPC   C4B49078  21.780  32.658   7.309
 3630POPC   NC349079  19.872  12.461   5.252
 3630POPC   PO449080  20.186  13.049   5.295
 3630POPC   GL149081  19.966  12.862   5.687
 3630POPC   GL249082  19.811  12.520   5.756
 3630POPC   C1A49083  19.820  12.956   6.140
 3630POPC   D2A49084  19.844  12.739   6.565
 3630POPC   C3A49085  19.806  12.983   6.975
 3630POPC   C4A49086  19.687  13.364   7.213
 3630POPC   C1B49087  19.624  12.449   6.151
 3630POPC   C2B49088  19.439  12.366   6.542
 3630POPC   C3B49089  19.477  12.561   6.917
 3630POPC   C4B49090  19.640  12.481   7.290
 3631POPC   NC349091   4.641   4.149   5.560
 3631POPC   PO449092   5.201   4.388   5.277
 3631POPC   GL149093   5.117   4.259   5.726
 3631POPC   GL249094   4.843   4.450   5.913
 3631POPC   C1A49095   5.126   4.068   6.172
 3631POPC   D2A49096   5.229   4.200   6.624
 3631POPC   C3A49097   5.242   3.968   7.030
 3631POPC   C4A49098   5.380   4.224   7.397
 3631POPC   C1B49099   4.654   4.619   6.284
 3631POPC   C2B49100   4.755   4.439   6.685
 3631POPC   C3B49101   4.965   4.389   7.083
 3631POPC   C4B49102   4.877   4.403   7.531
 3632POPC   NC349103   4.653  31.841   5.352
 3632POPC   PO449104   5.364  31.546   5.317
 3632POPC   GL149105   5.186  31.676   5.699
 3632POPC   GL249106   4.855  31.535   5.710
 3632POPC   C1A49107   5.361  31.838   6.109
 3632POPC   D2A49108   5.190  31.806   6.551
 3632POPC   C3A49109   5.397  31.758   6.953
 3632POPC   C4A49110   5.241  31.701   7.359
 3632POPC   C1B49111   4.983  31.499   6.137
 3632POPC   C2B49112   4.856  31.389   6.534
 3632POPC   C3B49113   4.938  31.485   6.940
 3632POPC   C4B49114   4.887  31.357   7.323
 3633POPC   NC349115  22.581  16.401   5.588
 3633POPC   PO449116  23.006  16.841   5.254
 3633POPC   GL149117  22.898  16.809   5.706
 3633POPC   GL249118  23.014  16.479   5.848
 3633POPC   C1A49119  22.920  16.957   6.149
 3633POPC   D2A49120  22.713  17.087   6.553
 3633POPC   C3A49121  22.832  16.901   6.977
 3633POPC   C4A49122  22.792  17.017   7.425
 3633POPC   C1B49123  22.857  16.450   6.278
 3633POPC   C2B49124  23.091  16.621   6.625
 3633POPC   C3B49125  23.186  16.543   7.052
 3633POPC   C4B49126  22.890  16.494   7.370
 3634POPC   NC349127  33.811  10.275   5.531
 3634POPC   PO449128  34.028   9.641   5.443
 3634POPC   GL149129  33.848   9.838   5.806
 3634POPC   GL249130  34.098  10.070   5.917
 3634POPC   C1A49131  33.849   9.746   6.248
 3634POPC   D2A49132  33.996   9.635   6.641
 3634POPC   C3A49133  33.735   9.567   6.998
 3634POPC   C4A49134  33.961   9.594   7.392
 3634POPC   C1B49135  34.328  10.176   6.309
 3634POPC   C2B49136  34.257  10.093   6.748
 3634POPC   C3B49137  33.914  10.029   7.032
 3634POPC   C4B49138  33.578   9.962   7.352
 3635POPC   NC349139   9.815   9.145   5.496
 3635POPC   PO449140   9.720   8.472   5.350
 3635POPC   GL149141   9.598   8.751   5.763
 3635POPC   GL249142   9.901   8.861   5.977
 3635POPC   C1A49143   9.485   8.831   6.241
 3635POPC   D2A49144   9.744   8.967   6.639
 3635POPC   C3A49145   9.546   8.969   7.083
 3635POPC   C4A49146   9.348   8.683   7.431
 3635POPC   C1B49147  10.196   8.992   6.332
 3635POPC   C2B49148  10.244   9.054   6.804
 3635POPC   C3B49149  10.063   8.937   7.199
 3635POPC   C4B49150  10.100   9.109   7.641
 3636POPC   NC349151   2.149   3.920   5.556
 3636POPC   PO449152   2.070   3.356   5.310
 3636POPC   GL149153   1.911   3.507   5.726
 3636POPC   GL249154   2.220   3.604   5.936
 3636POPC   C1A49155   1.767   3.560   6.151
 3636POPC   D2A49156   1.874   3.497   6.562
 3636POPC   C3A49157   1.754   3.835   6.854
 3636POPC   C4A49158   1.649   3.741   7.288
 3636POPC   C1B49159   2.381   3.402   6.306
 3636POPC   C2B49160   2.360   3.311   6.731
 3636POPC   C3B49161   2.058   3.435   7.038
 3636POPC   C4B49162   2.219   3.514   7.396
 3637POPC   NC349163   4.734   6.538   5.593
 3637POPC   PO449164   4.223   6.955   5.386
 3637POPC   GL149165   4.294   6.763   5.764
 3637POPC   GL249166   3.991   6.852   5.935
 3637POPC   C1A49167   4.256   6.456   6.107
 3637POPC   D2A49168   4.055   6.574   6.479
 3637POPC   C3A49169   4.235   6.406   6.856
 3637POPC   C4A49170   4.115   6.500   7.268
 3637POPC   C1B49171   4.317   6.971   6.266
 3637POPC   C2B49172   4.534   6.813   6.665
 3637POPC   C3B49173   4.585   6.688   7.117
 3637POPC   C4B49174   4.482   6.694   7.567
 3638POPC   NC349175  31.562   5.542   5.443
 3638POPC   PO449176  31.300   6.130   5.562
 3638POPC   GL149177  31.346   5.801   5.827
 3638POPC   GL249178  31.690   5.863   5.832
 3638POPC   C1A49179  31.372   5.635   6.224
 3638POPC   D2A49180  31.501   5.708   6.633
 3638POPC   C3A49181  31.292   6.048   6.879
 3638POPC   C4A49182  30.895   6.082   7.146
 3638POPC   C1B49183  31.860   5.963   6.237
 3638POPC   C2B49184  31.756   6.154   6.615
 3638POPC   C3B49185  31.807   5.949   6.988
 3638POPC   C4B49186  31.807   6.193   7.344
 3639POPC   NC349187  16.881  14.618   5.407
 3639POPC   PO449188  16.305  14.914   5.658
 3639POPC   GL149189  16.618  14.645   5.860
 3639POPC   GL249190  16.633  14.294   5.757
 3639POPC   C1A49191  16.901  14.547   6.206
 3639POPC   D2A49192  16.827  14.763   6.603
 3639POPC   C3A49193  16.825  14.560   7.020
 3639POPC   C4A49194  16.700  14.709   7.463
 3639POPC   C1B49195  16.540  14.192   6.179
 3639POPC   C2B49196  16.634  14.272   6.599
 3639POPC   C3B49197  16.442  14.224   6.999
 3639POPC   C4B49198  16.613  14.206   7.384
 3640POPC   NC349199  40.063  15.594   5.098
 3640POPC   PO449200  39.646  16.097   5.442
 3640POPC   GL149201  39.768  15.879   5.807
 3640POPC   GL249202  39.850  15.557   5.660
 3640POPC   C1A49203  40.061  15.877   6.183
 3640POPC   D2A49204  40.206  16.089   6.584
 3640POPC   C3A49205  39.809  16.191   6.803
 3640POPC   C4A49206  39.611  16.026   7.169
 3640POPC   C1B49207  39.774  15.449   6.100
 3640POPC   C2B49208  39.702  15.530   6.554
 3640POPC   C3B49209  39.890  15.673   6.930
 3640POPC   C4B49210  40.164  15.975   7.102
 3641POPC   NC349211   7.564  27.076   5.264
 3641POPC   PO449212   7.447  26.382   5.323
 3641POPC   GL149213   7.337  26.743   5.624
 3641POPC   GL249214   7.666  26.858   5.760
 3641POPC   C1A49215   7.261  26.896   6.070
 3641POPC   D2A49216   7.219  26.933   6.542
 3641POPC   C3A49217   7.314  26.650   6.898
 3641POPC   C4A49218   7.166  26.569   7.317
 3641POPC   C1B49219   7.704  26.709   6.238
 3641POPC   C2B49220   7.712  26.903   6.679
 3641POPC   C3B49221   7.767  26.756   7.103
 3641POPC   C4B49222   7.646  26.554   7.510
 3642POPC   NC349223   8.480   6.170   5.675
 3642POPC   PO449224   8.114   5.647   5.494
 3642POPC   GL149225   7.944   5.920   5.835
 3642POPC   GL249226   8.155   5.722   6.018
 3642POPC   C1A49227   8.064   6.159   6.266
 3642POPC   D2A49228   8.361   5.970   6.628
 3642POPC   C3A49229   8.327   6.108   7.085
 3642POPC   C4A49230   7.990   6.067   7.421
 3642POPC   C1B49231   8.358   5.374   6.192
 3642POPC   C2B49232   8.489   5.403   6.600
 3642POPC   C3B49233   8.209   5.550   6.893
 3642POPC   C4B49234   8.278   5.662   7.300
 3643POPC   NC349235  42.165  26.124   5.256
 3643POPC   PO449236  42.752  25.863   5.407
 3643POPC   GL149237  42.429  25.932   5.730
 3643POPC   GL249238  42.213  25.686   5.828
 3643POPC   C1A49239  42.412  25.990   6.203
 3643POPC   D2A49240  42.208  26.161   6.607
 3643POPC   C3A49241  42.307  26.183   7.109
 3643POPC   C4A49242  42.245  26.070   7.584
 3643POPC   C1B49243  42.007  25.704   6.183
 3643POPC   C2B49244  42.232  25.624   6.523
 3643POPC   C3B49245  42.177  25.749   6.895
 3643POPC   C4B49246  42.281  25.633   7.284
 3644POPC   NC349247  38.508  39.486   5.067
 3644POPC   PO449248  38.560  38.905   5.400
 3644POPC   GL149249  38.551  39.072   5.780
 3644POPC   GL249250  38.902  38.987   5.816
 3644POPC   C1A49251  38.267  38.977   6.132
 3644POPC   D2A49252  38.105  39.216   6.511
 3644POPC   C3A49253  38.340  39.340   6.880
 3644POPC   C4A49254  38.587  39.553   7.213
 3644POPC   C1B49255  38.797  39.099   6.244
 3644POPC   C2B49256  38.880  39.221   6.665
 3644POPC   C3B49257  38.770  39.087   7.049
 3644POPC   C4B49258  38.419  39.052   7.313
 3645POPC   NC349259  19.253  34.774   5.376
 3645POPC   PO449260  18.585  34.490   5.296
 3645POPC   GL149261  18.847  34.609   5.633
 3645POPC   GL249262  18.876  34.272   5.705
 3645POPC   C1A49263  19.098  34.613   6.021
 3645POPC   D2A49264  18.985  34.552   6.429
 3645POPC   C3A49265  19.211  34.734   6.738
 3645POPC   C4A49266  19.156  34.605   7.144
 3645POPC   C1B49267  18.700  34.203   6.117
 3645POPC   C2B49268  18.791  34.084   6.543
 3645POPC   C3B49269  18.761  34.354   6.896
 3645POPC   C4B49270  18.853  34.249   7.314
 3646POPC   NC349271   7.563   3.410   5.493
 3646POPC   PO449272   6.990   3.724   5.596
 3646POPC   GL149273   7.277   3.605   5.882
 3646POPC   GL249274   7.596   3.805   5.819
 3646POPC   C1A49275   7.262   3.332   6.231
 3646POPC   D2A49276   7.233   3.464   6.653
 3646POPC   C3A49277   7.529   3.359   6.947
 3646POPC   C4A49278   7.666   3.405   7.382
 3646POPC   C1B49279   7.668   3.662   6.235
 3646POPC   C2B49280   7.598   3.818   6.649
 3646POPC   C3B49281   7.688   3.831   7.097
 3646POPC   C4B49282   7.606   3.895   7.558
 3647POPC   NC349283   4.538  39.899   5.370
 3647POPC   PO449284   3.959  40.216   5.340
 3647POPC   GL149285   4.061  39.960   5.727
 3647POPC   GL249286   4.393  39.841   5.861
 3647POPC   C1A49287   4.024  39.908   6.184
 3647POPC   D2A49288   4.346  39.935   6.490
 3647POPC   C3A49289   4.243  39.913   6.892
 3647POPC   C4A49290   4.310  40.130   7.268
 3647POPC   C1B49291   4.397  39.529   6.207
 3647POPC   C2B49292   4.345  39.418   6.632
 3647POPC   C3B49293   4.555  39.526   6.985
 3647POPC   C4B49294   4.354  39.644   7.317
 3648POPC   NC349295   9.379   3.608   5.501
 3648POPC   PO449296   8.783   3.331   5.410
 3648POPC   GL149297   8.928   3.541   5.772
 3648POPC   GL249298   9.202   3.340   5.899
 3648POPC   C1A49299   9.090   3.790   6.139
 3648POPC   D2A49300   9.266   3.739   6.559
 3648POPC   C3A49301   8.967   3.789   6.886
 3648POPC   C4A49302   8.897   3.516   7.201
 3648POPC   C1B49303   8.986   3.324   6.310
 3648POPC   C2B49304   9.066   3.285   6.768
 3648POPC   C3B49305   9.306   3.188   7.160
 3648POPC   C4B49306   9.489   3.010   7.530
 3649POPC   NC349307   4.561   4.989   5.304
 3649POPC   PO449308   3.942   5.242   5.409
 3649POPC   GL149309   4.187   4.923   5.681
 3649POPC   GL249310   4.563   4.917   5.796
 3649POPC   C1A49311   4.175   4.887   6.145
 3649POPC   D2A49312   4.239   5.119   6.530
 3649POPC   C3A49313   4.383   4.893   6.898
 3649POPC   C4A49314   4.215   4.931   7.333
 3649POPC   C1B49315   4.634   5.128   6.171
 3649POPC   C2B49316   4.833   5.081   6.551
 3649POPC   C3B49317   4.903   4.877   6.911
 3649POPC   C4B49318   4.718   4.821   7.301
 3650POPC   NC349319   5.654  39.194   5.674
 3650POPC   PO449320   5.038  39.100   5.310
 3650POPC   GL149321   5.047  39.058   5.758
 3650POPC   GL249322   5.196  39.386   5.797
 3650POPC   C1A49323   5.220  39.000   6.208
 3650POPC   D2A49324   5.330  39.043   6.664
 3650POPC   C3A49325   5.046  38.933   7.019
 3650POPC   C4A49326   5.158  38.891   7.458
 3650POPC   C1B49327   4.864  39.372   6.109
 3650POPC   C2B49328   4.839  39.295   6.558
 3650POPC   C3B49329   5.049  39.443   6.938
 3650POPC   C4B49330   4.940  39.462   7.384
 3651POPC   NC349331  36.054  15.434   5.227
 3651POPC   PO449332  36.405  14.890   5.225
 3651POPC   GL149333  36.383  15.160   5.693
 3651POPC   GL249334  36.621  15.091   5.902
 3651POPC   C1A49335  36.228  15.017   6.210
 3651POPC   D2A49336  36.164  14.850   6.632
 3651POPC   C3A49337  35.906  14.997   7.009
 3651POPC   C4A49338  35.829  15.394   7.201
 3651POPC   C1B49339  36.594  15.369   6.182
 3651POPC   C2B49340  36.567  15.249   6.557
 3651POPC   C3B49341  36.562  15.367   6.951
 3651POPC   C4B49342  36.349  15.141   7.228
 3652POPC   NC349343  15.671  37.383   5.482
 3652POPC   PO449344  15.989  38.059   5.413
 3652POPC   GL149345  15.927  37.749   5.722
 3652POPC   GL249346  15.586  37.815   5.790
 3652POPC   C1A49347  15.977  37.565   6.135
 3652POPC   D2A49348  16.198  37.755   6.475
 3652POPC   C3A49349  16.040  37.687   6.871
 3652POPC   C4A49350  16.134  37.750   7.294
 3652POPC   C1B49351  15.474  37.603   6.176
 3652POPC   C2B49352  15.663  37.418   6.553
 3652POPC   C3B49353  15.522  37.622   6.934
 3652POPC   C4B49354  15.605  37.801   7.340
 3653POPC   NC349355  23.260  22.862   5.533
 3653POPC   PO449356  22.689  23.214   5.351
 3653POPC   GL149357  22.904  23.207   5.742
 3653POPC   GL249358  22.804  22.873   5.789
 3653POPC   C1A49359  23.033  23.155   6.191
 3653POPC   D2A49360  23.014  22.890   6.585
 3653POPC   C3A49361  22.920  23.065   6.968
 3653POPC   C4A49362  23.265  23.231   7.206
 3653POPC   C1B49363  22.831  22.663   6.160
 3653POPC   C2B49364  22.664  22.520   6.542
 3653POPC   C3B49365  22.779  22.456   6.962
 3653POPC   C4B49366  22.982  22.689   7.307
 3654POPC   NC349367  18.601   0.726   5.447
 3654POPC   PO449368  17.953   0.454   5.343
 3654POPC   GL149369  18.194   0.356   5.737
 3654POPC   GL249370  18.236   0.700   5.822
 3654POPC   C1A49371  18.376   0.293   6.184
 3654POPC   D2A49372  18.488   0.519   6.586
 3654POPC   C3A49373  18.528   0.355   7.016
 3654POPC   C4A49374  18.109   0.306   7.231
 3654POPC   C1B49375  18.119   0.754   6.257
 3654POPC   C2B49376  18.138   0.950   6.647
 3654POPC   C3B49377  18.221   0.767   7.005
 3654POPC   C4B49378  18.010   0.812   7.390
 3655POPC   NC349379  12.907  27.793   5.512
 3655POPC   PO449380  12.727  27.158   5.310
 3655POPC   GL149381  12.636  27.363   5.736
 3655POPC   GL249382  12.445  27.696   5.707
 3655POPC   C1A49383  12.891  27.408   6.144
 3655POPC   D2A49384  13.169  27.560   6.499
 3655POPC   C3A49385  12.995  27.536   6.926
 3655POPC   C4A49386  12.879  27.645   7.359
 3655POPC   C1B49387  12.510  27.746   6.161
 3655POPC   C2B49388  12.700  27.872   6.588
 3655POPC   C3B49389  12.551  27.787   7.008
 3655POPC   C4B49390  12.382  27.594   7.382
 3656POPC   NC349391  30.329  16.483   5.430
 3656POPC   PO449392  29.921  16.880   5.493
 3656POPC   GL149393  30.037  17.105   5.869
 3656POPC   GL249394  30.261  16.821   5.926
 3656POPC   C1A49395  29.999  17.075   6.337
 3656POPC   D2A49396  30.088  16.746   6.660
 3656POPC   C3A49397  29.857  16.777   7.061
 3656POPC   C4A49398  29.655  17.042   7.374
 3656POPC   C1B49399  30.490  17.107   6.197
 3656POPC   C2B49400  30.423  17.144   6.628
 3656POPC   C3B49401  30.060  17.216   6.877
 3656POPC   C4B49402  30.162  17.144   7.287
 3657POPC   NC349403  22.789  23.728   5.369
 3657POPC   PO449404  23.418  23.899   5.375
 3657POPC   GL149405  23.115  23.918   5.767
 3657POPC   GL249406  22.737  24.043   5.796
 3657POPC   C1A49407  23.080  23.718   6.197
 3657POPC   D2A49408  22.866  23.487   6.546
 3657POPC   C3A49409  22.952  23.573   6.969
 3657POPC   C4A49410  23.173  23.696   7.372
 3657POPC   C1B49411  22.599  23.915   6.264
 3657POPC   C2B49412  22.600  23.919   6.749
 3657POPC   C3B49413  22.513  23.722   7.175
 3657POPC   C4B49414  22.696  23.818   7.595
 3658POPC   NC349415  12.592   6.777   5.370
 3658POPC   PO449416  13.340   6.487   5.395
 3658POPC   GL149417  13.133   6.620   5.777
 3658POPC   GL249418  12.823   6.767   5.863
 3658POPC   C1A49419  13.167   6.546   6.225
 3658POPC   D2A49420  13.021   6.330   6.589
 3658POPC   C3A49421  13.081   6.558   6.974
 3658POPC   C4A49422  12.927   6.488   7.367
 3658POPC   C1B49423  12.672   6.649   6.296
 3658POPC   C2B49424  12.712   6.850   6.708
 3658POPC   C3B49425  12.522   6.941   7.125
 3658POPC   C4B49426  12.493   6.746   7.547
 3659POPC   NC349427   6.698  37.417   5.363
 3659POPC   PO449428   6.604  38.059   5.180
 3659POPC   GL149429   6.575  37.862   5.598
 3659POPC   GL249430   6.243  37.898   5.694
 3659POPC   C1A49431   6.681  37.676   6.029
 3659POPC   D2A49432   6.614  37.818   6.471
 3659POPC   C3A49433   6.787  37.618   6.859
 3659POPC   C4A49434   6.763  37.643   7.328
 3659POPC   C1B49435   6.195  37.828   6.137
 3659POPC   C2B49436   6.125  37.818   6.592
 3659POPC   C3B49437   6.325  37.812   7.031
 3659POPC   C4B49438   6.325  37.844   7.512
 3660POPC   NC349439  43.138  29.522   5.364
 3660POPC   PO449440  43.085  28.816   5.396
 3660POPC   GL149441  43.085  29.176   5.741
 3660POPC   GL249442  42.894  29.516   5.813
 3660POPC   C1A49443  43.212  29.289   6.162
 3660POPC   D2A49444  42.996  29.367   6.536
 3660POPC   C3A49445  43.137  29.216   6.951
 3660POPC   C4A49446  43.145  29.308   7.354
 3660POPC   C1B49447  42.560  29.558   6.136
 3660POPC   C2B49448  42.525  29.649   6.563
 3660POPC   C3B49449  42.711  29.496   6.926
 3660POPC   C4B49450  42.650  29.392   7.328
 3661POPC   NC349451  21.120  28.051   5.508
 3661POPC   PO449452  21.781  28.345   5.403
 3661POPC   GL149453  21.589  28.150   5.740
 3661POPC   GL249454  21.379  28.443   5.731
 3661POPC   C1A49455  21.384  28.060   6.153
 3661POPC   D2A49456  21.165  28.220   6.535
 3661POPC   C3A49457  21.344  28.261   6.940
 3661POPC   C4A49458  21.569  28.085   7.265
 3661POPC   C1B49459  21.482  28.622   6.139
 3661POPC   C2B49460  21.542  28.617   6.592
 3661POPC   C3B49461  21.518  28.759   7.035
 3661POPC   C4B49462  21.601  28.809   7.495
 3662POPC   NC349463   4.051  35.446   5.336
 3662POPC   PO449464   4.512  35.006   5.465
 3662POPC   GL149465   4.351  35.293   5.787
 3662POPC   GL249466   4.092  35.568   5.834
 3662POPC   C1A49467   4.435  35.395   6.223
 3662POPC   D2A49468   4.164  35.328   6.571
 3662POPC   C3A49469   4.272  35.081   6.960
 3662POPC   C4A49470   4.562  35.021   7.309
 3662POPC   C1B49471   3.926  35.766   6.216
 3662POPC   C2B49472   4.035  35.848   6.637
 3662POPC   C3B49473   4.199  35.610   6.983
 3662POPC   C4B49474   4.136  35.410   7.340
 3663POPC   NC349475  10.095  42.766   5.500
 3663POPC   PO449476   9.639  43.290   5.264
 3663POPC   GL149477   9.692  43.261   5.721
 3663POPC   GL249478   9.634  42.937   5.662
 3663POPC   C1A49479   9.819  43.234   6.170
 3663POPC   D2A49480   9.837  42.900   6.497
 3663POPC   C3A49481   9.944  43.012   6.921
 3663POPC   C4A49482   9.701  43.099   7.268
 3663POPC   C1B49483   9.475  42.858   6.069
 3663POPC   C2B49484   9.325  42.814   6.501
 3663POPC   C3B49485   9.368  42.986   6.900
 3663POPC   C4B49486   9.152  42.908   7.284
 3664POPC   NC349487  30.176   7.151   5.398
 3664POPC   PO449488  29.780   7.759   5.288
 3664POPC   GL149489  30.055   7.589   5.629
 3664POPC   GL249490  29.782   7.370   5.703
 3664POPC   C1A49491  30.152   7.333   6.046
 3664POPC   D2A49492  30.077   7.159   6.471
 3664POPC   C3A49493  29.987   7.318   6.873
 3664POPC   C4A49494  30.168   7.379   7.271
 3664POPC   C1B49495  29.516   7.216   6.053
 3664POPC   C2B49496  29.560   7.065   6.476
 3664POPC   C3B49497  29.475   7.258   6.871
 3664POPC   C4B49498  29.651   7.382   7.266
 3665POPC   NC349499   0.822  30.155   5.430
 3665POPC   PO449500   1.345  29.957   5.347
 3665POPC   GL149501   1.182  29.932   5.808
 3665POPC   GL249502   0.841  29.861   5.876
 3665POPC   C1A49503   1.142  30.031   6.299
 3665POPC   D2A49504   0.995  30.028   6.766
 3665POPC   C3A49505   1.306  30.103   7.110
 3665POPC   C4A49506   1.376  30.277   7.525
 3665POPC   C1B49507   0.995  29.552   6.200
 3665POPC   C2B49508   1.183  29.564   6.636
 3665POPC   C3B49509   1.115  29.632   7.106
 3665POPC   C4B49510   1.028  29.876   7.509
 3666POPC   NC349511  15.954  42.670   5.345
 3666POPC   PO449512  15.597  43.265   5.390
 3666POPC   GL149513  15.877  43.042   5.715
 3666POPC   GL249514  15.943  42.682   5.841
 3666POPC   C1A49515  16.129  43.180   6.087
 3666POPC   D2A49516  16.372  43.226   6.487
 3666POPC   C3A49517  16.128  43.147   6.873
 3666POPC   C4A49518  15.914  43.197   7.266
 3666POPC   C1B49519  15.896  42.748   6.276
 3666POPC   C2B49520  15.845  42.728   6.693
 3666POPC   C3B49521  15.935  42.708   7.097
 3666POPC   C4B49522  15.971  42.756   7.533
 3667POPC   NC349523   3.130  12.544   5.428
 3667POPC   PO449524   2.835  13.119   5.346
 3667POPC   GL149525   2.867  12.866   5.740
 3667POPC   GL249526   2.575  12.943   5.921
 3667POPC   C1A49527   2.924  12.694   6.191
 3667POPC   D2A49528   2.797  12.782   6.624
 3667POPC   C3A49529   2.883  12.623   7.059
 3667POPC   C4A49530   3.084  12.229   7.204
 3667POPC   C1B49531   2.363  12.962   6.321
 3667POPC   C2B49532   2.135  13.190   6.632
 3667POPC   C3B49533   2.302  13.197   7.066
 3667POPC   C4B49534   2.502  12.876   7.338
 3668POPC   NC349535  30.666  41.634   5.494
 3668POPC   PO449536  31.138  41.071   5.524
 3668POPC   GL149537  30.936  41.327   5.878
 3668POPC   GL249538  30.953  41.679   5.928
 3668POPC   C1A49539  30.752  41.364   6.315
 3668POPC   D2A49540  30.790  41.640   6.681
 3668POPC   C3A49541  30.545  41.535   7.075
 3668POPC   C4A49542  30.626  41.281   7.464
 3668POPC   C1B49543  30.939  41.964   6.270
 3668POPC   C2B49544  31.099  42.134   6.664
 3668POPC   C3B49545  30.980  42.004   6.999
 3668POPC   C4B49546  31.038  41.604   7.133
 3669POPC   NC349547  37.609  25.553   5.500
 3669POPC   PO449548  37.670  24.877   5.518
 3669POPC   GL149549  37.711  25.099   5.900
 3669POPC   GL249550  37.525  25.413   5.969
 3669POPC   C1A49551  37.697  25.134   6.351
 3669POPC   D2A49552  37.420  25.034   6.654
 3669POPC   C3A49553  37.596  25.075   7.016
 3669POPC   C4A49554  37.499  25.145   7.421
 3669POPC   C1B49555  37.509  25.632   6.357
 3669POPC   C2B49556  37.331  25.546   6.736
 3669POPC   C3B49557  37.439  25.541   7.133
 3669POPC   C4B49558  37.369  25.623   7.554
 3670POPC   NC349559   4.465  23.151   5.346
 3670POPC   PO449560   3.955  22.714   5.468
 3670POPC   GL149561   4.285  22.933   5.773
 3670POPC   GL249562   4.552  22.702   5.719
 3670POPC   C1A49563   4.598  22.958   6.158
 3670POPC   D2A49564   4.678  23.168   6.590
 3670POPC   C3A49565   4.605  22.956   7.025
 3670POPC   C4A49566   4.370  23.066   7.438
 3670POPC   C1B49567   4.280  22.552   6.099
 3670POPC   C2B49568   4.038  22.644   6.451
 3670POPC   C3B49569   3.903  22.644   6.855
 3670POPC   C4B49570   4.138  22.663   7.234
 3671POPC   NC349571   2.861  23.284   5.433
 3671POPC   PO449572   3.154  23.883   5.303
 3671POPC   GL149573   3.056  23.691   5.755
 3671POPC   GL249574   2.718  23.571   5.836
 3671POPC   C1A49575   3.006  23.720   6.258
 3671POPC   D2A49576   2.864  23.853   6.735
 3671POPC   C3A49577   3.054  23.740   7.156
 3671POPC   C4A49578   3.104  23.546   7.588
 3671POPC   C1B49579   2.461  23.581   6.224
 3671POPC   C2B49580   2.377  23.664   6.678
 3671POPC   C3B49581   2.435  23.809   7.104
 3671POPC   C4B49582   2.187  23.817   7.514
 3672POPC   NC349583  16.461  20.991   5.487
 3672POPC   PO449584  16.662  20.271   5.559
 3672POPC   GL149585  16.573  20.487   5.927
 3672POPC   GL249586  16.662  20.827   5.944
 3672POPC   C1A49587  16.542  20.405   6.345
 3672POPC   D2A49588  16.877  20.521   6.602
 3672POPC   C3A49589  16.778  20.698   6.990
 3672POPC   C4A49590  16.579  20.878   7.335
 3672POPC   C1B49591  16.968  20.920   6.254
 3672POPC   C2B49592  16.959  21.056   6.680
 3672POPC   C3B49593  16.985  21.132   7.147
 3672POPC   C4B49594  16.939  21.115   7.631
 3673POPC   NC349595  17.008  44.856   5.432
 3673POPC   PO449596  17.623  44.762   5.250
 3673POPC   GL149597  17.331  44.525   5.638
 3673POPC   GL249598  17.382  44.200   5.811
 3673POPC   C1A49599  17.290  44.586   6.137
 3673POPC   D2A49600  17.267  44.700   6.558
 3673POPC   C3A49601  17.519  44.962   6.840
 3673POPC   C4A49602  17.455  44.843   7.270
 3673POPC   C1B49603  17.735  44.126   6.088
 3673POPC   C2B49604  17.936  44.331   6.460
 3673POPC   C3B49605  17.711  44.493   6.810
 3673POPC   C4B49606  17.688  44.344   7.215
 3674POPC   NC349607  25.483  10.040   5.268
 3674POPC   PO449608  25.987   9.560   5.142
 3674POPC   GL149609  26.012   9.524   5.657
 3674POPC   GL249610  26.154   9.823   5.896
 3674POPC   C1A49611  25.909   9.441   6.105
 3674POPC   D2A49612  25.700   9.523   6.504
 3674POPC   C3A49613  25.914   9.647   6.901
 3674POPC   C4A49614  26.350   9.741   7.066
 3674POPC   C1B49615  25.761   9.927   6.187
 3674POPC   C2B49616  25.723  10.041   6.610
 3674POPC   C3B49617  26.035  10.164   6.876
 3674POPC   C4B49618  26.026  10.141   7.289
 3675POPC   NC349619  10.585  11.810   5.315
 3675POPC   PO449620  10.341  11.212   5.296
 3675POPC   GL149621  10.438  11.339   5.711
 3675POPC   GL249622  10.760  11.505   5.713
 3675POPC   C1A49623  10.313  11.183   6.150
 3675POPC   D2A49624  10.594  10.952   6.434
 3675POPC   C3A49625  10.682  11.051   6.873
 3675POPC   C4A49626  10.430  11.244   7.160
 3675POPC   C1B49627  10.656  11.537   6.168
 3675POPC   C2B49628  10.458  11.425   6.609
 3675POPC   C3B49629  10.568  11.678   6.976
 3675POPC   C4B49630  10.669  11.650   7.407
 3676POPC   NC349631  33.424   3.863   5.570
 3676POPC   PO449632  33.292   3.220   5.453
 3676POPC   GL149633  33.176   3.464   5.852
 3676POPC   GL249634  32.827   3.584   5.904
 3676POPC   C1A49635  33.097   3.563   6.333
 3676POPC   D2A49636  33.048   3.487   6.774
 3676POPC   C3A49637  33.291   3.783   7.072
 3676POPC   C4A49638  33.170   3.797   7.540
 3676POPC   C1B49639  32.825   3.182   6.132
 3676POPC   C2B49640  32.748   3.075   6.563
 3676POPC   C3B49641  32.842   3.062   6.990
 3676POPC   C4B49642  33.059   3.353   7.268
 3677POPC   NC349643  23.200  18.253   5.717
 3677POPC   PO449644  22.816  18.598   5.257
 3677POPC   GL149645  22.714  18.599   5.795
 3677POPC   GL249646  22.706  18.268   5.895
 3677POPC   C1A49647  22.981  18.546   6.287
 3677POPC   D2A49648  23.176  18.271   6.667
 3677POPC   C3A49649  23.280  18.399   7.112
 3677POPC   C4A49650  23.129  18.448   7.560
 3677POPC   C1B49651  22.501  18.425   6.242
 3677POPC   C2B49652  22.646  18.232   6.619
 3677POPC   C3B49653  22.751  18.363   7.034
 3677POPC   C4B49654  22.777  18.721   7.269
 3678POPC   NC349655  15.440  19.602   5.478
 3678POPC   PO449656  15.035  20.157   5.375
 3678POPC   GL149657  15.006  20.019   5.795
 3678POPC   GL249658  15.349  20.008   5.840
 3678POPC   C1A49659  15.047  19.863   6.245
 3678POPC   D2A49660  15.082  19.652   6.656
 3678POPC   C3A49661  14.988  19.792   7.081
 3678POPC   C4A49662  15.089  20.091   7.344
 3678POPC   C1B49663  15.583  19.781   6.182
 3678POPC   C2B49664  15.596  19.620   6.608
 3678POPC   C3B49665  15.492  19.690   7.045
 3678POPC   C4B49666  15.815  19.658   7.372
 3679POPC   NC349667  18.030  44.932   5.436
 3679POPC   PO449668  18.615  44.653   5.316
 3679POPC   GL149669  18.369  44.511   5.702
 3679POPC   GL249670  18.270  44.818   5.895
 3679POPC   C1A49671  18.361  44.353   6.153
 3679POPC   D2A49672  18.499  44.402   6.604
 3679POPC   C3A49673  18.195  44.470   6.946
 3679POPC   C4A49674  17.951  44.789   7.206
 3679POPC   C1B49675  18.188  44.815   6.364
 3679POPC   C2B49676  18.201  44.981   6.797
 3679POPC   C3B49677  18.449  44.880   7.184
 3679POPC   C4B49678  18.429   0.103   7.563
 3680POPC   NC349679  17.313   3.495   5.429
 3680POPC   PO449680  17.909   3.760   5.277
 3680POPC   GL149681  17.774   3.687   5.715
 3680POPC   GL249682  17.784   3.334   5.636
 3680POPC   C1A49683  17.587   3.736   6.164
 3680POPC   D2A49684  17.566   3.890   6.620
 3680POPC   C3A49685  17.295   3.808   7.024
 3680POPC   C4A49686  17.078   3.792   7.449
 3680POPC   C1B49687  17.807   3.252   6.078
 3680POPC   C2B49688  17.510   3.290   6.421
 3680POPC   C3B49689  17.469   3.284   6.859
 3680POPC   C4B49690  17.792   3.198   7.162
 3681POPC   NC349691  44.103  11.519   5.591
 3681POPC   PO449692  43.799  11.009   5.249
 3681POPC   GL149693  43.801  11.134   5.688
 3681POPC   GL249694  43.550  11.395   5.666
 3681POPC   C1A49695  43.887  11.314   6.140
 3681POPC   D2A49696  44.027  11.230   6.546
 3681POPC   C3A49697  43.787  11.410   6.866
 3681POPC   C4A49698  43.817  11.290   7.281
 3681POPC   C1B49699  43.423  11.147   6.021
 3681POPC   C2B49700  43.508  11.154   6.467
 3681POPC   C3B49701  43.460  11.005   6.892
 3681POPC   C4B49702  43.353  11.129   7.320
 3682POPC   NC349703  12.263  11.256   5.005
 3682POPC   PO449704  12.468  10.926   5.488
 3682POPC   GL149705  12.232  11.288   5.781
 3682POPC   GL249706  11.993  11.577   5.758
 3682POPC   C1A49707  12.233  11.438   6.222
 3682POPC   D2A49708  12.437  11.133   6.500
 3682POPC   C3A49709  12.344  11.009   6.928
 3682POPC   C4A49710  12.128  11.029   7.337
 3682POPC   C1B49711  11.740  11.476   6.143
 3682POPC   C2B49712  11.834  11.611   6.560
 3682POPC   C3B49713  11.943  11.405   6.964
 3682POPC   C4B49714  11.776  11.414   7.359
 3683POPC   NC349715  43.702   3.902   5.582
 3683POPC   PO449716  43.961   4.559   5.334
 3683POPC   GL149717  44.034   4.282   5.728
 3683POPC   GL249718  44.052   3.930   5.920
 3683POPC   C1A49719  44.169   4.327   6.189
 3683POPC   D2A49720  44.024   4.236   6.623
 3683POPC   C3A49721  44.172   4.498   6.950
 3683POPC   C4A49722  44.059   4.756   7.271
 3683POPC   C1B49723  43.699   4.049   6.247
 3683POPC   C2B49724  43.550   4.091   6.721
 3683POPC   C3B49725  43.760   4.209   7.116
 3683POPC   C4B49726  43.815   3.898   7.446
 3684POPC   NC349727  15.727  40.212   5.598
 3684POPC   PO449728  16.195  40.485   5.178
 3684POPC   GL149729  16.157  40.557   5.639
 3684POPC   GL249730  16.256  40.270   5.830
 3684POPC   C1A49731  16.150  40.875   5.982
 3684POPC   D2A49732  16.070  40.839   6.453
 3684POPC   C3A49733  16.222  41.036   6.838
 3684POPC   C4A49734  16.134  40.954   7.267
 3684POPC   C1B49735  15.938  40.439   6.150
 3684POPC   C2B49736  15.653  40.532   6.501
 3684POPC   C3B49737  15.787  40.725   6.886
 3684POPC   C4B49738  15.762  40.488   7.256
 3685POPC   NC349739   5.518  20.289   5.445
 3685POPC   PO449740   5.084  19.797   5.471
 3685POPC   GL149741   5.134  20.100   5.769
 3685POPC   GL249742   4.797  20.080   5.835
 3685POPC   C1A49743   5.255  19.982   6.207
 3685POPC   D2A49744   5.097  19.720   6.513
 3685POPC   C3A49745   5.272  19.586   6.891
 3685POPC   C4A49746   5.320  19.721   7.283
 3685POPC   C1B49747   4.786  20.224   6.250
 3685POPC   C2B49748   4.715  20.025   6.654
 3685POPC   C3B49749   4.909  19.981   7.047
 3685POPC   C4B49750   4.736  20.293   7.286
 3686POPC   NC349751  27.696  11.692   5.672
 3686POPC   PO449752  27.703  11.148   5.259
 3686POPC   GL149753  27.525  11.189   5.699
 3686POPC   GL249754  27.278  10.947   5.712
 3686POPC   C1A49755  27.388  11.354   6.132
 3686POPC   D2A49756  27.298  11.425   6.563
 3686POPC   C3A49757  27.604  11.400   6.938
 3686POPC   C4A49758  27.927  11.619   7.210
 3686POPC   C1B49759  27.472  10.849   6.115
 3686POPC   C2B49760  27.624  11.026   6.503
 3686POPC   C3B49761  27.602  10.867   6.925
 3686POPC   C4B49762  27.376  10.847   7.316
 3687POPC   NC349763  37.906  34.696   5.425
 3687POPC   PO449764  37.665  34.114   5.315
 3687POPC   GL149765  37.580  34.304   5.745
 3687POPC   GL249766  37.480  34.649   5.744
 3687POPC   C1A49767  37.715  34.471   6.185
 3687POPC   D2A49768  37.812  34.757   6.563
 3687POPC   C3A49769  37.834  34.571   7.002
 3687POPC   C4A49770  37.572  34.316   7.328
 3687POPC   C1B49771  37.307  34.803   6.140
 3687POPC   C2B49772  37.327  34.907   6.591
 3687POPC   C3B49773  37.206  34.952   7.016
 3687POPC   C4B49774  37.499  34.825   7.305
 3688POPC   NC349775  10.032  38.814   5.072
 3688POPC   PO449776   9.566  38.339   5.359
 3688POPC   GL149777   9.696  38.517   5.769
 3688POPC   GL249778   9.973  38.285   5.818
 3688POPC   C1A49779   9.496  38.685   6.186
 3688POPC   D2A49780   9.544  38.846   6.625
 3688POPC   C3A49781   9.491  38.531   6.959
 3688POPC   C4A49782   9.703  38.364   7.337
 3688POPC   C1B49783   9.992  38.506   6.224
 3688POPC   C2B49784   9.973  38.527   6.682
 3688POPC   C3B49785  10.123  38.585   7.100
 3688POPC   C4B49786  10.204  38.315   7.448
 3689POPC   NC349787  24.053  20.555   5.195
 3689POPC   PO449788  23.419  20.771   5.392
 3689POPC   GL149789  23.644  20.606   5.734
 3689POPC   GL249790  23.791  20.279   5.703
 3689POPC   C1A49791  23.756  20.514   6.165
 3689POPC   D2A49792  23.824  20.878   6.399
 3689POPC   C3A49793  23.840  20.766   6.819
 3689POPC   C4A49794  23.716  20.818   7.233
 3689POPC   C1B49795  23.358  20.238   5.968
 3689POPC   C2B49796  23.294  20.131   6.427
 3689POPC   C3B49797  23.163  20.264   6.828
 3689POPC   C4B49798  23.491  20.384   7.095
 3690POPC   NC349799  11.241  13.206   5.508
 3690POPC   PO449800  10.802  13.641   5.725
 3690POPC   GL149801  11.204  13.485   5.967
 3690POPC   GL249802  11.560  13.619   5.980
 3690POPC   C1A49803  11.277  13.464   6.432
 3690POPC   D2A49804  11.076  13.497   6.846
 3690POPC   C3A49805  11.325  13.630   7.178
 3690POPC   C4A49806  11.602  13.873   7.467
 3690POPC   C1B49807  11.383  13.938   6.294
 3690POPC   C2B49808  11.314  13.962   6.774
 3690POPC   C3B49809  11.168  14.097   7.221
 3690POPC   C4B49810  11.174  14.048   7.697
 3691POPC   NC349811  19.013  25.203   5.311
 3691POPC   PO449812  18.998  25.913   5.282
 3691POPC   GL149813  19.025  25.563   5.680
 3691POPC   GL249814  19.230  25.326   5.805
 3691POPC   C1A49815  18.973  25.549   6.167
 3691POPC   D2A49816  19.273  25.229   6.368
 3691POPC   C3A49817  19.240  24.990   6.780
 3691POPC   C4A49818  19.280  25.158   7.203
 3691POPC   C1B49819  18.813  25.124   5.951
 3691POPC   C2B49820  18.782  25.049   6.419
 3691POPC   C3B49821  18.727  25.031   6.871
 3691POPC   C4B49822  18.810  24.953   7.312
 3692POPC   NC349823  36.672  29.288   5.351
 3692POPC   PO449824  37.157  29.049   5.559
 3692POPC   GL149825  36.880  29.272   5.821
 3692POPC   GL249826  37.077  29.582   5.751
 3692POPC   C1A49827  36.592  29.041   6.122
 3692POPC   D2A49828  36.662  28.804   6.526
 3692POPC   C3A49829  37.031  28.919   6.754
 3692POPC   C4A49830  36.835  29.195   7.014
 3692POPC   C1B49831  37.232  29.611   6.224
 3692POPC   C2B49832  37.221  29.474   6.696
 3692POPC   C3B49833  37.126  29.650   7.113
 3692POPC   C4B49834  36.895  29.440   7.447
 3693POPC   NC349835  44.195  13.333   5.543
 3693POPC   PO449836  43.761  12.804   5.430
 3693POPC   GL149837  43.785  12.648   5.839
 3693POPC   GL249838  44.134  12.781   5.852
 3693POPC   C1A49839  43.591  12.641   6.273
 3693POPC   D2A49840  43.784  12.785   6.663
 3693POPC   C3A49841  43.601  12.941   7.012
 3693POPC   C4A49842  43.737  12.739   7.354
 3693POPC   C1B49843  43.955  13.002   6.229
 3693POPC   C2B49844  44.122  13.176   6.642
 3693POPC   C3B49845  44.112  13.080   7.107
 3693POPC   C4B49846  44.202  13.254   7.535
 3694POPC   NC349847  41.508  33.159   5.199
 3694POPC   PO449848  41.924  32.720   5.418
 3694POPC   GL149849  41.552  32.860   5.667
 3694POPC   GL249850  41.770  33.131   5.753
 3694POPC   C1A49851  41.359  33.078   6.063
 3694POPC   D2A49852  41.183  33.217   6.475
 3694POPC   C3A49853  41.310  33.102   6.902
 3694POPC   C4A49854  41.475  33.202   7.310
 3694POPC   C1B49855  41.845  32.981   6.178
 3694POPC   C2B49856  41.735  33.138   6.587
 3694POPC   C3B49857  41.845  33.043   6.999
 3694POPC   C4B49858  41.835  32.817   7.383
 3695POPC   NC349859  18.971  26.381   5.333
 3695POPC   PO449860  18.857  27.083   5.359
 3695POPC   GL149861  18.925  26.756   5.700
 3695POPC   GL249862  19.273  26.840   5.761
 3695POPC   C1A49863  18.986  26.647   6.160
 3695POPC   D2A49864  18.982  26.836   6.580
 3695POPC   C3A49865  19.162  26.706   6.981
 3695POPC   C4A49866  18.985  26.747   7.347
 3695POPC   C1B49867  19.178  27.121   6.135
 3695POPC   C2B49868  19.358  27.183   6.547
 3695POPC   C3B49869  19.505  27.086   6.958
 3695POPC   C4B49870  19.450  26.918   7.368
 3696POPC   NC349871   3.958  11.611   5.275
 3696POPC   PO449872   4.362  12.104   5.431
 3696POPC   GL149873   4.273  12.299   5.808
 3696POPC   GL249874   4.304  11.979   5.933
 3696POPC   C1A49875   4.203  12.293   6.285
 3696POPC   D2A49876   4.384  12.002   6.538
 3696POPC   C3A49877   4.299  12.220   6.889
 3696POPC   C4A49878   4.398  12.264   7.289
 3696POPC   C1B49879   3.967  11.865   6.232
 3696POPC   C2B49880   3.899  11.879   6.706
 3696POPC   C3B49881   4.057  11.855   7.160
 3696POPC   C4B49882   4.421  11.758   7.414
 3697POPC   NC349883  16.440  24.303   5.460
 3697POPC   PO449884  17.096  24.550   5.347
 3697POPC   GL149885  16.854  24.450   5.715
 3697POPC   GL249886  16.583  24.619   5.825
 3697POPC   C1A49887  16.845  24.387   6.188
 3697POPC   D2A49888  16.569  24.443   6.523
 3697POPC   C3A49889  16.707  24.199   6.864
 3697POPC   C4A49890  16.627  24.267   7.273
 3697POPC   C1B49891  16.637  24.864   6.186
 3697POPC   C2B49892  16.641  24.962   6.616
 3697POPC   C3B49893  16.561  24.719   6.979
 3697POPC   C4B49894  16.496  24.749   7.385
 3698POPC   NC349895  22.361  40.094   5.427
 3698POPC   PO449896  21.734  39.881   5.316
 3698POPC   GL149897  21.898  40.148   5.688
 3698POPC   GL249898  22.224  40.137   5.914
 3698POPC   C1A49899  21.790  40.120   6.130
 3698POPC   D2A49900  22.038  39.917   6.432
 3698POPC   C3A49901  21.988  40.131   6.785
 3698POPC   C4A49902  21.785  40.006   7.170
 3698POPC   C1B49903  22.233  40.404   6.301
 3698POPC   C2B49904  22.513  40.373   6.648
 3698POPC   C3B49905  22.503  39.987   6.814
 3698POPC   C4B49906  22.296  40.081   7.182
 3699POPC   NC349907  36.230  16.809   5.400
 3699POPC   PO449908  35.773  17.200   5.483
 3699POPC   GL149909  35.970  16.872   5.838
 3699POPC   GL249910  36.183  16.528   5.865
 3699POPC   C1A49911  36.134  16.812   6.272
 3699POPC   D2A49912  36.152  16.980   6.664
 3699POPC   C3A49913  36.088  16.747   7.033
 3699POPC   C4A49914  36.092  16.373   7.253
 3699POPC   C1B49915  36.540  16.497   6.211
 3699POPC   C2B49916  36.579  16.634   6.678
 3699POPC   C3B49917  36.572  16.400   7.070
 3699POPC   C4B49918  36.559  16.364   7.551
 3700POPC   NC349919  16.675  32.069   5.280
 3700POPC   PO449920  17.239  32.385   5.501
 3700POPC   GL149921  16.932  32.187   5.745
 3700POPC   GL249922  16.642  32.421   5.775
 3700POPC   C1A49923  16.932  32.226   6.189
 3700POPC   D2A49924  16.805  32.546   6.464
 3700POPC   C3A49925  16.757  32.413   6.846
 3700POPC   C4A49926  16.924  32.060   7.066
 3700POPC   C1B49927  16.405  32.392   6.202
 3700POPC   C2B49928  16.354  32.180   6.636
 3700POPC   C3B49929  16.360  32.233   7.116
 3700POPC   C4B49930  16.317  32.428   7.552
 3701POPC   NC349931  24.387  13.191   5.312
 3701POPC   PO449932  24.224  12.483   5.549
 3701POPC   GL149933  24.393  12.697   5.913
 3701POPC   GL249934  24.714  12.779   5.847
 3701POPC   C1A49935  24.205  12.893   6.282
 3701POPC   D2A49936  24.011  12.808   6.655
 3701POPC   C3A49937  24.330  12.811   6.963
 3701POPC   C4A49938  24.469  12.537   7.229
 3701POPC   C1B49939  24.719  12.927   6.293
 3701POPC   C2B49940  24.487  13.167   6.624
 3701POPC   C3B49941  24.557  13.269   7.065
 3701POPC   C4B49942  24.965  13.370   7.255
 3702POPC   NC349943  40.618  26.363   5.400
 3702POPC   PO449944  40.950  25.782   5.276
 3702POPC   GL149945  40.775  25.919   5.695
 3702POPC   GL249946  40.923  25.733   5.981
 3702POPC   C1A49947  40.521  26.057   6.083
 3702POPC   D2A49948  40.649  26.033   6.532
 3702POPC   C3A49949  40.438  26.248   6.877
 3702POPC   C4A49950  40.473  26.330   7.322
 3702POPC   C1B49951  41.025  26.173   6.122
 3702POPC   C2B49952  40.998  26.413   6.522
 3702POPC   C3B49953  41.012  26.178   6.912
 3702POPC   C4B49954  40.737  25.901   7.138
 3703POPC   NC349955  27.795   3.544   5.431
 3703POPC   PO449956  27.280   3.927   5.574
 3703POPC   GL149957  27.613   3.801   5.894
 3703POPC   GL249958  27.769   3.476   5.933
 3703POPC   C1A49959  27.641   3.810   6.357
 3703POPC   D2A49960  27.788   3.677   6.769
 3703POPC   C3A49961  27.560   3.778   7.172
 3703POPC   C4A49962  27.528   3.731   7.650
 3703POPC   C1B49963  27.566   3.318   6.287
 3703POPC   C2B49964  27.357   3.452   6.632
 3703POPC   C3B49965  27.489   3.301   7.018
 3703POPC   C4B49966  27.716   3.317   7.389
 3704POPC   NC349967  11.024  40.852   5.473
 3704POPC   PO449968  11.648  41.053   5.390
 3704POPC   GL149969  11.469  40.814   5.771
 3704POPC   GL249970  11.568  40.475   5.863
 3704POPC   C1A49971  11.229  40.734   6.163
 3704POPC   D2A49972  11.081  40.930   6.560
 3704POPC   C3A49973  11.286  40.983   6.964
 3704POPC   C4A49974  11.065  40.951   7.379
 3704POPC   C1B49975  11.650  40.401   6.260
 3704POPC   C2B49976  11.448  40.556   6.609
 3704POPC   C3B49977  11.130  40.511   6.896
 3704POPC   C4B49978  11.413  40.557   7.253
 3705POPC   NC349979  36.246  37.170   5.189
 3705POPC   PO449980  35.777  36.711   5.387
 3705POPC   GL149981  36.044  36.875   5.773
 3705POPC   GL249982  36.348  37.080   5.730
 3705POPC   C1A49983  36.155  36.779   6.236
 3705POPC   D2A49984  36.220  36.504   6.638
 3705POPC   C3A49985  35.990  36.656   7.005
 3705POPC   C4A49986  36.010  37.056   7.188
 3705POPC   C1B49987  36.546  37.105   6.162
 3705POPC   C2B49988  36.502  36.966   6.608
 3705POPC   C3B49989  36.472  37.151   7.019
 3705POPC   C4B49990  36.489  37.011   7.450
 3706POPC   NC349991  34.317   6.073   5.335
 3706POPC   PO449992  33.780   5.604   5.525
 3706POPC   GL149993  34.079   5.785   5.849
 3706POPC   GL249994  34.130   6.143   5.801
 3706POPC   C1A49995  33.974   5.859   6.317
 3706POPC   D2A49996  33.898   5.807   6.767
 3706POPC   C3A49997  33.571   5.693   7.063
 3706POPC   C4A49998  33.522   5.532   7.497
 3706POPC   C1B49999  34.149   6.331   6.192
 3706POPC   C2B50000  34.208   6.389   6.622
 3706POPC   C3B50001  34.220   6.113   6.992
 3706POPC   C4B50002  34.029   5.811   7.280
 3707POPC   NC350003   6.944   8.631   5.358
 3707POPC   PO450004   6.476   9.061   5.187
 3707POPC   GL150005   6.732   9.072   5.595
 3707POPC   GL250006   6.679   8.751   5.763
 3707POPC   C1A50007   6.783   9.110   6.082
 3707POPC   D2A50008   6.558   9.243   6.474
 3707POPC   C3A50009   6.680   9.295   6.929
 3707POPC   C4A50010   6.555   9.277   7.389
 3707POPC   C1B50011   6.715   8.592   6.176
 3707POPC   C2B50012   6.628   8.721   6.588
 3707POPC   C3B50013   6.856   8.782   6.959
 3707POPC   C4B50014   6.680   8.772   7.377
 3708POPC   NC350015  28.567   8.143   5.370
 3708POPC   PO450016  27.947   8.133   5.493
 3708POPC   GL150017  28.286   8.321   5.741
 3708POPC   GL250018  28.085   8.351   5.939
 3708POPC   C1A50019  28.553   8.446   6.124
 3708POPC   D2A50020  28.621   8.232   6.531
 3708POPC   C3A50021  28.406   8.252   6.913
 3708POPC   C4A50022  28.603   8.167   7.305
 3708POPC   C1B50023  28.135   8.155   6.322
 3708POPC   C2B50024  28.025   7.918   6.670
 3708POPC   C3B50025  28.004   8.014   7.093
 3708POPC   C4B50026  28.113   8.334   7.380
 3709POPC   NC350027  29.187  43.456   5.332
 3709POPC   PO450028  29.301  44.121   5.336
 3709POPC   GL150029  29.179  44.063   5.762
 3709POPC   GL250030  28.838  44.004   5.872
 3709POPC   C1A50031  29.259  43.947   6.180
 3709POPC   D2A50032  29.021  44.108   6.562
 3709POPC   C3A50033  29.161  43.969   6.980
 3709POPC   C4A50034  29.445  43.891   7.346
 3709POPC   C1B50035  28.835  43.683   6.265
 3709POPC   C2B50036  28.856  43.638   6.722
 3709POPC   C3B50037  28.913  43.544   7.137
 3709POPC   C4B50038  28.983  43.740   7.469
 3710POPC   NC350039  34.142   7.700   5.390
 3710POPC   PO450040  34.562   7.152   5.514
 3710POPC   GL150041  34.340   7.430   5.786
 3710POPC   GL250042  34.492   7.778   5.765
 3710POPC   C1A50043  34.467   7.461   6.195
 3710POPC   D2A50044  34.729   7.281   6.516
 3710POPC   C3A50045  34.649   7.303   6.956
 3710POPC   C4A50046  34.853   7.306   7.362
 3710POPC   C1B50047  34.600   7.963   6.166
 3710POPC   C2B50048  34.499   7.819   6.566
 3710POPC   C3B50049  34.357   7.733   6.944
 3710POPC   C4B50050  34.547   7.712   7.306
 3711POPC   NC350051  18.479   7.949   5.495
 3711POPC   PO450052  18.025   8.341   5.380
 3711POPC   GL150053  18.238   8.311   5.776
 3711POPC   GL250054  18.185   7.956   5.905
 3711POPC   C1A50055  18.242   8.338   6.220
 3711POPC   D2A50056  18.405   8.105   6.570
 3711POPC   C3A50057  18.300   8.283   6.980
 3711POPC   C4A50058  18.201   8.679   7.108
 3711POPC   C1B50059  17.951   7.919   6.268
 3711POPC   C2B50060  18.042   7.763   6.683
 3711POPC   C3B50061  18.350   7.790   7.006
 3711POPC   C4B50062  18.190   7.945   7.408
 3712POPC   NC350063  41.304  25.950   5.510
 3712POPC   PO450064  41.994  25.696   5.340
 3712POPC   GL150065  41.760  25.873   5.723
 3712POPC   GL250066  41.957  26.155   5.722
 3712POPC   C1A50067  41.522  25.902   6.151
 3712POPC   D2A50068  41.224  25.866   6.517
 3712POPC   C3A50069  41.414  25.843   6.939
 3712POPC   C4A50070  41.424  26.151   7.246
 3712POPC   C1B50071  41.940  26.213   6.162
 3712POPC   C2B50072  41.725  26.092   6.562
 3712POPC   C3B50073  41.826  26.171   6.946
 3712POPC   C4B50074  41.873  25.920   7.274
 3713POPC   NC350075   6.880  40.349   5.560
 3713POPC   PO450076   6.568  39.790   5.440
 3713POPC   GL150077   6.753  39.967   5.859
 3713POPC   GL250078   7.098  39.873   5.780
 3713POPC   C1A50079   6.813  40.263   6.235
 3713POPC   D2A50080   6.837  40.411   6.681
 3713POPC   C3A50081   6.764  40.118   6.990
 3713POPC   C4A50082   6.574  40.101   7.406
 3713POPC   C1B50083   7.040  39.717   6.206
 3713POPC   C2B50084   6.745  39.853   6.534
 3713POPC   C3B50085   6.543  39.693   6.826
 3713POPC   C4B50086   6.674  39.638   7.213
 3714POPC   NC350087  10.831  12.331   5.252
 3714POPC   PO450088  10.177  11.954   5.494
 3714POPC   GL150089  10.309  11.811   5.826
 3714POPC   GL250090  10.072  11.607   5.942
 3714POPC   C1A50091  10.374  11.973   6.204
 3714POPC   D2A50092  10.610  11.899   6.532
 3714POPC   C3A50093  10.505  12.171   6.848
 3714POPC   C4A50094  10.513  12.110   7.269
 3714POPC   C1B50095  10.057  11.594   6.372
 3714POPC   C2B50096  10.116  11.801   6.769
 3714POPC   C3B50097  10.117  11.666   7.219
 3714POPC   C4B50098  10.207  11.854   7.634
 3715POPC   NC350099  18.475  10.810   5.478
 3715POPC   PO450100  17.826  11.083   5.396
 3715POPC   GL150101  18.174  11.151   5.729
 3715POPC   GL250102  18.328  11.472   5.877
 3715POPC   C1A50103  18.223  11.072   6.184
 3715POPC   D2A50104  18.147  10.800   6.538
 3715POPC   C3A50105  18.196  11.018   6.931
 3715POPC   C4A50106  18.055  11.152   7.343
 3715POPC   C1B50107  18.483  11.728   6.247
 3715POPC   C2B50108  18.486  11.652   6.709
 3715POPC   C3B50109  18.322  11.508   7.105
 3715POPC   C4B50110  18.430  11.509   7.555
 3716POPC   NC350111  15.153   7.213   5.218
 3716POPC   PO450112  15.552   7.616   5.569
 3716POPC   GL150113  15.273   7.237   5.739
 3716POPC   GL250114  14.898   7.205   5.772
 3716POPC   C1A50115  15.315   7.031   6.166
 3716POPC   D2A50116  15.333   7.279   6.540
 3716POPC   C3A50117  15.491   7.196   6.938
 3716POPC   C4A50118  15.284   7.263   7.293
 3716POPC   C1B50119  14.813   7.149   6.238
 3716POPC   C2B50120  14.833   7.167   6.691
 3716POPC   C3B50121  14.891   7.493   7.021
 3716POPC   C4B50122  14.937   7.615   7.462
 3717POPC   NC350123  23.404  38.159   5.546
 3717POPC   PO450124  23.937  38.673   5.416
 3717POPC   GL150125  23.788  38.452   5.751
 3717POPC   GL250126  23.805  38.781   5.930
 3717POPC   C1A50127  23.639  38.335   6.147
 3717POPC   D2A50128  23.571  38.293   6.591
 3717POPC   C3A50129  23.708  38.585   6.882
 3717POPC   C4A50130  23.741  38.382   7.277
 3717POPC   C1B50131  23.808  38.826   6.385
 3717POPC   C2B50132  24.054  38.941   6.756
 3717POPC   C3B50133  24.182  38.668   7.086
 3717POPC   C4B50134  24.091  38.657   7.513
 3718POPC   NC350135  44.926   3.652   5.376
 3718POPC   PO450136  44.248   3.895   5.409
 3718POPC   GL150137  44.557   3.652   5.734
 3718POPC   GL250138  44.901   3.807   5.865
 3718POPC   C1A50139  44.659   3.409   6.140
 3718POPC   D2A50140  44.451   3.341   6.554
 3718POPC   C3A50141  44.711   3.346   6.940
 3718POPC   C4A50142  44.679   3.714   7.211
 3718POPC   C1B50143  44.931   3.786   6.336
 3718POPC   C2B50144  44.960   3.753   6.778
 3718POPC   C3B50145   0.162   3.638   7.158
 3718POPC   C4B50146   0.127   3.648   7.626
 3719POPC   NC350147  27.286  37.247   5.345
 3719POPC   PO450148  26.639  36.928   5.389
 3719POPC   GL150149  26.827  36.969   5.790
 3719POPC   GL250150  26.494  37.075   5.942
 3719POPC   C1A50151  27.034  36.815   6.193
 3719POPC   D2A50152  27.002  36.546   6.563
 3719POPC   C3A50153  27.055  36.670   7.015
 3719POPC   C4A50154  27.220  36.954   7.325
 3719POPC   C1B50155  26.551  36.667   6.168
 3719POPC   C2B50156  26.501  36.470   6.585
 3719POPC   C3B50157  26.559  36.580   7.029
 3719POPC   C4B50158  26.675  36.914   7.358
 3720POPC   NC350159   0.422  10.353   5.092
 3720POPC   PO450160   0.659  10.946   5.309
 3720POPC   GL150161   0.491  10.747   5.733
 3720POPC   GL250162   0.239  10.450   5.634
 3720POPC   C1A50163   0.485  10.826   6.231
 3720POPC   D2A50164   0.508  10.908   6.715
 3720POPC   C3A50165   0.354  10.546   6.984
 3720POPC   C4A50166   0.527  10.272   7.311
 3720POPC   C1B50167   0.165  10.461   6.087
 3720POPC   C2B50168   0.196  10.330   6.528
 3720POPC   C3B50169  44.958  10.187   6.915
 3720POPC   C4B50170   0.061  10.100   7.371
 3721POPC   NC350171  19.182   8.603   5.408
 3721POPC   PO450172  18.940   7.915   5.461
 3721POPC   GL150173  19.059   8.234   5.749
 3721POPC   GL250174  18.799   8.495   5.728
 3721POPC   C1A50175  19.239   8.228   6.166
 3721POPC   D2A50176  19.241   7.978   6.529
 3721POPC   C3A50177  19.418   8.147   6.879
 3721POPC   C4A50178  19.233   8.349   7.219
 3721POPC   C1B50179  18.731   8.322   6.128
 3721POPC   C2B50180  18.874   8.316   6.529
 3721POPC   C3B50181  18.826   8.164   6.926
 3721POPC   C4B50182  18.718   8.520   7.168
 3722POPC   NC350183   1.903  17.748   4.948
 3722POPC   PO450184   2.089  17.272   5.297
 3722POPC   GL150185   2.136  17.263   5.793
 3722POPC   GL250186   1.877  17.496   5.946
 3722POPC   C1A50187   2.267  17.398   6.267
 3722POPC   D2A50188   2.421  17.515   6.707
 3722POPC   C3A50189   2.110  17.444   7.072
 3722POPC   C4A50190   1.955  17.517   7.526
 3722POPC   C1B50191   1.977  17.814   6.298
 3722POPC   C2B50192   2.066  17.891   6.754
 3722POPC   C3B50193   1.862  17.898   7.174
 3722POPC   C4B50194   1.494  17.706   7.398
 3723POPC   NC350195   6.542   1.759   5.498
 3723POPC   PO450196   7.099   2.098   5.427
 3723POPC   GL150197   6.936   1.971   5.809
 3723POPC   GL250198   6.855   2.319   5.868
 3723POPC   C1A50199   6.771   1.918   6.234
 3723POPC   D2A50200   6.527   2.053   6.597
 3723POPC   C3A50201   6.603   1.833   6.996
 3723POPC   C4A50202   6.319   1.933   7.304
 3723POPC   C1B50203   7.177   2.283   6.184
 3723POPC   C2B50204   7.072   2.142   6.589
 3723POPC   C3B50205   6.851   2.271   6.924
 3723POPC   C4B50206   6.774   2.177   7.335
 3724POPC   NC350207  20.417  25.842   5.344
 3724POPC   PO450208  20.346  26.476   5.521
 3724POPC   GL150209  20.509  26.237   5.893
 3724POPC   GL250210  20.542  25.878   5.839
 3724POPC   C1A50211  20.498  26.156   6.350
 3724POPC   D2A50212  20.343  26.405   6.687
 3724POPC   C3A50213  20.574  26.283   7.083
 3724POPC   C4A50214  20.481  26.358   7.558
 3724POPC   C1B50215  20.889  25.933   6.142
 3724POPC   C2B50216  21.007  26.059   6.586
 3724POPC   C3B50217  20.894  25.851   7.005
 3724POPC   C4B50218  20.520  25.639   7.186
 3725POPC   NC350219   4.239  34.651   5.394
 3725POPC   PO450220   4.866  34.596   5.475
 3725POPC   GL150221   4.552  34.533   5.815
 3725POPC   GL250222   4.589  34.854   5.965
 3725POPC   C1A50223   4.224  34.319   6.125
 3725POPC   D2A50224   4.052  34.351   6.580
 3725POPC   C3A50225   4.328  34.553   6.898
 3725POPC   C4A50226   4.547  34.514   7.307
 3725POPC   C1B50227   4.350  34.770   6.383
 3725POPC   C2B50228   3.941  34.847   6.629
 3725POPC   C3B50229   3.840  34.779   7.064
 3725POPC   C4B50230   4.056  34.899   7.462
 3726POPC   NC350231  20.721  10.302   5.359
 3726POPC   PO450232  20.442  10.928   5.437
 3726POPC   GL150233  20.515  10.644   5.790
 3726POPC   GL250234  20.831  10.682   5.774
 3726POPC   C1A50235  20.463  10.682   6.254
 3726POPC   D2A50236  20.252  10.723   6.660
 3726POPC   C3A50237  20.470  10.634   7.065
 3726POPC   C4A50238  20.434  10.800   7.503
 3726POPC   C1B50239  20.985  10.528   6.161
 3726POPC   C2B50240  20.816  10.455   6.569
 3726POPC   C3B50241  21.004  10.429   6.957
 3726POPC   C4B50242  21.052  10.611   7.327
 3727POPC   NC350243  37.752  44.106   5.602
 3727POPC   PO450244  37.083  43.823   5.551
 3727POPC   GL150245  37.328  43.699   5.915
 3727POPC   GL250246  37.666  43.781   5.998
 3727POPC   C1A50247  37.327  43.712   6.388
 3727POPC   D2A50248  37.393  44.010   6.723
 3727POPC   C3A50249  37.335  43.871   7.130
 3727POPC   C4A50250  37.725  43.671   7.281
 3727POPC   C1B50251  37.576  44.197   6.252
 3727POPC   C2B50252  37.795  44.378   6.628
 3727POPC   C3B50253  38.087  44.212   6.942
 3727POPC   C4B50254  38.198  43.873   7.243
 3728POPC   NC350255  34.957  21.124   5.378
 3728POPC   PO450256  34.530  21.634   5.369
 3728POPC   GL150257  34.483  21.327   5.699
 3728POPC   GL250258  34.689  21.561   5.885
 3728POPC   C1A50259  34.694  21.076   6.042
 3728POPC   D2A50260  34.886  21.252   6.405
 3728POPC   C3A50261  34.705  21.361   6.816
 3728POPC   C4A50262  34.866  21.334   7.242
 3728POPC   C1B50263  34.417  21.485   6.247
 3728POPC   C2B50264  34.432  21.756   6.614
 3728POPC   C3B50265  34.327  21.730   7.037
 3728POPC   C4B50266  34.605  21.780   7.340
 3729POPC   NC350267  38.316  25.550   5.262
 3729POPC   PO450268  38.612  25.058   5.431
 3729POPC   GL150269  38.467  25.351   5.721
 3729POPC   GL250270  38.087  25.409   5.700
 3729POPC   C1A50271  38.495  25.420   6.153
 3729POPC   D2A50272  38.623  25.607   6.547
 3729POPC   C3A50273  38.500  25.369   6.910
 3729POPC   C4A50274  38.761  25.196   7.239
 3729POPC   C1B50275  37.995  25.509   6.137
 3729POPC   C2B50276  38.043  25.664   6.584
 3729POPC   C3B50277  37.981  25.477   7.031
 3729POPC   C4B50278  38.053  25.062   7.264
 3730POPC   NC350279  28.746  10.510   5.385
 3730POPC   PO450280  29.258  10.240   5.403
 3730POPC   GL150281  29.099  10.357   5.820
 3730POPC   GL250282  28.712  10.348   5.865
 3730POPC   C1A50283  29.333  10.316   6.259
 3730POPC   D2A50284  29.519  10.430   6.685
 3730POPC   C3A50285  29.360  10.348   7.126
 3730POPC   C4A50286  29.263  10.521   7.589
 3730POPC   C1B50287  28.859  10.467   6.277
 3730POPC   C2B50288  29.004  10.405   6.715
 3730POPC   C3B50289  29.028  10.728   7.043
 3730POPC   C4B50290  28.669  11.010   7.104
 3731POPC   NC350291  24.104  39.680   5.091
 3731POPC   PO450292  23.805  40.166   5.400
 3731POPC   GL150293  23.700  39.946   5.769
 3731POPC   GL250294  23.444  40.210   5.782
 3731POPC   C1A50295  23.826  39.724   6.185
 3731POPC   D2A50296  23.921  39.815   6.640
 3731POPC   C3A50297  23.750  39.602   6.995
 3731POPC   C4A50298  23.598  39.768   7.379
 3731POPC   C1B50299  23.494  40.134   6.206
 3731POPC   C2B50300  23.438  40.264   6.591
 3731POPC   C3B50301  23.520  40.068   6.939
 3731POPC   C4B50302  23.747  40.240   7.198
 3732POPC   NC350303  41.054  20.441   5.499
 3732POPC   PO450304  40.455  20.519   5.275
 3732POPC   GL150305  40.597  20.487   5.746
 3732POPC   GL250306  40.848  20.734   5.832
 3732POPC   C1A50307  40.483  20.365   6.193
 3732POPC   D2A50308  40.518  20.121   6.632
 3732POPC   C3A50309  40.546  20.353   7.038
 3732POPC   C4A50310  40.932  20.441   7.309
 3732POPC   C1B50311  40.755  20.800   6.238
 3732POPC   C2B50312  40.753  20.603   6.624
 3732POPC   C3B50313  40.772  20.805   7.014
 3732POPC   C4B50314  40.889  21.089   7.262
 3733POPC   NC350315  18.508  15.498   5.444
 3733POPC   PO450316  18.189  14.888   5.535
 3733POPC   GL150317  18.319  15.166   5.788
 3733POPC   GL250318  17.987  15.350   5.818
 3733POPC   C1A50319  18.421  15.397   6.133
 3733POPC   D2A50320  18.207  15.351   6.508
 3733POPC   C3A50321  18.433  15.254   6.859
 3733POPC   C4A50322  18.431  15.337   7.270
 3733POPC   C1B50323  17.949  15.030   6.162
 3733POPC   C2B50324  17.971  14.917   6.623
 3733POPC   C3B50325  17.933  15.255   6.958
 3733POPC   C4B50326  17.954  15.179   7.383
 3734POPC   NC350327  43.453   1.433   5.659
 3734POPC   PO450328  43.943   0.948   5.397
 3734POPC   GL150329  43.861   1.153   5.818
 3734POPC   GL250330  43.938   1.522   5.827
 3734POPC   C1A50331  43.580   1.057   6.198
 3734POPC   D2A50332  43.539   0.856   6.598
 3734POPC   C3A50333  43.743   0.994   7.009
 3734POPC   C4A50334  43.711   0.792   7.428
 3734POPC   C1B50335  43.943   1.426   6.280
 3734POPC   C2B50336  43.933   1.605   6.701
 3734POPC   C3B50337  43.952   1.475   7.122
 3734POPC   C4B50338  44.151   1.195   7.388
 3735POPC   NC350339  44.857  33.897   5.604
 3735POPC   PO450340  44.351  34.294   5.717
 3735POPC   GL150341  44.534  34.061   5.980
 3735POPC   GL250342  44.496  33.725   5.934
 3735POPC   C1A50343  44.559  34.075   6.394
 3735POPC   D2A50344  44.430  34.183   6.765
 3735POPC   C3A50345  44.832  34.146   6.911
 3735POPC   C4A50346  44.965  33.869   7.210
 3735POPC   C1B50347  44.745  33.615   6.268
 3735POPC   C2B50348  44.795  33.695   6.692
 3735POPC   C3B50349  44.639  33.518   7.057
 3735POPC   C4B50350  44.814  33.375   7.431
 3736POPC   NC350351  24.763  37.384   5.384
 3736POPC   PO450352  24.158  37.711   5.258
 3736POPC   GL150353  24.414  37.742   5.699
 3736POPC   GL250354  24.274  38.022   5.910
 3736POPC   C1A50355  24.661  37.624   6.132
 3736POPC   D2A50356  24.841  37.470   6.580
 3736POPC   C3A50357  24.729  37.523   7.047
 3736POPC   C4A50358  24.876  37.503   7.474
 3736POPC   C1B50359  24.397  38.033   6.369
 3736POPC   C2B50360  24.396  37.857   6.794
 3736POPC   C3B50361  24.104  37.735   7.152
 3736POPC   C4B50362  24.184  37.767   7.583
 3737POPC   NC350363  22.526  27.565   5.327
 3737POPC   PO450364  23.140  27.646   5.295
 3737POPC   GL150365  22.879  27.657   5.713
 3737POPC   GL250366  22.695  27.324   5.774
 3737POPC   C1A50367  23.026  27.734   6.155
 3737POPC   D2A50368  23.099  27.522   6.557
 3737POPC   C3A50369  23.133  27.672   6.975
 3737POPC   C4A50370  23.097  27.324   7.272
 3737POPC   C1B50371  22.567  27.487   6.199
 3737POPC   C2B50372  22.533  27.620   6.625
 3737POPC   C3B50373  22.650  27.490   7.053
 3737POPC   C4B50374  22.654  27.602   7.496
 3738POPC   NC350375   4.928  10.514   5.387
 3738POPC   PO450376   4.575  11.046   5.650
 3738POPC   GL150377   4.974  10.755   5.846
 3738POPC   GL250378   5.223  10.449   5.791
 3738POPC   C1A50379   5.074  10.623   6.272
 3738POPC   D2A50380   4.854  10.646   6.660
 3738POPC   C3A50381   5.113  10.582   7.003
 3738POPC   C4A50382   5.244  10.949   7.169
 3738POPC   C1B50383   5.358  10.206   6.155
 3738POPC   C2B50384   5.407  10.257   6.602
 3738POPC   C3B50385   5.324  10.117   7.006
 3738POPC   C4B50386   5.373  10.316   7.432
 3739POPC   NC350387  40.497   8.421   5.442
 3739POPC   PO450388  40.429   7.870   5.429
 3739POPC   GL150389  40.672   8.092   5.815
 3739POPC   GL250390  40.836   8.454   5.819
 3739POPC   C1A50391  40.683   8.218   6.289
 3739POPC   D2A50392  40.653   8.122   6.769
 3739POPC   C3A50393  40.451   8.190   7.210
 3739POPC   C4A50394  40.511   7.965   7.621
 3739POPC   C1B50395  40.933   8.671   6.212
 3739POPC   C2B50396  40.819   8.701   6.652
 3739POPC   C3B50397  40.813   8.521   7.069
 3739POPC   C4B50398  40.766   8.492   7.542
 3740POPC   NC350399  24.439  31.137   5.491
 3740POPC   PO450400  24.690  31.735   5.484
 3740POPC   GL150401  24.416  31.551   5.830
 3740POPC   GL250402  24.591  31.263   5.943
 3740POPC   C1A50403  24.407  31.590   6.304
 3740POPC   D2A50404  24.720  31.791   6.585
 3740POPC   C3A50405  24.758  31.696   6.987
 3740POPC   C4A50406  24.408  31.692   7.255
 3740POPC   C1B50407  24.736  31.167   6.310
 3740POPC   C2B50408  24.587  31.266   6.721
 3740POPC   C3B50409  24.570  31.228   7.174
 3740POPC   C4B50410  24.802  31.021   7.505
 3741POPC   NC350411  11.688   2.906   5.403
 3741POPC   PO450412  12.342   3.054   5.544
 3741POPC   GL150413  12.031   2.987   5.879
 3741POPC   GL250414  11.729   2.746   5.884
 3741POPC   C1A50415  12.166   3.096   6.306
 3741POPC   D2A50416  12.215   2.980   6.721
 3741POPC   C3A50417  11.833   2.809   6.849
 3741POPC   C4A50418  11.807   2.779   7.274
 3741POPC   C1B50419  11.881   2.662   6.316
 3741POPC   C2B50420  12.149   2.446   6.646
 3741POPC   C3B50421  12.253   2.540   7.093
 3741POPC   C4B50422  12.250   2.396   7.558
 3742POPC   NC350423  34.379   9.933   5.484
 3742POPC   PO450424  34.779   9.464   5.285
 3742POPC   GL150425  34.549   9.531   5.772
 3742POPC   GL250426  34.558   9.857   5.959
 3742POPC   C1A50427  34.286   9.478   6.190
 3742POPC   D2A50428  34.456   9.401   6.648
 3742POPC   C3A50429  34.334   9.655   7.024
 3742POPC   C4A50430  34.339  10.053   7.288
 3742POPC   C1B50431  34.765   9.640   6.294
 3742POPC   C2B50432  34.839   9.765   6.699
 3742POPC   C3B50433  34.813   9.894   7.093
 3742POPC   C4B50434  34.665   9.683   7.410
 3743POPC   NC350435  12.299  18.930   5.622
 3743POPC   PO450436  12.866  19.119   5.248
 3743POPC   GL150437  12.827  18.922   5.648
 3743POPC   GL250438  12.809  19.260   5.828
 3743POPC   C1A50439  12.733  18.824   6.093
 3743POPC   D2A50440  12.668  19.108   6.431
 3743POPC   C3A50441  12.676  18.965   6.854
 3743POPC   C4A50442  12.966  19.042   7.179
 3743POPC   C1B50443  13.117  19.168   6.190
 3743POPC   C2B50444  13.227  19.185   6.641
 3743POPC   C3B50445  13.239  19.459   7.024
 3743POPC   C4B50446  13.277  19.309   7.466
 3744POPC   NC350447  39.892   3.536   5.432
 3744POPC   PO450448  40.276   3.130   5.412
 3744POPC   GL150449  40.135   3.227   5.852
 3744POPC   GL250450  40.012   3.572   5.925
 3744POPC   C1A50451  40.175   3.295   6.332
 3744POPC   D2A50452  39.973   3.375   6.762
 3744POPC   C3A50453  40.205   3.515   7.137
 3744POPC   C4A50454  40.387   3.482   7.562
 3744POPC   C1B50455  39.735   3.569   6.295
 3744POPC   C2B50456  39.692   3.816   6.679
 3744POPC   C3B50457  39.711   3.685   7.115
 3744POPC   C4B50458  39.509   3.804   7.510
 3745POPC   NC350459  42.551  44.390   5.012
 3745POPC   PO450460  42.362  43.903   5.405
 3745POPC   GL150461  42.335  43.798   5.767
 3745POPC   GL250462  41.982  43.722   5.738
 3745POPC   C1A50463  42.477  43.647   6.157
 3745POPC   D2A50464  42.632  43.535   6.550
 3745POPC   C3A50465  42.479  43.809   6.867
 3745POPC   C4A50466  42.489  43.747   7.310
 3745POPC   C1B50467  42.033  43.947   6.135
 3745POPC   C2B50468  42.275  44.075   6.462
 3745POPC   C3B50469  42.225  44.318   6.826
 3745POPC   C4B50470  42.163  44.112   7.196
 3746POPC   NC350471   5.720  40.923   5.422
 3746POPC   PO450472   6.170  40.495   5.484
 3746POPC   GL150473   6.065  40.623   5.891
 3746POPC   GL250474   5.998  40.971   5.865
 3746POPC   C1A50475   6.166  40.534   6.334
 3746POPC   D2A50476   6.129  40.706   6.737
 3746POPC   C3A50477   6.185  40.464   7.107
 3746POPC   C4A50478   6.280  40.475   7.559
 3746POPC   C1B50479   5.860  40.946   6.296
 3746POPC   C2B50480   5.628  40.725   6.636
 3746POPC   C3B50481   5.704  40.678   7.081
 3746POPC   C4B50482   5.670  41.062   7.310
 3747POPC   NC350483   0.575   7.209   5.368
 3747POPC   PO450484   0.016   7.463   5.559
 3747POPC   GL150485   0.397   7.466   5.817
 3747POPC   GL250486   0.716   7.655   5.735
 3747POPC   C1A50487   0.374   7.320   6.238
 3747POPC   D2A50488   0.281   7.074   6.588
 3747POPC   C3A50489   0.280   7.328   6.938
 3747POPC   C4A50490   0.322   7.189   7.342
 3747POPC   C1B50491   0.840   7.520   6.173
 3747POPC   C2B50492   0.741   7.382   6.623
 3747POPC   C3B50493   0.754   7.494   7.071
 3747POPC   C4B50494   0.765   7.444   7.525
 3748POPC   NC350495   4.057   4.126   5.313
 3748POPC   PO450496   3.421   4.492   5.354
 3748POPC   GL150497   3.600   4.203   5.606
 3748POPC   GL250498   3.867   4.420   5.713
 3748POPC   C1A50499   3.415   4.279   5.999
 3748POPC   D2A50500   3.551   4.303   6.414
 3748POPC   C3A50501   3.335   4.498   6.756
 3748POPC   C4A50502   3.495   4.673   7.157
 3748POPC   C1B50503   3.877   4.073   6.032
 3748POPC   C2B50504   3.893   3.934   6.489
 3748POPC   C3B50505   3.805   4.180   6.854
 3748POPC   C4B50506   4.046   4.121   7.211
 3749POPC   NC350507  17.344  37.724   5.414
 3749POPC   PO450508  17.979  37.289   5.397
 3749POPC   GL150509  17.699  37.563   5.712
 3749POPC   GL250510  17.336  37.458   5.858
 3749POPC   C1A50511  17.610  37.816   6.089
 3749POPC   D2A50512  17.573  37.625   6.497
 3749POPC   C3A50513  17.779  37.866   6.788
 3749POPC   C4A50514  17.793  37.918   7.207
 3749POPC   C1B50515  17.105  37.573   6.263
 3749POPC   C2B50516  17.077  37.630   6.734
 3749POPC   C3B50517  17.427  37.536   7.017
 3749POPC   C4B50518  17.607  37.242   7.308
 3750POPC   NC350519  25.760  40.448   5.303
 3750POPC   PO450520  26.133  39.938   5.378
 3750POPC   GL150521  25.989  39.899   5.791
 3750POPC   GL250522  26.309  39.944   5.952
 3750POPC   C1A50523  25.838  40.179   6.110
 3750POPC   D2A50524  25.873  40.384   6.519
 3750POPC   C3A50525  25.955  40.059   6.859
 3750POPC   C4A50526  25.923  40.272   7.268
 3750POPC   C1B50527  26.143  39.781   6.278
 3750POPC   C2B50528  26.295  39.690   6.646
 3750POPC   C3B50529  26.152  39.581   7.020
 3750POPC   C4B50530  26.140  39.833   7.349
 3751POPC   NC350531  18.099  32.394   5.347
 3751POPC   PO450532  18.097  31.847   5.678
 3751POPC   GL150533  18.217  32.251   5.817
 3751POPC   GL250534  18.439  32.544   5.693
 3751POPC   C1A50535  18.282  32.265   6.238
 3751POPC   D2A50536  18.313  32.052   6.593
 3751POPC   C3A50537  18.226  32.296   6.923
 3751POPC   C4A50538  18.286  32.018   7.250
 3751POPC   C1B50539  18.603  32.626   6.086
 3751POPC   C2B50540  18.414  32.690   6.486
 3751POPC   C3B50541  18.541  32.709   6.936
 3751POPC   C4B50542  18.528  32.473   7.329
 3752POPC   NC350543   6.854  27.701   5.267
 3752POPC   PO450544   6.475  27.193   5.514
 3752POPC   GL150545   6.542  27.548   5.727
 3752POPC   GL250546   6.898  27.590   5.767
 3752POPC   C1A50547   6.374  27.784   6.091
 3752POPC   D2A50548   6.186  27.631   6.493
 3752POPC   C3A50549   6.422  27.691   6.872
 3752POPC   C4A50550   6.476  27.452   7.258
 3752POPC   C1B50551   6.896  27.825   6.142
 3752POPC   C2B50552   6.881  27.910   6.589
 3752POPC   C3B50553   6.988  27.837   7.023
 3752POPC   C4B50554   6.988  27.462   7.308
 3753POPC   NC350555  27.103   5.332   5.337
 3753POPC   PO450556  26.693   4.728   5.457
 3753POPC   GL150557  26.853   5.081   5.715
 3753POPC   GL250558  26.606   5.260   5.865
 3753POPC   C1A50559  27.083   5.222   6.085
 3753POPC   D2A50560  27.001   5.353   6.528
 3753POPC   C3A50561  26.931   5.101   6.877
 3753POPC   C4A50562  26.897   5.298   7.275
 3753POPC   C1B50563  26.630   5.120   6.257
 3753POPC   C2B50564  26.496   5.297   6.621
 3753POPC   C3B50565  26.454   5.211   7.045
 3753POPC   C4B50566  26.428   5.410   7.458
 3754POPC   NC350567   7.734  25.341   5.450
 3754POPC   PO450568   7.125  24.988   5.176
 3754POPC   GL150569   7.307  25.156   5.591
 3754POPC   GL250570   7.225  25.475   5.715
 3754POPC   C1A50571   7.447  25.122   6.055
 3754POPC   D2A50572   7.517  25.132   6.506
 3754POPC   C3A50573   7.386  25.148   6.946
 3754POPC   C4A50574   7.653  24.964   7.256
 3754POPC   C1B50575   7.399  25.636   6.114
 3754POPC   C2B50576   7.643  25.634   6.487
 3754POPC   C3B50577   7.804  25.410   6.836
 3754POPC   C4B50578   7.687  25.526   7.248
 3755POPC   NC350579  18.316  21.457   5.524
 3755POPC   PO450580  17.793  21.015   5.323
 3755POPC   GL150581  17.942  21.194   5.753
 3755POPC   GL250582  17.950  21.561   5.870
 3755POPC   C1A50583  17.990  21.215   6.215
 3755POPC   D2A50584  18.372  21.173   6.487
 3755POPC   C3A50585  18.351  21.229   6.947
 3755POPC   C4A50586  18.587  21.473   7.258
 3755POPC   C1B50587  18.289  21.634   6.213
 3755POPC   C2B50588  18.421  21.674   6.666
 3755POPC   C3B50589  18.210  21.739   7.062
 3755POPC   C4B50590  17.877  21.919   7.329
 3756POPC   NC350591   4.277  32.614   5.483
 3756POPC   PO450592   4.193  31.927   5.316
 3756POPC   GL150593   4.084  32.170   5.694
 3756POPC   GL250594   4.419  32.288   5.853
 3756POPC   C1A50595   4.069  32.070   6.138
 3756POPC   D2A50596   4.050  32.297   6.531
 3756POPC   C3A50597   4.064  32.072   6.914
 3756POPC   C4A50598   4.163  31.941   7.307
 3756POPC   C1B50599   4.504  32.378   6.317
 3756POPC   C2B50600   4.463  32.428   6.823
 3756POPC   C3B50601   4.593  32.298   7.272
 3756POPC   C4B50602   4.714  32.538   7.686
 3757POPC   NC350603  15.761  18.798   5.214
 3757POPC   PO450604  15.860  19.430   5.573
 3757POPC   GL150605  15.941  19.157   5.890
 3757POPC   GL250606  15.960  18.822   5.716
 3757POPC   C1A50607  15.759  19.215   6.297
 3757POPC   D2A50608  15.563  19.101   6.681
 3757POPC   C3A50609  15.817  19.299   6.992
 3757POPC   C4A50610  16.085  19.208   7.336
 3757POPC   C1B50611  15.742  18.725   6.118
 3757POPC   C2B50612  15.781  18.613   6.566
 3757POPC   C3B50613  15.875  18.790   6.981
 3757POPC   C4B50614  15.726  18.852   7.406
 3758POPC   NC350615  10.275  25.565   5.576
 3758POPC   PO450616  10.549  24.985   5.294
 3758POPC   GL150617  10.584  25.134   5.730
 3758POPC   GL250618  10.836  24.851   5.773
 3758POPC   C1A50619  10.454  25.214   6.151
 3758POPC   D2A50620  10.424  24.975   6.527
 3758POPC   C3A50621  10.555  25.160   6.919
 3758POPC   C4A50622  10.339  25.142   7.279
 3758POPC   C1B50623  10.912  24.987   6.202
 3758POPC   C2B50624  10.970  25.097   6.610
 3758POPC   C3B50625  11.036  24.873   7.003
 3758POPC   C4B50626  10.841  24.902   7.399
 3759POPC   NC350627  24.223  11.028   5.438
 3759POPC   PO450628  24.857  11.306   5.401
 3759POPC   GL150629  24.639  11.657   5.661
 3759POPC   GL250630  24.263  11.604   5.747
 3759POPC   C1A50631  24.683  11.688   6.119
 3759POPC   D2A50632  24.600  11.421   6.480
 3759POPC   C3A50633  24.545  11.530   6.916
 3759POPC   C4A50634  24.654  11.308   7.312
 3759POPC   C1B50635  24.251  11.340   6.105
 3759POPC   C2B50636  24.093  11.339   6.547
 3759POPC   C3B50637  24.060  11.300   6.994
 3759POPC   C4B50638  24.177  11.351   7.433
 3760POPC   NC350639  10.159  41.118   5.344
 3760POPC   PO450640  10.625  40.630   5.417
 3760POPC   GL150641  10.666  40.705   5.830
 3760POPC   GL250642  10.821  40.440   5.986
 3760POPC   C1A50643  10.688  40.895   6.227
 3760POPC   D2A50644  10.633  40.692   6.641
 3760POPC   C3A50645  10.753  40.968   6.948
 3760POPC   C4A50646  10.565  41.059   7.284
 3760POPC   C1B50647  10.419  40.458   6.227
 3760POPC   C2B50648  10.130  40.514   6.582
 3760POPC   C3B50649  10.286  40.407   6.973
 3760POPC   C4B50650  10.688  40.512   7.184
 3761POPC   NC350651  23.044   5.554   5.249
 3761POPC   PO450652  22.834   6.175   5.510
 3761POPC   GL150653  22.867   5.887   5.801
 3761POPC   GL250654  23.158   5.695   5.758
 3761POPC   C1A50655  22.829   6.031   6.195
 3761POPC   D2A50656  22.863   6.310   6.497
 3761POPC   C3A50657  22.775   6.098   6.862
 3761POPC   C4A50658  22.879   6.047   7.293
 3761POPC   C1B50659  23.300   5.844   6.160
 3761POPC   C2B50660  23.185   5.922   6.588
 3761POPC   C3B50661  23.319   6.050   6.988
 3761POPC   C4B50662  23.324   5.854   7.395
 3762POPC   NC350663  31.192  42.131   5.463
 3762POPC   PO450664  31.717  42.493   5.387
 3762POPC   GL150665  31.607  42.245   5.777
 3762POPC   GL250666  31.313  42.073   5.946
 3762POPC   C1A50667  31.707  42.388   6.184
 3762POPC   D2A50668  31.506  42.481   6.599
 3762POPC   C3A50669  31.514  42.288   7.045
 3762POPC   C4A50670  31.530  42.348   7.548
 3762POPC   C1B50671  31.452  41.997   6.345
 3762POPC   C2B50672  31.817  42.088   6.617
 3762POPC   C3B50673  31.881  41.932   7.026
 3762POPC   C4B50674  31.809  41.931   7.453
 3763POPC   NC350675  38.592  44.816   5.537
 3763POPC   PO450676  38.080  44.395   5.348
 3763POPC   GL150677  38.306  44.362   5.787
 3763POPC   GL250678  38.570  44.619   5.988
 3763POPC   C1A50679  38.169  44.461   6.240
 3763POPC   D2A50680  38.389  44.745   6.562
 3763POPC   C3A50681  38.425  44.598   6.989
 3763POPC   C4A50682  38.542  44.688   7.420
 3763POPC   C1B50683  38.688   0.040   6.201
 3763POPC   C2B50684  38.905   0.043   6.603
 3763POPC   C3B50685  38.681   0.040   7.012
 3763POPC   C4B50686  38.706   0.173   7.420
 3764POPC   NC350687  20.659   8.075   5.076
 3764POPC   PO450688  20.349   8.403   5.618
 3764POPC   GL150689  20.517   8.398   6.012
 3764POPC   GL250690  20.519   8.014   5.972
 3764POPC   C1A50691  20.830   8.252   6.311
 3764POPC   D2A50692  20.787   7.897   6.589
 3764POPC   C3A50693  20.841   8.066   6.980
 3764POPC   C4A50694  20.737   8.103   7.393
 3764POPC   C1B50695  20.323   8.058   6.368
 3764POPC   C2B50696  20.445   8.275   6.721
 3764POPC   C3B50697  20.356   8.292   7.133
 3764POPC   C4B50698  20.090   8.577   7.213
 3765POPC   NC350699   7.738   0.239   5.149
 3765POPC   PO450700   7.081   0.538   5.261
 3765POPC   GL150701   7.328   0.312   5.583
 3765POPC   GL250702   7.685   0.412   5.700
 3765POPC   C1A50703   7.281   0.410   6.035
 3765POPC   D2A50704   7.378   0.602   6.455
 3765POPC   C3A50705   7.227   0.445   6.871
 3765POPC   C4A50706   7.212   0.544   7.311
 3765POPC   C1B50707   7.778   0.308   6.194
 3765POPC   C2B50708   7.651   0.215   6.661
 3765POPC   C3B50709   7.666   0.325   7.129
 3765POPC   C4B50710   7.487   0.154   7.533
 3766POPC   NC350711  40.344  12.689   5.404
 3766POPC   PO450712  39.673  12.865   5.441
 3766POPC   GL150713  39.874  12.742   5.838
 3766POPC   GL250714  40.195  12.886   5.870
 3766POPC   C1A50715  40.028  12.675   6.286
 3766POPC   D2A50716  39.797  12.636   6.636
 3766POPC   C3A50717  40.037  12.760   6.945
 3766POPC   C4A50718  39.866  12.851   7.307
 3766POPC   C1B50719  39.927  13.143   6.130
 3766POPC   C2B50720  39.914  13.140   6.560
 3766POPC   C3B50721  39.751  13.182   6.948
 3766POPC   C4B50722  39.429  13.136   7.262
 3767POPC   NC350723   7.265   7.500   5.533
 3767POPC   PO450724   7.795   7.070   5.407
 3767POPC   GL150725   7.671   7.319   5.795
 3767POPC   GL250726   7.685   7.707   5.728
 3767POPC   C1A50727   7.535   7.285   6.260
 3767POPC   D2A50728   7.472   7.029   6.624
 3767POPC   C3A50729   7.396   7.249   6.987
 3767POPC   C4A50730   7.106   7.514   7.176
 3767POPC   C1B50731   7.845   7.670   6.118
 3767POPC   C2B50732   7.709   7.690   6.537
 3767POPC   C3B50733   7.823   7.534   6.935
 3767POPC   C4B50734   7.581   7.584   7.307
 3768POPC   NC350735  35.694   8.034   5.061
 3768POPC   PO450736  36.104   8.478   5.412
 3768POPC   GL150737  35.898   8.387   5.816
 3768POPC   GL250738  36.226   8.328   5.959
 3768POPC   C1A50739  35.839   8.179   6.256
 3768POPC   D2A50740  35.913   7.967   6.654
 3768POPC   C3A50741  35.881   8.199   7.038
 3768POPC   C4A50742  36.033   8.234   7.498
 3768POPC   C1B50743  36.362   8.102   6.351
 3768POPC   C2B50744  36.415   8.053   6.797
 3768POPC   C3B50745  36.427   8.247   7.184
 3768POPC   C4B50746  36.568   8.106   7.588
 3769POPC   NC350747  37.054  39.108   5.330
 3769POPC   PO450748  37.310  39.703   5.451
 3769POPC   GL150749  37.003  39.398   5.758
 3769POPC   GL250750  36.987  39.053   5.856
 3769POPC   C1A50751  37.077  39.381   6.228
 3769POPC   D2A50752  37.149  39.109   6.554
 3769POPC   C3A50753  36.894  39.189   6.914
 3769POPC   C4A50754  36.856  39.507   7.219
 3769POPC   C1B50755  36.672  39.088   6.237
 3769POPC   C2B50756  36.441  39.056   6.649
 3769POPC   C3B50757  36.518  38.869   7.071
 3769POPC   C4B50758  36.744  39.062   7.454
 3770POPC   NC350759  23.488  19.045   5.518
 3770POPC   PO450760  24.121  19.347   5.309
 3770POPC   GL150761  23.909  19.302   5.723
 3770POPC   GL250762  23.833  18.949   5.860
 3770POPC   C1A50763  23.677  19.383   6.111
 3770POPC   D2A50764  23.397  19.202   6.417
 3770POPC   C3A50765  23.550  19.336   6.806
 3770POPC   C4A50766  23.548  19.287   7.219
 3770POPC   C1B50767  23.841  18.691   6.243
 3770POPC   C2B50768  23.544  18.682   6.631
 3770POPC   C3B50769  23.662  18.768   7.051
 3770POPC   C4B50770  24.049  18.715   7.274
 3771POPC   NC350771  18.192   3.247   5.336
 3771POPC   PO450772  18.577   3.760   5.154
 3771POPC   GL150773  18.283   3.678   5.614
 3771POPC   GL250774  18.293   3.362   5.812
 3771POPC   C1A50775  18.268   3.843   6.095
 3771POPC   D2A50776  18.463   3.708   6.556
 3771POPC   C3A50777  18.205   3.542   6.912
 3771POPC   C4A50778  17.792   3.678   7.015
 3771POPC   C1B50779  18.298   3.360   6.238
 3771POPC   C2B50780  18.472   3.207   6.609
 3771POPC   C3B50781  18.714   3.372   6.946
 3771POPC   C4B50782  18.512   3.401   7.341
 3772POPC   NC350783  20.796   3.196   5.451
 3772POPC   PO450784  21.215   3.632   5.436
 3772POPC   GL150785  21.265   3.767   5.836
 3772POPC   GL250786  20.986   3.594   5.911
 3772POPC   C1A50787  21.470   3.675   6.248
 3772POPC   D2A50788  21.454   3.857   6.689
 3772POPC   C3A50789  21.574   3.762   7.136
 3772POPC   C4A50790  21.279   3.851   7.476
 3772POPC   C1B50791  20.986   3.865   6.278
 3772POPC   C2B50792  20.932   3.783   6.733
 3772POPC   C3B50793  21.128   3.528   7.068
 3772POPC   C4B50794  21.114   3.192   7.389
 3773POPC   NC350795  29.901  22.923   5.417
 3773POPC   PO450796  29.897  23.578   5.686
 3773POPC   GL150797  29.969  23.103   5.910
 3773POPC   GL250798  30.058  22.702   5.864
 3773POPC   C1A50799  29.863  22.845   6.308
 3773POPC   D2A50800  29.608  22.725   6.669
 3773POPC   C3A50801  29.594  23.096   6.946
 3773POPC   C4A50802  29.927  23.315   7.179
 3773POPC   C1B50803  30.198  22.445   6.260
 3773POPC   C2B50804  30.163  22.484   6.732
 3773POPC   C3B50805  30.029  22.798   7.056
 3773POPC   C4B50806  29.957  22.685   7.498
 3774POPC   NC350807  24.669  29.608   5.412
 3774POPC   PO450808  24.486  28.942   5.242
 3774POPC   GL150809  24.593  29.033   5.692
 3774POPC   GL250810  24.897  29.249   5.696
 3774POPC   C1A50811  24.400  29.104   6.123
 3774POPC   D2A50812  24.552  28.964   6.525
 3774POPC   C3A50813  24.347  29.025   6.905
 3774POPC   C4A50814  24.465  28.884   7.297
 3774POPC   C1B50815  24.755  29.467   6.055
 3774POPC   C2B50816  24.704  29.447   6.473
 3774POPC   C3B50817  24.781  29.515   6.875
 3774POPC   C4B50818  24.619  29.376   7.241
 3775POPC   NC350819  40.929  16.681   5.555
 3775POPC   PO450820  40.281  16.650   5.663
 3775POPC   GL150821  40.578  16.797   5.946
 3775POPC   GL250822  40.909  16.604   6.055
 3775POPC   C1A50823  40.486  16.636   6.344
 3775POPC   D2A50824  40.771  16.711   6.597
 3775POPC   C3A50825  40.668  16.731   6.988
 3775POPC   C4A50826  40.534  17.072   7.143
 3775POPC   C1B50827  41.195  16.518   6.424
 3775POPC   C2B50828  41.156  16.535   6.873
 3775POPC   C3B50829  41.032  16.514   7.273
 3775POPC   C4B50830  41.198  16.425   7.670
 3776POPC   NC350831  40.979   1.361   5.434
 3776POPC   PO450832  40.341   1.360   5.412
 3776POPC   GL150833  40.600   1.248   5.767
 3776POPC   GL250834  40.552   0.897   5.746
 3776POPC   C1A50835  40.759   1.374   6.179
 3776POPC   D2A50836  40.689   1.504   6.629
 3776POPC   C3A50837  41.004   1.442   6.923
 3776POPC   C4A50838  41.031   1.233   7.287
 3776POPC   C1B50839  40.827   0.864   6.135
 3776POPC   C2B50840  40.918   1.054   6.559
 3776POPC   C3B50841  40.687   1.036   6.947
 3776POPC   C4B50842  40.715   0.813   7.358
 3777POPC   NC350843  25.920  20.354   5.425
 3777POPC   PO450844  26.122  20.981   5.345
 3777POPC   GL150845  26.078  20.704   5.784
 3777POPC   GL250846  25.772  20.447   5.893
 3777POPC   C1A50847  26.072  20.651   6.248
 3777POPC   D2A50848  26.117  20.778   6.664
 3777POPC   C3A50849  26.168  20.534   7.020
 3777POPC   C4A50850  26.344  20.592   7.417
 3777POPC   C1B50851  25.599  20.801   6.138
 3777POPC   C2B50852  25.657  20.955   6.592
 3777POPC   C3B50853  25.756  20.846   7.040
 3777POPC   C4B50854  25.837  20.733   7.484
 3778POPC   NC350855  19.471  30.226   5.650
 3778POPC   PO450856  19.111  29.744   5.407
 3778POPC   GL150857  19.197  29.830   5.819
 3778POPC   GL250858  19.356  29.506   5.822
 3778POPC   C1A50859  19.234  30.046   6.271
 3778POPC   D2A50860  19.351  30.022   6.747
 3778POPC   C3A50861  19.120  30.116   7.164
 3778POPC   C4A50862  18.915  30.048   7.605
 3778POPC   C1B50863  19.167  29.549   6.220
 3778POPC   C2B50864  19.284  29.544   6.604
 3778POPC   C3B50865  19.058  29.618   6.934
 3778POPC   C4B50866  19.177  29.635   7.347
 3779POPC   NC350867  35.542  24.358   5.380
 3779POPC   PO450868  34.878  24.333   5.562
 3779POPC   GL150869  35.198  24.370   5.860
 3779POPC   GL250870  35.328  24.674   5.751
 3779POPC   C1A50871  35.321  24.407   6.305
 3779POPC   D2A50872  35.327  24.613   6.706
 3779POPC   C3A50873  35.218  24.369   7.078
 3779POPC   C4A50874  35.367  24.453   7.524
 3779POPC   C1B50875  35.563  24.803   6.119
 3779POPC   C2B50876  35.761  24.889   6.507
 3779POPC   C3B50877  35.858  24.808   6.938
 3779POPC   C4B50878  35.480  24.814   7.178
 3780POPC   NC350879  26.358  33.708   5.696
 3780POPC   PO450880  26.912  33.764   5.323
 3780POPC   GL150881  26.851  33.892   5.726
 3780POPC   GL250882  26.628  34.191   5.730
 3780POPC   C1A50883  26.977  33.658   6.094
 3780POPC   D2A50884  26.989  33.879   6.493
 3780POPC   C3A50885  26.911  33.639   6.851
 3780POPC   C4A50886  26.921  33.778   7.248
 3780POPC   C1B50887  26.781  34.240   6.148
 3780POPC   C2B50888  26.535  34.321   6.529
 3780POPC   C3B50889  26.355  34.350   6.945
 3780POPC   C4B50890  26.458  34.016   7.270
 3781POPC   NC350891  21.009  35.525   5.575
 3781POPC   PO450892  21.578  35.363   5.121
 3781POPC   GL150893  21.527  35.385   5.619
 3781POPC   GL250894  21.625  35.122   5.827
 3781POPC   C1A50895  21.462  35.575   6.067
 3781POPC   D2A50896  21.336  35.637   6.524
 3781POPC   C3A50897  21.588  35.487   6.894
 3781POPC   C4A50898  21.705  35.533   7.383
 3781POPC   C1B50899  21.297  35.105   6.187
 3781POPC   C2B50900  21.100  35.182   6.611
 3781POPC   C3B50901  21.183  35.110   7.056
 3781POPC   C4B50902  21.624  35.074   7.243
 3782POPC   NC350903  36.201   9.690   5.305
 3782POPC   PO450904  35.657   9.939   5.347
 3782POPC   GL150905  35.969   9.848   5.747
 3782POPC   GL250906  36.330   9.834   5.760
 3782POPC   C1A50907  36.182   9.713   6.205
 3782POPC   D2A50908  36.386   9.511   6.528
 3782POPC   C3A50909  36.159   9.538   6.872
 3782POPC   C4A50910  36.070   9.717   7.250
 3782POPC   C1B50911  36.454  10.122   6.096
 3782POPC   C2B50912  36.346  10.122   6.519
 3782POPC   C3B50913  36.472   9.942   6.900
 3782POPC   C4B50914  36.473  10.005   7.329
 3783POPC   NC350915  12.798  24.965   5.367
 3783POPC   PO450916  13.125  25.574   5.412
 3783POPC   GL150917  12.883  25.328   5.764
 3783POPC   GL250918  12.978  24.975   5.852
 3783POPC   C1A50919  12.801  25.505   6.179
 3783POPC   D2A50920  12.634  25.374   6.584
 3783POPC   C3A50921  12.975  25.313   6.867
 3783POPC   C4A50922  12.850  25.354   7.268
 3783POPC   C1B50923  13.154  25.130   6.239
 3783POPC   C2B50924  13.353  25.024   6.642
 3783POPC   C3B50925  13.290  24.891   7.090
 3783POPC   C4B50926  13.189  24.984   7.544
 3784POPC   NC350927  25.902   6.576   5.329
 3784POPC   PO450928  26.545   6.654   5.399
 3784POPC   GL150929  26.286   6.454   5.756
 3784POPC   GL250930  25.921   6.304   5.775
 3784POPC   C1A50931  26.118   6.623   6.165
 3784POPC   D2A50932  26.344   6.693   6.579
 3784POPC   C3A50933  26.129   6.563   6.956
 3784POPC   C4A50934  26.137   6.680   7.398
 3784POPC   C1B50935  25.628   6.401   6.105
 3784POPC   C2B50936  25.698   6.552   6.525
 3784POPC   C3B50937  25.622   6.386   6.924
 3784POPC   C4B50938  25.671   6.475   7.348
 3785POPC   NC350939  22.531  35.416   5.580
 3785POPC   PO450940  23.177  35.294   5.539
 3785POPC   GL150941  22.927  35.313   5.893
 3785POPC   GL250942  22.656  35.019   5.898
 3785POPC   C1A50943  23.118  35.406   6.276
 3785POPC   D2A50944  23.174  35.083   6.567
 3785POPC   C3A50945  22.976  35.250   6.893
 3785POPC   C4A50946  23.034  35.597   7.146
 3785POPC   C1B50947  22.707  35.107   6.325
 3785POPC   C2B50948  22.641  35.499   6.547
 3785POPC   C3B50949  22.526  35.508   6.976
 3785POPC   C4B50950  22.637  35.198   7.261
 3786POPC   NC350951  22.618  37.670   5.135
 3786POPC   PO450952  22.285  38.100   5.546
 3786POPC   GL150953  22.232  37.884   5.999
 3786POPC   GL250954  21.981  37.583   6.026
 3786POPC   C1A50955  22.426  37.545   6.252
 3786POPC   D2A50956  22.203  37.474   6.608
 3786POPC   C3A50957  22.458  37.641   6.918
 3786POPC   C4A50958  22.597  37.814   7.277
 3786POPC   C1B50959  21.766  37.729   6.350
 3786POPC   C2B50960  21.683  37.697   6.743
 3786POPC   C3B50961  21.977  37.818   7.008
 3786POPC   C4B50962  22.107  37.584   7.305
 3787POPC   NC350963  26.418  21.662   5.600
 3787POPC   PO450964  26.822  21.251   5.310
 3787POPC   GL150965  26.730  21.240   5.735
 3787POPC   GL250966  26.844  20.898   5.852
 3787POPC   C1A50967  26.805  21.300   6.164
 3787POPC   D2A50968  26.938  21.049   6.493
 3787POPC   C3A50969  26.860  21.334   6.813
 3787POPC   C4A50970  26.766  21.354   7.213
 3787POPC   C1B50971  26.455  20.957   6.118
 3787POPC   C2B50972  26.430  21.150   6.542
 3787POPC   C3B50973  26.481  20.996   6.967
 3787POPC   C4B50974  26.236  21.126   7.310
 3788POPC   NC350975  22.613  38.668   5.206
 3788POPC   PO450976  22.862  38.173   5.599
 3788POPC   GL150977  22.968  38.559   5.835
 3788POPC   GL250978  23.310  38.653   5.813
 3788POPC   C1A50979  22.737  38.749   6.220
 3788POPC   D2A50980  22.608  38.537   6.605
 3788POPC   C3A50981  22.762  38.717   6.994
 3788POPC   C4A50982  22.599  38.654   7.426
 3788POPC   C1B50983  23.210  38.552   6.280
 3788POPC   C2B50984  23.236  38.741   6.689
 3788POPC   C3B50985  23.259  38.581   7.109
 3788POPC   C4B50986  23.205  38.190   7.298
 3789POPC   NC350987  16.633  35.174   5.509
 3789POPC   PO450988  16.862  35.834   5.573
 3789POPC   GL150989  16.858  35.467   5.858
 3789POPC   GL250990  16.483  35.442   5.905
 3789POPC   C1A50991  16.826  35.091   6.151
 3789POPC   D2A50992  16.700  34.915   6.567
 3789POPC   C3A50993  16.737  35.236   6.984
 3789POPC   C4A50994  16.959  35.638   6.996
 3789POPC   C1B50995  16.650  35.555   6.307
 3789POPC   C2B50996  16.585  35.744   6.673
 3789POPC   C3B50997  16.448  35.823   7.084
 3789POPC   C4B50998  16.316  35.454   7.329
 3790POPC   NC350999   8.380  27.762   5.492
 3790POPC   PO451000   7.969  27.224   5.458
 3790POPC   GL151001   8.179  27.423   5.810
 3790POPC   GL251002   8.034  27.757   5.874
 3790POPC   C1A51003   8.414  27.449   6.192
 3790POPC   D2A51004   8.374  27.732   6.541
 3790POPC   C3A51005   8.562  27.713   6.952
 3790POPC   C4A51006   8.341  27.684   7.347
 3790POPC   C1B51007   7.907  27.627   6.233
 3790POPC   C2B51008   7.869  27.789   6.607
 3790POPC   C3B51009   8.037  27.876   6.982
 3790POPC   C4B51010   7.845  27.909   7.350
 3791POPC   NC351011  28.256  16.934   5.509
 3791POPC   PO451012  28.467  16.378   5.479
 3791POPC   GL151013  28.093  16.500   5.766
 3791POPC   GL251014  28.235  16.762   6.001
 3791POPC   C1A51015  27.961  16.387   6.209
 3791POPC   D2A51016  28.184  16.279   6.592
 3791POPC   C3A51017  28.073  16.374   7.034
 3791POPC   C4A51018  28.341  16.640   7.291
 3791POPC   C1B51019  28.306  17.049   6.385
 3791POPC   C2B51020  28.435  17.035   6.834
 3791POPC   C3B51021  28.497  17.121   7.287
 3791POPC   C4B51022  28.220  17.022   7.637
 3792POPC   NC351023   8.078  31.185   5.206
 3792POPC   PO451024   8.157  31.783   5.392
 3792POPC   GL151025   8.101  31.470   5.728
 3792POPC   GL251026   8.090  31.110   5.759
 3792POPC   C1A51027   8.221  31.377   6.173
 3792POPC   D2A51028   8.079  31.617   6.521
 3792POPC   C3A51029   8.285  31.545   6.921
 3792POPC   C4A51030   8.122  31.473   7.322
 3792POPC   C1B51031   7.888  30.969   6.139
 3792POPC   C2B51032   7.914  31.130   6.537
 3792POPC   C3B51033   8.020  31.111   6.950
 3792POPC   C4B51034   8.233  30.972   7.298
 3793POPC   NC351035  35.528   0.212   5.405
 3793POPC   PO451036  35.072   0.728   5.504
 3793POPC   GL151037  35.287   0.592   5.886
 3793POPC   GL251038  35.504   0.299   5.890
 3793POPC   C1A51039  35.477   0.728   6.320
 3793POPC   D2A51040  35.768   0.683   6.684
 3793POPC   C3A51041  35.511   0.779   7.046
 3793POPC   C4A51042  35.124   0.605   7.204
 3793POPC   C1B51043  35.245   0.254   6.260
 3793POPC   C2B51044  34.976   0.320   6.599
 3793POPC   C3B51045  35.037   0.171   6.974
 3793POPC   C4B51046  35.239   0.138   7.385
 3794POPC   NC351047   7.276   1.645   5.368
 3794POPC   PO451048   7.627   2.262   5.399
 3794POPC   GL151049   7.470   2.051   5.786
 3794POPC   GL251050   7.406   1.690   5.849
 3794POPC   C1A51051   7.641   2.028   6.210
 3794POPC   D2A51052   7.631   1.810   6.629
 3794POPC   C3A51053   7.765   2.040   6.997
 3794POPC   C4A51054   7.634   2.120   7.425
 3794POPC   C1B51055   7.241   1.731   6.259
 3794POPC   C2B51056   7.144   1.649   6.695
 3794POPC   C3B51057   7.132   1.879   7.076
 3794POPC   C4B51058   6.986   1.732   7.463
 3795POPC   NC351059  32.526   5.788   5.538
 3795POPC   PO451060  33.199   5.935   5.604
 3795POPC   GL151061  33.238   5.671   5.943
 3795POPC   GL251062  32.911   5.781   6.050
 3795POPC   C1A51063  33.419   5.730   6.337
 3795POPC   D2A51064  33.434   6.011   6.654
 3795POPC   C3A51065  33.127   5.910   6.943
 3795POPC   C4A51066  33.058   5.605   7.243
 3795POPC   C1B51067  33.082   6.148   6.258
 3795POPC   C2B51068  32.898   6.320   6.620
 3795POPC   C3B51069  32.695   6.156   6.968
 3795POPC   C4B51070  32.932   6.260   7.313
 3796POPC   NC351071  29.470   7.387   5.220
 3796POPC   PO451072  28.940   7.030   5.115
 3796POPC   GL151073  29.112   7.264   5.564
 3796POPC   GL251074  29.320   7.599   5.674
 3796POPC   C1A51075  29.014   7.358   6.023
 3796POPC   D2A51076  29.174   7.387   6.456
 3796POPC   C3A51077  28.913   7.432   6.836
 3796POPC   C4A51078  29.076   7.161   7.185
 3796POPC   C1B51079  29.374   7.727   6.121
 3796POPC   C2B51080  29.623   7.681   6.519
 3796POPC   C3B51081  29.568   7.823   6.940
 3796POPC   C4B51082  29.241   7.641   7.154
 3797POPC   NC351083   1.680   5.372   5.217
 3797POPC   PO451084   1.194   4.931   5.349
 3797POPC   GL151085   1.286   5.271   5.650
 3797POPC   GL251086   1.401   5.032   5.863
 3797POPC   C1A51087   1.041   5.343   6.048
 3797POPC   D2A51088   1.098   5.123   6.460
 3797POPC   C3A51089   1.190   5.328   6.871
 3797POPC   C4A51090   1.300   5.103   7.238
 3797POPC   C1B51091   1.611   4.673   6.013
 3797POPC   C2B51092   1.460   4.577   6.426
 3797POPC   C3B51093   1.411   4.842   6.782
 3797POPC   C4B51094   1.734   4.801   7.105
 3798POPC   NC351095  35.745  18.355   5.470
 3798POPC   PO451096  36.366  18.720   5.295
 3798POPC   GL151097  36.269  18.427   5.629
 3798POPC   GL251098  36.055  18.569   5.795
 3798POPC   C1A51099  36.300  18.222   6.058
 3798POPC   D2A51100  36.458  18.400   6.437
 3798POPC   C3A51101  36.407  18.243   6.834
 3798POPC   C4A51102  36.167  18.196   7.217
 3798POPC   C1B51103  36.074  18.712   6.173
 3798POPC   C2B51104  35.866  18.628   6.521
 3798POPC   C3B51105  36.062  18.615   6.869
 3798POPC   C4B51106  35.942  18.660   7.242
 3799POPC   NC351107  32.202  31.762   5.430
 3799POPC   PO451108  32.227  32.466   5.399
 3799POPC   GL151109  32.352  32.379   5.819
 3799POPC   GL251110  32.450  32.043   5.811
 3799POPC   C1A51111  32.424  32.280   6.266
 3799POPC   D2A51112  32.217  32.424   6.640
 3799POPC   C3A51113  32.404  32.269   7.040
 3799POPC   C4A51114  32.420  32.269   7.512
 3799POPC   C1B51115  32.180  31.853   6.105
 3799POPC   C2B51116  32.239  31.885   6.552
 3799POPC   C3B51117  32.111  31.829   6.965
 3799POPC   C4B51118  32.302  31.819   7.337
 3800POPC   NC351119  39.997  35.773   5.462
 3800POPC   PO451120  40.128  35.050   5.433
 3800POPC   GL151121  40.011  35.096   5.844
 3800POPC   GL251122  39.831  35.382   5.756
 3800POPC   C1A51123  40.085  35.346   6.223
 3800POPC   D2A51124  40.046  35.257   6.667
 3800POPC   C3A51125  40.009  35.530   7.015
 3800POPC   C4A51126  39.973  35.398   7.479
 3800POPC   C1B51127  39.630  35.582   6.105
 3800POPC   C2B51128  39.646  35.591   6.553
 3800POPC   C3B51129  39.517  35.400   6.925
 3800POPC   C4B51130  39.608  35.667   7.276
 3801POPC   NC351131  19.242  21.458   5.180
 3801POPC   PO451132  18.697  21.702   5.507
 3801POPC   GL151133  19.064  21.571   5.760
 3801POPC   GL251134  19.029  21.197   5.837
 3801POPC   C1A51135  19.158  21.505   6.218
 3801POPC   D2A51136  18.847  21.408   6.548
 3801POPC   C3A51137  18.998  21.373   6.960
 3801POPC   C4A51138  19.106  21.591   7.327
 3801POPC   C1B51139  18.796  20.986   6.231
 3801POPC   C2B51140  18.760  20.917   6.726
 3801POPC   C3B51141  18.738  20.996   7.203
 3801POPC   C4B51142  18.828  21.223   7.611
 3802POPC   NC351143   6.383  39.372   5.348
 3802POPC   PO451144   7.005  39.137   5.336
 3802POPC   GL151145   6.707  39.151   5.693
 3802POPC   GL251146   6.705  39.470   5.799
 3802POPC   C1A51147   6.647  39.105   6.150
 3802POPC   D2A51148   6.869  39.296   6.500
 3802POPC   C3A51149   6.730  39.199   6.923
 3802POPC   C4A51150   7.076  39.317   7.193
 3802POPC   C1B51151   6.533  39.577   6.186
 3802POPC   C2B51152   6.360  39.331   6.522
 3802POPC   C3B51153   6.185  39.353   6.911
 3802POPC   C4B51154   6.237  39.113   7.234
 3803POPC   NC351155  12.006  10.939   5.502
 3803POPC   PO451156  11.650  10.380   5.308
 3803POPC   GL151157  11.928  10.467   5.734
 3803POPC   GL251158  11.776  10.725   5.909
 3803POPC   C1A51159  12.216  10.516   6.123
 3803POPC   D2A51160  12.073  10.636   6.555
 3803POPC   C3A51161  12.223  10.501   7.001
 3803POPC   C4A51162  12.261  10.563   7.518
 3803POPC   C1B51163  11.995  10.994   6.162
 3803POPC   C2B51164  11.923  11.113   6.555
 3803POPC   C3B51165  11.848  10.890   6.938
 3803POPC   C4B51166  11.827  10.596   7.274
 3804POPC   NC351167  13.082  26.803   5.228
 3804POPC   PO451168  12.592  26.292   5.489
 3804POPC   GL151169  12.812  26.533   5.901
 3804POPC   GL251170  12.943  26.907   5.861
 3804POPC   C1A51171  12.801  26.671   6.318
 3804POPC   D2A51172  12.905  26.506   6.708
 3804POPC   C3A51173  12.683  26.738   7.030
 3804POPC   C4A51174  12.574  27.199   7.096
 3804POPC   C1B51175  13.202  26.995   6.221
 3804POPC   C2B51176  13.016  27.044   6.625
 3804POPC   C3B51177  13.066  27.051   7.050
 3804POPC   C4B51178  13.223  27.275   7.377
 3805POPC   NC351179  35.674  33.965   5.346
 3805POPC   PO451180  35.188  33.630   5.117
 3805POPC   GL151181  35.346  33.798   5.659
 3805POPC   GL251182  35.664  33.690   5.817
 3805POPC   C1A51183  35.276  33.683   6.152
 3805POPC   D2A51184  35.340  33.854   6.602
 3805POPC   C3A51185  35.162  33.869   7.065
 3805POPC   C4A51186  35.372  33.768   7.441
 3805POPC   C1B51187  35.736  33.929   6.197
 3805POPC   C2B51188  35.816  34.061   6.630
 3805POPC   C3B51189  35.672  33.834   7.018
 3805POPC   C4B51190  35.870  33.742   7.419
 3806POPC   NC351191  20.892  18.062   5.009
 3806POPC   PO451192  20.336  18.053   5.374
 3806POPC   GL151193  20.556  18.236   5.733
 3806POPC   GL251194  20.431  18.570   5.782
 3806POPC   C1A51195  20.703  18.354   6.170
 3806POPC   D2A51196  20.561  18.372   6.598
 3806POPC   C3A51197  20.834  18.358   6.974
 3806POPC   C4A51198  20.748  18.155   7.391
 3806POPC   C1B51199  20.410  18.773   6.229
 3806POPC   C2B51200  20.421  18.856   6.684
 3806POPC   C3B51201  20.336  18.576   7.022
 3806POPC   C4B51202  20.620  18.642   7.325
 3807POPC   NC351203  14.602  13.207   5.290
 3807POPC   PO451204  14.138  12.647   5.163
 3807POPC   GL151205  14.197  12.605   5.640
 3807POPC   GL251206  14.276  12.967   5.684
 3807POPC   C1A51207  14.208  12.581   6.159
 3807POPC   D2A51208  14.329  12.812   6.574
 3807POPC   C3A51209  14.529  12.820   7.018
 3807POPC   C4A51210  14.532  12.776   7.503
 3807POPC   C1B51211  14.469  13.023   6.099
 3807POPC   C2B51212  14.759  13.105   6.453
 3807POPC   C3B51213  14.742  13.280   6.878
 3807POPC   C4B51214  14.847  13.154   7.284
 3808POPC   NC351215  19.452  17.473   5.208
 3808POPC   PO451216  18.853  17.446   5.528
 3808POPC   GL151217  19.034  17.495   5.935
 3808POPC   GL251218  19.359  17.619   5.809
 3808POPC   C1A51219  18.949  17.438   6.352
 3808POPC   D2A51220  18.759  17.662   6.633
 3808POPC   C3A51221  18.892  17.503   6.982
 3808POPC   C4A51222  18.787  17.382   7.343
 3808POPC   C1B51223  19.427  17.666   6.270
 3808POPC   C2B51224  19.276  17.697   6.709
 3808POPC   C3B51225  19.341  17.638   7.178
 3808POPC   C4B51226  19.556  17.397   7.500
 3809POPC   NC351227  26.487  19.662   5.635
 3809POPC   PO451228  26.893  19.878   5.146
 3809POPC   GL151229  26.909  19.957   5.617
 3809POPC   GL251230  26.987  19.624   5.796
 3809POPC   C1A51231  26.781  20.012   6.096
 3809POPC   D2A51232  26.962  19.778   6.436
 3809POPC   C3A51233  26.753  19.741   6.861
 3809POPC   C4A51234  26.686  20.016   7.226
 3809POPC   C1B51235  27.277  19.934   6.008
 3809POPC   C2B51236  27.401  20.041   6.439
 3809POPC   C3B51237  27.188  20.016   6.834
 3809POPC   C4B51238  27.127  19.797   7.225
 3810POPC   NC351239  38.713  24.604   5.335
 3810POPC   PO451240  38.233  24.161   5.521
 3810POPC   GL151241  38.398  24.516   5.767
 3810POPC   GL251242  38.244  24.870   5.781
 3810POPC   C1A51243  38.258  24.573   6.217
 3810POPC   D2A51244  38.298  24.391   6.645
 3810POPC   C3A51245  38.141  24.624   7.015
 3810POPC   C4A51246  38.144  24.605   7.513
 3810POPC   C1B51247  38.622  24.915   6.077
 3810POPC   C2B51248  38.732  25.079   6.512
 3810POPC   C3B51249  38.621  24.852   6.906
 3810POPC   C4B51250  38.785  24.686   7.306
 3811POPC   NC351251  20.680   6.353   5.356
 3811POPC   PO451252  20.544   7.018   5.294
 3811POPC   GL151253  20.597   6.798   5.672
 3811POPC   GL251254  20.954   6.900   5.686
 3811POPC   C1A51255  20.713   6.555   6.047
 3811POPC   D2A51256  20.517   6.375   6.418
 3811POPC   C3A51257  20.484   6.479   6.849
 3811POPC   C4A51258  20.700   6.560   7.216
 3811POPC   C1B51259  20.827   7.041   6.098
 3811POPC   C2B51260  20.972   6.970   6.483
 3811POPC   C3B51261  20.785   6.942   6.883
 3811POPC   C4B51262  20.874   7.104   7.288
 3812POPC   NC351263  29.322   0.264   5.323
 3812POPC   PO451264  28.874   0.796   5.183
 3812POPC   GL151265  28.871   0.638   5.631
 3812POPC   GL251266  29.076   0.353   5.747
 3812POPC   C1A51267  28.903   0.652   6.107
 3812POPC   D2A51268  29.162   0.701   6.479
 3812POPC   C3A51269  29.032   0.497   6.852
 3812POPC   C4A51270  28.844   0.381   7.251
 3812POPC   C1B51271  29.355   0.351   6.101
 3812POPC   C2B51272  29.390   0.238   6.500
 3812POPC   C3B51273  29.509   0.272   6.889
 3812POPC   C4B51274  29.348   0.345   7.254
 3813POPC   NC351275  22.663  15.070   5.298
 3813POPC   PO451276  23.189  15.236   5.678
 3813POPC   GL151277  22.880  15.469   5.841
 3813POPC   GL251278  22.646  15.550   5.563
 3813POPC   C1A51279  22.744  15.267   6.211
 3813POPC   D2A51280  22.858  15.183   6.644
 3813POPC   C3A51281  22.679  14.951   6.989
 3813POPC   C4A51282  22.988  15.142   7.236
 3813POPC   C1B51283  22.386  15.592   5.943
 3813POPC   C2B51284  22.422  15.605   6.399
 3813POPC   C3B51285  22.736  15.670   6.737
 3813POPC   C4B51286  22.661  15.516   7.167
 3814POPC   NC351287  36.598  38.659   5.075
 3814POPC   PO451288  36.172  38.216   5.275
 3814POPC   GL151289  36.019  38.417   5.705
 3814POPC   GL251290  36.270  38.389   5.875
 3814POPC   C1A51291  35.928  38.396   6.226
 3814POPC   D2A51292  35.974  38.226   6.676
 3814POPC   C3A51293  35.825  38.421   7.104
 3814POPC   C4A51294  35.816  38.295   7.582
 3814POPC   C1B51295  36.379  38.661   6.258
 3814POPC   C2B51296  36.517  38.535   6.637
 3814POPC   C3B51297  36.333  38.402   6.986
 3814POPC   C4B51298  36.233  38.549   7.385
 3815POPC   NC351299  11.883   0.328   5.194
 3815POPC   PO451300  12.085   1.036   5.173
 3815POPC   GL151301  11.995   0.708   5.526
 3815POPC   GL251302  12.204   0.419   5.606
 3815POPC   C1A51303  11.872   0.621   5.966
 3815POPC   D2A51304  11.944   0.569   6.433
 3815POPC   C3A51305  11.720   0.478   6.820
 3815POPC   C4A51306  11.925   0.495   7.223
 3815POPC   C1B51307  12.310   0.370   6.041
 3815POPC   C2B51308  12.443   0.437   6.466
 3815POPC   C3B51309  12.256   0.362   6.853
 3815POPC   C4B51310  12.391   0.296   7.272
 3816POPC   NC351311  43.825   8.505   5.487
 3816POPC   PO451312  44.157   7.970   5.484
 3816POPC   GL151313  44.040   8.198   5.863
 3816POPC   GL251314  43.671   8.213   5.891
 3816POPC   C1A51315  44.107   8.258   6.316
 3816POPC   D2A51316  44.329   8.307   6.696
 3816POPC   C3A51317  44.180   8.228   7.119
 3816POPC   C4A51318  43.956   8.076   7.494
 3816POPC   C1B51319  43.603   8.179   6.343
 3816POPC   C2B51320  43.791   8.320   6.741
 3816POPC   C3B51321  43.631   8.344   7.181
 3816POPC   C4B51322  43.558   8.387   7.633
 3817POPC   NC351323  31.386  44.196   5.242
 3817POPC   PO451324  32.001  44.218   5.507
 3817POPC   GL151325  31.696  43.879   5.588
 3817POPC   GL251326  31.846  43.608   5.802
 3817POPC   C1A51327  31.411  43.839   5.966
 3817POPC   D2A51328  31.405  44.067   6.361
 3817POPC   C3A51329  31.116  43.992   6.704
 3817POPC   C4A51330  31.229  44.002   7.122
 3817POPC   C1B51331  31.867  43.797   6.228
 3817POPC   C2B51332  31.721  43.814   6.669
 3817POPC   C3B51333  31.763  43.943   7.084
 3817POPC   C4B51334  31.823  43.714   7.478
 3818POPC   NC351335  42.848  41.925   5.386
 3818POPC   PO451336  43.039  42.582   5.389
 3818POPC   GL151337  43.057  42.513   5.807
 3818POPC   GL251338  43.111  42.161   5.774
 3818POPC   C1A51339  43.258  42.637   6.234
 3818POPC   D2A51340  43.466  42.522   6.649
 3818POPC   C3A51341  43.177  42.367   6.984
 3818POPC   C4A51342  42.751  42.516   7.084
 3818POPC   C1B51343  42.994  42.185   6.205
 3818POPC   C2B51344  42.791  42.304   6.591
 3818POPC   C3B51345  42.759  42.017   6.929
 3818POPC   C4B51346  42.703  41.774   7.283
 3819POPC   NC351347   4.615  38.962   5.462
 3819POPC   PO451348   4.286  39.526   5.493
 3819POPC   GL151349   4.243  39.234   5.820
 3819POPC   GL251350   3.984  39.450   5.938
 3819POPC   C1A51351   4.465  39.005   6.191
 3819POPC   D2A51352   4.330  38.833   6.614
 3819POPC   C3A51353   4.548  39.028   6.937
 3819POPC   C4A51354   4.522  39.169   7.362
 3819POPC   C1B51355   4.002  39.196   6.323
 3819POPC   C2B51356   3.919  39.120   6.765
 3819POPC   C3B51357   4.100  39.281   7.110
 3819POPC   C4B51358   4.068  39.298   7.606
 3820POPC   NC351359  39.411  22.280   5.138
 3820POPC   PO451360  39.348  21.877   5.676
 3820POPC   GL151361  39.094  22.000   5.996
 3820POPC   GL251362  39.098  22.323   5.867
 3820POPC   C1A51363  39.068  21.983   6.444
 3820POPC   D2A51364  39.431  21.866   6.701
 3820POPC   C3A51365  39.365  21.953   7.114
 3820POPC   C4A51366  39.067  22.030   7.407
 3820POPC   C1B51367  39.304  22.403   6.291
 3820POPC   C2B51368  39.265  22.355   6.759
 3820POPC   C3B51369  39.268  22.452   7.186
 3820POPC   C4B51370  39.506  22.723   7.497
 3821POPC   NC351371   1.531   6.115   5.446
 3821POPC   PO451372   1.132   5.615   5.239
 3821POPC   GL151373   1.137   5.772   5.683
 3821POPC   GL251374   1.462   5.796   5.832
 3821POPC   C1A51375   1.074   5.838   6.169
 3821POPC   D2A51376   1.347   5.744   6.556
 3821POPC   C3A51377   1.229   5.888   6.996
 3821POPC   C4A51378   1.047   5.602   7.321
 3821POPC   C1B51379   1.507   6.089   6.191
 3821POPC   C2B51380   1.621   6.244   6.619
 3821POPC   C3B51381   1.530   6.346   7.033
 3821POPC   C4B51382   1.398   6.224   7.432
 3822POPC   NC351383  13.393  42.119   5.440
 3822POPC   PO451384  13.911  42.632   5.364
 3822POPC   GL151385  13.724  42.425   5.751
 3822POPC   GL251386  13.363  42.462   5.808
 3822POPC   C1A51387  13.868  42.262   6.151
 3822POPC   D2A51388  13.832  42.047   6.548
 3822POPC   C3A51389  13.721  42.237   6.922
 3822POPC   C4A51390  13.742  42.110   7.328
 3822POPC   C1B51391  13.360  42.205   6.162
 3822POPC   C2B51392  13.296  42.284   6.588
 3822POPC   C3B51393  13.247  42.085   6.969
 3822POPC   C4B51394  13.278  42.260   7.328
 3823POPC   NC351395   9.958  11.545   5.431
 3823POPC   PO451396  10.006  10.831   5.420
 3823POPC   GL151397   9.948  11.140   5.783
 3823POPC   GL251398   9.629  11.372   5.820
 3823POPC   C1A51399   9.798  11.141   6.249
 3823POPC   D2A51400   9.606  11.041   6.669
 3823POPC   C3A51401   9.813  11.203   7.059
 3823POPC   C4A51402   9.635  11.227   7.511
 3823POPC   C1B51403   9.564  11.581   6.241
 3823POPC   C2B51404   9.655  11.560   6.706
 3823POPC   C3B51405   9.462  11.554   7.140
 3823POPC   C4B51406   9.687  11.771   7.475
 3824POPC   NC351407  12.104  39.013   5.355
 3824POPC   PO451408  12.314  39.540   5.601
 3824POPC   GL151409  12.067  39.254   5.880
 3824POPC   GL251410  11.722  39.175   5.732
 3824POPC   C1A51411  12.063  39.217   6.352
 3824POPC   D2A51412  11.985  39.443   6.738
 3824POPC   C3A51413  12.250  39.372   7.094
 3824POPC   C4A51414  12.130  39.266   7.500
 3824POPC   C1B51415  11.671  38.966   6.127
 3824POPC   C2B51416  11.837  38.800   6.546
 3824POPC   C3B51417  12.029  38.885   6.972
 3824POPC   C4B51418  11.816  38.861   7.392
 3825POPC   NC351419   9.035  29.879   5.410
 3825POPC   PO451420   8.500  29.459   5.347
 3825POPC   GL151421   8.730  29.570   5.796
 3825POPC   GL251422   9.034  29.746   5.902
 3825POPC   C1A51423   8.722  29.765   6.260
 3825POPC   D2A51424   8.763  29.975   6.638
 3825POPC   C3A51425   8.951  29.805   7.026
 3825POPC   C4A51426   8.875  29.779   7.468
 3825POPC   C1B51427   9.200  29.976   6.333
 3825POPC   C2B51428   9.188  30.221   6.756
 3825POPC   C3B51429   9.177  30.228   7.230
 3825POPC   C4B51430   9.198  30.148   7.721
 3826POPC   NC351431  10.928  43.172   5.458
 3826POPC   PO451432  11.512  42.922   5.617
 3826POPC   GL151433  11.158  42.953   5.868
 3826POPC   GL251434  10.972  42.682   5.730
 3826POPC   C1A51435  11.137  43.075   6.325
 3826POPC   D2A51436  11.432  43.220   6.645
 3826POPC   C3A51437  11.347  43.211   7.087
 3826POPC   C4A51438  11.665  43.157   7.404
 3826POPC   C1B51439  11.015  42.597   6.184
 3826POPC   C2B51440  10.881  42.668   6.626
 3826POPC   C3B51441  10.981  42.758   7.082
 3826POPC   C4B51442  10.857  42.798   7.542
 3827POPC   NC351443  41.593  32.392   5.348
 3827POPC   PO451444  41.959  31.787   5.383
 3827POPC   GL151445  41.699  32.060   5.726
 3827POPC   GL251446  41.771  32.409   5.833
 3827POPC   C1A51447  41.676  32.002   6.191
 3827POPC   D2A51448  41.496  32.154   6.606
 3827POPC   C3A51449  41.771  32.168   6.985
 3827POPC   C4A51450  41.986  32.325   7.364
 3827POPC   C1B51451  41.483  32.589   6.132
 3827POPC   C2B51452  41.386  32.726   6.554
 3827POPC   C3B51453  41.518  32.630   6.988
 3827POPC   C4B51454  41.474  32.428   7.396
 3828POPC   NC351455  29.465  34.532   5.261
 3828POPC   PO451456  30.068  34.372   5.257
 3828POPC   GL151457  29.917  34.386   5.737
 3828POPC   GL251458  30.199  34.421   5.989
 3828POPC   C1A51459  29.756  34.428   6.219
 3828POPC   D2A51460  29.819  34.573   6.666
 3828POPC   C3A51461  30.006  34.322   7.020
 3828POPC   C4A51462  30.185  34.277   7.454
 3828POPC   C1B51463  30.123  34.797   6.280
 3828POPC   C2B51464  30.073  35.023   6.689
 3828POPC   C3B51465  30.129  34.844   7.121
 3828POPC   C4B51466  30.273  34.773   7.574
 3829POPC   NC351467  36.341  33.608   5.390
 3829POPC   PO451468  36.072  34.221   5.408
 3829POPC   GL151469  36.145  33.942   5.799
 3829POPC   GL251470  36.397  33.657   5.897
 3829POPC   C1A51471  36.258  34.000   6.257
 3829POPC   D2A51472  36.523  34.107   6.630
 3829POPC   C3A51473  36.242  34.020   6.990
 3829POPC   C4A51474  35.897  34.276   7.100
 3829POPC   C1B51475  36.045  33.530   6.184
 3829POPC   C2B51476  35.798  33.553   6.593
 3829POPC   C3B51477  36.055  33.508   6.970
 3829POPC   C4B51478  36.395  33.244   6.915
 3830POPC   NC351479   2.410  11.181   5.576
 3830POPC   PO451480   3.053  10.986   5.387
 3830POPC   GL151481   2.954  11.249   5.787
 3830POPC   GL251482   3.204  11.507   5.853
 3830POPC   C1A51483   2.709  11.326   6.203
 3830POPC   D2A51484   2.554  11.205   6.629
 3830POPC   C3A51485   2.619  11.445   7.023
 3830POPC   C4A51486   2.692  11.866   7.242
 3830POPC   C1B51487   3.236  11.311   6.236
 3830POPC   C2B51488   3.197  11.056   6.570
 3830POPC   C3B51489   3.283  11.234   6.942
 3830POPC   C4B51490   3.044  11.297   7.307
 3831POPC   NC351491  17.932  20.644   5.086
 3831POPC   PO451492  18.465  20.457   5.298
 3831POPC   GL151493  18.210  20.650   5.628
 3831POPC   GL251494  18.104  20.368   5.837
 3831POPC   C1A51495  18.200  20.787   6.090
 3831POPC   D2A51496  18.010  20.822   6.527
 3831POPC   C3A51497  18.280  20.717   6.849
 3831POPC   C4A51498  18.302  20.704   7.270
 3831POPC   C1B51499  18.248  20.164   6.187
 3831POPC   C2B51500  18.463  20.040   6.555
 3831POPC   C3B51501  18.304  20.145   6.986
 3831POPC   C4B51502  17.991  20.290   7.258
 3832POPC   NC351503  17.872  44.359   5.502
 3832POPC   PO451504  17.358  43.825   5.478
 3832POPC   GL151505  17.505  43.658   5.873
 3832POPC   GL251506  17.856  43.614   5.918
 3832POPC   C1A51507  17.361  43.807   6.258
 3832POPC   D2A51508  17.433  44.170   6.504
 3832POPC   C3A51509  17.582  43.979   6.878
 3832POPC   C4A51510  17.369  43.928   7.281
 3832POPC   C1B51511  17.707  43.423   6.312
 3832POPC   C2B51512  17.638  43.446   6.768
 3832POPC   C3B51513  17.703  43.545   7.213
 3832POPC   C4B51514  17.548  43.573   7.683
 3833POPC   NC351515  20.463  44.305   5.351
 3833POPC   PO451516  20.344  44.822   5.761
 3833POPC   GL151517  20.313  44.466   5.929
 3833POPC   GL251518  20.678  44.428   5.839
 3833POPC   C1A51519  20.239  44.550   6.374
 3833POPC   D2A51520  20.196  44.749   6.772
 3833POPC   C3A51521  20.508  44.659   7.100
 3833POPC   C4A51522  20.542  44.348   7.412
 3833POPC   C1B51523  20.739  44.502   6.265
 3833POPC   C2B51524  20.635  44.353   6.682
 3833POPC   C3B51525  20.910  44.328   7.056
 3833POPC   C4B51526  21.020  44.556   7.456
 3834POPC   NC351527  38.786  36.884   5.474
 3834POPC   PO451528  39.421  36.859   5.314
 3834POPC   GL151529  39.227  36.869   5.763
 3834POPC   GL251530  39.097  37.189   5.767
 3834POPC   C1A51531  39.331  36.743   6.222
 3834POPC   D2A51532  39.292  36.482   6.639
 3834POPC   C3A51533  39.189  36.672   7.062
 3834POPC   C4A51534  39.023  36.697   7.492
 3834POPC   C1B51535  39.049  37.168   6.220
 3834POPC   C2B51536  38.970  36.888   6.573
 3834POPC   C3B51537  38.755  37.042   6.922
 3834POPC   C4B51538  39.029  37.170   7.232
 3835POPC   NC351539  21.270  41.786   5.372
 3835POPC   PO451540  21.939  41.586   5.313
 3835POPC   GL151541  21.640  41.526   5.675
 3835POPC   GL251542  21.578  41.881   5.797
 3835POPC   C1A51543  21.366  41.513   6.078
 3835POPC   D2A51544  21.494  41.427   6.529
 3835POPC   C3A51545  21.294  41.560   6.933
 3835POPC   C4A51546  21.153  41.306   7.290
 3835POPC   C1B51547  21.724  41.867   6.261
 3835POPC   C2B51548  21.796  41.999   6.708
 3835POPC   C3B51549  21.714  41.858   7.133
 3835POPC   C4B51550  21.444  41.720   7.433
 3836POPC   NC351551  18.711   3.908   5.577
 3836POPC   PO451552  19.214   4.317   5.361
 3836POPC   GL151553  19.043   4.278   5.758
 3836POPC   GL251554  18.694   4.423   5.786
 3836POPC   C1A51555  19.087   4.502   6.136
 3836POPC   D2A51556  18.826   4.560   6.469
 3836POPC   C3A51557  18.924   4.387   6.865
 3836POPC   C4A51558  19.045   4.620   7.201
 3836POPC   C1B51559  18.689   4.154   6.174
 3836POPC   C2B51560  18.519   4.184   6.602
 3836POPC   C3B51561  18.621   3.975   7.005
 3836POPC   C4B51562  18.836   4.198   7.369
 3837POPC   NC351563   9.421   8.285   5.645
 3837POPC   PO451564   8.887   8.158   5.220
 3837POPC   GL151565   8.853   8.199   5.718
 3837POPC   GL251566   9.102   7.975   5.902
 3837POPC   C1A51567   8.675   8.045   6.163
 3837POPC   D2A51568   8.763   7.818   6.552
 3837POPC   C3A51569   8.732   8.075   6.934
 3837POPC   C4A51570   8.723   7.928   7.358
 3837POPC   C1B51571   9.080   8.359   6.206
 3837POPC   C2B51572   9.037   8.440   6.655
 3837POPC   C3B51573   9.201   8.321   7.069
 3837POPC   C4B51574   8.959   8.381   7.426
 3838POPC   NC351575  22.870  25.063   5.453
 3838POPC   PO451576  22.988  24.367   5.414
 3838POPC   GL151577  22.913  24.632   5.760
 3838POPC   GL251578  22.583  24.527   5.932
 3838POPC   C1A51579  22.886  24.872   6.132
 3838POPC   D2A51580  22.882  24.700   6.532
 3838POPC   C3A51581  22.901  24.854   6.924
 3838POPC   C4A51582  23.052  24.554   7.174
 3838POPC   C1B51583  22.940  24.318   6.189
 3838POPC   C2B51584  23.051  24.106   6.601
 3838POPC   C3B51585  22.986  24.062   7.063
 3838POPC   C4B51586  23.046  24.168   7.510
 3839POPC   NC351587  25.621  11.839   5.369
 3839POPC   PO451588  26.286  11.821   5.431
 3839POPC   GL151589  26.029  11.824   5.819
 3839POPC   GL251590  25.843  12.155   5.777
 3839POPC   C1A51591  26.198  11.757   6.266
 3839POPC   D2A51592  26.398  11.742   6.671
 3839POPC   C3A51593  26.218  12.023   6.983
 3839POPC   C4A51594  26.056  11.844   7.292
 3839POPC   C1B51595  26.012  12.227   6.210
 3839POPC   C2B51596  25.885  12.009   6.597
 3839POPC   C3B51597  25.712  12.148   6.985
 3839POPC   C4B51598  25.732  12.172   7.463
 3840POPC   NC351599  23.985  25.052   5.274
 3840POPC   PO451600  23.842  25.687   5.158
 3840POPC   GL151601  23.753  25.409   5.618
 3840POPC   GL251602  23.965  25.113   5.796
 3840POPC   C1A51603  23.659  25.337   6.099
 3840POPC   D2A51604  23.608  25.190   6.511
 3840POPC   C3A51605  23.560  25.512   6.829
 3840POPC   C4A51606  23.477  25.419   7.273
 3840POPC   C1B51607  24.072  25.094   6.256
 3840POPC   C2B51608  24.085  25.377   6.631
 3840POPC   C3B51609  23.966  25.352   7.083
 3840POPC   C4B51610  23.827  25.004   7.311
 3841POPC   NC351611  30.258  19.570   5.435
 3841POPC   PO451612  29.559  19.851   5.428
 3841POPC   GL151613  29.793  19.774   5.754
 3841POPC   GL251614  29.623  19.492   5.855
 3841POPC   C1A51615  29.853  20.016   6.138
 3841POPC   D2A51616  29.902  19.880   6.558
 3841POPC   C3A51617  29.557  19.847   6.833
 3841POPC   C4A51618  29.465  20.028   7.227
 3841POPC   C1B51619  29.980  19.522   6.149
 3841POPC   C2B51620  30.161  19.409   6.541
 3841POPC   C3B51621  30.037  19.531   6.940
 3841POPC   C4B51622  29.839  19.335   7.269
 3842POPC   NC351623  12.113  16.957   5.479
 3842POPC   PO451624  12.186  17.644   5.324
 3842POPC   GL151625  12.190  17.538   5.779
 3842POPC   GL251626  12.485  17.414   5.959
 3842POPC   C1A51627  12.104  17.728   6.201
 3842POPC   D2A51628  12.241  17.601   6.621
 3842POPC   C3A51629  12.022  17.534   7.030
 3842POPC   C4A51630  12.150  17.324   7.422
 3842POPC   C1B51631  12.176  17.219   6.248
 3842POPC   C2B51632  11.902  17.191   6.641
 3842POPC   C3B51633  11.818  17.057   7.085
 3842POPC   C4B51634  11.953  16.798   7.431
 3843POPC   NC351635  13.723  24.577   5.492
 3843POPC   PO451636  13.012  24.588   5.528
 3843POPC   GL151637  13.310  24.466   5.820
 3843POPC   GL251638  13.465  24.775   5.941
 3843POPC   C1A51639  13.553  24.326   6.180
 3843POPC   D2A51640  13.557  24.526   6.579
 3843POPC   C3A51641  13.601  24.274   6.935
 3843POPC   C4A51642  13.350  24.368   7.277
 3843POPC   C1B51643  13.858  24.761   6.190
 3843POPC   C2B51644  14.034  24.684   6.613
 3843POPC   C3B51645  13.899  24.746   7.048
 3843POPC   C4B51646  14.061  24.782   7.505
 3844POPC   NC351647   6.288  29.915   5.379
 3844POPC   PO451648   5.780  30.220   5.651
 3844POPC   GL151649   6.131  30.077   5.883
 3844POPC   GL251650   6.089  29.745   5.894
 3844POPC   C1A51651   6.129  30.072   6.341
 3844POPC   D2A51652   5.759  30.100   6.628
 3844POPC   C3A51653   5.858  30.032   7.055
 3844POPC   C4A51654   6.272  29.963   7.149
 3844POPC   C1B51655   5.725  29.775   6.195
 3844POPC   C2B51656   5.712  29.595   6.610
 3844POPC   C3B51657   5.546  29.631   6.995
 3844POPC   C4B51658   5.484  29.804   7.405
 3845POPC   NC351659  30.079  31.541   5.583
 3845POPC   PO451660  29.591  31.102   5.304
 3845POPC   GL151661  29.657  31.251   5.745
 3845POPC   GL251662  29.683  31.598   5.903
 3845POPC   C1A51663  29.674  31.198   6.203
 3845POPC   D2A51664  29.592  31.428   6.563
 3845POPC   C3A51665  29.921  31.481   6.821
 3845POPC   C4A51666  29.809  31.622   7.207
 3845POPC   C1B51667  29.982  31.614   6.252
 3845POPC   C2B51668  30.147  31.876   6.577
 3845POPC   C3B51669  30.196  31.935   7.041
 3845POPC   C4B51670  30.258  31.669   7.434
 3846POPC   NC351671  24.000  12.880   5.671
 3846POPC   PO451672  23.771  13.325   5.258
 3846POPC   GL151673  23.653  13.270   5.762
 3846POPC   GL251674  23.592  12.952   5.965
 3846POPC   C1A51675  23.841  13.282   6.232
 3846POPC   D2A51676  23.687  13.266   6.671
 3846POPC   C3A51677  23.981  13.173   6.999
 3846POPC   C4A51678  23.890  12.782   7.190
 3846POPC   C1B51679  23.610  12.674   6.341
 3846POPC   C2B51680  23.529  12.637   6.803
 3846POPC   C3B51681  23.415  12.566   7.237
 3846POPC   C4B51682  23.643  12.685   7.619
 3847POPC   NC351683  17.846   4.177   5.466
 3847POPC   PO451684  17.255   4.477   5.273
 3847POPC   GL151685  17.462   4.527   5.704
 3847POPC   GL251686  17.577   4.205   5.896
 3847POPC   C1A51687  17.371   4.598   6.147
 3847POPC   D2A51688  17.292   4.254   6.409
 3847POPC   C3A51689  17.263   4.341   6.841
 3847POPC   C4A51690  17.474   4.633   7.141
 3847POPC   C1B51691  17.845   4.194   6.262
 3847POPC   C2B51692  18.002   4.195   6.691
 3847POPC   C3B51693  17.698   4.178   7.033
 3847POPC   C4B51694  17.383   4.192   7.351
 3848POPC   NC351695  34.425  11.673   5.520
 3848POPC   PO451696  34.669  11.028   5.378
 3848POPC   GL151697  34.592  10.955   5.844
 3848POPC   GL251698  34.457  11.263   5.895
 3848POPC   C1A51699  34.767  11.100   6.277
 3848POPC   D2A51700  34.575  11.106   6.700
 3848POPC   C3A51701  34.835  11.225   7.096
 3848POPC   C4A51702  34.924  11.242   7.578
 3848POPC   C1B51703  34.402  11.462   6.297
 3848POPC   C2B51704  34.221  11.479   6.710
 3848POPC   C3B51705  34.349  11.360   7.097
 3848POPC   C4B51706  34.544  11.550   7.439
 3849POPC   NC351707  26.093  27.965   5.405
 3849POPC   PO451708  25.519  27.889   5.738
 3849POPC   GL151709  25.854  27.586   5.900
 3849POPC   GL251710  25.848  27.192   5.881
 3849POPC   C1A51711  26.214  27.585   6.188
 3849POPC   D2A51712  26.405  27.338   6.541
 3849POPC   C3A51713  26.341  27.459   6.971
 3849POPC   C4A51714  26.099  27.728   7.217
 3849POPC   C1B51715  25.880  27.252   6.347
 3849POPC   C2B51716  25.899  27.490   6.724
 3849POPC   C3B51717  25.855  27.273   7.092
 3849POPC   C4B51718  25.501  27.028   7.170
 3850POPC   NC351719   3.912   6.508   5.376
 3850POPC   PO451720   3.490   7.018   5.393
 3850POPC   GL151721   3.536   6.704   5.715
 3850POPC   GL251722   3.213   6.550   5.811
 3850POPC   C1A51723   3.687   6.437   6.065
 3850POPC   D2A51724   3.527   6.512   6.459
 3850POPC   C3A51725   3.741   6.557   6.882
 3850POPC   C4A51726   3.666   6.774   7.252
 3850POPC   C1B51727   3.179   6.187   6.095
 3850POPC   C2B51728   3.369   6.015   6.447
 3850POPC   C3B51729   3.394   6.185   6.806
 3850POPC   C4B51730   3.289   6.434   7.089
 3851POPC   NC351731  14.117  28.625   4.958
 3851POPC   PO451732  14.357  28.199   5.385
 3851POPC   GL151733  14.234  28.394   5.755
 3851POPC   GL251734  14.012  28.093   5.803
 3851POPC   C1A51735  14.367  28.581   6.134
 3851POPC   D2A51736  14.459  28.425   6.531
 3851POPC   C3A51737  14.481  28.699   6.840
 3851POPC   C4A51738  14.468  28.442   7.177
 3851POPC   C1B51739  14.184  28.102   6.201
 3851POPC   C2B51740  14.050  28.137   6.605
 3851POPC   C3B51741  14.246  28.016   6.979
 3851POPC   C4B51742  14.091  27.725   7.277
 3852POPC   NC351743  12.505   1.072   5.016
 3852POPC   PO451744  12.109   1.355   5.595
 3852POPC   GL151745  12.065   1.103   5.881
 3852POPC   GL251746  12.061   1.402   6.110
 3852POPC   C1A51747  12.261   0.888   6.195
 3852POPC   D2A51748  12.113   1.052   6.562
 3852POPC   C3A51749  12.151   0.885   6.956
 3852POPC   C4A51750  12.451   1.045   7.259
 3852POPC   C1B51751  11.713   1.614   6.318
 3852POPC   C2B51752  11.695   1.499   6.726
 3852POPC   C3B51753  12.095   1.432   6.900
 3852POPC   C4B51754  12.241   1.550   7.255
 3853POPC   NC351755  21.770  34.895   5.370
 3853POPC   PO451756  21.134  35.084   5.502
 3853POPC   GL151757  21.359  34.726   5.638
 3853POPC   GL251758  21.378  34.351   5.633
 3853POPC   C1A51759  21.392  34.607   6.069
 3853POPC   D2A51760  21.158  34.463   6.425
 3853POPC   C3A51761  21.327  34.716   6.742
 3853POPC   C4A51762  21.408  34.643   7.154
 3853POPC   C1B51763  21.454  34.103   6.024
 3853POPC   C2B51764  21.538  34.094   6.465
 3853POPC   C3B51765  21.367  34.204   6.871
 3853POPC   C4B51766  21.697  34.207   7.164
 3854POPC   NC351767  11.378   2.305   5.507
 3854POPC   PO451768  11.203   2.990   5.336
 3854POPC   GL151769  11.122   2.917   5.806
 3854POPC   GL251770  11.070   2.528   5.843
 3854POPC   C1A51771  11.120   3.099   6.264
 3854POPC   D2A51772  11.383   2.994   6.650
 3854POPC   C3A51773  11.353   3.041   7.114
 3854POPC   C4A51774  11.425   2.928   7.566
 3854POPC   C1B51775  11.335   2.604   6.197
 3854POPC   C2B51776  11.479   2.477   6.594
 3854POPC   C3B51777  11.419   2.520   7.032
 3854POPC   C4B51778  11.247   2.463   7.445
 3855POPC   NC351779  41.038  15.455   5.270
 3855POPC   PO451780  40.612  15.045   5.345
 3855POPC   GL151781  40.790  15.264   5.706
 3855POPC   GL251782  40.565  15.052   5.899
 3855POPC   C1A51783  40.829  15.382   6.168
 3855POPC   D2A51784  40.678  15.236   6.599
 3855POPC   C3A51785  40.922  15.366   6.982
 3855POPC   C4A51786  41.007  15.178   7.439
 3855POPC   C1B51787  40.401  14.877   6.303
 3855POPC   C2B51788  40.355  14.871   6.770
 3855POPC   C3B51789  40.636  15.001   7.142
 3855POPC   C4B51790  40.524  15.263   7.533
 3856POPC   NC351791  17.411  42.523   5.181
 3856POPC   PO451792  17.862  42.270   5.604
 3856POPC   GL151793  17.479  42.320   5.822
 3856POPC   GL251794  17.204  42.524   5.663
 3856POPC   C1A51795  17.556  42.289   6.241
 3856POPC   D2A51796  17.738  42.432   6.611
 3856POPC   C3A51797  17.554  42.244   6.961
 3856POPC   C4A51798  17.664  41.960   7.248
 3856POPC   C1B51799  17.312  42.749   6.055
 3856POPC   C2B51800  17.210  42.580   6.464
 3856POPC   C3B51801  17.295  42.669   6.847
 3856POPC   C4B51802  17.442  42.697   7.219
 3857POPC   NC351803  25.719  31.066   5.372
 3857POPC   PO451804  26.153  30.610   5.148
 3857POPC   GL151805  25.928  30.645   5.575
 3857POPC   GL251806  26.154  30.894   5.691
 3857POPC   C1A51807  25.694  30.729   5.999
 3857POPC   D2A51808  25.896  30.818   6.407
 3857POPC   C3A51809  25.833  30.881   6.846
 3857POPC   C4A51810  26.062  30.839   7.246
 3857POPC   C1B51811  26.199  30.607   6.053
 3857POPC   C2B51812  26.399  30.693   6.475
 3857POPC   C3B51813  26.392  30.605   6.917
 3857POPC   C4B51814  26.239  30.355   7.271
 3858POPC   NC351815   6.449  44.370   5.192
 3858POPC   PO451816   7.002  44.012   5.452
 3858POPC   GL151817   6.818  44.057   5.845
 3858POPC   GL251818   6.519  44.258   5.863
 3858POPC   C1A51819   6.659  43.922   6.245
 3858POPC   D2A51820   6.862  43.984   6.636
 3858POPC   C3A51821   6.693  43.722   6.958
 3858POPC   C4A51822   6.769  43.668   7.405
 3858POPC   C1B51823   6.549  44.406   6.342
 3858POPC   C2B51824   6.586  44.360   6.818
 3858POPC   C3B51825   6.742  44.171   7.200
 3858POPC   C4B51826   6.560  44.076   7.631
 3859POPC   NC351827  42.246  37.942   5.500
 3859POPC   PO451828  42.425  37.353   5.171
 3859POPC   GL151829  42.381  37.441   5.654
 3859POPC   GL251830  42.642  37.630   5.765
 3859POPC   C1A51831  42.219  37.525   6.126
 3859POPC   D2A51832  42.058  37.525   6.578
 3859POPC   C3A51833  42.293  37.682   6.941
 3859POPC   C4A51834  42.324  37.656   7.398
 3859POPC   C1B51835  42.716  37.402   6.148
 3859POPC   C2B51836  42.588  37.451   6.593
 3859POPC   C3B51837  42.618  37.319   7.033
 3859POPC   C4B51838  42.819  37.541   7.349
 3860POPC   NC351839  13.702  43.821   5.312
 3860POPC   PO451840  13.520  44.460   5.516
 3860POPC   GL151841  13.413  44.078   5.695
 3860POPC   GL251842  13.746  44.053   5.821
 3860POPC   C1A51843  13.408  43.798   6.087
 3860POPC   D2A51844  13.649  43.907   6.456
 3860POPC   C3A51845  13.509  43.913   6.857
 3860POPC   C4A51846  13.500  43.617   7.174
 3860POPC   C1B51847  13.963  43.770   6.074
 3860POPC   C2B51848  14.011  43.530   6.476
 3860POPC   C3B51849  13.947  43.579   6.913
 3860POPC   C4B51850  13.959  43.888   7.204
 3861POPC   NC351851   9.868  24.699   5.499
 3861POPC   PO451852   9.287  24.311   5.339
 3861POPC   GL151853   9.576  24.312   5.741
 3861POPC   GL251854   9.639  24.649   5.927
 3861POPC   C1A51855   9.679  24.186   6.187
 3861POPC   D2A51856   9.736  24.447   6.574
 3861POPC   C3A51857   9.866  24.271   6.951
 3861POPC   C4A51858   9.960  24.388   7.390
 3861POPC   C1B51859   9.660  24.891   6.289
 3861POPC   C2B51860   9.613  24.931   6.710
 3861POPC   C3B51861   9.633  24.732   7.094
 3861POPC   C4B51862  10.076  24.755   7.050
 3862POPC   NC351863   7.321  33.092   4.994
 3862POPC   PO451864   7.658  33.331   5.541
 3862POPC   GL151865   7.444  33.219   5.916
 3862POPC   GL251866   7.516  32.864   5.945
 3862POPC   C1A51867   7.437  33.157   6.372
 3862POPC   D2A51868   7.593  32.964   6.752
 3862POPC   C3A51869   7.362  33.148   7.093
 3862POPC   C4A51870   7.027  33.348   7.310
 3862POPC   C1B51871   7.130  32.769   6.208
 3862POPC   C2B51872   7.073  32.867   6.643
 3862POPC   C3B51873   7.162  32.690   7.025
 3862POPC   C4B51874   7.594  32.662   7.183
 3863POPC   NC351875  14.919   2.671   5.358
 3863POPC   PO451876  15.586   2.914   5.329
 3863POPC   GL151877  15.434   2.952   5.779
 3863POPC   GL251878  15.067   2.972   5.742
 3863POPC   C1A51879  15.267   2.612   6.093
 3863POPC   D2A51880  15.163   2.340   6.455
 3863POPC   C3A51881  15.174   2.565   6.845
 3863POPC   C4A51882  14.929   2.625   7.209
 3863POPC   C1B51883  15.035   3.068   6.156
 3863POPC   C2B51884  14.920   2.885   6.521
 3863POPC   C3B51885  14.952   3.049   6.931
 3863POPC   C4B51886  15.138   3.129   7.311
 3864POPC   NC351887  11.736   1.127   5.443
 3864POPC   PO451888  11.136   1.289   5.360
 3864POPC   GL151889  11.305   1.137   5.752
 3864POPC   GL251890  11.585   1.356   5.881
 3864POPC   C1A51891  11.179   1.020   6.149
 3864POPC   D2A51892  11.303   1.296   6.426
 3864POPC   C3A51893  11.233   1.256   6.849
 3864POPC   C4A51894  11.209   1.226   7.265
 3864POPC   C1B51895  11.705   1.056   6.226
 3864POPC   C2B51896  11.612   0.946   6.662
 3864POPC   C3B51897  11.702   1.114   7.073
 3864POPC   C4B51898  11.716   1.511   7.249
 3865POPC   NC351899  10.741   9.157   5.309
 3865POPC   PO451900  10.194   8.885   5.578
 3865POPC   GL151901  10.464   9.151   5.839
 3865POPC   GL251902  10.842   9.178   5.824
 3865POPC   C1A51903  10.580   9.335   6.238
 3865POPC   D2A51904  10.684   9.080   6.541
 3865POPC   C3A51905  10.757   9.148   6.925
 3865POPC   C4A51906  10.578   9.004   7.280
 3865POPC   C1B51907  10.784   8.802   6.128
 3865POPC   C2B51908  10.941   8.641   6.556
 3865POPC   C3B51909  10.796   8.597   7.002
 3865POPC   C4B51910  10.932   8.387   7.408
 3866POPC   NC351911  30.426   4.100   5.546
 3866POPC   PO451912  30.985   3.853   5.315
 3866POPC   GL151913  30.767   3.668   5.725
 3866POPC   GL251914  30.364   3.619   5.753
 3866POPC   C1A51915  30.889   3.619   6.182
 3866POPC   D2A51916  30.764   3.888   6.522
 3866POPC   C3A51917  30.699   3.752   6.916
 3866POPC   C4A51918  30.974   3.864   7.221
 3866POPC   C1B51919  30.377   3.535   6.204
 3866POPC   C2B51920  30.554   3.384   6.588
 3866POPC   C3B51921  30.489   3.297   7.024
 3866POPC   C4B51922  30.722   3.449   7.379
 3867POPC   NC351923  13.221   6.038   5.424
 3867POPC   PO451924  12.693   5.620   5.372
 3867POPC   GL151925  12.886   5.796   5.775
 3867POPC   GL251926  13.242   5.664   5.803
 3867POPC   C1A51927  12.761   6.006   6.199
 3867POPC   D2A51928  12.577   6.031   6.627
 3867POPC   C3A51929  12.810   6.059   6.985
 3867POPC   C4A51930  12.743   5.778   7.266
 3867POPC   C1B51931  13.041   5.561   6.204
 3867POPC   C2B51932  13.031   5.758   6.593
 3867POPC   C3B51933  13.146   5.579   6.978
 3867POPC   C4B51934  13.235   5.708   7.375
 3868POPC   NC351935  16.334  16.355   5.501
 3868POPC   PO451936  15.869  16.686   5.346
 3868POPC   GL151937  16.106  16.806   5.705
 3868POPC   GL251938  15.863  16.961   5.893
 3868POPC   C1A51939  16.171  16.620   6.118
 3868POPC   D2A51940  16.191  16.750   6.527
 3868POPC   C3A51941  15.899  16.631   6.799
 3868POPC   C4A51942  15.971  16.641   7.208
 3868POPC   C1B51943  15.716  16.833   6.289
 3868POPC   C2B51944  15.605  17.020   6.668
 3868POPC   C3B51945  15.565  16.949   7.124
 3868POPC   C4B51946  15.449  17.118   7.545
 3869POPC   NC351947  41.216  31.478   5.196
 3869POPC   PO451948  40.563  31.415   5.526
 3869POPC   GL151949  40.907  31.600   5.771
 3869POPC   GL251950  41.060  31.359   6.027
 3869POPC   C1A51951  40.859  31.797   6.187
 3869POPC   D2A51952  41.047  31.856   6.605
 3869POPC   C3A51953  40.752  31.863   6.953
 3869POPC   C4A51954  40.603  31.714   7.349
 3869POPC   C1B51955  40.686  31.293   6.290
 3869POPC   C2B51956  40.453  31.172   6.670
 3869POPC   C3B51957  40.699  31.314   7.022
 3869POPC   C4B51958  41.032  31.125   7.231
 3870POPC   NC351959  20.253  23.297   5.318
 3870POPC   PO451960  20.623  23.823   5.376
 3870POPC   GL151961  20.457  23.724   5.795
 3870POPC   GL251962  20.201  23.457   5.791
 3870POPC   C1A51963  20.644  23.718   6.225
 3870POPC   D2A51964  20.806  24.012   6.554
 3870POPC   C3A51965  20.896  23.835   6.964
 3870POPC   C4A51966  20.661  23.799   7.334
 3870POPC   C1B51967  20.161  23.580   6.231
 3870POPC   C2B51968  20.391  23.405   6.591
 3870POPC   C3B51969  20.530  23.394   7.020
 3870POPC   C4B51970  20.275  23.441   7.384
 3871POPC   NC351971  28.643   9.030   5.153
 3871POPC   PO451972  29.233   9.279   5.465
 3871POPC   GL151973  29.082   9.016   5.781
 3871POPC   GL251974  29.175   8.675   5.670
 3871POPC   C1A51975  28.978   9.108   6.226
 3871POPC   D2A51976  29.271   9.040   6.561
 3871POPC   C3A51977  29.151   8.924   6.963
 3871POPC   C4A51978  28.965   9.049   7.328
 3871POPC   C1B51979  29.055   8.617   6.116
 3871POPC   C2B51980  28.867   8.694   6.534
 3871POPC   C3B51981  28.856   8.497   6.941
 3871POPC   C4B51982  28.963   8.563   7.367
 3872POPC   NC351983  13.453   9.027   5.124
 3872POPC   PO451984  13.863   9.320   5.572
 3872POPC   GL151985  13.674   8.941   5.779
 3872POPC   GL251986  13.308   8.806   5.635
 3872POPC   C1A51987  13.718   8.949   6.241
 3872POPC   D2A51988  13.999   8.931   6.615
 3872POPC   C3A51989  13.910   9.120   7.005
 3872POPC   C4A51990  13.770   8.862   7.339
 3872POPC   C1B51991  13.199   8.852   6.075
 3872POPC   C2B51992  13.248   8.853   6.511
 3872POPC   C3B51993  13.468   8.866   6.888
 3872POPC   C4B51994  13.285   8.998   7.282
 3873POPC   NC351995  25.054  39.891   5.105
 3873POPC   PO451996  25.439  39.359   5.422
 3873POPC   GL151997  25.445  39.205   5.821
 3873POPC   GL251998  25.090  39.284   5.848
 3873POPC   C1A51999  25.401  39.178   6.262
 3873POPC   D2A52000  25.576  39.148   6.647
 3873POPC   C3A52001  25.315  39.237   6.985
 3873POPC   C4A52002  25.425  39.127   7.393
 3873POPC   C1B52003  25.146  39.602   6.178
 3873POPC   C2B52004  25.299  39.581   6.583
 3873POPC   C3B52005  25.178  39.729   6.962
 3873POPC   C4B52006  25.116  39.563   7.355
 3874POPC   NC352007  21.631  24.769   5.485
 3874POPC   PO452008  21.237  24.211   5.373
 3874POPC   GL152009  21.294  24.314   5.820
 3874POPC   GL252010  21.666  24.322   5.867
 3874POPC   C1A52011  21.057  24.377   6.234
 3874POPC   D2A52012  21.112  24.558   6.658
 3874POPC   C3A52013  21.111  24.317   7.040
 3874POPC   C4A52014  21.376  24.363   7.418
 3874POPC   C1B52015  21.575  24.369   6.322
 3874POPC   C2B52016  21.570  24.307   6.795
 3874POPC   C3B52017  21.651  24.654   7.080
 3874POPC   C4B52018  21.795  24.677   7.507
 3875POPC   NC352019  10.959   3.417   5.243
 3875POPC   PO452020  11.340   3.978   5.405
 3875POPC   GL152021  11.353   3.729   5.766
 3875POPC   GL252022  11.077   3.464   5.779
 3875POPC   C1A52023  11.460   3.618   6.189
 3875POPC   D2A52024  11.415   3.796   6.598
 3875POPC   C3A52025  11.429   3.531   6.951
 3875POPC   C4A52026  11.604   3.603   7.348
 3875POPC   C1B52027  10.948   3.610   6.219
 3875POPC   C2B52028  10.984   3.504   6.679
 3875POPC   C3B52029  10.961   3.416   7.144
 3875POPC   C4B52030  11.209   3.364   7.528
 3876POPC   NC352031  42.881  32.047   5.289
 3876POPC   PO452032  43.548  32.094   5.403
 3876POPC   GL152033  43.266  31.989   5.756
 3876POPC   GL252034  43.002  32.245   5.844
 3876POPC   C1A52035  43.151  31.932   6.199
 3876POPC   D2A52036  42.950  32.204   6.501
 3876POPC   C3A52037  43.199  32.201   6.864
 3876POPC   C4A52038  43.160  31.941   7.275
 3876POPC   C1B52039  42.792  32.566   6.151
 3876POPC   C2B52040  42.677  32.743   6.561
 3876POPC   C3B52041  42.757  32.515   6.900
 3876POPC   C4B52042  43.007  32.454   7.252
 3877POPC   NC352043  17.770  14.173   5.515
 3877POPC   PO452044  17.520  13.537   5.352
 3877POPC   GL152045  17.330  13.705   5.732
 3877POPC   GL252046  17.221  14.031   5.598
 3877POPC   C1A52047  17.206  13.555   6.152
 3877POPC   D2A52048  17.502  13.558   6.518
 3877POPC   C3A52049  17.414  13.476   6.952
 3877POPC   C4A52050  17.338  13.333   7.369
 3877POPC   C1B52051  17.031  14.069   5.995
 3877POPC   C2B52052  17.003  13.935   6.432
 3877POPC   C3B52053  17.225  13.932   6.826
 3877POPC   C4B52054  17.060  14.093   7.198
 3878POPC   NC352055  17.324  20.865   5.379
 3878POPC   PO452056  17.593  20.345   5.018
 3878POPC   GL152057  17.654  20.523   5.553
 3878POPC   GL252058  17.745  20.732   5.842
 3878POPC   C1A52059  17.364  20.461   6.017
 3878POPC   D2A52060  17.380  20.438   6.537
 3878POPC   C3A52061  17.297  20.749   6.906
 3878POPC   C4A52062  17.159  20.699   7.371
 3878POPC   C1B52063  17.817  20.437   6.250
 3878POPC   C2B52064  17.874  20.381   6.737
 3878POPC   C3B52065  17.810  20.746   7.076
 3878POPC   C4B52066  17.870  20.925   7.515
 3879POPC   NC352067  14.500  20.770   5.498
 3879POPC   PO452068  14.234  20.196   5.550
 3879POPC   GL152069  14.561  20.355   5.882
 3879POPC   GL252070  14.578  20.731   6.001
 3879POPC   C1A52071  14.589  20.384   6.370
 3879POPC   D2A52072  14.532  20.669   6.729
 3879POPC   C3A52073  14.249  20.465   7.021
 3879POPC   C4A52074  13.968  20.131   7.125
 3879POPC   C1B52075  14.184  20.726   6.299
 3879POPC   C2B52076  14.068  20.907   6.717
 3879POPC   C3B52077  14.290  20.966   7.103
 3879POPC   C4B52078  14.550  20.709   7.374
 3880POPC   NC352079  18.564  41.884   5.431
 3880POPC   PO452080  18.284  41.292   5.421
 3880POPC   GL152081  18.235  41.517   5.779
 3880POPC   GL252082  18.602  41.565   5.837
 3880POPC   C1A52083  18.195  41.692   6.190
 3880POPC   D2A52084  18.543  41.721   6.453
 3880POPC   C3A52085  18.475  41.773   6.912
 3880POPC   C4A52086  18.133  41.774   7.212
 3880POPC   C1B52087  18.497  41.283   6.163
 3880POPC   C2B52088  18.505  41.199   6.588
 3880POPC   C3B52089  18.443  41.009   6.958
 3880POPC   C4B52090  18.468  41.350   7.219
 3881POPC   NC352091  11.015   0.827   5.460
 3881POPC   PO452092  11.480   0.439   5.379
 3881POPC   GL152093  11.394   0.620   5.796
 3881POPC   GL252094  11.047   0.579   5.930
 3881POPC   C1A52095  11.458   0.615   6.264
 3881POPC   D2A52096  11.117   0.541   6.517
 3881POPC   C3A52097  11.144   0.734   6.912
 3881POPC   C4A52098  11.444   0.714   7.233
 3881POPC   C1B52099  11.236   0.203   6.100
 3881POPC   C2B52100  11.448   0.156   6.501
 3881POPC   C3B52101  11.278   0.190   6.902
 3881POPC   C4B52102  11.084   0.350   7.270
 3882POPC   NC352103  22.014  43.274   5.351
 3882POPC   PO452104  22.224  42.698   5.373
 3882POPC   GL152105  22.072  42.900   5.725
 3882POPC   GL252106  22.383  43.000   5.785
 3882POPC   C1A52107  21.997  42.861   6.158
 3882POPC   D2A52108  21.889  42.913   6.558
 3882POPC   C3A52109  22.027  42.935   6.961
 3882POPC   C4A52110  21.885  43.272   7.232
 3882POPC   C1B52111  22.511  42.879   6.201
 3882POPC   C2B52112  22.425  42.855   6.647
 3882POPC   C3B52113  22.703  42.843   7.005
 3882POPC   C4B52114  22.786  42.772   7.453
 3883POPC   NC352115  41.386  36.458   5.116
 3883POPC   PO452116  41.439  35.860   5.413
 3883POPC   GL152117  41.524  36.031   5.807
 3883POPC   GL252118  41.350  36.329   5.704
 3883POPC   C1A52119  41.591  35.892   6.253
 3883POPC   D2A52120  41.570  35.827   6.720
 3883POPC   C3A52121  41.829  36.043   7.052
 3883POPC   C4A52122  41.888  36.052   7.532
 3883POPC   C1B52123  41.185  36.217   6.134
 3883POPC   C2B52124  41.129  36.411   6.559
 3883POPC   C3B52125  41.323  36.253   6.938
 3883POPC   C4B52126  41.399  36.108   7.346
 3884POPC   NC352127  41.439  19.821   5.377
 3884POPC   PO452128  40.873  20.114   5.235
 3884POPC   GL152129  41.228  20.064   5.750
 3884POPC   GL252130  41.604  20.084   5.806
 3884POPC   C1A52131  41.292  19.908   6.187
 3884POPC   D2A52132  41.355  19.569   6.474
 3884POPC   C3A52133  41.279  19.655   6.895
 3884POPC   C4A52134  41.286  20.016   7.136
 3884POPC   C1B52135  41.675  20.218   6.272
 3884POPC   C2B52136  41.583  20.061   6.715
 3884POPC   C3B52137  41.771  20.148   7.152
 3884POPC   C4B52138  41.921  20.283   7.598
 3885POPC   NC352139   5.296  34.755   5.418
 3885POPC   PO452140   5.178  34.152   5.607
 3885POPC   GL152141   5.041  34.396   5.920
 3885POPC   GL252142   5.121  34.734   5.899
 3885POPC   C1A52143   4.865  34.579   6.294
 3885POPC   D2A52144   5.053  34.438   6.619
 3885POPC   C3A52145   4.937  34.608   6.987
 3885POPC   C4A52146   5.324  34.569   7.172
 3885POPC   C1B52147   5.412  34.645   6.217
 3885POPC   C2B52148   5.495  34.731   6.632
 3885POPC   C3B52149   5.180  35.003   6.775
 3885POPC   C4B52150   5.065  35.091   7.163
 3886POPC   NC352151  17.151  19.890   5.516
 3886POPC   PO452152  16.604  19.459   5.469
 3886POPC   GL152153  16.774  19.720   5.835
 3886POPC   GL252154  16.552  19.982   5.966
 3886POPC   C1A52155  16.686  19.643   6.297
 3886POPC   D2A52156  16.518  19.901   6.629
 3886POPC   C3A52157  16.728  19.854   7.021
 3886POPC   C4A52158  16.727  19.546   7.352
 3886POPC   C1B52159  16.954  20.080   6.196
 3886POPC   C2B52160  17.073  20.001   6.628
 3886POPC   C3B52161  17.027  20.255   7.017
 3886POPC   C4B52162  16.743  20.371   7.381
 3887POPC   NC352163  42.452  27.018   5.688
 3887POPC   PO452164  42.129  26.563   5.403
 3887POPC   GL152165  42.104  26.641   5.847
 3887POPC   GL252166  42.382  26.419   5.884
 3887POPC   C1A52167  41.886  26.711   6.265
 3887POPC   D2A52168  41.995  26.633   6.716
 3887POPC   C3A52169  42.203  27.015   6.915
 3887POPC   C4A52170  42.314  27.143   7.361
 3887POPC   C1B52171  42.376  26.531   6.309
 3887POPC   C2B52172  42.523  26.532   6.746
 3887POPC   C3B52173  42.456  26.661   7.162
 3887POPC   C4B52174  42.739  26.848   7.431
 3888POPC   NC352175   9.424  25.478   5.057
 3888POPC   PO452176   9.610  25.112   5.601
 3888POPC   GL152177   9.625  25.293   5.991
 3888POPC   GL252178   9.933  25.448   5.929
 3888POPC   C1A52179   9.481  25.366   6.430
 3888POPC   D2A52180   9.627  25.509   6.853
 3888POPC   C3A52181   9.779  25.205   7.220
 3888POPC   C4A52182   9.657  25.238   7.681
 3888POPC   C1B52183   9.994  25.301   6.356
 3888POPC   C2B52184  10.054  25.219   6.784
 3888POPC   C3B52185  10.112  25.554   7.061
 3888POPC   C4B52186   9.819  25.739   7.287
 3889POPC   NC352187   4.426  24.977   5.169
 3889POPC   PO452188   3.934  25.236   5.513
 3889POPC   GL152189   4.298  25.268   5.876
 3889POPC   GL252190   4.661  25.200   5.869
 3889POPC   C1A52191   4.403  25.193   6.335
 3889POPC   D2A52192   4.498  25.312   6.762
 3889POPC   C3A52193   4.310  25.181   7.140
 3889POPC   C4A52194   4.188  25.331   7.551
 3889POPC   C1B52195   4.822  24.937   6.225
 3889POPC   C2B52196   4.893  25.007   6.681
 3889POPC   C3B52197   4.796  24.978   7.102
 3889POPC   C4B52198   4.663  25.102   7.505
 3890POPC   NC352199  25.497  29.628   5.467
 3890POPC   PO452200  25.449  30.327   5.472
 3890POPC   GL152201  25.396  30.007   5.833
 3890POPC   GL252202  25.093  29.791   5.855
 3890POPC   C1A52203  25.487  29.844   6.269
 3890POPC   D2A52204  25.702  29.957   6.663
 3890POPC   C3A52205  25.648  29.650   6.998
 3890POPC   C4A52206  25.238  29.459   7.089
 3890POPC   C1B52207  24.970  29.874   6.324
 3890POPC   C2B52208  25.165  29.860   6.776
 3890POPC   C3B52209  25.263  29.920   7.259
 3890POPC   C4B52210  25.002  29.980   7.684
 3891POPC   NC352211  34.334  41.725   5.306
 3891POPC   PO452212  34.895  41.871   5.594
 3891POPC   GL152213  34.580  41.597   5.795
 3891POPC   GL252214  34.414  41.306   5.619
 3891POPC   C1A52215  34.510  41.512   6.254
 3891POPC   D2A52216  34.766  41.598   6.631
 3891POPC   C3A52217  34.592  41.821   6.966
 3891POPC   C4A52218  34.628  41.769   7.375
 3891POPC   C1B52219  34.269  41.104   6.025
 3891POPC   C2B52220  34.441  41.049   6.477
 3891POPC   C3B52221  34.338  41.365   6.810
 3891POPC   C4B52222  34.299  41.420   7.257
 3892POPC   NC352223  36.683   6.845   5.354
 3892POPC   PO452224  36.593   6.284   5.548
 3892POPC   GL152225  36.880   6.508   5.809
 3892POPC   GL252226  36.839   6.867   5.851
 3892POPC   C1A52227  36.895   6.545   6.275
 3892POPC   D2A52228  36.849   6.352   6.687
 3892POPC   C3A52229  36.928   6.584   7.059
 3892POPC   C4A52230  36.671   6.649   7.392
 3892POPC   C1B52231  36.636   6.982   6.259
 3892POPC   C2B52232  36.631   6.835   6.709
 3892POPC   C3B52233  36.584   7.059   7.117
 3892POPC   C4B52234  36.537   7.107   7.594
 3893POPC   NC352235  25.532  14.935   5.113
 3893POPC   PO452236  25.259  15.453   5.525
 3893POPC   GL152237  25.222  15.222   5.862
 3893POPC   GL252238  24.897  15.163   5.844
 3893POPC   C1A52239  25.434  15.116   6.244
 3893POPC   D2A52240  25.785  15.057   6.526
 3893POPC   C3A52241  25.599  15.185   6.890
 3893POPC   C4A52242  25.507  15.083   7.292
 3893POPC   C1B52243  24.963  15.322   6.279
 3893POPC   C2B52244  25.075  15.091   6.639
 3893POPC   C3B52245  25.078  14.915   7.014
 3893POPC   C4B52246  24.963  15.071   7.405
 3894POPC   NC352247   6.111  25.795   5.429
 3894POPC   PO452248   5.947  26.462   5.471
 3894POPC   GL152249   6.018  26.153   5.815
 3894POPC   GL252250   5.814  25.855   5.881
 3894POPC   C1A52251   6.177  25.986   6.225
 3894POPC   D2A52252   6.281  25.807   6.643
 3894POPC   C3A52253   5.985  25.996   6.925
 3894POPC   C4A52254   5.728  25.871   7.264
 3894POPC   C1B52255   5.506  25.703   6.222
 3894POPC   C2B52256   5.423  25.658   6.706
 3894POPC   C3B52257   5.250  25.784   7.137
 3894POPC   C4B52258   5.324  26.077   7.512
 3895POPC   NC352259   9.391   6.187   5.607
 3895POPC   PO452260   9.082   5.624   5.362
 3895POPC   GL152261   8.938   5.830   5.740
 3895POPC   GL252262   8.680   5.635   5.889
 3895POPC   C1A52263   9.056   5.909   6.181
 3895POPC   D2A52264   8.896   6.034   6.593
 3895POPC   C3A52265   9.198   5.944   6.909
 3895POPC   C4A52266   9.214   5.821   7.295
 3895POPC   C1B52267   8.918   5.397   6.239
 3895POPC   C2B52268   8.990   5.532   6.673
 3895POPC   C3B52269   8.716   5.752   7.006
 3895POPC   C4B52270   8.757   5.722   7.475
 3896POPC   NC352271  29.892  43.424   5.343
 3896POPC   PO452272  30.102  44.054   5.281
 3896POPC   GL152273  29.732  44.066   5.659
 3896POPC   GL252274  29.577  43.742   5.800
 3896POPC   C1A52275  29.750  44.128   6.126
 3896POPC   D2A52276  30.134  43.966   6.362
 3896POPC   C3A52277  30.130  44.013   6.818
 3896POPC   C4A52278  29.816  44.230   7.092
 3896POPC   C1B52279  29.764  43.609   6.222
 3896POPC   C2B52280  29.859  43.586   6.683
 3896POPC   C3B52281  29.875  43.704   7.139
 3896POPC   C4B52282  29.780  43.551   7.577
 3897POPC   NC352283   8.104  20.828   5.384
 3897POPC   PO452284   8.428  20.242   5.369
 3897POPC   GL152285   8.242  20.437   5.771
 3897POPC   GL252286   8.264  20.786   5.867
 3897POPC   C1A52287   8.119  20.354   6.230
 3897POPC   D2A52288   8.273  20.263   6.657
 3897POPC   C3A52289   8.130  20.403   7.080
 3897POPC   C4A52290   7.831  20.438   7.447
 3897POPC   C1B52291   7.935  20.832   6.184
 3897POPC   C2B52292   7.978  20.689   6.629
 3897POPC   C3B52293   8.158  20.901   7.008
 3897POPC   C4B52294   8.131  20.916   7.477
 3898POPC   NC352295  34.930   6.864   5.455
 3898POPC   PO452296  34.827   6.204   5.337
 3898POPC   GL152297  34.635   6.357   5.772
 3898POPC   GL252298  34.373   6.619   5.831
 3898POPC   C1A52299  34.625   6.493   6.245
 3898POPC   D2A52300  34.713   6.354   6.651
 3898POPC   C3A52301  34.561   6.490   7.056
 3898POPC   C4A52302  34.764   6.812   7.277
 3898POPC   C1B52303  34.314   6.888   6.249
 3898POPC   C2B52304  34.488   6.858   6.693
 3898POPC   C3B52305  34.308   6.957   7.126
 3898POPC   C4B52306  34.319   6.819   7.571
 3899POPC   NC352307  11.186   7.162   5.354
 3899POPC   PO452308  11.531   7.725   5.371
 3899POPC   GL152309  11.503   7.398   5.691
 3899POPC   GL252310  11.181   7.498   5.861
 3899POPC   C1A52311  11.502   7.205   6.117
 3899POPC   D2A52312  11.226   7.406   6.428
 3899POPC   C3A52313  11.141   7.227   6.833
 3899POPC   C4A52314  11.410   7.173   7.199
 3899POPC   C1B52315  11.569   7.699   6.130
 3899POPC   C2B52316  11.587   7.826   6.567
 3899POPC   C3B52317  11.454   7.612   6.932
 3899POPC   C4B52318  11.345   7.643   7.367
 3900POPC   NC352319  22.693  31.044   5.504
 3900POPC   PO452320  23.399  30.913   5.546
 3900POPC   GL152321  23.060  30.898   5.865
 3900POPC   GL252322  22.886  30.600   5.804
 3900POPC   C1A52323  22.879  30.726   6.283
 3900POPC   D2A52324  22.680  30.827   6.654
 3900POPC   C3A52325  22.922  30.802   7.022
 3900POPC   C4A52326  23.185  30.534   7.257
 3900POPC   C1B52327  22.639  30.318   6.070
 3900POPC   C2B52328  22.635  30.312   6.509
 3900POPC   C3B52329  22.731  30.343   6.931
 3900POPC   C4B52330  22.701  30.465   7.360
 3901POPC   NC352331   3.826  14.959   5.377
 3901POPC   PO452332   3.268  15.324   5.487
 3901POPC   GL152333   3.471  15.071   5.760
 3901POPC   GL252334   3.758  15.303   5.749
 3901POPC   C1A52335   3.330  14.941   6.175
 3901POPC   D2A52336   3.567  14.977   6.558
 3901POPC   C3A52337   3.365  15.033   6.928
 3901POPC   C4A52338   3.459  15.087   7.354
 3901POPC   C1B52339   3.675  15.331   6.187
 3901POPC   C2B52340   3.610  15.509   6.603
 3901POPC   C3B52341   3.624  15.487   7.078
 3901POPC   C4B52342   3.796  15.478   7.557
 3902POPC   NC352343  24.986  20.317   5.467
 3902POPC   PO452344  24.266  20.155   5.410
 3902POPC   GL152345  24.376  20.520   5.637
 3902POPC   GL252346  24.699  20.513   5.835
 3902POPC   C1A52347  24.233  20.623   6.040
 3902POPC   D2A52348  24.285  20.686   6.488
 3902POPC   C3A52349  24.351  20.403   6.819
 3902POPC   C4A52350  24.199  20.621   7.162
 3902POPC   C1B52351  24.757  20.423   6.278
 3902POPC   C2B52352  24.763  20.663   6.674
 3902POPC   C3B52353  24.713  20.807   7.088
 3902POPC   C4B52354  24.982  20.978   7.392
 3903POPC   NC352355  20.142  24.056   5.327
 3903POPC   PO452356  19.806  23.415   5.386
 3903POPC   GL152357  19.733  23.695   5.738
 3903POPC   GL252358  19.981  23.930   5.837
 3903POPC   C1A52359  19.665  23.722   6.176
 3903POPC   D2A52360  19.799  23.704   6.617
 3903POPC   C3A52361  19.732  23.932   7.018
 3903POPC   C4A52362  19.732  23.588   7.329
 3903POPC   C1B52363  19.994  24.082   6.286
 3903POPC   C2B52364  20.270  23.932   6.624
 3903POPC   C3B52365  20.231  23.839   7.059
 3903POPC   C4B52366  20.083  23.915   7.498
 3904POPC   NC352367  31.690   6.419   5.575
 3904POPC   PO452368  31.550   7.016   5.473
 3904POPC   GL152369  31.356   6.749   5.775
 3904POPC   GL252370  30.997   6.816   5.835
 3904POPC   C1A52371  31.546   6.756   6.187
 3904POPC   D2A52372  31.530   6.915   6.601
 3904POPC   C3A52373  31.670   6.607   6.900
 3904POPC   C4A52374  31.648   6.703   7.309
 3904POPC   C1B52375  31.086   6.504   6.156
 3904POPC   C2B52376  31.283   6.472   6.571
 3904POPC   C3B52377  31.170   6.542   7.024
 3904POPC   C4B52378  31.330   6.304   7.330
 3905POPC   NC352379  12.108  41.168   5.364
 3905POPC   PO452380  12.242  40.524   5.438
 3905POPC   GL152381  11.993  40.755   5.728
 3905POPC   GL252382  12.238  40.936   5.807
 3905POPC   C1A52383  11.845  40.862   6.151
 3905POPC   D2A52384  11.978  40.686   6.556
 3905POPC   C3A52385  11.790  40.756   6.974
 3905POPC   C4A52386  12.019  40.702   7.389
 3905POPC   C1B52387  12.369  40.719   6.162
 3905POPC   C2B52388  12.452  40.903   6.550
 3905POPC   C3B52389  12.290  40.885   6.968
 3905POPC   C4B52390  12.381  41.111   7.349
 3906POPC   NC352391  15.102  24.725   5.212
 3906POPC   PO452392  15.393  24.133   5.097
 3906POPC   GL152393  15.271  24.314   5.567
 3906POPC   GL252394  15.039  24.643   5.703
 3906POPC   C1A52395  15.198  24.314   6.053
 3906POPC   D2A52396  15.052  24.545   6.435
 3906POPC   C3A52397  15.271  24.505   6.819
 3906POPC   C4A52398  15.255  24.346   7.210
 3906POPC   C1B52399  14.863  24.862   6.095
 3906POPC   C2B52400  14.856  25.008   6.561
 3906POPC   C3B52401  14.959  24.891   6.998
 3906POPC   C4B52402  15.230  24.848   7.376
 3907POPC   NC352403  14.877  15.737   5.622
 3907POPC   PO452404  14.317  16.031   5.319
 3907POPC   GL152405  14.359  15.883   5.743
 3907POPC   GL252406  14.228  15.551   5.650
 3907POPC   C1A52407  14.467  15.941   6.212
 3907POPC   D2A52408  14.281  15.882   6.630
 3907POPC   C3A52409  14.606  15.762   6.905
 3907POPC   C4A52410  14.669  16.012   7.258
 3907POPC   C1B52411  14.336  15.469   6.077
 3907POPC   C2B52412  14.425  15.402   6.536
 3907POPC   C3B52413  14.233  15.399   6.955
 3907POPC   C4B52414  14.244  15.719   7.262
 3908POPC   NC352415   7.483  35.497   5.378
 3908POPC   PO452416   7.192  35.026   5.172
 3908POPC   GL152417   7.338  35.157   5.696
 3908POPC   GL252418   7.693  35.308   5.782
 3908POPC   C1A52419   7.319  35.516   6.073
 3908POPC   D2A52420   7.210  35.514   6.574
 3908POPC   C3A52421   7.410  35.631   6.973
 3908POPC   C4A52422   7.416  35.484   7.391
 3908POPC   C1B52423   7.819  35.554   6.142
 3908POPC   C2B52424   7.704  35.501   6.557
 3908POPC   C3B52425   7.819  35.352   6.961
 3908POPC   C4B52426   7.970  35.315   7.348
 3909POPC   NC352427  34.614  17.185   5.429
 3909POPC   PO452428  34.453  17.805   5.203
 3909POPC   GL152429  34.542  17.675   5.655
 3909POPC   GL252430  34.826  17.491   5.840
 3909POPC   C1A52431  34.443  17.649   6.121
 3909POPC   D2A52432  34.686  17.628   6.519
 3909POPC   C3A52433  34.480  17.763   6.908
 3909POPC   C4A52434  34.425  17.473   7.238
 3909POPC   C1B52435  34.750  17.168   6.187
 3909POPC   C2B52436  34.702  17.106   6.644
 3909POPC   C3B52437  34.859  17.389   6.975
 3909POPC   C4B52438  35.036  17.229   7.344
 3910POPC   NC352439  14.052  26.999   5.441
 3910POPC   PO452440  14.312  26.405   5.277
 3910POPC   GL152441  14.463  26.660   5.709
 3910POPC   GL252442  14.143  26.739   5.875
 3910POPC   C1A52443  14.537  26.786   6.218
 3910POPC   D2A52444  14.461  27.102   6.592
 3910POPC   C3A52445  14.397  26.949   7.020
 3910POPC   C4A52446  14.041  27.004   7.275
 3910POPC   C1B52447  14.110  26.480   6.241
 3910POPC   C2B52448  14.276  26.534   6.647
 3910POPC   C3B52449  14.127  26.346   7.018
 3910POPC   C4B52450  14.270  26.537   7.353
 3911POPC   NC352451  17.527  11.972   5.463
 3911POPC   PO452452  17.054  12.348   5.510
 3911POPC   GL152453  17.252  12.160   5.848
 3911POPC   GL252454  17.181  11.833   5.867
 3911POPC   C1A52455  17.599  12.230   6.149
 3911POPC   D2A52456  17.562  12.447   6.544
 3911POPC   C3A52457  17.575  12.206   6.925
 3911POPC   C4A52458  17.735  12.124   7.336
 3911POPC   C1B52459  17.416  11.764   6.261
 3911POPC   C2B52460  17.601  11.737   6.699
 3911POPC   C3B52461  17.577  11.693   7.171
 3911POPC   C4B52462  17.498  11.803   7.661
 3912POPC   NC352463  27.796   9.324   5.408
 3912POPC   PO452464  27.483   8.827   5.455
 3912POPC   GL152465  27.560   8.818   5.864
 3912POPC   GL252466  27.541   9.176   5.855
 3912POPC   C1A52467  27.672   8.888   6.281
 3912POPC   D2A52468  27.822   8.717   6.637
 3912POPC   C3A52469  27.682   8.923   6.950
 3912POPC   C4A52470  27.551   8.880   7.356
 3912POPC   C1B52471  27.773   9.357   6.180
 3912POPC   C2B52472  28.037   9.198   6.493
 3912POPC   C3B52473  28.095   9.225   6.915
 3912POPC   C4B52474  27.951   9.179   7.343
 3913POPC   NC352475   3.166  41.124   5.429
 3913POPC   PO452476   3.825  41.066   5.396
 3913POPC   GL152477   3.597  41.235   5.826
 3913POPC   GL252478   3.738  41.543   5.959
 3913POPC   C1A52479   3.715  41.195   6.318
 3913POPC   D2A52480   3.721  41.131   6.756
 3913POPC   C3A52481   3.734  41.422   7.105
 3913POPC   C4A52482   3.832  41.716   7.452
 3913POPC   C1B52483   3.394  41.590   6.265
 3913POPC   C2B52484   3.439  41.607   6.731
 3913POPC   C3B52485   3.432  41.838   7.158
 3913POPC   C4B52486   3.606  42.168   7.461
 3914POPC   NC352487  14.875  36.016   5.453
 3914POPC   PO452488  15.142  36.668   5.301
 3914POPC   GL152489  15.068  36.508   5.771
 3914POPC   GL252490  15.112  36.131   5.885
 3914POPC   C1A52491  15.180  36.519   6.214
 3914POPC   D2A52492  15.136  36.269   6.579
 3914POPC   C3A52493  15.253  36.383   6.982
 3914POPC   C4A52494  15.120  36.270   7.367
 3914POPC   C1B52495  15.035  35.843   6.294
 3914POPC   C2B52496  15.080  35.794   6.767
 3914POPC   C3B52497  15.105  35.779   7.226
 3914POPC   C4B52498  15.412  35.781   7.541
 3915POPC   NC352499  21.102  30.581   5.439
 3915POPC   PO452500  21.612  30.989   5.177
 3915POPC   GL152501  21.443  30.893   5.687
 3915POPC   GL252502  21.153  30.775   5.881
 3915POPC   C1A52503  21.456  31.057   6.168
 3915POPC   D2A52504  21.214  30.964   6.568
 3915POPC   C3A52505  21.457  30.973   6.967
 3915POPC   C4A52506  21.496  30.867   7.413
 3915POPC   C1B52507  21.359  30.563   6.228
 3915POPC   C2B52508  21.249  30.415   6.659
 3915POPC   C3B52509  21.358  30.472   7.117
 3915POPC   C4B52510  21.289  30.409   7.607
 3916POPC   NC352511  12.519  15.787   5.636
 3916POPC   PO452512  12.712  16.161   5.116
 3916POPC   GL152513  12.970  16.028   5.652
 3916POPC   GL252514  12.903  15.776   5.953
 3916POPC   C1A52515  13.160  16.173   6.099
 3916POPC   D2A52516  13.029  15.927   6.508
 3916POPC   C3A52517  13.003  15.962   6.985
 3916POPC   C4A52518  12.898  15.831   7.429
 3916POPC   C1B52519  12.576  15.787   6.329
 3916POPC   C2B52520  12.464  15.862   6.801
 3916POPC   C3B52521  12.546  16.128   7.189
 3916POPC   C4B52522  12.476  16.544   7.384
 3917POPC   NC352523  15.652  33.156   5.546
 3917POPC   PO452524  16.186  33.438   5.416
 3917POPC   GL152525  16.103  33.196   5.816
 3917POPC   GL252526  16.268  33.310   6.098
 3917POPC   C1A52527  15.951  32.949   6.213
 3917POPC   D2A52528  16.064  33.107   6.634
 3917POPC   C3A52529  15.891  33.071   7.063
 3917POPC   C4A52530  15.949  33.416   7.373
 3917POPC   C1B52531  16.468  32.928   6.305
 3917POPC   C2B52532  16.348  32.688   6.673
 3917POPC   C3B52533  16.379  32.751   7.123
 3917POPC   C4B52534  16.150  32.920   7.473
 3918POPC   NC352535  38.455  44.122   5.270
 3918POPC   PO452536  38.074  43.727   5.648
 3918POPC   GL152537  38.434  43.770   5.882
 3918POPC   GL252538  38.693  44.003   5.770
 3918POPC   C1A52539  38.640  43.629   6.264
 3918POPC   D2A52540  38.863  43.796   6.633
 3918POPC   C3A52541  38.677  43.707   7.067
 3918POPC   C4A52542  38.561  43.669   7.540
 3918POPC   C1B52543  38.591  44.151   6.183
 3918POPC   C2B52544  38.471  44.206   6.587
 3918POPC   C3B52545  38.714  44.193   6.925
 3918POPC   C4B52546  38.614  44.175   7.324
 3919POPC   NC352547  27.453  44.145   5.433
 3919POPC   PO452548  27.908  43.594   5.383
 3919POPC   GL152549  27.649  43.501   5.772
 3919POPC   GL252550  27.494  43.801   5.856
 3919POPC   C1A52551  27.769  43.592   6.238
 3919POPC   D2A52552  27.760  43.813   6.654
 3919POPC   C3A52553  27.887  43.704   7.091
 3919POPC   C4A52554  27.651  43.648   7.468
 3919POPC   C1B52555  27.391  43.960   6.278
 3919POPC   C2B52556  27.244  43.837   6.680
 3919POPC   C3B52557  27.384  43.904   7.095
 3919POPC   C4B52558  27.671  44.173   7.256
 3920POPC   NC352559   4.084  31.056   5.417
 3920POPC   PO452560   3.573  31.649   5.339
 3920POPC   GL152561   3.810  31.718   5.677
 3920POPC   GL252562   3.835  31.375   5.721
 3920POPC   C1A52563   3.611  31.816   6.082
 3920POPC   D2A52564   3.330  31.708   6.408
 3920POPC   C3A52565   3.456  31.725   6.849
 3920POPC   C4A52566   3.366  31.562   7.294
 3920POPC   C1B52567   4.030  31.545   6.114
 3920POPC   C2B52568   3.953  31.759   6.516
 3920POPC   C3B52569   4.000  31.554   6.906
 3920POPC   C4B52570   3.876  31.514   7.311
 3921POPC   NC352571  42.498  16.204   5.313
 3921POPC   PO452572  42.168  15.649   5.498
 3921POPC   GL152573  42.262  15.899   5.875
 3921POPC   GL252574  42.143  16.197   5.743
 3921POPC   C1A52575  42.448  16.000   6.334
 3921POPC   D2A52576  42.483  16.341   6.708
 3921POPC   C3A52577  42.518  16.118   7.081
 3921POPC   C4A52578  42.299  15.735   7.034
 3921POPC   C1B52579  42.067  16.283   6.179
 3921POPC   C2B52580  42.027  16.111   6.632
 3921POPC   C3B52581  41.983  16.145   7.105
 3921POPC   C4B52582  42.155  15.985   7.481
 3922POPC   NC352583  27.800   5.085   5.185
 3922POPC   PO452584  27.201   4.902   5.175
 3922POPC   GL152585  27.454   5.015   5.576
 3922POPC   GL252586  27.290   4.852   5.825
 3922POPC   C1A52587  27.597   5.272   5.977
 3922POPC   D2A52588  27.888   5.390   6.343
 3922POPC   C3A52589  27.859   5.296   6.806
 3922POPC   C4A52590  27.539   5.271   7.112
 3922POPC   C1B52591  27.449   4.879   6.255
 3922POPC   C2B52592  27.396   5.022   6.673
 3922POPC   C3B52593  27.335   4.799   7.073
 3922POPC   C4B52594  27.438   4.640   7.497
 3923POPC   NC352595  37.075  33.059   5.370
 3923POPC   PO452596  36.438  33.221   5.150
 3923POPC   GL152597  36.640  33.251   5.617
 3923POPC   GL252598  36.542  32.947   5.809
 3923POPC   C1A52599  36.886  33.219   6.048
 3923POPC   D2A52600  36.942  32.956   6.458
 3923POPC   C3A52601  36.897  33.143   6.869
 3923POPC   C4A52602  36.958  33.004   7.284
 3923POPC   C1B52603  36.481  33.035   6.282
 3923POPC   C2B52604  36.478  32.808   6.690
 3923POPC   C3B52605  36.510  32.802   7.155
 3923POPC   C4B52606  36.510  32.854   7.619
 3924POPC   NC352607  21.237  22.015   5.358
 3924POPC   PO452608  21.900  21.903   5.227
 3924POPC   GL152609  21.687  22.023   5.685
 3924POPC   GL252610  21.584  22.383   5.801
 3924POPC   C1A52611  21.464  21.983   6.139
 3924POPC   D2A52612  21.552  22.123   6.595
 3924POPC   C3A52613  21.381  21.987   6.996
 3924POPC   C4A52614  21.427  22.122   7.437
 3924POPC   C1B52615  21.229  22.450   6.122
 3924POPC   C2B52616  21.130  22.631   6.510
 3924POPC   C3B52617  21.166  22.455   6.910
 3924POPC   C4B52618  21.418  22.586   7.244
 3925POPC   NC352619  43.439   5.826   5.406
 3925POPC   PO452620  42.851   5.838   5.271
 3925POPC   GL152621  43.031   5.898   5.703
 3925POPC   GL252622  43.255   6.175   5.743
 3925POPC   C1A52623  43.191   5.648   6.070
 3925POPC   D2A52624  43.389   5.579   6.487
 3925POPC   C3A52625  43.207   5.549   6.902
 3925POPC   C4A52626  43.080   5.626   7.343
 3925POPC   C1B52627  43.224   6.133   6.204
 3925POPC   C2B52628  43.408   6.073   6.627
 3925POPC   C3B52629  43.322   6.009   7.091
 3925POPC   C4B52630  43.404   5.954   7.546
 3926POPC   NC352631  34.003  22.367   5.364
 3926POPC   PO452632  33.636  21.937   5.699
 3926POPC   GL152633  33.749  22.357   5.822
 3926POPC   GL252634  34.123  22.396   5.899
 3926POPC   C1A52635  33.738  22.334   6.250
 3926POPC   D2A52636  33.642  22.062   6.576
 3926POPC   C3A52637  33.636  22.268   6.955
 3926POPC   C4A52638  33.369  22.135   7.264
 3926POPC   C1B52639  34.233  22.337   6.354
 3926POPC   C2B52640  34.120  22.145   6.764
 3926POPC   C3B52641  34.092  22.177   7.228
 3926POPC   C4B52642  34.102  22.458   7.650
 3927POPC   NC352643  17.023  22.567   5.056
 3927POPC   PO452644  16.641  22.143   5.473
 3927POPC   GL152645  16.638  22.148   5.890
 3927POPC   GL252646  16.599  21.763   5.905
 3927POPC   C1A52647  16.808  22.419   6.222
 3927POPC   D2A52648  16.796  22.351   6.644
 3927POPC   C3A52649  16.831  22.539   7.047
 3927POPC   C4A52650  16.669  22.209   7.325
 3927POPC   C1B52651  16.485  21.857   6.310
 3927POPC   C2B52652  16.568  21.915   6.733
 3927POPC   C3B52653  16.410  21.793   7.099
 3927POPC   C4B52654  16.404  21.814   7.540
 3928POPC   NC352655  16.870  39.072   5.324
 3928POPC   PO452656  16.518  39.549   5.284
 3928POPC   GL152657  16.600  39.440   5.736
 3928POPC   GL252658  16.927  39.276   5.793
 3928POPC   C1A52659  16.491  39.335   6.169
 3928POPC   D2A52660  16.464  38.929   6.419
 3928POPC   C3A52661  16.473  38.982   6.855
 3928POPC   C4A52662  16.414  39.422   6.939
 3928POPC   C1B52663  16.933  39.118   6.214
 3928POPC   C2B52664  16.824  39.319   6.599
 3928POPC   C3B52665  16.901  39.232   7.020
 3928POPC   C4B52666  16.666  39.229   7.378
 3929POPC   NC352667  33.166  39.768   5.612
 3929POPC   PO452668  33.139  40.352   5.605
 3929POPC   GL152669  33.020  40.102   5.973
 3929POPC   GL252670  32.744  39.846   5.916
 3929POPC   C1A52671  33.216  40.098   6.383
 3929POPC   D2A52672  33.417  40.416   6.677
 3929POPC   C3A52673  33.234  40.348   7.081
 3929POPC   C4A52674  33.103  39.927   7.139
 3929POPC   C1B52675  32.692  39.979   6.349
 3929POPC   C2B52676  32.768  39.910   6.763
 3929POPC   C3B52677  32.603  40.080   7.156
 3929POPC   C4B52678  32.479  40.064   7.619
 3930POPC   NC352679  18.108  39.099   5.332
 3930POPC   PO452680  18.660  39.442   5.256
 3930POPC   GL152681  18.405  39.372   5.668
 3930POPC   GL252682  18.245  39.050   5.827
 3930POPC   C1A52683  18.374  39.494   6.122
 3930POPC   D2A52684  18.528  39.668   6.534
 3930POPC   C3A52685  18.343  39.494   6.922
 3930POPC   C4A52686  18.333  39.292   7.317
 3930POPC   C1B52687  17.980  38.803   6.135
 3930POPC   C2B52688  18.145  38.675   6.554
 3930POPC   C3B52689  18.326  38.731   6.971
 3930POPC   C4B52690  18.166  38.827   7.378
 3931POPC   NC352691  27.462  39.887   5.457
 3931POPC   PO452692  28.042  40.291   5.367
 3931POPC   GL152693  27.697  40.266   5.766
 3931POPC   GL252694  27.388  40.122   5.947
 3931POPC   C1A52695  27.776  40.154   6.240
 3931POPC   D2A52696  27.709  40.054   6.667
 3931POPC   C3A52697  27.529  40.192   7.052
 3931POPC   C4A52698  27.686  40.045   7.407
 3931POPC   C1B52699  27.265  39.888   6.357
 3931POPC   C2B52700  27.279  39.812   6.830
 3931POPC   C3B52701  27.273  39.758   7.290
 3931POPC   C4B52702  27.386  39.826   7.758
 3932POPC   NC352703  18.539  16.273   5.473
 3932POPC   PO452704  18.114  15.779   5.523
 3932POPC   GL152705  18.431  15.891   5.800
 3932POPC   GL252706  18.197  16.184   5.852
 3932POPC   C1A52707  18.404  15.914   6.237
 3932POPC   D2A52708  18.035  15.822   6.486
 3932POPC   C3A52709  18.198  15.732   6.891
 3932POPC   C4A52710  18.369  16.030   7.159
 3932POPC   C1B52711  17.917  16.261   6.215
 3932POPC   C2B52712  17.720  16.206   6.641
 3932POPC   C3B52713  17.901  16.181   7.065
 3932POPC   C4B52714  17.829  16.144   7.524
 3933POPC   NC352715  12.328  42.007   5.399
 3933POPC   PO452716  11.889  42.465   5.314
 3933POPC   GL152717  11.947  42.519   5.751
 3933POPC   GL252718  12.303  42.427   5.849
 3933POPC   C1A52719  11.865  42.306   6.148
 3933POPC   D2A52720  11.960  42.087   6.528
 3933POPC   C3A52721  11.834  42.244   6.926
 3933POPC   C4A52722  11.761  42.379   7.346
 3933POPC   C1B52723  12.376  42.349   6.313
 3933POPC   C2B52724  12.384  42.334   6.781
 3933POPC   C3B52725  12.282  42.232   7.241
 3933POPC   C4B52726  12.472  41.928   7.581
 3934POPC   NC352727  21.620  29.729   5.370
 3934POPC   PO452728  21.499  30.369   5.522
 3934POPC   GL152729  21.194  30.146   5.782
 3934POPC   GL252730  21.191  29.774   5.728
 3934POPC   C1A52731  21.263  30.068   6.226
 3934POPC   D2A52732  21.653  30.129   6.432
 3934POPC   C3A52733  21.669  30.131   6.879
 3934POPC   C4A52734  21.567  30.052   7.329
 3934POPC   C1B52735  21.331  29.580   6.124
 3934POPC   C2B52736  21.439  29.642   6.584
 3934POPC   C3B52737  21.364  29.675   7.042
 3934POPC   C4B52738  21.258  29.691   7.501
 3935POPC   NC352739   0.424  31.068   5.336
 3935POPC   PO452740   0.477  30.446   5.425
 3935POPC   GL152741   0.508  30.785   5.764
 3935POPC   GL252742   0.228  31.007   5.843
 3935POPC   C1A52743   0.556  30.844   6.229
 3935POPC   D2A52744   0.407  30.829   6.683
 3935POPC   C3A52745   0.667  30.704   7.040
 3935POPC   C4A52746   0.900  30.376   7.296
 3935POPC   C1B52747   0.074  31.006   6.317
 3935POPC   C2B52748   0.006  31.127   6.784
 3935POPC   C3B52749   0.181  30.886   7.185
 3935POPC   C4B52750   0.108  30.852   7.662
 3936POPC   NC352751  39.687  14.099   5.433
 3936POPC   PO452752  39.995  14.783   5.253
 3936POPC   GL152753  39.995  14.521   5.663
 3936POPC   GL252754  40.178  14.161   5.679
 3936POPC   C1A52755  39.996  14.605   6.140
 3936POPC   D2A52756  39.813  14.589   6.571
 3936POPC   C3A52757  39.937  14.625   7.011
 3936POPC   C4A52758  39.994  14.594   7.483
 3936POPC   C1B52759  39.952  14.110   6.057
 3936POPC   C2B52760  39.902  14.069   6.504
 3936POPC   C3B52761  39.773  14.144   6.931
 3936POPC   C4B52762  40.096  14.162   7.236
 3937POPC   NC352763  25.312   8.448   5.403
 3937POPC   PO452764  25.318   7.703   5.464
 3937POPC   GL152765  25.188   8.049   5.782
 3937POPC   GL252766  25.410   8.328   5.859
 3937POPC   C1A52767  25.064   8.169   6.230
 3937POPC   D2A52768  25.020   7.902   6.621
 3937POPC   C3A52769  25.059   8.070   7.054
 3937POPC   C4A52770  25.155   7.881   7.486
 3937POPC   C1B52771  25.382   8.590   6.178
 3937POPC   C2B52772  25.550   8.597   6.569
 3937POPC   C3B52773  25.708   8.403   6.955
 3937POPC   C4B52774  25.505   8.205   7.262
 3938POPC   NC352775   4.874  18.372   5.454
 3938POPC   PO452776   5.389  17.925   5.610
 3938POPC   GL152777   5.091  18.135   5.877
 3938POPC   GL252778   4.731  18.063   5.853
 3938POPC   C1A52779   5.140  18.428   6.234
 3938POPC   D2A52780   5.033  18.584   6.650
 3938POPC   C3A52781   4.940  18.202   6.927
 3938POPC   C4A52782   5.255  18.093   7.247
 3938POPC   C1B52783   4.647  18.448   6.120
 3938POPC   C2B52784   4.551  18.390   6.573
 3938POPC   C3B52785   4.620  18.618   6.946
 3938POPC   C4B52786   4.976  18.638   7.209
 3939POPC   NC352787   8.292   9.735   5.269
 3939POPC   PO452788   8.249   9.046   5.238
 3939POPC   GL152789   8.309   9.424   5.690
 3939POPC   GL252790   8.387   9.814   5.756
 3939POPC   C1A52791   8.405   9.533   6.171
 3939POPC   D2A52792   8.536   9.775   6.576
 3939POPC   C3A52793   8.488   9.572   6.988
 3939POPC   C4A52794   8.141   9.291   7.155
 3939POPC   C1B52795   8.030   9.883   6.060
 3939POPC   C2B52796   7.882   9.858   6.513
 3939POPC   C3B52797   8.062   9.876   6.933
 3939POPC   C4B52798   8.144  10.145   7.279
 3940POPC   NC352799  15.509  28.937   5.599
 3940POPC   PO452800  14.844  28.850   5.582
 3940POPC   GL152801  14.962  29.281   5.810
 3940POPC   GL252802  15.277  29.525   5.843
 3940POPC   C1A52803  14.961  29.320   6.255
 3940POPC   D2A52804  15.218  29.454   6.602
 3940POPC   C3A52805  15.178  29.299   7.033
 3940POPC   C4A52806  14.815  29.324   7.368
 3940POPC   C1B52807  15.478  29.268   6.176
 3940POPC   C2B52808  15.306  28.930   6.439
 3940POPC   C3B52809  15.319  28.739   6.851
 3940POPC   C4B52810  15.330  28.703   7.289
 3941POPC   NC352811  31.981  44.677   5.456
 3941POPC   PO452812  32.362   0.202   5.070
 3941POPC   GL152813  32.396  44.897   5.579
 3941POPC   GL252814  32.400  44.508   5.705
 3941POPC   C1A52815  32.155  44.776   6.048
 3941POPC   D2A52816  31.994  44.787   6.464
 3941POPC   C3A52817  32.292  44.722   6.768
 3941POPC   C4A52818  32.233  44.757   7.190
 3941POPC   C1B52819  32.569  44.479   6.141
 3941POPC   C2B52820  32.531  44.304   6.575
 3941POPC   C3B52821  32.673  44.455   7.002
 3941POPC   C4B52822  32.532  44.438   7.441
 3942POPC   NC352823  16.669   5.544   5.326
 3942POPC   PO452824  17.093   6.070   5.256
 3942POPC   GL152825  16.912   5.905   5.665
 3942POPC   GL252826  16.672   5.699   5.817
 3942POPC   C1A52827  16.962   6.087   6.058
 3942POPC   D2A52828  17.062   6.051   6.469
 3942POPC   C3A52829  16.828   5.821   6.757
 3942POPC   C4A52830  16.846   5.949   7.179
 3942POPC   C1B52831  16.486   5.923   6.144
 3942POPC   C2B52832  16.339   5.889   6.549
 3942POPC   C3B52833  16.362   6.139   6.900
 3942POPC   C4B52834  16.358   5.961   7.290
 3943POPC   NC352835  18.498  37.223   5.362
 3943POPC   PO452836  18.253  36.626   5.407
 3943POPC   GL152837  18.298  36.951   5.734
 3943POPC   GL252838  18.151  36.769   5.939
 3943POPC   C1A52839  18.388  37.141   6.177
 3943POPC   D2A52840  18.259  36.934   6.571
 3943POPC   C3A52841  18.402  37.079   6.978
 3943POPC   C4A52842  18.568  37.087   7.421
 3943POPC   C1B52843  17.943  36.577   6.236
 3943POPC   C2B52844  18.083  36.449   6.616
 3943POPC   C3B52845  18.230  36.557   7.005
 3943POPC   C4B52846  17.965  36.332   7.269
 3944POPC   NC352847   7.912  44.471   5.434
 3944POPC   PO452848   8.551  44.659   5.452
 3944POPC   GL152849   8.282  44.639   5.842
 3944POPC   GL252850   7.959  44.423   5.933
 3944POPC   C1A52851   8.415  44.593   6.270
 3944POPC   D2A52852   8.402  44.449   6.688
 3944POPC   C3A52853   8.395  44.779   6.978
 3944POPC   C4A52854   8.575  44.880   7.392
 3944POPC   C1B52855   7.939  44.784   6.218
 3944POPC   C2B52856   8.064  44.901   6.612
 3944POPC   C3B52857   7.830  44.853   6.995
 3944POPC   C4B52858   7.679  44.693   7.384
 3945POPC   NC352859  37.391  38.574   5.457
 3945POPC   PO452860  37.904  38.233   5.440
 3945POPC   GL152861  37.790  38.376   5.793
 3945POPC   GL252862  37.485  38.254   5.843
 3945POPC   C1A52863  37.927  38.282   6.197
 3945POPC   D2A52864  37.959  38.614   6.521
 3945POPC   C3A52865  37.823  38.460   6.930
 3945POPC   C4A52866  37.917  38.666   7.308
 3945POPC   C1B52867  37.528  38.582   6.206
 3945POPC   C2B52868  37.470  38.725   6.634
 3945POPC   C3B52869  37.436  38.788   7.069
 3945POPC   C4B52870  37.336  38.350   7.108
 3946POPC   NC352871  18.991  44.922   5.453
 3946POPC   PO452872  19.225  44.260   5.468
 3946POPC   GL152873  19.178  44.361   5.865
 3946POPC   GL252874  18.875  44.559   5.817
 3946POPC   C1A52875  19.388  44.304   6.252
 3946POPC   D2A52876  19.305  44.190   6.669
 3946POPC   C3A52877  18.991  44.426   6.894
 3946POPC   C4A52878  19.046  44.564   7.312
 3946POPC   C1B52879  18.689  44.744   6.200
 3946POPC   C2B52880  18.674  44.895   6.639
 3946POPC   C3B52881  18.925  44.951   7.009
 3946POPC   C4B52882  18.923   0.070   7.423
 3947POPC   NC352883  22.402  31.817   5.145
 3947POPC   PO452884  23.128  31.784   5.384
 3947POPC   GL152885  22.965  31.646   5.769
 3947POPC   GL252886  22.787  31.361   5.903
 3947POPC   C1A52887  23.193  31.601   6.137
 3947POPC   D2A52888  23.340  31.491   6.539
 3947POPC   C3A52889  23.177  31.682   6.929
 3947POPC   C4A52890  23.010  31.478   7.310
 3947POPC   C1B52891  22.917  31.230   6.336
 3947POPC   C2B52892  22.878  31.273   6.811
 3947POPC   C3B52893  22.636  31.169   7.208
 3947POPC   C4B52894  22.638  31.276   7.661
 3948POPC   NC352895  24.493  28.343   5.126
 3948POPC   PO452896  24.719  28.032   5.586
 3948POPC   GL152897  24.625  28.446   5.707
 3948POPC   GL252898  24.311  28.578   5.596
 3948POPC   C1A52899  24.597  28.630   6.099
 3948POPC   D2A52900  24.685  28.443   6.479
 3948POPC   C3A52901  24.629  28.595   6.875
 3948POPC   C4A52902  24.609  28.392   7.249
 3948POPC   C1B52903  24.094  28.658   6.019
 3948POPC   C2B52904  24.175  28.628   6.484
 3948POPC   C3B52905  24.135  28.542   6.942
 3948POPC   C4B52906  24.131  28.500   7.411
 3949POPC   NC352907   5.454  11.165   5.409
 3949POPC   PO452908   6.103  11.484   5.375
 3949POPC   GL152909   5.925  11.393   5.785
 3949POPC   GL252910   6.111  11.141   5.949
 3949POPC   C1A52911   5.884  11.459   6.262
 3949POPC   D2A52912   5.816  11.305   6.685
 3949POPC   C3A52913   5.700  11.667   6.920
 3949POPC   C4A52914   5.769  11.739   7.348
 3949POPC   C1B52915   5.914  10.934   6.311
 3949POPC   C2B52916   5.917  10.748   6.730
 3949POPC   C3B52917   5.998  11.018   7.105
 3949POPC   C4B52918   5.665  11.254   7.193
 3950POPC   NC352919  20.924  25.470   5.572
 3950POPC   PO452920  21.464  25.184   5.412
 3950POPC   GL152921  21.345  25.127   5.854
 3950POPC   GL252922  21.457  24.792   5.985
 3950POPC   C1A52923  21.487  25.213   6.298
 3950POPC   D2A52924  21.753  25.069   6.642
 3950POPC   C3A52925  21.559  25.171   7.047
 3950POPC   C4A52926  21.291  25.322   7.356
 3950POPC   C1B52927  21.090  24.915   6.264
 3950POPC   C2B52928  21.144  25.075   6.723
 3950POPC   C3B52929  21.172  24.832   7.138
 3950POPC   C4B52930  21.332  24.850   7.571
 3951POPC   NC352931  26.445  19.743   5.134
 3951POPC   PO452932  25.801  20.002   5.148
 3951POPC   GL152933  25.735  19.867   5.610
 3951POPC   GL252934  26.044  19.928   5.728
 3951POPC   C1A52935  25.723  19.919   6.103
 3951POPC   D2A52936  25.744  19.955   6.589
 3951POPC   C3A52937  25.881  19.820   7.019
 3951POPC   C4A52938  26.311  19.615   7.173
 3951POPC   C1B52939  26.204  20.183   6.081
 3951POPC   C2B52940  26.193  20.257   6.533
 3951POPC   C3B52941  26.315  20.062   6.887
 3951POPC   C4B52942  26.198  20.091   7.312
 3952POPC   NC352943  17.843  30.114   5.458
 3952POPC   PO452944  17.351  29.778   5.171
 3952POPC   GL152945  17.311  29.785   5.665
 3952POPC   GL252946  17.591  29.954   5.877
 3952POPC   C1A52947  17.191  29.759   6.120
 3952POPC   D2A52948  17.402  29.995   6.471
 3952POPC   C3A52949  17.272  29.843   6.866
 3952POPC   C4A52950  17.231  29.546   7.191
 3952POPC   C1B52951  17.733  30.286   6.183
 3952POPC   C2B52952  17.876  30.302   6.591
 3952POPC   C3B52953  17.764  30.017   6.909
 3952POPC   C4B52954  17.488  30.087   7.269
 3953POPC   NC352955  20.002  18.365   5.289
 3953POPC   PO452956  19.758  17.748   5.471
 3953POPC   GL152957  19.931  18.142   5.752
 3953POPC   GL252958  19.692  18.369   5.926
 3953POPC   C1A52959  20.164  18.309   6.121
 3953POPC   D2A52960  20.066  18.492   6.509
 3953POPC   C3A52961  19.989  18.199   6.800
 3953POPC   C4A52962  19.895  18.292   7.201
 3953POPC   C1B52963  19.402  18.221   6.225
 3953POPC   C2B52964  19.499  18.142   6.633
 3953POPC   C3B52965  19.379  18.354   6.999
 3953POPC   C4B52966  19.409  18.248   7.425
 3954POPC   NC352967  10.253   7.743   5.534
 3954POPC   PO452968  10.743   7.297   5.346
 3954POPC   GL152969  10.591   7.432   5.737
 3954POPC   GL252970  10.259   7.246   5.695
 3954POPC   C1A52971  10.637   7.662   6.138
 3954POPC   D2A52972  10.723   7.452   6.540
 3954POPC   C3A52973  10.678   7.556   6.970
 3954POPC   C4A52974  10.927   7.368   7.270
 3954POPC   C1B52975  10.282   7.190   6.133
 3954POPC   C2B52976  10.354   7.080   6.571
 3954POPC   C3B52977  10.304   7.189   7.002
 3954POPC   C4B52978  10.480   7.201   7.400
 3955POPC   NC352979   5.361  41.521   5.464
 3955POPC   PO452980   6.020  41.278   5.451
 3955POPC   GL152981   5.939  41.481   5.830
 3955POPC   GL252982   5.738  41.740   5.770
 3955POPC   C1A52983   6.141  41.408   6.218
 3955POPC   D2A52984   6.273  41.173   6.557
 3955POPC   C3A52985   6.044  41.182   6.929
 3955POPC   C4A52986   6.053  41.410   7.298
 3955POPC   C1B52987   5.813  41.803   6.240
 3955POPC   C2B52988   5.944  41.641   6.649
 3955POPC   C3B52989   6.026  41.834   7.034
 3955POPC   C4B52990   5.856  41.835   7.465
 3956POPC   NC352991  10.465  10.855   5.587
 3956POPC   PO452992  10.702  10.182   5.549
 3956POPC   GL152993  10.667  10.450   5.847
 3956POPC   GL252994  10.312  10.438   5.825
 3956POPC   C1A52995  10.801  10.519   6.261
 3956POPC   D2A52996  11.012  10.735   6.617
 3956POPC   C3A52997  10.806  10.540   6.889
 3956POPC   C4A52998  10.898  10.341   7.229
 3956POPC   C1B52999  10.335  10.279   6.232
 3956POPC   C2B53000  10.343  10.473   6.637
 3956POPC   C3B53001  10.397  10.302   7.055
 3956POPC   C4B53002  10.292   9.956   7.316
 3957POPC   NC353003  19.975  40.607   5.314
 3957POPC   PO453004  19.856  41.142   5.668
 3957POPC   GL153005  19.886  40.710   5.809
 3957POPC   GL253006  19.655  40.432   5.692
 3957POPC   C1A53007  20.036  40.660   6.220
 3957POPC   D2A53008  19.984  40.982   6.548
 3957POPC   C3A53009  19.895  40.843   6.967
 3957POPC   C4A53010  19.960  41.056   7.321
 3957POPC   C1B53011  19.555  40.512   6.156
 3957POPC   C2B53012  19.690  40.549   6.592
 3957POPC   C3B53013  19.553  40.469   7.030
 3957POPC   C4B53014  19.674  40.637   7.441
 3958POPC   NC353015  25.932  43.062   5.410
 3958POPC   PO453016  26.102  42.474   5.472
 3958POPC   GL153017  25.909  42.645   5.788
 3958POPC   GL253018  26.177  42.881   5.811
 3958POPC   C1A53019  25.911  42.764   6.220
 3958POPC   D2A53020  26.163  42.885   6.551
 3958POPC   C3A53021  25.953  42.833   6.918
 3958POPC   C4A53022  25.993  43.063   7.302
 3958POPC   C1B53023  26.150  43.198   6.113
 3958POPC   C2B53024  26.022  43.371   6.512
 3958POPC   C3B53025  26.111  43.420   6.957
 3958POPC   C4B53026  26.381  43.430   7.332
 3959POPC   NC353027  20.045  37.604   5.535
 3959POPC   PO453028  19.394  37.785   5.671
 3959POPC   GL153029  19.656  37.476   5.862
 3959POPC   GL253030  19.399  37.217   5.930
 3959POPC   C1A53031  19.961  37.529   6.239
 3959POPC   D2A53032  19.994  37.284   6.638
 3959POPC   C3A53033  20.086  37.520   7.025
 3959POPC   C4A53034  20.080  37.929   7.276
 3959POPC   C1B53035  19.453  37.462   6.326
 3959POPC   C2B53036  19.425  37.818   6.589
 3959POPC   C3B53037  19.650  37.937   6.934
 3959POPC   C4B53038  19.662  37.634   7.247
 3960POPC   NC353039   6.235  19.604   5.575
 3960POPC   PO453040   6.880  19.841   5.353
 3960POPC   GL153041   6.617  19.909   5.736
 3960POPC   GL253042   6.352  20.124   5.591
 3960POPC   C1A53043   6.462  19.741   6.168
 3960POPC   D2A53044   6.634  19.590   6.571
 3960POPC   C3A53045   6.510  19.758   6.979
 3960POPC   C4A53046   6.635  19.621   7.413
 3960POPC   C1B53047   6.285  20.214   6.049
 3960POPC   C2B53048   6.538  20.181   6.447
 3960POPC   C3B53049   6.435  20.292   6.895
 3960POPC   C4B53050   6.514  20.152   7.326
 3961POPC   NC353051  18.539  17.862   5.509
 3961POPC   PO453052  18.109  17.313   5.397
 3961POPC   GL153053  18.331  17.452   5.762
 3961POPC   GL253054  18.143  17.738   5.825
 3961POPC   C1A53055  18.463  17.564   6.190
 3961POPC   D2A53056  18.238  17.640   6.587
 3961POPC   C3A53057  18.387  17.470   6.967
 3961POPC   C4A53058  18.314  17.243   7.347
 3961POPC   C1B53059  18.004  17.914   6.195
 3961POPC   C2B53060  18.009  18.096   6.606
 3961POPC   C3B53061  18.056  17.904   7.021
 3961POPC   C4B53062  18.083  17.685   7.399
 3962POPC   NC353063  18.474  22.083   5.321
 3962POPC   PO453064  17.938  21.692   5.380
 3962POPC   GL153065  18.092  22.011   5.681
 3962POPC   GL253066  18.449  22.031   5.831
 3962POPC   C1A53067  18.027  22.071   6.132
 3962POPC   D2A53068  18.374  22.145   6.419
 3962POPC   C3A53069  18.411  22.163   6.869
 3962POPC   C4A53070  18.730  21.903   7.053
 3962POPC   C1B53071  18.364  22.469   6.010
 3962POPC   C2B53072  18.290  22.661   6.431
 3962POPC   C3B53073  18.408  22.672   6.871
 3962POPC   C4B53074  18.185  22.538   7.256
 3963POPC   NC353075  35.935  31.549   5.466
 3963POPC   PO453076  36.551  31.081   5.535
 3963POPC   GL153077  36.279  31.256   5.808
 3963POPC   GL253078  35.947  31.124   5.774
 3963POPC   C1A53079  36.353  31.548   6.135
 3963POPC   D2A53080  36.490  31.473   6.550
 3963POPC   C3A53081  36.140  31.504   6.815
 3963POPC   C4A53082  36.164  31.478   7.230
 3963POPC   C1B53083  35.920  31.233   6.219
 3963POPC   C2B53084  35.903  31.077   6.634
 3963POPC   C3B53085  35.755  31.224   7.016
 3963POPC   C4B53086  35.697  31.669   7.111
 3964POPC   NC353087  18.429   6.366   5.377
 3964POPC   PO453088  18.042   6.938   5.431
 3964POPC   GL153089  18.103   6.625   5.735
 3964POPC   GL253090  18.447   6.714   5.824
 3964POPC   C1A53091  18.093   6.549   6.183
 3964POPC   D2A53092  18.333   6.560   6.591
 3964POPC   C3A53093  18.260   6.293   6.950
 3964POPC   C4A53094  17.924   6.293   7.241
 3964POPC   C1B53095  18.650   6.494   6.183
 3964POPC   C2B53096  18.830   6.608   6.587
 3964POPC   C3B53097  18.747   6.489   7.010
 3964POPC   C4B53098  18.845   6.526   7.434
 3965POPC   NC353099  20.478  14.814   5.556
 3965POPC   PO453100  20.723  14.220   5.524
 3965POPC   GL153101  20.764  14.159   5.905
 3965POPC   GL253102  20.624  14.495   5.962
 3965POPC   C1A53103  20.823  14.200   6.330
 3965POPC   D2A53104  20.629  14.535   6.561
 3965POPC   C3A53105  20.710  14.385   6.970
 3965POPC   C4A53106  20.485  14.323   7.332
 3965POPC   C1B53107  20.218  14.622   6.144
 3965POPC   C2B53108  20.086  14.676   6.548
 3965POPC   C3B53109  20.313  14.717   6.933
 3965POPC   C4B53110  20.249  14.854   7.335
 3966POPC   NC353111  39.035  20.888   5.443
 3966POPC   PO453112  39.479  20.390   5.250
 3966POPC   GL153113  39.405  20.417   5.726
 3966POPC   GL253114  39.114  20.571   5.839
 3966POPC   C1A53115  39.459  20.529   6.181
 3966POPC   D2A53116  39.236  20.578   6.564
 3966POPC   C3A53117  39.432  20.562   6.967
 3966POPC   C4A53118  39.308  20.426   7.362
 3966POPC   C1B53119  38.901  20.326   6.183
 3966POPC   C2B53120  38.844  20.252   6.615
 3966POPC   C3B53121  38.904  20.465   7.009
 3966POPC   C4B53122  38.635  20.445   7.340
 3967POPC   NC353123  36.581  11.298   5.327
 3967POPC   PO453124  37.184  11.217   5.538
 3967POPC   GL153125  36.891  11.479   5.749
 3967POPC   GL253126  36.614  11.400   5.969
 3967POPC   C1A53127  37.037  11.489   6.187
 3967POPC   D2A53128  36.851  11.498   6.556
 3967POPC   C3A53129  37.051  11.213   6.799
 3967POPC   C4A53130  37.043  11.230   7.218
 3967POPC   C1B53131  36.699  11.083   6.301
 3967POPC   C2B53132  36.547  11.112   6.703
 3967POPC   C3B53133  36.578  11.416   7.020
 3967POPC   C4B53134  36.315  11.560   7.354
 3968POPC   NC353135  25.082  11.709   5.379
 3968POPC   PO453136  25.488  12.295   5.428
 3968POPC   GL153137  25.315  12.259   5.818
 3968POPC   GL253138  25.323  11.924   5.787
 3968POPC   C1A53139  25.027  12.091   6.161
 3968POPC   D2A53140  24.800  11.987   6.540
 3968POPC   C3A53141  25.000  12.204   6.877
 3968POPC   C4A53142  25.265  12.162   7.219
 3968POPC   C1B53143  25.551  11.975   6.171
 3968POPC   C2B53144  25.366  11.998   6.571
 3968POPC   C3B53145  25.484  11.710   6.867
 3968POPC   C4B53146  25.528  11.745   7.259
 3969POPC   NC353147  31.438  18.127   5.510
 3969POPC   PO453148  31.345  18.769   5.705
 3969POPC   GL153149  31.535  18.482   5.904
 3969POPC   GL253150  31.309  18.230   6.014
 3969POPC   C1A53151  31.713  18.578   6.280
 3969POPC   D2A53152  31.810  18.346   6.677
 3969POPC   C3A53153  31.718  18.626   7.045
 3969POPC   C4A53154  31.441  18.639   7.438
 3969POPC   C1B53155  31.700  18.078   6.228
 3969POPC   C2B53156  31.808  17.832   6.580
 3969POPC   C3B53157  31.794  17.936   7.014
 3969POPC   C4B53158  31.459  18.209   7.103
 3970POPC   NC353159  42.628  28.665   5.440
 3970POPC   PO453160  42.349  28.144   5.308
 3970POPC   GL153161  42.195  28.181   5.722
 3970POPC   GL253162  42.250  28.535   5.778
 3970POPC   C1A53163  42.316  28.186   6.153
 3970POPC   D2A53164  42.128  28.140   6.536
 3970POPC   C3A53165  42.086  28.423   6.871
 3970POPC   C4A53166  42.235  28.393   7.285
 3970POPC   C1B53167  42.371  28.710   6.177
 3970POPC   C2B53168  42.489  28.544   6.587
 3970POPC   C3B53169  42.660  28.465   7.020
 3970POPC   C4B53170  42.687  28.524   7.518
 3971POPC   NC353171  40.638  23.256   5.077
 3971POPC   PO453172  40.827  22.645   5.311
 3971POPC   GL153173  40.856  22.658   5.772
 3971POPC   GL253174  40.477  22.636   5.824
 3971POPC   C1A53175  41.013  22.573   6.218
 3971POPC   D2A53176  40.842  22.704   6.625
 3971POPC   C3A53177  41.048  22.956   6.944
 3971POPC   C4A53178  41.067  23.198   7.324
 3971POPC   C1B53179  40.587  22.887   6.188
 3971POPC   C2B53180  40.491  23.096   6.561
 3971POPC   C3B53181  40.523  22.961   6.958
 3971POPC   C4B53182  40.373  22.842   7.321
 3972POPC   NC353183  35.304   6.199   5.265
 3972POPC   PO453184  35.347   5.535   5.367
 3972POPC   GL153185  35.348   5.915   5.702
 3972POPC   GL253186  35.022   5.978   5.841
 3972POPC   C1A53187  35.404   5.939   6.190
 3972POPC   D2A53188  35.370   5.602   6.536
 3972POPC   C3A53189  35.624   5.658   6.929
 3972POPC   C4A53190  35.733   5.980   7.241
 3972POPC   C1B53191  34.965   5.689   6.186
 3972POPC   C2B53192  34.954   5.911   6.529
 3972POPC   C3B53193  35.206   5.959   6.866
 3972POPC   C4B53194  35.135   5.946   7.248
 3973POPC   NC353195  21.381   4.802   5.458
 3973POPC   PO453196  21.266   5.411   5.274
 3973POPC   GL153197  21.474   5.431   5.699
 3973POPC   GL253198  21.415   5.108   5.904
 3973POPC   C1A53199  21.445   5.556   6.148
 3973POPC   D2A53200  21.548   5.338   6.505
 3973POPC   C3A53201  21.412   5.443   6.920
 3973POPC   C4A53202  21.401   5.223   7.340
 3973POPC   C1B53203  21.180   5.016   6.333
 3973POPC   C2B53204  21.205   4.981   6.825
 3973POPC   C3B53205  21.316   4.729   7.224
 3973POPC   C4B53206  21.294   4.438   7.607
 3974POPC   NC353207  20.246  11.128   5.069
 3974POPC   PO453208  19.752  11.098   5.484
 3974POPC   GL153209  19.956  11.204   5.866
 3974POPC   GL253210  19.662  11.179   6.013
 3974POPC   C1A53211  19.983  11.503   6.220
 3974POPC   D2A53212  19.790  11.535   6.637
 3974POPC   C3A53213  20.081  11.517   6.963
 3974POPC   C4A53214  20.278  11.183   7.170
 3974POPC   C1B53215  19.910  10.999   6.360
 3974POPC   C2B53216  19.888  11.052   6.818
 3974POPC   C3B53217  19.738  11.228   7.215
 3974POPC   C4B53218  19.642  11.309   7.644
 3975POPC   NC353219  19.266  38.117   5.358
 3975POPC   PO453220  18.848  38.615   5.556
 3975POPC   GL153221  19.084  38.492   5.862
 3975POPC   GL253222  18.823  38.319   6.044
 3975POPC   C1A53223  19.159  38.772   6.215
 3975POPC   D2A53224  19.309  38.901   6.611
 3975POPC   C3A53225  19.038  38.730   6.919
 3975POPC   C4A53226  19.122  38.592   7.298
 3975POPC   C1B53227  19.201  38.239   6.285
 3975POPC   C2B53228  19.305  38.319   6.689
 3975POPC   C3B53229  19.129  38.163   7.056
 3975POPC   C4B53230  18.809  37.904   7.248
 3976POPC   NC353231  38.826  43.523   5.638
 3976POPC   PO453232  39.486  43.608   5.492
 3976POPC   GL153233  39.234  43.914   5.741
 3976POPC   GL253234  39.528  44.035   5.916
 3976POPC   C1A53235  39.080  44.233   6.059
 3976POPC   D2A53236  39.334  44.340   6.428
 3976POPC   C3A53237  39.224  44.184   6.826
 3976POPC   C4A53238  39.132  44.261   7.255
 3976POPC   C1B53239  39.304  43.835   6.283
 3976POPC   C2B53240  39.372  43.713   6.708
 3976POPC   C3B53241  39.305  43.765   7.184
 3976POPC   C4B53242  39.607  43.551   7.526
 3977POPC   NC353243  17.818  27.645   5.286
 3977POPC   PO453244  18.461  27.993   5.240
 3977POPC   GL153245  18.265  27.712   5.578
 3977POPC   GL253246  17.949  27.795   5.743
 3977POPC   C1A53247  18.291  27.583   6.048
 3977POPC   D2A53248  18.396  27.448   6.475
 3977POPC   C3A53249  18.242  27.512   6.889
 3977POPC   C4A53250  18.479  27.770   7.166
 3977POPC   C1B53251  17.875  27.902   6.148
 3977POPC   C2B53252  17.936  27.738   6.528
 3977POPC   C3B53253  17.772  27.808   6.918
 3977POPC   C4B53254  17.954  27.684   7.287
 3978POPC   NC353255  26.627  28.727   5.335
 3978POPC   PO453256  25.965  28.408   5.319
 3978POPC   GL153257  25.957  28.637   5.725
 3978POPC   GL253258  26.318  28.669   5.779
 3978POPC   C1A53259  25.853  28.531   6.171
 3978POPC   D2A53260  25.722  28.286   6.555
 3978POPC   C3A53261  25.953  28.181   6.960
 3978POPC   C4A53262  26.118  28.335   7.359
 3978POPC   C1B53263  26.270  28.800   6.223
 3978POPC   C2B53264  26.082  28.718   6.667
 3978POPC   C3B53265  26.260  28.781   7.116
 3978POPC   C4B53266  26.566  28.564   7.443
 3979POPC   NC353267  21.023  37.457   5.434
 3979POPC   PO453268  20.461  37.779   5.671
 3979POPC   GL153269  20.608  38.018   5.972
 3979POPC   GL253270  20.951  37.943   5.938
 3979POPC   C1A53271  20.352  37.977   6.319
 3979POPC   D2A53272  20.340  37.685   6.616
 3979POPC   C3A53273  20.502  37.809   7.004
 3979POPC   C4A53274  20.541  37.517   7.293
 3979POPC   C1B53275  20.864  37.650   6.279
 3979POPC   C2B53276  20.856  37.581   6.717
 3979POPC   C3B53277  21.023  37.655   7.126
 3979POPC   C4B53278  20.842  37.979   7.366
 3980POPC   NC353279  39.975  28.737   5.175
 3980POPC   PO453280  39.845  28.074   5.398
 3980POPC   GL153281  40.154  28.247   5.750
 3980POPC   GL253282  40.518  28.148   5.827
 3980POPC   C1A53283  40.240  28.456   6.158
 3980POPC   D2A53284  40.167  28.648   6.559
 3980POPC   C3A53285  39.955  28.395   6.837
 3980POPC   C4A53286  40.062  28.334   7.268
 3980POPC   C1B53287  40.287  27.939   6.130
 3980POPC   C2B53288  40.136  28.050   6.509
 3980POPC   C3B53289  40.270  28.012   6.919
 3980POPC   C4B53290  40.458  28.011   7.309
 3981POPC   NC353291  11.458  44.256   5.528
 3981POPC   PO453292  11.042  43.747   5.303
 3981POPC   GL153293  11.164  43.869   5.740
 3981POPC   GL253294  11.534  43.800   5.808
 3981POPC   C1A53295  11.187  44.011   6.195
 3981POPC   D2A53296  11.285  44.268   6.572
 3981POPC   C3A53297  11.230  44.140   7.015
 3981POPC   C4A53298  11.030  43.763   7.179
 3981POPC   C1B53299  11.397  43.538   6.181
 3981POPC   C2B53300  11.336  43.717   6.618
 3981POPC   C3B53301  11.512  43.698   7.036
 3981POPC   C4B53302  11.450  43.600   7.488
 3982POPC   NC353303   3.557  34.093   5.393
 3982POPC   PO453304   3.555  33.472   5.515
 3982POPC   GL153305   3.589  33.789   5.822
 3982POPC   GL253306   3.878  34.038   5.799
 3982POPC   C1A53307   3.460  33.790   6.261
 3982POPC   D2A53308   3.310  33.599   6.658
 3982POPC   C3A53309   3.573  33.705   6.993
 3982POPC   C4A53310   3.485  33.637   7.427
 3982POPC   C1B53311   3.699  34.225   6.203
 3982POPC   C2B53312   3.509  34.128   6.646
 3982POPC   C3B53313   3.732  34.194   7.039
 3982POPC   C4B53314   4.059  34.364   7.299
 3983POPC   NC353315   9.110  39.000   5.412
 3983POPC   PO453316   8.722  39.561   5.305
 3983POPC   GL153317   8.747  39.303   5.657
 3983POPC   GL253318   8.581  39.004   5.723
 3983POPC   C1A53319   8.943  39.315   6.055
 3983POPC   D2A53320   8.903  39.450   6.475
 3983POPC   C3A53321   8.662  39.255   6.772
 3983POPC   C4A53322   8.670  39.211   7.214
 3983POPC   C1B53323   8.876  38.799   6.057
 3983POPC   C2B53324   9.084  38.979   6.431
 3983POPC   C3B53325   9.049  38.934   6.876
 3983POPC   C4B53326   9.223  38.854   7.265
 3984POPC   NC353327   4.948  35.079   5.583
 3984POPC   PO453328   5.306  35.601   5.347
 3984POPC   GL153329   5.160  35.561   5.811
 3984POPC   GL253330   4.805  35.526   5.859
 3984POPC   C1A53331   5.228  35.331   6.243
 3984POPC   D2A53332   5.554  35.268   6.562
 3984POPC   C3A53333   5.438  35.455   6.952
 3984POPC   C4A53334   5.091  35.666   7.184
 3984POPC   C1B53335   4.923  35.736   6.264
 3984POPC   C2B53336   5.006  35.543   6.675
 3984POPC   C3B53337   4.689  35.418   6.992
 3984POPC   C4B53338   4.597  35.603   7.391
 3985POPC   NC353339  33.049  40.738   5.401
 3985POPC   PO453340  33.006  41.240   5.182
 3985POPC   GL153341  32.893  41.044   5.749
 3985POPC   GL253342  32.876  40.704   5.874
 3985POPC   C1A53343  33.072  41.035   6.209
 3985POPC   D2A53344  32.905  40.902   6.631
 3985POPC   C3A53345  33.044  40.998   7.072
 3985POPC   C4A53346  32.860  40.846   7.472
 3985POPC   C1B53347  32.931  40.513   6.275
 3985POPC   C2B53348  32.911  40.384   6.690
 3985POPC   C3B53349  32.749  40.569   7.043
 3985POPC   C4B53350  32.447  40.539   7.387
 3986POPC   NC353351   5.106  22.639   5.206
 3986POPC   PO453352   5.416  22.167   5.537
 3986POPC   GL153353   5.343  22.104   5.916
 3986POPC   GL253354   5.036  22.168   5.965
 3986POPC   C1A53355   5.328  22.061   6.367
 3986POPC   D2A53356   5.034  22.196   6.689
 3986POPC   C3A53357   5.230  22.045   7.067
 3986POPC   C4A53358   5.412  22.231   7.425
 3986POPC   C1B53359   4.811  22.492   6.206
 3986POPC   C2B53360   4.554  22.632   6.558
 3986POPC   C3B53361   4.594  22.447   6.940
 3986POPC   C4B53362   4.735  22.043   7.104
 3987POPC   NC353363  27.707  30.899   5.323
 3987POPC   PO453364  27.049  30.666   5.464
 3987POPC   GL153365  27.250  30.642   5.881
 3987POPC   GL253366  27.585  30.798   5.844
 3987POPC   C1A53367  27.339  30.801   6.329
 3987POPC   D2A53368  27.616  30.955   6.693
 3987POPC   C3A53369  27.473  30.756   7.051
 3987POPC   C4A53370  27.268  30.338   7.032
 3987POPC   C1B53371  27.836  30.841   6.231
 3987POPC   C2B53372  28.070  30.684   6.586
 3987POPC   C3B53373  27.977  30.518   7.008
 3987POPC   C4B53374  27.905  30.821   7.312
 3988POPC   NC353375  15.426  14.053   5.418
 3988POPC   PO453376  14.861  14.423   5.384
 3988POPC   GL153377  15.185  14.360   5.755
 3988POPC   GL253378  15.454  14.612   5.817
 3988POPC   C1A53379  15.188  14.309   6.224
 3988POPC   D2A53380  14.791  14.290   6.510
 3988POPC   C3A53381  14.861  14.020   6.872
 3988POPC   C4A53382  15.236  14.100   7.111
 3988POPC   C1B53383  15.517  14.767   6.242
 3988POPC   C2B53384  15.411  14.569   6.647
 3988POPC   C3B53385  15.019  14.549   6.892
 3988POPC   C4B53386  14.822  14.361   7.242
 3989POPC   NC353387   8.489  42.825   5.361
 3989POPC   PO453388   7.972  43.149   5.611
 3989POPC   GL153389   8.401  43.273   5.690
 3989POPC   GL253390   8.679  43.053   5.766
 3989POPC   C1A53391   8.504  43.372   6.126
 3989POPC   D2A53392   8.233  43.224   6.479
 3989POPC   C3A53393   8.140  43.414   6.896
 3989POPC   C4A53394   8.022  43.200   7.262
 3989POPC   C1B53395   8.426  42.808   6.061
 3989POPC   C2B53396   8.367  42.682   6.499
 3989POPC   C3B53397   8.295  42.892   6.899
 3989POPC   C4B53398   8.220  42.753   7.315
 3990POPC   NC353399  36.801  40.421   5.362
 3990POPC   PO453400  37.146  41.011   5.435
 3990POPC   GL153401  37.023  40.735   5.742
 3990POPC   GL253402  36.657  40.771   5.783
 3990POPC   C1A53403  37.082  40.720   6.196
 3990POPC   D2A53404  37.235  40.890   6.613
 3990POPC   C3A53405  37.111  40.570   6.935
 3990POPC   C4A53406  36.695  40.598   7.133
 3990POPC   C1B53407  36.655  41.015   6.201
 3990POPC   C2B53408  36.350  41.122   6.550
 3990POPC   C3B53409  36.513  41.094   6.974
 3990POPC   C4B53410  36.941  41.042   7.109
 3991POPC   NC353411  13.577  29.309   5.305
 3991POPC   PO453412  13.506  28.705   5.245
 3991POPC   GL153413  13.666  28.964   5.661
 3991POPC   GL253414  13.837  29.312   5.745
 3991POPC   C1A53415  13.679  28.976   6.120
 3991POPC   D2A53416  13.702  29.127   6.560
 3991POPC   C3A53417  13.661  28.886   6.935
 3991POPC   C4A53418  13.335  28.923   7.238
 3991POPC   C1B53419  13.528  29.485   6.081
 3991POPC   C2B53420  13.393  29.544   6.554
 3991POPC   C3B53421  13.540  29.403   6.974
 3991POPC   C4B53422  13.935  29.362   7.152
 3992POPC   NC353423   2.317   7.652   5.472
 3992POPC   PO453424   1.793   7.187   5.221
 3992POPC   GL153425   2.000   7.286   5.636
 3992POPC   GL253426   1.868   7.609   5.739
 3992POPC   C1A53427   2.117   7.314   6.112
 3992POPC   D2A53428   2.179   7.156   6.568
 3992POPC   C3A53429   2.197   7.404   6.968
 3992POPC   C4A53430   2.281   7.301   7.404
 3992POPC   C1B53431   1.865   7.788   6.145
 3992POPC   C2B53432   1.961   7.667   6.566
 3992POPC   C3B53433   1.755   7.726   6.949
 3992POPC   C4B53434   1.972   7.694   7.348
 3993POPC   NC353435  31.746  17.245   5.151
 3993POPC   PO453436  31.479  17.674   5.418
 3993POPC   GL153437  31.496  17.763   5.872
 3993POPC   GL253438  31.798  17.625   6.030
 3993POPC   C1A53439  31.302  17.762   6.289
 3993POPC   D2A53440  31.215  17.528   6.666
 3993POPC   C3A53441  31.287  17.730   7.064
 3993POPC   C4A53442  31.067  17.702   7.452
 3993POPC   C1B53443  31.646  17.383   6.408
 3993POPC   C2B53444  31.679  17.423   6.883
 3993POPC   C3B53445  31.915  17.497   7.277
 3993POPC   C4B53446  31.857  17.443   7.746
 3994POPC   NC353447  33.378   9.060   5.408
 3994POPC   PO453448  34.024   8.894   5.448
 3994POPC   GL153449  33.949   8.641   5.865
 3994POPC   GL253450  33.609   8.705   5.883
 3994POPC   C1A53451  33.884   8.684   6.330
 3994POPC   D2A53452  34.100   9.072   6.505
 3994POPC   C3A53453  34.075   9.177   6.954
 3994POPC   C4A53454  33.950   8.869   7.267
 3994POPC   C1B53455  33.785   9.112   6.072
 3994POPC   C2B53456  33.638   9.301   6.486
 3994POPC   C3B53457  33.556   9.081   6.890
 3994POPC   C4B53458  33.578   9.201   7.323
 3995POPC   NC353459  42.313  41.708   4.951
 3995POPC   PO453460  42.727  41.470   5.410
 3995POPC   GL153461  42.338  41.632   5.589
 3995POPC   GL253462  42.146  41.328   5.721
 3995POPC   C1A53463  42.244  41.710   6.047
 3995POPC   D2A53464  42.246  41.486   6.460
 3995POPC   C3A53465  42.460  41.581   6.840
 3995POPC   C4A53466  42.209  41.744   7.151
 3995POPC   C1B53467  42.317  41.140   6.089
 3995POPC   C2B53468  42.272  40.973   6.511
 3995POPC   C3B53469  42.177  41.132   6.927
 3995POPC   C4B53470  42.413  41.290   7.269
 3996POPC   NC353471  34.944  26.999   4.953
 3996POPC   PO453472  34.537  26.566   5.334
 3996POPC   GL153473  34.576  26.753   5.780
 3996POPC   GL253474  34.863  26.974   5.693
 3996POPC   C1A53475  34.350  26.875   6.220
 3996POPC   D2A53476  34.238  26.736   6.676
 3996POPC   C3A53477  34.367  26.950   7.066
 3996POPC   C4A53478  34.712  26.717   7.309
 3996POPC   C1B53479  34.853  26.964   6.168
 3996POPC   C2B53480  34.719  27.056   6.632
 3996POPC   C3B53481  34.790  27.231   7.087
 3996POPC   C4B53482  35.067  27.155   7.400
 3997POPC   NC353483  33.820   0.224   5.165
 3997POPC   PO453484  34.285   0.309   5.672
 3997POPC   GL153485  34.040   0.655   5.805
 3997POPC   GL253486  33.762   0.574   5.580
 3997POPC   C1A53487  33.967   0.772   6.241
 3997POPC   D2A53488  33.911   0.584   6.649
 3997POPC   C3A53489  34.095   0.637   7.043
 3997POPC   C4A53490  34.186   0.274   7.271
 3997POPC   C1B53491  33.575   0.481   5.959
 3997POPC   C2B53492  33.482   0.572   6.376
 3997POPC   C3B53493  33.446   0.370   6.769
 3997POPC   C4B53494  33.675   0.336   7.160
 3998POPC   NC353495  22.348  15.821   5.129
 3998POPC   PO453496  22.137  16.373   5.414
 3998POPC   GL153497  22.262  16.032   5.696
 3998POPC   GL253498  21.949  15.957   5.692
 3998POPC   C1A53499  22.322  16.058   6.162
 3998POPC   D2A53500  22.504  16.120   6.579
 3998POPC   C3A53501  22.381  15.922   6.985
 3998POPC   C4A53502  22.258  15.757   7.404
 3998POPC   C1B53503  21.855  16.246   6.051
 3998POPC   C2B53504  22.000  16.370   6.466
 3998POPC   C3B53505  22.031  16.292   6.892
 3998POPC   C4B53506  21.783  16.316   7.266
 3999POPC   NC353507  22.029  41.136   5.403
 3999POPC   PO453508  22.319  40.525   5.581
 3999POPC   GL153509  21.971  40.615   5.907
 3999POPC   GL253510  21.949  40.956   5.878
 3999POPC   C1A53511  21.850  40.755   6.361
 3999POPC   D2A53512  21.837  40.820   6.839
 3999POPC   C3A53513  21.940  40.492   7.150
 3999POPC   C4A53514  21.977  40.496   7.616
 3999POPC   C1B53515  22.287  40.980   6.190
 3999POPC   C2B53516  22.314  40.861   6.627
 3999POPC   C3B53517  22.320  41.134   6.980
 3999POPC   C4B53518  22.623  41.144   7.318
 4000POPC   NC353519  39.595  17.546   5.378
 4000POPC   PO453520  38.954  17.444   5.292
 4000POPC   GL153521  39.160  17.428   5.712
 4000POPC   GL253522  39.471  17.235   5.786
 4000POPC   C1A53523  39.342  17.655   6.067
 4000POPC   D2A53524  39.469  17.666   6.484
 4000POPC   C3A53525  39.195  17.642   6.835
 4000POPC   C4A53526  39.374  17.698   7.224
 4000POPC   C1B53527  39.301  17.187   6.234
 4000POPC   C2B53528  38.937  17.232   6.538
 4000POPC   C3B53529  38.913  17.227   6.982
 4000POPC   C4B53530  39.351  17.167   7.141
 4001POPC   NC353531  19.525  31.566   5.482
 4001POPC   PO453532  19.898  31.113   5.285
 4001POPC   GL153533  19.849  31.185   5.765
 4001POPC   GL253534  19.539  31.312   5.917
 4001POPC   C1A53535  20.026  31.307   6.210
 4001POPC   D2A53536  19.936  31.514   6.645
 4001POPC   C3A53537  19.993  31.270   7.034
 4001POPC   C4A53538  20.103  31.222   7.499
 4001POPC   C1B53539  19.578  31.608   6.245
 4001POPC   C2B53540  19.443  31.646   6.670
 4001POPC   C3B53541  19.583  31.606   7.066
 4001POPC   C4B53542  19.895  31.689   7.335
 4002POPC   NC353543  11.526  38.218   5.478
 4002POPC   PO453544  10.975  38.624   5.494
 4002POPC   GL153545  11.357  38.623   5.751
 4002POPC   GL253546  11.174  38.303   5.844
 4002POPC   C1A53547  11.460  38.522   6.193
 4002POPC   D2A53548  11.112  38.416   6.483
 4002POPC   C3A53549  11.121  38.566   6.876
 4002POPC   C4A53550  11.301  38.586   7.256
 4002POPC   C1B53551  11.272  38.050   6.179
 4002POPC   C2B53552  11.330  37.952   6.601
 4002POPC   C3B53553  11.318  38.114   7.046
 4002POPC   C4B53554  11.197  38.159   7.502
 4003POPC   NC353555  27.320  31.756   5.036
 4003POPC   PO453556  27.566  32.331   5.216
 4003POPC   GL153557  27.791  32.405   5.620
 4003POPC   GL253558  27.487  32.299   5.765
 4003POPC   C1A53559  27.887  32.378   6.102
 4003POPC   D2A53560  27.748  32.197   6.504
 4003POPC   C3A53561  27.916  32.338   6.912
 4003POPC   C4A53562  27.679  32.177   7.250
 4003POPC   C1B53563  27.374  32.169   6.153
 4003POPC   C2B53564  27.241  32.430   6.490
 4003POPC   C3B53565  27.363  32.357   6.885
 4003POPC   C4B53566  27.191  32.463   7.284
 4004POPC   NC353567  14.110  44.719   5.144
 4004POPC   PO453568  14.715  44.601   5.458
 4004POPC   GL153569  14.413  44.759   5.779
 4004POPC   GL253570  14.265  44.521   6.049
 4004POPC   C1A53571  14.388  44.975   6.188
 4004POPC   D2A53572  14.115  44.789   6.516
 4004POPC   C3A53573  14.276  44.772   6.921
 4004POPC   C4A53574  14.567  44.512   7.161
 4004POPC   C1B53575  13.930  44.329   6.285
 4004POPC   C2B53576  13.770  44.382   6.704
 4004POPC   C3B53577  14.064  44.349   7.063
 4004POPC   C4B53578  14.007  44.327   7.515
 4005POPC   NC353579   2.245   5.496   5.586
 4005POPC   PO453580   2.003   5.030   5.208
 4005POPC   GL153581   1.877   5.060   5.661
 4005POPC   GL253582   1.772   5.380   5.773
 4005POPC   C1A53583   1.911   5.058   6.146
 4005POPC   D2A53584   1.875   4.840   6.563
 4005POPC   C3A53585   2.205   4.799   6.841
 4005POPC   C4A53586   2.198   5.059   7.182
 4005POPC   C1B53587   1.533   5.427   6.165
 4005POPC   C2B53588   1.599   5.274   6.553
 4005POPC   C3B53589   1.709   5.299   6.968
 4005POPC   C4B53590   1.559   5.583   7.277
 4006POPC   NC353591  23.163  37.064   5.256
 4006POPC   PO453592  22.703  36.654   5.438
 4006POPC   GL153593  23.019  36.747   5.691
 4006POPC   GL253594  22.834  37.049   5.756
 4006POPC   C1A53595  23.135  36.781   6.119
 4006POPC   D2A53596  23.030  36.988   6.500
 4006POPC   C3A53597  22.898  36.788   6.821
 4006POPC   C4A53598  22.779  36.878   7.197
 4006POPC   C1B53599  22.637  36.956   6.145
 4006POPC   C2B53600  22.470  36.871   6.546
 4006POPC   C3B53601  22.442  37.123   6.910
 4006POPC   C4B53602  22.536  37.321   7.336
 4007POPC   NC353603  10.063   1.123   5.376
 4007POPC   PO453604   9.414   1.279   5.339
 4007POPC   GL153605   9.674   1.255   5.714
 4007POPC   GL253606   9.878   0.977   5.842
 4007POPC   C1A53607   9.863   1.469   6.077
 4007POPC   D2A53608  10.026   1.550   6.501
 4007POPC   C3A53609   9.820   1.314   6.861
 4007POPC   C4A53610   9.868   1.095   7.242
 4007POPC   C1B53611   9.546   1.050   6.172
 4007POPC   C2B53612   9.559   0.966   6.609
 4007POPC   C3B53613   9.445   0.899   7.038
 4007POPC   C4B53614   9.510   0.822   7.502
 4008POPC   NC353615  30.000   1.632   5.357
 4008POPC   PO453616  29.655   2.249   5.423
 4008POPC   GL153617  29.766   1.869   5.731
 4008POPC   GL253618  30.157   1.760   5.821
 4008POPC   C1A53619  29.817   1.771   6.177
 4008POPC   D2A53620  29.890   2.049   6.548
 4008POPC   C3A53621  29.916   1.911   6.991
 4008POPC   C4A53622  30.177   2.136   7.269
 4008POPC   C1B53623  30.334   1.675   6.227
 4008POPC   C2B53624  30.320   1.781   6.650
 4008POPC   C3B53625  30.322   1.580   7.058
 4008POPC   C4B53626  30.130   1.658   7.430
 4009POPC   NC353627  44.543   8.654   5.344
 4009POPC   PO453628  44.731   9.275   5.470
 4009POPC   GL153629  44.490   9.059   5.773
 4009POPC   GL253630  44.695   8.785   5.844
 4009POPC   C1A53631  44.519   9.087   6.237
 4009POPC   D2A53632  44.610   8.872   6.627
 4009POPC   C3A53633  44.560   9.025   7.033
 4009POPC   C4A53634  44.455   8.663   7.262
 4009POPC   C1B53635  44.950   8.795   6.256
 4009POPC   C2B53636   0.148   8.796   6.665
 4009POPC   C3B53637  44.951   8.701   7.048
 4009POPC   C4B53638  44.872   8.892   7.451
 4010POPC   NC353639   1.707   3.688   5.280
 4010POPC   PO453640   1.076   3.348   5.418
 4010POPC   GL153641   1.316   3.547   5.683
 4010POPC   GL253642   1.448   3.293   5.845
 4010POPC   C1A53643   1.301   3.737   6.111
 4010POPC   D2A53644   1.362   3.567   6.526
 4010POPC   C3A53645   1.265   3.688   6.957
 4010POPC   C4A53646   1.203   4.048   7.216
 4010POPC   C1B53647   1.029   3.329   6.068
 4010POPC   C2B53648   0.911   3.323   6.508
 4010POPC   C3B53649   0.974   3.268   6.948
 4010POPC   C4B53650   1.004   3.377   7.385
 4011POPC   NC353651   7.935  42.075   5.473
 4011POPC   PO453652   7.347  42.463   5.423
 4011POPC   GL153653   7.437  42.252   5.776
 4011POPC   GL253654   7.196  41.954   5.762
 4011POPC   C1A53655   7.340  42.403   6.199
 4011POPC   D2A53656   7.299  42.246   6.613
 4011POPC   C3A53657   7.343  42.524   6.963
 4011POPC   C4A53658   7.650  42.702   7.267
 4011POPC   C1B53659   7.436  41.909   6.154
 4011POPC   C2B53660   7.589  41.824   6.549
 4011POPC   C3B53661   7.497  41.867   6.966
 4011POPC   C4B53662   7.623  42.166   7.249
 4012POPC   NC353663  16.853   8.006   5.563
 4012POPC   PO453664  16.622   8.550   5.169
 4012POPC   GL153665  16.499   8.354   5.689
 4012POPC   GL253666  16.813   8.265   5.999
 4012POPC   C1A53667  16.365   8.134   6.111
 4012POPC   D2A53668  16.632   8.209   6.473
 4012POPC   C3A53669  16.526   8.354   6.863
 4012POPC   C4A53670  16.525   8.156   7.254
 4012POPC   C1B53671  17.098   8.443   6.317
 4012POPC   C2B53672  17.285   8.361   6.739
 4012POPC   C3B53673  16.991   8.291   7.096
 4012POPC   C4B53674  17.031   8.449   7.533
 4013POPC   NC353675  35.935  27.945   5.619
 4013POPC   PO453676  36.234  27.352   5.556
 4013POPC   GL153677  36.352  27.475   5.972
 4013POPC   GL253678  36.049  27.622   5.996
 4013POPC   C1A53679  36.292  27.551   6.425
 4013POPC   D2A53680  36.411  27.809   6.774
 4013POPC   C3A53681  36.181  27.697   7.153
 4013POPC   C4A53682  36.153  27.272   7.339
 4013POPC   C1B53683  35.792  27.809   6.285
 4013POPC   C2B53684  35.897  27.848   6.710
 4013POPC   C3B53685  35.783  28.043   7.085
 4013POPC   C4B53686  35.911  27.949   7.531
 4014POPC   NC353687   2.416  35.489   5.205
 4014POPC   PO453688   2.957  35.072   5.429
 4014POPC   GL153689   2.713  35.168   5.753
 4014POPC   GL253690   2.672  35.487   5.644
 4014POPC   C1A53691   2.662  35.168   6.204
 4014POPC   D2A53692   2.736  35.043   6.606
 4014POPC   C3A53693   2.565  35.231   6.945
 4014POPC   C4A53694   2.923  35.372   7.199
 4014POPC   C1B53695   2.522  35.638   6.019
 4014POPC   C2B53696   2.485  35.604   6.468
 4014POPC   C3B53697   2.661  35.720   6.872
 4014POPC   C4B53698   2.489  35.648   7.277
 4015POPC   NC353699  22.644  30.117   5.280
 4015POPC   PO453700  22.078  29.800   5.354
 4015POPC   GL153701  22.020  29.844   5.798
 4015POPC   GL253702  21.677  29.965   5.884
 4015POPC   C1A53703  22.155  30.088   6.201
 4015POPC   D2A53704  22.115  30.326   6.588
 4015POPC   C3A53705  22.278  30.099   6.910
 4015POPC   C4A53706  22.357  29.834   7.256
 4015POPC   C1B53707  21.826  29.682   6.232
 4015POPC   C2B53708  21.975  29.766   6.651
 4015POPC   C3B53709  21.896  29.716   7.091
 4015POPC   C4B53710  21.745  29.564   7.469
 4016POPC   NC353711  38.042  24.597   5.392
 4016POPC   PO453712  37.402  24.311   5.409
 4016POPC   GL153713  37.557  24.447   5.803
 4016POPC   GL253714  37.898  24.419   5.844
 4016POPC   C1A53715  37.556  24.657   6.186
 4016POPC   D2A53716  37.828  24.658   6.536
 4016POPC   C3A53717  37.616  24.560   6.901
 4016POPC   C4A53718  37.702  24.664   7.297
 4016POPC   C1B53719  37.831  24.194   6.227
 4016POPC   C2B53720  37.838  24.158   6.670
 4016POPC   C3B53721  37.945  24.154   7.079
 4016POPC   C4B53722  37.965  24.127   7.517
 4017POPC   NC353723  41.285  35.421   5.304
 4017POPC   PO453724  41.847  35.058   5.463
 4017POPC   GL153725  41.747  35.359   5.785
 4017POPC   GL253726  41.449  35.517   5.786
 4017POPC   C1A53727  41.734  35.329   6.244
 4017POPC   D2A53728  41.769  35.104   6.657
 4017POPC   C3A53729  41.830  35.437   6.939
 4017POPC   C4A53730  41.567  35.650   7.218
 4017POPC   C1B53731  41.242  35.400   6.137
 4017POPC   C2B53732  41.076  35.410   6.514
 4017POPC   C3B53733  41.318  35.385   6.856
 4017POPC   C4B53734  41.510  35.126   7.161
 4018POPC   NC353735  19.947  34.149   5.424
 4018POPC   PO453736  19.756  33.458   5.466
 4018POPC   GL153737  19.762  33.646   5.862
 4018POPC   GL253738  19.996  33.403   5.934
 4018POPC   C1A53739  19.802  33.946   6.237
 4018POPC   D2A53740  19.967  34.014   6.682
 4018POPC   C3A53741  19.693  33.906   7.048
 4018POPC   C4A53742  19.483  34.166   7.345
 4018POPC   C1B53743  19.756  33.410   6.327
 4018POPC   C2B53744  19.866  33.504   6.765
 4018POPC   C3B53745  20.138  33.648   7.124
 4018POPC   C4B53746  20.132  33.532   7.577
 4019POPC   NC353747  24.342  14.671   5.447
 4019POPC   PO453748  24.723  14.134   5.645
 4019POPC   GL153749  24.255  14.171   5.797
 4019POPC   GL253750  24.071  14.504   5.856
 4019POPC   C1A53751  24.169  14.111   6.245
 4019POPC   D2A53752  24.510  14.224   6.539
 4019POPC   C3A53753  24.466  14.291   6.979
 4019POPC   C4A53754  24.616  14.213   7.418
 4019POPC   C1B53755  24.363  14.599   6.193
 4019POPC   C2B53756  24.158  14.602   6.595
 4019POPC   C3B53757  24.228  14.793   6.990
 4019POPC   C4B53758  24.586  14.733   7.241
 4020POPC   NC353759  32.974   4.532   5.512
 4020POPC   PO453760  32.956   3.824   5.479
 4020POPC   GL153761  32.911   4.106   5.821
 4020POPC   GL253762  33.166   3.971   6.020
 4020POPC   C1A53763  32.958   4.414   6.195
 4020POPC   D2A53764  32.783   4.463   6.625
 4020POPC   C3A53765  33.081   4.341   6.950
 4020POPC   C4A53766  33.296   4.696   7.146
 4020POPC   C1B53767  32.759   3.941   6.274
 4020POPC   C2B53768  32.798   3.939   6.703
 4020POPC   C3B53769  32.799   3.812   7.097
 4020POPC   C4B53770  32.842   4.102   7.339
 4021POPC   NC353771  15.810  35.733   5.410
 4021POPC   PO453772  16.151  35.162   5.433
 4021POPC   GL153773  15.996  35.245   5.827
 4021POPC   GL253774  15.864  35.577   5.901
 4021POPC   C1A53775  15.811  35.137   6.217
 4021POPC   D2A53776  15.792  35.342   6.605
 4021POPC   C3A53777  15.900  35.145   6.964
 4021POPC   C4A53778  15.781  35.229   7.366
 4021POPC   C1B53779  16.131  35.541   6.268
 4021POPC   C2B53780  16.087  35.742   6.686
 4021POPC   C3B53781  15.918  35.649   7.088
 4021POPC   C4B53782  15.924  35.728   7.542
 4022POPC   NC353783  34.217  20.478   5.353
 4022POPC   PO453784  33.798  20.952   5.301
 4022POPC   GL153785  34.049  20.816   5.718
 4022POPC   GL253786  34.130  20.448   5.854
 4022POPC   C1A53787  33.959  20.857   6.187
 4022POPC   D2A53788  34.007  21.062   6.617
 4022POPC   C3A53789  33.971  20.807   7.001
 4022POPC   C4A53790  33.683  20.763   7.335
 4022POPC   C1B53791  33.966  20.338   6.274
 4022POPC   C2B53792  33.748  20.434   6.673
 4022POPC   C3B53793  33.789  20.303   7.104
 4022POPC   C4B53794  34.163  20.041   7.183
 4023POPC   NC353795   9.989  19.427   5.474
 4023POPC   PO453796  10.193  18.800   5.434
 4023POPC   GL153797  10.045  18.824   5.856
 4023POPC   GL253798   9.863  19.136   5.905
 4023POPC   C1A53799   9.960  18.844   6.316
 4023POPC   D2A53800   9.902  19.179   6.615
 4023POPC   C3A53801   9.902  19.098   7.060
 4023POPC   C4A53802   9.838  18.862   7.454
 4023POPC   C1B53803   9.675  19.539   6.092
 4023POPC   C2B53804   9.522  19.647   6.523
 4023POPC   C3B53805   9.458  19.328   6.851
 4023POPC   C4B53806   9.451  19.228   7.280
 4024POPC   NC353807  33.413  15.985   5.550
 4024POPC   PO453808  34.091  16.097   5.560
 4024POPC   GL153809  34.195  16.064   5.952
 4024POPC   GL253810  34.134  16.405   6.092
 4024POPC   C1A53811  34.136  15.988   6.390
 4024POPC   D2A53812  34.136  16.219   6.780
 4024POPC   C3A53813  34.034  15.870   7.021
 4024POPC   C4A53814  33.906  15.618   7.360
 4024POPC   C1B53815  33.840  16.507   6.459
 4024POPC   C2B53816  33.747  16.668   6.882
 4024POPC   C3B53817  33.826  16.568   7.311
 4024POPC   C4B53818  33.728  16.404   7.741
 4025POPC   NC353819  16.917  23.427   5.400
 4025POPC   PO453820  16.622  23.986   5.734
 4025POPC   GL153821  16.686  23.568   5.861
 4025POPC   GL253822  17.038  23.599   5.861
 4025POPC   C1A53823  16.671  23.546   6.295
 4025POPC   D2A53824  16.466  23.847   6.542
 4025POPC   C3A53825  16.576  23.653   6.862
 4025POPC   C4A53826  16.756  23.759   7.214
 4025POPC   C1B53827  17.199  23.403   6.192
 4025POPC   C2B53828  17.058  23.332   6.588
 4025POPC   C3B53829  17.128  23.464   7.013
 4025POPC   C4B53830  17.268  23.630   7.412
 4026POPC   NC353831  16.199  15.276   5.381
 4026POPC   PO453832  15.572  14.918   5.414
 4026POPC   GL153833  15.723  15.090   5.837
 4026POPC   GL253834  16.025  15.320   5.839
 4026POPC   C1A53835  15.979  14.975   6.222
 4026POPC   D2A53836  16.324  15.097   6.507
 4026POPC   C3A53837  16.122  15.096   6.907
 4026POPC   C4A53838  15.753  14.996   7.164
 4026POPC   C1B53839  16.074  15.469   6.229
 4026POPC   C2B53840  15.850  15.396   6.609
 4026POPC   C3B53841  15.854  15.501   7.060
 4026POPC   C4B53842  15.848  15.601   7.512
 4027POPC   NC353843  35.589   5.157   5.287
 4027POPC   PO453844  36.072   4.869   5.543
 4027POPC   GL153845  35.914   4.866   5.972
 4027POPC   GL253846  35.708   4.583   5.988
 4027POPC   C1A53847  35.973   5.114   6.385
 4027POPC   D2A53848  35.972   5.134   6.880
 4027POPC   C3A53849  36.274   5.207   7.252
 4027POPC   C4A53850  36.227   5.419   7.679
 4027POPC   C1B53851  35.728   4.657   6.453
 4027POPC   C2B53852  35.842   4.630   6.905
 4027POPC   C3B53853  35.932   4.832   7.306
 4027POPC   C4B53854  35.718   4.935   7.689
 4028POPC   NC353855  26.618  27.179   5.525
 4028POPC   PO453856  26.704  27.811   5.432
 4028POPC   GL153857  26.789  27.584   5.813
 4028POPC   GL253858  26.939  27.255   5.920
 4028POPC   C1A53859  26.715  27.642   6.241
 4028POPC   D2A53860  26.915  27.657   6.628
 4028POPC   C3A53861  26.748  27.748   7.025
 4028POPC   C4A53862  26.680  27.504   7.381
 4028POPC   C1B53863  26.882  27.183   6.402
 4028POPC   C2B53864  26.789  27.200   6.881
 4028POPC   C3B53865  26.943  27.092   7.328
 4028POPC   C4B53866  26.678  27.131   7.736
 4029POPC   NC353867  40.170  31.106   5.469
 4029POPC   PO453868  39.596  30.653   5.437
 4029POPC   GL153869  39.830  30.824   5.796
 4029POPC   GL253870  40.134  30.633   5.816
 4029POPC   C1A53871  40.016  30.966   6.196
 4029POPC   D2A53872  40.147  30.745   6.558
 4029POPC   C3A53873  40.082  30.876   6.959
 4029POPC   C4A53874  40.053  30.669   7.374
 4029POPC   C1B53875  40.373  30.349   6.087
 4029POPC   C2B53876  40.430  30.295   6.485
 4029POPC   C3B53877  40.340  30.386   6.907
 4029POPC   C4B53878  40.235  30.053   7.195
 4030POPC   NC353879  24.382  16.503   5.189
 4030POPC   PO453880  24.953  16.862   5.154
 4030POPC   GL153881  24.670  16.851   5.574
 4030POPC   GL253882  24.314  16.947   5.688
 4030POPC   C1A53883  24.569  16.594   5.976
 4030POPC   D2A53884  24.552  16.373   6.405
 4030POPC   C3A53885  24.473  16.482   6.844
 4030POPC   C4A53886  24.805  16.486   7.156
 4030POPC   C1B53887  24.514  17.074   6.101
 4030POPC   C2B53888  24.659  16.881   6.492
 4030POPC   C3B53889  24.629  16.960   6.933
 4030POPC   C4B53890  24.353  16.839   7.254
 4031POPC   NC353891  20.163  32.168   5.562
 4031POPC   PO453892  19.453  32.026   5.489
 4031POPC   GL153893  19.529  32.238   5.839
 4031POPC   GL253894  19.863  32.153   5.984
 4031POPC   C1A53895  19.441  32.133   6.256
 4031POPC   D2A53896  19.764  32.007   6.520
 4031POPC   C3A53897  19.648  32.114   6.912
 4031POPC   C4A53898  19.772  32.233   7.290
 4031POPC   C1B53899  20.122  32.451   6.215
 4031POPC   C2B53900  20.218  32.621   6.602
 4031POPC   C3B53901  20.156  32.412   6.933
 4031POPC   C4B53902  20.160  32.572   7.248
 4032POPC   NC353903  14.123  43.084   5.224
 4032POPC   PO453904  14.753  42.753   5.228
 4032POPC   GL153905  14.509  42.874   5.611
 4032POPC   GL253906  14.317  43.206   5.685
 4032POPC   C1A53907  14.501  42.934   6.077
 4032POPC   D2A53908  14.326  43.103   6.457
 4032POPC   C3A53909  14.409  42.817   6.789
 4032POPC   C4A53910  14.435  42.850   7.227
 4032POPC   C1B53911  14.399  43.483   6.079
 4032POPC   C2B53912  14.510  43.572   6.532
 4032POPC   C3B53913  14.387  43.325   6.926
 4032POPC   C4B53914  14.325  43.531   7.317
 4033POPC   NC353915  20.186  15.240   5.260
 4033POPC   PO453916  20.888  14.934   5.387
 4033POPC   GL153917  20.893  14.945   5.818
 4033POPC   GL253918  20.719  15.272   5.790
 4033POPC   C1A53919  20.600  14.964   6.199
 4033POPC   D2A53920  20.480  15.092   6.604
 4033POPC   C3A53921  20.781  15.059   6.928
 4033POPC   C4A53922  20.745  14.929   7.311
 4033POPC   C1B53923  20.998  15.295   6.158
 4033POPC   C2B53924  21.023  15.377   6.587
 4033POPC   C3B53925  20.761  15.575   6.909
 4033POPC   C4B53926  20.820  15.436   7.352
 4034POPC   NC353927  39.113  11.661   5.594
 4034POPC   PO453928  39.517  11.190   5.250
 4034POPC   GL153929  39.340  11.223   5.749
 4034POPC   GL253930  39.037  11.330   5.968
 4034POPC   C1A53931  39.452  11.392   6.229
 4034POPC   D2A53932  39.270  11.482   6.644
 4034POPC   C3A53933  39.493  11.285   7.002
 4034POPC   C4A53934  39.682  10.939   7.169
 4034POPC   C1B53935  38.843  11.152   6.316
 4034POPC   C2B53936  38.808  11.102   6.753
 4034POPC   C3B53937  38.978  11.346   7.067
 4034POPC   C4B53938  38.995  11.580   7.470
 4035POPC   NC353939   9.000  39.914   5.340
 4035POPC   PO453940   9.039  40.440   5.661
 4035POPC   GL153941   9.011  40.050   5.875
 4035POPC   GL253942   8.734  39.812   5.780
 4035POPC   C1A53943   8.945  39.943   6.327
 4035POPC   D2A53944   9.128  39.806   6.745
 4035POPC   C3A53945   9.287  40.092   6.995
 4035POPC   C4A53946   8.998  40.314   7.238
 4035POPC   C1B53947   8.528  39.646   6.165
 4035POPC   C2B53948   8.507  39.761   6.640
 4035POPC   C3B53949   8.723  39.704   7.068
 4035POPC   C4B53950   8.767  39.645   7.554
 4036POPC   NC353951  15.387  31.555   5.403
 4036POPC   PO453952  14.870  31.250   5.230
 4036POPC   GL153953  15.122  31.133   5.681
 4036POPC   GL253954  15.361  31.362   5.902
 4036POPC   C1A53955  15.126  31.008   6.173
 4036POPC   D2A53956  15.198  31.211   6.605
 4036POPC   C3A53957  14.935  31.205   7.003
 4036POPC   C4A53958  15.009  31.485   7.353
 4036POPC   C1B53959  15.616  31.171   6.288
 4036POPC   C2B53960  15.634  30.984   6.735
 4036POPC   C3B53961  15.434  31.225   7.080
 4036POPC   C4B53962  15.541  31.330   7.526
 4037POPC   NC353963  26.979  22.107   5.260
 4037POPC   PO453964  26.461  22.106   5.684
 4037POPC   GL153965  26.857  22.108   5.826
 4037POPC   GL253966  26.934  21.750   5.719
 4037POPC   C1A53967  26.730  22.257   6.254
 4037POPC   D2A53968  26.866  22.226   6.648
 4037POPC   C3A53969  26.579  22.273   6.972
 4037POPC   C4A53970  26.786  22.261   7.370
 4037POPC   C1B53971  26.911  21.782   6.209
 4037POPC   C2B53972  27.066  21.773   6.653
 4037POPC   C3B53973  26.850  21.846   7.057
 4037POPC   C4B53974  26.873  21.751   7.525
 4038POPC   NC353975  16.592  33.274   5.278
 4038POPC   PO453976  16.815  32.684   5.223
 4038POPC   GL153977  16.805  32.900   5.623
 4038POPC   GL253978  16.663  33.214   5.771
 4038POPC   C1A53979  16.935  32.834   6.048
 4038POPC   D2A53980  17.036  32.990   6.461
 4038POPC   C3A53981  16.766  32.941   6.806
 4038POPC   C4A53982  16.806  33.027   7.226
 4038POPC   C1B53983  16.754  33.345   6.206
 4038POPC   C2B53984  16.519  33.353   6.608
 4038POPC   C3B53985  16.372  33.270   7.041
 4038POPC   C4B53986  16.470  33.316   7.491
 4039POPC   NC353987  44.223  40.848   5.594
 4039POPC   PO453988  43.624  41.126   5.564
 4039POPC   GL153989  43.835  40.966   5.910
 4039POPC   GL253990  44.106  40.709   6.054
 4039POPC   C1A53991  44.021  41.171   6.242
 4039POPC   D2A53992  44.129  40.985   6.596
 4039POPC   C3A53993  43.824  41.070   6.870
 4039POPC   C4A53994  43.807  40.916   7.256
 4039POPC   C1B53995  43.759  40.703   6.350
 4039POPC   C2B53996  43.692  40.578   6.780
 4039POPC   C3B53997  43.462  40.582   7.156
 4039POPC   C4B53998  43.498  40.772   7.631
 4040POPC   NC353999  41.525  38.000   5.580
 4040POPC   PO454000  41.889  37.526   5.545
 4040POPC   GL154001  41.708  37.609   5.921
 4040POPC   GL254002  41.363  37.505   5.940
 4040POPC   C1A54003  41.718  37.813   6.325
 4040POPC   D2A54004  41.546  37.708   6.739
 4040POPC   C3A54005  41.815  37.731   7.109
 4040POPC   C4A54006  41.879  37.842   7.563
 4040POPC   C1B54007  41.233  37.878   6.183
 4040POPC   C2B54008  41.224  38.143   6.565
 4040POPC   C3B54009  41.181  38.004   6.963
 4040POPC   C4B54010  41.384  37.898   7.324
 4041POPC   NC354011  13.546  42.861   5.547
 4041POPC   PO454012  13.763  43.374   5.248
 4041POPC   GL154013  13.794  43.284   5.703
 4041POPC   GL254014  13.901  42.940   5.895
 4041POPC   C1A54015  13.690  43.345   6.131
 4041POPC   D2A54016  13.787  43.070   6.471
 4041POPC   C3A54017  13.698  43.133   6.893
 4041POPC   C4A54018  13.978  43.076   7.222
 4041POPC   C1B54019  13.584  42.704   6.189
 4041POPC   C2B54020  13.333  42.796   6.558
 4041POPC   C3B54021  13.396  42.681   6.969
 4041POPC   C4B54022  13.644  42.672   7.312
 4042POPC   NC354023  37.524  29.328   5.515
 4042POPC   PO454024  38.144  28.944   5.443
 4042POPC   GL154025  37.962  29.109   5.826
 4042POPC   GL254026  37.943  29.484   5.786
 4042POPC   C1A54027  38.035  28.961   6.311
 4042POPC   D2A54028  38.000  28.767   6.772
 4042POPC   C3A54029  37.579  28.867   7.008
 4042POPC   C4A54030  37.305  29.167   7.195
 4042POPC   C1B54031  37.690  29.341   6.179
 4042POPC   C2B54032  37.657  29.176   6.602
 4042POPC   C3B54033  37.716  29.392   6.975
 4042POPC   C4B54034  37.616  29.765   7.193
 4043POPC   NC354035  10.447  20.790   5.459
 4043POPC   PO454036   9.996  20.271   5.197
 4043POPC   GL154037  10.332  20.288   5.670
 4043POPC   GL254038  10.692  20.425   5.702
 4043POPC   C1A54039  10.335  20.394   6.133
 4043POPC   D2A54040  10.390  20.602   6.543
 4043POPC   C3A54041  10.465  20.395   6.927
 4043POPC   C4A54042  10.191  20.324   7.238
 4043POPC   C1B54043  10.680  20.752   6.064
 4043POPC   C2B54044  10.869  20.755   6.466
 4043POPC   C3B54045  10.833  20.746   6.910
 4043POPC   C4B54046  10.456  20.867   7.158
 4044POPC   NC354047  26.496  29.558   5.422
 4044POPC   PO454048  26.969  28.992   5.103
 4044POPC   GL154049  26.988  29.017   5.604
 4044POPC   GL254050  26.925  29.339   5.739
 4044POPC   C1A54051  26.965  28.884   6.052
 4044POPC   D2A54052  26.690  28.962   6.427
 4044POPC   C3A54053  26.699  28.938   6.881
 4044POPC   C4A54054  26.908  28.918   7.294
 4044POPC   C1B54055  26.898  29.367   6.193
 4044POPC   C2B54056  26.725  29.443   6.640
 4044POPC   C3B54057  26.867  29.378   7.063
 4044POPC   C4B54058  26.848  29.570   7.466
 4045POPC   NC354059   2.396  14.120   5.570
 4045POPC   PO454060   2.833  14.506   5.230
 4045POPC   GL154061   2.910  14.427   5.673
 4045POPC   GL254062   2.616  14.412   5.903
 4045POPC   C1A54063   3.049  14.467   6.120
 4045POPC   D2A54064   2.708  14.592   6.427
 4045POPC   C3A54065   2.771  14.551   6.899
 4045POPC   C4A54066   2.932  14.341   7.311
 4045POPC   C1B54067   2.676  14.102   6.241
 4045POPC   C2B54068   2.750  14.091   6.690
 4045POPC   C3B54069   2.528  14.113   7.098
 4045POPC   C4B54070   2.233  14.174   7.471
 4046POPC   NC354071  21.042  38.769   5.437
 4046POPC   PO454072  21.461  39.249   5.689
 4046POPC   GL154073  21.274  38.949   5.877
 4046POPC   GL254074  21.448  38.718   5.765
 4046POPC   C1A54075  21.274  38.981   6.308
 4046POPC   D2A54076  21.370  38.907   6.690
 4046POPC   C3A54077  21.150  39.192   6.896
 4046POPC   C4A54078  21.047  39.541   7.153
 4046POPC   C1B54079  21.703  38.751   6.148
 4046POPC   C2B54080  21.867  38.683   6.574
 4046POPC   C3B54081  21.755  38.795   6.993
 4046POPC   C4B54082  21.545  39.098   7.217
 4047POPC   NC354083  13.957  36.415   5.451
 4047POPC   PO454084  14.669  36.414   5.481
 4047POPC   GL154085  14.579  36.186   5.836
 4047POPC   GL254086  14.214  36.197   5.848
 4047POPC   C1A54087  14.738  36.243   6.219
 4047POPC   D2A54088  14.613  36.219   6.627
 4047POPC   C3A54089  14.787  36.123   7.007
 4047POPC   C4A54090  14.593  35.874   7.323
 4047POPC   C1B54091  14.276  36.028   6.258
 4047POPC   C2B54092  14.124  36.136   6.636
 4047POPC   C3B54093  14.233  35.992   6.987
 4047POPC   C4B54094  14.138  36.188   7.344
 4048POPC   NC354095  12.651  22.552   5.631
 4048POPC   PO454096  12.206  22.383   5.188
 4048POPC   GL154097  12.184  22.287   5.678
 4048POPC   GL254098  12.267  21.916   5.740
 4048POPC   C1A54099  11.938  22.359   6.104
 4048POPC   D2A54100  11.677  22.353   6.515
 4048POPC   C3A54101  11.835  22.206   6.934
 4048POPC   C4A54102  12.050  22.265   7.337
 4048POPC   C1B54103  11.994  21.848   6.098
 4048POPC   C2B54104  11.842  21.859   6.523
 4048POPC   C3B54105  11.950  21.691   6.939
 4048POPC   C4B54106  12.290  21.747   7.254
 4049POPC   NC354107  17.749  18.475   5.543
 4049POPC   PO454108  17.176  18.423   5.250
 4049POPC   GL154109  17.263  18.237   5.702
 4049POPC   GL254110  17.606  18.054   5.799
 4049POPC   C1A54111  17.179  18.153   6.150
 4049POPC   D2A54112  17.379  18.096   6.573
 4049POPC   C3A54113  17.258  18.419   6.884
 4049POPC   C4A54114  17.411  18.584   7.308
 4049POPC   C1B54115  17.683  18.324   6.186
 4049POPC   C2B54116  17.717  18.519   6.615
 4049POPC   C3B54117  17.737  18.302   7.028
 4049POPC   C4B54118  17.789  18.090   7.448
 4050POPC   NC354119  34.807  43.242   5.567
 4050POPC   PO454120  34.203  43.006   5.627
 4050POPC   GL154121  34.439  43.124   5.959
 4050POPC   GL254122  34.333  43.447   6.013
 4050POPC   C1A54123  34.803  42.957   6.199
 4050POPC   D2A54124  34.811  42.672   6.533
 4050POPC   C3A54125  34.886  42.798   6.935
 4050POPC   C4A54126  34.675  43.134   7.194
 4050POPC   C1B54127  34.532  43.315   6.435
 4050POPC   C2B54128  34.401  43.007   6.767
 4050POPC   C3B54129  34.039  42.814   7.017
 4050POPC   C4B54130  34.050  42.805   7.507
 4051POPC   NC354131  20.811   5.460   5.230
 4051POPC   PO454132  20.401   5.957   5.220
 4051POPC   GL154133  20.444   5.984   5.689
 4051POPC   GL254134  20.347   5.666   5.736
 4051POPC   C1A54135  20.416   5.933   6.188
 4051POPC   D2A54136  20.689   5.930   6.605
 4051POPC   C3A54137  20.592   6.007   7.081
 4051POPC   C4A54138  20.749   5.792   7.488
 4051POPC   C1B54139  20.538   5.456   6.054
 4051POPC   C2B54140  20.549   5.430   6.494
 4051POPC   C3B54141  20.393   5.538   6.917
 4051POPC   C4B54142  20.406   5.428   7.372
 4052POPC   NC354143  36.530  26.568   5.491
 4052POPC   PO454144  37.001  27.041   5.584
 4052POPC   GL154145  36.879  26.674   5.844
 4052POPC   GL254146  36.907  26.895   6.094
 4052POPC   C1A54147  36.884  26.404   6.192
 4052POPC   D2A54148  36.806  26.657   6.557
 4052POPC   C3A54149  37.008  26.503   6.887
 4052POPC   C4A54150  37.063  26.449   7.296
 4052POPC   C1B54151  36.671  27.200   6.272
 4052POPC   C2B54152  36.719  27.393   6.664
 4052POPC   C3B54153  36.604  27.220   7.049
 4052POPC   C4B54154  36.857  26.898   7.193
 4053POPC   NC354155  18.002  40.134   5.469
 4053POPC   PO454156  18.633  40.123   5.246
 4053POPC   GL154157  18.512  40.197   5.707
 4053POPC   GL254158  18.255  39.936   5.847
 4053POPC   C1A54159  18.577  40.118   6.179
 4053POPC   D2A54160  18.448  40.218   6.588
 4053POPC   C3A54161  18.493  39.993   6.995
 4053POPC   C4A54162  18.358  40.063   7.437
 4053POPC   C1B54163  18.093  39.914   6.270
 4053POPC   C2B54164  18.075  39.862   6.698
 4053POPC   C3B54165  17.990  40.052   7.057
 4053POPC   C4B54166  17.800  40.433   7.147
 4054POPC   NC354167  38.375  15.445   5.511
 4054POPC   PO454168  38.501  14.827   5.706
 4054POPC   GL154169  38.444  15.150   5.930
 4054POPC   GL254170  38.093  15.293   5.933
 4054POPC   C1A54171  38.566  15.039   6.321
 4054POPC   D2A54172  38.441  14.750   6.587
 4054POPC   C3A54173  38.276  14.941   6.943
 4054POPC   C4A54174  38.575  14.921   7.251
 4054POPC   C1B54175  38.320  15.505   6.268
 4054POPC   C2B54176  38.383  15.371   6.661
 4054POPC   C3B54177  38.274  15.441   7.056
 4054POPC   C4B54178  37.960  15.572   7.309
 4055POPC   NC354179  26.264  26.399   5.480
 4055POPC   PO454180  25.695  26.210   5.307
 4055POPC   GL154181  25.748  26.049   5.749
 4055POPC   GL254182  26.099  26.058   5.825
 4055POPC   C1A54183  25.811  25.918   6.226
 4055POPC   D2A54184  26.095  25.994   6.581
 4055POPC   C3A54185  25.907  26.125   6.986
 4055POPC   C4A54186  25.858  25.948   7.413
 4055POPC   C1B54187  26.066  26.358   6.186
 4055POPC   C2B54188  26.031  26.496   6.616
 4055POPC   C3B54189  26.280  26.487   7.012
 4055POPC   C4B54190  26.147  26.394   7.451
 4056POPC   NC354191   1.174  41.016   5.507
 4056POPC   PO454192   1.588  40.430   5.537
 4056POPC   GL154193   1.241  40.596   5.802
 4056POPC   GL254194   1.434  40.537   6.081
 4056POPC   C1A54195   1.028  40.842   6.164
 4056POPC   D2A54196   0.815  40.778   6.596
 4056POPC   C3A54197   0.899  41.018   7.009
 4056POPC   C4A54198   1.028  41.039   7.484
 4056POPC   C1B54199   1.467  40.834   6.418
 4056POPC   C2B54200   1.327  40.835   6.810
 4056POPC   C3B54201   1.534  40.672   7.162
 4056POPC   C4B54202   1.975  40.765   7.307
 4057POPC   NC354203  40.672  41.059   5.368
 4057POPC   PO454204  40.808  40.425   5.556
 4057POPC   GL154205  40.624  40.689   5.892
 4057POPC   GL254206  40.565  41.061   5.851
 4057POPC   C1A54207  40.619  40.579   6.335
 4057POPC   D2A54208  40.527  40.440   6.771
 4057POPC   C3A54209  40.895  40.547   7.036
 4057POPC   C4A54210  41.023  40.464   7.479
 4057POPC   C1B54211  40.614  41.098   6.264
 4057POPC   C2B54212  40.601  40.958   6.688
 4057POPC   C3B54213  40.778  41.056   7.078
 4057POPC   C4B54214  40.627  41.287   7.437
 4058POPC   NC354215  17.802  29.418   5.199
 4058POPC   PO454216  17.261  29.205   5.544
 4058POPC   GL154217  17.358  29.258   5.929
 4058POPC   GL254218  17.659  29.433   5.836
 4058POPC   C1A54219  17.449  28.957   6.260
 4058POPC   D2A54220  17.325  28.823   6.686
 4058POPC   C3A54221  17.502  29.094   7.023
 4058POPC   C4A54222  17.458  29.188   7.472
 4058POPC   C1B54223  17.618  29.510   6.295
 4058POPC   C2B54224  17.859  29.557   6.692
 4058POPC   C3B54225  17.754  29.539   7.140
 4058POPC   C4B54226  17.914  29.371   7.534
 4059POPC   NC354227  12.516   9.190   5.433
 4059POPC   PO454228  12.029   8.779   5.401
 4059POPC   GL154229  12.002   9.112   5.695
 4059POPC   GL254230  12.302   8.946   5.827
 4059POPC   C1A54231  12.038   9.213   6.157
 4059POPC   D2A54232  12.269   8.996   6.500
 4059POPC   C3A54233  12.114   8.902   6.906
 4059POPC   C4A54234  12.231   9.217   7.215
 4059POPC   C1B54235  12.138   8.666   6.131
 4059POPC   C2B54236  12.278   8.449   6.528
 4059POPC   C3B54237  12.465   8.511   6.956
 4059POPC   C4B54238  12.396   8.735   7.345
 4060POPC   NC354239  38.645  28.836   5.383
 4060POPC   PO454240  38.424  28.195   5.470
 4060POPC   GL154241  38.559  28.493   5.789
 4060POPC   GL254242  38.909  28.365   5.748
 4060POPC   C1A54243  38.333  28.539   6.209
 4060POPC   D2A54244  38.045  28.278   6.530
 4060POPC   C3A54245  38.239  28.271   6.956
 4060POPC   C4A54246  38.369  28.653   7.182
 4060POPC   C1B54247  38.750  28.144   6.133
 4060POPC   C2B54248  38.588  28.250   6.550
 4060POPC   C3B54249  38.765  28.225   6.946
 4060POPC   C4B54250  38.634  28.238   7.345
 4061POPC   NC354251  22.661   7.322   5.477
 4061POPC   PO454252  23.020   7.880   5.369
 4061POPC   GL154253  23.018   7.598   5.757
 4061POPC   GL254254  23.110   7.228   5.788
 4061POPC   C1A54255  23.099   7.665   6.204
 4061POPC   D2A54256  23.254   7.482   6.594
 4061POPC   C3A54257  23.013   7.581   6.955
 4061POPC   C4A54258  23.059   7.721   7.407
 4061POPC   C1B54259  23.111   7.145   6.231
 4061POPC   C2B54260  22.981   7.012   6.635
 4061POPC   C3B54261  23.059   7.043   7.045
 4061POPC   C4B54262  22.829   7.279   7.316
 4062POPC   NC354263  21.845  30.690   5.461
 4062POPC   PO454264  22.578  30.573   5.413
 4062POPC   GL154265  22.317  30.612   5.798
 4062POPC   GL254266  22.049  30.355   5.780
 4062POPC   C1A54267  22.336  30.698   6.271
 4062POPC   D2A54268  22.162  30.883   6.677
 4062POPC   C3A54269  22.374  30.747   7.059
 4062POPC   C4A54270  22.406  30.835   7.518
 4062POPC   C1B54271  21.859  30.530   6.162
 4062POPC   C2B54272  21.708  30.639   6.608
 4062POPC   C3B54273  21.860  30.599   7.052
 4062POPC   C4B54274  21.781  30.474   7.501
 4063POPC   NC354275  36.122  32.861   5.145
 4063POPC   PO454276  35.865  33.476   5.411
 4063POPC   GL154277  36.113  33.249   5.714
 4063POPC   GL254278  36.048  32.895   5.637
 4063POPC   C1A54279  36.014  33.033   6.121
 4063POPC   D2A54280  36.050  33.104   6.551
 4063POPC   C3A54281  35.760  33.081   6.871
 4063POPC   C4A54282  36.045  33.046   7.224
 4063POPC   C1B54283  35.829  32.622   5.920
 4063POPC   C2B54284  35.842  32.608   6.407
 4063POPC   C3B54285  35.994  32.620   6.859
 4063POPC   C4B54286  35.724  32.647   7.222
 4064POPC   NC354287  33.941  31.781   5.338
 4064POPC   PO454288  33.380  31.411   5.320
 4064POPC   GL154289  33.607  31.458   5.755
 4064POPC   GL254290  33.415  31.661   5.995
 4064POPC   C1A54291  33.847  31.473   6.178
 4064POPC   D2A54292  33.920  31.729   6.564
 4064POPC   C3A54293  34.034  31.455   6.899
 4064POPC   C4A54294  34.002  31.198   7.236
 4064POPC   C1B54295  33.395  31.618   6.423
 4064POPC   C2B54296  33.573  31.355   6.733
 4064POPC   C3B54297  33.532  31.411   7.146
 4064POPC   C4B54298  33.487  31.833   7.202
 4065POPC   NC354299  27.289  21.304   5.264
 4065POPC   PO454300  27.752  21.256   5.688
 4065POPC   GL154301  27.611  21.384   5.991
 4065POPC   GL254302  27.243  21.339   5.881
 4065POPC   C1A54303  27.749  21.660   6.314
 4065POPC   D2A54304  27.827  21.825   6.719
 4065POPC   C3A54305  27.486  21.791   6.953
 4065POPC   C4A54306  27.229  21.538   7.176
 4065POPC   C1B54307  27.267  21.423   6.342
 4065POPC   C2B54308  27.370  21.268   6.737
 4065POPC   C3B54309  27.715  21.332   6.984
 4065POPC   C4B54310  27.897  21.070   7.270
 4066POPC   NC354311  21.904  17.460   5.458
 4066POPC   PO454312  22.528  17.152   5.555
 4066POPC   GL154313  22.250  17.368   5.868
 4066POPC   GL254314  21.921  17.230   5.919
 4066POPC   C1A54315  22.184  17.405   6.337
 4066POPC   D2A54316  22.238  17.281   6.786
 4066POPC   C3A54317  22.212  17.573   7.152
 4066POPC   C4A54318  22.274  17.531   7.616
 4066POPC   C1B54319  21.657  17.167   6.296
 4066POPC   C2B54320  21.677  17.099   6.753
 4066POPC   C3B54321  21.826  17.248   7.129
 4066POPC   C4B54322  21.893  17.143   7.572
 4067POPC   NC354323   2.402  37.760   5.501
 4067POPC   PO454324   1.755  37.506   5.445
 4067POPC   GL154325   1.789  37.683   5.844
 4067POPC   GL254326   2.131  37.565   5.882
 4067POPC   C1A54327   1.756  37.929   6.241
 4067POPC   D2A54328   1.874  38.026   6.672
 4067POPC   C3A54329   1.703  37.880   7.064
 4067POPC   C4A54330   1.753  37.690   7.496
 4067POPC   C1B54331   2.252  37.770   6.248
 4067POPC   C2B54332   2.367  37.943   6.635
 4067POPC   C3B54333   2.216  37.777   7.037
 4067POPC   C4B54334   2.170  37.968   7.431
 4068POPC   NC354335   2.253   8.268   5.133
 4068POPC   PO454336   1.756   7.861   5.298
 4068POPC   GL154337   1.868   8.136   5.683
 4068POPC   GL254338   2.221   8.121   5.715
 4068POPC   C1A54339   1.916   8.318   6.138
 4068POPC   D2A54340   1.783   8.155   6.545
 4068POPC   C3A54341   1.739   8.384   6.925
 4068POPC   C4A54342   1.686   8.110   7.267
 4068POPC   C1B54343   2.410   8.235   6.127
 4068POPC   C2B54344   2.312   8.227   6.573
 4068POPC   C3B54345   2.156   8.064   6.974
 4068POPC   C4B54346   2.165   8.172   7.412
 4069POPC   NC354347  21.110  15.333   5.437
 4069POPC   PO454348  21.579  14.779   5.404
 4069POPC   GL154349  21.405  14.986   5.746
 4069POPC   GL254350  21.407  15.342   5.844
 4069POPC   C1A54351  21.408  14.970   6.183
 4069POPC   D2A54352  21.582  15.041   6.564
 4069POPC   C3A54353  21.361  15.142   6.906
 4069POPC   C4A54354  21.221  15.125   7.299
 4069POPC   C1B54355  21.449  15.499   6.293
 4069POPC   C2B54356  21.506  15.604   6.707
 4069POPC   C3B54357  21.242  15.622   7.066
 4069POPC   C4B54358  21.280  15.605   7.528
 4070POPC   NC354359  27.148  16.844   5.161
 4070POPC   PO454360  26.522  16.876   5.486
 4070POPC   GL154361  26.760  16.745   5.798
 4070POPC   GL254362  27.155  16.812   5.751
 4070POPC   C1A54363  26.589  16.582   6.190
 4070POPC   D2A54364  26.580  16.750   6.578
 4070POPC   C3A54365  26.654  16.564   6.938
 4070POPC   C4A54366  26.683  16.843   7.246
 4070POPC   C1B54367  27.059  16.482   6.090
 4070POPC   C2B54368  26.978  16.416   6.535
 4070POPC   C3B54369  27.155  16.424   6.966
 4070POPC   C4B54370  26.919  16.420   7.382
 4071POPC   NC354371  16.672  28.586   5.429
 4071POPC   PO454372  17.265  28.514   5.672
 4071POPC   GL154373  16.926  28.329   5.856
 4071POPC   GL254374  16.594  28.493   5.921
 4071POPC   C1A54375  16.802  28.167   6.238
 4071POPC   D2A54376  16.597  28.328   6.578
 4071POPC   C3A54377  16.737  28.168   6.953
 4071POPC   C4A54378  16.769  28.314   7.367
 4071POPC   C1B54379  16.365  28.719   6.233
 4071POPC   C2B54380  16.249  28.704   6.648
 4071POPC   C3B54381  16.424  28.577   7.031
 4071POPC   C4B54382  16.282  28.524   7.438
 4072POPC   NC354383  14.293  19.115   5.412
 4072POPC   PO454384  14.860  19.418   5.601
 4072POPC   GL154385  14.655  19.019   5.834
 4072POPC   GL254386  14.329  18.934   5.905
 4072POPC   C1A54387  14.705  19.107   6.259
 4072POPC   D2A54388  14.500  19.136   6.665
 4072POPC   C3A54389  14.636  19.447   6.896
 4072POPC   C4A54390  14.616  19.499   7.308
 4072POPC   C1B54391  14.316  18.790   6.348
 4072POPC   C2B54392  14.017  18.916   6.666
 4072POPC   C3B54393  14.101  19.156   7.027
 4072POPC   C4B54394  14.438  19.023   7.232
 4073POPC   NC354395  12.510   4.510   5.528
 4073POPC   PO454396  11.887   4.343   5.335
 4073POPC   GL154397  12.083   4.310   5.749
 4073POPC   GL254398  12.032   3.969   5.849
 4073POPC   C1A54399  12.226   4.510   6.146
 4073POPC   D2A54400  12.441   4.572   6.553
 4073POPC   C3A54401  12.250   4.440   6.942
 4073POPC   C4A54402  12.129   4.343   7.349
 4073POPC   C1B54403  12.342   4.021   6.202
 4073POPC   C2B54404  12.335   4.025   6.658
 4073POPC   C3B54405  12.482   4.008   7.103
 4073POPC   C4B54406  12.437   3.968   7.564
 4074POPC   NC354407   3.097  12.054   5.024
 4074POPC   PO454408   2.672  12.449   5.487
 4074POPC   GL154409   2.614  12.178   5.829
 4074POPC   GL254410   2.780  11.834   5.835
 4074POPC   C1A54411   2.706  12.207   6.250
 4074POPC   D2A54412   2.874  12.245   6.670
 4074POPC   C3A54413   2.534  12.260   6.960
 4074POPC   C4A54414   2.554  12.366   7.384
 4074POPC   C1B54415   2.962  11.765   6.265
 4074POPC   C2B54416   2.974  11.548   6.661
 4074POPC   C3B54417   3.133  11.713   7.055
 4074POPC   C4B54418   3.205  11.772   7.519
 4075POPC   NC354419  37.571  20.494   5.248
 4075POPC   PO454420  37.917  20.512   5.791
 4075POPC   GL154421  37.446  20.463   5.751
 4075POPC   GL254422  37.494  20.796   5.707
 4075POPC   C1A54423  37.250  20.261   6.157
 4075POPC   D2A54424  37.528  20.362   6.500
 4075POPC   C3A54425  37.532  20.165   6.899
 4075POPC   C4A54426  37.324  20.280   7.286
 4075POPC   C1B54427  37.412  20.781   6.177
 4075POPC   C2B54428  37.426  20.872   6.653
 4075POPC   C3B54429  37.567  21.020   7.080
 4075POPC   C4B54430  37.670  21.052   7.544
 4076POPC   NC354431  42.609  11.532   5.441
 4076POPC   PO454432  42.576  10.896   5.514
 4076POPC   GL154433  42.563  11.231   5.864
 4076POPC   GL254434  42.235  11.408   5.873
 4076POPC   C1A54435  42.488  11.225   6.325
 4076POPC   D2A54436  42.547  10.945   6.674
 4076POPC   C3A54437  42.488  11.190   7.023
 4076POPC   C4A54438  42.502  11.607   7.156
 4076POPC   C1B54439  42.330  11.699   6.238
 4076POPC   C2B54440  42.290  11.660   6.680
 4076POPC   C3B54441  42.003  11.596   7.001
 4076POPC   C4B54442  42.073  11.588   7.433
 4077POPC   NC354443  11.594  26.993   5.387
 4077POPC   PO454444  11.096  26.553   5.482
 4077POPC   GL154445  11.408  26.540   5.810
 4077POPC   GL254446  11.314  26.875   5.834
 4077POPC   C1A54447  11.384  26.483   6.294
 4077POPC   D2A54448  11.000  26.507   6.560
 4077POPC   C3A54449  11.019  26.661   6.994
 4077POPC   C4A54450  11.363  26.679   7.304
 4077POPC   C1B54451  11.413  26.995   6.229
 4077POPC   C2B54452  11.695  26.887   6.555
 4077POPC   C3B54453  11.642  26.987   6.991
 4077POPC   C4B54454  11.217  27.149   7.096
 4078POPC   NC354455   2.914  16.489   5.506
 4078POPC   PO454456   2.315  16.732   5.422
 4078POPC   GL154457   2.611  16.784   5.795
 4078POPC   GL254458   2.725  16.486   5.971
 4078POPC   C1A54459   2.928  16.915   6.158
 4078POPC   D2A54460   3.043  16.715   6.555
 4078POPC   C3A54461   2.991  16.962   6.923
 4078POPC   C4A54462   2.735  16.769   7.209
 4078POPC   C1B54463   2.885  16.258   6.312
 4078POPC   C2B54464   2.842  16.112   6.728
 4078POPC   C3B54465   2.649  16.255   7.113
 4078POPC   C4B54466   2.763  16.364   7.538
 4079POPC   NC354467   0.715  32.671   5.268
 4079POPC   PO454468   1.379  32.643   5.183
 4079POPC   GL154469   1.292  32.643   5.659
 4079POPC   GL254470   0.960  32.723   5.715
 4079POPC   C1A54471   1.158  32.360   6.048
 4079POPC   D2A54472   1.109  32.110   6.464
 4079POPC   C3A54473   1.356  32.213   6.862
 4079POPC   C4A54474   1.351  32.000   7.250
 4079POPC   C1B54475   0.708  32.609   6.079
 4079POPC   C2B54476   0.837  32.531   6.466
 4079POPC   C3B54477   0.866  32.365   6.874
 4079POPC   C4B54478   1.053  32.422   7.294
 4080POPC   NC354479  41.558  17.743   5.250
 4080POPC   PO454480  41.426  17.864   5.848
 4080POPC   GL154481  41.476  18.227   6.061
 4080POPC   GL254482  41.286  18.485   5.889
 4080POPC   C1A54483  41.508  18.327   6.495
 4080POPC   D2A54484  41.743  18.397   6.890
 4080POPC   C3A54485  41.646  18.146   7.274
 4080POPC   C4A54486  41.874  18.063   7.701
 4080POPC   C1B54487  41.264  18.716   6.301
 4080POPC   C2B54488  41.367  18.745   6.778
 4080POPC   C3B54489  41.425  18.626   7.237
 4080POPC   C4B54490  41.479  18.443   7.677
 4081POPC   NC354491   3.987  13.201   5.206
 4081POPC   PO454492   3.584  12.648   5.372
 4081POPC   GL154493   3.439  12.815   5.757
 4081POPC   GL254494   3.318  13.139   5.767
 4081POPC   C1A54495   3.442  12.684   6.172
 4081POPC   D2A54496   3.586  12.785   6.575
 4081POPC   C3A54497   3.344  12.602   6.851
 4081POPC   C4A54498   3.469  12.580   7.253
 4081POPC   C1B54499   3.316  13.188   6.225
 4081POPC   C2B54500   3.223  13.119   6.674
 4081POPC   C3B54501   3.543  13.066   7.056
 4081POPC   C4B54502   3.454  13.051   7.536
 4082POPC   NC354503   5.007  19.361   5.385
 4082POPC   PO454504   5.154  18.734   5.414
 4082POPC   GL154505   5.141  19.017   5.770
 4082POPC   GL254506   5.352  19.330   5.775
 4082POPC   C1A54507   5.099  18.957   6.210
 4082POPC   D2A54508   5.180  19.219   6.529
 4082POPC   C3A54509   5.024  19.068   6.888
 4082POPC   C4A54510   5.262  19.047   7.245
 4082POPC   C1B54511   5.000  19.454   6.066
 4082POPC   C2B54512   4.714  19.379   6.423
 4082POPC   C3B54513   4.750  19.534   6.850
 4082POPC   C4B54514   4.911  19.428   7.248
 4083POPC   NC354515  34.364  15.678   5.540
 4083POPC   PO454516  34.980  15.791   5.444
 4083POPC   GL154517  34.693  16.076   5.748
 4083POPC   GL254518  34.666  15.804   5.932
 4083POPC   C1A54519  34.585  16.178   6.238
 4083POPC   D2A54520  34.575  15.935   6.661
 4083POPC   C3A54521  34.494  16.057   7.128
 4083POPC   C4A54522  34.550  16.200   7.593
 4083POPC   C1B54523  35.036  15.639   6.144
 4083POPC   C2B54524  35.105  15.671   6.588
 4083POPC   C3B54525  34.931  15.807   6.993
 4083POPC   C4B54526  34.873  15.844   7.457
 4084POPC   NC354527  15.448  43.695   5.530
 4084POPC   PO454528  15.045  44.023   5.160
 4084POPC   GL154529  15.186  44.074   5.741
 4084POPC   GL254530  15.447  44.329   5.812
 4084POPC   C1A54531  15.281  43.748   6.181
 4084POPC   D2A54532  15.307  43.507   6.635
 4084POPC   C3A54533  15.248  43.786   7.034
 4084POPC   C4A54534  14.920  44.101   7.091
 4084POPC   C1B54535  15.328  44.244   6.267
 4084POPC   C2B54536  15.494  43.996   6.638
 4084POPC   C3B54537  15.601  44.142   7.091
 4084POPC   C4B54538  15.462  44.351   7.486
 4085POPC   NC354539  26.552  40.064   5.536
 4085POPC   PO454540  27.195  40.266   5.509
 4085POPC   GL154541  26.902  40.264   5.864
 4085POPC   GL254542  26.904  39.936   5.943
 4085POPC   C1A54543  26.878  40.259   6.340
 4085POPC   D2A54544  26.736  40.283   6.786
 4085POPC   C3A54545  26.998  40.136   7.098
 4085POPC   C4A54546  27.206  40.219   7.476
 4085POPC   C1B54547  26.691  39.786   6.306
 4085POPC   C2B54548  26.797  39.749   6.715
 4085POPC   C3B54549  26.567  39.859   7.045
 4085POPC   C4B54550  26.495  40.211   7.250
 4086POPC   NC354551   9.405  28.753   5.255
 4086POPC   PO454552   9.471  28.148   5.512
 4086POPC   GL154553   9.697  28.451   5.765
 4086POPC   GL254554   9.665  28.199   6.039
 4086POPC   C1A54555   9.953  28.587   6.136
 4086POPC   D2A54556  10.016  28.310   6.499
 4086POPC   C3A54557   9.842  28.398   6.925
 4086POPC   C4A54558   9.942  28.348   7.383
 4086POPC   C1B54559   9.412  28.468   6.336
 4086POPC   C2B54560   9.239  28.703   6.712
 4086POPC   C3B54561   9.377  28.626   7.152
 4086POPC   C4B54562   9.413  28.204   7.246
 4087POPC   NC354563  44.791  35.685   5.525
 4087POPC   PO454564  44.420  35.123   5.443
 4087POPC   GL154565  44.421  35.265   5.819
 4087POPC   GL254566  44.754  35.212   5.868
 4087POPC   C1A54567  44.421  35.103   6.235
 4087POPC   D2A54568  44.104  35.091   6.522
 4087POPC   C3A54569  44.312  35.246   6.863
 4087POPC   C4A54570  44.146  35.270   7.285
 4087POPC   C1B54571  44.911  35.413   6.194
 4087POPC   C2B54572  44.778  35.475   6.592
 4087POPC   C3B54573  44.807  35.257   6.982
 4087POPC   C4B54574  44.634  35.342   7.399
 4088POPC   NC354575  38.880  38.597   5.448
 4088POPC   PO454576  39.519  38.675   5.232
 4088POPC   GL154577  39.405  38.405   5.579
 4088POPC   GL254578  39.153  38.176   5.678
 4088POPC   C1A54579  39.337  38.521   6.009
 4088POPC   D2A54580  39.458  38.494   6.434
 4088POPC   C3A54581  39.273  38.463   6.846
 4088POPC   C4A54582  39.437  38.301   7.255
 4088POPC   C1B54583  38.952  38.095   6.077
 4088POPC   C2B54584  39.006  38.132   6.507
 4088POPC   C3B54585  39.144  37.994   6.907
 4088POPC   C4B54586  38.930  38.214   7.217
 4089POPC   NC354587  24.647  17.964   5.365
 4089POPC   PO454588  24.626  18.622   5.344
 4089POPC   GL154589  24.499  18.567   5.743
 4089POPC   GL254590  24.146  18.538   5.804
 4089POPC   C1A54591  24.487  18.646   6.182
 4089POPC   D2A54592  24.628  18.308   6.459
 4089POPC   C3A54593  24.745  18.379   6.880
 4089POPC   C4A54594  24.351  18.334   7.085
 4089POPC   C1B54595  24.217  18.202   6.135
 4089POPC   C2B54596  24.204  18.037   6.588
 4089POPC   C3B54597  24.118  17.854   7.005
 4089POPC   C4B54598  24.287  17.893   7.455
 4090POPC   NC354599  13.829  38.120   5.522
 4090POPC   PO454600  13.591  37.525   5.390
 4090POPC   GL154601  13.859  37.505   5.788
 4090POPC   GL254602  13.917  37.839   5.946
 4090POPC   C1A54603  13.832  37.388   6.247
 4090POPC   D2A54604  13.892  37.604   6.675
 4090POPC   C3A54605  13.610  37.563   7.006
 4090POPC   C4A54606  13.784  37.577   7.397
 4090POPC   C1B54607  13.651  37.862   6.297
 4090POPC   C2B54608  13.544  38.009   6.698
 4090POPC   C3B54609  13.801  38.025   7.052
 4090POPC   C4B54610  13.630  38.078   7.430
 4091POPC   NC354611  25.181  35.928   5.481
 4091POPC   PO454612  25.109  36.618   5.650
 4091POPC   GL154613  25.208  36.309   5.923
 4091POPC   GL254614  25.436  36.056   5.902
 4091POPC   C1A54615  25.207  36.149   6.334
 4091POPC   D2A54616  25.292  35.929   6.700
 4091POPC   C3A54617  25.198  36.175   7.037
 4091POPC   C4A54618  24.986  36.074   7.416
 4091POPC   C1B54619  25.688  35.976   6.300
 4091POPC   C2B54620  25.826  35.829   6.691
 4091POPC   C3B54621  25.605  35.671   7.031
 4091POPC   C4B54622  25.445  35.877   7.360
 4092POPC   NC354623  13.525  35.574   5.427
 4092POPC   PO454624  13.589  34.990   5.644
 4092POPC   GL154625  13.646  35.336   5.953
 4092POPC   GL254626  13.474  35.649   5.951
 4092POPC   C1A54627  13.586  35.432   6.418
 4092POPC   D2A54628  13.664  35.152   6.757
 4092POPC   C3A54629  13.492  35.243   7.163
 4092POPC   C4A54630  13.640  35.501   7.493
 4092POPC   C1B54631  13.864  35.762   6.146
 4092POPC   C2B54632  14.050  35.634   6.571
 4092POPC   C3B54633  13.802  35.623   6.972
 4092POPC   C4B54634  13.370  35.749   7.114
 4093POPC   NC354635  11.425  18.798   5.402
 4093POPC   PO454636  11.570  18.267   5.063
 4093POPC   GL154637  11.550  18.364   5.632
 4093POPC   GL254638  11.515  18.709   5.871
 4093POPC   C1A54639  11.430  18.310   6.141
 4093POPC   D2A54640  11.397  18.474   6.600
 4093POPC   C3A54641  11.260  18.144   6.922
 4093POPC   C4A54642  11.136  17.920   7.322
 4093POPC   C1B54643  11.062  18.676   6.047
 4093POPC   C2B54644  10.915  18.709   6.506
 4093POPC   C3B54645  11.016  18.597   6.970
 4093POPC   C4B54646  11.086  18.828   7.357
 4094POPC   NC354647  23.362  34.865   5.503
 4094POPC   PO454648  22.877  34.355   5.369
 4094POPC   GL154649  23.089  34.509   5.754
 4094POPC   GL254650  23.317  34.273   5.922
 4094POPC   C1A54651  23.099  34.754   6.158
 4094POPC   D2A54652  22.859  34.661   6.557
 4094POPC   C3A54653  23.036  34.752   6.944
 4094POPC   C4A54654  23.203  34.537   7.250
 4094POPC   C1B54655  23.250  34.294   6.378
 4094POPC   C2B54656  23.136  34.250   6.805
 4094POPC   C3B54657  23.083  34.055   7.202
 4094POPC   C4B54658  23.356  34.156   7.581
 4095POPC   NC354659  17.129  36.180   5.710
 4095POPC   PO454660  17.656  35.932   5.452
 4095POPC   GL154661  17.612  36.095   5.849
 4095POPC   GL254662  17.591  36.484   5.849
 4095POPC   C1A54663  17.490  35.827   6.192
 4095POPC   D2A54664  17.374  35.678   6.598
 4095POPC   C3A54665  17.348  35.992   6.845
 4095POPC   C4A54666  17.518  36.121   7.200
 4095POPC   C1B54667  17.498  36.345   6.297
 4095POPC   C2B54668  17.552  36.452   6.749
 4095POPC   C3B54669  17.212  36.485   7.060
 4095POPC   C4B54670  17.224  36.443   7.523
 4096POPC   NC354671  13.824  14.601   5.517
 4096POPC   PO454672  13.279  14.318   5.360
 4096POPC   GL154673  13.445  14.446   5.790
 4096POPC   GL254674  13.685  14.168   5.807
 4096POPC   C1A54675  13.535  14.571   6.216
 4096POPC   D2A54676  13.774  14.617   6.586
 4096POPC   C3A54677  13.582  14.693   6.968
 4096POPC   C4A54678  13.531  14.507   7.358
 4096POPC   C1B54679  13.395  14.092   6.172
 4096POPC   C2B54680  13.523  14.152   6.583
 4096POPC   C3B54681  13.362  14.190   6.978
 4096POPC   C4B54682  13.434  14.001   7.362
 4097POPC   NC354683  12.779   7.680   5.498
 4097POPC   PO454684  12.969   7.055   5.426
 4097POPC   GL154685  12.877   7.277   5.835
 4097POPC   GL254686  13.136   7.529   5.918
 4097POPC   C1A54687  12.843   7.196   6.293
 4097POPC   D2A54688  12.983   7.340   6.694
 4097POPC   C3A54689  13.019   7.105   7.065
 4097POPC   C4A54690  13.004   7.307   7.440
 4097POPC   C1B54691  12.968   7.731   6.301
 4097POPC   C2B54692  13.117   7.838   6.741
 4097POPC   C3B54693  13.118   7.733   7.193
 4097POPC   C4B54694  13.254   7.681   7.674
 4098POPC   NC354695  13.249  36.172   5.173
 4098POPC   PO454696  13.787  35.955   5.475
 4098POPC   GL154697  13.683  36.216   5.839
 4098POPC   GL254698  13.369  36.400   5.887
 4098POPC   C1A54699  13.821  36.253   6.251
 4098POPC   D2A54700  13.664  35.960   6.593
 4098POPC   C3A54701  13.736  36.128   7.007
 4098POPC   C4A54702  13.676  36.004   7.442
 4098POPC   C1B54703  13.331  36.167   6.272
 4098POPC   C2B54704  13.321  36.300   6.742
 4098POPC   C3B54705  13.292  36.280   7.215
 4098POPC   C4B54706  13.368  36.397   7.659
 4099POPC   NC354707   2.616  34.802   5.226
 4099POPC   PO454708   3.123  34.294   5.295
 4099POPC   GL154709   2.886  34.538   5.577
 4099POPC   GL254710   2.622  34.298   5.652
 4099POPC   C1A54711   2.736  34.699   5.980
 4099POPC   D2A54712   2.538  34.621   6.382
 4099POPC   C3A54713   2.871  34.567   6.710
 4099POPC   C4A54714   2.880  34.852   7.081
 4099POPC   C1B54715   2.665  34.190   6.118
 4099POPC   C2B54716   2.559  34.127   6.590
 4099POPC   C3B54717   2.559  34.292   7.006
 4099POPC   C4B54718   2.857  34.439   7.357
 4100POPC   NC354719  27.877  17.592   5.682
 4100POPC   PO454720  27.387  17.203   5.329
 4100POPC   GL154721  27.507  17.283   5.871
 4100POPC   GL254722  27.477  17.620   5.989
 4100POPC   C1A54723  27.347  17.195   6.292
 4100POPC   D2A54724  27.565  17.082   6.697
 4100POPC   C3A54725  27.529  17.295   7.074
 4100POPC   C4A54726  27.248  17.544   7.271
 4100POPC   C1B54727  27.321  17.721   6.391
 4100POPC   C2B54728  27.287  17.933   6.784
 4100POPC   C3B54729  27.580  17.858   7.091
 4100POPC   C4B54730  27.977  17.712   7.094
 4101POPC   NC354731  16.188   1.219   5.322
 4101POPC   PO454732  15.584   1.312   5.173
 4101POPC   GL154733  15.804   1.324   5.650
 4101POPC   GL254734  16.147   1.475   5.771
 4101POPC   C1A54735  15.878   1.203   6.135
 4101POPC   D2A54736  16.065   1.088   6.590
 4101POPC   C3A54737  15.829   1.082   7.064
 4101POPC   C4A54738  15.655   1.150   7.568
 4101POPC   C1B54739  16.337   1.450   6.201
 4101POPC   C2B54740  16.509   1.460   6.624
 4101POPC   C3B54741  16.384   1.537   7.057
 4101POPC   C4B54742  16.115   1.360   7.393
 4102POPC   NC354743  33.419  19.225   5.609
 4102POPC   PO454744  34.046  19.319   5.394
 4102POPC   GL154745  33.897  19.126   5.794
 4102POPC   GL254746  33.915  18.768   5.704
 4102POPC   C1A54747  33.678  19.256   6.208
 4102POPC   D2A54748  33.533  19.510   6.568
 4102POPC   C3A54749  33.640  19.295   6.935
 4102POPC   C4A54750  33.595  18.967   7.209
 4102POPC   C1B54751  33.778  18.744   6.146
 4102POPC   C2B54752  33.773  18.845   6.599
 4102POPC   C3B54753  33.908  18.629   6.997
 4102POPC   C4B54754  33.839  18.618   7.475
 4103POPC   NC354755  15.782  26.130   5.464
 4103POPC   PO454756  16.058  25.543   5.437
 4103POPC   GL154757  16.222  25.865   5.714
 4103POPC   GL254758  16.325  26.199   5.640
 4103POPC   C1A54759  16.025  26.028   6.090
 4103POPC   D2A54760  16.185  26.005   6.484
 4103POPC   C3A54761  16.015  25.835   6.830
 4103POPC   C4A54762  15.868  26.135   7.117
 4103POPC   C1B54763  16.474  26.293   6.071
 4103POPC   C2B54764  16.488  26.404   6.505
 4103POPC   C3B54765  16.132  26.448   6.792
 4103POPC   C4B54766  16.153  26.546   7.228
 4104POPC   NC354767  19.330  33.400   5.666
 4104POPC   PO454768  18.953  32.837   5.319
 4104POPC   GL154769  18.826  32.947   5.744
 4104POPC   GL254770  19.119  33.001   5.910
 4104POPC   C1A54771  18.700  33.115   6.172
 4104POPC   D2A54772  18.886  32.882   6.515
 4104POPC   C3A54773  18.904  33.074   6.922
 4104POPC   C4A54774  18.874  32.871   7.302
 4104POPC   C1B54775  19.364  33.022   6.282
 4104POPC   C2B54776  19.377  32.934   6.713
 4104POPC   C3B54777  19.357  32.986   7.143
 4104POPC   C4B54778  19.281  33.309   7.424
 4105POPC   NC354779  29.759  34.032   5.342
 4105POPC   PO454780  29.969  33.384   5.373
 4105POPC   GL154781  29.928  33.680   5.684
 4105POPC   GL254782  29.586  33.659   5.690
 4105POPC   C1A54783  29.886  33.969   6.038
 4105POPC   D2A54784  29.703  33.944   6.461
 4105POPC   C3A54785  29.974  33.841   6.813
 4105POPC   C4A54786  29.955  33.830   7.238
 4105POPC   C1B54787  29.659  33.526   6.125
 4105POPC   C2B54788  29.818  33.428   6.540
 4105POPC   C3B54789  29.843  33.368   7.003
 4105POPC   C4B54790  29.563  33.502   7.358
 4106POPC   NC354791  14.725   6.006   5.484
 4106POPC   PO454792  14.304   5.483   5.298
 4106POPC   GL154793  14.147   5.778   5.692
 4106POPC   GL254794  14.401   5.945   5.849
 4106POPC   C1A54795  14.075   5.767   6.184
 4106POPC   D2A54796  14.248   5.520   6.558
 4106POPC   C3A54797  14.206   5.773   6.944
 4106POPC   C4A54798  14.525   5.902   7.235
 4106POPC   C1B54799  14.605   6.158   6.150
 4106POPC   C2B54800  14.428   6.032   6.524
 4106POPC   C3B54801  14.558   6.233   6.864
 4106POPC   C4B54802  14.833   6.440   7.154
 4107POPC   NC354803  14.946  18.997   5.434
 4107POPC   PO454804  15.477  19.205   5.210
 4107POPC   GL154805  15.431  19.189   5.763
 4107POPC   GL254806  15.151  19.062   5.895
 4107POPC   C1A54807  15.271  19.357   6.260
 4107POPC   D2A54808  15.045  19.144   6.640
 4107POPC   C3A54809  15.130  19.305   7.038
 4107POPC   C4A54810  15.437  19.239   7.318
 4107POPC   C1B54811  15.245  18.829   6.271
 4107POPC   C2B54812  15.289  18.629   6.668
 4107POPC   C3B54813  15.311  18.810   7.056
 4107POPC   C4B54814  14.927  18.892   7.257
 4108POPC   NC354815  40.018  33.348   5.590
 4108POPC   PO454816  39.520  32.859   5.365
 4108POPC   GL154817  39.819  32.915   5.765
 4108POPC   GL254818  40.212  32.863   5.766
 4108POPC   C1A54819  40.013  33.107   6.186
 4108POPC   D2A54820  40.181  33.253   6.577
 4108POPC   C3A54821  40.091  33.078   6.974
 4108POPC   C4A54822  39.670  33.066   7.207
 4108POPC   C1B54823  40.413  32.772   6.200
 4108POPC   C2B54824  40.227  32.699   6.651
 4108POPC   C3B54825  40.259  32.656   7.156
 4108POPC   C4B54826  40.098  32.942   7.524
 4109POPC   NC354827  11.597   9.495   5.302
 4109POPC   PO454828  11.231  10.096   5.091
 4109POPC   GL154829  11.278   9.853   5.555
 4109POPC   GL254830  11.653   9.940   5.609
 4109POPC   C1A54831  11.118   9.604   6.014
 4109POPC   D2A54832  10.918   9.632   6.478
 4109POPC   C3A54833  11.094   9.567   6.899
 4109POPC   C4A54834  10.964   9.387   7.313
 4109POPC   C1B54835  11.518   9.903   6.047
 4109POPC   C2B54836  11.302  10.022   6.429
 4109POPC   C3B54837  11.183  10.144   6.846
 4109POPC   C4B54838  11.207   9.936   7.252
 4110POPC   NC354839  12.214  27.287   5.203
 4110POPC   PO454840  12.006  27.838   5.443
 4110POPC   GL154841  11.949  27.670   5.845
 4110POPC   GL254842  12.097  27.320   5.802
 4110POPC   C1A54843  12.010  27.841   6.262
 4110POPC   D2A54844  12.217  27.725   6.623
 4110POPC   C3A54845  12.044  27.866   7.003
 4110POPC   C4A54846  11.647  28.019   7.118
 4110POPC   C1B54847  12.187  27.343   6.259
 4110POPC   C2B54848  12.005  27.270   6.690
 4110POPC   C3B54849  12.034  27.298   7.143
 4110POPC   C4B54850  12.252  27.106   7.487
 4111POPC   NC354851  11.790  25.473   5.395
 4111POPC   PO454852  12.468  25.320   5.395
 4111POPC   GL154853  12.235  25.471   5.723
 4111POPC   GL254854  11.989  25.188   5.773
 4111POPC   C1A54855  12.304  25.421   6.147
 4111POPC   D2A54856  12.134  25.082   6.350
 4111POPC   C3A54857  12.175  25.108   6.780
 4111POPC   C4A54858  12.362  25.343   7.131
 4111POPC   C1B54859  11.805  25.438   6.109
 4111POPC   C2B54860  11.956  25.580   6.525
 4111POPC   C3B54861  11.861  25.488   6.957
 4111POPC   C4B54862  11.893  25.139   7.208
 4112POPC   NC354863  32.540  21.631   5.274
 4112POPC   PO454864  32.231  21.058   5.283
 4112POPC   GL154865  32.196  21.245   5.726
 4112POPC   GL254866  32.339  21.563   5.743
 4112POPC   C1A54867  32.065  21.426   6.168
 4112POPC   D2A54868  31.980  21.497   6.626
 4112POPC   C3A54869  32.039  21.182   6.956
 4112POPC   C4A54870  32.275  21.065   7.313
 4112POPC   C1B54871  32.573  21.413   6.069
 4112POPC   C2B54872  32.581  21.525   6.489
 4112POPC   C3B54873  32.549  21.318   6.873
 4112POPC   C4B54874  32.569  21.495   7.276
 4113POPC   NC354875  15.560   5.084   5.229
 4113POPC   PO454876  15.014   4.896   5.623
 4113POPC   GL154877  14.965   4.998   5.987
 4113POPC   GL254878  15.086   5.350   5.958
 4113POPC   C1A54879  15.099   4.722   6.294
 4113POPC   D2A54880  15.285   4.851   6.647
 4113POPC   C3A54881  15.062   5.090   6.933
 4113POPC   C4A54882  15.198   5.086   7.347
 4113POPC   C1B54883  15.048   5.285   6.412
 4113POPC   C2B54884  14.802   5.513   6.727
 4113POPC   C3B54885  14.865   5.519   7.167
 4113POPC   C4B54886  14.972   5.482   7.597
 4114POPC   NC354887  10.226  44.555   5.407
 4114POPC   PO454888  10.814  44.714   5.199
 4114POPC   GL154889  10.663  44.843   5.655
 4114POPC   GL254890  10.345  44.774   5.870
 4114POPC   C1A54891  10.742   0.056   6.084
 4114POPC   D2A54892  10.973  44.943   6.497
 4114POPC   C3A54893  10.738  44.847   6.888
 4114POPC   C4A54894  10.798  44.942   7.309
 4114POPC   C1B54895  10.599  44.587   6.237
 4114POPC   C2B54896  10.796  44.421   6.623
 4114POPC   C3B54897  10.626  44.372   7.050
 4114POPC   C4B54898  10.290  44.684   7.156
 4115POPC   NC354899  34.917  17.904   5.347
 4115POPC   PO454900  34.364  18.396   5.176
 4115POPC   GL154901  34.578  18.228   5.533
 4115POPC   GL254902  34.633  18.531   5.703
 4115POPC   C1A54903  34.701  18.086   5.952
 4115POPC   D2A54904  34.548  18.142   6.362
 4115POPC   C3A54905  34.848  18.116   6.688
 4115POPC   C4A54906  34.710  18.220   7.086
 4115POPC   C1B54907  34.660  18.685   6.153
 4115POPC   C2B54908  34.638  18.601   6.609
 4115POPC   C3B54909  34.564  18.697   7.044
 4115POPC   C4B54910  34.911  18.661   7.308
 4116POPC   NC354911  40.958  37.727   5.318
 4116POPC   PO454912  40.309  37.940   5.419
 4116POPC   GL154913  40.671  38.012   5.713
 4116POPC   GL254914  40.888  37.727   5.811
 4116POPC   C1A54915  40.767  38.092   6.146
 4116POPC   D2A54916  40.828  37.836   6.516
 4116POPC   C3A54917  40.681  37.995   6.890
 4116POPC   C4A54918  40.691  37.737   7.260
 4116POPC   C1B54919  40.890  37.468   6.163
 4116POPC   C2B54920  41.186  37.410   6.495
 4116POPC   C3B54921  41.029  37.525   6.897
 4116POPC   C4B54922  41.097  37.463   7.330
 4117POPC   NC354923  23.452  26.228   5.590
 4117POPC   PO454924  22.942  25.826   5.291
 4117POPC   GL154925  22.886  25.956   5.743
 4117POPC   GL254926  22.790  26.291   5.777
 4117POPC   C1A54927  22.861  25.955   6.200
 4117POPC   D2A54928  23.100  26.161   6.531
 4117POPC   C3A54929  23.079  26.082   6.981
 4117POPC   C4A54930  23.202  26.101   7.421
 4117POPC   C1B54931  22.633  26.411   6.206
 4117POPC   C2B54932  22.576  26.200   6.610
 4117POPC   C3B54933  22.570  25.948   7.001
 4117POPC   C4B54934  22.671  26.135   7.406
 4118POPC   NC354935  14.619  19.942   5.455
 4118POPC   PO454936  14.116  19.713   5.063
 4118POPC   GL154937  14.179  19.673   5.578
 4118POPC   GL254938  14.368  19.434   5.791
 4118POPC   C1A54939  14.236  19.799   6.082
 4118POPC   D2A54940  14.588  19.635   6.382
 4118POPC   C3A54941  14.644  19.943   6.720
 4118POPC   C4A54942  14.538  20.044   7.155
 4118POPC   C1B54943  14.199  19.304   6.248
 4118POPC   C2B54944  14.166  19.551   6.662
 4118POPC   C3B54945  14.176  19.661   7.106
 4118POPC   C4B54946  14.121  19.428   7.495
 4119POPC   NC354947  25.499  17.849   5.609
 4119POPC   PO454948  25.210  17.195   5.550
 4119POPC   GL154949  25.282  17.458   5.841
 4119POPC   GL254950  25.057  17.767   5.873
 4119POPC   C1A54951  25.480  17.519   6.210
 4119POPC   D2A54952  25.243  17.627   6.559
 4119POPC   C3A54953  25.360  17.591   7.003
 4119POPC   C4A54954  25.411  17.194   7.161
 4119POPC   C1B54955  24.790  17.849   6.244
 4119POPC   C2B54956  24.806  17.880   6.691
 4119POPC   C3B54957  24.631  17.871   7.069
 4119POPC   C4B54958  24.807  17.764   7.458
 4120POPC   NC354959   6.989   0.085   5.077
 4120POPC   PO454960   6.660  44.664   5.506
 4120POPC   GL154961   6.802  44.687   5.934
 4120POPC   GL254962   7.080  44.907   5.875
 4120POPC   C1A54963   7.033  44.575   6.322
 4120POPC   D2A54964   7.072  44.457   6.745
 4120POPC   C3A54965   6.855  44.696   7.082
 4120POPC   C4A54966   6.390  44.694   7.152
 4120POPC   C1B54967   6.870   0.058   6.268
 4120POPC   C2B54968   6.664  44.875   6.648
 4120POPC   C3B54969   6.602   0.149   7.041
 4120POPC   C4B54970   6.605   0.509   7.366
 4121POPC   NC354971  13.976  38.505   5.104
 4121POPC   PO454972  13.400  38.281   5.389
 4121POPC   GL154973  13.514  38.435   5.805
 4121POPC   GL254974  13.831  38.400   5.928
 4121POPC   C1A54975  13.391  38.284   6.232
 4121POPC   D2A54976  13.225  38.430   6.629
 4121POPC   C3A54977  13.480  38.441   7.014
 4121POPC   C4A54978  13.347  38.486   7.446
 4121POPC   C1B54979  13.701  38.684   6.238
 4121POPC   C2B54980  13.775  38.468   6.593
 4121POPC   C3B54981  14.026  38.462   6.946
 4121POPC   C4B54982  13.868  38.506   7.336
 4122POPC   NC354983  42.858  14.346   5.602
 4122POPC   PO454984  43.456  14.552   5.448
 4122POPC   GL154985  43.303  14.380   5.838
 4122POPC   GL254986  43.506  14.092   5.825
 4122POPC   C1A54987  42.989  14.321   6.238
 4122POPC   D2A54988  42.923  14.219   6.698
 4122POPC   C3A54989  42.980  14.463   7.082
 4122POPC   C4A54990  42.926  14.402   7.537
 4122POPC   C1B54991  43.479  14.221   6.274
 4122POPC   C2B54992  43.452  14.233   6.678
 4122POPC   C3B54993  43.454  14.269   7.101
 4122POPC   C4B54994  43.392  14.585   7.391
 4123POPC   NC354995  43.559  23.085   5.456
 4123POPC   PO454996  43.964  22.625   5.263
 4123POPC   GL154997  43.797  22.719   5.735
 4123POPC   GL254998  43.707  23.057   5.927
 4123POPC   C1A54999  43.898  22.694   6.222
 4123POPC   D2A55000  43.755  22.888   6.640
 4123POPC   C3A55001  44.030  22.869   7.025
 4123POPC   C4A55002  44.016  22.825   7.512
 4123POPC   C1B55003  43.410  22.843   6.181
 4123POPC   C2B55004  43.225  22.901   6.574
 4123POPC   C3B55005  43.369  23.117   6.902
 4123POPC   C4B55006  43.584  22.960   7.267
 4124POPC   NC355007  37.234  34.880   5.362
 4124POPC   PO455008  36.780  35.364   5.241
 4124POPC   GL155009  36.748  35.464   5.722
 4124POPC   GL255010  37.067  35.353   5.916
 4124POPC   C1A55011  36.631  35.271   6.142
 4124POPC   D2A55012  36.923  35.179   6.477
 4124POPC   C3A55013  36.768  35.206   6.874
 4124POPC   C4A55014  36.898  35.243   7.302
 4124POPC   C1B55015  37.185  35.602   6.309
 4124POPC   C2B55016  37.315  35.431   6.726
 4124POPC   C3B55017  37.330  35.464   7.185
 4124POPC   C4B55018  37.333  35.204   7.600
 4125POPC   NC355019  34.231  16.559   5.584
 4125POPC   PO455020  34.863  16.785   5.507
 4125POPC   GL155021  34.646  16.627   5.897
 4125POPC   GL255022  34.373  16.858   5.998
 4125POPC   C1A55023  34.701  16.650   6.350
 4125POPC   D2A55024  34.606  16.439   6.723
 4125POPC   C3A55025  34.736  16.707   6.998
 4125POPC   C4A55026  34.593  17.012   7.169
 4125POPC   C1B55027  34.229  16.845   6.434
 4125POPC   C2B55028  34.237  16.772   6.874
 4125POPC   C3B55029  34.324  16.532   7.238
 4125POPC   C4B55030  34.204  16.582   7.688
 4126POPC   NC355031  23.592  34.384   5.010
 4126POPC   PO455032  23.654  34.509   5.623
 4126POPC   GL155033  23.980  34.533   5.909
 4126POPC   GL255034  23.988  34.863   6.061
 4126POPC   C1A55035  24.024  34.256   6.247
 4126POPC   D2A55036  23.780  34.237   6.586
 4126POPC   C3A55037  23.925  34.144   6.939
 4126POPC   C4A55038  23.684  34.361   7.219
 4126POPC   C1B55039  23.638  34.632   6.287
 4126POPC   C2B55040  23.482  34.629   6.712
 4126POPC   C3B55041  23.585  34.860   7.070
 4126POPC   C4B55042  23.289  35.075   7.298
 4127POPC   NC355043  35.836   4.494   5.463
 4127POPC   PO455044  35.888   3.889   5.469
 4127POPC   GL155045  35.960   4.154   5.861
 4127POPC   GL255046  36.197   4.436   5.818
 4127POPC   C1A55047  36.060   4.308   6.301
 4127POPC   D2A55048  36.235   4.255   6.735
 4127POPC   C3A55049  36.118   4.287   7.178
 4127POPC   C4A55050  36.381   4.120   7.532
 4127POPC   C1B55051  36.355   4.700   6.155
 4127POPC   C2B55052  36.239   4.739   6.582
 4127POPC   C3B55053  36.336   4.743   7.003
 4127POPC   C4B55054  36.477   4.618   7.397
 4128POPC   NC355055   7.061  44.449   5.570
 4128POPC   PO455056   7.595  44.810   5.348
 4128POPC   GL155057   7.514  44.643   5.746
 4128POPC   GL255058   7.593  44.940   5.886
 4128POPC   C1A55059   7.511  44.500   6.178
 4128POPC   D2A55060   7.583  44.662   6.600
 4128POPC   C3A55061   7.511  44.447   6.971
 4128POPC   C4A55062   7.207  44.362   7.235
 4128POPC   C1B55063   7.380  44.985   6.280
 4128POPC   C2B55064   7.182  44.958   6.679
 4128POPC   C3B55065   7.291  44.956   7.097
 4128POPC   C4B55066   6.963   0.126   7.395
 4129POPC   NC355067   3.631   4.905   5.451
 4129POPC   PO455068   3.261   5.501   5.405
 4129POPC   GL155069   3.500   5.312   5.756
 4129POPC   GL255070   3.815   5.187   5.895
 4129POPC   C1A55071   3.407   5.092   6.172
 4129POPC   D2A55072   3.572   5.030   6.606
 4129POPC   C3A55073   3.382   5.232   6.961
 4129POPC   C4A55074   3.156   5.044   7.271
 4129POPC   C1B55075   3.805   5.403   6.292
 4129POPC   C2B55076   4.004   5.586   6.660
 4129POPC   C3B55077   3.886   5.371   7.044
 4129POPC   C4B55078   3.606   5.327   7.417
 4130POPC   NC355079  20.053  10.761   5.631
 4130POPC   PO455080  20.230  10.238   5.303
 4130POPC   GL155081  20.047  10.271   5.766
 4130POPC   GL255082  19.699  10.423   5.787
 4130POPC   C1A55083  19.985  10.450   6.232
 4130POPC   D2A55084  19.823  10.237   6.612
 4130POPC   C3A55085  19.985  10.394   6.972
 4130POPC   C4A55086  20.241  10.202   7.271
 4130POPC   C1B55087  19.551  10.707   6.138
 4130POPC   C2B55088  19.545  10.688   6.608
 4130POPC   C3B55089  19.586  10.736   7.062
 4130POPC   C4B55090  19.974  10.785   7.309
 4131POPC   NC355091  20.159   7.090   5.031
 4131POPC   PO455092  19.743   7.471   5.462
 4131POPC   GL155093  19.861   7.439   5.858
 4131POPC   GL255094  20.189   7.606   5.846
 4131POPC   C1A55095  19.844   7.144   6.220
 4131POPC   D2A55096  19.683   7.226   6.628
 4131POPC   C3A55097  19.885   7.275   7.055
 4131POPC   C4A55098  19.853   7.299   7.528
 4131POPC   C1B55099  20.044   7.633   6.279
 4131POPC   C2B55100  20.209   7.641   6.669
 4131POPC   C3B55101  20.392   7.804   6.999
 4131POPC   C4B55102  20.138   7.658   7.299
 4132POPC   NC355103  29.711  44.314   5.220
 4132POPC   PO455104  29.673  44.957   5.244
 4132POPC   GL155105  29.750  44.660   5.621
 4132POPC   GL255106  29.423  44.520   5.688
 4132POPC   C1A55107  29.978  44.595   6.069
 4132POPC   D2A55108  30.010  44.424   6.527
 4132POPC   C3A55109  30.249  44.497   6.927
 4132POPC   C4A55110  30.052  44.652   7.303
 4132POPC   C1B55111  29.511  44.831   6.043
 4132POPC   C2B55112  29.717  44.829   6.466
 4132POPC   C3B55113  29.703  44.777   6.927
 4132POPC   C4B55114  29.425  44.847   7.324
 4133POPC   NC355115  39.338  44.690   5.289
 4133POPC   PO455116  38.821  44.352   5.422
 4133POPC   GL155117  39.050  44.648   5.727
 4133POPC   GL255118  39.393  44.545   5.796
 4133POPC   C1A55119  39.087  44.737   6.177
 4133POPC   D2A55120  38.860  44.526   6.504
 4133POPC   C3A55121  38.966  44.632   6.924
 4133POPC   C4A55122  39.021  44.754   7.354
 4133POPC   C1B55123  39.597  44.707   6.170
 4133POPC   C2B55124  39.435  44.820   6.599
 4133POPC   C3B55125  39.474  44.617   6.996
 4133POPC   C4B55126  39.642  44.385   7.332
 4134POPC   NC355127  14.582  40.879   5.449
 4134POPC   PO455128  13.955  40.702   5.356
 4134POPC   GL155129  14.243  40.618   5.743
 4134POPC   GL255130  14.570  40.604   5.897
 4134POPC   C1A55131  14.098  40.533   6.172
 4134POPC   D2A55132  14.223  40.576   6.602
 4134POPC   C3A55133  14.592  40.638   6.862
 4134POPC   C4A55134  14.477  40.591   7.287
 4134POPC   C1B55135  14.376  40.976   6.154
 4134POPC   C2B55136  14.475  41.308   6.475
 4134POPC   C3B55137  14.575  41.304   6.917
 4134POPC   C4B55138  14.507  41.102   7.333
 4135POPC   NC355139   2.111  22.769   5.244
 4135POPC   PO455140   1.477  22.959   5.345
 4135POPC   GL155141   1.721  22.906   5.707
 4135POPC   GL255142   2.081  22.910   5.723
 4135POPC   C1A55143   1.799  22.925   6.161
 4135POPC   D2A55144   1.854  22.773   6.595
 4135POPC   C3A55145   1.880  23.092   6.906
 4135POPC   C4A55146   1.783  23.025   7.328
 4135POPC   C1B55147   2.320  23.070   6.065
 4135POPC   C2B55148   2.339  23.149   6.488
 4135POPC   C3B55149   2.402  23.167   6.917
 4135POPC   C4B55150   2.170  23.384   7.238
 4136POPC   NC355151  19.315  28.311   5.361
 4136POPC   PO455152  18.943  28.867   5.310
 4136POPC   GL155153  19.027  28.607   5.702
 4136POPC   GL255154  19.013  28.225   5.759
 4136POPC   C1A55155  19.074  28.597   6.150
 4136POPC   D2A55156  19.212  28.500   6.549
 4136POPC   C3A55157  19.035  28.661   6.915
 4136POPC   C4A55158  19.063  28.457   7.278
 4136POPC   C1B55159  19.206  28.090   6.149
 4136POPC   C2B55160  19.019  28.036   6.532
 4136POPC   C3B55161  19.152  28.094   6.938
 4136POPC   C4B55162  18.948  27.934   7.302
 4137POPC   NC355163  43.179  16.605   5.430
 4137POPC   PO455164  42.832  17.228   5.328
 4137POPC   GL155165  42.877  16.978   5.742
 4137POPC   GL255166  42.801  17.230   5.980
 4137POPC   C1A55167  43.051  16.820   6.190
 4137POPC   D2A55168  43.325  16.901   6.627
 4137POPC   C3A55169  43.134  16.757   7.075
 4137POPC   C4A55170  42.816  16.492   7.299
 4137POPC   C1B55171  43.084  17.306   6.337
 4137POPC   C2B55172  43.328  17.406   6.688
 4137POPC   C3B55173  43.356  17.222   7.083
 4137POPC   C4B55174  43.108  17.290   7.442
 4138POPC   NC355175  35.473   1.852   5.457
 4138POPC   PO455176  34.847   1.700   5.441
 4138POPC   GL155177  35.082   1.847   5.804
 4138POPC   GL255178  35.334   1.591   5.882
 4138POPC   C1A55179  35.175   2.140   6.158
 4138POPC   D2A55180  35.113   2.298   6.572
 4138POPC   C3A55181  35.130   2.055   6.955
 4138POPC   C4A55182  35.348   2.235   7.294
 4138POPC   C1B55183  35.574   1.826   6.171
 4138POPC   C2B55184  35.470   1.905   6.582
 4138POPC   C3B55185  35.658   1.950   6.982
 4138POPC   C4B55186  35.578   1.761   7.379
 4139POPC   NC355187  33.336  31.827   5.534
 4139POPC   PO455188  32.674  31.793   5.439
 4139POPC   GL155189  32.922  31.687   5.780
 4139POPC   GL255190  33.084  31.365   5.723
 4139POPC   C1A55191  32.996  31.891   6.168
 4139POPC   D2A55192  32.891  31.960   6.596
 4139POPC   C3A55193  33.135  31.716   6.868
 4139POPC   C4A55194  33.058  31.605   7.318
 4139POPC   C1B55195  33.014  31.355   6.162
 4139POPC   C2B55196  33.146  31.179   6.553
 4139POPC   C3B55197  33.050  31.233   6.977
 4139POPC   C4B55198  33.036  31.091   7.416
 4140POPC   NC355199  31.591  41.218   5.507
 4140POPC   PO455200  31.129  41.686   5.451
 4140POPC   GL155201  31.528  41.712   5.673
 4140POPC   GL255202  31.436  41.507   5.960
 4140POPC   C1A55203  31.820  41.826   6.040
 4140POPC   D2A55204  31.744  41.604   6.461
 4140POPC   C3A55205  31.444  41.748   6.806
 4140POPC   C4A55206  31.545  41.562   7.206
 4140POPC   C1B55207  31.228  41.524   6.380
 4140POPC   C2B55208  31.101  41.244   6.753
 4140POPC   C3B55209  31.068  41.118   7.209
 4140POPC   C4B55210  31.338  41.246   7.548
 4141POPC   NC355211  34.766  12.669   5.590
 4141POPC   PO455212  34.676  12.041   5.350
 4141POPC   GL155213  34.932  11.946   5.743
 4141POPC   GL255214  34.785  12.234   5.914
 4141POPC   C1A55215  34.839  11.774   6.209
 4141POPC   D2A55216  34.766  11.596   6.674
 4141POPC   C3A55217  34.553  11.847   7.023
 4141POPC   C4A55218  34.266  12.115   7.298
 4141POPC   C1B55219  34.849  12.520   6.290
 4141POPC   C2B55220  34.904  12.401   6.741
 4141POPC   C3B55221  34.722  12.338   7.164
 4141POPC   C4B55222  34.718  12.581   7.543
 4142POPC   NC355223  13.589  25.547   5.390
 4142POPC   PO455224  13.916  24.967   5.331
 4142POPC   GL155225  13.747  25.158   5.725
 4142POPC   GL255226  13.395  25.256   5.748
 4142POPC   C1A55227  13.653  25.227   6.178
 4142POPC   D2A55228  13.856  25.168   6.557
 4142POPC   C3A55229  13.693  25.250   6.970
 4142POPC   C4A55230  13.688  25.078   7.371
 4142POPC   C1B55231  13.292  25.593   6.053
 4142POPC   C2B55232  13.216  25.634   6.514
 4142POPC   C3B55233  13.299  25.723   6.963
 4142POPC   C4B55234  13.337  25.425   7.289
 4143POPC   NC355235   7.151  29.921   5.465
 4143POPC   PO455236   6.599  30.215   5.200
 4143POPC   GL155237   6.694  30.097   5.659
 4143POPC   GL255238   6.646  29.732   5.753
 4143POPC   C1A55239   6.682  30.085   6.134
 4143POPC   D2A55240   6.562  29.794   6.453
 4143POPC   C3A55241   6.707  29.850   6.866
 4143POPC   C4A55242   6.718  30.194   7.115
 4143POPC   C1B55243   6.959  29.643   6.122
 4143POPC   C2B55244   6.995  29.517   6.572
 4143POPC   C3B55245   7.131  29.601   6.997
 4143POPC   C4B55246   7.033  29.850   7.375
 4144POPC   NC355247  29.686  18.752   5.380
 4144POPC   PO455248  29.848  19.337   5.438
 4144POPC   GL155249  29.928  19.077   5.785
 4144POPC   GL255250  29.606  18.964   5.831
 4144POPC   C1A55251  29.911  19.029   6.236
 4144POPC   D2A55252  30.076  18.878   6.580
 4144POPC   C3A55253  29.974  18.986   6.943
 4144POPC   C4A55254  30.030  18.861   7.378
 4144POPC   C1B55255  29.417  19.170   6.166
 4144POPC   C2B55256  29.465  18.951   6.512
 4144POPC   C3B55257  29.603  18.683   6.783
 4144POPC   C4B55258  29.555  18.861   7.228
 4145POPC   NC355259  14.340  18.050   5.522
 4145POPC   PO455260  14.581  18.709   5.373
 4145POPC   GL155261  14.501  18.480   5.742
 4145POPC   GL255262  14.720  18.200   5.834
 4145POPC   C1A55263  14.329  18.336   6.139
 4145POPC   D2A55264  14.466  18.303   6.549
 4145POPC   C3A55265  14.286  18.504   6.883
 4145POPC   C4A55266  14.116  18.173   7.125
 4145POPC   C1B55267  14.693  17.954   6.192
 4145POPC   C2B55268  14.608  17.801   6.588
 4145POPC   C3B55269  14.634  17.978   6.977
 4145POPC   C4B55270  14.957  17.923   7.293
 4146POPC   NC355271  15.686  30.605   5.493
 4146POPC   PO455272  16.378  30.854   5.447
 4146POPC   GL155273  16.061  30.756   5.809
 4146POPC   GL255274  15.807  30.446   5.982
 4146POPC   C1A55275  16.002  30.834   6.232
 4146POPC   D2A55276  15.950  30.577   6.612
 4146POPC   C3A55277  16.075  30.776   6.982
 4146POPC   C4A55278  15.766  30.914   7.269
 4146POPC   C1B55279  16.221  30.381   6.201
 4146POPC   C2B55280  16.335  30.229   6.615
 4146POPC   C3B55281  16.243  30.298   7.058
 4146POPC   C4B55282  16.121  30.306   7.501
 4147POPC   NC355283  16.931  43.309   5.435
 4147POPC   PO455284  16.319  42.966   5.410
 4147POPC   GL155285  16.566  43.104   5.770
 4147POPC   GL255286  16.883  42.928   5.820
 4147POPC   C1A55287  16.710  43.356   6.119
 4147POPC   D2A55288  16.903  43.359   6.550
 4147POPC   C3A55289  16.649  43.303   6.925
 4147POPC   C4A55290  16.416  43.266   7.283
 4147POPC   C1B55291  16.872  42.915   6.287
 4147POPC   C2B55292  16.845  42.875   6.734
 4147POPC   C3B55293  16.942  42.799   7.192
 4147POPC   C4B55294  17.082  42.739   7.643
 4148POPC   NC355295  27.886   8.585   5.517
 4148POPC   PO455296  27.356   8.062   5.594
 4148POPC   GL155297  27.581   8.280   5.846
 4148POPC   GL255298  27.764   7.966   5.930
 4148POPC   C1A55299  27.681   8.390   6.252
 4148POPC   D2A55300  27.618   8.239   6.664
 4148POPC   C3A55301  27.694   8.427   7.061
 4148POPC   C4A55302  27.318   8.436   7.276
 4148POPC   C1B55303  27.641   7.867   6.305
 4148POPC   C2B55304  27.471   7.743   6.680
 4148POPC   C3B55305  27.491   7.936   7.067
 4148POPC   C4B55306  27.616   8.069   7.450
 4149POPC   NC355307  36.455  24.625   5.513
 4149POPC   PO455308  35.993  24.155   5.472
 4149POPC   GL155309  36.148  24.360   5.811
 4149POPC   GL255310  35.822  24.520   5.796
 4149POPC   C1A55311  36.355  24.279   6.208
 4149POPC   D2A55312  36.297  24.143   6.635
 4149POPC   C3A55313  36.248  24.413   6.991
 4149POPC   C4A55314  36.402  24.375   7.415
 4149POPC   C1B55315  35.819  24.318   6.206
 4149POPC   C2B55316  35.781  24.373   6.648
 4149POPC   C3B55317  35.714  24.351   7.098
 4149POPC   C4B55318  35.899  24.483   7.494
 4150POPC   NC355319  39.138  10.925   5.276
 4150POPC   PO455320  39.555  10.471   5.466
 4150POPC   GL155321  39.301  10.713   5.750
 4150POPC   GL255322  38.979  10.632   5.835
 4150POPC   C1A55323  39.270  10.914   6.159
 4150POPC   D2A55324  39.403  10.985   6.594
 4150POPC   C3A55325  39.202  10.827   6.976
 4150POPC   C4A55326  39.302  10.450   7.176
 4150POPC   C1B55327  39.063  10.462   6.266
 4150POPC   C2B55328  39.099  10.322   6.701
 4150POPC   C3B55329  39.335  10.007   6.923
 4150POPC   C4B55330  39.417   9.967   7.373
 4151POPC   NC355331  21.099  23.770   5.366
 4151POPC   PO455332  21.708  23.402   5.398
 4151POPC   GL155333  21.533  23.285   5.788
 4151POPC   GL255334  21.334  23.572   5.816
 4151POPC   C1A55335  21.709  23.339   6.198
 4151POPC   D2A55336  21.826  23.530   6.581
 4151POPC   C3A55337  21.502  23.563   6.890
 4151POPC   C4A55338  21.405  23.913   7.150
 4151POPC   C1B55339  21.074  23.416   6.151
 4151POPC   C2B55340  20.904  23.461   6.579
 4151POPC   C3B55341  21.039  23.333   6.957
 4151POPC   C4B55342  21.096  23.506   7.324
 4152POPC   NC355343   3.125  20.941   5.525
 4152POPC   PO455344   2.743  21.520   5.264
 4152POPC   GL155345   2.899  21.599   5.714
 4152POPC   GL255346   2.949  21.279   5.906
 4152POPC   C1A55347   2.754  21.713   6.163
 4152POPC   D2A55348   2.834  21.769   6.635
 4152POPC   C3A55349   2.627  21.522   6.972
 4152POPC   C4A55350   2.418  21.145   7.157
 4152POPC   C1B55351   2.951  21.098   6.355
 4152POPC   C2B55352   2.801  21.053   6.813
 4152POPC   C3B55353   2.882  20.938   7.272
 4152POPC   C4B55354   3.114  20.992   7.674
 4153POPC   NC355355  41.844  25.162   5.400
 4153POPC   PO455356  41.302  25.528   5.699
 4153POPC   GL155357  41.509  25.167   5.808
 4153POPC   GL255358  41.805  25.362   5.858
 4153POPC   C1A55359  41.311  25.009   6.174
 4153POPC   D2A55360  41.212  25.324   6.498
 4153POPC   C3A55361  41.458  25.185   6.794
 4153POPC   C4A55362  41.409  25.130   7.198
 4153POPC   C1B55363  41.662  25.362   6.277
 4153POPC   C2B55364  41.736  25.589   6.640
 4153POPC   C3B55365  41.790  25.466   7.072
 4153POPC   C4B55366  41.525  25.587   7.426
 4154POPC   NC355367  29.338  31.517   5.181
 4154POPC   PO455368  28.765  31.289   5.509
 4154POPC   GL155369  29.101  31.295   5.830
 4154POPC   GL255370  29.233  31.564   5.686
 4154POPC   C1A55371  29.186  31.283   6.267
 4154POPC   D2A55372  28.939  31.214   6.605
 4154POPC   C3A55373  29.059  31.303   7.002
 4154POPC   C4A55374  28.982  31.525   7.371
 4154POPC   C1B55375  29.246  31.770   6.126
 4154POPC   C2B55376  29.158  31.700   6.612
 4154POPC   C3B55377  29.315  31.750   7.066
 4154POPC   C4B55378  29.317  31.874   7.554
 4155POPC   NC355379   4.665  11.479   5.503
 4155POPC   PO455380   5.056  10.949   5.305
 4155POPC   GL155381   5.058  11.234   5.728
 4155POPC   GL255382   5.129  11.575   5.694
 4155POPC   C1A55383   4.929  11.378   6.175
 4155POPC   D2A55384   4.774  11.645   6.551
 4155POPC   C3A55385   4.830  11.606   7.023
 4155POPC   C4A55386   4.923  11.278   7.361
 4155POPC   C1B55387   5.430  11.487   6.022
 4155POPC   C2B55388   5.382  11.268   6.425
 4155POPC   C3B55389   5.267  11.376   6.867
 4155POPC   C4B55390   5.283  11.626   7.263
 4156POPC   NC355391  33.139   1.667   5.503
 4156POPC   PO455392  33.244   2.287   5.352
 4156POPC   GL155393  33.357   2.322   5.786
 4156POPC   GL255394  33.228   1.999   5.865
 4156POPC   C1A55395  33.159   2.338   6.234
 4156POPC   D2A55396  32.784   2.163   6.479
 4156POPC   C3A55397  32.903   2.104   6.918
 4156POPC   C4A55398  33.221   2.352   7.138
 4156POPC   C1B55399  33.085   1.809   6.242
 4156POPC   C2B55400  33.309   1.945   6.615
 4156POPC   C3B55401  33.318   1.837   7.043
 4156POPC   C4B55402  32.957   1.614   7.170
 4157POPC   NC355403  42.776  43.684   5.451
 4157POPC   PO455404  43.433  43.498   5.473
 4157POPC   GL155405  43.156  43.774   5.795
 4157POPC   GL255406  42.824  43.937   5.897
 4157POPC   C1A55407  43.015  43.586   6.206
 4157POPC   D2A55408  43.199  43.535   6.626
 4157POPC   C3A55409  42.915  43.536   6.973
 4157POPC   C4A55410  42.948  43.527   7.395
 4157POPC   C1B55411  42.792  44.031   6.354
 4157POPC   C2B55412  43.100  44.048   6.689
 4157POPC   C3B55413  43.081  43.996   7.117
 4157POPC   C4B55414  42.702  44.178   7.150
 4158POPC   NC355415  36.972  31.236   5.422
 4158POPC   PO455416  37.020  31.898   5.201
 4158POPC   GL155417  36.811  31.659   5.676
 4158POPC   GL255418  37.003  31.354   5.896
 4158POPC   C1A55419  36.849  31.719   6.187
 4158POPC   D2A55420  37.116  31.733   6.580
 4158POPC   C3A55421  36.975  31.601   7.003
 4158POPC   C4A55422  36.647  31.380   7.250
 4158POPC   C1B55423  36.911  31.180   6.316
 4158POPC   C2B55424  36.826  31.136   6.777
 4158POPC   C3B55425  37.030  31.074   7.179
 4158POPC   C4B55426  36.878  31.081   7.638
 4159POPC   NC355427  21.527  28.742   5.243
 4159POPC   PO455428  21.296  29.399   5.389
 4159POPC   GL155429  21.131  29.210   5.741
 4159POPC   GL255430  21.078  28.911   5.527
 4159POPC   C1A55431  21.135  29.120   6.183
 4159POPC   D2A55432  21.326  29.083   6.555
 4159POPC   C3A55433  21.141  29.213   6.912
 4159POPC   C4A55434  21.368  29.213   7.282
 4159POPC   C1B55435  20.997  28.720   5.909
 4159POPC   C2B55436  21.014  28.664   6.354
 4159POPC   C3B55437  21.054  28.686   6.787
 4159POPC   C4B55438  21.033  28.809   7.201
 4160POPC   NC355439   7.159  34.573   5.171
 4160POPC   PO455440   6.956  34.834   5.776
 4160POPC   GL155441   7.306  34.728   6.044
 4160POPC   GL255442   7.661  34.797   5.884
 4160POPC   C1A55443   7.142  34.439   6.344
 4160POPC   D2A55444   6.917  34.608   6.660
 4160POPC   C3A55445   7.271  34.592   6.897
 4160POPC   C4A55446   7.391  34.536   7.284
 4160POPC   C1B55447   7.550  35.103   6.237
 4160POPC   C2B55448   7.258  35.009   6.559
 4160POPC   C3B55449   7.375  35.097   6.969
 4160POPC   C4B55450   7.735  34.889   7.173
 4161POPC   NC355451  18.490  11.702   5.453
 4161POPC   PO455452  17.906  11.912   5.219
 4161POPC   GL155453  17.990  11.817   5.686
 4161POPC   GL255454  18.268  12.015   5.857
 4161POPC   C1A55455  17.945  11.790   6.173
 4161POPC   D2A55456  18.146  12.049   6.514
 4161POPC   C3A55457  18.034  11.944   6.947
 4161POPC   C4A55458  18.242  11.952   7.348
 4161POPC   C1B55459  18.505  12.276   6.180
 4161POPC   C2B55460  18.535  12.445   6.593
 4161POPC   C3B55461  18.457  12.244   6.965
 4161POPC   C4B55462  18.631  12.307   7.345
 4162POPC   NC355463  22.192  22.262   5.193
 4162POPC   PO455464  22.621  21.859   5.509
 4162POPC   GL155465  22.222  22.057   5.710
 4162POPC   GL255466  22.111  22.414   5.674
 4162POPC   C1A55467  21.959  22.147   6.112
 4162POPC   D2A55468  22.069  22.141   6.558
 4162POPC   C3A55469  21.923  22.078   6.970
 4162POPC   C4A55470  22.306  22.124   7.205
 4162POPC   C1B55471  22.334  22.504   6.050
 4162POPC   C2B55472  22.182  22.616   6.457
 4162POPC   C3B55473  22.235  22.517   6.892
 4162POPC   C4B55474  22.434  22.612   7.282
 4163POPC   NC355475  44.357  36.256   5.012
 4163POPC   PO455476  44.891  36.165   5.457
 4163POPC   GL155477  44.557  36.049   5.810
 4163POPC   GL255478  44.532  35.735   5.994
 4163POPC   C1A55479  44.525  36.235   6.220
 4163POPC   D2A55480  44.795  36.288   6.599
 4163POPC   C3A55481  44.638  36.064   6.984
 4163POPC   C4A55482  44.654  35.876   7.417
 4163POPC   C1B55483  44.946  35.926   6.144
 4163POPC   C2B55484   0.167  35.917   6.535
 4163POPC   C3B55485   0.046  35.732   6.937
 4163POPC   C4B55486   0.143  35.938   7.298
 4164POPC   NC355487  33.640  32.662   5.673
 4164POPC   PO455488  33.962  32.213   5.189
 4164POPC   GL155489  34.081  32.208   5.670
 4164POPC   GL255490  34.127  32.546   5.807
 4164POPC   C1A55491  33.944  32.141   6.140
 4164POPC   D2A55492  33.726  32.217   6.559
 4164POPC   C3A55493  33.888  32.099   6.995
 4164POPC   C4A55494  33.727  32.175   7.447
 4164POPC   C1B55495  34.117  32.698   6.244
 4164POPC   C2B55496  34.016  32.640   6.675
 4164POPC   C3B55497  33.682  32.569   6.960
 4164POPC   C4B55498  33.973  32.558   7.266
 4165POPC   NC355499  38.101   0.625   5.597
 4165POPC   PO455500  37.731   0.260   5.115
 4165POPC   GL155501  37.741   0.234   5.606
 4165POPC   GL255502  37.460   0.452   5.719
 4165POPC   C1A55503  37.763   0.280   6.099
 4165POPC   D2A55504  37.812   0.567   6.488
 4165POPC   C3A55505  37.690   0.366   6.881
 4165POPC   C4A55506  37.718   0.172   7.294
 4165POPC   C1B55507  37.300   0.590   6.150
 4165POPC   C2B55508  37.289   0.574   6.618
 4165POPC   C3B55509  37.146   0.736   7.017
 4165POPC   C4B55510  37.178   0.982   7.384
 4166POPC   NC355511  44.040  35.408   5.436
 4166POPC   PO455512  43.717  34.817   5.360
 4166POPC   GL155513  43.754  35.037   5.796
 4166POPC   GL255514  43.698  35.406   5.827
 4166POPC   C1A55515  43.628  35.128   6.246
 4166POPC   D2A55516  43.669  35.505   6.522
 4166POPC   C3A55517  43.819  35.357   6.892
 4166POPC   C4A55518  43.952  34.898   6.994
 4166POPC   C1B55519  44.043  35.453   6.138
 4166POPC   C2B55520  44.276  35.610   6.524
 4166POPC   C3B55521  44.223  35.724   7.007
 4166POPC   C4B55522  43.846  35.716   7.294
 4167POPC   NC355523   7.370   4.748   5.237
 4167POPC   PO455524   7.239   5.423   5.392
 4167POPC   GL155525   7.383   5.164   5.715
 4167POPC   GL255526   7.518   4.819   5.720
 4167POPC   C1A55527   7.310   5.179   6.154
 4167POPC   D2A55528   7.493   5.263   6.548
 4167POPC   C3A55529   7.329   5.377   6.945
 4167POPC   C4A55530   7.146   5.148   7.262
 4167POPC   C1B55531   7.497   4.690   6.155
 4167POPC   C2B55532   7.669   4.771   6.568
 4167POPC   C3B55533   7.450   4.816   6.954
 4167POPC   C4B55534   7.510   4.809   7.385
 4168POPC   NC355535  25.124  24.587   5.084
 4168POPC   PO455536  25.581  24.294   5.472
 4168POPC   GL155537  25.357  24.505   5.785
 4168POPC   GL255538  25.178  24.211   5.836
 4168POPC   C1A55539  25.347  24.739   6.208
 4168POPC   D2A55540  25.157  24.843   6.623
 4168POPC   C3A55541  25.420  24.744   6.971
 4168POPC   C4A55542  25.123  24.496   7.163
 4168POPC   C1B55543  25.392  24.215   6.204
 4168POPC   C2B55544  25.376  24.372   6.605
 4168POPC   C3B55545  25.461  24.168   6.966
 4168POPC   C4B55546  25.385  24.006   7.347
 4169POPC   NC355547  43.996  39.850   5.484
 4169POPC   PO455548  44.345  40.421   5.583
 4169POPC   GL155549  43.996  40.237   5.846
 4169POPC   GL255550  43.681  40.451   5.881
 4169POPC   C1A55551  44.020  39.909   6.196
 4169POPC   D2A55552  44.310  39.785   6.546
 4169POPC   C3A55553  44.173  39.823   6.993
 4169POPC   C4A55554  44.143  40.156   7.305
 4169POPC   C1B55555  43.605  40.218   6.266
 4169POPC   C2B55556  43.824  40.087   6.659
 4169POPC   C3B55557  43.680  40.099   7.088
 4169POPC   C4B55558  43.650  40.311   7.517
 4170POPC   NC355559  19.571  36.759   5.288
 4170POPC   PO455560  18.930  36.980   5.386
 4170POPC   GL155561  18.985  36.911   5.794
 4170POPC   GL255562  19.310  36.740   5.735
 4170POPC   C1A55563  18.749  36.790   6.159
 4170POPC   D2A55564  18.764  36.945   6.589
 4170POPC   C3A55565  19.056  36.794   6.888
 4170POPC   C4A55566  18.787  36.680   7.218
 4170POPC   C1B55567  19.307  36.729   6.183
 4170POPC   C2B55568  19.408  36.997   6.531
 4170POPC   C3B55569  19.530  37.321   6.838
 4170POPC   C4B55570  19.322  37.162   7.198
 4171POPC   NC355571   0.380   3.088   5.328
 4171POPC   PO455572   0.619   2.470   5.278
 4171POPC   GL155573   0.539   2.763   5.694
 4171POPC   GL255574   0.673   3.102   5.737
 4171POPC   C1A55575   0.246   2.896   6.088
 4171POPC   D2A55576   0.145   2.680   6.532
 4171POPC   C3A55577   0.145   2.965   6.940
 4171POPC   C4A55578   0.328   2.865   7.378
 4171POPC   C1B55579   0.748   2.927   6.150
 4171POPC   C2B55580   0.532   2.993   6.532
 4171POPC   C3B55581   0.638   2.897   6.954
 4171POPC   C4B55582   0.824   2.902   7.330
 4172POPC   NC355583   0.094  14.887   5.454
 4172POPC   PO455584  44.501  15.248   5.342
 4172POPC   GL155585  44.580  15.024   5.711
 4172POPC   GL255586  44.861  15.195   5.807
 4172POPC   C1A55587  44.616  14.849   6.157
 4172POPC   D2A55588  44.834  14.733   6.571
 4172POPC   C3A55589  44.655  14.838   7.002
 4172POPC   C4A55590  44.571  14.783   7.475
 4172POPC   C1B55591   0.020  15.154   6.240
 4172POPC   C2B55592   0.198  15.107   6.656
 4172POPC   C3B55593   0.124  15.243   7.061
 4172POPC   C4B55594  44.749  15.258   7.278
 4173POPC   NC355595  42.921  36.657   5.495
 4173POPC   PO455596  43.347  37.227   5.421
 4173POPC   GL155597  43.211  36.969   5.788
 4173POPC   GL255598  42.912  36.825   5.999
 4173POPC   C1A55599  43.398  36.681   6.055
 4173POPC   D2A55600  43.244  36.475   6.423
 4173POPC   C3A55601  43.294  36.722   6.791
 4173POPC   C4A55602  43.387  36.896   7.191
 4173POPC   C1B55603  43.104  37.074   6.322
 4173POPC   C2B55604  43.014  37.156   6.755
 4173POPC   C3B55605  42.882  36.880   7.111
 4173POPC   C4B55606  42.743  36.762   7.548
 4174POPC   NC355607  43.711  37.808   5.231
 4174POPC   PO455608  44.159  37.375   5.370
 4174POPC   GL155609  43.963  37.675   5.678
 4174POPC   GL255610  43.625  37.581   5.696
 4174POPC   C1A55611  43.937  37.667   6.153
 4174POPC   D2A55612  43.992  37.398   6.533
 4174POPC   C3A55613  44.159  37.584   6.912
 4174POPC   C4A55614  43.980  37.780   7.268
 4174POPC   C1B55615  43.492  37.893   6.007
 4174POPC   C2B55616  43.502  37.888   6.485
 4174POPC   C3B55617  43.551  37.907   6.963
 4174POPC   C4B55618  43.639  38.172   7.364
 4175POPC   NC355619  32.650  31.130   5.604
 4175POPC   PO455620  32.799  30.463   5.498
 4175POPC   GL155621  32.555  30.649   5.850
 4175POPC   GL255622  32.280  30.911   5.845
 4175POPC   C1A55623  32.433  30.628   6.294
 4175POPC   D2A55624  32.174  30.894   6.582
 4175POPC   C3A55625  32.158  30.768   6.992
 4175POPC   C4A55626  32.496  30.529   7.102
 4175POPC   C1B55627  32.511  31.116   6.231
 4175POPC   C2B55628  32.675  30.970   6.643
 4175POPC   C3B55629  32.566  31.070   7.046
 4175POPC   C4B55630  32.424  30.956   7.456
 4176POPC   NC355631  28.100  33.348   5.558
 4176POPC   PO455632  28.450  33.892   5.269
 4176POPC   GL155633  28.410  33.918   5.764
 4176POPC   GL255634  28.138  34.150   5.922
 4176POPC   C1A55635  28.450  33.851   6.238
 4176POPC   D2A55636  28.477  34.093   6.634
 4176POPC   C3A55637  28.393  33.868   6.997
 4176POPC   C4A55638  28.482  33.725   7.460
 4176POPC   C1B55639  27.929  33.889   6.233
 4176POPC   C2B55640  28.010  33.823   6.632
 4176POPC   C3B55641  27.895  34.019   6.995
 4176POPC   C4B55642  28.060  33.985   7.420
 4177POPC   NC355643   3.277  21.766   5.369
 4177POPC   PO455644   3.566  21.118   5.476
 4177POPC   GL155645   3.684  21.369   5.840
 4177POPC   GL255646   3.396  21.533   5.852
 4177POPC   C1A55647   3.686  21.395   6.292
 4177POPC   D2A55648   3.652  21.666   6.641
 4177POPC   C3A55649   3.590  21.480   7.064
 4177POPC   C4A55650   3.536  21.092   7.215
 4177POPC   C1B55651   3.208  21.536   6.280
 4177POPC   C2B55652   3.224  21.374   6.696
 4177POPC   C3B55653   3.099  21.366   7.109
 4177POPC   C4B55654   3.252  21.471   7.503
 4178POPC   NC355655  21.472  20.939   5.213
 4178POPC   PO455656  21.229  20.455   5.686
 4178POPC   GL155657  21.377  20.458   6.054
 4178POPC   GL255658  21.645  20.246   5.964
 4178POPC   C1A55659  21.436  20.843   6.316
 4178POPC   D2A55660  21.546  20.947   6.751
 4178POPC   C3A55661  21.347  20.756   7.103
 4178POPC   C4A55662  21.380  20.421   7.366
 4178POPC   C1B55663  21.801  20.469   6.320
 4178POPC   C2B55664  21.460  20.427   6.590
 4178POPC   C3B55665  21.393  20.207   6.918
 4178POPC   C4B55666  21.769  20.132   7.172
 4179POPC   NC355667   8.266  39.536   5.384
 4179POPC   PO455668   7.985  38.954   5.407
 4179POPC   GL155669   8.068  39.241   5.783
 4179POPC   GL255670   8.052  39.628   5.846
 4179POPC   C1A55671   7.997  39.259   6.241
 4179POPC   D2A55672   8.192  39.080   6.620
 4179POPC   C3A55673   7.990  38.960   6.992
 4179POPC   C4A55674   8.201  38.999   7.349
 4179POPC   C1B55675   8.040  39.764   6.295
 4179POPC   C2B55676   7.996  39.582   6.703
 4179POPC   C3B55677   8.260  39.453   7.015
 4179POPC   C4B55678   8.310  39.507   7.449
 4180POPC   NC355679  23.814  37.431   5.074
 4180POPC   PO455680  23.814  37.921   5.600
 4180POPC   GL155681  23.775  37.839   5.973
 4180POPC   GL255682  23.525  37.595   5.927
 4180POPC   C1A55683  23.901  37.960   6.367
 4180POPC   D2A55684  23.824  37.747   6.725
 4180POPC   C3A55685  23.565  37.940   7.008
 4180POPC   C4A55686  23.645  37.895   7.426
 4180POPC   C1B55687  23.443  37.667   6.376
 4180POPC   C2B55688  23.355  37.490   6.789
 4180POPC   C3B55689  23.556  37.421   7.208
 4180POPC   C4B55690  23.438  37.429   7.651
 4181POPC   NC355691  33.306  27.109   5.421
 4181POPC   PO455692  32.886  26.748   5.399
 4181POPC   GL155693  33.167  26.762   5.793
 4181POPC   GL255694  32.913  26.700   6.062
 4181POPC   C1A55695  33.373  26.813   6.234
 4181POPC   D2A55696  33.389  27.070   6.638
 4181POPC   C3A55697  33.308  26.855   7.050
 4181POPC   C4A55698  33.402  26.554   7.383
 4181POPC   C1B55699  32.939  26.813   6.529
 4181POPC   C2B55700  32.782  26.895   6.957
 4181POPC   C3B55701  32.569  27.075   7.322
 4181POPC   C4B55702  32.903  27.284   7.556
 4182POPC   NC355703   8.801  20.516   5.342
 4182POPC   PO455704   9.423  20.731   5.270
 4182POPC   GL155705   9.126  20.685   5.696
 4182POPC   GL255706   8.751  20.602   5.826
 4182POPC   C1A55707   9.081  20.773   6.174
 4182POPC   D2A55708   8.898  21.088   6.474
 4182POPC   C3A55709   8.960  20.955   6.906
 4182POPC   C4A55710   9.154  20.572   7.089
 4182POPC   C1B55711   8.575  20.637   6.254
 4182POPC   C2B55712   8.571  20.670   6.711
 4182POPC   C3B55713   8.681  20.336   7.009
 4182POPC   C4B55714   8.743  20.285   7.455
 4183POPC   NC355715  25.946  18.929   5.433
 4183POPC   PO455716  26.300  19.313   5.853
 4183POPC   GL155717  25.917  19.157   5.970
 4183POPC   GL255718  25.675  19.329   5.774
 4183POPC   C1A55719  25.843  18.920   6.379
 4183POPC   D2A55720  25.983  18.684   6.746
 4183POPC   C3A55721  26.156  18.951   7.058
 4183POPC   C4A55722  26.129  18.995   7.507
 4183POPC   C1B55723  25.615  19.452   6.266
 4183POPC   C2B55724  25.700  19.425   6.746
 4183POPC   C3B55725  25.867  19.346   7.205
 4183POPC   C4B55726  25.707  19.324   7.646
 4184POPC   NC355727   5.291  36.017   5.523
 4184POPC   PO455728   4.859  36.523   5.527
 4184POPC   GL155729   5.086  36.329   5.872
 4184POPC   GL255730   4.864  36.043   5.854
 4184POPC   C1A55731   5.281  36.124   6.261
 4184POPC   D2A55732   5.388  35.913   6.684
 4184POPC   C3A55733   5.285  36.156   7.060
 4184POPC   C4A55734   4.952  36.147   7.365
 4184POPC   C1B55735   4.780  36.248   6.260
 4184POPC   C2B55736   4.907  36.136   6.662
 4184POPC   C3B55737   4.796  36.432   6.947
 4184POPC   C4B55738   4.450  36.460   7.223
 4185POPC   NC355739  11.101   0.039   5.392
 4185POPC   PO455740  11.013  44.382   5.651
 4185POPC   GL155741  11.156  44.756   5.843
 4185POPC   GL255742  11.487  44.933   5.740
 4185POPC   C1A55743  11.390  44.726   6.217
 4185POPC   D2A55744  11.582  44.681   6.602
 4185POPC   C3A55745  11.257  44.673   6.912
 4185POPC   C4A55746  11.497  44.609   7.258
 4185POPC   C1B55747  11.779   0.095   6.095
 4185POPC   C2B55748  11.949   0.064   6.543
 4185POPC   C3B55749  11.780  44.990   6.972
 4185POPC   C4B55750  11.560   0.165   7.330
 4186POPC   NC355751  33.056  10.592   5.291
 4186POPC   PO455752  32.589  10.126   5.365
 4186POPC   GL155753  32.914  10.265   5.705
 4186POPC   GL255754  32.882  10.620   5.762
 4186POPC   C1A55755  33.097  10.364   6.141
 4186POPC   D2A55756  33.313  10.394   6.562
 4186POPC   C3A55757  33.132  10.610   6.958
 4186POPC   C4A55758  33.117  10.710   7.412
 4186POPC   C1B55759  32.667  10.669   6.140
 4186POPC   C2B55760  32.841  10.659   6.541
 4186POPC   C3B55761  32.640  10.795   6.933
 4186POPC   C4B55762  32.660  10.963   7.378
 4187POPC   NC355763  34.648  39.761   4.885
 4187POPC   PO455764  34.724  40.240   5.254
 4187POPC   GL155765  34.755  40.404   5.647
 4187POPC   GL255766  34.392  40.392   5.720
 4187POPC   C1A55767  34.810  40.198   6.060
 4187POPC   D2A55768  34.690  39.999   6.457
 4187POPC   C3A55769  34.726  40.166   6.892
 4187POPC   C4A55770  34.489  39.923   7.202
 4187POPC   C1B55771  34.317  40.282   6.194
 4187POPC   C2B55772  34.297  40.353   6.661
 4187POPC   C3B55773  34.239  40.390   7.128
 4187POPC   C4B55774  34.238  40.193   7.576
 4188POPC   NC355775  22.092   5.284   4.947
 4188POPC   PO455776  21.829   4.726   5.349
 4188POPC   GL155777  21.887   5.102   5.641
 4188POPC   GL255778  22.243   5.208   5.712
 4188POPC   C1A55779  21.894   5.280   6.084
 4188POPC   D2A55780  22.032   5.153   6.503
 4188POPC   C3A55781  21.797   5.122   6.892
 4188POPC   C4A55782  21.902   5.143   7.317
 4188POPC   C1B55783  22.444   5.202   6.146
 4188POPC   C2B55784  22.536   5.198   6.591
 4188POPC   C3B55785  22.307   5.132   6.957
 4188POPC   C4B55786  22.397   5.096   7.378
 4189POPC   NC355787  27.610  15.713   5.498
 4189POPC   PO455788  27.294  16.361   5.245
 4189POPC   GL155789  27.247  16.201   5.738
 4189POPC   GL255790  27.258  15.848   5.845
 4189POPC   C1A55791  27.416  16.149   6.240
 4189POPC   D2A55792  27.659  16.333   6.617
 4189POPC   C3A55793  27.580  16.136   6.988
 4189POPC   C4A55794  27.252  16.005   7.263
 4189POPC   C1B55795  27.395  15.622   6.253
 4189POPC   C2B55796  27.517  15.667   6.697
 4189POPC   C3B55797  27.627  15.630   7.132
 4189POPC   C4B55798  27.555  15.737   7.576
 4190POPC   NC355799  28.484  21.630   5.561
 4190POPC   PO455800  28.082  21.160   5.253
 4190POPC   GL155801  28.243  21.225   5.742
 4190POPC   GL255802  28.157  21.527   5.959
 4190POPC   C1A55803  28.091  21.103   6.207
 4190POPC   D2A55804  28.076  21.388   6.604
 4190POPC   C3A55805  28.252  21.357   7.023
 4190POPC   C4A55806  28.397  20.984   7.274
 4190POPC   C1B55807  28.466  21.432   6.275
 4190POPC   C2B55808  28.794  21.566   6.531
 4190POPC   C3B55809  28.710  21.689   6.946
 4190POPC   C4B55810  28.620  21.551   7.354
 4191POPC   NC355811  36.514  44.246   5.349
 4191POPC   PO455812  37.016  44.702   5.201
 4191POPC   GL155813  36.900  44.886   5.635
 4191POPC   GL255814  37.004  44.636   5.844
 4191POPC   C1A55815  36.704  44.915   6.114
 4191POPC   D2A55816  36.908  44.868   6.534
 4191POPC   C3A55817  36.761  44.913   6.977
 4191POPC   C4A55818  36.769  44.629   7.341
 4191POPC   C1B55819  37.255  44.639   6.208
 4191POPC   C2B55820  37.265  44.484   6.608
 4191POPC   C3B55821  37.178  44.598   7.006
 4191POPC   C4B55822  37.263  44.800   7.379
 4192POPC   NC355823   9.229  27.244   5.605
 4192POPC   PO455824   8.826  27.756   5.423
 4192POPC   GL155825   8.902  27.621   5.830
 4192POPC   GL255826   9.195  27.837   5.885
 4192POPC   C1A55827   8.958  27.472   6.257
 4192POPC   D2A55828   9.134  27.239   6.609
 4192POPC   C3A55829   9.009  27.412   6.988
 4192POPC   C4A55830   9.170  27.219   7.357
 4192POPC   C1B55831   9.263  27.968   6.326
 4192POPC   C2B55832   9.208  27.875   6.794
 4192POPC   C3B55833   9.317  27.715   7.239
 4192POPC   C4B55834   9.190  27.903   7.626
 4193POPC   NC355835   9.084  30.801   5.024
 4193POPC   PO455836   8.857  30.298   5.315
 4193POPC   GL155837   8.810  30.206   5.785
 4193POPC   GL255838   9.178  30.238   5.895
 4193POPC   C1A55839   8.602  30.257   6.225
 4193POPC   D2A55840   8.667  30.488   6.639
 4193POPC   C3A55841   8.656  30.249   7.045
 4193POPC   C4A55842   8.754  30.337   7.478
 4193POPC   C1B55843   9.055  30.475   6.286
 4193POPC   C2B55844   9.111  30.731   6.668
 4193POPC   C3B55845   9.187  30.800   7.105
 4193POPC   C4B55846   9.416  31.098   7.394
 4194POPC   NC355847  40.498  19.825   5.328
 4194POPC   PO455848  41.076  19.609   5.560
 4194POPC   GL155849  40.759  19.953   5.772
 4194POPC   GL255850  40.407  19.989   5.809
 4194POPC   C1A55851  40.798  19.981   6.233
 4194POPC   D2A55852  40.870  19.727   6.599
 4194POPC   C3A55853  40.816  19.907   7.005
 4194POPC   C4A55854  40.486  19.912   7.288
 4194POPC   C1B55855  40.532  19.592   6.067
 4194POPC   C2B55856  40.393  19.546   6.524
 4194POPC   C3B55857  40.537  19.474   6.974
 4194POPC   C4B55858  40.322  19.421   7.380
 4195POPC   NC355859  33.392  41.796   5.635
 4195POPC   PO455860  33.962  41.448   5.388
 4195POPC   GL155861  33.816  41.513   5.798
 4195POPC   GL255862  33.898  41.888   5.824
 4195POPC   C1A55863  33.878  41.587   6.256
 4195POPC   D2A55864  33.700  41.845   6.607
 4195POPC   C3A55865  33.578  41.525   6.880
 4195POPC   C4A55866  33.844  41.236   7.077
 4195POPC   C1B55867  34.005  42.072   6.240
 4195POPC   C2B55868  34.226  41.900   6.600
 4195POPC   C3B55869  34.051  41.792   7.012
 4195POPC   C4B55870  34.107  41.851   7.468
 4196POPC   NC355871  23.316  30.434   5.569
 4196POPC   PO455872  23.046  29.835   5.334
 4196POPC   GL155873  22.991  29.765   5.780
 4196POPC   GL255874  23.027  30.096   5.821
 4196POPC   C1A55875  22.819  29.845   6.219
 4196POPC   D2A55876  22.492  29.826   6.528
 4196POPC   C3A55877  22.734  29.794   6.905
 4196POPC   C4A55878  22.843  29.990   7.282
 4196POPC   C1B55879  23.150  30.262   6.217
 4196POPC   C2B55880  23.157  30.432   6.633
 4196POPC   C3B55881  23.218  30.131   6.950
 4196POPC   C4B55882  23.326  30.071   7.397
 4197POPC   NC355883  25.149  38.276   5.368
 4197POPC   PO455884  25.146  37.650   5.400
 4197POPC   GL155885  25.489  37.703   5.706
 4197POPC   GL255886  25.478  38.055   5.751
 4197POPC   C1A55887  25.586  37.743   6.152
 4197POPC   D2A55888  25.300  37.679   6.471
 4197POPC   C3A55889  25.471  37.638   6.851
 4197POPC   C4A55890  25.350  37.415   7.180
 4197POPC   C1B55891  25.105  37.920   6.013
 4197POPC   C2B55892  24.899  37.994   6.405
 4197POPC   C3B55893  24.918  37.949   6.845
 4197POPC   C4B55894  25.190  37.892   7.198
 4198POPC   NC355895  21.908  25.296   5.309
 4198POPC   PO455896  22.443  24.963   5.582
 4198POPC   GL155897  22.191  25.144   5.902
 4198POPC   GL255898  21.858  25.099   5.799
 4198POPC   C1A55899  22.201  25.199   6.363
 4198POPC   D2A55900  22.302  24.922   6.720
 4198POPC   C3A55901  22.052  25.032   7.098
 4198POPC   C4A55902  22.173  25.377   7.327
 4198POPC   C1B55903  21.780  25.496   6.006
 4198POPC   C2B55904  21.756  25.616   6.479
 4198POPC   C3B55905  21.926  25.497   6.890
 4198POPC   C4B55906  21.726  25.605   7.302
 4199POPC   NC355907  35.644   2.822   5.283
 4199POPC   PO455908  35.057   2.742   5.341
 4199POPC   GL155909  35.287   2.757   5.742
 4199POPC   GL255910  35.478   3.029   5.736
 4199POPC   C1A55911  35.264   2.682   6.211
 4199POPC   D2A55912  35.065   2.806   6.596
 4199POPC   C3A55913  35.260   2.634   6.962
 4199POPC   C4A55914  35.132   2.721   7.363
 4199POPC   C1B55915  35.673   2.974   6.106
 4199POPC   C2B55916  35.686   2.849   6.518
 4199POPC   C3B55917  35.638   2.959   6.944
 4199POPC   C4B55918  35.498   3.127   7.337
 4200POPC   NC355919  33.398  30.968   5.125
 4200POPC   PO455920  33.746  30.491   5.178
 4200POPC   GL155921  33.783  30.735   5.597
 4200POPC   GL255922  33.498  30.972   5.637
 4200POPC   C1A55923  33.834  30.713   6.072
 4200POPC   D2A55924  34.167  30.676   6.420
 4200POPC   C3A55925  34.035  30.899   6.800
 4200POPC   C4A55926  33.885  30.719   7.168
 4200POPC   C1B55927  33.443  31.073   6.098
 4200POPC   C2B55928  33.583  30.890   6.518
 4200POPC   C3B55929  33.454  30.912   6.978
 4200POPC   C4B55930  33.553  30.980   7.437
 4201POPC   NC355931  42.390  31.778   5.561
 4201POPC   PO455932  42.711  32.437   5.492
 4201POPC   GL155933  42.352  32.427   5.852
 4201POPC   GL255934  42.218  32.153   5.827
 4201POPC   C1A55935  42.081  32.363   6.252
 4201POPC   D2A55936  42.381  32.334   6.558
 4201POPC   C3A55937  42.291  32.229   6.963
 4201POPC   C4A55938  42.509  32.374   7.323
 4201POPC   C1B55939  42.583  32.075   6.139
 4201POPC   C2B55940  42.570  31.879   6.567
 4201POPC   C3B55941  42.742  32.004   6.965
 4201POPC   C4B55942  42.646  31.891   7.381
 4202POPC   NC355943  40.954  10.074   5.321
 4202POPC   PO455944  40.400   9.860   5.552
 4202POPC   GL155945  40.747  10.036   5.810
 4202POPC   GL255946  41.001   9.810   5.751
 4202POPC   C1A55947  40.818  10.166   6.250
 4202POPC   D2A55948  40.481  10.255   6.578
 4202POPC   C3A55949  40.504   9.991   6.958
 4202POPC   C4A55950  40.804  10.058   7.304
 4202POPC   C1B55951  40.851   9.647   6.175
 4202POPC   C2B55952  40.852   9.771   6.622
 4202POPC   C3B55953  40.795   9.579   7.054
 4202POPC   C4B55954  41.093   9.396   7.337
 4203POPC   NC355955   7.272  33.575   5.518
 4203POPC   PO455956   7.585  34.246   5.395
 4203POPC   GL155957   7.543  34.076   5.850
 4203POPC   GL255958   7.623  33.703   5.919
 4203POPC   C1A55959   7.321  33.920   6.250
 4203POPC   D2A55960   7.120  33.570   6.494
 4203POPC   C3A55961   7.234  33.639   6.925
 4203POPC   C4A55962   7.373  34.045   7.109
 4203POPC   C1B55963   7.771  33.536   6.289
 4203POPC   C2B55964   7.685  33.475   6.735
 4203POPC   C3B55965   7.697  33.641   7.144
 4203POPC   C4B55966   7.513  33.462   7.469
 4204POPC   NC355967  30.990  18.806   5.420
 4204POPC   PO455968  30.678  19.379   5.380
 4204POPC   GL155969  30.753  19.110   5.738
 4204POPC   GL255970  30.436  18.970   5.699
 4204POPC   C1A55971  30.787  18.886   6.139
 4204POPC   D2A55972  30.890  18.867   6.576
 4204POPC   C3A55973  30.986  19.259   6.819
 4204POPC   C4A55974  30.823  19.074   7.204
 4204POPC   C1B55975  30.389  19.220   6.077
 4204POPC   C2B55976  30.642  19.297   6.438
 4204POPC   C3B55977  30.488  19.096   6.811
 4204POPC   C4B55978  30.345  19.202   7.206
 4205POPC   NC355979   2.480  13.321   5.539
 4205POPC   PO455980   2.933  13.872   5.538
 4205POPC   GL155981   2.697  13.680   5.860
 4205POPC   GL255982   2.862  13.365   5.870
 4205POPC   C1A55983   2.499  13.610   6.280
 4205POPC   D2A55984   2.386  13.732   6.714
 4205POPC   C3A55985   2.661  13.613   7.061
 4205POPC   C4A55986   2.637  13.368   7.439
 4205POPC   C1B55987   2.817  13.203   6.283
 4205POPC   C2B55988   2.629  13.263   6.658
 4205POPC   C3B55989   2.806  13.135   6.993
 4205POPC   C4B55990   3.140  13.371   7.111
 4206POPC   NC355991  34.355   3.610   5.266
 4206POPC   PO455992  34.567   3.019   5.400
 4206POPC   GL155993  34.498   3.320   5.742
 4206POPC   GL255994  34.495   3.697   5.737
 4206POPC   C1A55995  34.618   3.394   6.186
 4206POPC   D2A55996  34.926   3.575   6.504
 4206POPC   C3A55997  34.837   3.588   6.950
 4206POPC   C4A55998  34.569   3.427   7.286
 4206POPC   C1B55999  34.285   3.876   6.088
 4206POPC   C2B56000  34.416   3.760   6.491
 4206POPC   C3B56001  34.343   3.694   6.895
 4206POPC   C4B56002  34.204   3.792   7.298
 4207POPC   NC356003  16.437   8.140   5.212
 4207POPC   PO456004  15.825   8.369   5.433
 4207POPC   GL156005  16.004   8.281   5.783
 4207POPC   GL256006  16.072   7.956   5.715
 4207POPC   C1A56007  16.018   8.482   6.196
 4207POPC   D2A56008  16.111   8.236   6.563
 4207POPC   C3A56009  16.033   8.298   6.984
 4207POPC   C4A56010  15.715   8.071   7.162
 4207POPC   C1B56011  16.145   7.678   6.075
 4207POPC   C2B56012  16.092   7.736   6.488
 4207POPC   C3B56013  16.314   7.831   6.868
 4207POPC   C4B56014  16.151   7.822   7.279
 4208POPC   NC356015  18.139  40.847   5.434
 4208POPC   PO456016  18.745  40.700   5.577
 4208POPC   GL156017  18.467  40.939   5.807
 4208POPC   GL256018  18.503  40.670   6.053
 4208POPC   C1A56019  18.099  40.968   6.110
 4208POPC   D2A56020  18.190  40.804   6.527
 4208POPC   C3A56021  17.909  40.853   6.867
 4208POPC   C4A56022  18.043  40.959   7.285
 4208POPC   C1B56023  18.138  40.418   6.188
 4208POPC   C2B56024  17.960  40.365   6.638
 4208POPC   C3B56025  18.278  40.499   6.984
 4208POPC   C4B56026  18.633  40.446   7.269
 4209POPC   NC356027  19.513  20.610   4.997
 4209POPC   PO456028  20.057  20.555   5.436
 4209POPC   GL156029  19.739  20.668   5.757
 4209POPC   GL256030  19.479  20.408   5.709
 4209POPC   C1A56031  19.841  20.899   6.183
 4209POPC   D2A56032  20.185  20.847   6.494
 4209POPC   C3A56033  20.080  20.544   6.825
 4209POPC   C4A56034  20.027  20.666   7.226
 4209POPC   C1B56035  19.539  20.468   6.193
 4209POPC   C2B56036  19.630  20.656   6.612
 4209POPC   C3B56037  19.548  20.633   7.075
 4209POPC   C4B56038  19.567  20.464   7.531
 4210POPC   NC356039  31.766  32.498   5.448
 4210POPC   PO456040  31.333  32.030   5.499
 4210POPC   GL156041  31.552  32.202   5.834
 4210POPC   GL256042  31.915  32.119   5.752
 4210POPC   C1A56043  31.363  32.415   6.226
 4210POPC   D2A56044  31.308  32.562   6.681
 4210POPC   C3A56045  31.322  32.280   7.035
 4210POPC   C4A56046  31.512  31.917   7.222
 4210POPC   C1B56047  31.913  32.247   6.203
 4210POPC   C2B56048  31.716  32.222   6.592
 4210POPC   C3B56049  31.840  32.264   6.999
 4210POPC   C4B56050  31.936  32.165   7.379
 4211POPC   NC356051   4.619  37.932   5.501
 4211POPC   PO456052   3.995  37.674   5.523
 4211POPC   GL156053   4.316  37.670   5.841
 4211POPC   GL256054   4.679  37.620   5.913
 4211POPC   C1A56055   4.329  37.799   6.270
 4211POPC   D2A56056   3.995  37.813   6.535
 4211POPC   C3A56057   4.061  37.573   6.882
 4211POPC   C4A56058   4.241  37.479   7.233
 4211POPC   C1B56059   4.479  37.314   6.157
 4211POPC   C2B56060   4.433  37.356   6.597
 4211POPC   C3B56061   4.691  37.475   6.941
 4211POPC   C4B56062   4.711  37.425   7.379
 4212POPC   NC356063  18.932  35.720   5.334
 4212POPC   PO456064  18.940  35.100   5.462
 4212POPC   GL156065  19.090  35.260   5.845
 4212POPC   GL256066  19.079  35.640   5.853
 4212POPC   C1A56067  19.079  35.087   6.264
 4212POPC   D2A56068  19.031  35.237   6.665
 4212POPC   C3A56069  19.089  35.345   7.085
 4212POPC   C4A56070  19.476  35.448   7.280
 4212POPC   C1B56071  18.910  35.625   6.308
 4212POPC   C2B56072  18.930  35.753   6.777
 4212POPC   C3B56073  18.767  35.721   7.221
 4212POPC   C4B56074  18.642  35.805   7.668
 4213POPC   NC356075  27.459  42.377   5.387
 4213POPC   PO456076  27.978  42.861   5.331
 4213POPC   GL156077  27.852  42.556   5.685
 4213POPC   GL256078  27.763  42.180   5.791
 4213POPC   C1A56079  27.794  42.561   6.119
 4213POPC   D2A56080  27.830  42.262   6.434
 4213POPC   C3A56081  27.967  42.422   6.820
 4213POPC   C4A56082  27.759  42.392   7.197
 4213POPC   C1B56083  27.356  42.278   6.044
 4213POPC   C2B56084  27.370  42.496   6.427
 4213POPC   C3B56085  27.391  42.581   6.862
 4213POPC   C4B56086  27.227  42.305   7.157
 4214POPC   NC356087  14.805  15.888   5.135
 4214POPC   PO456088  15.216  16.044   5.683
 4214POPC   GL156089  15.406  15.858   5.971
 4214POPC   GL256090  15.730  15.737   5.878
 4214POPC   C1A56091  15.204  15.930   6.349
 4214POPC   D2A56092  14.873  16.081   6.582
 4214POPC   C3A56093  15.069  16.007   6.955
 4214POPC   C4A56094  15.139  16.240   7.328
 4214POPC   C1B56095  15.727  15.827   6.358
 4214POPC   C2B56096  15.478  15.734   6.744
 4214POPC   C3B56097  15.494  15.849   7.178
 4214POPC   C4B56098  15.483  15.973   7.596
 4215POPC   NC356099  22.201  28.651   5.403
 4215POPC   PO456100  22.451  28.013   5.396
 4215POPC   GL156101  22.176  28.231   5.757
 4215POPC   GL256102  21.930  28.542   5.841
 4215POPC   C1A56103  22.315  28.444   6.155
 4215POPC   D2A56104  22.094  28.560   6.541
 4215POPC   C3A56105  22.365  28.462   6.914
 4215POPC   C4A56106  22.480  28.579   7.338
 4215POPC   C1B56107  21.848  28.248   6.179
 4215POPC   C2B56108  21.716  28.134   6.581
 4215POPC   C3B56109  21.852  28.350   6.936
 4215POPC   C4B56110  22.023  28.329   7.314
 4216POPC   NC356111  24.402   6.856   5.137
 4216POPC   PO456112  24.585   7.532   5.278
 4216POPC   GL156113  24.598   7.351   5.721
 4216POPC   GL256114  24.321   7.456   5.872
 4216POPC   C1A56115  24.660   7.277   6.206
 4216POPC   D2A56116  24.467   7.345   6.621
 4216POPC   C3A56117  24.601   7.261   7.055
 4216POPC   C4A56118  24.413   7.510   7.408
 4216POPC   C1B56119  24.094   7.303   6.232
 4216POPC   C2B56120  23.997   7.168   6.643
 4216POPC   C3B56121  24.107   7.319   7.021
 4216POPC   C4B56122  24.093   7.118   7.422
 4217POPC   NC356123  12.652  22.486   5.064
 4217POPC   PO456124  13.113  22.076   5.160
 4217POPC   GL156125  12.965  21.860   5.615
 4217POPC   GL256126  12.739  22.078   5.818
 4217POPC   C1A56127  13.069  21.852   6.115
 4217POPC   D2A56128  12.817  21.901   6.501
 4217POPC   C3A56129  12.922  22.166   6.856
 4217POPC   C4A56130  13.105  22.186   7.259
 4217POPC   C1B56131  12.421  22.162   6.167
 4217POPC   C2B56132  12.223  22.245   6.574
 4217POPC   C3B56133  12.414  22.152   6.977
 4217POPC   C4B56134  12.596  22.142   7.403
 4218POPC   NC356135  28.427  42.624   5.339
 4218POPC   PO456136  28.435  41.927   5.475
 4218POPC   GL156137  28.314  42.287   5.725
 4218POPC   GL256138  28.633  42.472   5.788
 4218POPC   C1A56139  28.265  42.376   6.147
 4218POPC   D2A56140  28.358  42.171   6.508
 4218POPC   C3A56141  28.483  42.328   6.894
 4218POPC   C4A56142  28.249  42.410   7.265
 4218POPC   C1B56143  28.647  42.705   6.177
 4218POPC   C2B56144  28.539  42.752   6.606
 4218POPC   C3B56145  28.790  42.722   6.974
 4218POPC   C4B56146  28.742  42.541   7.370
 4219POPC   NC356147  11.913  42.916   5.417
 4219POPC   PO456148  12.394  43.293   5.247
 4219POPC   GL156149  12.170  43.307   5.667
 4219POPC   GL256150  12.253  42.973   5.810
 4219POPC   C1A56151  11.882  43.266   6.057
 4219POPC   D2A56152  11.905  43.123   6.496
 4219POPC   C3A56153  11.901  43.170   6.938
 4219POPC   C4A56154  12.277  43.169   7.212
 4219POPC   C1B56155  12.074  42.773   6.173
 4219POPC   C2B56156  11.960  42.616   6.590
 4219POPC   C3B56157  12.107  42.690   7.024
 4219POPC   C4B56158  12.019  42.800   7.449
 4220POPC   NC356159  13.147  11.437   5.412
 4220POPC   PO456160  12.803  12.074   5.455
 4220POPC   GL156161  12.850  11.817   5.813
 4220POPC   GL256162  12.498  11.723   5.842
 4220POPC   C1A56163  13.068  11.804   6.231
 4220POPC   D2A56164  13.070  11.650   6.696
 4220POPC   C3A56165  13.135  11.952   7.057
 4220POPC   C4A56166  12.952  12.112   7.462
 4220POPC   C1B56167  12.552  11.945   6.233
 4220POPC   C2B56168  12.496  12.147   6.634
 4220POPC   C3B56169  12.609  12.000   7.047
 4220POPC   C4B56170  12.476  11.977   7.476
 4221POPC   NC356171  24.189  30.170   5.444
 4221POPC   PO456172  24.882  30.040   5.452
 4221POPC   GL156173  24.619  30.058   5.805
 4221POPC   GL256174  24.404  29.784   5.823
 4221POPC   C1A56175  24.356  30.218   6.152
 4221POPC   D2A56176  24.412  30.331   6.604
 4221POPC   C3A56177  24.624  30.004   6.835
 4221POPC   C4A56178  24.769  29.881   7.239
 4221POPC   C1B56179  24.278  29.706   6.252
 4221POPC   C2B56180  24.070  29.942   6.591
 4221POPC   C3B56181  24.127  30.081   6.984
 4221POPC   C4B56182  24.273  29.786   7.256
 4222POPC   NC356183  10.556   6.944   5.103
 4222POPC   PO456184  10.439   6.398   5.455
 4222POPC   GL156185  10.379   6.728   5.747
 4222POPC   GL256186  10.678   6.924   5.717
 4222POPC   C1A56187  10.502   6.725   6.188
 4222POPC   D2A56188  10.617   6.417   6.504
 4222POPC   C3A56189  10.450   6.468   6.913
 4222POPC   C4A56190  10.399   6.715   7.273
 4222POPC   C1B56191  10.813   7.148   6.112
 4222POPC   C2B56192  10.851   6.944   6.511
 4222POPC   C3B56193  10.729   6.920   6.918
 4222POPC   C4B56194  10.996   6.870   7.236
 4223POPC   NC356195  20.773  38.069   5.471
 4223POPC   PO456196  20.539  38.742   5.414
 4223POPC   GL156197  20.517  38.518   5.826
 4223POPC   GL256198  20.865  38.465   5.840
 4223POPC   C1A56199  20.618  38.409   6.296
 4223POPC   D2A56200  20.720  38.114   6.643
 4223POPC   C3A56201  20.588  38.308   7.026
 4223POPC   C4A56202  20.423  38.281   7.428
 4223POPC   C1B56203  20.844  38.819   6.114
 4223POPC   C2B56204  20.805  38.934   6.557
 4223POPC   C3B56205  20.844  38.752   6.962
 4223POPC   C4B56206  20.831  38.585   7.422
 4224POPC   NC356207   6.848  19.383   5.180
 4224POPC   PO456208   6.225  19.257   5.256
 4224POPC   GL156209   6.306  19.118   5.731
 4224POPC   GL256210   6.585  18.871   5.782
 4224POPC   C1A56211   6.507  19.192   6.190
 4224POPC   D2A56212   6.722  19.076   6.619
 4224POPC   C3A56213   6.618  19.228   7.060
 4224POPC   C4A56214   6.397  19.039   7.436
 4224POPC   C1B56215   6.796  18.721   6.199
 4224POPC   C2B56216   6.980  18.611   6.637
 4224POPC   C3B56217   6.941  18.817   7.068
 4224POPC   C4B56218   7.224  19.155   7.196
 4225POPC   NC356219  30.898  22.966   5.355
 4225POPC   PO456220  30.334  22.922   5.247
 4225POPC   GL156221  30.537  22.744   5.658
 4225POPC   GL256222  30.898  22.633   5.746
 4225POPC   C1A56223  30.548  22.814   6.114
 4225POPC   D2A56224  30.341  22.902   6.512
 4225POPC   C3A56225  30.537  22.894   6.922
 4225POPC   C4A56226  30.450  23.183   7.271
 4225POPC   C1B56227  31.078  22.761   6.156
 4225POPC   C2B56228  31.152  22.967   6.549
 4225POPC   C3B56229  31.170  22.829   6.982
 4225POPC   C4B56230  30.873  22.864   7.326
 4226POPC   NC356231  30.561  20.407   5.136
 4226POPC   PO456232  31.170  20.724   5.174
 4226POPC   GL156233  31.015  20.670   5.661
 4226POPC   GL256234  30.763  20.374   5.771
 4226POPC   C1A56235  30.847  20.763   6.112
 4226POPC   D2A56236  30.840  20.830   6.571
 4226POPC   C3A56237  30.497  20.759   6.839
 4226POPC   C4A56238  30.691  20.555   7.149
 4226POPC   C1B56239  30.730  20.241   6.256
 4226POPC   C2B56240  30.771  20.227   6.741
 4226POPC   C3B56241  30.680  20.060   7.192
 4226POPC   C4B56242  30.429  20.131   7.603
 4227POPC   NC356243  29.562  33.073   5.434
 4227POPC   PO456244  30.091  32.673   5.248
 4227POPC   GL156245  29.974  32.845   5.648
 4227POPC   GL256246  29.893  33.163   5.825
 4227POPC   C1A56247  29.982  32.683   6.061
 4227POPC   D2A56248  30.008  32.836   6.515
 4227POPC   C3A56249  30.262  32.844   6.884
 4227POPC   C4A56250  30.157  33.013   7.254
 4227POPC   C1B56251  29.628  33.028   6.179
 4227POPC   C2B56252  29.538  33.021   6.624
 4227POPC   C3B56253  29.736  32.876   6.981
 4227POPC   C4B56254  29.661  33.022   7.394
 4228POPC   NC356255  39.739  37.025   5.047
 4228POPC   PO456256  40.322  37.120   5.318
 4228POPC   GL156257  40.261  37.111   5.776
 4228POPC   GL256258  40.502  37.376   5.836
 4228POPC   C1A56259  39.996  36.936   6.127
 4228POPC   D2A56260  39.799  36.605   6.387
 4228POPC   C3A56261  39.721  36.723   6.820
 4228POPC   C4A56262  39.771  36.667   7.258
 4228POPC   C1B56263  40.303  37.379   6.254
 4228POPC   C2B56264  40.210  37.113   6.631
 4228POPC   C3B56265  40.094  37.021   7.072
 4228POPC   C4B56266  40.199  36.882   7.487
 4229POPC   NC356267  13.843  18.623   5.394
 4229POPC   PO456268  13.932  18.027   5.710
 4229POPC   GL156269  13.710  18.353   5.856
 4229POPC   GL256270  13.982  18.575   5.854
 4229POPC   C1A56271  13.523  18.299   6.260
 4229POPC   D2A56272  13.221  18.300   6.610
 4229POPC   C3A56273  13.357  18.248   7.055
 4229POPC   C4A56274  13.678  18.281   7.359
 4229POPC   C1B56275  13.853  18.691   6.207
 4229POPC   C2B56276  13.934  18.426   6.525
 4229POPC   C3B56277  13.768  18.522   6.915
 4229POPC   C4B56278  13.992  18.689   7.264
 4230POPC   NC356279  19.059  37.446   5.585
 4230POPC   PO456280  18.816  37.965   5.258
 4230POPC   GL156281  18.913  37.873   5.828
 4230POPC   GL256282  18.766  37.465   5.997
 4230POPC   C1A56283  19.013  37.766   6.290
 4230POPC   D2A56284  18.902  37.831   6.725
 4230POPC   C3A56285  19.201  37.665   7.043
 4230POPC   C4A56286  19.271  37.855   7.466
 4230POPC   C1B56287  19.003  37.232   6.249
 4230POPC   C2B56288  19.062  37.348   6.658
 4230POPC   C3B56289  18.865  37.277   7.033
 4230POPC   C4B56290  18.960  37.430   7.442
 4231POPC   NC356291  30.532   0.995   5.517
 4231POPC   PO456292  30.502   1.718   5.430
 4231POPC   GL156293  30.608   1.438   5.819
 4231POPC   GL256294  30.870   1.201   5.834
 4231POPC   C1A56295  30.451   1.177   6.199
 4231POPC   D2A56296  30.318   1.279   6.633
 4231POPC   C3A56297  30.577   1.117   6.978
 4231POPC   C4A56298  30.710   0.761   7.242
 4231POPC   C1B56299  30.927   1.379   6.238
 4231POPC   C2B56300  30.961   1.105   6.587
 4231POPC   C3B56301  31.103   0.981   6.980
 4231POPC   C4B56302  31.038   1.135   7.400
 4232POPC   NC356303   5.637  21.233   5.529
 4232POPC   PO456304   6.130  21.625   5.235
 4232POPC   GL156305   5.969  21.571   5.699
 4232POPC   GL256306   5.596  21.690   5.739
 4232POPC   C1A56307   5.984  21.321   6.121
 4232POPC   D2A56308   6.182  21.133   6.517
 4232POPC   C3A56309   5.963  21.202   6.895
 4232POPC   C4A56310   5.864  21.351   7.306
 4232POPC   C1B56311   5.673  21.735   6.135
 4232POPC   C2B56312   5.647  21.533   6.512
 4232POPC   C3B56313   5.771  21.671   6.904
 4232POPC   C4B56314   5.602  21.784   7.274
 4233POPC   NC356315  11.325  20.327   5.339
 4233POPC   PO456316  10.962  20.874   5.475
 4233POPC   GL156317  11.314  20.640   5.758
 4233POPC   GL256318  11.603  20.342   5.753
 4233POPC   C1A56319  11.462  20.592   6.199
 4233POPC   D2A56320  11.297  20.482   6.606
 4233POPC   C3A56321  11.423  20.688   6.991
 4233POPC   C4A56322  11.209  20.702   7.395
 4233POPC   C1B56323  11.829  20.234   6.134
 4233POPC   C2B56324  11.740  20.246   6.576
 4233POPC   C3B56325  11.570  20.202   7.000
 4233POPC   C4B56326  11.763  20.123   7.401
 4234POPC   NC356327  39.935  26.622   5.397
 4234POPC   PO456328  39.477  27.144   5.413
 4234POPC   GL156329  39.755  26.999   5.748
 4234POPC   GL256330  40.115  26.963   5.721
 4234POPC   C1A56331  39.793  27.017   6.206
 4234POPC   D2A56332  39.679  27.111   6.649
 4234POPC   C3A56333  39.701  26.872   7.032
 4234POPC   C4A56334  39.959  26.954   7.396
 4234POPC   C1B56335  40.278  26.900   6.143
 4234POPC   C2B56336  40.228  27.092   6.545
 4234POPC   C3B56337  40.159  27.069   6.942
 4234POPC   C4B56338  40.388  26.808   7.197
 4235POPC   NC356339  13.006  24.141   5.473
 4235POPC   PO456340  12.525  24.588   5.238
 4235POPC   GL156341  12.513  24.626   5.702
 4235POPC   GL256342  12.456  24.971   5.795
 4235POPC   C1A56343  12.715  24.523   6.127
 4235POPC   D2A56344  12.745  24.297   6.539
 4235POPC   C3A56345  12.978  24.475   6.892
 4235POPC   C4A56346  12.835  24.328   7.294
 4235POPC   C1B56347  12.623  25.017   6.199
 4235POPC   C2B56348  12.838  24.879   6.554
 4235POPC   C3B56349  12.641  24.929   6.923
 4235POPC   C4B56350  12.798  24.836   7.269
 4236POPC   NC356351  18.029  25.372   5.266
 4236POPC   PO456352  18.614  25.590   5.427
 4236POPC   GL156353  18.494  25.551   5.841
 4236POPC   GL256354  18.214  25.347   5.748
 4236POPC   C1A56355  18.208  25.596   6.219
 4236POPC   D2A56356  18.375  25.338   6.570
 4236POPC   C3A56357  18.450  25.446   7.004
 4236POPC   C4A56358  18.343  25.135   7.286
 4236POPC   C1B56359  18.078  25.094   6.101
 4236POPC   C2B56360  17.901  25.175   6.520
 4236POPC   C3B56361  17.948  25.050   6.956
 4236POPC   C4B56362  17.811  25.167   7.366
 4237POPC   NC356363  23.474  24.275   5.640
 4237POPC   PO456364  23.935  24.596   5.189
 4237POPC   GL156365  23.766  24.687   5.622
 4237POPC   GL256366  23.435  24.750   5.821
 4237POPC   C1A56367  23.859  24.647   6.101
 4237POPC   D2A56368  23.864  24.406   6.515
 4237POPC   C3A56369  23.849  24.683   6.878
 4237POPC   C4A56370  23.559  24.606   7.213
 4237POPC   C1B56371  23.371  24.761   6.302
 4237POPC   C2B56372  23.350  24.531   6.723
 4237POPC   C3B56373  23.475  24.159   6.991
 4237POPC   C4B56374  23.569  24.173   7.453
 4238POPC   NC356375   7.677  38.086   5.248
 4238POPC   PO456376   7.163  38.423   5.608
 4238POPC   GL156377   7.455  38.370   5.925
 4238POPC   GL256378   7.660  38.106   5.813
 4238POPC   C1A56379   7.462  38.459   6.353
 4238POPC   D2A56380   7.157  38.272   6.588
 4238POPC   C3A56381   7.195  38.420   6.960
 4238POPC   C4A56382   7.583  38.631   6.954
 4238POPC   C1B56383   7.693  37.989   6.273
 4238POPC   C2B56384   7.654  38.124   6.710
 4238POPC   C3B56385   7.602  38.143   7.147
 4238POPC   C4B56386   7.696  38.127   7.594
 4239POPC   NC356387   3.084   8.402   5.468
 4239POPC   PO456388   2.584   7.964   5.243
 4239POPC   GL156389   2.700   7.961   5.684
 4239POPC   GL256390   2.837   8.271   5.876
 4239POPC   C1A56391   2.756   7.844   6.126
 4239POPC   D2A56392   2.840   8.164   6.452
 4239POPC   C3A56393   2.730   8.017   6.848
 4239POPC   C4A56394   2.619   8.200   7.209
 4239POPC   C1B56395   3.153   8.506   6.123
 4239POPC   C2B56396   3.204   8.528   6.566
 4239POPC   C3B56397   2.971   8.502   6.968
 4239POPC   C4B56398   2.989   8.486   7.442
 4240POPC   NC356399  44.894  34.888   5.478
 4240POPC   PO456400   0.596  34.743   5.448
 4240POPC   GL156401   0.527  34.639   5.827
 4240POPC   GL256402   0.707  34.361   5.866
 4240POPC   C1A56403   0.667  34.761   6.233
 4240POPC   D2A56404   0.685  34.634   6.667
 4240POPC   C3A56405   0.400  34.797   7.017
 4240POPC   C4A56406   0.673  34.591   7.288
 4240POPC   C1B56407   0.246  34.296   6.049
 4240POPC   C2B56408   0.029  34.356   6.452
 4240POPC   C3B56409   0.284  34.349   6.827
 4240POPC   C4B56410   0.221  34.337   7.265
 4241POPC   NC356411   7.654   5.666   5.420
 4241POPC   PO456412   7.236   6.243   5.355
 4241POPC   GL156413   7.457   6.055   5.715
 4241POPC   GL256414   7.344   5.687   5.826
 4241POPC   C1A56415   7.504   6.007   6.177
 4241POPC   D2A56416   7.405   5.774   6.590
 4241POPC   C3A56417   7.330   5.887   7.044
 4241POPC   C4A56418   7.089   5.652   7.385
 4241POPC   C1B56419   7.682   5.546   6.133
 4241POPC   C2B56420   7.909   5.734   6.490
 4241POPC   C3B56421   7.868   5.940   6.894
 4241POPC   C4B56422   7.779   5.631   7.160
 4242POPC   NC356423  32.921   9.826   5.443
 4242POPC   PO456424  33.138   9.330   5.109
 4242POPC   GL156425  33.386   9.579   5.522
 4242POPC   GL256426  33.320   9.907   5.764
 4242POPC   C1A56427  33.457   9.490   6.001
 4242POPC   D2A56428  33.163   9.486   6.365
 4242POPC   C3A56429  33.259   9.498   6.822
 4242POPC   C4A56430  33.243   9.586   7.271
 4242POPC   C1B56431  33.392   9.960   6.212
 4242POPC   C2B56432  33.545   9.929   6.641
 4242POPC   C3B56433  33.238  10.005   6.938
 4242POPC   C4B56434  33.093  10.205   7.284
 4243POPC   NC356435  39.729  10.894   5.531
 4243POPC   PO456436  40.443  10.815   5.480
 4243POPC   GL156437  40.174  10.746   5.836
 4243POPC   GL256438  39.893  10.516   5.854
 4243POPC   C1A56439  40.184  10.605   6.280
 4243POPC   D2A56440  40.343  10.779   6.674
 4243POPC   C3A56441  40.082  10.656   7.012
 4243POPC   C4A56442  40.010  10.679   7.467
 4243POPC   C1B56443  39.657  10.596   6.280
 4243POPC   C2B56444  39.616  10.527   6.766
 4243POPC   C3B56445  39.776  10.286   7.159
 4243POPC   C4B56446  39.764  10.254   7.624
 4244POPC   NC356447   0.797  15.227   5.454
 4244POPC   PO456448   0.207  15.394   5.432
 4244POPC   GL156449   0.371  15.129   5.845
 4244POPC   GL256450   0.734  15.055   5.940
 4244POPC   C1A56451   0.412  14.835   6.271
 4244POPC   D2A56452   0.688  14.914   6.680
 4244POPC   C3A56453   0.495  14.905   7.124
 4244POPC   C4A56454   0.081  14.817   7.352
 4244POPC   C1B56455   0.564  15.316   6.319
 4244POPC   C2B56456   0.468  15.543   6.732
 4244POPC   C3B56457   0.480  15.614   7.183
 4244POPC   C4B56458   0.641  15.285   7.464
 4245POPC   NC356459  32.960  20.065   5.321
 4245POPC   PO456460  33.080  19.498   5.466
 4245POPC   GL156461  33.133  19.770   5.794
 4245POPC   GL256462  33.324  20.088   5.750
 4245POPC   C1A56463  33.187  19.768   6.240
 4245POPC   D2A56464  32.967  19.981   6.572
 4245POPC   C3A56465  32.951  19.721   6.918
 4245POPC   C4A56466  32.667  19.680   7.254
 4245POPC   C1B56467  33.477  20.192   6.193
 4245POPC   C2B56468  33.473  20.013   6.624
 4245POPC   C3B56469  33.283  20.126   7.024
 4245POPC   C4B56470  33.295  20.412   7.365
 4246POPC   NC356471  40.640  44.156   5.038
 4246POPC   PO456472  40.475  43.719   5.590
 4246POPC   GL156473  40.688  43.980   5.856
 4246POPC   GL256474  40.815  43.726   5.990
 4246POPC   C1A56475  40.997  44.182   6.161
 4246POPC   D2A56476  40.887  44.224   6.578
 4246POPC   C3A56477  41.002  44.049   6.946
 4246POPC   C4A56478  40.835  44.088   7.315
 4246POPC   C1B56479  40.710  43.783   6.383
 4246POPC   C2B56480  40.919  43.606   6.724
 4246POPC   C3B56481  40.730  43.426   7.078
 4246POPC   C4B56482  40.618  43.572   7.461
 4247POPC   NC356483   5.050  32.702   5.370
 4247POPC   PO456484   5.318  33.272   5.154
 4247POPC   GL156485   5.264  33.091   5.651
 4247POPC   GL256486   5.294  32.745   5.808
 4247POPC   C1A56487   5.130  33.110   6.135
 4247POPC   D2A56488   5.255  32.993   6.598
 4247POPC   C3A56489   5.122  33.213   6.989
 4247POPC   C4A56490   5.228  33.356   7.429
 4247POPC   C1B56491   4.939  32.626   6.111
 4247POPC   C2B56492   4.839  32.703   6.574
 4247POPC   C3B56493   4.949  32.605   6.993
 4247POPC   C4B56494   5.062  32.862   7.355
 4248POPC   NC356495  21.467  31.435   5.123
 4248POPC   PO456496  21.894  31.128   5.636
 4248POPC   GL156497  21.609  31.428   5.848
 4248POPC   GL256498  21.344  31.378   5.667
 4248POPC   C1A56499  21.566  31.695   6.211
 4248POPC   D2A56500  21.421  31.470   6.573
 4248POPC   C3A56501  21.372  31.659   6.992
 4248POPC   C4A56502  21.467  31.379   7.332
 4248POPC   C1B56503  21.139  31.448   6.100
 4248POPC   C2B56504  20.940  31.565   6.497
 4248POPC   C3B56505  20.981  31.348   6.881
 4248POPC   C4B56506  20.919  31.526   7.250
 4249POPC   NC356507   6.187   8.695   5.217
 4249POPC   PO456508   5.699   9.188   5.300
 4249POPC   GL156509   5.865   8.931   5.634
 4249POPC   GL256510   6.214   8.947   5.662
 4249POPC   C1A56511   5.803   8.940   6.090
 4249POPC   D2A56512   5.681   8.719   6.491
 4249POPC   C3A56513   5.814   8.879   6.905
 4249POPC   C4A56514   5.678   8.781   7.297
 4249POPC   C1B56515   6.315   8.902   6.111
 4249POPC   C2B56516   6.159   8.938   6.542
 4249POPC   C3B56517   6.313   8.922   7.008
 4249POPC   C4B56518   6.089   9.088   7.401
 4250POPC   NC356519  42.116  27.767   5.422
 4250POPC   PO456520  42.014  27.161   5.672
 4250POPC   GL156521  42.238  27.514   5.864
 4250POPC   GL256522  42.513  27.730   5.727
 4250POPC   C1A56523  42.086  27.722   6.234
 4250POPC   D2A56524  41.973  27.514   6.637
 4250POPC   C3A56525  42.184  27.541   7.035
 4250POPC   C4A56526  42.643  27.559   7.126
 4250POPC   C1B56527  42.590  27.724   6.176
 4250POPC   C2B56528  42.449  27.741   6.612
 4250POPC   C3B56529  42.383  28.004   6.969
 4250POPC   C4B56530  42.602  28.053   7.345
 4251POPC   NC356531  38.643   1.955   5.376
 4251POPC   PO456532  38.414   2.497   5.525
 4251POPC   GL156533  38.265   2.191   5.853
 4251POPC   GL256534  38.316   1.851   5.793
 4251POPC   C1A56535  38.249   2.117   6.298
 4251POPC   D2A56536  38.522   2.024   6.620
 4251POPC   C3A56537  38.515   2.254   7.002
 4251POPC   C4A56538  38.544   2.118   7.429
 4251POPC   C1B56539  38.272   1.604   6.195
 4251POPC   C2B56540  38.401   1.502   6.631
 4251POPC   C3B56541  38.361   1.760   7.021
 4251POPC   C4B56542  38.123   1.841   7.372
 4252POPC   NC356543  37.229  24.727   5.528
 4252POPC   PO456544  36.738  24.224   5.496
 4252POPC   GL156545  36.734  24.368   5.884
 4252POPC   GL256546  36.835  24.712   5.853
 4252POPC   C1A56547  37.003  24.377   6.237
 4252POPC   D2A56548  37.203  24.589   6.561
 4252POPC   C3A56549  37.132  24.396   6.941
 4252POPC   C4A56550  36.807  24.229   7.176
 4252POPC   C1B56551  36.638  24.742   6.254
 4252POPC   C2B56552  36.687  24.539   6.673
 4252POPC   C3B56553  36.757  24.735   7.078
 4252POPC   C4B56554  36.743  24.750   7.531
 4253POPC   NC356555  31.574   2.346   5.467
 4253POPC   PO456556  31.317   3.016   5.416
 4253POPC   GL156557  31.458   2.761   5.786
 4253POPC   GL256558  31.737   2.546   5.911
 4253POPC   C1A56559  31.256   2.578   6.146
 4253POPC   D2A56560  31.242   2.731   6.555
 4253POPC   C3A56561  31.205   2.505   6.925
 4253POPC   C4A56562  31.109   2.554   7.325
 4253POPC   C1B56563  31.845   2.791   6.294
 4253POPC   C2B56564  31.705   3.056   6.651
 4253POPC   C3B56565  31.495   2.946   7.040
 4253POPC   C4B56566  31.652   2.529   7.180
 4254POPC   NC356567  19.223  42.188   5.542
 4254POPC   PO456568  18.573  42.326   5.554
 4254POPC   GL156569  18.863  42.414   5.819
 4254POPC   GL256570  19.069  42.666   5.607
 4254POPC   C1A56571  19.024  42.168   6.206
 4254POPC   D2A56572  19.307  42.332   6.534
 4254POPC   C3A56573  19.190  42.223   6.949
 4254POPC   C4A56574  19.051  42.279   7.362
 4254POPC   C1B56575  19.255  42.597   6.067
 4254POPC   C2B56576  19.160  42.828   6.451
 4254POPC   C3B56577  19.185  42.712   6.882
 4254POPC   C4B56578  19.142  42.804   7.295
 4255POPC   NC356579   9.647   1.687   5.430
 4255POPC   PO456580   9.967   2.198   5.177
 4255POPC   GL156581   9.931   2.101   5.626
 4255POPC   GL256582   9.560   2.124   5.653
 4255POPC   C1A56583   9.993   1.985   6.100
 4255POPC   D2A56584   9.747   2.006   6.522
 4255POPC   C3A56585   9.915   1.822   6.907
 4255POPC   C4A56586   9.868   1.624   7.292
 4255POPC   C1B56587   9.502   2.122   6.077
 4255POPC   C2B56588   9.495   2.451   6.362
 4255POPC   C3B56589   9.554   2.439   6.786
 4255POPC   C4B56590   9.521   2.080   7.089
 4256POPC   NC356591  44.025   7.541   5.315
 4256POPC   PO456592  44.282   6.995   5.671
 4256POPC   GL156593  43.927   7.313   5.765
 4256POPC   GL256594  43.824   7.704   5.762
 4256POPC   C1A56595  43.677   7.379   6.143
 4256POPC   D2A56596  43.697   7.538   6.583
 4256POPC   C3A56597  43.987   7.398   6.920
 4256POPC   C4A56598  43.901   7.128   7.262
 4256POPC   C1B56599  43.940   7.812   6.189
 4256POPC   C2B56600  44.069   7.866   6.640
 4256POPC   C3B56601  43.830   7.866   7.034
 4256POPC   C4B56602  43.587   7.550   7.275
 4257POPC   NC356603  12.875  21.351   5.382
 4257POPC   PO456604  13.439  21.590   5.621
 4257POPC   GL156605  13.052  21.413   5.876
 4257POPC   GL256606  12.703  21.295   5.884
 4257POPC   C1A56607  12.907  21.410   6.343
 4257POPC   D2A56608  13.161  21.192   6.659
 4257POPC   C3A56609  13.067  21.354   7.023
 4257POPC   C4A56610  12.957  21.362   7.465
 4257POPC   C1B56611  12.509  21.654   6.122
 4257POPC   C2B56612  12.337  21.732   6.532
 4257POPC   C3B56613  12.598  21.596   6.867
 4257POPC   C4B56614  12.834  21.765   7.190
 4258POPC   NC356615  25.798   9.169   5.319
 4258POPC   PO456616  26.362   9.150   5.571
 4258POPC   GL156617  26.028   8.999   5.838
 4258POPC   GL256618  25.775   8.713   5.777
 4258POPC   C1A56619  26.156   9.022   6.269
 4258POPC   D2A56620  26.235   9.361   6.569
 4258POPC   C3A56621  26.200   9.218   6.988
 4258POPC   C4A56622  25.825   9.223   7.209
 4258POPC   C1B56623  25.920   8.555   6.206
 4258POPC   C2B56624  26.064   8.640   6.661
 4258POPC   C3B56625  26.026   8.747   7.147
 4258POPC   C4B56626  26.352   8.730   7.489
 4259POPC   NC356627  19.893  16.623   5.209
 4259POPC   PO456628  20.369  16.963   5.369
 4259POPC   GL156629  20.026  16.769   5.678
 4259POPC   GL256630  19.678  16.617   5.703
 4259POPC   C1A56631  20.084  16.517   6.067
 4259POPC   D2A56632  19.936  16.749   6.435
 4259POPC   C3A56633  20.033  16.768   6.858
 4259POPC   C4A56634  20.256  16.600   7.233
 4259POPC   C1B56635  19.580  16.496   6.146
 4259POPC   C2B56636  19.459  16.707   6.552
 4259POPC   C3B56637  19.525  16.744   6.991
 4259POPC   C4B56638  19.545  16.459   7.316
 4260POPC   NC356639  28.755  19.118   5.379
 4260POPC   PO456640  28.215  18.711   5.417
 4260POPC   GL156641  28.333  18.865   5.813
 4260POPC   GL256642  28.631  18.942   5.824
 4260POPC   C1A56643  28.356  19.146   6.210
 4260POPC   D2A56644  28.554  19.382   6.523
 4260POPC   C3A56645  28.396  19.211   6.878
 4260POPC   C4A56646  28.411  19.432   7.237
 4260POPC   C1B56647  28.632  18.727   6.185
 4260POPC   C2B56648  28.702  18.879   6.557
 4260POPC   C3B56649  28.653  18.770   6.934
 4260POPC   C4B56650  28.535  18.950   7.333
 4261POPC   NC356651  35.518  23.458   5.458
 4261POPC   PO456652  35.243  24.061   5.167
 4261POPC   GL156653  35.161  23.885   5.593
 4261POPC   GL256654  35.476  23.931   5.774
 4261POPC   C1A56655  35.048  23.635   5.991
 4261POPC   D2A56656  35.216  23.413   6.384
 4261POPC   C3A56657  35.124  23.494   6.842
 4261POPC   C4A56658  34.965  23.582   7.289
 4261POPC   C1B56659  35.394  23.915   6.242
 4261POPC   C2B56660  35.356  24.044   6.684
 4261POPC   C3B56661  35.407  23.878   7.103
 4261POPC   C4B56662  35.597  24.016   7.485
 4262POPC   NC356663  11.243   5.569   5.496
 4262POPC   PO456664  11.241   6.076   5.957
 4262POPC   GL156665  11.210   5.635   6.033
 4262POPC   GL256666  11.571   5.583   5.934
 4262POPC   C1A56667  10.976   5.563   6.444
 4262POPC   D2A56668  10.859   5.962   6.721
 4262POPC   C3A56669  11.143   5.990   7.083
 4262POPC   C4A56670  11.509   5.713   7.134
 4262POPC   C1B56671  11.756   5.832   6.303
 4262POPC   C2B56672  11.758   6.242   6.567
 4262POPC   C3B56673  11.590   6.260   7.002
 4262POPC   C4B56674  11.614   6.116   7.430
 4263POPC   NC356675  37.538  37.931   5.421
 4263POPC   PO456676  37.485  37.214   5.596
 4263POPC   GL156677  37.425  37.634   5.829
 4263POPC   GL256678  37.767  37.826   5.859
 4263POPC   C1A56679  37.287  37.940   6.181
 4263POPC   D2A56680  37.437  38.190   6.582
 4263POPC   C3A56681  37.646  37.941   6.941
 4263POPC   C4A56682  37.975  37.689   7.150
 4263POPC   C1B56683  37.726  37.641   6.273
 4263POPC   C2B56684  37.839  37.466   6.695
 4263POPC   C3B56685  37.820  37.206   7.078
 4263POPC   C4B56686  37.788  37.202   7.525
 4264POPC   NC356687   1.480  15.560   5.253
 4264POPC   PO456688   1.504  14.906   5.280
 4264POPC   GL156689   1.454  15.093   5.702
 4264POPC   GL256690   1.191  15.285   5.735
 4264POPC   C1A56691   1.438  15.173   6.151
 4264POPC   D2A56692   1.120  15.022   6.417
 4264POPC   C3A56693   1.209  15.007   6.856
 4264POPC   C4A56694   1.307  15.168   7.281
 4264POPC   C1B56695   1.036  15.476   6.133
 4264POPC   C2B56696   0.986  15.477   6.596
 4264POPC   C3B56697   0.884  15.360   7.016
 4264POPC   C4B56698   1.002  15.634   7.369
 4265POPC   NC356699  37.772  39.638   5.586
 4265POPC   PO456700  37.706  38.879   5.573
 4265POPC   GL156701  37.491  39.022   5.915
 4265POPC   GL256702  37.483  39.392   5.924
 4265POPC   C1A56703  37.660  39.070   6.316
 4265POPC   D2A56704  37.642  39.202   6.739
 4265POPC   C3A56705  37.891  39.143   7.092
 4265POPC   C4A56706  38.078  39.454   7.343
 4265POPC   C1B56707  37.514  39.567   6.354
 4265POPC   C2B56708  37.284  39.552   6.749
 4265POPC   C3B56709  37.351  39.343   7.138
 4265POPC   C4B56710  37.305  39.727   7.316
 4266POPC   NC356711  31.854  43.319   5.353
 4266POPC   PO456712  31.269  43.192   5.425
 4266POPC   GL156713  31.562  43.133   5.759
 4266POPC   GL256714  31.632  42.779   5.790
 4266POPC   C1A56715  31.586  43.345   6.181
 4266POPC   D2A56716  31.297  43.543   6.506
 4266POPC   C3A56717  31.379  43.469   6.962
 4266POPC   C4A56718  31.726  43.199   7.112
 4266POPC   C1B56719  31.446  42.844   6.179
 4266POPC   C2B56720  31.499  43.001   6.588
 4266POPC   C3B56721  31.334  42.802   6.939
 4266POPC   C4B56722  31.507  42.760   7.280
 4267POPC   NC356723  11.870  23.535   5.341
 4267POPC   PO456724  12.541  23.675   5.399
 4267POPC   GL156725  12.172  23.845   5.674
 4267POPC   GL256726  11.793  23.845   5.736
 4267POPC   C1A56727  12.106  23.957   6.117
 4267POPC   D2A56728  12.311  23.741   6.445
 4267POPC   C3A56729  12.420  23.941   6.819
 4267POPC   C4A56730  12.128  23.929   7.149
 4267POPC   C1B56731  11.588  23.799   6.158
 4267POPC   C2B56732  11.729  23.784   6.589
 4267POPC   C3B56733  11.747  23.576   6.997
 4267POPC   C4B56734  12.000  23.465   7.333
 4268POPC   NC356735  37.843  23.167   5.379
 4268POPC   PO456736  37.457  22.637   5.402
 4268POPC   GL156737  37.640  22.866   5.745
 4268POPC   GL256738  37.502  23.203   5.776
 4268POPC   C1A56739  37.836  22.753   6.140
 4268POPC   D2A56740  37.713  22.769   6.578
 4268POPC   C3A56741  37.847  22.540   6.944
 4268POPC   C4A56742  37.682  22.695   7.334
 4268POPC   C1B56743  37.639  23.230   6.241
 4268POPC   C2B56744  37.624  23.258   6.716
 4268POPC   C3B56745  37.667  23.193   7.170
 4268POPC   C4B56746  37.547  23.096   7.622
 4269POPC   NC356747  38.660  15.842   4.799
 4269POPC   PO456748  38.212  15.873   5.365
 4269POPC   GL156749  38.503  15.893   5.713
 4269POPC   GL256750  38.344  16.184   5.867
 4269POPC   C1A56751  38.650  15.901   6.135
 4269POPC   D2A56752  38.359  16.017   6.456
 4269POPC   C3A56753  38.522  15.852   6.820
 4269POPC   C4A56754  38.894  15.901   7.077
 4269POPC   C1B56755  38.043  16.311   6.151
 4269POPC   C2B56756  37.956  16.348   6.564
 4269POPC   C3B56757  38.260  16.351   6.884
 4269POPC   C4B56758  38.427  16.108   7.242
 4270POPC   NC356759  41.301  22.572   5.380
 4270POPC   PO456760  41.675  23.143   5.494
 4270POPC   GL156761  41.469  22.901   5.808
 4270POPC   GL256762  41.743  22.994   6.006
 4270POPC   C1A56763  41.295  23.002   6.244
 4270POPC   D2A56764  41.404  23.187   6.647
 4270POPC   C3A56765  41.584  23.019   6.945
 4270POPC   C4A56766  41.492  22.860   7.298
 4270POPC   C1B56767  41.812  22.909   6.439
 4270POPC   C2B56768  42.065  23.040   6.774
 4270POPC   C3B56769  42.035  22.969   7.220
 4270POPC   C4B56770  41.874  23.004   7.645
 4271POPC   NC356771   3.732  30.454   5.391
 4271POPC   PO456772   3.646  31.090   5.292
 4271POPC   GL156773   3.561  30.891   5.676
 4271POPC   GL256774   3.880  30.823   5.831
 4271POPC   C1A56775   3.462  30.712   6.116
 4271POPC   D2A56776   3.552  30.864   6.565
 4271POPC   C3A56777   3.774  30.652   6.921
 4271POPC   C4A56778   3.587  30.417   7.297
 4271POPC   C1B56779   3.718  31.141   6.141
 4271POPC   C2B56780   3.665  31.356   6.517
 4271POPC   C3B56781   3.576  31.236   6.940
 4271POPC   C4B56782   3.517  30.937   7.266
 4272POPC   NC356783  28.104  41.140   5.580
 4272POPC   PO456784  28.597  40.646   5.378
 4272POPC   GL156785  28.418  40.693   5.848
 4272POPC   GL256786  28.364  41.043   5.980
 4272POPC   C1A56787  28.488  40.780   6.367
 4272POPC   D2A56788  28.193  40.949   6.661
 4272POPC   C3A56789  28.197  40.739   7.029
 4272POPC   C4A56790  28.494  40.494   7.205
 4272POPC   C1B56791  28.345  41.326   6.315
 4272POPC   C2B56792  28.636  41.236   6.617
 4272POPC   C3B56793  28.667  40.929   6.936
 4272POPC   C4B56794  28.492  41.106   7.258
 4273POPC   NC356795  21.957   7.084   5.170
 4273POPC   PO456796  22.300   7.642   5.452
 4273POPC   GL156797  22.137   7.449   5.820
 4273POPC   GL256798  21.914   7.132   5.740
 4273POPC   C1A56799  22.311   7.524   6.248
 4273POPC   D2A56800  22.152   7.590   6.668
 4273POPC   C3A56801  22.371   7.618   7.066
 4273POPC   C4A56802  22.342   7.292   7.361
 4273POPC   C1B56803  21.809   7.248   6.199
 4273POPC   C2B56804  21.840   7.176   6.670
 4273POPC   C3B56805  21.906   7.331   7.101
 4273POPC   C4B56806  21.785   7.286   7.556
 4274POPC   NC356807  12.300  39.989   5.446
 4274POPC   PO456808  12.940  39.840   5.441
 4274POPC   GL156809  12.712  40.032   5.800
 4274POPC   GL256810  12.446  39.849   5.990
 4274POPC   C1A56811  12.685  40.275   6.189
 4274POPC   D2A56812  12.490  40.395   6.573
 4274POPC   C3A56813  12.702  40.330   6.964
 4274POPC   C4A56814  12.781  40.061   7.315
 4274POPC   C1B56815  12.800  39.775   6.309
 4274POPC   C2B56816  12.838  39.835   6.781
 4274POPC   C3B56817  12.756  39.577   7.165
 4274POPC   C4B56818  12.810  39.603   7.649
 4275POPC   NC356819  19.452  21.940   5.473
 4275POPC   PO456820  18.872  22.035   5.103
 4275POPC   GL156821  18.995  22.076   5.636
 4275POPC   GL256822  19.033  22.376   5.800
 4275POPC   C1A56823  19.252  21.993   6.073
 4275POPC   D2A56824  19.494  21.854   6.470
 4275POPC   C3A56825  19.270  21.845   6.887
 4275POPC   C4A56826  19.155  22.107   7.243
 4275POPC   C1B56827  18.807  22.255   6.136
 4275POPC   C2B56828  18.769  22.472   6.511
 4275POPC   C3B56829  18.882  22.381   6.895
 4275POPC   C4B56830  18.699  22.389   7.257
 4276POPC   NC356831  39.677  27.588   5.413
 4276POPC   PO456832  40.320  27.469   5.524
 4276POPC   GL156833  40.041  27.458   5.839
 4276POPC   GL256834  39.925  27.774   5.818
 4276POPC   C1A56835  40.124  27.485   6.264
 4276POPC   D2A56836  40.020  27.578   6.704
 4276POPC   C3A56837  40.274  27.522   7.094
 4276POPC   C4A56838  40.375  27.226   7.485
 4276POPC   C1B56839  39.759  28.006   6.148
 4276POPC   C2B56840  39.624  28.069   6.559
 4276POPC   C3B56841  39.746  27.957   6.992
 4276POPC   C4B56842  39.980  27.840   7.336
 4277POPC   NC356843  19.500  30.866   5.229
 4277POPC   PO456844  19.765  30.278   5.256
 4277POPC   GL156845  19.700  30.679   5.662
 4277POPC   GL256846  20.035  30.711   5.898
 4277POPC   C1A56847  19.605  30.854   6.115
 4277POPC   D2A56848  19.774  31.007   6.554
 4277POPC   C3A56849  19.724  30.746   6.952
 4277POPC   C4A56850  19.423  30.620   7.284
 4277POPC   C1B56851  19.951  30.539   6.330
 4277POPC   C2B56852  19.802  30.281   6.674
 4277POPC   C3B56853  19.675  30.205   7.107
 4277POPC   C4B56854  19.913  30.267   7.484
 4278POPC   NC356855  15.999  27.021   5.464
 4278POPC   PO456856  15.834  27.695   5.261
 4278POPC   GL156857  15.845  27.559   5.707
 4278POPC   GL256858  15.685  27.244   5.814
 4278POPC   C1A56859  16.081  27.472   6.091
 4278POPC   D2A56860  15.995  27.328   6.494
 4278POPC   C3A56861  16.156  27.535   6.829
 4278POPC   C4A56862  16.098  27.566   7.234
 4278POPC   C1B56863  15.556  27.179   6.266
 4278POPC   C2B56864  15.540  27.323   6.710
 4278POPC   C3B56865  15.663  27.352   7.126
 4278POPC   C4B56866  15.775  27.313   7.557
 4279POPC   NC356867   8.173  11.044   5.506
 4279POPC   PO456868   7.860  11.655   5.340
 4279POPC   GL156869   7.995  11.428   5.773
 4279POPC   GL256870   8.391  11.294   5.899
 4279POPC   C1A56871   7.974  11.139   6.137
 4279POPC   D2A56872   8.254  11.188   6.478
 4279POPC   C3A56873   8.027  11.278   6.840
 4279POPC   C4A56874   8.099  11.386   7.259
 4279POPC   C1B56875   8.606  10.954   6.184
 4279POPC   C2B56876   8.575  10.829   6.659
 4279POPC   C3B56877   8.458  11.076   7.058
 4279POPC   C4B56878   8.611  11.295   7.472
 4280POPC   NC356879  22.555  26.056   5.364
 4280POPC   PO456880  21.942  25.829   5.322
 4280POPC   GL156881  22.059  25.870   5.781
 4280POPC   GL256882  22.378  26.006   5.864
 4280POPC   C1A56883  22.193  25.700   6.215
 4280POPC   D2A56884  22.170  25.890   6.637
 4280POPC   C3A56885  21.856  25.989   6.932
 4280POPC   C4A56886  22.129  25.889   7.284
 4280POPC   C1B56887  22.141  26.205   6.213
 4280POPC   C2B56888  22.018  26.377   6.622
 4280POPC   C3B56889  22.225  26.349   7.031
 4280POPC   C4B56890  22.116  26.342   7.471
 4281POPC   NC356891  41.695  23.601   5.425
 4281POPC   PO456892  41.160  23.997   5.566
 4281POPC   GL156893  41.467  23.793   5.859
 4281POPC   GL256894  41.412  23.426   5.877
 4281POPC   C1A56895  41.509  23.898   6.290
 4281POPC   D2A56896  41.353  23.693   6.642
 4281POPC   C3A56897  41.618  23.856   6.929
 4281POPC   C4A56898  41.767  23.839   7.360
 4281POPC   C1B56899  41.634  23.409   6.265
 4281POPC   C2B56900  41.863  23.505   6.618
 4281POPC   C3B56901  41.866  23.434   7.042
 4281POPC   C4B56902  41.600  23.350   7.380
 4282POPC   NC356903  19.251  32.527   5.465
 4282POPC   PO456904  18.603  32.185   5.366
 4282POPC   GL156905  18.710  32.129   5.834
 4282POPC   GL256906  19.018  32.269   5.843
 4282POPC   C1A56907  18.792  32.183   6.286
 4282POPC   D2A56908  18.722  32.344   6.648
 4282POPC   C3A56909  18.738  32.126   7.026
 4282POPC   C4A56910  18.944  32.200   7.463
 4282POPC   C1B56911  19.117  32.555   6.136
 4282POPC   C2B56912  19.208  32.493   6.532
 4282POPC   C3B56913  19.077  32.563   6.933
 4282POPC   C4B56914  19.312  32.457   7.240
 4283POPC   NC356915   3.651  36.978   5.027
 4283POPC   PO456916   3.977  36.674   5.523
 4283POPC   GL156917   3.683  36.697   5.835
 4283POPC   GL256918   3.482  36.999   5.750
 4283POPC   C1A56919   3.787  36.777   6.268
 4283POPC   D2A56920   3.930  36.730   6.694
 4283POPC   C3A56921   3.550  36.818   6.910
 4283POPC   C4A56922   3.429  36.686   7.293
 4283POPC   C1B56923   3.484  37.200   6.166
 4283POPC   C2B56924   3.294  37.214   6.583
 4283POPC   C3B56925   3.398  37.311   7.008
 4283POPC   C4B56926   3.492  37.161   7.440
 4284POPC   NC356927  36.662  15.263   5.267
 4284POPC   PO456928  37.044  14.860   5.548
 4284POPC   GL156929  37.098  15.214   5.840
 4284POPC   GL256930  36.841  15.528   5.746
 4284POPC   C1A56931  37.077  15.131   6.297
 4284POPC   D2A56932  37.336  15.139   6.689
 4284POPC   C3A56933  37.024  15.140   7.039
 4284POPC   C4A56934  36.887  14.817   7.317
 4284POPC   C1B56935  37.013  15.631   6.179
 4284POPC   C2B56936  36.981  15.512   6.654
 4284POPC   C3B56937  37.056  15.638   7.078
 4284POPC   C4B56938  36.772  15.551   7.379
 4285POPC   NC356939  29.307  28.743   5.243
 4285POPC   PO456940  28.818  28.983   5.382
 4285POPC   GL156941  28.855  29.177   5.816
 4285POPC   GL256942  28.646  29.457   5.901
 4285POPC   C1A56943  29.018  29.166   6.261
 4285POPC   D2A56944  29.307  29.115   6.622
 4285POPC   C3A56945  29.156  29.149   7.048
 4285POPC   C4A56946  29.331  29.314   7.435
 4285POPC   C1B56947  28.845  29.642   6.279
 4285POPC   C2B56948  28.982  29.512   6.697
 4285POPC   C3B56949  28.988  29.619   7.147
 4285POPC   C4B56950  29.058  29.744   7.584
 4286POPC   NC356951  36.193  17.421   5.439
 4286POPC   PO456952  35.957  17.977   5.284
 4286POPC   GL156953  35.874  17.744   5.736
 4286POPC   GL256954  36.003  17.394   5.891
 4286POPC   C1A56955  36.012  17.794   6.197
 4286POPC   D2A56956  36.349  17.862   6.495
 4286POPC   C3A56957  36.258  17.777   6.928
 4286POPC   C4A56958  36.202  17.686   7.354
 4286POPC   C1B56959  35.923  17.298   6.289
 4286POPC   C2B56960  35.970  17.463   6.665
 4286POPC   C3B56961  36.082  17.286   7.066
 4286POPC   C4B56962  35.838  17.353   7.439
 4287POPC   NC356963  20.015  15.697   5.564
 4287POPC   PO456964  19.687  16.232   5.345
 4287POPC   GL156965  19.533  16.058   5.734
 4287POPC   GL256966  19.845  16.098   5.858
 4287POPC   C1A56967  19.452  15.999   6.195
 4287POPC   D2A56968  19.577  16.208   6.594
 4287POPC   C3A56969  19.485  16.032   7.016
 4287POPC   C4A56970  19.593  15.778   7.399
 4287POPC   C1B56971  19.968  16.041   6.273
 4287POPC   C2B56972  20.104  16.292   6.609
 4287POPC   C3B56973  19.910  16.301   6.990
 4287POPC   C4B56974  19.950  16.140   7.387
 4288POPC   NC356975  34.880  33.897   5.366
 4288POPC   PO456976  34.204  33.625   5.299
 4288POPC   GL156977  34.499  33.673   5.607
 4288POPC   GL256978  34.389  33.975   5.708
 4288POPC   C1A56979  34.537  33.636   6.066
 4288POPC   D2A56980  34.468  33.561   6.499
 4288POPC   C3A56981  34.769  33.649   6.819
 4288POPC   C4A56982  34.729  33.655   7.287
 4288POPC   C1B56983  34.434  34.120   6.157
 4288POPC   C2B56984  34.447  34.045   6.623
 4288POPC   C3B56985  34.319  33.874   7.035
 4288POPC   C4B56986  34.193  34.214   7.335
 4289POPC   NC356987  16.523  39.969   5.468
 4289POPC   PO456988  17.150  39.847   5.478
 4289POPC   GL156989  16.880  39.857   5.820
 4289POPC   GL256990  16.783  40.204   5.861
 4289POPC   C1A56991  16.948  39.628   6.189
 4289POPC   D2A56992  17.177  39.755   6.550
 4289POPC   C3A56993  17.010  39.878   6.949
 4289POPC   C4A56994  16.689  39.721   7.223
 4289POPC   C1B56995  16.820  40.105   6.296
 4289POPC   C2B56996  16.601  39.786   6.570
 4289POPC   C3B56997  16.352  39.951   6.897
 4289POPC   C4B56998  16.637  40.224   7.126
 4290POPC   NC356999  40.279  33.928   5.494
 4290POPC   PO457000  39.698  33.680   5.524
 4290POPC   GL157001  39.907  33.783   5.871
 4290POPC   GL257002  40.249  33.646   5.947
 4290POPC   C1A57003  39.852  33.601   6.263
 4290POPC   D2A57004  39.925  33.717   6.642
 4290POPC   C3A57005  39.807  33.468   6.916
 4290POPC   C4A57006  40.008  33.436   7.327
 4290POPC   C1B57007  40.164  34.049   6.223
 4290POPC   C2B57008  40.086  34.182   6.676
 4290POPC   C3B57009  40.081  33.920   7.114
 4290POPC   C4B57010  40.354  33.776   7.496
 4291POPC   NC357011  35.455  29.251   5.262
 4291POPC   PO457012  35.415  29.861   5.235
 4291POPC   GL157013  35.353  30.012   5.649
 4291POPC   GL257014  35.650  30.162   5.763
 4291POPC   C1A57015  35.353  29.816   6.064
 4291POPC   D2A57016  35.169  29.993   6.453
 4291POPC   C3A57017  35.303  29.879   6.865
 4291POPC   C4A57018  35.137  29.641   7.199
 4291POPC   C1B57019  35.538  30.274   6.141
 4291POPC   C2B57020  35.658  30.114   6.515
 4291POPC   C3B57021  35.583  30.301   6.887
 4291POPC   C4B57022  35.596  30.080   7.244
 4292POPC   NC357023  10.002  26.992   5.417
 4292POPC   PO457024   9.363  26.702   5.449
 4292POPC   GL157025   9.627  26.812   5.786
 4292POPC   GL257026   9.985  26.718   5.839
 4292POPC   C1A57027   9.651  26.776   6.215
 4292POPC   D2A57028   9.639  27.076   6.516
 4292POPC   C3A57029   9.569  26.945   6.926
 4292POPC   C4A57030   9.663  26.738   7.299
 4292POPC   C1B57031  10.077  27.035   6.178
 4292POPC   C2B57032  10.085  26.859   6.614
 4292POPC   C3B57033  10.091  26.970   7.069
 4292POPC   C4B57034  10.209  26.694   7.374
 4293POPC   NC357035   3.396  32.298   5.131
 4293POPC   PO457036   3.757  32.824   5.378
 4293POPC   GL157037   3.632  32.492   5.684
 4293POPC   GL257038   3.334  32.239   5.680
 4293POPC   C1A57039   3.652  32.352   6.116
 4293POPC   D2A57040   3.585  32.124   6.494
 4293POPC   C3A57041   3.587  32.244   6.915
 4293POPC   C4A57042   3.644  31.997   7.257
 4293POPC   C1B57043   3.205  32.563   5.998
 4293POPC   C2B57044   3.321  32.592   6.439
 4293POPC   C3B57045   3.265  32.632   6.873
 4293POPC   C4B57046   3.331  32.804   7.246
 4294POPC   NC357047  36.325  22.310   5.386
 4294POPC   PO457048  36.057  21.667   5.534
 4294POPC   GL157049  36.248  21.955   5.839
 4294POPC   GL257050  36.154  22.322   5.864
 4294POPC   C1A57051  35.984  22.015   6.225
 4294POPC   D2A57052  35.946  21.819   6.593
 4294POPC   C3A57053  35.927  22.058   6.957
 4294POPC   C4A57054  36.064  21.985   7.361
 4294POPC   C1B57055  36.438  22.252   6.234
 4294POPC   C2B57056  36.368  22.250   6.676
 4294POPC   C3B57057  36.412  22.225   7.098
 4294POPC   C4B57058  36.358  22.356   7.545
 4295POPC   NC357059   8.432   3.102   5.627
 4295POPC   PO457060   8.317   2.454   5.532
 4295POPC   GL157061   8.203   2.688   5.898
 4295POPC   GL257062   7.932   2.934   5.867
 4295POPC   C1A57063   8.271   2.968   6.252
 4295POPC   D2A57064   8.251   3.045   6.666
 4295POPC   C3A57065   8.143   2.660   6.830
 4295POPC   C4A57066   8.230   2.665   7.245
 4295POPC   C1B57067   7.746   3.110   6.227
 4295POPC   C2B57068   7.714   2.947   6.645
 4295POPC   C3B57069   7.886   3.030   7.071
 4295POPC   C4B57070   7.823   2.910   7.497
 4296POPC   NC357071  11.121   1.777   4.996
 4296POPC   PO457072  11.443   1.827   5.574
 4296POPC   GL157073  11.252   2.035   5.919
 4296POPC   GL257074  10.902   1.968   5.985
 4296POPC   C1A57075  11.347   2.007   6.340
 4296POPC   D2A57076  11.228   1.732   6.646
 4296POPC   C3A57077  11.300   1.748   7.061
 4296POPC   C4A57078  11.499   2.060   7.263
 4296POPC   C1B57079  10.931   2.268   6.294
 4296POPC   C2B57080  11.043   2.217   6.739
 4296POPC   C3B57081  10.840   2.149   7.128
 4296POPC   C4B57082  11.022   1.958   7.458
 4297POPC   NC357083  36.299  43.477   5.391
 4297POPC   PO457084  36.097  44.127   5.529
 4297POPC   GL157085  36.216  43.792   5.796
 4297POPC   GL257086  35.940  43.601   5.807
 4297POPC   C1A57087  36.165  43.893   6.228
 4297POPC   D2A57088  36.349  44.117   6.583
 4297POPC   C3A57089  36.110  44.135   6.967
 4297POPC   C4A57090  36.301  43.970   7.332
 4297POPC   C1B57091  35.948  43.437   6.226
 4297POPC   C2B57092  35.967  43.663   6.647
 4297POPC   C3B57093  35.933  43.656   7.084
 4297POPC   C4B57094  35.779  43.910   7.408
 4298POPC   NC357095   7.128  10.953   5.552
 4298POPC   PO457096   7.291  10.307   5.407
 4298POPC   GL157097   7.461  10.634   5.782
 4298POPC   GL257098   7.223  10.819   6.036
 4298POPC   C1A57099   7.674  10.711   6.211
 4298POPC   D2A57100   7.783  10.388   6.499
 4298POPC   C3A57101   7.802  10.381   6.951
 4298POPC   C4A57102   7.648  10.045   7.198
 4298POPC   C1B57103   7.265  10.401   6.293
 4298POPC   C2B57104   7.356  10.155   6.704
 4298POPC   C3B57105   7.227  10.290   7.113
 4298POPC   C4B57106   7.448  10.707   7.182
 4299POPC   NC357107   0.828  38.529   5.472
 4299POPC   PO457108   1.451  38.720   5.511
 4299POPC   GL157109   1.196  38.588   5.828
 4299POPC   GL257110   1.158  38.243   5.844
 4299POPC   C1A57111   0.940  38.580   6.183
 4299POPC   D2A57112   1.169  38.599   6.543
 4299POPC   C3A57113   0.902  38.591   6.876
 4299POPC   C4A57114   1.061  38.651   7.255
 4299POPC   C1B57115   1.241  38.128   6.277
 4299POPC   C2B57116   1.031  38.120   6.669
 4299POPC   C3B57117   1.113  38.148   7.086
 4299POPC   C4B57118   1.456  38.264   7.315
 4300POPC   NC357119  13.367  44.913   5.551
 4300POPC   PO457120  12.776  44.705   5.292
 4300POPC   GL157121  12.785  44.526   5.710
 4300POPC   GL257122  13.124  44.522   5.829
 4300POPC   C1A57123  12.724  44.622   6.158
 4300POPC   D2A57124  12.856  44.562   6.583
 4300POPC   C3A57125  12.771  44.695   6.999
 4300POPC   C4A57126  12.500  44.468   7.293
 4300POPC   C1B57127  13.213  44.748   6.241
 4300POPC   C2B57128  13.149  44.960   6.660
 4300POPC   C3B57129  13.274  44.870   7.086
 4300POPC   C4B57130  13.112  44.527   7.378
 4301POPC   NC357131  15.417  13.348   5.506
 4301POPC   PO457132  15.019  13.839   5.489
 4301POPC   GL157133  15.290  13.746   5.820
 4301POPC   GL257134  15.671  13.724   5.777
 4301POPC   C1A57135  15.348  13.431   6.149
 4301POPC   D2A57136  15.470  13.312   6.558
 4301POPC   C3A57137  15.240  13.604   6.818
 4301POPC   C4A57138  15.024  13.626   7.189
 4301POPC   C1B57139  15.556  13.914   6.212
 4301POPC   C2B57140  15.543  14.052   6.670
 4301POPC   C3B57141  15.657  13.824   7.068
 4301POPC   C4B57142  15.525  13.429   7.221
 4302POPC   NC357143  17.505  27.074   5.260
 4302POPC   PO457144  17.188  26.548   5.485
 4302POPC   GL157145  17.549  26.777   5.689
 4302POPC   GL257146  17.312  26.863   5.910
 4302POPC   C1A57147  17.772  26.846   6.111
 4302POPC   D2A57148  18.012  26.662   6.458
 4302POPC   C3A57149  17.741  26.657   6.816
 4302POPC   C4A57150  17.631  26.800   7.217
 4302POPC   C1B57151  17.050  26.611   6.184
 4302POPC   C2B57152  17.276  26.696   6.551
 4302POPC   C3B57153  17.301  26.976   6.878
 4302POPC   C4B57154  17.102  26.813   7.229
 4303POPC   NC357155  27.006   4.477   5.162
 4303POPC   PO457156  27.647   4.434   5.414
 4303POPC   GL157157  27.683   4.305   5.861
 4303POPC   GL257158  27.727   4.625   5.887
 4303POPC   C1A57159  27.434   4.268   6.285
 4303POPC   D2A57160  27.464   4.106   6.758
 4303POPC   C3A57161  27.321   4.241   7.162
 4303POPC   C4A57162  27.699   4.189   7.445
 4303POPC   C1B57163  27.853   4.584   6.287
 4303POPC   C2B57164  27.646   4.572   6.645
 4303POPC   C3B57165  27.742   4.489   7.015
 4303POPC   C4B57166  27.843   4.841   7.204
 4304POPC   NC357167  40.523  13.670   5.321
 4304POPC   PO457168  40.551  13.059   5.577
 4304POPC   GL157169  40.766  13.362   5.836
 4304POPC   GL257170  40.706  13.713   5.783
 4304POPC   C1A57171  40.887  13.550   6.229
 4304POPC   D2A57172  41.101  13.436   6.582
 4304POPC   C3A57173  40.985  13.633   6.953
 4304POPC   C4A57174  40.838  13.701   7.361
 4304POPC   C1B57175  40.414  13.817   6.120
 4304POPC   C2B57176  40.565  13.887   6.558
 4304POPC   C3B57177  40.481  13.775   6.986
 4304POPC   C4B57178  40.343  13.765   7.416
 4305POPC   NC357179  12.932  10.844   5.156
 4305POPC   PO457180  12.511  10.347   5.470
 4305POPC   GL157181  12.691  10.294   5.881
 4305POPC   GL257182  13.053  10.337   5.886
 4305POPC   C1A57183  12.716  10.457   6.272
 4305POPC   D2A57184  12.571  10.660   6.589
 4305POPC   C3A57185  12.710  10.606   6.952
 4305POPC   C4A57186  12.634  10.294   7.264
 4305POPC   C1B57187  13.266  10.516   6.230
 4305POPC   C2B57188  13.112  10.547   6.640
 4305POPC   C3B57189  13.146  10.423   7.094
 4305POPC   C4B57190  13.181  10.779   7.286
 4306POPC   NC357191   6.330  21.930   4.888
 4306POPC   PO457192   6.750  22.368   5.242
 4306POPC   GL157193   6.546  22.295   5.673
 4306POPC   GL257194   6.575  21.930   5.734
 4306POPC   C1A57195   6.576  22.257   6.165
 4306POPC   D2A57196   6.867  22.249   6.548
 4306POPC   C3A57197   6.654  22.414   6.925
 4306POPC   C4A57198   6.412  22.215   7.259
 4306POPC   C1B57199   6.751  21.778   6.140
 4306POPC   C2B57200   6.625  21.798   6.562
 4306POPC   C3B57201   6.741  21.884   6.976
 4306POPC   C4B57202   7.004  22.178   7.196
 4307POPC   NC357203  16.831  11.951   5.420
 4307POPC   PO457204  16.368  12.486   5.374
 4307POPC   GL157205  16.553  12.429   5.788
 4307POPC   GL257206  16.704  12.110   5.882
 4307POPC   C1A57207  16.668  12.510   6.215
 4307POPC   D2A57208  16.618  12.314   6.595
 4307POPC   C3A57209  16.825  12.268   6.993
 4307POPC   C4A57210  16.628  12.057   7.339
 4307POPC   C1B57211  16.953  12.074   6.259
 4307POPC   C2B57212  17.177  12.089   6.606
 4307POPC   C3B57213  17.161  11.887   6.974
 4307POPC   C4B57214  17.119  11.977   7.376
 4308POPC   NC357215  40.256  17.108   5.608
 4308POPC   PO457216  40.044  17.661   5.264
 4308POPC   GL157217  39.978  17.542   5.722
 4308POPC   GL257218  40.173  17.775   5.872
 4308POPC   C1A57219  39.792  17.386   6.129
 4308POPC   D2A57220  39.839  17.255   6.549
 4308POPC   C3A57221  39.699  17.463   6.899
 4308POPC   C4A57222  39.788  17.412   7.303
 4308POPC   C1B57223  40.261  17.535   6.230
 4308POPC   C2B57224  40.390  17.514   6.659
 4308POPC   C3B57225  40.333  17.521   7.097
 4308POPC   C4B57226  40.461  17.826   7.384
 4309POPC   NC357227  17.631  28.803   5.611
 4309POPC   PO457228  17.778  28.123   5.383
 4309POPC   GL157229  17.649  28.215   5.831
 4309POPC   GL257230  17.687  28.523   6.034
 4309POPC   C1A57231  17.347  28.153   6.208
 4309POPC   D2A57232  17.131  28.337   6.585
 4309POPC   C3A57233  17.257  28.141   6.966
 4309POPC   C4A57234  17.294  28.297   7.356
 4309POPC   C1B57235  17.939  28.719   6.380
 4309POPC   C2B57236  18.031  28.547   6.766
 4309POPC   C3B57237  17.702  28.470   7.046
 4309POPC   C4B57238  17.690  28.727   7.385
 4310POPC   NC357239  36.721  25.588   5.539
 4310POPC   PO457240  37.007  26.274   5.448
 4310POPC   GL157241  37.007  25.958   5.780
 4310POPC   GL257242  37.353  25.875   5.796
 4310POPC   C1A57243  36.851  25.873   6.229
 4310POPC   D2A57244  36.657  26.126   6.567
 4310POPC   C3A57245  36.758  26.075   7.005
 4310POPC   C4A57246  36.603  26.249   7.392
 4310POPC   C1B57247  37.295  26.078   6.192
 4310POPC   C2B57248  37.181  26.036   6.662
 4310POPC   C3B57249  37.256  26.010   7.136
 4310POPC   C4B57250  37.028  26.004   7.548
 4311POPC   NC357251  29.135  31.058   5.383
 4311POPC   PO457252  28.816  30.485   5.435
 4311POPC   GL157253  29.010  30.763   5.771
 4311POPC   GL257254  29.399  30.804   5.726
 4311POPC   C1A57255  28.848  30.910   6.172
 4311POPC   D2A57256  28.964  30.693   6.546
 4311POPC   C3A57257  28.863  30.820   6.958
 4311POPC   C4A57258  28.844  30.612   7.366
 4311POPC   C1B57259  29.359  30.798   6.179
 4311POPC   C2B57260  29.405  30.946   6.628
 4311POPC   C3B57261  29.349  30.749   7.046
 4311POPC   C4B57262  29.192  30.979   7.401
 4312POPC   NC357263  30.170   6.510   5.458
 4312POPC   PO457264  29.746   7.025   5.303
 4312POPC   GL157265  29.665   6.867   5.727
 4312POPC   GL257266  30.001   6.854   5.808
 4312POPC   C1A57267  29.557   6.646   6.161
 4312POPC   D2A57268  29.618   6.513   6.601
 4312POPC   C3A57269  29.846   6.821   6.806
 4312POPC   C4A57270  29.850   6.903   7.196
 4312POPC   C1B57271  30.095   6.727   6.216
 4312POPC   C2B57272  30.215   6.535   6.605
 4312POPC   C3B57273  30.115   6.445   7.009
 4312POPC   C4B57274  30.217   6.566   7.385
 4313POPC   NC357275  15.038  30.827   5.257
 4313POPC   PO457276  15.602  31.155   5.486
 4313POPC   GL157277  15.549  30.886   5.883
 4313POPC   GL257278  15.287  30.623   5.867
 4313POPC   C1A57279  15.521  30.680   6.319
 4313POPC   D2A57280  15.442  30.458   6.694
 4313POPC   C3A57281  15.322  30.685   7.067
 4313POPC   C4A57282  15.356  30.531   7.516
 4313POPC   C1B57283  15.066  30.461   6.296
 4313POPC   C2B57284  14.952  30.350   6.785
 4313POPC   C3B57285  14.869  30.457   7.257
 4313POPC   C4B57286  14.887  30.607   7.709
 4314POPC   NC357287  20.061   3.693   5.223
 4314POPC   PO457288  19.438   3.578   5.333
 4314POPC   GL157289  19.697   3.790   5.682
 4314POPC   GL257290  20.042   3.713   5.755
 4314POPC   C1A57291  19.665   3.823   6.165
 4314POPC   D2A57292  19.453   3.804   6.596
 4314POPC   C3A57293  19.604   3.718   7.043
 4314POPC   C4A57294  19.719   3.323   7.278
 4314POPC   C1B57295  20.143   3.646   6.217
 4314POPC   C2B57296  19.964   3.696   6.653
 4314POPC   C3B57297  20.116   3.627   7.092
 4314POPC   C4B57298  20.245   3.383   7.465
 4315POPC   NC357299   0.032   5.401   5.631
 4315POPC   PO457300  44.549   5.002   5.381
 4315POPC   GL157301  44.724   5.012   5.802
 4315POPC   GL257302  44.744   5.317   6.029
 4315POPC   C1A57303  44.983   4.783   6.095
 4315POPC   D2A57304   0.139   4.733   6.537
 4315POPC   C3A57305  44.870   4.730   6.902
 4315POPC   C4A57306  44.801   4.962   7.291
 4315POPC   C1B57307  44.726   5.103   6.431
 4315POPC   C2B57308  44.654   5.211   6.859
 4315POPC   C3B57309  44.564   5.427   7.233
 4315POPC   C4B57310  44.493   5.557   7.679
 4316POPC   NC357311  17.862   0.917   5.420
 4316POPC   PO457312  18.469   1.243   5.414
 4316POPC   GL157313  18.507   1.461   5.776
 4316POPC   GL257314  18.189   1.241   5.844
 4316POPC   C1A57315  18.316   1.625   6.152
 4316POPC   D2A57316  18.361   1.392   6.508
 4316POPC   C3A57317  18.353   1.500   6.921
 4316POPC   C4A57318  18.195   1.235   7.200
 4316POPC   C1B57319  18.502   1.043   6.118
 4316POPC   C2B57320  18.674   0.990   6.558
 4316POPC   C3B57321  18.650   1.045   7.043
 4316POPC   C4B57322  18.537   0.773   7.417
 4317POPC   NC357323  38.144  38.663   5.504
 4317POPC   PO457324  38.704  38.150   5.449
 4317POPC   GL157325  38.507  38.244   5.859
 4317POPC   GL257326  38.532  38.574   5.825
 4317POPC   C1A57327  38.409  38.476   6.301
 4317POPC   D2A57328  38.463  38.861   6.583
 4317POPC   C3A57329  38.246  38.784   6.929
 4317POPC   C4A57330  38.310  38.381   7.138
 4317POPC   C1B57331  38.860  38.596   6.129
 4317POPC   C2B57332  38.935  38.680   6.547
 4317POPC   C3B57333  38.739  38.592   6.944
 4317POPC   C4B57334  38.677  38.616   7.418
 4318POPC   NC357335   9.368  42.395   5.156
 4318POPC   PO457336   9.164  41.926   5.568
 4318POPC   GL157337   9.048  42.313   5.796
 4318POPC   GL257338   8.708  42.489   5.725
 4318POPC   C1A57339   9.225  42.385   6.223
 4318POPC   D2A57340   9.351  42.301   6.653
 4318POPC   C3A57341   9.035  42.138   6.927
 4318POPC   C4A57342   8.920  42.248   7.332
 4318POPC   C1B57343   8.704  42.381   6.188
 4318POPC   C2B57344   8.854  42.515   6.598
 4318POPC   C3B57345   8.645  42.530   7.006
 4318POPC   C4B57346   8.701  42.695   7.436
 4319POPC   NC357347  15.319  39.113   5.005
 4319POPC   PO457348  14.868  39.359   5.506
 4319POPC   GL157349  14.986  39.438   5.902
 4319POPC   GL257350  15.311  39.318   6.009
 4319POPC   C1A57351  14.904  39.268   6.306
 4319POPC   D2A57352  15.130  39.174   6.668
 4319POPC   C3A57353  15.158  39.472   7.015
 4319POPC   C4A57354  15.184  39.375   7.478
 4319POPC   C1B57355  15.528  39.019   6.255
 4319POPC   C2B57356  15.565  38.897   6.668
 4319POPC   C3B57357  15.471  39.070   7.055
 4319POPC   C4B57358  15.670  39.235   7.396
 4320POPC   NC357359   8.804  24.141   5.219
 4320POPC   PO457360   9.148  23.532   5.380
 4320POPC   GL157361   8.905  23.755   5.693
 4320POPC   GL257362   9.091  24.057   5.750
 4320POPC   C1A57363   8.886  23.585   6.127
 4320POPC   D2A57364   9.016  23.376   6.520
 4320POPC   C3A57365   8.826  23.411   6.930
 4320POPC   C4A57366   8.967  23.561   7.338
 4320POPC   C1B57367   8.948  24.119   6.156
 4320POPC   C2B57368   8.851  23.908   6.535
 4320POPC   C3B57369   8.995  23.908   6.940
 4320POPC   C4B57370   8.874  24.250   7.162
 4321POPC   NC357371  24.842  26.430   5.536
 4321POPC   PO457372  25.223  26.948   5.463
 4321POPC   GL157373  25.406  26.893   5.839
 4321POPC   GL257374  25.331  26.569   5.799
 4321POPC   C1A57375  25.238  26.766   6.261
 4321POPC   D2A57376  24.980  26.613   6.590
 4321POPC   C3A57377  25.054  26.894   6.898
 4321POPC   C4A57378  25.028  26.927   7.297
 4321POPC   C1B57379  25.538  26.334   6.117
 4321POPC   C2B57380  25.548  26.289   6.559
 4321POPC   C3B57381  25.347  26.456   6.948
 4321POPC   C4B57382  25.336  26.554   7.388
 4322POPC   NC357383   3.408  17.748   5.457
 4322POPC   PO457384   3.908  17.209   5.324
 4322POPC   GL157385   3.660  17.351   5.717
 4322POPC   GL257386   3.651  17.640   5.954
 4322POPC   C1A57387   3.299  17.289   6.045
 4322POPC   D2A57388   3.222  17.194   6.498
 4322POPC   C3A57389   3.429  17.361   6.879
 4322POPC   C4A57390   3.744  17.368   7.213
 4322POPC   C1B57391   3.594  17.563   6.392
 4322POPC   C2B57392   3.848  17.636   6.762
 4322POPC   C3B57393   3.635  17.846   7.049
 4322POPC   C4B57394   3.319  17.680   7.283
 4323POPC   NC357395  17.733  19.459   5.369
 4323POPC   PO457396  17.620  20.042   5.477
 4323POPC   GL157397  17.508  19.977   5.875
 4323POPC   GL257398  17.516  19.625   5.828
 4323POPC   C1A57399  17.498  19.994   6.301
 4323POPC   D2A57400  17.531  19.685   6.617
 4323POPC   C3A57401  17.443  19.917   6.985
 4323POPC   C4A57402  17.511  20.333   7.105
 4323POPC   C1B57403  17.196  19.603   6.152
 4323POPC   C2B57404  17.077  19.475   6.563
 4323POPC   C3B57405  17.117  19.534   6.982
 4323POPC   C4B57406  17.214  19.691   7.425
 4324POPC   NC357407  27.863  20.848   5.517
 4324POPC   PO457408  27.309  20.529   5.322
 4324POPC   GL157409  27.488  20.528   5.709
 4324POPC   GL257410  27.434  20.854   5.851
 4324POPC   C1A57411  27.616  20.330   6.071
 4324POPC   D2A57412  27.629  20.507   6.469
 4324POPC   C3A57413  27.584  20.342   6.844
 4324POPC   C4A57414  27.236  20.421   7.125
 4324POPC   C1B57415  27.560  20.977   6.277
 4324POPC   C2B57416  27.825  20.947   6.627
 4324POPC   C3B57417  27.599  20.820   6.932
 4324POPC   C4B57418  27.628  20.645   7.343
 4325POPC   NC357419   1.574  13.744   5.507
 4325POPC   PO457420   2.090  13.393   5.294
 4325POPC   GL157421   2.101  13.587   5.750
 4325POPC   GL257422   1.969  13.892   5.819
 4325POPC   C1A57423   1.977  13.498   6.212
 4325POPC   D2A57424   1.753  13.544   6.623
 4325POPC   C3A57425   1.973  13.555   6.962
 4325POPC   C4A57426   2.238  13.685   7.293
 4325POPC   C1B57427   2.148  13.998   6.201
 4325POPC   C2B57428   1.960  13.991   6.575
 4325POPC   C3B57429   2.038  14.066   6.978
 4325POPC   C4B57430   1.779  13.911   7.263
 4326POPC   NC357431  12.261  16.013   5.185
 4326POPC   PO457432  12.545  16.260   5.662
 4326POPC   GL157433  12.300  16.089   5.991
 4326POPC   GL257434  12.050  15.845   5.900
 4326POPC   C1A57435  12.140  16.041   6.416
 4326POPC   D2A57436  11.942  15.929   6.808
 4326POPC   C3A57437  12.093  15.899   7.221
 4326POPC   C4A57438  12.399  15.716   7.492
 4326POPC   C1B57439  11.755  15.675   6.225
 4326POPC   C2B57440  11.593  15.587   6.668
 4326POPC   C3B57441  11.635  15.668   7.122
 4326POPC   C4B57442  11.605  16.080   7.343
 4327POPC   NC357443   8.626  22.576   5.606
 4327POPC   PO457444   8.028  22.944   5.491
 4327POPC   GL157445   8.243  22.907   5.860
 4327POPC   GL257446   8.237  22.559   5.942
 4327POPC   C1A57447   8.284  23.177   6.211
 4327POPC   D2A57448   8.115  23.226   6.630
 4327POPC   C3A57449   8.320  23.263   7.046
 4327POPC   C4A57450   8.147  23.036   7.465
 4327POPC   C1B57451   8.364  22.673   6.336
 4327POPC   C2B57452   8.219  22.746   6.739
 4327POPC   C3B57453   8.437  22.787   7.128
 4327POPC   C4B57454   8.564  22.745   7.580
 4328POPC   NC357455  36.775   1.652   5.129
 4328POPC   PO457456  36.579   2.118   5.549
 4328POPC   GL157457  36.755   1.899   5.883
 4328POPC   GL257458  37.114   1.939   5.817
 4328POPC   C1A57459  36.945   1.806   6.306
 4328POPC   D2A57460  37.243   1.902   6.652
 4328POPC   C3A57461  37.112   1.824   7.092
 4328POPC   C4A57462  36.859   1.783   7.477
 4328POPC   C1B57463  37.002   2.278   6.151
 4328POPC   C2B57464  36.929   2.343   6.581
 4328POPC   C3B57465  37.118   2.349   6.972
 4328POPC   C4B57466  36.975   2.399   7.376
 4329POPC   NC357467   3.543  23.525   5.248
 4329POPC   PO457468   3.223  23.150   5.694
 4329POPC   GL157469   3.519  23.438   5.908
 4329POPC   GL257470   3.912  23.533   5.918
 4329POPC   C1A57471   3.544  23.551   6.335
 4329POPC   D2A57472   3.285  23.536   6.714
 4329POPC   C3A57473   3.509  23.518   7.096
 4329POPC   C4A57474   3.522  23.813   7.434
 4329POPC   C1B57475   4.054  23.753   6.294
 4329POPC   C2B57476   3.995  23.635   6.719
 4329POPC   C3B57477   3.968  23.737   7.155
 4329POPC   C4B57478   4.020  23.416   7.448
 4330POPC   NC357479  21.563  12.600   5.382
 4330POPC   PO457480  21.945  13.206   5.537
 4330POPC   GL157481  21.589  12.970   5.773
 4330POPC   GL257482  21.290  12.700   5.831
 4330POPC   C1A57483  21.341  13.083   6.160
 4330POPC   D2A57484  21.171  12.871   6.517
 4330POPC   C3A57485  21.341  13.012   6.897
 4330POPC   C4A57486  21.455  12.901   7.292
 4330POPC   C1B57487  21.099  12.431   6.224
 4330POPC   C2B57488  20.982  12.419   6.695
 4330POPC   C3B57489  21.034  12.647   7.115
 4330POPC   C4B57490  20.856  12.626   7.584
 4331POPC   NC357491  21.062  40.998   5.377
 4331POPC   PO457492  20.378  40.835   5.303
 4331POPC   GL157493  20.399  40.631   5.673
 4331POPC   GL257494  20.775  40.630   5.739
 4331POPC   C1A57495  20.450  40.892   6.050
 4331POPC   D2A57496  20.513  41.038   6.478
 4331POPC   C3A57497  20.397  40.840   6.863
 4331POPC   C4A57498  20.535  40.967   7.257
 4331POPC   C1B57499  20.923  40.758   6.213
 4331POPC   C2B57500  20.877  40.746   6.713
 4331POPC   C3B57501  21.027  40.764   7.141
 4331POPC   C4B57502  21.075  40.861   7.573
 4332POPC   NC357503  33.542  41.212   5.340
 4332POPC   PO457504  33.965  40.790   5.251
 4332POPC   GL157505  33.768  40.925   5.691
 4332POPC   GL257506  33.396  40.856   5.756
 4332POPC   C1A57507  33.710  41.104   6.130
 4332POPC   D2A57508  33.918  41.155   6.558
 4332POPC   C3A57509  33.997  40.791   6.859
 4332POPC   C4A57510  33.964  40.820   7.347
 4332POPC   C1B57511  33.421  40.679   6.200
 4332POPC   C2B57512  33.428  40.929   6.618
 4332POPC   C3B57513  33.523  40.785   7.053
 4332POPC   C4B57514  33.716  40.389   7.259
 4333POPC   NC357515   6.548  11.646   5.390
 4333POPC   PO457516   6.548  12.253   5.296
 4333POPC   GL157517   6.526  12.176   5.741
 4333POPC   GL257518   6.602  11.834   5.875
 4333POPC   C1A57519   6.532  12.240   6.200
 4333POPC   D2A57520   6.511  12.030   6.603
 4333POPC   C3A57521   6.662  12.188   6.995
 4333POPC   C4A57522   6.557  12.057   7.392
 4333POPC   C1B57523   6.832  11.774   6.277
 4333POPC   C2B57524   6.949  11.796   6.730
 4333POPC   C3B57525   7.047  11.883   7.160
 4333POPC   C4B57526   7.428  11.907   7.450
 4334POPC   NC357527  44.264   9.403   5.442
 4334POPC   PO457528  43.585   9.640   5.354
 4334POPC   GL157529  43.815   9.550   5.754
 4334POPC   GL257530  44.159   9.746   5.825
 4334POPC   C1A57531  43.677   9.554   6.196
 4334POPC   D2A57532  43.488   9.446   6.613
 4334POPC   C3A57533  43.685   9.471   7.014
 4334POPC   C4A57534  44.119   9.556   7.206
 4334POPC   C1B57535  44.107   9.830   6.295
 4334POPC   C2B57536  43.828   9.838   6.648
 4334POPC   C3B57537  43.822   9.950   7.057
 4334POPC   C4B57538  44.110  10.080   7.411
 4335POPC   NC357539   6.322  40.933   5.440
 4335POPC   PO457540   6.855  40.741   5.325
 4335POPC   GL157541   6.727  40.872   5.740
 4335POPC   GL257542   6.906  41.170   5.756
 4335POPC   C1A57543   6.448  40.925   6.102
 4335POPC   D2A57544   6.606  40.800   6.474
 4335POPC   C3A57545   6.567  40.876   6.919
 4335POPC   C4A57546   6.675  40.568   7.186
 4335POPC   C1B57547   7.025  41.023   6.180
 4335POPC   C2B57548   7.112  40.862   6.596
 4335POPC   C3B57549   7.147  41.105   6.949
 4335POPC   C4B57550   6.978  41.139   7.379
 4336POPC   NC357551  18.905  22.447   5.314
 4336POPC   PO457552  19.174  23.096   5.258
 4336POPC   GL157553  19.116  22.952   5.651
 4336POPC   GL257554  18.787  22.811   5.686
 4336POPC   C1A57555  19.329  23.106   6.015
 4336POPC   D2A57556  19.450  23.328   6.384
 4336POPC   C3A57557  19.489  23.185   6.798
 4336POPC   C4A57558  19.235  23.211   7.178
 4336POPC   C1B57559  18.942  22.765   6.109
 4336POPC   C2B57560  19.211  22.865   6.453
 4336POPC   C3B57561  19.170  22.797   6.870
 4336POPC   C4B57562  18.842  22.861   7.143
 4337POPC   NC357563   3.844  38.506   5.409
 4337POPC   PO457564   4.571  38.488   5.446
 4337POPC   GL157565   4.270  38.536   5.764
 4337POPC   GL257566   4.173  38.178   5.807
 4337POPC   C1A57567   4.147  38.572   6.210
 4337POPC   D2A57568   4.089  38.312   6.595
 4337POPC   C3A57569   4.239  38.416   6.997
 4337POPC   C4A57570   4.206  38.782   7.223
 4337POPC   C1B57571   4.544  38.236   6.101
 4337POPC   C2B57572   4.589  38.194   6.542
 4337POPC   C3B57573   4.426  37.928   6.858
 4337POPC   C4B57574   4.273  37.968   7.291
 4338POPC   NC357575   2.850  14.914   5.467
 4338POPC   PO457576   2.297  15.204   5.280
 4338POPC   GL157577   2.638  15.255   5.753
 4338POPC   GL257578   2.973  15.166   5.884
 4338POPC   C1A57579   2.608  15.096   6.226
 4338POPC   D2A57580   2.827  15.040   6.637
 4338POPC   C3A57581   2.641  15.032   7.036
 4338POPC   C4A57582   2.949  14.859   7.283
 4338POPC   C1B57583   3.053  15.360   6.293
 4338POPC   C2B57584   3.115  15.457   6.724
 4338POPC   C3B57585   3.034  15.345   7.133
 4338POPC   C4B57586   2.833  15.470   7.491
 4339POPC   NC357587  32.165  32.914   5.236
 4339POPC   PO457588  32.612  33.266   5.456
 4339POPC   GL157589  32.431  32.886   5.700
 4339POPC   GL257590  32.092  32.999   5.729
 4339POPC   C1A57591  32.261  32.760   6.152
 4339POPC   D2A57592  32.144  33.003   6.532
 4339POPC   C3A57593  32.275  32.856   6.936
 4339POPC   C4A57594  32.095  32.630   7.250
 4339POPC   C1B57595  31.850  33.130   6.114
 4339POPC   C2B57596  31.641  33.152   6.556
 4339POPC   C3B57597  31.832  33.152   6.973
 4339POPC   C4B57598  32.169  33.313   7.234
 4340POPC   NC357599  40.611   2.861   5.264
 4340POPC   PO457600  40.738   2.214   5.307
 4340POPC   GL157601  40.796   2.553   5.665
 4340POPC   GL257602  40.577   2.856   5.780
 4340POPC   C1A57603  40.816   2.593   6.146
 4340POPC   D2A57604  40.686   2.923   6.463
 4340POPC   C3A57605  40.646   2.802   6.884
 4340POPC   C4A57606  40.702   2.918   7.296
 4340POPC   C1B57607  40.300   2.814   6.162
 4340POPC   C2B57608  40.195   2.888   6.644
 4340POPC   C3B57609  40.208   2.998   7.113
 4340POPC   C4B57610  40.272   2.975   7.587
 4341POPC   NC357611  18.549  43.413   5.436
 4341POPC   PO457612  18.265  44.070   5.441
 4341POPC   GL157613  18.196  43.995   5.841
 4341POPC   GL257614  18.384  43.694   5.849
 4341POPC   C1A57615  18.136  43.882   6.281
 4341POPC   D2A57616  18.286  43.929   6.686
 4341POPC   C3A57617  18.062  43.979   7.086
 4341POPC   C4A57618  18.100  44.213   7.467
 4341POPC   C1B57619  18.636  43.706   6.233
 4341POPC   C2B57620  18.589  43.515   6.644
 4341POPC   C3B57621  18.676  43.573   7.083
 4341POPC   C4B57622  18.455  43.831   7.407
 4342POPC   NC357623  14.427  27.747   5.323
 4342POPC   PO457624  14.388  27.196   5.711
 4342POPC   GL157625  14.472  27.635   5.874
 4342POPC   GL257626  14.513  27.970   5.814
 4342POPC   C1A57627  14.533  27.721   6.284
 4342POPC   D2A57628  14.241  27.656   6.602
 4342POPC   C3A57629  14.446  27.506   6.969
 4342POPC   C4A57630  14.423  27.366   7.395
 4342POPC   C1B57631  14.712  28.179   6.161
 4342POPC   C2B57632  14.831  28.050   6.587
 4342POPC   C3B57633  14.807  27.927   7.021
 4342POPC   C4B57634  14.553  27.916   7.392
 4343POPC   NC357635  10.652  41.746   5.490
 4343POPC   PO457636  10.049  41.578   5.259
 4343POPC   GL157637  10.301  41.471   5.703
 4343POPC   GL257638  10.367  41.788   5.915
 4343POPC   C1A57639  10.373  41.341   6.173
 4343POPC   D2A57640  10.665  41.295   6.554
 4343POPC   C3A57641  10.505  41.464   6.966
 4343POPC   C4A57642  10.238  41.836   7.084
 4343POPC   C1B57643  10.774  41.652   6.155
 4343POPC   C2B57644  10.980  41.713   6.581
 4343POPC   C3B57645  11.016  41.440   6.931
 4343POPC   C4B57646  10.858  41.464   7.357
 4344POPC   NC357647  42.734   1.183   5.515
 4344POPC   PO457648  42.077   1.416   5.424
 4344POPC   GL157649  42.188   1.355   5.865
 4344POPC   GL257650  42.348   1.066   5.864
 4344POPC   C1A57651  42.324   1.389   6.317
 4344POPC   D2A57652  42.262   1.703   6.667
 4344POPC   C3A57653  42.399   1.578   7.056
 4344POPC   C4A57654  42.373   1.195   7.199
 4344POPC   C1B57655  42.244   0.896   6.235
 4344POPC   C2B57656  42.348   0.996   6.671
 4344POPC   C3B57657  42.397   0.724   7.017
 4344POPC   C4B57658  42.384   0.772   7.482
 4345POPC   NC357659  10.311  21.803   5.211
 4345POPC   PO457660  10.218  21.184   5.381
 4345POPC   GL157661  10.467  21.212   5.797
 4345POPC   GL257662  10.217  21.469   5.847
 4345POPC   C1A57663  10.715  21.228   6.242
 4345POPC   D2A57664  10.513  21.093   6.657
 4345POPC   C3A57665  10.613  21.353   7.021
 4345POPC   C4A57666  10.959  21.554   7.217
 4345POPC   C1B57667  10.254  21.391   6.261
 4345POPC   C2B57668  10.430  21.594   6.587
 4345POPC   C3B57669  10.177  21.682   6.936
 4345POPC   C4B57670  10.240  21.521   7.355
 4346POPC   NC357671  11.599   8.778   5.530
 4346POPC   PO457672  11.177   9.302   5.421
 4346POPC   GL157673  11.388   9.189   5.781
 4346POPC   GL257674  11.605   9.454   5.807
 4346POPC   C1A57675  11.300   8.975   6.182
 4346POPC   D2A57676  11.183   9.190   6.556
 4346POPC   C3A57677  11.268   9.072   6.978
 4346POPC   C4A57678  11.102   8.862   7.317
 4346POPC   C1B57679  11.569   9.425   6.249
 4346POPC   C2B57680  11.727   9.150   6.574
 4346POPC   C3B57681  11.743   9.253   6.989
 4346POPC   C4B57682  11.464   9.485   7.261
 4347POPC   NC357683   3.010   7.730   5.314
 4347POPC   PO457684   2.530   7.224   5.513
 4347POPC   GL157685   2.573   7.447   5.858
 4347POPC   GL257686   2.907   7.474   5.761
 4347POPC   C1A57687   2.628   7.340   6.284
 4347POPC   D2A57688   2.884   7.192   6.612
 4347POPC   C3A57689   2.679   7.232   6.996
 4347POPC   C4A57690   2.672   6.989   7.325
 4347POPC   C1B57691   3.123   7.456   6.135
 4347POPC   C2B57692   3.069   7.676   6.530
 4347POPC   C3B57693   3.021   7.600   6.947
 4347POPC   C4B57694   2.730   7.664   7.293
 4348POPC   NC357695  24.588  36.533   5.156
 4348POPC   PO457696  24.347  37.075   5.579
 4348POPC   GL157697  24.617  37.182   5.874
 4348POPC   GL257698  24.418  36.908   6.072
 4348POPC   C1A57699  24.862  37.081   6.237
 4348POPC   D2A57700  24.675  36.870   6.577
 4348POPC   C3A57701  24.622  37.018   6.990
 4348POPC   C4A57702  24.579  36.861   7.406
 4348POPC   C1B57703  24.222  36.464   6.108
 4348POPC   C2B57704  24.337  36.256   6.484
 4348POPC   C3B57705  24.408  36.497   6.872
 4348POPC   C4B57706  24.127  36.547   7.233
 4349POPC   NC357707   0.138   8.725   5.558
 4349POPC   PO457708   0.698   9.019   5.465
 4349POPC   GL157709   0.445   9.017   5.847
 4349POPC   GL257710   0.078   9.133   5.888
 4349POPC   C1A57711   0.473   8.854   6.242
 4349POPC   D2A57712   0.595   9.064   6.592
 4349POPC   C3A57713   0.612   8.800   6.922
 4349POPC   C4A57714   0.375   8.852   7.298
 4349POPC   C1B57715   0.152   9.240   6.354
 4349POPC   C2B57716   0.177   9.320   6.792
 4349POPC   C3B57717   0.103   9.310   7.241
 4349POPC   C4B57718   0.020   9.290   7.707
 4350POPC   NC357719   5.954  28.130   5.191
 4350POPC   PO457720   6.206  28.737   5.450
 4350POPC   GL157721   5.973  28.495   5.740
 4350POPC   GL257722   6.117  28.153   5.735
 4350POPC   C1A57723   5.631  28.313   6.069
 4350POPC   D2A57724   5.423  28.203   6.505
 4350POPC   C3A57725   5.668  28.284   6.914
 4350POPC   C4A57726   5.803  28.179   7.292
 4350POPC   C1B57727   6.132  28.317   6.175
 4350POPC   C2B57728   6.133  28.511   6.601
 4350POPC   C3B57729   6.165  28.411   7.030
 4350POPC   C4B57730   6.427  28.458   7.363
 4351POPC   NC357731  39.549  14.906   5.160
 4351POPC   PO457732  38.981  15.238   5.287
 4351POPC   GL157733  38.996  15.259   5.733
 4351POPC   GL257734  39.342  15.336   5.832
 4351POPC   C1A57735  38.849  15.431   6.121
 4351POPC   D2A57736  38.907  15.352   6.555
 4351POPC   C3A57737  38.800  15.420   6.955
 4351POPC   C4A57738  38.987  15.192   7.232
 4351POPC   C1B57739  39.323  15.312   6.277
 4351POPC   C2B57740  39.421  15.060   6.620
 4351POPC   C3B57741  39.452  15.112   7.055
 4351POPC   C4B57742  39.710  15.063   7.398
 4352POPC   NC357743  15.996   7.497   5.484
 4352POPC   PO457744  15.612   6.968   5.297
 4352POPC   GL157745  15.750   7.096   5.721
 4352POPC   GL257746  16.069   7.040   5.763
 4352POPC   C1A57747  15.742   7.340   6.143
 4352POPC   D2A57748  15.867   7.267   6.577
 4352POPC   C3A57749  15.850   7.580   6.918
 4352POPC   C4A57750  15.745   7.496   7.317
 4352POPC   C1B57751  16.237   7.172   6.177
 4352POPC   C2B57752  16.378   7.328   6.576
 4352POPC   C3B57753  16.259   7.297   6.996
 4352POPC   C4B57754  16.027   7.065   7.292
 4353POPC   NC357755  25.188  32.675   5.549
 4353POPC   PO457756  25.314  33.328   5.383
 4353POPC   GL157757  25.074  33.138   5.740
 4353POPC   GL257758  24.739  33.057   5.646
 4353POPC   C1A57759  25.211  32.951   6.175
 4353POPC   D2A57760  25.172  32.778   6.608
 4353POPC   C3A57761  25.340  33.026   6.924
 4353POPC   C4A57762  25.538  32.878   7.298
 4353POPC   C1B57763  24.698  33.078   6.110
 4353POPC   C2B57764  24.686  32.829   6.492
 4353POPC   C3B57765  24.721  32.958   6.928
 4353POPC   C4B57766  24.983  32.999   7.289
 4354POPC   NC357767  40.792  23.939   5.259
 4354POPC   PO457768  40.266  23.472   5.302
 4354POPC   GL157769  40.509  23.472   5.712
 4354POPC   GL257770  40.756  23.744   5.771
 4354POPC   C1A57771  40.668  23.414   6.158
 4354POPC   D2A57772  40.948  23.313   6.494
 4354POPC   C3A57773  40.798  23.407   6.904
 4354POPC   C4A57774  40.592  23.761   6.961
 4354POPC   C1B57775  41.020  23.772   6.176
 4354POPC   C2B57776  40.913  23.964   6.573
 4354POPC   C3B57777  41.083  23.996   6.979
 4354POPC   C4B57778  41.236  23.650   7.181
 4355POPC   NC357779  35.433  35.428   5.186
 4355POPC   PO457780  34.887  35.195   5.381
 4355POPC   GL157781  35.263  35.156   5.714
 4355POPC   GL257782  35.580  35.386   5.722
 4355POPC   C1A57783  35.270  35.199   6.206
 4355POPC   D2A57784  35.304  35.277   6.690
 4355POPC   C3A57785  35.167  35.432   7.121
 4355POPC   C4A57786  35.068  35.293   7.552
 4355POPC   C1B57787  35.759  35.346   6.178
 4355POPC   C2B57788  35.753  35.528   6.622
 4355POPC   C3B57789  35.562  35.743   6.993
 4355POPC   C4B57790  35.285  35.898   7.345
 4356POPC   NC357791  11.719  11.888   5.374
 4356POPC   PO457792  11.058  11.852   5.293
 4356POPC   GL157793  11.162  11.825   5.749
 4356POPC   GL257794  11.516  11.802   5.830
 4356POPC   C1A57795  10.987  11.955   6.172
 4356POPC   D2A57796  11.003  12.203   6.563
 4356POPC   C3A57797  10.985  11.985   6.960
 4356POPC   C4A57798  11.362  12.147   7.098
 4356POPC   C1B57799  11.513  11.929   6.258
 4356POPC   C2B57800  11.339  11.791   6.628
 4356POPC   C3B57801  11.489  11.661   7.017
 4356POPC   C4B57802  11.497  11.830   7.461
 4357POPC   NC357803  28.007  23.164   5.237
 4357POPC   PO457804  28.587  22.805   5.308
 4357POPC   GL157805  28.374  22.999   5.670
 4357POPC   GL257806  28.551  23.301   5.747
 4357POPC   C1A57807  28.213  22.905   6.109
 4357POPC   D2A57808  28.122  23.070   6.556
 4357POPC   C3A57809  28.205  22.725   6.847
 4357POPC   C4A57810  28.221  22.422   7.171
 4357POPC   C1B57811  28.365  23.371   6.185
 4357POPC   C2B57812  28.502  23.461   6.603
 4357POPC   C3B57813  28.600  23.299   7.010
 4357POPC   C4B57814  28.340  23.062   7.221
 4358POPC   NC357815  44.769  39.185   5.333
 4358POPC   PO457816  44.098  38.951   5.576
 4358POPC   GL157817  44.487  39.156   5.774
 4358POPC   GL257818  44.856  39.026   5.793
 4358POPC   C1A57819  44.604  39.144   6.233
 4358POPC   D2A57820  44.494  38.941   6.642
 4358POPC   C3A57821  44.605  39.149   7.060
 4358POPC   C4A57822  44.623  39.166   7.548
 4358POPC   C1B57823   0.002  38.836   6.144
 4358POPC   C2B57824   0.001  38.978   6.568
 4358POPC   C3B57825  44.888  38.737   6.899
 4358POPC   C4B57826  44.928  38.844   7.280
 4359POPC   NC357827  13.846  13.859   5.350
 4359POPC   PO457828  13.498  13.349   5.476
 4359POPC   GL157829  13.681  13.627   5.784
 4359POPC   GL257830  13.350  13.689   5.883
 4359POPC   C1A57831  13.781  13.773   6.220
 4359POPC   D2A57832  13.838  13.539   6.601
 4359POPC   C3A57833  13.700  13.765   6.965
 4359POPC   C4A57834  13.997  13.821   7.286
 4359POPC   C1B57835  13.504  13.347   6.176
 4359POPC   C2B57836  13.475  13.165   6.557
 4359POPC   C3B57837  13.491  13.300   6.974
 4359POPC   C4B57838  13.367  13.460   7.381
 4360POPC   NC357839  42.429  25.524   5.418
 4360POPC   PO457840  42.252  24.929   5.443
 4360POPC   GL157841  42.275  25.164   5.768
 4360POPC   GL257842  42.599  25.093   5.789
 4360POPC   C1A57843  42.156  25.193   6.197
 4360POPC   D2A57844  41.999  25.153   6.606
 4360POPC   C3A57845  42.248  25.243   6.917
 4360POPC   C4A57846  42.266  25.015   7.277
 4360POPC   C1B57847  42.586  25.442   6.097
 4360POPC   C2B57848  42.670  25.371   6.523
 4360POPC   C3B57849  42.657  25.554   6.909
 4360POPC   C4B57850  42.674  25.321   7.255
 4361POPC   NC357851  17.277  28.102   5.476
 4361POPC   PO457852  17.359  27.506   5.254
 4361POPC   GL157853  17.455  27.641   5.661
 4361POPC   GL257854  17.641  27.340   5.723
 4361POPC   C1A57855  17.382  27.641   6.113
 4361POPC   D2A57856  17.472  27.471   6.549
 4361POPC   C3A57857  17.303  27.615   6.954
 4361POPC   C4A57858  17.459  27.780   7.345
 4361POPC   C1B57859  17.831  27.372   6.144
 4361POPC   C2B57860  17.925  27.205   6.568
 4361POPC   C3B57861  17.742  27.285   6.987
 4361POPC   C4B57862  17.437  27.266   7.337
 4362POPC   NC357863   3.772  36.252   5.442
 4362POPC   PO457864   3.160  35.991   5.385
 4362POPC   GL157865   3.389  36.115   5.773
 4362POPC   GL257866   3.685  35.897   5.797
 4362POPC   C1A57867   3.630  36.265   6.163
 4362POPC   D2A57868   3.559  36.420   6.581
 4362POPC   C3A57869   3.499  36.276   7.001
 4362POPC   C4A57870   3.206  36.244   7.380
 4362POPC   C1B57871   3.408  35.812   6.202
 4362POPC   C2B57872   3.514  35.914   6.647
 4362POPC   C3B57873   3.752  35.832   7.074
 4362POPC   C4B57874   3.776  35.768   7.566
 4363POPC   NC357875  12.703  25.752   5.545
 4363POPC   PO457876  13.067  26.331   5.268
 4363POPC   GL157877  13.030  26.103   5.731
 4363POPC   GL257878  12.644  26.048   5.935
 4363POPC   C1A57879  13.041  26.023   6.215
 4363POPC   D2A57880  12.684  25.893   6.502
 4363POPC   C3A57881  12.779  25.806   6.935
 4363POPC   C4A57882  13.005  26.163   7.086
 4363POPC   C1B57883  12.400  26.346   6.163
 4363POPC   C2B57884  12.392  26.506   6.591
 4363POPC   C3B57885  12.504  26.271   6.965
 4363POPC   C4B57886  12.620  26.236   7.424
 4364POPC   NC357887   5.727  37.344   5.414
 4364POPC   PO457888   6.369  37.041   5.297
 4364POPC   GL157889   6.079  36.981   5.711
 4364POPC   GL257890   5.725  36.866   5.702
 4364POPC   C1A57891   5.972  36.914   6.159
 4364POPC   D2A57892   5.942  37.122   6.529
 4364POPC   C3A57893   6.104  36.954   6.869
 4364POPC   C4A57894   6.179  36.898   7.280
 4364POPC   C1B57895   5.524  37.125   6.043
 4364POPC   C2B57896   5.397  37.074   6.473
 4364POPC   C3B57897   5.569  37.093   6.896
 4364POPC   C4B57898   5.707  37.115   7.315
 4365POPC   NC357899  26.448   5.109   5.415
 4365POPC   PO457900  25.839   5.243   5.534
 4365POPC   GL157901  26.126   5.060   5.852
 4365POPC   GL257902  26.390   4.800   5.858
 4365POPC   C1A57903  26.154   5.020   6.289
 4365POPC   D2A57904  25.986   5.236   6.592
 4365POPC   C3A57905  26.008   4.975   6.919
 4365POPC   C4A57906  26.068   5.076   7.338
 4365POPC   C1B57907  26.483   4.627   6.267
 4365POPC   C2B57908  26.554   4.789   6.681
 4365POPC   C3B57909  26.403   4.703   7.106
 4365POPC   C4B57910  26.444   4.643   7.563
 4366POPC   NC357911  29.242   9.781   5.431
 4366POPC   PO457912  28.596   9.636   5.376
 4366POPC   GL157913  28.791   9.804   5.728
 4366POPC   GL257914  28.973   9.529   5.882
 4366POPC   C1A57915  28.972   9.976   6.108
 4366POPC   D2A57916  29.135   9.902   6.509
 4366POPC   C3A57917  28.945   9.937   6.894
 4366POPC   C4A57918  29.185   9.878   7.254
 4366POPC   C1B57919  28.749   9.563   6.311
 4366POPC   C2B57920  28.932   9.441   6.740
 4366POPC   C3B57921  28.826   9.514   7.191
 4366POPC   C4B57922  28.759   9.404   7.626
 4367POPC   NC357923   7.981   4.437   5.298
 4367POPC   PO457924   8.593   4.883   5.475
 4367POPC   GL157925   8.379   4.502   5.703
 4367POPC   GL257926   8.210   4.163   5.661
 4367POPC   C1A57927   8.225   4.379   6.142
 4367POPC   D2A57928   8.441   4.281   6.545
 4367POPC   C3A57929   8.338   4.493   6.937
 4367POPC   C4A57930   7.950   4.679   7.121
 4367POPC   C1B57931   8.064   3.921   6.011
 4367POPC   C2B57932   8.080   3.917   6.465
 4367POPC   C3B57933   7.967   4.169   6.808
 4367POPC   C4B57934   8.090   4.157   7.237
 4368POPC   NC357935  27.218  43.276   5.520
 4368POPC   PO457936  26.450  43.191   5.437
 4368POPC   GL157937  26.671  43.053   5.842
 4368POPC   GL257938  27.017  43.149   5.963
 4368POPC   C1A57939  26.610  43.078   6.302
 4368POPC   D2A57940  26.543  43.307   6.670
 4368POPC   C3A57941  26.447  43.032   6.995
 4368POPC   C4A57942  26.554  42.928   7.403
 4368POPC   C1B57943  27.262  43.449   6.241
 4368POPC   C2B57944  27.059  43.371   6.689
 4368POPC   C3B57945  26.856  43.328   7.126
 4368POPC   C4B57946  27.149  43.471   7.457
 4369POPC   NC357947  43.839  24.045   5.438
 4369POPC   PO457948  43.663  23.504   5.633
 4369POPC   GL157949  43.751  23.808   5.963
 4369POPC   GL257950  43.565  24.078   5.888
 4369POPC   C1A57951  43.610  23.847   6.416
 4369POPC   D2A57952  43.480  23.610   6.795
 4369POPC   C3A57953  43.816  23.347   6.999
 4369POPC   C4A57954  43.906  23.340   7.473
 4369POPC   C1B57955  43.663  24.339   6.206
 4369POPC   C2B57956  43.917  24.232   6.589
 4369POPC   C3B57957  43.937  23.865   6.855
 4369POPC   C4B57958  43.726  23.776   7.234
 4370POPC   NC357959  17.304   5.695   5.425
 4370POPC   PO457960  17.651   6.144   5.732
 4370POPC   GL157961  17.634   5.710   5.916
 4370POPC   GL257962  17.281   5.694   5.939
 4370POPC   C1A57963  17.537   5.600   6.368
 4370POPC   D2A57964  17.451   5.870   6.744
 4370POPC   C3A57965  17.641   5.840   7.166
 4370POPC   C4A57966  17.787   5.828   7.588
 4370POPC   C1B57967  17.014   5.576   6.270
 4370POPC   C2B57968  17.169   5.431   6.675
 4370POPC   C3B57969  17.198   5.580   7.076
 4370POPC   C4B57970  16.874   5.463   7.288
 4371POPC   NC357971  40.327  43.299   5.448
 4371POPC   PO457972  39.801  42.786   5.453
 4371POPC   GL157973  39.804  43.070   5.823
 4371POPC   GL257974  40.122  43.122   5.899
 4371POPC   C1A57975  39.750  43.264   6.208
 4371POPC   D2A57976  39.984  43.069   6.521
 4371POPC   C3A57977  39.890  43.124   6.950
 4371POPC   C4A57978  39.861  42.759   7.196
 4371POPC   C1B57979  40.235  43.464   6.215
 4371POPC   C2B57980  40.417  43.416   6.619
 4371POPC   C3B57981  40.249  43.524   6.994
 4371POPC   C4B57982  40.092  43.425   7.382
 4372POPC   NC357983   2.447  36.854   5.081
 4372POPC   PO457984   3.074  36.774   5.148
 4372POPC   GL157985   2.930  36.785   5.612
 4372POPC   GL257986   2.566  36.662   5.585
 4372POPC   C1A57987   3.029  37.033   6.020
 4372POPC   D2A57988   2.820  37.172   6.403
 4372POPC   C3A57989   2.883  37.029   6.851
 4372POPC   C4A57990   3.010  37.122   7.295
 4372POPC   C1B57991   2.642  36.722   6.036
 4372POPC   C2B57992   2.687  36.659   6.485
 4372POPC   C3B57993   2.566  36.575   6.906
 4372POPC   C4B57994   2.428  36.540   7.321
 4373POPC   NC357995  24.974  25.459   5.337
 4373POPC   PO457996  24.249  25.375   5.481
 4373POPC   GL157997  24.482  25.307   5.867
 4373POPC   GL257998  24.828  25.433   5.855
 4373POPC   C1A57999  24.513  25.320   6.317
 4373POPC   D2A58000  24.500  24.942   6.549
 4373POPC   C3A58001  24.354  25.059   6.952
 4373POPC   C4A58002  24.469  25.509   7.111
 4373POPC   C1B58003  24.832  25.703   6.224
 4373POPC   C2B58004  24.739  25.725   6.676
 4373POPC   C3B58005  25.017  25.650   7.013
 4373POPC   C4B58006  25.153  25.495   7.380
 4374POPC   NC358007  10.001  35.060   5.512
 4374POPC   PO458008   9.570  35.372   5.385
 4374POPC   GL158009   9.609  35.446   5.834
 4374POPC   GL258010   9.898  35.279   5.990
 4374POPC   C1A58011   9.572  35.574   6.278
 4374POPC   D2A58012   9.660  35.340   6.672
 4374POPC   C3A58013   9.653  35.519   7.103
 4374POPC   C4A58014   9.739  35.519   7.557
 4374POPC   C1B58015  10.096  35.521   6.347
 4374POPC   C2B58016  10.111  35.544   6.820
 4374POPC   C3B58017  10.118  35.276   7.195
 4374POPC   C4B58018  10.195  35.279   7.648
 4375POPC   NC358019   2.337  15.589   5.552
 4375POPC   PO458020   2.811  16.035   5.491
 4375POPC   GL158021   2.687  15.960   5.911
 4375POPC   GL258022   2.896  15.678   5.874
 4375POPC   C1A58023   2.677  15.757   6.345
 4375POPC   D2A58024   2.586  15.510   6.720
 4375POPC   C3A58025   2.738  15.744   7.070
 4375POPC   C4A58026   2.555  15.888   7.470
 4375POPC   C1B58027   3.150  15.836   6.184
 4375POPC   C2B58028   3.298  15.920   6.592
 4375POPC   C3B58029   3.230  15.855   7.044
 4375POPC   C4B58030   3.046  15.969   7.437
 4376POPC   NC358031  41.913  36.174   5.498
 4376POPC   PO458032  42.438  35.833   5.465
 4376POPC   GL158033  42.303  36.059   5.836
 4376POPC   GL258034  42.211  36.464   5.807
 4376POPC   C1A58035  42.115  35.768   6.158
 4376POPC   D2A58036  42.127  35.505   6.537
 4376POPC   C3A58037  42.241  35.743   6.891
 4376POPC   C4A58038  42.325  35.998   7.228
 4376POPC   C1B58039  41.945  36.276   6.140
 4376POPC   C2B58040  42.000  36.100   6.550
 4376POPC   C3B58041  42.217  36.330   6.858
 4376POPC   C4B58042  42.080  36.447   7.256
 4377POPC   NC358043  41.981  28.420   5.300
 4377POPC   PO458044  41.275  28.513   5.243
 4377POPC   GL158045  41.427  28.399   5.672
 4377POPC   GL258046  41.749  28.466   5.750
 4377POPC   C1A58047  41.416  28.473   6.141
 4377POPC   D2A58048  41.702  28.446   6.502
 4377POPC   C3A58049  41.513  28.403   6.894
 4377POPC   C4A58050  41.500  28.210   7.298
 4377POPC   C1B58051  41.794  28.136   6.091
 4377POPC   C2B58052  41.670  27.917   6.490
 4377POPC   C3B58053  41.823  27.980   6.916
 4377POPC   C4B58054  42.012  27.942   7.325
 4378POPC   NC358055  35.554  42.658   5.249
 4378POPC   PO458056  36.160  42.306   5.411
 4378POPC   GL158057  36.023  42.268   5.801
 4378POPC   GL258058  35.802  42.585   5.861
 4378POPC   C1A58059  36.254  42.028   6.101
 4378POPC   D2A58060  36.541  42.037   6.455
 4378POPC   C3A58061  36.288  42.078   6.823
 4378POPC   C4A58062  36.354  42.273   7.207
 4378POPC   C1B58063  35.970  42.458   6.269
 4378POPC   C2B58064  36.349  42.546   6.519
 4378POPC   C3B58065  36.326  42.706   6.937
 4378POPC   C4B58066  35.945  42.643   7.186
 4379POPC   NC358067  10.254   5.707   5.448
 4379POPC   PO458068  10.921   5.830   5.292
 4379POPC   GL158069  10.673   5.913   5.756
 4379POPC   GL258070  10.662   6.284   5.914
 4379POPC   C1A58071  10.604   5.879   6.245
 4379POPC   D2A58072  10.429   5.685   6.646
 4379POPC   C3A58073  10.588   5.674   7.076
 4379POPC   C4A58074  10.561   5.373   7.441
 4379POPC   C1B58075  10.256   6.259   6.159
 4379POPC   C2B58076  10.161   6.114   6.593
 4379POPC   C3B58077  10.156   6.069   7.052
 4379POPC   C4B58078  10.255   6.227   7.484
 4380POPC   NC358079  18.672   2.376   5.420
 4380POPC   PO458080  18.140   2.787   5.282
 4380POPC   GL158081  18.144   2.794   5.744
 4380POPC   GL258082  18.402   2.534   5.851
 4380POPC   C1A58083  18.179   2.882   6.197
 4380POPC   D2A58084  17.975   3.105   6.571
 4380POPC   C3A58085  18.188   2.939   6.939
 4380POPC   C4A58086  18.148   2.505   7.056
 4380POPC   C1B58087  18.642   2.513   6.240
 4380POPC   C2B58088  18.494   2.546   6.668
 4380POPC   C3B58089  18.662   2.422   7.078
 4380POPC   C4B58090  18.626   2.484   7.545
 4381POPC   NC358091  25.395  23.865   5.517
 4381POPC   PO458092  25.254  23.205   5.392
 4381POPC   GL158093  25.032  23.386   5.798
 4381POPC   GL258094  24.932  23.756   5.837
 4381POPC   C1A58095  25.166  23.499   6.236
 4381POPC   D2A58096  25.327  23.387   6.662
 4381POPC   C3A58097  25.206  23.567   7.073
 4381POPC   C4A58098  25.425  23.477   7.471
 4381POPC   C1B58099  24.945  23.967   6.270
 4381POPC   C2B58100  25.019  23.976   6.741
 4381POPC   C3B58101  24.909  24.053   7.182
 4381POPC   C4B58102  25.030  24.235   7.610
 4382POPC   NC358103  18.768  36.500   5.440
 4382POPC   PO458104  19.253  36.009   5.187
 4382POPC   GL158105  19.195  36.240   5.663
 4382POPC   GL258106  18.954  36.398   5.903
 4382POPC   C1A58107  19.247  36.056   6.116
 4382POPC   D2A58108  19.349  35.998   6.550
 4382POPC   C3A58109  19.264  36.179   6.956
 4382POPC   C4A58110  19.250  35.909   7.262
 4382POPC   C1B58111  18.926  36.365   6.368
 4382POPC   C2B58112  18.643  36.458   6.696
 4382POPC   C3B58113  18.757  36.207   7.012
 4382POPC   C4B58114  18.833  36.191   7.427
 4383POPC   NC358115  26.024  30.210   5.345
 4383POPC   PO458116  25.948  29.533   5.418
 4383POPC   GL158117  25.906  29.909   5.749
 4383POPC   GL258118  26.232  30.090   5.835
 4383POPC   C1A58119  25.847  30.202   6.141
 4383POPC   D2A58120  26.115  30.265   6.523
 4383POPC   C3A58121  25.906  30.375   6.904
 4383POPC   C4A58122  25.763  30.126   7.279
 4383POPC   C1B58123  26.242  29.854   6.215
 4383POPC   C2B58124  26.122  29.673   6.598
 4383POPC   C3B58125  26.111  29.894   6.979
 4383POPC   C4B58126  26.069  29.719   7.382
 4384POPC   NC358127  42.197  35.377   5.479
 4384POPC   PO458128  42.740  34.982   5.492
 4384POPC   GL158129  42.491  35.123   5.821
 4384POPC   GL258130  42.147  35.054   5.868
 4384POPC   C1A58131  42.461  35.320   6.203
 4384POPC   D2A58132  42.728  35.272   6.546
 4384POPC   C3A58133  42.711  35.529   6.897
 4384POPC   C4A58134  42.596  35.490   7.270
 4384POPC   C1B58135  42.064  34.928   6.256
 4384POPC   C2B58136  42.311  34.984   6.594
 4384POPC   C3B58137  42.301  35.192   6.967
 4384POPC   C4B58138  42.008  35.089   7.279
 4385POPC   NC358139  23.008  41.379   5.407
 4385POPC   PO458140  22.824  42.074   5.480
 4385POPC   GL158141  22.840  41.736   5.804
 4385POPC   GL258142  23.136  41.532   5.900
 4385POPC   C1A58143  22.654  41.625   6.217
 4385POPC   D2A58144  22.454  41.428   6.583
 4385POPC   C3A58145  22.779  41.378   6.897
 4385POPC   C4A58146  23.128  41.619   7.061
 4385POPC   C1B58147  23.152  41.378   6.340
 4385POPC   C2B58148  23.220  41.152   6.761
 4385POPC   C3B58149  23.141  41.053   7.208
 4385POPC   C4B58150  23.059  41.097   7.655
 4386POPC   NC358151   0.014  13.467   5.347
 4386POPC   PO458152  44.340  13.713   5.310
 4386POPC   GL158153  44.569  13.703   5.662
 4386POPC   GL258154  44.517  14.018   5.861
 4386POPC   C1A58155  44.636  13.567   6.085
 4386POPC   D2A58156  44.528  13.502   6.521
 4386POPC   C3A58157  44.893  13.458   6.777
 4386POPC   C4A58158   0.032  13.502   7.197
 4386POPC   C1B58159  44.380  13.964   6.294
 4386POPC   C2B58160  44.420  14.010   6.727
 4386POPC   C3B58161  44.707  13.854   7.030
 4386POPC   C4B58162  44.582  13.688   7.431
 4387POPC   NC358163   3.013  37.205   5.352
 4387POPC   PO458164   2.862  37.790   5.498
 4387POPC   GL158165   2.711  37.701   5.909
 4387POPC   GL258166   2.631  37.346   5.886
 4387POPC   C1A58167   2.737  37.971   6.272
 4387POPC   D2A58168   2.867  38.171   6.671
 4387POPC   C3A58169   2.703  37.940   7.013
 4387POPC   C4A58170   2.666  37.813   7.440
 4387POPC   C1B58171   2.341  37.259   6.248
 4387POPC   C2B58172   2.466  37.450   6.662
 4387POPC   C3B58173   2.623  37.424   7.083
 4387POPC   C4B58174   2.505  37.037   7.262
 4388POPC   NC358175  22.541  24.530   5.424
 4388POPC   PO458176  22.006  24.835   5.235
 4388POPC   GL158177  22.075  24.632   5.697
 4388POPC   GL258178  22.146  24.270   5.682
 4388POPC   C1A58179  21.990  24.723   6.174
 4388POPC   D2A58180  22.000  24.484   6.597
 4388POPC   C3A58181  22.160  24.538   7.027
 4388POPC   C4A58182  22.480  24.776   7.204
 4388POPC   C1B58183  22.199  24.251   6.124
 4388POPC   C2B58184  22.484  24.379   6.463
 4388POPC   C3B58185  22.637  24.407   6.880
 4388POPC   C4B58186  22.570  24.234   7.283
 4389POPC   NC358187  22.571  18.971   5.418
 4389POPC   PO458188  23.181  18.717   5.681
 4389POPC   GL158189  22.958  19.038   5.910
 4389POPC   GL258190  22.655  19.260   5.847
 4389POPC   C1A58191  22.662  18.952   6.248
 4389POPC   D2A58192  22.644  18.768   6.664
 4389POPC   C3A58193  23.070  18.775   6.854
 4389POPC   C4A58194  23.252  18.877   7.311
 4389POPC   C1B58195  22.871  19.417   6.234
 4389POPC   C2B58196  22.905  19.236   6.628
 4389POPC   C3B58197  23.055  19.253   7.017
 4389POPC   C4B58198  22.866  19.227   7.407
 4390POPC   NC358199   6.231  34.677   5.390
 4390POPC   PO458200   5.679  34.687   5.186
 4390POPC   GL158201   5.716  34.550   5.652
 4390POPC   GL258202   5.875  34.213   5.770
 4390POPC   C1A58203   5.914  34.645   6.063
 4390POPC   D2A58204   5.946  34.484   6.479
 4390POPC   C3A58205   5.987  34.795   6.842
 4390POPC   C4A58206   5.604  34.989   7.072
 4390POPC   C1B58207   5.588  34.180   6.149
 4390POPC   C2B58208   5.521  34.202   6.615
 4390POPC   C3B58209   5.770  34.372   6.961
 4390POPC   C4B58210   6.180  34.427   7.203
 4391POPC   NC358211  25.391   4.112   5.444
 4391POPC   PO458212  25.101   4.640   5.643
 4391POPC   GL158213  25.237   4.306   5.901
 4391POPC   GL258214  25.527   4.450   5.998
 4391POPC   C1A58215  25.295   4.146   6.328
 4391POPC   D2A58216  25.279   4.345   6.724
 4391POPC   C3A58217  25.384   4.266   7.123
 4391POPC   C4A58218  25.152   4.144   7.500
 4391POPC   C1B58219  25.269   4.668   6.303
 4391POPC   C2B58220  25.131   4.820   6.717
 4391POPC   C3B58221  25.082   4.682   7.162
 4391POPC   C4B58222  25.368   4.598   7.535
 4392POPC   NC358223  21.548  19.331   5.201
 4392POPC   PO458224  21.326  18.749   5.422
 4392POPC   GL158225  21.432  19.118   5.693
 4392POPC   GL258226  21.091  19.167   5.804
 4392POPC   C1A58227  21.445  19.266   6.151
 4392POPC   D2A58228  21.264  19.160   6.570
 4392POPC   C3A58229  21.516  19.189   6.959
 4392POPC   C4A58230  21.366  19.233   7.398
 4392POPC   C1B58231  21.238  18.798   6.090
 4392POPC   C2B58232  21.440  18.655   6.463
 4392POPC   C3B58233  21.328  18.632   6.886
 4392POPC   C4B58234  21.479  18.770   7.254
 4393POPC   NC358235  31.262   3.478   5.351
 4393POPC   PO458236  31.662   3.936   5.600
 4393POPC   GL158237  31.461   3.656   5.851
 4393POPC   GL258238  31.534   3.303   5.812
 4393POPC   C1A58239  31.483   3.613   6.283
 4393POPC   D2A58240  31.265   3.726   6.634
 4393POPC   C3A58241  31.571   3.681   6.951
 4393POPC   C4A58242  31.483   3.810   7.339
 4393POPC   C1B58243  31.401   3.106   6.224
 4393POPC   C2B58244  31.219   3.230   6.669
 4393POPC   C3B58245  31.181   3.390   7.109
 4393POPC   C4B58246  31.486   3.315   7.434
 4394POPC   NC358247  30.671  41.119   5.488
 4394POPC   PO458248  30.297  40.545   5.394
 4394POPC   GL158249  30.481  40.721   5.802
 4394POPC   GL258250  30.825  40.818   5.862
 4394POPC   C1A58251  30.479  40.905   6.242
 4394POPC   D2A58252  30.717  40.926   6.625
 4394POPC   C3A58253  30.600  40.962   7.065
 4394POPC   C4A58254  30.733  40.804   7.491
 4394POPC   C1B58255  30.856  40.577   6.221
 4394POPC   C2B58256  31.021  40.517   6.644
 4394POPC   C3B58257  31.007  40.622   7.088
 4394POPC   C4B58258  31.241  40.732   7.499
 4395POPC   NC358259  22.370  33.914   5.054
 4395POPC   PO458260  21.864  33.584   5.422
 4395POPC   GL158261  21.982  33.823   5.768
 4395POPC   GL258262  22.234  33.652   5.946
 4395POPC   C1A58263  21.982  34.019   6.188
 4395POPC   D2A58264  22.085  33.760   6.566
 4395POPC   C3A58265  22.158  33.980   6.972
 4395POPC   C4A58266  22.116  34.101   7.432
 4395POPC   C1B58267  22.513  33.399   6.166
 4395POPC   C2B58268  22.431  33.315   6.583
 4395POPC   C3B58269  22.374  33.511   6.964
 4395POPC   C4B58270  22.299  33.375   7.351
 4396POPC   NC358271  19.816  22.536   5.303
 4396POPC   PO458272  19.842  21.876   5.192
 4396POPC   GL158273  19.941  21.974   5.635
 4396POPC   GL258274  19.834  22.296   5.742
 4396POPC   C1A58275  19.870  21.931   6.102
 4396POPC   D2A58276  20.035  21.766   6.494
 4396POPC   C3A58277  19.853  22.018   6.841
 4396POPC   C4A58278  19.693  22.000   7.267
 4396POPC   C1B58279  20.095  22.488   6.044
 4396POPC   C2B58280  20.157  22.285   6.444
 4396POPC   C3B58281  20.172  22.418   6.866
 4396POPC   C4B58282  19.957  22.499   7.246
 4397POPC   NC358283   7.516  37.176   5.631
 4397POPC   PO458284   7.508  37.639   5.093
 4397POPC   GL158285   7.489  37.687   5.572
 4397POPC   GL258286   7.778  37.608   5.804
 4397POPC   C1A58287   7.287  37.818   5.997
 4397POPC   D2A58288   7.132  37.775   6.444
 4397POPC   C3A58289   7.229  37.872   6.889
 4397POPC   C4A58290   7.232  37.517   7.162
 4397POPC   C1B58291   7.611  37.486   6.246
 4397POPC   C2B58292   7.589  37.580   6.704
 4397POPC   C3B58293   7.728  37.656   7.166
 4397POPC   C4B58294   7.869  37.645   7.633
 4398POPC   NC358295  37.436  19.969   5.554
 4398POPC   PO458296  37.903  20.175   5.191
 4398POPC   GL158297  37.929  20.002   5.756
 4398POPC   GL258298  37.697  20.118   5.998
 4398POPC   C1A58299  37.718  19.668   6.145
 4398POPC   D2A58300  37.442  19.845   6.466
 4398POPC   C3A58301  37.567  19.638   6.823
 4398POPC   C4A58302  37.832  19.588   7.188
 4398POPC   C1B58303  37.973  20.055   6.344
 4398POPC   C2B58304  37.983  19.936   6.776
 4398POPC   C3B58305  37.978  20.098   7.186
 4398POPC   C4B58306  37.764  19.989   7.551
 4399POPC   NC358307   7.297  24.625   5.411
 4399POPC   PO458308   7.720  24.201   5.382
 4399POPC   GL158309   7.455  24.237   5.713
 4399POPC   GL258310   7.109  24.114   5.615
 4399POPC   C1A58311   7.454  24.529   6.086
 4399POPC   D2A58312   7.695  24.648   6.460
 4399POPC   C3A58313   7.521  24.632   6.880
 4399POPC   C4A58314   7.686  24.435   7.261
 4399POPC   C1B58315   7.186  24.065   6.087
 4399POPC   C2B58316   7.270  24.262   6.494
 4399POPC   C3B58317   7.141  24.260   6.912
 4399POPC   C4B58318   7.184  24.322   7.345
 4400POPC   NC358319   2.117   8.624   5.594
 4400POPC   PO458320   2.256   9.336   5.421
 4400POPC   GL158321   2.043   9.139   5.827
 4400POPC   GL258322   1.882   8.829   5.984
 4400POPC   C1A58323   1.785   9.284   6.178
 4400POPC   D2A58324   1.941   9.271   6.607
 4400POPC   C3A58325   1.866   8.904   6.864
 4400POPC   C4A58326   1.827   9.058   7.264
 4400POPC   C1B58327   2.210   8.867   6.298
 4400POPC   C2B58328   2.412   8.724   6.706
 4400POPC   C3B58329   2.257   8.618   7.130
 4400POPC   C4B58330   2.212   8.876   7.532
 4401POPC   NC358331  38.784  14.772   5.361
 4401POPC   PO458332  39.230  14.269   5.308
 4401POPC   GL158333  39.358  14.447   5.697
 4401POPC   GL258334  39.252  14.801   5.748
 4401POPC   C1A58335  39.429  14.432   6.153
 4401POPC   D2A58336  39.306  14.543   6.582
 4401POPC   C3A58337  39.261  14.266   6.938
 4401POPC   C4A58338  39.363  14.034   7.283
 4401POPC   C1B58339  39.067  14.873   6.194
 4401POPC   C2B58340  38.927  14.858   6.655
 4401POPC   C3B58341  39.110  14.742   7.041
 4401POPC   C4B58342  39.488  14.605   7.287
 4402POPC   NC358343   1.817  11.348   5.429
 4402POPC   PO458344   1.181  11.283   5.497
 4402POPC   GL158345   1.154  11.466   5.848
 4402POPC   GL258346   1.511  11.407   5.900
 4402POPC   C1A58347   1.108  11.631   6.243
 4402POPC   D2A58348   1.267  11.412   6.585
 4402POPC   C3A58349   1.067  11.067   6.764
 4402POPC   C4A58350   1.110  11.118   7.182
 4402POPC   C1B58351   1.365  11.084   6.176
 4402POPC   C2B58352   1.555  10.958   6.557
 4402POPC   C3B58353   1.603  11.163   6.920
 4402POPC   C4B58354   1.580  11.170   7.328
 4403POPC   NC358355  37.072  37.362   5.476
 4403POPC   PO458356  37.031  38.049   5.509
 4403POPC   GL158357  36.754  37.856   5.840
 4403POPC   GL258358  36.682  37.487   5.804
 4403POPC   C1A58359  36.786  37.768   6.301
 4403POPC   D2A58360  37.148  37.735   6.625
 4403POPC   C3A58361  37.157  37.868   7.050
 4403POPC   C4A58362  36.987  37.780   7.450
 4403POPC   C1B58363  37.006  37.354   6.128
 4403POPC   C2B58364  36.895  37.291   6.576
 4403POPC   C3B58365  36.856  37.469   7.013
 4403POPC   C4B58366  36.942  37.260   7.419
 4404POPC   NC358367   5.309   5.609   5.295
 4404POPC   PO458368   4.913   6.163   5.394
 4404POPC   GL158369   5.165   5.924   5.680
 4404POPC   GL258370   4.976   5.609   5.696
 4404POPC   C1A58371   5.222   5.910   6.135
 4404POPC   D2A58372   4.888   5.988   6.495
 4404POPC   C3A58373   4.984   6.134   6.941
 4404POPC   C4A58374   5.238   6.016   7.298
 4404POPC   C1B58375   4.843   5.584   6.127
 4404POPC   C2B58376   5.088   5.518   6.500
 4404POPC   C3B58377   4.906   5.504   6.908
 4404POPC   C4B58378   4.792   5.753   7.254
 4405POPC   NC358379  35.589  21.640   5.487
 4405POPC   PO458380  35.249  22.204   5.294
 4405POPC   GL158381  35.287  22.278   5.706
 4405POPC   GL258382  35.267  21.911   5.813
 4405POPC   C1A58383  35.507  22.257   6.104
 4405POPC   D2A58384  35.472  21.944   6.425
 4405POPC   C3A58385  35.411  22.001   6.883
 4405POPC   C4A58386  35.544  22.098   7.326
 4405POPC   C1B58387  35.158  21.625   6.155
 4405POPC   C2B58388  35.091  21.657   6.608
 4405POPC   C3B58389  34.942  21.806   6.966
 4405POPC   C4B58390  35.113  21.774   7.365
 4406POPC   NC358391  38.911  23.719   5.567
 4406POPC   PO458392  39.559  23.450   5.430
 4406POPC   GL158393  39.302  23.487   5.803
 4406POPC   GL258394  39.281  23.862   5.888
 4406POPC   C1A58395  39.176  23.508   6.246
 4406POPC   D2A58396  39.250  23.628   6.636
 4406POPC   C3A58397  39.162  23.415   6.973
 4406POPC   C4A58398  39.261  23.695   7.292
 4406POPC   C1B58399  38.905  23.926   6.169
 4406POPC   C2B58400  38.780  24.049   6.538
 4406POPC   C3B58401  38.935  23.890   6.936
 4406POPC   C4B58402  38.719  23.698   7.262
 4407POPC   NC358403   4.626   1.755   5.419
 4407POPC   PO458404   5.326   1.787   5.312
 4407POPC   GL158405   5.212   2.003   5.719
 4407POPC   GL258406   4.867   1.937   5.888
 4407POPC   C1A58407   5.331   1.954   6.159
 4407POPC   D2A58408   5.204   1.830   6.589
 4407POPC   C3A58409   5.392   2.063   6.911
 4407POPC   C4A58410   5.265   2.233   7.244
 4407POPC   C1B58411   4.812   2.094   6.341
 4407POPC   C2B58412   4.890   2.167   6.800
 4407POPC   C3B58413   4.943   1.852   7.127
 4407POPC   C4B58414   5.036   1.500   7.435
 4408POPC   NC358415  42.662   2.685   5.147
 4408POPC   PO458416  43.221   2.767   5.247
 4408POPC   GL158417  43.270   2.565   5.696
 4408POPC   GL258418  42.923   2.448   5.775
 4408POPC   C1A58419  43.435   2.472   6.167
 4408POPC   D2A58420  43.317   2.612   6.626
 4408POPC   C3A58421  43.372   2.480   7.039
 4408POPC   C4A58422  43.284   2.693   7.452
 4408POPC   C1B58423  43.029   2.777   6.116
 4408POPC   C2B58424  42.891   2.839   6.559
 4408POPC   C3B58425  43.016   2.857   7.002
 4408POPC   C4B58426  42.821   2.862   7.397
 4409POPC   NC358427  40.449   1.861   5.429
 4409POPC   PO458428  39.837   1.861   5.557
 4409POPC   GL158429  39.969   1.672   5.897
 4409POPC   GL258430  40.324   1.663   5.880
 4409POPC   C1A58431  40.001   1.958   6.260
 4409POPC   D2A58432  40.036   2.198   6.649
 4409POPC   C3A58433  39.894   2.051   7.059
 4409POPC   C4A58434  39.728   2.336   7.398
 4409POPC   C1B58435  40.280   1.540   6.286
 4409POPC   C2B58436  40.239   1.732   6.660
 4409POPC   C3B58437  40.405   1.990   6.963
 4409POPC   C4B58438  40.386   1.762   7.312
 4410POPC   NC358439  39.422  36.461   5.544
 4410POPC   PO458440  38.967  36.016   5.248
 4410POPC   GL158441  39.235  36.010   5.679
 4410POPC   GL258442  39.263  36.295   5.990
 4410POPC   C1A58443  39.175  35.823   6.099
 4410POPC   D2A58444  39.087  36.036   6.495
 4410POPC   C3A58445  39.300  35.898   6.877
 4410POPC   C4A58446  39.281  36.033   7.315
 4410POPC   C1B58447  38.911  36.457   6.271
 4410POPC   C2B58448  38.698  36.437   6.648
 4410POPC   C3B58449  38.889  36.211   6.974
 4410POPC   C4B58450  38.835  36.242   7.400
 4411POPC   NC358451  18.623  33.917   5.371
 4411POPC   PO458452  19.214  33.714   5.335
 4411POPC   GL158453  19.002  33.781   5.753
 4411POPC   GL258454  18.848  33.462   5.821
 4411POPC   C1A58455  19.165  33.977   6.171
 4411POPC   D2A58456  19.402  33.914   6.589
 4411POPC   C3A58457  19.154  33.993   6.976
 4411POPC   C4A58458  19.073  33.796   7.406
 4411POPC   C1B58459  18.688  33.684   6.183
 4411POPC   C2B58460  18.439  33.663   6.558
 4411POPC   C3B58461  18.685  33.559   6.936
 4411POPC   C4B58462  18.732  33.391   7.331
 4412POPC   NC358463  39.047  20.223   5.299
 4412POPC   PO458464  39.347  19.575   5.513
 4412POPC   GL158465  39.317  19.796   5.881
 4412POPC   GL258466  39.066  20.038   5.805
 4412POPC   C1A58467  39.358  20.028   6.262
 4412POPC   D2A58468  39.486  19.870   6.663
 4412POPC   C3A58469  39.226  20.083   6.926
 4412POPC   C4A58470  38.984  20.037   7.315
 4412POPC   C1B58471  38.889  19.763   6.131
 4412POPC   C2B58472  38.989  19.774   6.544
 4412POPC   C3B58473  38.776  19.801   6.911
 4412POPC   C4B58474  38.773  19.562   7.267
 4413POPC   NC358475  15.672  21.193   5.374
 4413POPC   PO458476  16.312  21.497   5.553
 4413POPC   GL158477  16.119  21.440   5.941
 4413POPC   GL258478  15.846  21.169   5.872
 4413POPC   C1A58479  15.923  21.377   6.344
 4413POPC   D2A58480  16.000  21.105   6.708
 4413POPC   C3A58481  16.049  21.410   7.048
 4413POPC   C4A58482  15.911  21.757   7.302
 4413POPC   C1B58483  15.711  20.915   6.246
 4413POPC   C2B58484  15.502  21.023   6.651
 4413POPC   C3B58485  15.519  21.014   7.111
 4413POPC   C4B58486  15.503  20.968   7.579
 4414POPC   NC358487  34.417  32.178   5.270
 4414POPC   PO458488  34.728  32.775   5.361
 4414POPC   GL158489  34.622  32.465   5.720
 4414POPC   GL258490  34.653  32.160   5.739
 4414POPC   C1A58491  34.433  32.310   6.169
 4414POPC   D2A58492  34.251  32.190   6.591
 4414POPC   C3A58493  34.365  32.357   7.012
 4414POPC   C4A58494  34.452  32.581   7.466
 4414POPC   C1B58495  34.928  32.363   6.109
 4414POPC   C2B58496  35.072  32.247   6.530
 4414POPC   C3B58497  34.769  32.084   6.821
 4414POPC   C4B58498  34.737  32.000   7.257
 4415POPC   NC358499  12.002   7.719   5.404
 4415POPC   PO458500  12.169   7.038   5.329
 4415POPC   GL158501  12.013   7.268   5.675
 4415POPC   GL258502  12.352   7.408   5.744
 4415POPC   C1A58503  11.986   7.391   6.129
 4415POPC   D2A58504  11.777   7.344   6.542
 4415POPC   C3A58505  11.966   7.568   6.893
 4415POPC   C4A58506  11.823   7.501   7.327
 4415POPC   C1B58507  12.492   7.572   6.156
 4415POPC   C2B58508  12.569   7.643   6.609
 4415POPC   C3B58509  12.578   7.504   7.033
 4415POPC   C4B58510  12.281   7.718   7.295
 4416POPC   NC358511  12.656  41.597   5.011
 4416POPC   PO458512  12.030  41.631   5.353
 4416POPC   GL158513  12.069  41.513   5.775
 4416POPC   GL258514  11.834  41.255   5.812
 4416POPC   C1A58515  12.155  41.797   6.132
 4416POPC   D2A58516  12.423  41.853   6.497
 4416POPC   C3A58517  12.219  41.857   6.914
 4416POPC   C4A58518  11.827  41.785   7.174
 4416POPC   C1B58519  11.741  41.469   6.192
 4416POPC   C2B58520  11.968  41.560   6.576
 4416POPC   C3B58521  12.094  41.368   6.966
 4416POPC   C4B58522  11.860  41.183   7.264
 4417POPC   NC358523   9.280  37.206   5.069
 4417POPC   PO458524   8.803  36.931   5.439
 4417POPC   GL158525   8.817  36.865   5.836
 4417POPC   GL258526   8.578  36.623   5.769
 4417POPC   C1A58527   8.883  37.018   6.260
 4417POPC   D2A58528   9.084  37.006   6.689
 4417POPC   C3A58529   8.842  36.955   7.087
 4417POPC   C4A58530   8.923  36.940   7.546
 4417POPC   C1B58531   8.702  36.517   6.183
 4417POPC   C2B58532   8.656  36.701   6.603
 4417POPC   C3B58533   8.576  36.508   6.986
 4417POPC   C4B58534   8.667  36.525   7.402
 4418POPC   NC358535  36.545   8.271   5.531
 4418POPC   PO458536  37.092   8.595   5.312
 4418POPC   GL158537  36.947   8.499   5.783
 4418POPC   GL258538  36.733   8.264   6.012
 4418POPC   C1A58539  37.069   8.507   6.263
 4418POPC   D2A58540  36.751   8.389   6.586
 4418POPC   C3A58541  36.889   8.339   7.003
 4418POPC   C4A58542  37.056   8.264   7.392
 4418POPC   C1B58543  36.951   8.001   6.326
 4418POPC   C2B58544  36.910   7.881   6.755
 4418POPC   C3B58545  36.798   7.852   7.194
 4418POPC   C4B58546  37.001   7.809   7.625
 4419POPC   NC358547  15.787  38.488   5.427
 4419POPC   PO458548  16.457  38.877   5.479
 4419POPC   GL158549  16.138  38.722   5.773
 4419POPC   GL258550  16.161  38.351   5.797
 4419POPC   C1A58551  15.888  38.618   6.148
 4419POPC   D2A58552  15.708  38.438   6.508
 4419POPC   C3A58553  15.942  38.603   6.872
 4419POPC   C4A58554  15.865  38.725   7.294
 4419POPC   C1B58555  15.927  38.088   6.117
 4419POPC   C2B58556  15.732  37.929   6.505
 4419POPC   C3B58557  15.720  38.107   6.916
 4419POPC   C4B58558  15.989  38.229   7.237
 4420POPC   NC358559  20.559  37.144   4.895
 4420POPC   PO458560  21.146  36.861   5.220
 4420POPC   GL158561  20.884  36.840   5.647
 4420POPC   GL258562  20.504  36.849   5.624
 4420POPC   C1A58563  20.728  36.719   6.095
 4420POPC   D2A58564  20.763  36.538   6.525
 4420POPC   C3A58565  20.685  36.707   6.951
 4420POPC   C4A58566  20.862  36.558   7.345
 4420POPC   C1B58567  20.287  36.991   6.018
 4420POPC   C2B58568  20.371  36.939   6.479
 4420POPC   C3B58569  20.436  37.167   6.879
 4420POPC   C4B58570  20.311  37.078   7.310
 4421POPC   NC358571  18.407  42.608   5.217
 4421POPC   PO458572  18.109  43.205   5.445
 4421POPC   GL158573  18.191  43.220   5.839
 4421POPC   GL258574  18.417  43.006   5.835
 4421POPC   C1A58575  18.216  43.384   6.231
 4421POPC   D2A58576  18.107  43.230   6.608
 4421POPC   C3A58577  18.150  43.481   6.945
 4421POPC   C4A58578  18.315  43.237   7.225
 4421POPC   C1B58579  18.271  42.873   6.261
 4421POPC   C2B58580  18.195  42.677   6.640
 4421POPC   C3B58581  18.300  42.744   7.058
 4421POPC   C4B58582  18.220  42.827   7.517
 4422POPC   NC358583  42.894   8.311   5.178
 4422POPC   PO458584  43.376   8.623   5.534
 4422POPC   GL158585  43.301   8.565   6.008
 4422POPC   GL258586  43.064   8.322   6.018
 4422POPC   C1A58587  43.340   8.608   6.469
 4422POPC   D2A58588  43.276   8.272   6.779
 4422POPC   C3A58589  43.115   8.291   7.216
 4422POPC   C4A58590  43.044   8.426   7.650
 4422POPC   C1B58591  42.854   8.495   6.416
 4422POPC   C2B58592  42.730   8.343   6.850
 4422POPC   C3B58593  42.573   8.243   7.292
 4422POPC   C4B58594  42.551   8.526   7.686
 4423POPC   NC358595  19.909  19.182   5.391
 4423POPC   PO458596  19.586  18.532   5.428
 4423POPC   GL158597  19.727  18.833   5.719
 4423POPC   GL258598  19.498  19.105   5.731
 4423POPC   C1A58599  19.910  18.788   6.121
 4423POPC   D2A58600  19.980  19.006   6.515
 4423POPC   C3A58601  19.884  18.794   6.892
 4423POPC   C4A58602  19.640  18.737   7.253
 4423POPC   C1B58603  19.675  19.225   6.110
 4423POPC   C2B58604  19.509  19.163   6.518
 4423POPC   C3B58605  19.700  19.312   6.880
 4423POPC   C4B58606  19.893  19.187   7.226
 4424POPC   NC358607  36.814  36.432   5.431
 4424POPC   PO458608  36.693  37.112   5.350
 4424POPC   GL158609  36.866  36.970   5.777
 4424POPC   GL258610  36.663  36.675   5.869
 4424POPC   C1A58611  36.986  36.851   6.244
 4424POPC   D2A58612  37.225  36.853   6.641
 4424POPC   C3A58613  36.964  36.960   6.974
 4424POPC   C4A58614  36.957  36.662   7.262
 4424POPC   C1B58615  36.597  36.533   6.293
 4424POPC   C2B58616  36.774  36.556   6.711
 4424POPC   C3B58617  36.502  36.642   7.065
 4424POPC   C4B58618  36.543  36.477   7.479
 4425POPC   NC358619  23.051  12.570   5.614
 4425POPC   PO458620  22.822  11.987   5.344
 4425POPC   GL158621  22.814  12.147   5.775
 4425POPC   GL258622  22.586  12.462   5.845
 4425POPC   C1A58623  22.943  12.269   6.197
 4425POPC   D2A58624  22.826  12.089   6.581
 4425POPC   C3A58625  23.174  12.225   6.824
 4425POPC   C4A58626  23.196  12.102   7.228
 4425POPC   C1B58627  22.492  12.467   6.312
 4425POPC   C2B58628  22.827  12.605   6.628
 4425POPC   C3B58629  22.880  12.541   7.096
 4425POPC   C4B58630  22.623  12.504   7.463
 4426POPC   NC358631  40.588  32.983   5.395
 4426POPC   PO458632  41.194  32.726   5.252
 4426POPC   GL158633  41.019  32.858   5.716
 4426POPC   GL258634  40.710  33.040   5.865
 4426POPC   C1A58635  40.972  32.779   6.206
 4426POPC   D2A58636  40.728  32.731   6.601
 4426POPC   C3A58637  40.803  32.876   7.008
 4426POPC   C4A58638  41.132  32.814   7.293
 4426POPC   C1B58639  40.581  33.280   6.208
 4426POPC   C2B58640  40.684  33.270   6.644
 4426POPC   C3B58641  40.565  33.351   7.061
 4426POPC   C4B58642  40.934  33.303   7.298
 4427POPC   NC358643  30.935  21.277   5.282
 4427POPC   PO458644  30.343  21.357   5.603
 4427POPC   GL158645  30.746  21.324   5.766
 4427POPC   GL258646  30.937  21.606   5.780
 4427POPC   C1A58647  30.769  21.282   6.193
 4427POPC   D2A58648  30.470  21.194   6.510
 4427POPC   C3A58649  30.597  21.262   6.923
 4427POPC   C4A58650  30.640  21.048   7.271
 4427POPC   C1B58651  30.911  21.789   6.191
 4427POPC   C2B58652  30.845  21.598   6.603
 4427POPC   C3B58653  30.812  21.731   7.028
 4427POPC   C4B58654  30.799  21.591   7.456
 4428POPC   NC358655  16.943  17.140   5.388
 4428POPC   PO458656  16.543  17.671   5.432
 4428POPC   GL158657  16.945  17.676   5.699
 4428POPC   GL258658  17.011  17.353   5.815
 4428POPC   C1A58659  16.980  17.681   6.176
 4428POPC   D2A58660  16.610  17.510   6.399
 4428POPC   C3A58661  16.620  17.464   6.842
 4428POPC   C4A58662  16.558  17.662   7.243
 4428POPC   C1B58663  16.919  17.171   6.163
 4428POPC   C2B58664  17.064  17.289   6.554
 4428POPC   C3B58665  16.997  17.075   6.923
 4428POPC   C4B58666  16.735  17.173   7.240
 4429POPC   NC358667  10.733  42.471   5.338
 4429POPC   PO458668  10.104  42.296   5.623
 4429POPC   GL158669  10.467  42.495   5.798
 4429POPC   GL258670  10.703  42.227   5.830
 4429POPC   C1A58671  10.506  42.520   6.261
 4429POPC   D2A58672  10.300  42.699   6.643
 4429POPC   C3A58673  10.222  42.456   7.013
 4429POPC   C4A58674  10.612  42.385   7.204
 4429POPC   C1B58675  10.851  42.132   6.269
 4429POPC   C2B58676  10.673  42.128   6.714
 4429POPC   C3B58677  10.770  41.910   7.118
 4429POPC   C4B58678  10.509  41.897   7.524
 4430POPC   NC358679  27.965   1.745   5.624
 4430POPC   PO458680  28.430   1.242   5.444
 4430POPC   GL158681  28.469   1.153   5.838
 4430POPC   GL258682  28.183   1.379   5.915
 4430POPC   C1A58683  28.423   1.103   6.273
 4430POPC   D2A58684  28.362   1.375   6.603
 4430POPC   C3A58685  28.519   1.274   6.971
 4430POPC   C4A58686  28.584   0.995   7.282
 4430POPC   C1B58687  28.126   1.708   6.279
 4430POPC   C2B58688  27.970   1.670   6.729
 4430POPC   C3B58689  28.096   1.509   7.153
 4430POPC   C4B58690  28.317   1.355   7.511
 4431POPC   NC358691  43.184   9.879   5.263
 4431POPC   PO458692  42.511   9.962   5.562
 4431POPC   GL158693  42.946  10.007   5.737
 4431POPC   GL258694  43.208   9.727   5.792
 4431POPC   C1A58695  43.200  10.163   6.100
 4431POPC   D2A58696  43.367   9.909   6.433
 4431POPC   C3A58697  43.336   9.918   6.894
 4431POPC   C4A58698  43.275   9.805   7.372
 4431POPC   C1B58699  43.152   9.491   6.196
 4431POPC   C2B58700  43.001   9.572   6.619
 4431POPC   C3B58701  43.150   9.455   7.012
 4431POPC   C4B58702  42.996   9.134   7.212
 4432POPC   NC358703  39.331  33.346   5.450
 4432POPC   PO458704  39.257  33.945   5.107
 4432POPC   GL158705  39.197  33.825   5.596
 4432POPC   GL258706  38.954  33.560   5.778
 4432POPC   C1A58707  39.341  33.796   6.051
 4432POPC   D2A58708  39.539  34.018   6.416
 4432POPC   C3A58709  39.431  33.823   6.808
 4432POPC   C4A58710  39.590  33.774   7.225
 4432POPC   C1B58711  38.804  33.598   6.238
 4432POPC   C2B58712  38.934  33.671   6.688
 4432POPC   C3B58713  38.888  33.814   7.118
 4432POPC   C4B58714  38.873  33.955   7.560
 4433POPC   NC358715   5.864  38.222   5.572
 4433POPC   PO458716   5.437  38.784   5.598
 4433POPC   GL158717   5.702  38.624   5.893
 4433POPC   GL258718   6.038  38.576   5.895
 4433POPC   C1A58719   5.747  38.678   6.334
 4433POPC   D2A58720   5.534  38.554   6.689
 4433POPC   C3A58721   5.773  38.432   7.045
 4433POPC   C4A58722   6.103  38.226   7.263
 4433POPC   C1B58723   6.115  38.306   6.295
 4433POPC   C2B58724   6.237  38.307   6.748
 4433POPC   C3B58725   6.252  38.642   7.038
 4433POPC   C4B58726   6.019  38.695   7.449
 4434POPC   NC358727  20.886  16.149   5.374
 4434POPC   PO458728  20.458  15.602   5.432
 4434POPC   GL158729  20.617  15.883   5.775
 4434POPC   GL258730  20.380  16.194   5.760
 4434POPC   C1A58731  20.846  15.804   6.197
 4434POPC   D2A58732  21.092  15.893   6.596
 4434POPC   C3A58733  20.930  16.142   6.928
 4434POPC   C4A58734  20.804  15.933   7.278
 4434POPC   C1B58735  20.468  16.173   6.208
 4434POPC   C2B58736  20.538  16.008   6.630
 4434POPC   C3B58737  20.373  16.091   7.057
 4434POPC   C4B58738  20.435  16.202   7.508
 4435POPC   NC358739  37.477  41.803   5.452
 4435POPC   PO458740  38.054  42.203   5.491
 4435POPC   GL158741  37.865  41.892   5.799
 4435POPC   GL258742  37.592  41.602   5.897
 4435POPC   C1A58743  37.941  41.786   6.227
 4435POPC   D2A58744  37.756  41.661   6.626
 4435POPC   C3A58745  37.608  41.896   6.949
 4435POPC   C4A58746  37.693  41.717   7.283
 4435POPC   C1B58747  37.693  41.315   6.254
 4435POPC   C2B58748  37.684  41.155   6.694
 4435POPC   C3B58749  37.795  41.233   7.145
 4435POPC   C4B58750  37.582  41.298   7.557
 4436POPC   NC358751   4.898  33.372   5.376
 4436POPC   PO458752   4.380  33.863   5.369
 4436POPC   GL158753   4.369  33.831   5.846
 4436POPC   GL258754   4.130  33.560   5.823
 4436POPC   C1A58755   4.415  33.748   6.331
 4436POPC   D2A58756   4.499  33.459   6.684
 4436POPC   C3A58757   4.624  33.638   7.078
 4436POPC   C4A58758   4.515  34.012   7.292
 4436POPC   C1B58759   3.939  33.707   6.164
 4436POPC   C2B58760   3.929  33.866   6.534
 4436POPC   C3B58761   4.204  33.915   6.867
 4436POPC   C4B58762   4.049  33.812   7.260
 4437POPC   NC358763  37.842  44.818   5.275
 4437POPC   PO458764  37.425  44.444   5.605
 4437POPC   GL158765  37.778  44.557   5.871
 4437POPC   GL258766  38.032  44.790   5.756
 4437POPC   C1A58767  37.741  44.752   6.275
 4437POPC   D2A58768  37.615  44.862   6.704
 4437POPC   C3A58769  37.687  44.692   7.043
 4437POPC   C4A58770  37.599  44.298   7.118
 4437POPC   C1B58771  38.183  44.969   6.137
 4437POPC   C2B58772  38.010   0.101   6.525
 4437POPC   C3B58773  38.098   0.026   6.932
 4437POPC   C4B58774  38.095  44.836   7.298
 4438POPC   NC358775   4.719  12.178   5.120
 4438POPC   PO458776   5.339  11.903   5.368
 4438POPC   GL158777   5.130  12.090   5.727
 4438POPC   GL258778   4.781  12.000   5.701
 4438POPC   C1A58779   5.104  11.875   6.142
 4438POPC   D2A58780   5.351  11.772   6.522
 4438POPC   C3A58781   5.255  11.993   6.916
 4438POPC   C4A58782   5.273  12.331   7.251
 4438POPC   C1B58783   4.705  12.201   6.119
 4438POPC   C2B58784   4.901  12.158   6.528
 4438POPC   C3B58785   4.824  12.284   6.938
 4438POPC   C4B58786   4.851  12.041   7.276
 4439POPC   NC358787  24.007  19.809   5.144
 4439POPC   PO458788  23.416  19.628   5.431
 4439POPC   GL158789  23.658  19.789   5.783
 4439POPC   GL258790  24.028  19.808   5.818
 4439POPC   C1A58791  23.738  19.986   6.180
 4439POPC   D2A58792  23.676  19.754   6.508
 4439POPC   C3A58793  23.548  19.893   6.906
 4439POPC   C4A58794  23.583  19.937   7.349
 4439POPC   C1B58795  24.124  19.631   6.259
 4439POPC   C2B58796  24.064  19.559   6.741
 4439POPC   C3B58797  23.974  19.641   7.195
 4439POPC   C4B58798  23.768  19.537   7.602
 4440POPC   NC358799  21.720  10.295   5.390
 4440POPC   PO458800  21.118  10.564   5.362
 4440POPC   GL158801  21.353  10.590   5.744
 4440POPC   GL258802  21.264  10.931   5.871
 4440POPC   C1A58803  21.492  10.353   6.141
 4440POPC   D2A58804  21.362  10.444   6.565
 4440POPC   C3A58805  21.486  10.229   6.927
 4440POPC   C4A58806  21.370  10.192   7.400
 4440POPC   C1B58807  21.657  10.836   6.092
 4440POPC   C2B58808  21.770  10.759   6.515
 4440POPC   C3B58809  21.572  10.771   6.911
 4440POPC   C4B58810  21.682  10.565   7.233
 4441POPC   NC358811  10.870   4.120   5.644
 4441POPC   PO458812  10.469   3.665   5.259
 4441POPC   GL158813  10.557   3.576   5.669
 4441POPC   GL258814  10.610   3.229   5.581
 4441POPC   C1A58815  10.424   3.635   6.118
 4441POPC   D2A58816  10.548   3.778   6.537
 4441POPC   C3A58817  10.301   3.783   6.911
 4441POPC   C4A58818  10.496   3.622   7.258
 4441POPC   C1B58819  10.678   3.197   6.000
 4441POPC   C2B58820  10.611   3.241   6.421
 4441POPC   C3B58821  10.696   3.096   6.828
 4441POPC   C4B58822  10.506   3.099   7.203
 4442POPC   NC358823  36.225  28.759   5.634
 4442POPC   PO458824  35.638  28.804   5.242
 4442POPC   GL158825  35.737  28.938   5.675
 4442POPC   GL258826  35.959  29.250   5.652
 4442POPC   C1A58827  35.908  29.004   6.128
 4442POPC   D2A58828  35.877  29.250   6.511
 4442POPC   C3A58829  35.860  29.063   6.921
 4442POPC   C4A58830  35.901  29.231   7.327
 4442POPC   C1B58831  36.214  29.419   6.031
 4442POPC   C2B58832  36.375  29.353   6.465
 4442POPC   C3B58833  36.221  29.421   6.879
 4442POPC   C4B58834  36.409  29.322   7.251
 4443POPC   NC358835  27.780   2.653   5.446
 4443POPC   PO458836  27.426   3.253   5.450
 4443POPC   GL158837  27.566   3.004   5.813
 4443POPC   GL258838  27.918   2.993   5.827
 4443POPC   C1A58839  27.645   2.817   6.251
 4443POPC   D2A58840  27.445   2.939   6.659
 4443POPC   C3A58841  27.543   2.786   7.085
 4443POPC   C4A58842  27.253   2.474   7.317
 4443POPC   C1B58843  28.051   3.130   6.258
 4443POPC   C2B58844  27.891   3.186   6.690
 4443POPC   C3B58845  28.042   3.076   7.111
 4443POPC   C4B58846  27.870   2.838   7.492
 4444POPC   NC358847  37.559   1.463   5.649
 4444POPC   PO458848  37.993   1.870   5.361
 4444POPC   GL158849  37.794   1.948   5.763
 4444POPC   GL258850  37.559   2.237   5.752
 4444POPC   C1A58851  37.794   1.880   6.222
 4444POPC   D2A58852  37.981   1.815   6.640
 4444POPC   C3A58853  37.643   1.855   7.000
 4444POPC   C4A58854  37.654   1.699   7.440
 4444POPC   C1B58855  37.836   2.363   6.098
 4444POPC   C2B58856  37.838   2.312   6.564
 4444POPC   C3B58857  38.022   2.196   6.971
 4444POPC   C4B58858  37.781   2.225   7.330
 4445POPC   NC358859  10.729  38.224   5.480
 4445POPC   PO458860  10.427  38.845   5.321
 4445POPC   GL158861  10.575  38.821   5.753
 4445POPC   GL258862  10.434  38.503   5.781
 4445POPC   C1A58863  10.482  38.802   6.212
 4445POPC   D2A58864  10.761  38.797   6.575
 4445POPC   C3A58865  10.627  38.684   6.987
 4445POPC   C4A58866  10.822  38.401   7.268
 4445POPC   C1B58867  10.428  38.258   6.147
 4445POPC   C2B58868  10.472  38.358   6.589
 4445POPC   C3B58869  10.419  38.184   6.995
 4445POPC   C4B58870  10.562  37.991   7.365
 4446POPC   NC358871  23.887  22.557   5.480
 4446POPC   PO458872  23.620  23.145   5.552
 4446POPC   GL158873  23.738  22.879   5.859
 4446POPC   GL258874  23.565  22.592   5.896
 4446POPC   C1A58875  23.897  22.858   6.256
 4446POPC   D2A58876  23.900  23.090   6.615
 4446POPC   C3A58877  23.889  22.881   6.956
 4446POPC   C4A58878  23.760  23.143   7.234
 4446POPC   C1B58879  23.375  22.776   6.222
 4446POPC   C2B58880  23.517  22.756   6.611
 4446POPC   C3B58881  23.384  22.789   6.999
 4446POPC   C4B58882  23.461  22.768   7.437
 4447POPC   NC358883   9.891  39.607   5.485
 4447POPC   PO458884   9.417  40.120   5.300
 4447POPC   GL158885   9.551  40.241   5.727
 4447POPC   GL258886   9.760  39.949   5.851
 4447POPC   C1A58887   9.466  40.225   6.183
 4447POPC   D2A58888   9.590  39.974   6.545
 4447POPC   C3A58889   9.772  40.238   6.848
 4447POPC   C4A58890   9.897  40.187   7.256
 4447POPC   C1B58891   9.823  39.644   6.211
 4447POPC   C2B58892   9.917  39.535   6.642
 4447POPC   C3B58893   9.690  39.724   6.997
 4447POPC   C4B58894   9.791  39.708   7.428
 4448POPC   NC358895  24.909  17.350   5.255
 4448POPC   PO458896  24.328  17.632   5.283
 4448POPC   GL158897  24.389  17.452   5.692
 4448POPC   GL258898  24.751  17.355   5.756
 4448POPC   C1A58899  24.240  17.501   6.131
 4448POPC   D2A58900  24.428  17.591   6.524
 4448POPC   C3A58901  24.395  17.422   6.932
 4448POPC   C4A58902  24.168  17.407   7.313
 4448POPC   C1B58903  24.930  17.362   6.205
 4448POPC   C2B58904  24.847  17.337   6.650
 4448POPC   C3B58905  24.888  17.404   7.074
 4448POPC   C4B58906  24.628  17.242   7.406
 4449POPC   NC358907  20.657  28.477   5.342
 4449POPC   PO458908  20.787  28.090   5.835
 4449POPC   GL158909  20.544  28.480   5.894
 4449POPC   GL258910  20.238  28.517   5.664
 4449POPC   C1A58911  20.511  28.536   6.357
 4449POPC   D2A58912  20.551  28.369   6.783
 4449POPC   C3A58913  20.865  28.334   7.108
 4449POPC   C4A58914  20.755  28.493   7.516
 4449POPC   C1B58915  20.090  28.300   6.058
 4449POPC   C2B58916  20.069  28.270   6.528
 4449POPC   C3B58917  20.183  28.050   6.940
 4449POPC   C4B58918  20.480  28.090   7.299
 4450POPC   NC358919  20.115  30.528   5.433
 4450POPC   PO458920  20.672  30.818   5.455
 4450POPC   GL158921  20.583  30.719   5.858
 4450POPC   GL258922  20.757  30.417   5.801
 4450POPC   C1A58923  20.384  30.811   6.272
 4450POPC   D2A58924  20.215  30.777   6.715
 4450POPC   C3A58925  20.187  30.808   7.174
 4450POPC   C4A58926  20.331  30.569   7.535
 4450POPC   C1B58927  20.868  30.490   6.217
 4450POPC   C2B58928  20.737  30.624   6.602
 4450POPC   C3B58929  20.644  30.613   7.022
 4450POPC   C4B58930  20.939  30.660   7.338
 4451POPC   NC358931  41.504  28.902   5.392
 4451POPC   PO458932  41.734  29.569   5.475
 4451POPC   GL158933  41.705  29.229   5.810
 4451POPC   GL258934  41.503  28.914   5.881
 4451POPC   C1A58935  41.569  29.242   6.251
 4451POPC   D2A58936  41.596  29.505   6.594
 4451POPC   C3A58937  41.462  29.234   6.911
 4451POPC   C4A58938  41.465  29.031   7.316
 4451POPC   C1B58939  41.862  28.796   6.125
 4451POPC   C2B58940  42.034  28.851   6.538
 4451POPC   C3B58941  41.790  28.851   6.886
 4451POPC   C4B58942  41.798  28.626   7.242
 4452POPC   NC358943  15.173  23.766   5.314
 4452POPC   PO458944  15.759  23.810   5.467
 4452POPC   GL158945  15.386  23.802   5.787
 4452POPC   GL258946  15.195  23.480   5.752
 4452POPC   C1A58947  15.035  23.836   6.135
 4452POPC   D2A58948  15.086  24.059   6.544
 4452POPC   C3A58949  14.962  23.956   6.956
 4452POPC   C4A58950  15.155  23.869   7.348
 4452POPC   C1B58951  15.338  23.436   6.191
 4452POPC   C2B58952  15.141  23.533   6.588
 4452POPC   C3B58953  15.320  23.553   6.985
 4452POPC   C4B58954  15.273  23.299   7.368
 4453POPC   NC358955   9.925  18.435   5.370
 4453POPC   PO458956   9.754  17.903   5.398
 4453POPC   GL158957   9.715  18.186   5.764
 4453POPC   GL258958   9.377  18.194   5.857
 4453POPC   C1A58959   9.701  18.399   6.192
 4453POPC   D2A58960   9.770  18.305   6.633
 4453POPC   C3A58961   9.829  18.568   7.001
 4453POPC   C4A58962  10.182  18.511   7.310
 4453POPC   C1B58963   9.345  17.980   6.279
 4453POPC   C2B58964   9.513  17.875   6.704
 4453POPC   C3B58965   9.502  18.139   7.075
 4453POPC   C4B58966   9.246  18.223   7.478
 4454POPC   NC358967  21.596  16.297   5.448
 4454POPC   PO458968  21.457  15.640   5.435
 4454POPC   GL158969  21.230  15.898   5.746
 4454POPC   GL258970  21.531  15.837   5.932
 4454POPC   C1A58971  21.234  16.142   6.173
 4454POPC   D2A58972  21.576  16.060   6.460
 4454POPC   C3A58973  21.491  16.095   6.894
 4454POPC   C4A58974  21.289  16.071   7.277
 4454POPC   C1B58975  21.907  15.746   6.182
 4454POPC   C2B58976  22.022  15.835   6.609
 4454POPC   C3B58977  21.886  15.808   7.032
 4454POPC   C4B58978  21.740  15.846   7.435
 4455POPC   NC358979  25.367  19.564   5.365
 4455POPC   PO458980  25.448  20.268   5.526
 4455POPC   GL158981  25.283  20.010   5.830
 4455POPC   GL258982  25.309  19.667   5.868
 4455POPC   C1A58983  25.116  19.946   6.251
 4455POPC   D2A58984  25.289  19.729   6.618
 4455POPC   C3A58985  25.361  20.017   6.969
 4455POPC   C4A58986  25.174  20.053   7.380
 4455POPC   C1B58987  25.088  19.420   6.197
 4455POPC   C2B58988  24.908  19.401   6.630
 4455POPC   C3B58989  25.176  19.362   7.005
 4455POPC   C4B58990  25.440  19.607   7.281
 4456POPC   NC358991  10.079  38.877   5.625
 4456POPC   PO458992   9.518  39.226   5.487
 4456POPC   GL158993   9.633  39.047   5.842
 4456POPC   GL258994   9.893  39.252   5.910
 4456POPC   C1A58995   9.493  39.208   6.232
 4456POPC   D2A58996   9.419  39.421   6.600
 4456POPC   C3A58997   9.509  39.219   6.981
 4456POPC   C4A58998   9.741  38.896   7.216
 4456POPC   C1B58999   9.967  39.020   6.325
 4456POPC   C2B59000  10.017  39.041   6.790
 4456POPC   C3B59001   9.997  39.327   7.142
 4456POPC   C4B59002   9.973  39.239   7.586
 4457POPC   NC359003  31.473   9.207   5.419
 4457POPC   PO459004  31.674   8.505   5.418
 4457POPC   GL159005  31.639   8.838   5.726
 4457POPC   GL259006  31.293   8.954   5.833
 4457POPC   C1A59007  31.781   9.000   6.127
 4457POPC   D2A59008  31.547   9.044   6.523
 4457POPC   C3A59009  31.777   9.079   6.923
 4457POPC   C4A59010  31.655   9.088   7.370
 4457POPC   C1B59011  31.164   8.789   6.248
 4457POPC   C2B59012  31.284   8.607   6.669
 4457POPC   C3B59013  31.297   8.857   7.060
 4457POPC   C4B59014  31.267   8.808   7.547
 4458POPC   NC359015  34.492  19.405   5.503
 4458POPC   PO459016  34.405  20.038   5.220
 4458POPC   GL159017  34.306  19.956   5.657
 4458POPC   GL259018  34.613  19.808   5.793
 4458POPC   C1A59019  34.296  19.971   6.135
 4458POPC   D2A59020  34.454  19.676   6.457
 4458POPC   C3A59021  34.499  19.818   6.868
 4458POPC   C4A59022  34.487  19.624   7.271
 4458POPC   C1B59023  34.886  19.714   6.169
 4458POPC   C2B59024  34.959  19.729   6.595
 4458POPC   C3B59025  34.955  19.652   7.026
 4458POPC   C4B59026  34.818  19.997   7.259
 4459POPC   NC359027  16.231  21.956   5.614
 4459POPC   PO459028  15.675  22.401   5.438
 4459POPC   GL159029  15.837  22.255   5.853
 4459POPC   GL259030  16.138  22.421   5.812
 4459POPC   C1A59031  15.961  21.923   6.213
 4459POPC   D2A59032  16.052  21.883   6.671
 4459POPC   C3A59033  15.846  22.250   6.866
 4459POPC   C4A59034  15.618  22.381   7.243
 4459POPC   C1B59035  16.289  22.329   6.207
 4459POPC   C2B59036  16.292  22.487   6.598
 4459POPC   C3B59037  16.355  22.335   6.954
 4459POPC   C4B59038  16.144  22.205   7.277
 4460POPC   NC359039  42.378  32.776   5.510
 4460POPC   PO459040  42.892  33.212   5.586
 4460POPC   GL159041  42.696  32.996   5.888
 4460POPC   GL259042  42.333  33.122   5.891
 4460POPC   C1A59043  42.653  33.172   6.292
 4460POPC   D2A59044  42.240  33.280   6.442
 4460POPC   C3A59045  42.317  33.226   6.875
 4460POPC   C4A59046  42.682  33.004   7.034
 4460POPC   C1B59047  42.317  32.803   6.207
 4460POPC   C2B59048  42.140  32.778   6.632
 4460POPC   C3B59049  42.249  32.739   7.079
 4460POPC   C4B59050  42.282  33.082   7.394
 4461POPC   NC359051  38.126   0.558   5.054
 4461POPC   PO459052  38.276   0.183   5.537
 4461POPC   GL159053  38.447   0.394   5.879
 4461POPC   GL259054  38.766   0.517   5.857
 4461POPC   C1A59055  38.263   0.461   6.265
 4461POPC   D2A59056  38.459   0.291   6.620
 4461POPC   C3A59057  38.359   0.455   7.014
 4461POPC   C4A59058  38.218   0.323   7.409
 4461POPC   C1B59059  38.649   0.761   6.220
 4461POPC   C2B59060  38.458   0.815   6.628
 4461POPC   C3B59061  38.635   0.883   7.010
 4461POPC   C4B59062  38.612   0.678   7.399
 4462POPC   NC359063   0.494  31.790   5.303
 4462POPC   PO459064   0.790  31.309   5.205
 4462POPC   GL159065   0.587  31.380   5.698
 4462POPC   GL259066   0.411  31.699   5.793
 4462POPC   C1A59067   0.422  31.359   6.167
 4462POPC   D2A59068   0.317  31.496   6.608
 4462POPC   C3A59069   0.487  31.251   6.994
 4462POPC   C4A59070   0.739  31.407   7.357
 4462POPC   C1B59071   0.234  31.868   6.157
 4462POPC   C2B59072  44.975  31.935   6.500
 4462POPC   C3B59073  44.902  31.702   6.863
 4462POPC   C4B59074   0.237  31.663   7.144
 4463POPC   NC359075  34.638  29.480   5.391
 4463POPC   PO459076  34.041  29.212   5.441
 4463POPC   GL159077  34.439  29.244   5.802
 4463POPC   GL259078  34.796  29.419   5.869
 4463POPC   C1A59079  34.626  29.106   6.241
 4463POPC   D2A59080  34.600  29.196   6.713
 4463POPC   C3A59081  34.562  28.916   7.096
 4463POPC   C4A59082  34.491  28.688   7.506
 4463POPC   C1B59083  34.978  29.516   6.282
 4463POPC   C2B59084  34.918  29.587   6.721
 4463POPC   C3B59085  34.646  29.539   7.106
 4463POPC   C4B59086  34.679  29.260   7.477
 4464POPC   NC359087  33.659  17.480   5.450
 4464POPC   PO459088  34.176  17.017   5.549
 4464POPC   GL159089  34.052  17.269   5.873
 4464POPC   GL259090  33.697  17.194   5.911
 4464POPC   C1A59091  34.081  17.323   6.326
 4464POPC   D2A59092  34.232  17.277   6.763
 4464POPC   C3A59093  33.968  17.503   7.036
 4464POPC   C4A59094  33.976  17.904   7.213
 4464POPC   C1B59095  33.673  16.996   6.343
 4464POPC   C2B59096  33.689  17.169   6.765
 4464POPC   C3B59097  33.688  17.086   7.223
 4464POPC   C4B59098  33.587  17.288   7.654
 4465POPC   NC359099   6.614  28.502   5.517
 4465POPC   PO459100   6.355  27.900   5.305
 4465POPC   GL159101   6.633  28.041   5.710
 4465POPC   GL259102   6.961  28.205   5.772
 4465POPC   C1A59103   6.624  28.253   6.144
 4465POPC   D2A59104   6.424  28.105   6.530
 4465POPC   C3A59105   6.602  28.182   6.929
 4465POPC   C4A59106   6.571  27.952   7.312
 4465POPC   C1B59107   7.147  28.274   6.198
 4465POPC   C2B59108   6.901  28.425   6.544
 4465POPC   C3B59109   6.891  28.607   6.924
 4465POPC   C4B59110   6.922  28.383   7.290
 4466POPC   NC359111  41.837  44.931   5.323
 4466POPC   PO459112  41.482  44.375   5.342
 4466POPC   GL159113  41.635  44.623   5.694
 4466POPC   GL259114  41.496  44.970   5.727
 4466POPC   C1A59115  41.574  44.625   6.141
 4466POPC   D2A59116  41.483  44.734   6.563
 4466POPC   C3A59117  41.314  44.435   6.843
 4466POPC   C4A59118  41.338  44.236   7.275
 4466POPC   C1B59119  41.316   0.078   6.142
 4466POPC   C2B59120  41.490   0.252   6.537
 4466POPC   C3B59121  41.601   0.046   6.944
 4466POPC   C4B59122  41.684  44.626   7.162
 4467POPC   NC359123  19.890  26.468   5.441
 4467POPC   PO459124  19.799  27.077   5.695
 4467POPC   GL159125  19.902  26.669   5.915
 4467POPC   GL259126  19.626  26.488   5.866
 4467POPC   C1A59127  20.005  26.685   6.347
 4467POPC   D2A59128  19.876  27.063   6.571
 4467POPC   C3A59129  20.020  26.996   6.954
 4467POPC   C4A59130  20.213  26.647   7.134
 4467POPC   C1B59131  19.495  26.720   6.228
 4467POPC   C2B59132  19.540  26.683   6.645
 4467POPC   C3B59133  19.687  26.583   7.061
 4467POPC   C4B59134  19.458  26.415   7.437
 4468POPC   NC359135  21.241   9.453   5.270
 4468POPC   PO459136  21.780   9.818   5.433
 4468POPC   GL159137  21.477   9.641   5.729
 4468POPC   GL259138  21.090   9.653   5.707
 4468POPC   C1A59139  21.380   9.812   6.141
 4468POPC   D2A59140  21.097  10.054   6.393
 4468POPC   C3A59141  21.084   9.919   6.821
 4468POPC   C4A59142  21.404   9.765   7.102
 4468POPC   C1B59143  20.898   9.504   6.084
 4468POPC   C2B59144  21.088   9.542   6.472
 4468POPC   C3B59145  21.162   9.382   6.841
 4468POPC   C4B59146  20.992   9.491   7.208
 4469POPC   NC359147  37.009  44.298   5.468
 4469POPC   PO459148  36.591  43.799   5.272
 4469POPC   GL159149  36.677  44.020   5.772
 4469POPC   GL259150  37.032  44.135   5.959
 4469POPC   C1A59151  36.670  43.915   6.226
 4469POPC   D2A59152  36.889  43.924   6.645
 4469POPC   C3A59153  36.838  43.654   7.040
 4469POPC   C4A59154  36.862  43.691   7.495
 4469POPC   C1B59155  36.820  44.397   6.303
 4469POPC   C2B59156  36.739  44.420   6.763
 4469POPC   C3B59157  36.903  44.173   7.129
 4469POPC   C4B59158  37.205  44.280   7.481
 4470POPC   NC359159  33.998  29.679   5.373
 4470POPC   PO459160  33.733  30.212   5.638
 4470POPC   GL159161  33.964  29.914   5.870
 4470POPC   GL259162  34.023  29.542   5.866
 4470POPC   C1A59163  34.176  30.001   6.237
 4470POPC   D2A59164  34.240  30.158   6.625
 4470POPC   C3A59165  33.902  30.353   6.799
 4470POPC   C4A59166  33.818  30.218   7.198
 4470POPC   C1B59167  33.947  29.545   6.316
 4470POPC   C2B59168  33.843  29.818   6.682
 4470POPC   C3B59169  33.662  29.746   7.115
 4470POPC   C4B59170  33.808  29.610   7.530
 4471POPC   NC359171  10.326  22.506   5.518
 4471POPC   PO459172  10.714  22.030   5.188
 4471POPC   GL159173  10.650  22.114   5.644
 4471POPC   GL259174  10.372  21.938   5.734
 4471POPC   C1A59175  10.597  22.250   6.112
 4471POPC   D2A59176  10.683  22.506   6.518
 4471POPC   C3A59177  10.756  22.385   6.965
 4471POPC   C4A59178  10.502  22.379   7.328
 4471POPC   C1B59179  10.643  21.725   6.049
 4471POPC   C2B59180  10.860  21.905   6.409
 4471POPC   C3B59181  10.808  21.891   6.842
 4471POPC   C4B59182  10.555  21.888   7.192
 4472POPC   NC359183  16.913  41.753   5.456
 4472POPC   PO459184  16.710  41.175   5.544
 4472POPC   GL159185  16.799  41.500   5.885
 4472POPC   GL259186  16.601  41.849   5.836
 4472POPC   C1A59187  16.558  41.595   6.272
 4472POPC   D2A59188  16.503  41.963   6.532
 4472POPC   C3A59189  16.424  41.796   6.898
 4472POPC   C4A59190  16.699  41.573   7.152
 4472POPC   C1B59191  16.912  41.951   6.164
 4472POPC   C2B59192  16.993  41.831   6.604
 4472POPC   C3B59193  17.117  41.946   7.010
 4472POPC   C4B59194  16.983  41.846   7.470
 4473POPC   NC359195  42.937   8.704   5.676
 4473POPC   PO459196  43.076   9.351   5.481
 4473POPC   GL159197  43.016   9.168   5.838
 4473POPC   GL259198  43.329   9.051   5.855
 4473POPC   C1A59199  43.021   8.977   6.251
 4473POPC   D2A59200  43.139   9.068   6.653
 4473POPC   C3A59201  43.057   8.731   6.899
 4473POPC   C4A59202  42.795   8.683   7.253
 4473POPC   C1B59203  43.511   9.069   6.253
 4473POPC   C2B59204  43.653   8.972   6.666
 4473POPC   C3B59205  43.480   8.989   7.046
 4473POPC   C4B59206  43.303   8.758   7.370
 4474POPC   NC359207  23.383   8.956   5.493
 4474POPC   PO459208  22.694   9.222   5.439
 4474POPC   GL159209  22.921   8.981   5.739
 4474POPC   GL259210  23.205   9.167   5.902
 4474POPC   C1A59211  22.897   8.880   6.191
 4474POPC   D2A59212  23.096   8.763   6.604
 4474POPC   C3A59213  22.857   8.870   6.995
 4474POPC   C4A59214  22.553   9.186   7.135
 4474POPC   C1B59215  23.429   9.051   6.261
 4474POPC   C2B59216  23.575   8.964   6.673
 4474POPC   C3B59217  23.365   8.903   7.059
 4474POPC   C4B59218  23.145   9.190   7.321
 4475POPC   NC359219  32.127  10.177   5.394
 4475POPC   PO459220  31.728  10.634   5.331
 4475POPC   GL159221  32.026  10.533   5.740
 4475POPC   GL259222  32.403  10.389   5.768
 4475POPC   C1A59223  32.128  10.388   6.182
 4475POPC   D2A59224  32.405  10.402   6.545
 4475POPC   C3A59225  32.248  10.419   6.985
 4475POPC   C4A59226  32.172  10.742   7.323
 4475POPC   C1B59227  32.616  10.173   6.130
 4475POPC   C2B59228  32.846  10.106   6.518
 4475POPC   C3B59229  32.758  10.278   6.912
 4475POPC   C4B59230  32.638  10.457   7.306
 4476POPC   NC359231  22.932  17.353   5.458
 4476POPC   PO459232  22.876  18.069   5.452
 4476POPC   GL159233  22.909  17.748   5.811
 4476POPC   GL259234  23.166  17.460   5.890
 4476POPC   C1A59235  22.703  17.500   6.165
 4476POPC   D2A59236  22.794  17.592   6.613
 4476POPC   C3A59237  22.675  17.373   7.016
 4476POPC   C4A59238  22.748  17.544   7.429
 4476POPC   C1B59239  23.181  17.365   6.335
 4476POPC   C2B59240  23.173  17.262   6.764
 4476POPC   C3B59241  23.123  17.594   7.039
 4476POPC   C4B59242  23.291  17.618   7.387
 4477POPC   NC359243  43.617  31.646   5.514
 4477POPC   PO459244  44.190  31.308   5.432
 4477POPC   GL159245  44.092  31.376   5.847
 4477POPC   GL259246  43.749  31.317   5.892
 4477POPC   C1A59247  43.997  31.648   6.205
 4477POPC   D2A59248  44.050  31.563   6.637
 4477POPC   C3A59249  43.869  31.527   7.035
 4477POPC   C4A59250  43.893  31.435   7.457
 4477POPC   C1B59251  43.608  31.121   6.262
 4477POPC   C2B59252  43.601  31.186   6.713
 4477POPC   C3B59253  43.618  31.108   7.161
 4477POPC   C4B59254  43.953  30.935   7.356
 4478POPC   NC359255  22.109  26.919   5.598
 4478POPC   PO459256  21.496  26.646   5.398
 4478POPC   GL159257  21.189  26.643   5.756
 4478POPC   GL259258  21.452  26.814   5.903
 4478POPC   C1A59259  21.038  26.774   6.170
 4478POPC   D2A59260  21.313  26.685   6.522
 4478POPC   C3A59261  21.164  26.785   6.916
 4478POPC   C4A59262  21.221  26.627   7.287
 4478POPC   C1B59263  21.427  27.111   6.243
 4478POPC   C2B59264  21.573  27.274   6.613
 4478POPC   C3B59265  21.724  27.196   7.008
 4478POPC   C4B59266  21.401  27.118   7.267
 4479POPC   NC359267  37.539  11.537   5.485
 4479POPC   PO459268  37.813  10.947   5.309
 4479POPC   GL159269  37.744  11.150   5.757
 4479POPC   GL259270  38.006  11.375   5.886
 4479POPC   C1A59271  37.569  11.377   6.170
 4479POPC   D2A59272  37.584  11.201   6.609
 4479POPC   C3A59273  37.499  11.373   7.029
 4479POPC   C4A59274  37.356  11.616   7.369
 4479POPC   C1B59275  37.953  11.028   6.253
 4479POPC   C2B59276  37.948  10.827   6.712
 4479POPC   C3B59277  37.849  11.003   7.116
 4479POPC   C4B59278  37.994  11.417   7.171
 4480POPC   NC359279  38.595  42.814   5.193
 4480POPC   PO459280  38.824  42.271   5.585
 4480POPC   GL159281  38.476  42.225   5.904
 4480POPC   GL259282  38.221  42.481   5.920
 4480POPC   C1A59283  38.361  42.254   6.358
 4480POPC   D2A59284  38.508  42.112   6.762
 4480POPC   C3A59285  38.445  42.353   7.138
 4480POPC   C4A59286  38.855  42.494   7.291
 4480POPC   C1B59287  38.106  42.711   6.313
 4480POPC   C2B59288  38.180  42.630   6.747
 4480POPC   C3B59289  38.118  42.795   7.164
 4480POPC   C4B59290  38.060  42.508   7.556
 4481POPC   NC359291  26.222  36.941   5.156
 4481POPC   PO459292  25.763  36.453   5.310
 4481POPC   GL159293  25.992  36.754   5.626
 4481POPC   GL259294  25.815  37.055   5.791
 4481POPC   C1A59295  26.050  36.720   6.097
 4481POPC   D2A59296  25.801  36.829   6.485
 4481POPC   C3A59297  25.918  36.660   6.907
 4481POPC   C4A59298  26.166  36.769   7.266
 4481POPC   C1B59299  25.980  37.241   6.180
 4481POPC   C2B59300  25.832  37.376   6.586
 4481POPC   C3B59301  25.626  37.102   6.886
 4481POPC   C4B59302  25.715  36.999   7.295
 4482POPC   NC359303   5.370  27.466   5.347
 4482POPC   PO459304   4.835  27.216   5.410
 4482POPC   GL159305   5.018  27.501   5.736
 4482POPC   GL259306   5.220  27.827   5.671
 4482POPC   C1A59307   4.980  27.453   6.185
 4482POPC   D2A59308   5.005  27.700   6.560
 4482POPC   C3A59309   4.882  27.525   6.940
 4482POPC   C4A59310   4.946  27.667   7.344
 4482POPC   C1B59311   5.367  27.794   6.108
 4482POPC   C2B59312   5.516  27.694   6.521
 4482POPC   C3B59313   5.348  27.815   6.952
 4482POPC   C4B59314   5.329  28.016   7.372
 4483POPC   NC359315  34.781  44.012   5.527
 4483POPC   PO459316  34.208  43.735   5.339
 4483POPC   GL159317  34.262  43.886   5.765
 4483POPC   GL259318  34.466  44.137   5.901
 4483POPC   C1A59319  34.173  43.883   6.235
 4483POPC   D2A59320  34.166  44.089   6.624
 4483POPC   C3A59321  34.453  44.049   6.939
 4483POPC   C4A59322  34.688  44.025   7.293
 4483POPC   C1B59323  34.680  43.818   6.146
 4483POPC   C2B59324  34.665  43.796   6.558
 4483POPC   C3B59325  34.961  43.804   6.866
 4483POPC   C4B59326  34.897  43.579   7.231
 4484POPC   NC359327  14.957  42.431   5.508
 4484POPC   PO459328  15.074  41.808   5.161
 4484POPC   GL159329  15.325  42.075   5.525
 4484POPC   GL259330  15.436  42.468   5.655
 4484POPC   C1A59331  15.316  42.094   5.994
 4484POPC   D2A59332  15.046  42.087   6.372
 4484POPC   C3A59333  15.217  42.119   6.786
 4484POPC   C4A59334  15.130  42.233   7.204
 4484POPC   C1B59335  15.452  42.635   6.056
 4484POPC   C2B59336  15.398  42.496   6.470
 4484POPC   C3B59337  15.383  42.617   6.894
 4484POPC   C4B59338  15.419  42.813   7.254
 4485POPC   NC359339  28.918   5.750   5.401
 4485POPC   PO459340  29.358   6.124   5.171
 4485POPC   GL159341  29.379   6.005   5.652
 4485POPC   GL259342  29.037   5.955   5.849
 4485POPC   C1A59343  29.427   6.099   6.130
 4485POPC   D2A59344  29.152   5.982   6.479
 4485POPC   C3A59345  29.312   6.085   6.888
 4485POPC   C4A59346  29.409   5.766   7.156
 4485POPC   C1B59347  28.751   5.774   6.173
 4485POPC   C2B59348  28.823   5.562   6.576
 4485POPC   C3B59349  28.927   5.718   6.992
 4485POPC   C4B59350  28.965   5.652   7.493
 4486POPC   NC359351  35.902  36.269   5.455
 4486POPC   PO459352  36.524  36.069   5.455
 4486POPC   GL159353  36.305  35.869   5.819
 4486POPC   GL259354  35.936  35.785   5.750
 4486POPC   C1A59355  36.316  36.071   6.246
 4486POPC   D2A59356  36.573  36.108   6.609
 4486POPC   C3A59357  36.407  36.138   7.009
 4486POPC   C4A59358  36.260  35.838   7.278
 4486POPC   C1B59359  35.845  35.865   6.217
 4486POPC   C2B59360  35.989  36.022   6.653
 4486POPC   C3B59361  35.895  36.144   7.088
 4486POPC   C4B59362  35.783  35.895   7.445
 4487POPC   NC359363  22.226  21.576   5.376
 4487POPC   PO459364  22.011  20.950   5.510
 4487POPC   GL159365  22.250  21.214   5.826
 4487POPC   GL259366  22.358  21.572   5.858
 4487POPC   C1A59367  22.198  21.309   6.260
 4487POPC   D2A59368  21.897  21.217   6.501
 4487POPC   C3A59369  21.998  21.190   6.920
 4487POPC   C4A59370  21.663  21.145   7.218
 4487POPC   C1B59371  22.314  21.793   6.252
 4487POPC   C2B59372  22.229  21.658   6.715
 4487POPC   C3B59373  22.139  21.650   7.189
 4487POPC   C4B59374  22.385  21.818   7.603
 4488POPC   NC359375  36.397  14.419   5.201
 4488POPC   PO459376  36.051  14.791   5.641
 4488POPC   GL159377  36.126  14.388   5.781
 4488POPC   GL259378  36.412  14.222   5.721
 4488POPC   C1A59379  36.071  14.204   6.193
 4488POPC   D2A59380  35.885  14.277   6.611
 4488POPC   C3A59381  36.015  14.491   6.953
 4488POPC   C4A59382  35.931  14.332   7.329
 4488POPC   C1B59383  36.558  14.327   6.156
 4488POPC   C2B59384  36.413  14.398   6.598
 4488POPC   C3B59385  36.404  14.175   7.001
 4488POPC   C4B59386  36.389  14.212   7.469
 4489POPC   NC359387  18.510  32.924   5.348
 4489POPC   PO459388  18.404  33.555   5.602
 4489POPC   GL159389  18.228  33.355   5.938
 4489POPC   GL259390  18.306  33.033   5.821
 4489POPC   C1A59391  18.202  33.129   6.323
 4489POPC   D2A59392  18.474  33.155   6.661
 4489POPC   C3A59393  18.344  33.168   7.052
 4489POPC   C4A59394  18.177  33.527   7.131
 4489POPC   C1B59395  18.081  32.699   6.042
 4489POPC   C2B59396  17.915  32.631   6.430
 4489POPC   C3B59397  18.030  32.828   6.805
 4489POPC   C4B59398  18.115  32.723   7.220
 4490POPC   NC359399  43.118  35.088   5.219
 4490POPC   PO459400  43.449  35.684   5.450
 4490POPC   GL159401  43.201  35.549   5.773
 4490POPC   GL259402  43.218  35.183   5.727
 4490POPC   C1A59403  43.271  35.530   6.201
 4490POPC   D2A59404  43.074  35.654   6.572
 4490POPC   C3A59405  43.254  35.519   6.977
 4490POPC   C4A59406  43.115  35.531   7.413
 4490POPC   C1B59407  43.109  35.057   6.147
 4490POPC   C2B59408  43.211  35.123   6.603
 4490POPC   C3B59409  42.949  35.084   6.994
 4490POPC   C4B59410  43.142  35.029   7.378
 4491POPC   NC359411  14.350  25.068   5.209
 4491POPC   PO459412  14.557  25.705   5.123
 4491POPC   GL159413  14.184  25.427   5.528
 4491POPC   GL259414  14.251  25.058   5.696
 4491POPC   C1A59415  14.130  25.384   6.048
 4491POPC   D2A59416  14.195  25.558   6.471
 4491POPC   C3A59417  14.191  25.364   6.895
 4491POPC   C4A59418  14.308  25.416   7.324
 4491POPC   C1B59419  14.346  24.893   6.097
 4491POPC   C2B59420  14.355  25.060   6.507
 4491POPC   C3B59421  14.434  24.865   6.901
 4491POPC   C4B59422  14.501  24.937   7.315
 4492POPC   NC359423  43.784  37.093   5.366
 4492POPC   PO459424  44.036  36.471   5.257
 4492POPC   GL159425  44.050  36.667   5.687
 4492POPC   GL259426  44.100  36.341   5.855
 4492POPC   C1A59427  43.921  36.964   6.048
 4492POPC   D2A59428  43.632  36.941   6.429
 4492POPC   C3A59429  43.780  36.923   6.866
 4492POPC   C4A59430  43.847  37.200   7.231
 4492POPC   C1B59431  44.105  36.532   6.274
 4492POPC   C2B59432  44.167  36.919   6.505
 4492POPC   C3B59433  44.267  37.070   6.904
 4492POPC   C4B59434  44.201  36.819   7.261
 4493POPC   NC359435  29.580   3.467   5.280
 4493POPC   PO459436  30.040   3.908   5.359
 4493POPC   GL159437  29.846   3.800   5.760
 4493POPC   GL259438  29.823   3.451   5.756
 4493POPC   C1A59439  29.952   3.845   6.209
 4493POPC   D2A59440  30.243   3.890   6.575
 4493POPC   C3A59441  30.126   3.762   6.995
 4493POPC   C4A59442  29.967   3.826   7.433
 4493POPC   C1B59443  29.899   3.334   6.198
 4493POPC   C2B59444  30.046   3.392   6.623
 4493POPC   C3B59445  29.958   3.288   7.081
 4493POPC   C4B59446  30.215   3.380   7.455
 4494POPC   NC359447  13.806   6.309   5.493
 4494POPC   PO459448  13.964   6.971   5.368
 4494POPC   GL159449  13.640   6.776   5.717
 4494POPC   GL259450  13.369   7.065   5.798
 4494POPC   C1A59451  13.674   6.622   6.132
 4494POPC   D2A59452  13.786   6.729   6.551
 4494POPC   C3A59453  13.593   6.485   6.882
 4494POPC   C4A59454  13.787   6.573   7.282
 4494POPC   C1B59455  13.319   7.026   6.212
 4494POPC   C2B59456  13.303   6.923   6.644
 4494POPC   C3B59457  13.513   6.959   7.049
 4494POPC   C4B59458  13.352   6.775   7.419
 4495POPC   NC359459  26.250  17.234   5.367
 4495POPC   PO459460  25.960  17.834   5.574
 4495POPC   GL159461  25.971  17.439   5.815
 4495POPC   GL259462  25.732  17.227   5.625
 4495POPC   C1A59463  26.048  17.414   6.285
 4495POPC   D2A59464  26.331  17.590   6.650
 4495POPC   C3A59465  26.138  17.744   7.045
 4495POPC   C4A59466  25.757  17.781   7.282
 4495POPC   C1B59467  25.696  17.050   6.060
 4495POPC   C2B59468  25.653  17.141   6.512
 4495POPC   C3B59469  25.780  16.983   6.898
 4495POPC   C4B59470  25.919  17.282   7.185
 4496POPC   NC359471   7.512  36.255   5.389
 4496POPC   PO459472   7.095  35.735   5.413
 4496POPC   GL159473   7.271  35.930   5.743
 4496POPC   GL259474   7.601  35.841   5.776
 4496POPC   C1A59475   7.215  36.011   6.180
 4496POPC   D2A59476   7.429  35.990   6.569
 4496POPC   C3A59477   7.167  36.057   6.927
 4496POPC   C4A59478   7.291  36.017   7.351
 4496POPC   C1B59479   7.697  36.192   6.081
 4496POPC   C2B59480   7.773  36.364   6.511
 4496POPC   C3B59481   7.654  36.250   7.008
 4496POPC   C4B59482   7.735  36.340   7.476
 4497POPC   NC359483   2.109  11.413   4.913
 4497POPC   PO459484   2.194  11.574   5.565
 4497POPC   GL159485   2.020  11.438   5.911
 4497POPC   GL259486   1.972  11.100   5.863
 4497POPC   C1A59487   1.854  11.326   6.303
 4497POPC   D2A59488   2.148  11.497   6.541
 4497POPC   C3A59489   2.092  11.350   6.915
 4497POPC   C4A59490   1.866  11.581   7.218
 4497POPC   C1B59491   2.269  10.993   6.210
 4497POPC   C2B59492   2.233  10.773   6.615
 4497POPC   C3B59493   2.340  10.915   7.026
 4497POPC   C4B59494   2.092  11.110   7.353
 4498POPC   NC359495  37.367  21.439   5.459
 4498POPC   PO459496  37.958  21.160   5.356
 4498POPC   GL159497  37.806  21.200   5.757
 4498POPC   GL259498  37.705  21.545   5.829
 4498POPC   C1A59499  37.737  21.200   6.203
 4498POPC   D2A59500  37.732  21.542   6.493
 4498POPC   C3A59501  37.870  21.410   6.902
 4498POPC   C4A59502  37.636  21.500   7.263
 4498POPC   C1B59503  37.314  21.705   6.058
 4498POPC   C2B59504  37.310  21.847   6.473
 4498POPC   C3B59505  37.314  21.626   6.879
 4498POPC   C4B59506  37.219  21.808   7.280
 4499POPC   NC359507   8.276   5.232   5.394
 4499POPC   PO459508   7.806   4.859   5.256
 4499POPC   GL159509   8.022   4.892   5.676
 4499POPC   GL259510   7.893   5.247   5.749
 4499POPC   C1A59511   8.306   4.877   6.075
 4499POPC   D2A59512   8.186   4.744   6.510
 4499POPC   C3A59513   8.300   4.996   6.870
 4499POPC   C4A59514   8.545   5.247   7.104
 4499POPC   C1B59515   7.844   5.070   6.153
 4499POPC   C2B59516   7.988   5.222   6.533
 4499POPC   C3B59517   7.824   5.170   6.942
 4499POPC   C4B59518   8.056   5.218   7.299
 4500POPC   NC359519  41.066   2.244   4.974
 4500POPC   PO459520  41.208   1.753   5.410
 4500POPC   GL159521  40.846   1.746   5.783
 4500POPC   GL259522  40.683   2.075   5.820
 4500POPC   C1A59523  40.729   1.877   6.277
 4500POPC   D2A59524  41.030   1.895   6.668
 4500POPC   C3A59525  40.899   1.927   7.114
 4500POPC   C4A59526  41.126   2.184   7.426
 4500POPC   C1B59527  40.388   2.279   6.103
 4500POPC   C2B59528  40.463   2.445   6.506
 4500POPC   C3B59529  40.768   2.323   6.796
 4500POPC   C4B59530  40.706   2.388   7.228
 4501POPC   NC359531  20.510  20.429   5.331
 4501POPC   PO459532  21.070  20.726   5.258
 4501POPC   GL159533  20.770  20.653   5.713
 4501POPC   GL259534  20.992  20.810   5.981
 4501POPC   C1A59535  20.531  20.637   6.155
 4501POPC   D2A59536  20.537  20.429   6.610
 4501POPC   C3A59537  20.522  20.640   7.062
 4501POPC   C4A59538  20.441  20.699   7.545
 4501POPC   C1B59539  20.990  20.574   6.361
 4501POPC   C2B59540  21.010  20.560   6.775
 4501POPC   C3B59541  20.943  20.366   7.123
 4501POPC   C4B59542  20.933  20.677   7.418
 4502POPC   NC359543  26.786   9.245   5.447
 4502POPC   PO459544  26.733   8.583   5.527
 4502POPC   GL159545  26.832   8.892   5.859
 4502POPC   GL259546  27.020   9.241   5.883
 4502POPC   C1A59547  26.772   8.772   6.302
 4502POPC   D2A59548  26.500   8.911   6.613
 4502POPC   C3A59549  26.498   8.748   6.975
 4502POPC   C4A59550  26.668   9.096   7.162
 4502POPC   C1B59551  27.200   9.014   6.202
 4502POPC   C2B59552  27.263   8.767   6.583
 4502POPC   C3B59553  27.165   8.940   6.979
 4502POPC   C4B59554  27.128   9.149   7.369
 4503POPC   NC359555  36.553  10.556   5.483
 4503POPC   PO459556  37.199  10.395   5.564
 4503POPC   GL159557  36.916  10.625   5.893
 4503POPC   GL259558  36.629  10.904   5.831
 4503POPC   C1A59559  36.909  10.616   6.364
 4503POPC   D2A59560  36.821  10.278   6.668
 4503POPC   C3A59561  36.831  10.285   7.111
 4503POPC   C4A59562  36.775  10.400   7.528
 4503POPC   C1B59563  36.416  10.635   6.168
 4503POPC   C2B59564  36.435  10.623   6.619
 4503POPC   C3B59565  36.819  10.736   6.869
 4503POPC   C4B59566  36.752  10.834   7.250
 4504POPC   NC359567   6.105  32.410   5.530
 4504POPC   PO459568   5.472  32.468   5.405
 4504POPC   GL159569   5.705  32.223   5.781
 4504POPC   GL259570   5.877  32.492   5.979
 4504POPC   C1A59571   5.785  32.085   6.268
 4504POPC   D2A59572   5.868  32.252   6.727
 4504POPC   C3A59573   5.717  32.111   7.179
 4504POPC   C4A59574   5.486  32.064   7.602
 4504POPC   C1B59575   6.256  32.301   6.208
 4504POPC   C2B59576   6.370  32.150   6.638
 4504POPC   C3B59577   6.257  32.252   7.091
 4504POPC   C4B59578   6.110  32.178   7.524
 4505POPC   NC359579  21.891  11.008   5.482
 4505POPC   PO459580  21.351  11.344   5.407
 4505POPC   GL159581  21.587  11.325   5.813
 4505POPC   GL259582  21.708  11.627   5.938
 4505POPC   C1A59583  21.451  11.274   6.256
 4505POPC   D2A59584  21.278  10.942   6.523
 4505POPC   C3A59585  21.209  11.134   6.916
 4505POPC   C4A59586  21.282  11.566   6.905
 4505POPC   C1B59587  21.891  11.732   6.321
 4505POPC   C2B59588  21.762  11.978   6.669
 4505POPC   C3B59589  21.731  11.743   7.047
 4505POPC   C4B59590  21.681  11.330   7.212
 4506POPC   NC359591  19.994  13.453   5.245
 4506POPC   PO459592  19.743  14.038   5.438
 4506POPC   GL159593  19.999  13.718   5.732
 4506POPC   GL259594  20.167  13.363   5.723
 4506POPC   C1A59595  19.923  13.582   6.178
 4506POPC   D2A59596  19.920  13.778   6.611
 4506POPC   C3A59597  19.583  13.812   6.949
 4506POPC   C4A59598  19.427  13.860   7.389
 4506POPC   C1B59599  20.325  13.246   6.150
 4506POPC   C2B59600  20.073  13.233   6.546
 4506POPC   C3B59601  20.124  13.449   6.951
 4506POPC   C4B59602  20.181  13.618   7.376
 4507POPC   NC359603  20.809   8.281   5.601
 4507POPC   PO459604  21.409   8.092   5.415
 4507POPC   GL159605  21.412   8.307   5.760
 4507POPC   GL259606  21.229   8.618   5.714
 4507POPC   C1A59607  21.514   8.167   6.150
 4507POPC   D2A59608  21.308   8.234   6.530
 4507POPC   C3A59609  21.534   8.198   6.869
 4507POPC   C4A59610  21.280   8.095   7.222
 4507POPC   C1B59611  21.271   8.616   6.164
 4507POPC   C2B59612  21.082   8.703   6.569
 4507POPC   C3B59613  21.120   8.521   6.968
 4507POPC   C4B59614  21.514   8.542   7.227
 4508POPC   NC359615  44.987   5.329   5.115
 4508POPC   PO459616  44.668   5.879   5.195
 4508POPC   GL159617  44.820   5.918   5.632
 4508POPC   GL259618  44.515   5.998   5.800
 4508POPC   C1A59619  44.931   5.901   6.087
 4508POPC   D2A59620  44.889   5.592   6.438
 4508POPC   C3A59621  44.823   5.709   6.870
 4508POPC   C4A59622  44.937   5.769   7.290
 4508POPC   C1B59623  44.450   5.733   6.168
 4508POPC   C2B59624  44.406   5.578   6.584
 4508POPC   C3B59625  44.228   5.708   6.949
 4508POPC   C4B59626  44.416   5.915   7.258
 4509POPC   NC359627  25.057  16.365   5.338
 4509POPC   PO459628  24.408  16.138   5.464
 4509POPC   GL159629  24.669  16.140   5.749
 4509POPC   GL259630  24.408  16.111   5.988
 4509POPC   C1A59631  24.922  16.205   6.095
 4509POPC   D2A59632  24.973  15.905   6.429
 4509POPC   C3A59633  24.673  16.002   6.762
 4509POPC   C4A59634  24.703  15.988   7.203
 4509POPC   C1B59635  24.212  15.977   6.360
 4509POPC   C2B59636  24.167  15.794   6.744
 4509POPC   C3B59637  24.197  15.979   7.132
 4509POPC   C4B59638  24.338  16.336   7.330
 4510POPC   NC359639  11.763  12.694   5.296
 4510POPC   PO459640  11.127  12.767   5.365
 4510POPC   GL159641  11.382  12.712   5.766
 4510POPC   GL259642  11.630  12.922   5.774
 4510POPC   C1A59643  11.577  12.633   6.231
 4510POPC   D2A59644  11.692  12.690   6.720
 4510POPC   C3A59645  11.340  12.663   7.068
 4510POPC   C4A59646  11.326  12.656   7.539
 4510POPC   C1B59647  11.568  13.140   6.148
 4510POPC   C2B59648  11.674  13.178   6.568
 4510POPC   C3B59649  11.463  13.172   6.953
 4510POPC   C4B59650  11.246  13.132   7.343
 4511POPC   NC359651  27.405  29.165   5.390
 4511POPC   PO459652  27.257  29.775   5.573
 4511POPC   GL159653  27.406  29.438   5.841
 4511POPC   GL259654  27.692  29.492   5.980
 4511POPC   C1A59655  27.372  29.167   6.238
 4511POPC   D2A59656  27.124  29.133   6.625
 4511POPC   C3A59657  27.306  29.137   7.050
 4511POPC   C4A59658  27.264  29.269   7.486
 4511POPC   C1B59659  27.766  29.441   6.418
 4511POPC   C2B59660  27.663  29.092   6.682
 4511POPC   C3B59661  27.703  28.824   7.029
 4511POPC   C4B59662  27.701  29.011   7.438
 4512POPC   NC359663   4.002  21.385   5.456
 4512POPC   PO459664   4.443  21.846   5.560
 4512POPC   GL159665   4.565  21.642   5.895
 4512POPC   GL259666   4.411  21.307   5.787
 4512POPC   C1A59667   4.537  21.424   6.277
 4512POPC   D2A59668   4.483  21.067   6.491
 4512POPC   C3A59669   4.446  21.253   6.890
 4512POPC   C4A59670   4.409  21.659   7.174
 4512POPC   C1B59671   4.107  21.166   6.093
 4512POPC   C2B59672   3.979  21.021   6.473
 4512POPC   C3B59673   3.922  21.176   6.842
 4512POPC   C4B59674   4.054  21.316   7.219
 4513POPC   NC359675  41.735  13.579   5.376
 4513POPC   PO459676  41.003  13.531   5.391
 4513POPC   GL159677  41.242  13.593   5.803
 4513POPC   GL259678  41.600  13.477   5.864
 4513POPC   C1A59679  41.392  13.717   6.251
 4513POPC   D2A59680  41.560  13.655   6.690
 4513POPC   C3A59681  41.423  13.886   7.074
 4513POPC   C4A59682  41.551  13.927   7.523
 4513POPC   C1B59683  41.308  13.216   6.127
 4513POPC   C2B59684  41.448  13.067   6.489
 4513POPC   C3B59685  41.373  13.138   6.906
 4513POPC   C4B59686  41.640  13.396   7.155
 4514POPC   NC359687  26.518  42.708   5.459
 4514POPC   PO459688  26.684  42.145   5.324
 4514POPC   GL159689  26.715  42.296   5.769
 4514POPC   GL259690  26.927  42.599   5.795
 4514POPC   C1A59691  26.807  42.227   6.242
 4514POPC   D2A59692  26.975  42.321   6.686
 4514POPC   C3A59693  26.737  42.158   7.025
 4514POPC   C4A59694  26.339  42.103   7.206
 4514POPC   C1B59695  26.941  42.711   6.247
 4514POPC   C2B59696  26.924  42.864   6.716
 4514POPC   C3B59697  26.881  42.665   7.131
 4514POPC   C4B59698  26.644  42.416   7.483
 4515POPC   NC359699   8.839  44.106   5.514
 4515POPC   PO459700   9.361  43.665   5.640
 4515POPC   GL159701   8.967  43.803   5.895
 4515POPC   GL259702   9.160  44.115   5.955
 4515POPC   C1A59703   8.730  44.144   6.206
 4515POPC   D2A59704   8.885  44.261   6.648
 4515POPC   C3A59705   8.612  44.066   6.966
 4515POPC   C4A59706   8.588  43.652   7.104
 4515POPC   C1B59707   9.162  43.917   6.356
 4515POPC   C2B59708   9.340  43.897   6.737
 4515POPC   C3B59709   9.077  43.882   7.051
 4515POPC   C4B59710   8.889  44.030   7.412
 4516POPC   NC359711  34.850  13.555   5.133
 4516POPC   PO459712  34.515  13.983   5.434
 4516POPC   GL159713  34.446  13.728   5.840
 4516POPC   GL259714  34.578  13.387   5.939
 4516POPC   C1A59715  34.701  13.775   6.250
 4516POPC   D2A59716  34.897  14.036   6.584
 4516POPC   C3A59717  34.693  13.948   6.958
 4516POPC   C4A59718  34.563  13.548   7.164
 4516POPC   C1B59719  34.832  13.272   6.322
 4516POPC   C2B59720  34.911  13.436   6.747
 4516POPC   C3B59721  34.949  13.206   7.128
 4516POPC   C4B59722  34.568  13.083   7.404
 4517POPC   NC359723  14.661  11.485   5.456
 4517POPC   PO459724  14.205  10.981   5.499
 4517POPC   GL159725  14.295  11.280   5.825
 4517POPC   GL259726  14.010  11.171   5.950
 4517POPC   C1A59727  14.426  11.255   6.274
 4517POPC   D2A59728  14.666  11.451   6.620
 4517POPC   C3A59729  14.578  11.299   6.994
 4517POPC   C4A59730  14.623  11.576   7.322
 4517POPC   C1B59731  13.881  11.296   6.298
 4517POPC   C2B59732  14.035  11.226   6.673
 4517POPC   C3B59733  14.077  11.401   7.041
 4517POPC   C4B59734  13.991  11.128   7.325
 4518POPC   NC359735  41.720  11.716   5.373
 4518POPC   PO459736  41.297  12.201   5.403
 4518POPC   GL159737  41.531  12.057   5.739
 4518POPC   GL259738  41.868  12.100   5.686
 4518POPC   C1A59739  41.611  12.216   6.151
 4518POPC   D2A59740  41.331  12.179   6.487
 4518POPC   C3A59741  41.331  12.206   6.949
 4518POPC   C4A59742  41.124  12.136   7.319
 4518POPC   C1B59743  41.863  11.767   6.020
 4518POPC   C2B59744  41.851  11.825   6.453
 4518POPC   C3B59745  41.812  12.052   6.833
 4518POPC   C4B59746  41.653  11.892   7.228
 4519POPC   NC359747  18.310   1.678   5.347
 4519POPC   PO459748  17.751   2.015   5.441
 4519POPC   GL159749  18.091   2.126   5.765
 4519POPC   GL259750  18.448   2.008   5.745
 4519POPC   C1A59751  18.276   2.142   6.223
 4519POPC   D2A59752  18.214   1.892   6.613
 4519POPC   C3A59753  18.219   1.985   7.069
 4519POPC   C4A59754  17.953   1.711   7.322
 4519POPC   C1B59755  18.727   1.918   6.084
 4519POPC   C2B59756  18.699   2.026   6.519
 4519POPC   C3B59757  18.712   1.905   6.939
 4519POPC   C4B59758  18.706   2.011   7.375
 4520POPC   NC359759   4.762  15.379   5.421
 4520POPC   PO459760   4.035  15.373   5.302
 4520POPC   GL159761   4.281  15.275   5.660
 4520POPC   GL259762   4.517  15.500   5.839
 4520POPC   C1A59763   4.203  15.207   6.113
 4520POPC   D2A59764   4.051  15.186   6.555
 4520POPC   C3A59765   4.293  15.189   6.953
 4520POPC   C4A59766   3.969  15.113   7.251
 4520POPC   C1B59767   4.546  15.672   6.244
 4520POPC   C2B59768   4.580  15.578   6.698
 4520POPC   C3B59769   4.834  15.504   7.071
 4520POPC   C4B59770   4.787  15.469   7.539
 4521POPC   NC359771  17.411   1.681   5.611
 4521POPC   PO459772  17.049   2.097   5.249
 4521POPC   GL159773  17.187   2.130   5.737
 4521POPC   GL259774  17.538   2.089   5.914
 4521POPC   C1A59775  17.141   1.874   6.159
 4521POPC   D2A59776  17.373   1.657   6.506
 4521POPC   C3A59777  17.413   1.808   6.946
 4521POPC   C4A59778  17.423   1.568   7.328
 4521POPC   C1B59779  17.552   2.186   6.379
 4521POPC   C2B59780  17.772   2.171   6.804
 4521POPC   C3B59781  17.776   2.199   7.265
 4521POPC   C4B59782  17.783   2.133   7.721
 4522POPC   NC359783  38.282  10.374   5.305
 4522POPC   PO459784  38.709  10.685   4.949
 4522POPC   GL159785  38.606  10.714   5.499
 4522POPC   GL259786  38.502  10.401   5.768
 4522POPC   C1A59787  38.545  10.840   6.011
 4522POPC   D2A59788  38.416  10.880   6.465
 4522POPC   C3A59789  38.498  10.627   6.842
 4522POPC   C4A59790  38.192  10.628   7.178
 4522POPC   C1B59791  38.277  10.333   6.213
 4522POPC   C2B59792  38.326  10.160   6.666
 4522POPC   C3B59793  38.408  10.168   7.132
 4522POPC   C4B59794  38.555  10.157   7.556
 4523POPC   NC359795  41.960  29.987   5.440
 4523POPC   PO459796  42.602  29.715   5.427
 4523POPC   GL159797  42.343  29.878   5.806
 4523POPC   GL259798  42.077  30.136   5.899
 4523POPC   C1A59799  42.469  30.074   6.228
 4523POPC   D2A59800  42.401  30.270   6.624
 4523POPC   C3A59801  42.491  30.002   6.955
 4523POPC   C4A59802  42.270  29.659   7.088
 4523POPC   C1B59803  42.016  29.785   6.197
 4523POPC   C2B59804  42.064  29.865   6.634
 4523POPC   C3B59805  41.926  30.041   7.022
 4523POPC   C4B59806  41.918  29.837   7.415
 4524POPC   NC359807  12.847   5.165   5.351
 4524POPC   PO459808  13.017   4.550   5.543
 4524POPC   GL159809  12.997   4.889   5.807
 4524POPC   GL259810  12.658   4.938   5.819
 4524POPC   C1A59811  12.890   5.030   6.243
 4524POPC   D2A59812  13.028   5.212   6.614
 4524POPC   C3A59813  12.884   4.930   6.914
 4524POPC   C4A59814  12.987   4.785   7.297
 4524POPC   C1B59815  12.596   5.376   5.990
 4524POPC   C2B59816  12.534   5.569   6.403
 4524POPC   C3B59817  12.648   5.518   6.840
 4524POPC   C4B59818  12.745   5.277   7.233
 4525POPC   NC359819  41.105  24.451   5.444
 4525POPC   PO459820  41.696  24.746   5.248
 4525POPC   GL159821  41.765  24.591   5.696
 4525POPC   GL259822  41.715  24.222   5.709
 4525POPC   C1A59823  41.581  24.555   6.134
 4525POPC   D2A59824  41.662  24.785   6.517
 4525POPC   C3A59825  41.581  24.683   6.951
 4525POPC   C4A59826  41.558  24.710   7.409
 4525POPC   C1B59827  41.916  24.181   6.139
 4525POPC   C2B59828  41.764  24.270   6.582
 4525POPC   C3B59829  41.870  24.269   7.029
 4525POPC   C4B59830  41.462  24.237   7.257
 4526POPC   NC359831  24.155  38.191   5.428
 4526POPC   PO459832  24.784  38.604   5.415
 4526POPC   GL159833  24.582  38.582   5.810
 4526POPC   GL259834  24.276  38.568   5.794
 4526POPC   C1A59835  24.674  38.432   6.210
 4526POPC   D2A59836  24.916  38.483   6.578
 4526POPC   C3A59837  24.664  38.391   6.947
 4526POPC   C4A59838  24.652  38.582   7.336
 4526POPC   C1B59839  24.132  38.440   6.165
 4526POPC   C2B59840  24.129  38.450   6.584
 4526POPC   C3B59841  24.035  38.193   6.908
 4526POPC   C4B59842  24.275  38.196   7.283
 4527POPC   NC359843  23.867  26.892   5.511
 4527POPC   PO459844  23.868  26.206   5.406
 4527POPC   GL159845  23.966  26.490   5.772
 4527POPC   GL259846  23.650  26.537   5.934
 4527POPC   C1A59847  24.040  26.749   6.146
 4527POPC   D2A59848  23.731  26.871   6.463
 4527POPC   C3A59849  23.795  26.819   6.905
 4527POPC   C4A59850  24.003  27.125   7.147
 4527POPC   C1B59851  23.572  26.333   6.310
 4527POPC   C2B59852  23.429  26.522   6.682
 4527POPC   C3B59853  23.456  26.438   7.089
 4527POPC   C4B59854  23.457  26.528   7.488
 4528POPC   NC359855   9.782  20.988   5.401
 4528POPC   PO459856   9.405  21.568   5.503
 4528POPC   GL159857   9.675  21.298   5.799
 4528POPC   GL259858   9.956  21.034   5.861
 4528POPC   C1A59859   9.757  21.363   6.209
 4528POPC   D2A59860   9.869  21.619   6.527
 4528POPC   C3A59861   9.667  21.487   6.877
 4528POPC   C4A59862   9.666  21.675   7.257
 4528POPC   C1B59863  10.126  20.894   6.216
 4528POPC   C2B59864   9.980  21.072   6.598
 4528POPC   C3B59865  10.062  21.184   7.015
 4528POPC   C4B59866   9.849  21.235   7.431
 4529POPC   NC359867   3.072  22.733   5.521
 4529POPC   PO459868   2.474  23.029   5.373
 4529POPC   GL159869   2.561  22.739   5.747
 4529POPC   GL259870   2.777  22.969   5.851
 4529POPC   C1A59871   2.663  22.674   6.234
 4529POPC   D2A59872   2.788  22.890   6.612
 4529POPC   C3A59873   2.746  22.759   7.025
 4529POPC   C4A59874   3.054  22.662   7.343
 4529POPC   C1B59875   2.808  23.205   6.199
 4529POPC   C2B59876   2.796  23.384   6.573
 4529POPC   C3B59877   2.896  23.290   6.948
 4529POPC   C4B59878   2.707  23.398   7.293
 4530POPC   NC359879  43.275  13.448   5.456
 4530POPC   PO459880  43.001  14.079   5.255
 4530POPC   GL159881  43.051  13.866   5.681
 4530POPC   GL259882  42.881  13.551   5.804
 4530POPC   C1A59883  43.241  13.772   6.113
 4530POPC   D2A59884  43.556  13.759   6.455
 4530POPC   C3A59885  43.378  13.774   6.862
 4530POPC   C4A59886  43.519  13.771   7.253
 4530POPC   C1B59887  43.024  13.288   6.187
 4530POPC   C2B59888  43.139  13.372   6.631
 4530POPC   C3B59889  43.260  13.319   7.085
 4530POPC   C4B59890  43.256  13.450   7.526
 4531POPC   NC359891   2.955  24.280   5.423
 4531POPC   PO459892   2.596  24.706   5.414
 4531POPC   GL159893   2.640  24.470   5.834
 4531POPC   GL259894   2.723  24.102   5.871
 4531POPC   C1A59895   2.622  24.573   6.297
 4531POPC   D2A59896   2.623  24.863   6.660
 4531POPC   C3A59897   2.572  24.663   7.078
 4531POPC   C4A59898   2.488  24.755   7.535
 4531POPC   C1B59899   2.593  24.063   6.337
 4531POPC   C2B59900   2.511  24.228   6.781
 4531POPC   C3B59901   2.799  24.188   7.161
 4531POPC   C4B59902   3.120  24.123   7.512
 4532POPC   NC359903  11.170  10.386   5.453
 4532POPC   PO459904  10.921  11.022   5.547
 4532POPC   GL159905  11.180  10.694   5.862
 4532POPC   GL259906  11.444  10.355   5.850
 4532POPC   C1A59907  11.312  10.539   6.275
 4532POPC   D2A59908  11.559  10.707   6.569
 4532POPC   C3A59909  11.385  10.620   6.962
 4532POPC   C4A59910  11.059  10.858   7.180
 4532POPC   C1B59911  11.761  10.309   6.230
 4532POPC   C2B59912  11.770  10.246   6.693
 4532POPC   C3B59913  11.641  10.167   7.106
 4532POPC   C4B59914  11.382  10.418   7.429
 4533POPC   NC359915  19.176   3.235   5.511
 4533POPC   PO459916  19.104   2.565   5.426
 4533POPC   GL159917  18.909   2.720   5.808
 4533POPC   GL259918  18.644   2.966   5.695
 4533POPC   C1A59919  19.148   2.743   6.226
 4533POPC   D2A59920  19.364   2.772   6.691
 4533POPC   C3A59921  19.417   2.898   7.166
 4533POPC   C4A59922  19.431   3.047   7.627
 4533POPC   C1B59923  18.691   3.028   6.163
 4533POPC   C2B59924  18.866   2.920   6.583
 4533POPC   C3B59925  18.932   2.892   6.992
 4533POPC   C4B59926  18.608   2.900   7.249
 4534POPC   NC359927  40.885  25.410   5.541
 4534POPC   PO459928  40.704  24.765   5.514
 4534POPC   GL159929  40.562  25.106   5.836
 4534POPC   GL259930  40.453  25.490   5.818
 4534POPC   C1A59931  40.799  25.139   6.237
 4534POPC   D2A59932  41.006  24.864   6.575
 4534POPC   C3A59933  40.953  25.100   6.947
 4534POPC   C4A59934  41.069  25.505   7.132
 4534POPC   C1B59935  40.509  25.569   6.252
 4534POPC   C2B59936  40.765  25.546   6.620
 4534POPC   C3B59937  40.562  25.460   6.967
 4534POPC   C4B59938  40.406  25.092   7.135
 4535POPC   NC359939  44.371   1.135   5.397
 4535POPC   PO459940  44.707   1.594   5.405
 4535POPC   GL159941  44.460   1.511   5.780
 4535POPC   GL259942  44.565   1.167   5.870
 4535POPC   C1A59943  44.446   1.476   6.239
 4535POPC   D2A59944  44.644   1.443   6.642
 4535POPC   C3A59945  44.461   1.450   7.044
 4535POPC   C4A59946  44.615   1.417   7.470
 4535POPC   C1B59947  44.856   1.150   6.248
 4535POPC   C2B59948   0.087   1.197   6.666
 4535POPC   C3B59949  44.932   1.239   7.103
 4535POPC   C4B59950  44.598   0.953   7.277
 4536POPC   NC359951  34.170  10.911   5.500
 4536POPC   PO459952  33.468  10.584   5.501
 4536POPC   GL159953  33.579  10.409   5.938
 4536POPC   GL259954  33.959  10.554   5.922
 4536POPC   C1A59955  33.799  10.262   6.308
 4536POPC   D2A59956  33.841  10.456   6.678
 4536POPC   C3A59957  33.581  10.392   7.036
 4536POPC   C4A59958  33.821  10.424   7.416
 4536POPC   C1B59959  34.200  10.693   6.240
 4536POPC   C2B59960  34.349  10.601   6.646
 4536POPC   C3B59961  34.178  10.523   7.044
 4536POPC   C4B59962  34.034  10.863   7.291
 4537POPC   NC359963  13.036  38.660   5.408
 4537POPC   PO459964  12.707  38.025   5.379
 4537POPC   GL159965  12.717  38.391   5.707
 4537POPC   GL259966  13.019  38.386   5.865
 4537POPC   C1A59967  12.630  38.600   6.105
 4537POPC   D2A59968  12.704  38.403   6.465
 4537POPC   C3A59969  12.684  38.457   6.892
 4537POPC   C4A59970  13.024  38.231   7.127
 4537POPC   C1B59971  13.126  38.712   6.188
 4537POPC   C2B59972  12.913  38.858   6.575
 4537POPC   C3B59973  13.070  38.750   7.000
 4537POPC   C4B59974  12.927  38.764   7.419
 4538POPC   NC359975   7.205  41.399   5.378
 4538POPC   PO459976   7.870  41.614   5.502
 4538POPC   GL159977   7.580  41.544   5.796
 4538POPC   GL259978   7.413  41.217   5.818
 4538POPC   C1A59979   7.623  41.426   6.221
 4538POPC   D2A59980   7.329  41.374   6.545
 4538POPC   C3A59981   7.640  41.367   6.831
 4538POPC   C4A59982   7.881  41.448   7.179
 4538POPC   C1B59983   7.120  41.525   6.073
 4538POPC   C2B59984   6.968  41.707   6.498
 4538POPC   C3B59985   7.042  41.619   6.943
 4538POPC   C4B59986   7.361  41.447   7.243
 4539POPC   NC359987  35.896   0.946   5.446
 4539POPC   PO459988  36.497   1.333   5.321
 4539POPC   GL159989  36.282   1.188   5.730
 4539POPC   GL259990  35.945   1.225   5.869
 4539POPC   C1A59991  36.356   1.167   6.195
 4539POPC   D2A59992  36.096   1.076   6.592
 4539POPC   C3A59993  36.286   1.160   7.001
 4539POPC   C4A59994  36.425   1.554   7.198
 4539POPC   C1B59995  35.777   1.353   6.248
 4539POPC   C2B59996  35.848   1.561   6.640
 4539POPC   C3B59997  35.916   1.494   7.069
 4539POPC   C4B59998  35.951   1.439   7.534
 4540POPC   NC359999  31.526  20.556   4.920
 4540POPC   PO460000  31.805  20.177   5.484
 4540POPC   GL160001  31.652  20.496   5.855
 4540POPC   GL260002  31.512  20.840   5.729
 4540POPC   C1A60003  31.334  20.598   6.146
 4540POPC   D2A60004  31.346  20.697   6.552
 4540POPC   C3A60005  31.176  20.512   6.919
 4540POPC   C4A60006  31.463  20.463   7.263
 4540POPC   C1B60007  31.220  21.100   5.982
 4540POPC   C2B60008  31.189  21.172   6.444
 4540POPC   C3B60009  31.101  21.132   6.926
 4540POPC   C4B60010  31.109  20.838   7.319
 4541POPC   NC360011  30.443  18.094   5.603
 4541POPC   PO460012  29.878  18.347   5.294
 4541POPC   GL160013  29.730  18.435   5.769
 4541POPC   GL260014  30.060  18.358   5.895
 4541POPC   C1A60015  29.717  18.533   6.253
 4541POPC   D2A60016  29.999  18.376   6.617
 4541POPC   C3A60017  29.937  18.458   7.076
 4541POPC   C4A60018  29.755  18.416   7.487
 4541POPC   C1B60019  30.244  18.083   6.242
 4541POPC   C2B60020  30.426  18.058   6.645
 4541POPC   C3B60021  30.346  18.160   7.061
 4541POPC   C4B60022  30.091  17.997   7.414
 4542POPC   NC360023   6.081  36.612   5.374
 4542POPC   PO460024   5.728  36.044   5.404
 4542POPC   GL160025   5.919  36.190   5.738
 4542POPC   GL260026   5.607  36.265   5.880
 4542POPC   C1A60027   5.983  36.032   6.167
 4542POPC   D2A60028   5.827  36.182   6.579
 4542POPC   C3A60029   6.171  36.186   6.873
 4542POPC   C4A60030   6.356  36.445   7.175
 4542POPC   C1B60031   5.583  36.575   6.183
 4542POPC   C2B60032   5.706  36.683   6.591
 4542POPC   C3B60033   5.809  36.574   7.001
 4542POPC   C4B60034   5.784  36.222   7.227
 4543POPC   NC360035  29.973   0.294   5.188
 4543POPC   PO460036  29.402   0.679   5.502
 4543POPC   GL160037  29.710   0.510   5.764
 4543POPC   GL260038  29.656   0.174   5.706
 4543POPC   C1A60039  30.020   0.642   6.111
 4543POPC   D2A60040  30.190   0.814   6.498
 4543POPC   C3A60041  30.041   0.762   6.920
 4543POPC   C4A60042  29.788   0.605   7.243
 4543POPC   C1B60043  29.914   0.139   6.090
 4543POPC   C2B60044  29.909   0.298   6.507
 4543POPC   C3B60045  30.000   0.230   6.916
 4543POPC   C4B60046  29.852   0.108   7.312
 4544POPC   NC360047  17.629   9.372   5.257
 4544POPC   PO460048  17.622   8.748   5.359
 4544POPC   GL160049  17.509   8.742   5.758
 4544POPC   GL260050  17.811   8.581   5.860
 4544POPC   C1A60051  17.442   8.819   6.191
 4544POPC   D2A60052  17.407   9.197   6.445
 4544POPC   C3A60053  17.342   9.134   6.895
 4544POPC   C4A60054  17.173   8.798   7.173
 4544POPC   C1B60055  17.940   8.733   6.293
 4544POPC   C2B60056  17.674   8.762   6.672
 4544POPC   C3B60057  17.690   8.770   7.121
 4544POPC   C4B60058  17.951   8.898   7.484
 4545POPC   NC360059   4.598   5.922   4.945
 4545POPC   PO460060   4.054   6.062   5.345
 4545POPC   GL160061   4.324   5.817   5.657
 4545POPC   GL260062   4.323   5.433   5.719
 4545POPC   C1A60063   4.514   5.970   6.052
 4545POPC   D2A60064   4.333   6.046   6.458
 4545POPC   C3A60065   4.499   5.947   6.861
 4545POPC   C4A60066   4.292   5.854   7.216
 4545POPC   C1B60067   4.289   5.523   6.169
 4545POPC   C2B60068   4.528   5.534   6.563
 4545POPC   C3B60069   4.411   5.398   7.024
 4545POPC   C4B60070   4.165   5.432   7.461
 4546POPC   NC360071  35.087  30.181   5.232
 4546POPC   PO460072  34.416  29.872   5.272
 4546POPC   GL160073  34.735  29.944   5.579
 4546POPC   GL260074  34.459  29.811   5.792
 4546POPC   C1A60075  34.873  29.955   6.016
 4546POPC   D2A60076  34.669  29.970   6.416
 4546POPC   C3A60077  34.688  30.013   6.854
 4546POPC   C4A60078  34.531  30.069   7.230
 4546POPC   C1B60079  34.445  29.579   6.196
 4546POPC   C2B60080  34.349  29.646   6.652
 4546POPC   C3B60081  34.176  29.762   7.071
 4546POPC   C4B60082  34.318  29.682   7.512
 4547POPC   NC360083  44.824  15.619   5.277
 4547POPC   PO460084  44.646  16.211   5.568
 4547POPC   GL160085  44.765  15.769   5.770
 4547POPC   GL260086   0.105  15.651   5.865
 4547POPC   C1A60087  44.659  15.511   6.165
 4547POPC   D2A60088  44.518  15.208   6.513
 4547POPC   C3A60089  44.384  15.365   6.930
 4547POPC   C4A60090  44.412  15.692   7.250
 4547POPC   C1B60091   0.137  15.638   6.332
 4547POPC   C2B60092  44.900  15.551   6.726
 4547POPC   C3B60093  44.939  15.725   7.173
 4547POPC   C4B60094   0.152  15.934   7.540
 4548POPC   NC360095  24.585  21.529   5.285
 4548POPC   PO460096  24.138  21.049   5.361
 4548POPC   GL160097  24.374  21.254   5.696
 4548POPC   GL260098  24.618  21.000   5.715
 4548POPC   C1A60099  24.490  21.379   6.122
 4548POPC   D2A60100  24.480  21.663   6.456
 4548POPC   C3A60101  24.510  21.559   6.906
 4548POPC   C4A60102  24.770  21.780   7.221
 4548POPC   C1B60103  24.627  20.911   6.173
 4548POPC   C2B60104  24.619  21.148   6.578
 4548POPC   C3B60105  24.300  21.077   6.902
 4548POPC   C4B60106  24.074  21.172   7.286
 4549POPC   NC360107  14.732  36.873   5.428
 4549POPC   PO460108  14.031  36.922   5.405
 4549POPC   GL160109  14.326  37.013   5.729
 4549POPC   GL260110  14.452  36.687   5.859
 4549POPC   C1A60111  14.439  37.093   6.171
 4549POPC   D2A60112  14.667  37.202   6.543
 4549POPC   C3A60113  14.501  37.007   6.928
 4549POPC   C4A60114  14.110  36.829   7.131
 4549POPC   C1B60115  14.267  36.531   6.256
 4549POPC   C2B60116  14.284  36.605   6.706
 4549POPC   C3B60117  14.461  36.482   7.118
 4549POPC   C4B60118  14.645  36.345   7.533
 4550POPC   NC360119  21.877  35.642   5.363
 4550POPC   PO460120  22.202  35.072   5.542
 4550POPC   GL160121  22.083  35.380   5.861
 4550POPC   GL260122  22.387  35.448   6.078
 4550POPC   C1A60123  21.929  35.572   6.264
 4550POPC   D2A60124  22.126  35.638   6.660
 4550POPC   C3A60125  22.052  35.348   7.029
 4550POPC   C4A60126  22.191  35.417   7.483
 4550POPC   C1B60127  22.215  35.172   6.436
 4550POPC   C2B60128  22.346  34.953   6.841
 4550POPC   C3B60129  22.205  34.942   7.299
 4550POPC   C4B60130  22.467  35.021   7.706
 4551POPC   NC360131  42.091   1.889   5.350
 4551POPC   PO460132  42.616   2.265   5.343
 4551POPC   GL160133  42.343   2.207   5.726
 4551POPC   GL260134  42.295   1.854   5.857
 4551POPC   C1A60135  42.194   2.241   6.172
 4551POPC   D2A60136  42.086   2.197   6.623
 4551POPC   C3A60137  42.395   2.159   6.964
 4551POPC   C4A60138  42.584   1.958   7.337
 4551POPC   C1B60139  41.998   1.757   6.227
 4551POPC   C2B60140  41.760   1.832   6.642
 4551POPC   C3B60141  41.948   1.839   7.087
 4551POPC   C4B60142  42.146   1.693   7.515
 4552POPC   NC360143  36.606  14.704   5.607
 4552POPC   PO460144  36.747  14.098   5.355
 4552POPC   GL160145  36.935  14.325   5.747
 4552POPC   GL260146  36.919  14.661   6.000
 4552POPC   C1A60147  37.066  14.206   6.172
 4552POPC   D2A60148  37.017  14.497   6.516
 4552POPC   C3A60149  36.861  14.387   6.921
 4552POPC   C4A60150  36.860  14.292   7.344
 4552POPC   C1B60151  36.658  14.801   6.355
 4552POPC   C2B60152  36.633  14.830   6.839
 4552POPC   C3B60153  36.439  14.641   7.225
 4552POPC   C4B60154  36.635  14.598   7.698
 4553POPC   NC360155  39.328  15.610   5.400
 4553POPC   PO460156  38.788  15.988   5.221
 4553POPC   GL160157  38.980  16.115   5.638
 4553POPC   GL260158  39.023  15.789   5.773
 4553POPC   C1A60159  39.123  16.288   6.062
 4553POPC   D2A60160  39.441  16.241   6.409
 4553POPC   C3A60161  39.264  16.170   6.834
 4553POPC   C4A60162  39.188  16.271   7.272
 4553POPC   C1B60163  39.317  15.799   6.106
 4553POPC   C2B60164  39.204  15.765   6.535
 4553POPC   C3B60165  39.313  15.618   6.947
 4553POPC   C4B60166  39.568  15.544   7.302
 4554POPC   NC360167  10.355  25.812   5.122
 4554POPC   PO460168  10.170  26.423   5.468
 4554POPC   GL160169  10.483  26.262   5.850
 4554POPC   GL260170  10.537  25.908   5.860
 4554POPC   C1A60171  10.561  26.230   6.297
 4554POPC   D2A60172  10.245  26.334   6.592
 4554POPC   C3A60173  10.347  26.136   6.971
 4554POPC   C4A60174  10.821  26.128   6.901
 4554POPC   C1B60175  10.297  25.752   6.221
 4554POPC   C2B60176  10.409  25.554   6.608
 4554POPC   C3B60177  10.587  25.687   7.016
 4554POPC   C4B60178  10.425  25.838   7.434
 4555POPC   NC360179   2.103  16.342   5.236
 4555POPC   PO460180   1.877  15.679   5.489
 4555POPC   GL160181   1.973  15.881   5.878
 4555POPC   GL260182   1.719  16.109   6.027
 4555POPC   C1A60183   2.174  15.784   6.271
 4555POPC   D2A60184   2.325  16.028   6.650
 4555POPC   C3A60185   2.254  15.854   7.048
 4555POPC   C4A60186   2.369  15.440   7.248
 4555POPC   C1B60187   1.809  16.072   6.455
 4555POPC   C2B60188   1.877  15.742   6.724
 4555POPC   C3B60189   1.742  15.850   7.099
 4555POPC   C4B60190   1.355  16.021   7.190
 4556POPC   NC360191  19.636  23.034   5.196
 4556POPC   PO460192  19.409  22.439   5.483
 4556POPC   GL160193  19.601  22.769   5.734
 4556POPC   GL260194  19.886  22.984   5.667
 4556POPC   C1A60195  19.689  22.776   6.184
 4556POPC   D2A60196  19.740  22.550   6.548
 4556POPC   C3A60197  19.829  22.813   6.858
 4556POPC   C4A60198  19.561  22.825   7.208
 4556POPC   C1B60199  19.832  23.235   6.046
 4556POPC   C2B60200  19.925  23.202   6.499
 4556POPC   C3B60201  19.990  23.323   6.939
 4556POPC   C4B60202  20.005  23.035   7.289
 4557POPC   NC360203  16.455  30.355   5.491
 4557POPC   PO460204  16.976  30.703   5.238
 4557POPC   GL160205  16.813  30.748   5.691
 4557POPC   GL260206  17.078  30.708   5.895
 4557POPC   C1A60207  16.649  30.663   6.145
 4557POPC   D2A60208  16.436  30.744   6.544
 4557POPC   C3A60209  16.625  30.674   6.943
 4557POPC   C4A60210  16.655  30.466   7.325
 4557POPC   C1B60211  17.083  30.987   6.205
 4557POPC   C2B60212  16.965  30.872   6.598
 4557POPC   C3B60213  17.035  31.031   6.995
 4557POPC   C4B60214  16.935  30.943   7.385
 4558POPC   NC360215  18.602  24.158   5.462
 4558POPC   PO460216  18.295  23.475   5.386
 4558POPC   GL160217  18.431  23.727   5.712
 4558POPC   GL260218  18.221  23.983   5.826
 4558POPC   C1A60219  18.612  23.726   6.125
 4558POPC   D2A60220  18.524  23.509   6.491
 4558POPC   C3A60221  18.324  23.686   6.850
 4558POPC   C4A60222  18.335  23.660   7.295
 4558POPC   C1B60223  18.472  24.213   6.105
 4558POPC   C2B60224  18.422  24.085   6.517
 4558POPC   C3B60225  18.451  24.173   6.946
 4558POPC   C4B60226  18.729  24.009   7.226
 4559POPC   NC360227  11.688  40.553   5.384
 4559POPC   PO460228  11.909  39.927   5.192
 4559POPC   GL160229  11.863  40.122   5.640
 4559POPC   GL260230  11.919  39.809   5.822
 4559POPC   C1A60231  12.094  40.254   6.058
 4559POPC   D2A60232  12.031  40.167   6.521
 4559POPC   C3A60233  12.126  40.360   6.933
 4559POPC   C4A60234  11.845  40.245   7.262
 4559POPC   C1B60235  12.010  39.720   6.257
 4559POPC   C2B60236  12.352  39.774   6.575
 4559POPC   C3B60237  12.361  39.890   7.020
 4559POPC   C4B60238  12.358  39.732   7.462
 4560POPC   NC360239   3.379   3.249   5.434
 4560POPC   PO460240   3.916   3.696   5.408
 4560POPC   GL160241   3.601   3.688   5.741
 4560POPC   GL260242   3.621   3.352   5.852
 4560POPC   C1A60243   3.482   3.808   6.201
 4560POPC   D2A60244   3.364   3.890   6.673
 4560POPC   C3A60245   3.630   3.753   7.055
 4560POPC   C4A60246   3.545   3.521   7.448
 4560POPC   C1B60247   3.495   3.306   6.254
 4560POPC   C2B60248   3.696   3.463   6.630
 4560POPC   C3B60249   3.700   3.248   7.039
 4560POPC   C4B60250   3.474   3.014   7.399
 4561POPC   NC360251  22.763  13.947   5.328
 4561POPC   PO460252  23.150  13.439   5.445
 4561POPC   GL160253  23.081  13.695   5.758
 4561POPC   GL260254  22.748  13.768   5.800
 4561POPC   C1A60255  23.052  13.865   6.201
 4561POPC   D2A60256  22.829  13.843   6.585
 4561POPC   C3A60257  22.956  13.492   6.870
 4561POPC   C4A60258  23.192  13.491   7.199
 4561POPC   C1B60259  22.814  13.414   6.083
 4561POPC   C2B60260  22.655  13.358   6.466
 4561POPC   C3B60261  22.471  13.572   6.827
 4561POPC   C4B60262  22.608  13.397   7.231
 4562POPC   NC360263   9.003  28.193   5.471
 4562POPC   PO460264   8.944  28.782   5.199
 4562POPC   GL160265   9.148  28.686   5.698
 4562POPC   GL260266   9.191  28.369   5.892
 4562POPC   C1A60267   8.947  28.706   6.190
 4562POPC   D2A60268   8.538  28.558   6.440
 4562POPC   C3A60269   8.579  28.689   6.863
 4562POPC   C4A60270   8.903  28.859   7.135
 4562POPC   C1B60271   8.846  28.204   6.144
 4562POPC   C2B60272   8.941  28.296   6.576
 4562POPC   C3B60273   8.969  28.346   6.994
 4562POPC   C4B60274   8.905  27.996   7.199
 4563POPC   NC360275  12.220  13.431   5.334
 4563POPC   PO460276  11.669  13.353   5.526
 4563POPC   GL160277  12.002  13.293   5.827
 4563POPC   GL260278  12.291  13.536   5.847
 4563POPC   C1A60279  11.989  13.423   6.257
 4563POPC   D2A60280  11.743  13.689   6.562
 4563POPC   C3A60281  11.807  13.625   7.007
 4563POPC   C4A60282  11.709  13.382   7.354
 4563POPC   C1B60283  12.399  13.726   6.280
 4563POPC   C2B60284  12.225  13.556   6.706
 4563POPC   C3B60285  12.293  13.439   7.150
 4563POPC   C4B60286  12.118  13.697   7.474
 4564POPC   NC360287   3.906   8.145   5.477
 4564POPC   PO460288   4.508   8.394   5.310
 4564POPC   GL160289   4.380   8.163   5.718
 4564POPC   GL260290   4.099   8.395   5.871
 4564POPC   C1A60291   4.550   7.980   6.135
 4564POPC   D2A60292   4.708   8.180   6.554
 4564POPC   C3A60293   4.504   8.182   6.993
 4564POPC   C4A60294   4.157   7.933   7.200
 4564POPC   C1B60295   4.355   8.437   6.237
 4564POPC   C2B60296   4.223   8.497   6.668
 4564POPC   C3B60297   4.047   8.441   7.104
 4564POPC   C4B60298   4.270   8.349   7.499
 4565POPC   NC360299  19.970  44.727   5.504
 4565POPC   PO460300  19.434   0.109   5.472
 4565POPC   GL160301  19.546  44.738   5.812
 4565POPC   GL260302  19.768  44.403   5.838
 4565POPC   C1A60303  19.748  44.692   6.249
 4565POPC   D2A60304  19.725  44.513   6.677
 4565POPC   C3A60305  19.724  44.820   7.033
 4565POPC   C4A60306  19.416   0.026   7.313
 4565POPC   C1B60307  19.899  44.194   6.264
 4565POPC   C2B60308  20.119  44.203   6.717
 4565POPC   C3B60309  20.051  44.424   7.138
 4565POPC   C4B60310  20.069  44.343   7.590
 4566POPC   NC360311  22.326  12.530   5.232
 4566POPC   PO460312  21.832  12.221   5.406
 4566POPC   GL160313  21.990  12.027   5.779
 4566POPC   GL260314  22.314  12.051   5.712
 4566POPC   C1A60315  22.032  12.217   6.215
 4566POPC   D2A60316  22.031  12.437   6.634
 4566POPC   C3A60317  22.116  12.134   7.008
 4566POPC   C4A60318  22.111  11.839   7.362
 4566POPC   C1B60319  22.498  11.984   6.158
 4566POPC   C2B60320  22.346  11.843   6.566
 4566POPC   C3B60321  22.527  11.821   6.978
 4566POPC   C4B60322  22.607  12.008   7.374
 4567POPC   NC360323   5.402  39.565   5.332
 4567POPC   PO460324   4.932  40.128   5.262
 4567POPC   GL160325   4.904  40.169   5.706
 4567POPC   GL260326   4.901  39.817   5.760
 4567POPC   C1A60327   5.210  40.174   6.073
 4567POPC   D2A60328   5.326  40.078   6.513
 4567POPC   C3A60329   5.184  40.268   6.898
 4567POPC   C4A60330   5.203  40.055   7.297
 4567POPC   C1B60331   4.783  39.887   6.188
 4567POPC   C2B60332   4.827  39.818   6.632
 4567POPC   C3B60333   4.753  39.992   7.029
 4567POPC   C4B60334   4.731  39.934   7.471
 4568POPC   NC360335   9.058  24.730   5.367
 4568POPC   PO460336   8.599  24.182   5.617
 4568POPC   GL160337   8.826  24.508   5.780
 4568POPC   GL260338   9.148  24.574   5.830
 4568POPC   C1A60339   8.795  24.652   6.191
 4568POPC   D2A60340   8.823  24.433   6.575
 4568POPC   C3A60341   8.689  24.660   6.913
 4568POPC   C4A60342   9.075  24.711   7.119
 4568POPC   C1B60343   9.280  24.522   6.243
 4568POPC   C2B60344   9.279  24.232   6.524
 4568POPC   C3B60345   9.312  24.339   6.879
 4568POPC   C4B60346   9.418  24.286   7.244
 4569POPC   NC360347  23.045  14.804   5.586
 4569POPC   PO460348  23.191  14.162   5.206
 4569POPC   GL160349  23.007  14.285   5.622
 4569POPC   GL260350  23.231  14.163   5.839
 4569POPC   C1A60351  22.728  14.243   6.029
 4569POPC   D2A60352  22.644  14.455   6.461
 4569POPC   C3A60353  22.804  14.280   6.878
 4569POPC   C4A60354  22.725  13.893   7.120
 4569POPC   C1B60355  23.193  14.373   6.225
 4569POPC   C2B60356  23.121  14.748   6.436
 4569POPC   C3B60357  23.170  14.820   6.865
 4569POPC   C4B60358  23.002  14.628   7.230
 4570POPC   NC360359  14.100   7.520   5.280
 4570POPC   PO460360  14.691   7.196   5.283
 4570POPC   GL160361  14.363   7.256   5.668
 4570POPC   GL260362  14.178   7.605   5.776
 4570POPC   C1A60363  14.306   7.146   6.129
 4570POPC   D2A60364  14.204   7.067   6.591
 4570POPC   C3A60365  14.403   7.284   6.954
 4570POPC   C4A60366  14.580   7.262   7.352
 4570POPC   C1B60367  14.290   7.656   6.182
 4570POPC   C2B60368  14.487   7.561   6.542
 4570POPC   C3B60369  14.483   7.798   6.908
 4570POPC   C4B60370  14.453   7.747   7.300
 4571POPC   NC360371  27.721  29.789   5.559
 4571POPC   PO460372  27.903  30.461   5.439
 4571POPC   GL160373  27.623  30.277   5.776
 4571POPC   GL260374  27.472  29.971   5.974
 4571POPC   C1A60375  27.593  30.386   6.208
 4571POPC   D2A60376  27.616  30.438   6.648
 4571POPC   C3A60377  27.641  30.025   6.890
 4571POPC   C4A60378  27.844  30.047   7.290
 4571POPC   C1B60379  27.291  29.684   6.292
 4571POPC   C2B60380  27.383  29.548   6.724
 4571POPC   C3B60381  27.707  29.460   7.054
 4571POPC   C4B60382  28.123  29.623   7.157
 4572POPC   NC360383  36.753  18.987   5.325
 4572POPC   PO460384  37.311  19.372   5.259
 4572POPC   GL160385  37.123  19.194   5.647
 4572POPC   GL260386  36.797  19.282   5.734
 4572POPC   C1A60387  37.067  18.998   6.069
 4572POPC   D2A60388  36.938  18.963   6.518
 4572POPC   C3A60389  37.027  18.969   6.977
 4572POPC   C4A60390  37.286  19.019   7.387
 4572POPC   C1B60391  36.703  19.413   6.117
 4572POPC   C2B60392  36.537  19.331   6.505
 4572POPC   C3B60393  36.528  19.344   6.931
 4572POPC   C4B60394  36.751  19.236   7.294
 4573POPC   NC360395  20.734   1.275   5.325
 4573POPC   PO460396  20.439   0.735   5.382
 4573POPC   GL160397  20.415   1.070   5.737
 4573POPC   GL260398  20.668   1.327   5.820
 4573POPC   C1A60399  20.492   1.042   6.214
 4573POPC   D2A60400  20.748   1.160   6.601
 4573POPC   C3A60401  20.596   1.069   7.031
 4573POPC   C4A60402  20.551   1.071   7.494
 4573POPC   C1B60403  20.644   1.527   6.219
 4573POPC   C2B60404  20.545   1.625   6.632
 4573POPC   C3B60405  20.787   1.543   6.993
 4573POPC   C4B60406  20.817   1.694   7.425
 4574POPC   NC360407  13.834  20.002   5.360
 4574POPC   PO460408  13.198  19.696   5.460
 4574POPC   GL160409  13.484  19.845   5.765
 4574POPC   GL260410  13.296  19.606   5.984
 4574POPC   C1A60411  13.678  19.869   6.191
 4574POPC   D2A60412  13.419  19.703   6.530
 4574POPC   C3A60413  13.656  19.776   6.902
 4574POPC   C4A60414  13.694  19.542   7.254
 4574POPC   C1B60415  13.197  20.045   6.165
 4574POPC   C2B60416  13.425  20.229   6.538
 4574POPC   C3B60417  13.374  20.183   6.998
 4574POPC   C4B60418  13.575  20.306   7.405
 4575POPC   NC360419  36.089  41.080   5.273
 4575POPC   PO460420  36.336  40.428   5.385
 4575POPC   GL160421  36.104  40.721   5.675
 4575POPC   GL260422  35.752  40.863   5.634
 4575POPC   C1A60423  36.194  40.836   6.105
 4575POPC   D2A60424  36.399  40.601   6.461
 4575POPC   C3A60425  36.214  40.675   6.874
 4575POPC   C4A60426  36.243  40.809   7.296
 4575POPC   C1B60427  35.703  40.704   6.052
 4575POPC   C2B60428  35.850  40.761   6.490
 4575POPC   C3B60429  35.702  40.577   6.886
 4575POPC   C4B60430  35.757  40.708   7.298
 4576POPC   NC360431  27.041   3.532   5.487
 4576POPC   PO460432  26.527   3.278   5.688
 4576POPC   GL160433  26.907   3.316   5.965
 4576POPC   GL260434  27.251   3.429   5.925
 4576POPC   C1A60435  26.898   3.429   6.401
 4576POPC   D2A60436  26.609   3.694   6.641
 4576POPC   C3A60437  26.556   3.560   7.047
 4576POPC   C4A60438  26.734   3.348   7.420
 4576POPC   C1B60439  27.164   3.801   6.188
 4576POPC   C2B60440  27.055   3.900   6.599
 4576POPC   C3B60441  27.075   3.669   7.003
 4576POPC   C4B60442  27.065   3.823   7.414
 4577POPC   NC360443   8.263  35.269   5.034
 4577POPC   PO460444   7.915  35.678   5.397
 4577POPC   GL160445   8.170  35.546   5.743
 4577POPC   GL260446   8.182  35.201   5.676
 4577POPC   C1A60447   8.342  35.518   6.185
 4577POPC   D2A60448   8.204  35.461   6.623
 4577POPC   C3A60449   8.331  35.562   7.054
 4577POPC   C4A60450   8.487  35.265   7.363
 4577POPC   C1B60451   8.050  35.098   6.112
 4577POPC   C2B60452   7.944  35.028   6.573
 4577POPC   C3B60453   8.204  35.028   6.977
 4577POPC   C4B60454   8.197  34.833   7.406
 4578POPC   NC360455   7.701  42.785   5.503
 4578POPC   PO460456   7.623  43.394   5.187
 4578POPC   GL160457   7.500  43.353   5.659
 4578POPC   GL260458   7.261  43.068   5.641
 4578POPC   C1A60459   7.564  43.474   6.130
 4578POPC   D2A60460   7.633  43.264   6.568
 4578POPC   C3A60461   7.602  43.431   7.006
 4578POPC   C4A60462   7.528  43.178   7.413
 4578POPC   C1B60463   7.224  42.889   6.071
 4578POPC   C2B60464   7.275  42.833   6.536
 4578POPC   C3B60465   7.258  43.028   6.972
 4578POPC   C4B60466   7.095  42.896   7.383
 4579POPC   NC360467  19.617   9.488   5.405
 4579POPC   PO460468  19.449  10.117   5.436
 4579POPC   GL160469  19.684   9.901   5.785
 4579POPC   GL260470  19.986   9.695   5.747
 4579POPC   C1A60471  19.943   9.951   6.180
 4579POPC   D2A60472  20.145   9.750   6.523
 4579POPC   C3A60473  20.110   9.864   6.912
 4579POPC   C4A60474  19.767   9.954   7.151
 4579POPC   C1B60475  19.806   9.462   6.122
 4579POPC   C2B60476  19.846   9.330   6.565
 4579POPC   C3B60477  19.701   9.490   6.966
 4579POPC   C4B60478  19.675   9.524   7.439
 4580POPC   NC360479  32.094   4.028   5.434
 4580POPC   PO460480  32.435   4.634   5.444
 4580POPC   GL160481  32.186   4.416   5.761
 4580POPC   GL260482  32.380   4.089   5.856
 4580POPC   C1A60483  31.958   4.348   6.156
 4580POPC   D2A60484  31.983   4.587   6.511
 4580POPC   C3A60485  32.005   4.420   6.881
 4580POPC   C4A60486  32.121   4.608   7.224
 4580POPC   C1B60487  32.455   4.354   6.204
 4580POPC   C2B60488  32.349   4.194   6.583
 4580POPC   C3B60489  32.481   4.250   7.011
 4580POPC   C4B60490  32.383   4.230   7.453
 4581POPC   NC360491  39.502   1.566   5.479
 4581POPC   PO460492  38.952   1.752   5.104
 4581POPC   GL160493  39.112   1.888   5.616
 4581POPC   GL260494  39.411   1.907   5.846
 4581POPC   C1A60495  38.982   1.863   6.127
 4581POPC   D2A60496  38.918   1.683   6.597
 4581POPC   C3A60497  38.879   1.904   7.029
 4581POPC   C4A60498  38.956   2.340   7.241
 4581POPC   C1B60499  39.571   1.664   6.197
 4581POPC   C2B60500  39.722   1.676   6.611
 4581POPC   C3B60501  39.382   1.787   6.872
 4581POPC   C4B60502  39.354   2.037   7.221
 4582POPC   NC360503  21.013  17.780   5.587
 4582POPC   PO460504  21.439  17.332   5.510
 4582POPC   GL160505  21.452  17.504   5.874
 4582POPC   GL260506  21.741  17.705   5.886
 4582POPC   C1A60507  21.203  17.461   6.216
 4582POPC   D2A60508  21.350  17.464   6.596
 4582POPC   C3A60509  21.169  17.650   6.898
 4582POPC   C4A60510  21.318  17.580   7.274
 4582POPC   C1B60511  21.736  17.679   6.304
 4582POPC   C2B60512  21.842  17.595   6.711
 4582POPC   C3B60513  21.727  17.777   7.074
 4582POPC   C4B60514  21.793  17.620   7.473
 4583POPC   NC360515   8.519  25.155   5.193
 4583POPC   PO460516   7.961  24.948   5.541
 4583POPC   GL160517   8.105  25.274   5.816
 4583POPC   GL260518   8.448  25.394   5.721
 4583POPC   C1A60519   7.979  25.274   6.261
 4583POPC   D2A60520   8.017  25.025   6.592
 4583POPC   C3A60521   8.315  25.072   6.905
 4583POPC   C4A60522   8.106  25.238   7.247
 4583POPC   C1B60523   8.438  25.538   6.173
 4583POPC   C2B60524   8.543  25.480   6.646
 4583POPC   C3B60525   8.507  25.516   7.124
 4583POPC   C4B60526   8.566  25.401   7.575
 4584POPC   NC360527  13.749  17.027   5.235
 4584POPC   PO460528  13.367  16.567   5.204
 4584POPC   GL160529  13.643  16.642   5.566
 4584POPC   GL260530  13.535  16.363   5.764
 4584POPC   C1A60531  13.752  16.784   5.984
 4584POPC   D2A60532  13.777  16.717   6.434
 4584POPC   C3A60533  13.612  16.974   6.759
 4584POPC   C4A60534  13.718  16.973   7.194
 4584POPC   C1B60535  13.818  16.288   6.136
 4584POPC   C2B60536  13.913  16.245   6.594
 4584POPC   C3B60537  13.774  16.523   6.943
 4584POPC   C4B60538  13.667  16.511   7.417
 4585POPC   NC360539  39.751  41.420   5.446
 4585POPC   PO460540  39.678  42.008   5.132
 4585POPC   GL160541  40.019  41.862   5.537
 4585POPC   GL260542  40.201  41.602   5.670
 4585POPC   C1A60543  40.059  41.914   6.039
 4585POPC   D2A60544  39.862  41.635   6.359
 4585POPC   C3A60545  39.923  41.627   6.820
 4585POPC   C4A60546  39.686  41.399   7.137
 4585POPC   C1B60547  40.211  41.374   6.064
 4585POPC   C2B60548  40.197  41.264   6.506
 4585POPC   C3B60549  40.350  41.359   6.905
 4585POPC   C4B60550  40.237  41.555   7.273
 4586POPC   NC360551  41.748  15.877   5.579
 4586POPC   PO460552  41.216  16.296   5.669
 4586POPC   GL160553  41.388  15.955   5.939
 4586POPC   GL260554  41.745  15.859   6.081
 4586POPC   C1A60555  41.274  15.735   6.273
 4586POPC   D2A60556  41.281  15.980   6.622
 4586POPC   C3A60557  41.593  15.880   6.896
 4586POPC   C4A60558  41.493  15.820   7.299
 4586POPC   C1B60559  41.593  16.227   6.312
 4586POPC   C2B60560  41.606  16.371   6.730
 4586POPC   C3B60561  41.499  16.319   7.174
 4586POPC   C4B60562  41.693  16.220   7.559
 4587POPC   NC360563  21.081  36.429   5.417
 4587POPC   PO460564  21.465  35.925   5.073
 4587POPC   GL160565  21.524  35.895   5.675
 4587POPC   GL260566  21.850  35.845   5.812
 4587POPC   C1A60567  21.222  36.038   6.081
 4587POPC   D2A60568  21.033  36.080   6.518
 4587POPC   C3A60569  21.112  36.369   6.893
 4587POPC   C4A60570  21.019  36.087   7.257
 4587POPC   C1B60571  21.717  36.049   6.179
 4587POPC   C2B60572  21.715  35.971   6.586
 4587POPC   C3B60573  21.427  35.975   6.916
 4587POPC   C4B60574  21.511  36.009   7.348
 4588POPC   NC360575   0.835  11.366   5.209
 4588POPC   PO460576   0.227  11.561   5.491
 4588POPC   GL160577   0.345  11.272   5.772
 4588POPC   GL260578   0.704  11.227   5.734
 4588POPC   C1A60579   0.314  11.316   6.210
 4588POPC   D2A60580   0.159  11.577   6.539
 4588POPC   C3A60581   0.297  11.429   6.925
 4588POPC   C4A60582   0.132  11.350   7.343
 4588POPC   C1B60583   0.838  11.193   6.168
 4588POPC   C2B60584   0.718  11.403   6.554
 4588POPC   C3B60585   0.818  11.505   6.989
 4588POPC   C4B60586   0.618  11.212   7.255
 4589POPC   NC360587  35.381  33.329   5.403
 4589POPC   PO460588  35.618  32.719   5.234
 4589POPC   GL160589  35.459  32.844   5.636
 4589POPC   GL260590  35.622  33.136   5.796
 4589POPC   C1A60591  35.185  32.930   6.003
 4589POPC   D2A60592  35.116  32.746   6.400
 4589POPC   C3A60593  35.337  32.784   6.780
 4589POPC   C4A60594  35.276  32.907   7.196
 4589POPC   C1B60595  35.570  33.271   6.211
 4589POPC   C2B60596  35.289  33.305   6.558
 4589POPC   C3B60597  35.314  33.390   6.982
 4589POPC   C4B60598  35.620  33.335   7.290
 4590POPC   NC360599  25.378  20.160   5.086
 4590POPC   PO460600  25.152  20.740   5.334
 4590POPC   GL160601  25.135  20.805   5.778
 4590POPC   GL260602  25.216  20.491   5.958
 4590POPC   C1A60603  25.114  20.921   6.209
 4590POPC   D2A60604  25.239  20.691   6.534
 4590POPC   C3A60605  25.227  20.853   6.933
 4590POPC   C4A60606  25.304  20.551   7.231
 4590POPC   C1B60607  25.495  20.323   6.313
 4590POPC   C2B60608  25.688  20.434   6.747
 4590POPC   C3B60609  25.740  20.294   7.213
 4590POPC   C4B60610  25.529  20.271   7.646
 4591POPC   NC360611   4.334  17.455   5.395
 4591POPC   PO460612   3.841  17.885   5.566
 4591POPC   GL160613   4.133  17.777   5.871
 4591POPC   GL260614   4.208  17.424   5.889
 4591POPC   C1A60615   4.089  17.664   6.320
 4591POPC   D2A60616   4.358  17.410   6.596
 4591POPC   C3A60617   4.214  17.365   7.023
 4591POPC   C4A60618   4.106  17.768   7.202
 4591POPC   C1B60619   4.559  17.658   6.142
 4591POPC   C2B60620   4.630  17.863   6.563
 4591POPC   C3B60621   4.569  17.712   6.977
 4591POPC   C4B60622   4.507  17.550   7.426
 4592POPC   NC360623   9.348   6.980   5.589
 4592POPC   PO460624   9.224   7.560   5.205
 4592POPC   GL160625   9.232   7.495   5.681
 4592POPC   GL260626   8.883   7.418   5.700
 4592POPC   C1A60627   9.074   7.501   6.167
 4592POPC   D2A60628   8.996   7.331   6.612
 4592POPC   C3A60629   8.839   7.522   7.023
 4592POPC   C4A60630   9.072   7.542   7.441
 4592POPC   C1B60631   8.598   7.249   6.059
 4592POPC   C2B60632   8.502   7.150   6.519
 4592POPC   C3B60633   8.478   7.120   7.000
 4592POPC   C4B60634   8.711   7.187   7.429
 4593POPC   NC360635  32.479   2.394   5.516
 4593POPC   PO460636  32.649   1.715   5.577
 4593POPC   GL160637  32.246   1.752   5.795
 4593POPC   GL260638  32.050   2.080   5.802
 4593POPC   C1A60639  32.324   1.883   6.222
 4593POPC   D2A60640  32.212   1.659   6.571
 4593POPC   C3A60641  32.143   1.896   6.910
 4593POPC   C4A60642  32.149   1.695   7.322
 4593POPC   C1B60643  32.176   2.391   6.137
 4593POPC   C2B60644  32.300   2.568   6.520
 4593POPC   C3B60645  32.452   2.329   6.847
 4593POPC   C4B60646  32.484   2.074   7.221
 4594POPC   NC360647  42.540  44.291   5.631
 4594POPC   PO460648  42.324  44.789   5.180
 4594POPC   GL160649  42.176  44.718   5.648
 4594POPC   GL260650  42.006   0.011   5.801
 4594POPC   C1A60651  42.145  44.587   6.129
 4594POPC   D2A60652  42.523  44.531   6.419
 4594POPC   C3A60653  42.572  44.707   6.854
 4594POPC   C4A60654  42.424  44.571   7.266
 4594POPC   C1B60655  41.877   0.017   6.264
 4594POPC   C2B60656  41.983  44.789   6.666
 4594POPC   C3B60657  42.108  44.905   7.084
 4594POPC   C4B60658  42.192  44.895   7.568
 4595POPC   NC360659   4.794  19.968   5.163
 4595POPC   PO460660   4.133  20.105   5.434
 4595POPC   GL160661   4.325  19.860   5.779
 4595POPC   GL260662   4.126  19.582   5.904
 4595POPC   C1A60663   4.461  19.783   6.234
 4595POPC   D2A60664   4.262  19.547   6.600
 4595POPC   C3A60665   4.306  19.764   6.975
 4595POPC   C4A60666   4.531  19.790   7.340
 4595POPC   C1B60667   3.926  19.732   6.251
 4595POPC   C2B60668   3.795  19.820   6.653
 4595POPC   C3B60669   3.815  19.640   7.048
 4595POPC   C4B60670   3.791  19.534   7.487
 4596POPC   NC360671  36.105  12.542   5.613
 4596POPC   PO460672  35.842  13.166   5.475
 4596POPC   GL160673  36.064  13.015   5.860
 4596POPC   GL260674  36.417  12.854   5.874
 4596POPC   C1A60675  36.010  12.832   6.273
 4596POPC   D2A60676  35.697  12.784   6.609
 4596POPC   C3A60677  35.938  12.736   6.971
 4596POPC   C4A60678  36.296  12.930   7.136
 4596POPC   C1B60679  36.505  12.632   6.282
 4596POPC   C2B60680  36.535  12.660   6.752
 4596POPC   C3B60681  36.378  12.433   7.146
 4596POPC   C4B60682  36.453  12.511   7.590
 4597POPC   NC360683  43.458  42.328   5.407
 4597POPC   PO460684  44.089  42.010   5.514
 4597POPC   GL160685  43.810  42.188   5.767
 4597POPC   GL260686  43.575  41.922   5.835
 4597POPC   C1A60687  43.948  42.409   6.118
 4597POPC   D2A60688  43.979  42.465   6.545
 4597POPC   C3A60689  44.193  42.182   6.815
 4597POPC   C4A60690  44.378  42.324   7.180
 4597POPC   C1B60691  43.525  42.141   6.242
 4597POPC   C2B60692  43.702  42.046   6.656
 4597POPC   C3B60693  43.683  42.175   7.092
 4597POPC   C4B60694  43.858  42.116   7.519
 4598POPC   NC360695   7.859  26.133   5.375
 4598POPC   PO460696   8.240  25.576   5.270
 4598POPC   GL160697   8.074  25.764   5.660
 4598POPC   GL260698   8.141  26.097   5.786
 4598POPC   C1A60699   7.960  25.737   6.094
 4598POPC   D2A60700   8.135  25.784   6.543
 4598POPC   C3A60701   8.086  25.768   7.023
 4598POPC   C4A60702   8.136  25.671   7.496
 4598POPC   C1B60703   8.274  26.149   6.183
 4598POPC   C2B60704   8.310  26.280   6.592
 4598POPC   C3B60705   8.169  26.259   6.991
 4598POPC   C4B60706   8.441  26.051   7.293
 4599POPC   NC360707   1.515  39.140   5.314
 4599POPC   PO460708   0.835  39.056   5.401
 4599POPC   GL160709   1.180  39.112   5.718
 4599POPC   GL260710   1.267  39.462   5.719
 4599POPC   C1A60711   1.263  38.994   6.159
 4599POPC   D2A60712   0.951  39.054   6.505
 4599POPC   C3A60713   1.108  39.064   6.918
 4599POPC   C4A60714   1.234  39.261   7.285
 4599POPC   C1B60715   1.042  39.466   6.119
 4599POPC   C2B60716   1.033  39.700   6.525
 4599POPC   C3B60717   1.160  39.626   6.934
 4599POPC   C4B60718   0.894  39.631   7.282
 4600POPC   NC360719   6.281  11.055   5.489
 4600POPC   PO460720   6.937  11.397   5.493
 4600POPC   GL160721   6.606  11.319   5.797
 4600POPC   GL260722   6.653  11.017   5.942
 4600POPC   C1A60723   6.444  11.446   6.207
 4600POPC   D2A60724   6.645  11.414   6.618
 4600POPC   C3A60725   6.593  11.580   7.032
 4600POPC   C4A60726   6.711  11.586   7.454
 4600POPC   C1B60727   6.421  10.961   6.311
 4600POPC   C2B60728   6.296  11.080   6.696
 4600POPC   C3B60729   6.530  11.021   7.078
 4600POPC   C4B60730   6.584  10.683   7.415
 4601POPC   NC360731   5.595  29.820   5.522
 4601POPC   PO460732   4.883  29.859   5.397
 4601POPC   GL160733   5.181  30.081   5.706
 4601POPC   GL260734   5.281  29.753   5.915
 4601POPC   C1A60735   5.327  30.178   6.168
 4601POPC   D2A60736   5.295  29.917   6.564
 4601POPC   C3A60737   5.328  30.103   6.990
 4601POPC   C4A60738   5.136  30.183   7.420
 4601POPC   C1B60739   5.303  29.465   6.301
 4601POPC   C2B60740   5.140  29.467   6.753
 4601POPC   C3B60741   5.036  29.680   7.176
 4601POPC   C4B60742   5.088  29.599   7.664
 4602POPC   NC360743  30.062  32.222   5.275
 4602POPC   PO460744  29.613  31.809   5.408
 4602POPC   GL160745  29.867  32.028   5.698
 4602POPC   GL260746  29.771  32.372   5.690
 4602POPC   C1A60747  30.050  32.105   6.094
 4602POPC   D2A60748  29.946  32.331   6.435
 4602POPC   C3A60749  30.242  32.366   6.731
 4602POPC   C4A60750  29.946  32.423   7.044
 4602POPC   C1B60751  29.545  32.213   6.072
 4602POPC   C2B60752  29.622  31.932   6.423
 4602POPC   C3B60753  29.723  31.971   6.831
 4602POPC   C4B60754  29.646  32.086   7.240
 4603POPC   NC360755  24.134   7.504   5.396
 4603POPC   PO460756  23.521   7.515   5.640
 4603POPC   GL160757  23.803   7.543   5.895
 4603POPC   GL260758  23.958   7.840   5.792
 4603POPC   C1A60759  23.671   7.636   6.295
 4603POPC   D2A60760  23.630   7.867   6.650
 4603POPC   C3A60761  23.644   7.538   6.921
 4603POPC   C4A60762  23.399   7.374   7.247
 4603POPC   C1B60763  24.163   7.818   6.193
 4603POPC   C2B60764  24.086   7.675   6.621
 4603POPC   C3B60765  24.068   7.826   7.044
 4603POPC   C4B60766  23.857   7.578   7.374
 4604POPC   NC360767  26.021  14.064   5.210
 4604POPC   PO460768  25.709  14.578   5.345
 4604POPC   GL160769  26.015  14.596   5.746
 4604POPC   GL260770  26.129  14.234   5.833
 4604POPC   C1A60771  26.265  14.604   6.199
 4604POPC   D2A60772  26.387  14.503   6.672
 4604POPC   C3A60773  26.055  14.467   7.008
 4604POPC   C4A60774  26.097  14.258   7.427
 4604POPC   C1B60775  25.816  14.346   6.218
 4604POPC   C2B60776  25.688  14.258   6.688
 4604POPC   C3B60777  25.604  14.242   7.176
 4604POPC   C4B60778  25.650  14.264   7.653
 4605POPC   NC360779  19.849  39.813   5.622
 4605POPC   PO460780  19.969  39.199   5.260
 4605POPC   GL160781  19.999  39.143   5.724
 4605POPC   GL260782  20.024  38.793   5.869
 4605POPC   C1A60783  20.115  39.326   6.161
 4605POPC   D2A60784  20.101  39.668   6.490
 4605POPC   C3A60785  19.971  39.544   6.900
 4605POPC   C4A60786  20.169  39.242   7.167
 4605POPC   C1B60787  19.707  39.013   6.150
 4605POPC   C2B60788  19.779  39.180   6.561
 4605POPC   C3B60789  19.682  39.120   7.002
 4605POPC   C4B60790  19.433  38.978   7.362
 4606POPC   NC360791   8.976  26.435   5.506
 4606POPC   PO460792   8.778  27.085   5.694
 4606POPC   GL160793   9.088  26.813   5.862
 4606POPC   GL260794   9.262  27.064   6.091
 4606POPC   C1A60795   9.210  26.521   6.174
 4606POPC   D2A60796   9.286  26.698   6.577
 4606POPC   C3A60797   9.316  26.478   6.968
 4606POPC   C4A60798   9.141  26.717   7.289
 4606POPC   C1B60799   8.887  26.920   6.309
 4606POPC   C2B60800   8.641  26.958   6.664
 4606POPC   C3B60801   8.734  27.006   7.093
 4606POPC   C4B60802   8.741  27.037   7.563
 4607POPC   NC360803  12.420   1.007   5.524
 4607POPC   PO460804  13.036   1.304   5.332
 4607POPC   GL160805  12.857   1.325   5.730
 4607POPC   GL260806  12.925   1.010   5.827
 4607POPC   C1A60807  12.566   1.295   6.091
 4607POPC   D2A60808  12.432   1.452   6.473
 4607POPC   C3A60809  12.608   1.256   6.827
 4607POPC   C4A60810  12.924   1.159   7.131
 4607POPC   C1B60811  13.050   1.248   6.227
 4607POPC   C2B60812  13.151   1.110   6.658
 4607POPC   C3B60813  13.126   0.747   6.964
 4607POPC   C4B60814  13.194   0.843   7.442
 4608POPC   NC360815  44.232  34.660   5.440
 4608POPC   PO460816  44.943  34.385   5.401
 4608POPC   GL160817  44.816  34.505   5.827
 4608POPC   GL260818  44.529  34.747   5.861
 4608POPC   C1A60819  44.961  34.792   6.145
 4608POPC   D2A60820  44.836  34.963   6.542
 4608POPC   C3A60821  44.892  34.688   6.904
 4608POPC   C4A60822  44.725  34.477   7.263
 4608POPC   C1B60823  44.513  34.589   6.312
 4608POPC   C2B60824  44.381  34.700   6.739
 4608POPC   C3B60825  44.466  34.878   7.144
 4608POPC   C4B60826  44.323  34.839   7.534
 4609POPC   NC360827   3.925  40.657   5.184
 4609POPC   PO460828   3.324  40.702   5.483
 4609POPC   GL160829   3.658  40.729   5.778
 4609POPC   GL260830   3.967  40.585   5.697
 4609POPC   C1A60831   3.513  40.737   6.192
 4609POPC   D2A60832   3.267  40.979   6.494
 4609POPC   C3A60833   3.281  40.913   6.933
 4609POPC   C4A60834   3.530  40.989   7.271
 4609POPC   C1B60835   3.983  40.535   6.160
 4609POPC   C2B60836   3.808  40.652   6.591
 4609POPC   C3B60837   3.663  40.575   7.014
 4609POPC   C4B60838   3.454  40.498   7.427
 4610POPC   NC360839  36.998  21.750   5.020
 4610POPC   PO460840  36.941  21.224   5.382
 4610POPC   GL160841  36.979  21.330   5.818
 4610POPC   GL260842  37.297  21.216   5.916
 4610POPC   C1A60843  36.759  21.426   6.227
 4610POPC   D2A60844  36.880  21.611   6.613
 4610POPC   C3A60845  36.798  21.491   7.050
 4610POPC   C4A60846  36.497  21.626   7.351
 4610POPC   C1B60847  37.245  21.292   6.364
 4610POPC   C2B60848  36.952  21.106   6.647
 4610POPC   C3B60849  37.045  21.058   7.044
 4610POPC   C4B60850  37.191  21.289   7.343
 4611POPC   NC360851  13.071  13.214   5.589
 4611POPC   PO460852  12.582  13.746   5.420
 4611POPC   GL160853  12.809  13.585   5.841
 4611POPC   GL260854  12.703  13.228   5.962
 4611POPC   C1A60855  13.038  13.548   6.265
 4611POPC   D2A60856  13.344  13.660   6.580
 4611POPC   C3A60857  13.159  13.704   6.987
 4611POPC   C4A60858  12.799  13.553   7.263
 4611POPC   C1B60859  12.625  13.308   6.431
 4611POPC   C2B60860  12.703  13.670   6.753
 4611POPC   C3B60861  12.470  13.912   7.127
 4611POPC   C4B60862  12.563  13.912   7.608
 4612POPC   NC360863  30.462   4.163   4.963
 4612POPC   PO460864  30.849   4.492   5.426
 4612POPC   GL160865  30.755   4.354   5.820
 4612POPC   GL260866  30.476   4.570   5.913
 4612POPC   C1A60867  30.499   4.164   6.194
 4612POPC   D2A60868  30.449   4.380   6.603
 4612POPC   C3A60869  30.783   4.264   6.898
 4612POPC   C4A60870  30.775   4.351   7.321
 4612POPC   C1B60871  30.866   4.549   6.253
 4612POPC   C2B60872  30.939   4.712   6.664
 4612POPC   C3B60873  30.630   4.740   7.015
 4612POPC   C4B60874  30.560   4.778   7.479
 4613POPC   NC360875  20.251  21.647   5.161
 4613POPC   PO460876  20.821  22.074   5.147
 4613POPC   GL160877  20.728  22.151   5.616
 4613POPC   GL260878  20.371  22.298   5.632
 4613POPC   C1A60879  20.880  22.066   6.063
 4613POPC   D2A60880  21.052  22.120   6.491
 4613POPC   C3A60881  20.875  22.001   6.880
 4613POPC   C4A60882  20.710  21.945   7.292
 4613POPC   C1B60883  20.367  22.042   6.027
 4613POPC   C2B60884  20.541  21.975   6.468
 4613POPC   C3B60885  20.366  21.915   6.877
 4613POPC   C4B60886  20.218  22.064   7.279
 4614POPC   NC360887   9.456  22.019   5.585
 4614POPC   PO460888  10.054  22.145   5.386
 4614POPC   GL160889   9.913  22.156   5.821
 4614POPC   GL260890   9.828  21.800   5.905
 4614POPC   C1A60891   9.713  22.172   6.244
 4614POPC   D2A60892   9.487  21.979   6.578
 4614POPC   C3A60893   9.745  22.032   6.915
 4614POPC   C4A60894   9.773  22.393   7.188
 4614POPC   C1B60895  10.174  21.899   6.207
 4614POPC   C2B60896  10.370  22.096   6.572
 4614POPC   C3B60897  10.219  22.220   6.957
 4614POPC   C4B60898  10.076  21.991   7.333
 4615POPC   NC360899  35.927  11.318   5.319
 4615POPC   PO460900  36.490  11.761   5.258
 4615POPC   GL160901  36.280  11.626   5.646
 4615POPC   GL260902  36.197  11.270   5.733
 4615POPC   C1A60903  36.160  11.651   6.100
 4615POPC   D2A60904  36.315  11.540   6.530
 4615POPC   C3A60905  36.119  11.719   6.917
 4615POPC   C4A60906  35.814  11.568   7.250
 4615POPC   C1B60907  36.208  11.113   6.149
 4615POPC   C2B60908  36.029  11.019   6.541
 4615POPC   C3B60909  36.111  11.213   6.918
 4615POPC   C4B60910  36.291  11.018   7.212
 4616POPC   NC360911   6.775  36.768   5.364
 4616POPC   PO460912   7.056  37.282   5.618
 4616POPC   GL160913   6.604  37.121   5.771
 4616POPC   GL260914   6.337  37.404   5.732
 4616POPC   C1A60915   6.435  36.752   6.038
 4616POPC   D2A60916   6.302  36.624   6.490
 4616POPC   C3A60917   6.586  36.836   6.795
 4616POPC   C4A60918   6.717  36.833   7.218
 4616POPC   C1B60919   6.320  37.310   6.191
 4616POPC   C2B60920   6.376  37.368   6.654
 4616POPC   C3B60921   6.482  37.274   7.093
 4616POPC   C4B60922   6.550  37.157   7.565
 4617POPC   NC360923  13.426  22.012   5.476
 4617POPC   PO460924  14.018  22.381   5.458
 4617POPC   GL160925  13.724  22.272   5.794
 4617POPC   GL260926  13.706  21.898   5.904
 4617POPC   C1A60927  13.421  22.240   6.130
 4617POPC   D2A60928  13.564  22.287   6.531
 4617POPC   C3A60929  13.436  22.083   6.865
 4617POPC   C4A60930  13.623  22.251   7.181
 4617POPC   C1B60931  13.712  21.830   6.346
 4617POPC   C2B60932  13.904  21.895   6.739
 4617POPC   C3B60933  13.918  21.830   7.187
 4617POPC   C4B60934  14.076  21.802   7.585
 4618POPC   NC360935   7.789   9.094   5.106
 4618POPC   PO460936   8.118   8.644   5.552
 4618POPC   GL160937   8.237   8.822   5.926
 4618POPC   GL260938   8.522   9.026   5.919
 4618POPC   C1A60939   8.041   8.858   6.309
 4618POPC   D2A60940   7.990   8.553   6.631
 4618POPC   C3A60941   7.998   8.800   7.017
 4618POPC   C4A60942   8.139   8.806   7.456
 4618POPC   C1B60943   8.502   9.045   6.360
 4618POPC   C2B60944   8.445   9.013   6.805
 4618POPC   C3B60945   8.615   9.103   7.193
 4618POPC   C4B60946   8.515   9.263   7.583
 4619POPC   NC360947   6.722  31.832   5.403
 4619POPC   PO460948   6.857  32.465   5.144
 4619POPC   GL160949   6.632  32.359   5.576
 4619POPC   GL260950   6.602  32.067   5.844
 4619POPC   C1A60951   6.672  32.553   6.011
 4619POPC   D2A60952   6.739  32.479   6.462
 4619POPC   C3A60953   6.722  32.408   6.905
 4619POPC   C4A60954   6.799  32.476   7.348
 4619POPC   C1B60955   6.735  31.820   6.201
 4619POPC   C2B60956   6.867  31.963   6.613
 4619POPC   C3B60957   6.711  31.856   7.023
 4619POPC   C4B60958   6.606  32.024   7.427
 4620POPC   NC360959  29.415  18.246   5.352
 4620POPC   PO460960  28.808  18.099   5.037
 4620POPC   GL160961  28.950  18.195   5.554
 4620POPC   GL260962  28.793  18.456   5.771
 4620POPC   C1A60963  29.247  18.309   5.966
 4620POPC   D2A60964  29.359  18.149   6.383
 4620POPC   C3A60965  29.271  18.170   6.827
 4620POPC   C4A60966  29.365  18.413   7.152
 4620POPC   C1B60967  28.821  18.272   6.234
 4620POPC   C2B60968  28.731  18.220   6.687
 4620POPC   C3B60969  28.857  18.329   7.115
 4620POPC   C4B60970  28.776  18.459   7.552
 4621POPC   NC360971   4.218   3.350   5.361
 4621POPC   PO460972   4.451   3.926   5.194
 4621POPC   GL160973   4.352   3.749   5.679
 4621POPC   GL260974   4.120   3.465   5.825
 4621POPC   C1A60975   4.257   3.773   6.168
 4621POPC   D2A60976   4.381   3.670   6.554
 4621POPC   C3A60977   4.121   3.664   6.914
 4621POPC   C4A60978   4.149   3.634   7.371
 4621POPC   C1B60979   4.106   3.285   6.253
 4621POPC   C2B60980   4.334   3.170   6.644
 4621POPC   C3B60981   4.220   3.173   7.095
 4621POPC   C4B60982   3.938   3.185   7.495
 4622POPC   NC360983  40.981  35.934   5.539
 4622POPC   PO460984  40.842  36.493   5.215
 4622POPC   GL160985  40.819  36.403   5.708
 4622POPC   GL260986  40.625  36.134   5.899
 4622POPC   C1A60987  40.778  36.495   6.184
 4622POPC   D2A60988  40.634  36.161   6.483
 4622POPC   C3A60989  40.772  36.220   6.906
 4622POPC   C4A60990  40.935  36.320   7.321
 4622POPC   C1B60991  40.360  35.852   6.157
 4622POPC   C2B60992  40.133  35.771   6.528
 4622POPC   C3B60993  40.320  35.917   6.907
 4622POPC   C4B60994  40.620  35.823   7.221
 4623POPC   NC360995  31.759  18.903   5.518
 4623POPC   PO460996  31.257  19.227   5.216
 4623POPC   GL160997  31.343  19.283   5.728
 4623POPC   GL260998  31.716  19.350   5.753
 4623POPC   C1A60999  31.196  19.206   6.223
 4623POPC   D2A61000  31.388  18.869   6.545
 4623POPC   C3A61001  31.281  18.884   6.991
 4623POPC   C4A61002  31.289  19.143   7.358
 4623POPC   C1B61003  31.681  19.101   6.141
 4623POPC   C2B61004  31.713  19.241   6.551
 4623POPC   C3B61005  31.745  19.146   6.985
 4623POPC   C4B61006  31.764  19.250   7.407
 4624POPC   NC361007  38.960  34.239   5.289
 4624POPC   PO461008  38.342  34.518   5.389
 4624POPC   GL161009  38.358  34.460   5.785
 4624POPC   GL261010  38.671  34.283   5.763
 4624POPC   C1A61011  38.215  34.648   6.181
 4624POPC   D2A61012  38.226  34.441   6.576
 4624POPC   C3A61013  38.326  34.692   6.945
 4624POPC   C4A61014  38.465  34.621   7.374
 4624POPC   C1B61015  38.696  34.485   6.171
 4624POPC   C2B61016  38.688  34.725   6.542
 4624POPC   C3B61017  38.833  34.627   6.947
 4624POPC   C4B61018  38.827  34.329   7.235
 4625POPC   NC361019  28.916  23.141   5.308
 4625POPC   PO461020  29.431  22.724   5.502
 4625POPC   GL161021  29.208  23.046   5.718
 4625POPC   GL261022  28.880  22.923   5.787
 4625POPC   C1A61023  29.216  23.194   6.125
 4625POPC   D2A61024  29.168  22.946   6.505
 4625POPC   C3A61025  29.079  23.125   6.899
 4625POPC   C4A61026  29.127  22.967   7.285
 4625POPC   C1B61027  28.738  23.029   6.224
 4625POPC   C2B61028  28.668  22.902   6.688
 4625POPC   C3B61029  28.693  22.714   7.145
 4625POPC   C4B61030  28.826  22.739   7.622
 4626POPC   NC361031  37.816  17.258   5.585
 4626POPC   PO461032  37.709  17.900   5.429
 4626POPC   GL161033  37.646  17.741   5.828
 4626POPC   GL261034  37.345  17.534   5.848
 4626POPC   C1A61035  37.742  17.615   6.243
 4626POPC   D2A61036  37.861  17.801   6.639
 4626POPC   C3A61037  37.863  17.466   6.935
 4626POPC   C4A61038  37.863  17.483   7.367
 4626POPC   C1B61039  37.254  17.861   6.189
 4626POPC   C2B61040  37.358  17.912   6.661
 4626POPC   C3B61041  37.478  17.754   7.115
 4626POPC   C4B61042  37.452  17.672   7.605
 4627POPC   NC361043  44.050  43.372   5.548
 4627POPC   PO461044  43.695  42.743   5.451
 4627POPC   GL161045  43.874  42.861   5.836
 4627POPC   GL261046  43.684  43.143   5.828
 4627POPC   C1A61047  43.741  42.845   6.281
 4627POPC   D2A61048  43.970  42.970   6.669
 4627POPC   C3A61049  43.776  43.063   7.090
 4627POPC   C4A61050  43.928  43.046   7.524
 4627POPC   C1B61051  43.913  43.318   6.221
 4627POPC   C2B61052  43.830  43.460   6.670
 4627POPC   C3B61053  44.011  43.512   7.103
 4627POPC   C4B61054  43.828  43.567   7.512
 4628POPC   NC361055  35.024   7.665   5.398
 4628POPC   PO461056  35.324   7.072   5.308
 4628POPC   GL161057  35.432   7.252   5.718
 4628POPC   GL261058  35.324   7.616   5.812
 4628POPC   C1A61059  35.508   7.299   6.179
 4628POPC   D2A61060  35.247   7.271   6.537
 4628POPC   C3A61061  35.389   7.406   6.936
 4628POPC   C4A61062  35.684   7.268   7.279
 4628POPC   C1B61063  35.008   7.552   6.157
 4628POPC   C2B61064  34.995   7.715   6.596
 4628POPC   C3B61065  34.977   7.701   7.042
 4628POPC   C4B61066  35.279   7.591   7.395
 4629POPC   NC361067  29.348  24.822   5.370
 4629POPC   PO461068  29.316  24.200   5.283
 4629POPC   GL161069  29.145  24.110   5.695
 4629POPC   GL261070  29.300  24.408   5.775
 4629POPC   C1A61071  28.890  24.065   6.113
 4629POPC   D2A61072  28.708  23.985   6.549
 4629POPC   C3A61073  28.891  24.274   6.895
 4629POPC   C4A61074  29.033  24.434   7.359
 4629POPC   C1B61075  29.381  24.245   6.188
 4629POPC   C2B61076  29.276  24.434   6.589
 4629POPC   C3B61077  29.391  24.519   7.021
 4629POPC   C4B61078  29.589  24.404   7.419
 4630POPC   NC361079  23.860  21.935   5.264
 4630POPC   PO461080  23.429  22.444   5.431
 4630POPC   GL161081  23.560  22.121   5.721
 4630POPC   GL261082  23.924  22.128   5.750
 4630POPC   C1A61083  23.637  22.011   6.153
 4630POPC   D2A61084  23.677  22.267   6.542
 4630POPC   C3A61085  23.691  22.005   6.913
 4630POPC   C4A61086  23.401  21.845   7.232
 4630POPC   C1B61087  24.021  22.379   6.126
 4630POPC   C2B61088  24.145  22.490   6.563
 4630POPC   C3B61089  24.031  22.385   6.982
 4630POPC   C4B61090  23.716  22.368   7.279
 4631POPC   NC361091  29.343   1.904   5.342
 4631POPC   PO461092  28.689   1.988   5.339
 4631POPC   GL161093  29.002   2.092   5.691
 4631POPC   GL261094  29.068   1.768   5.778
 4631POPC   C1A61095  29.397   2.060   6.035
 4631POPC   D2A61096  29.432   1.852   6.491
 4631POPC   C3A61097  29.151   2.015   6.816
 4631POPC   C4A61098  28.822   2.081   7.161
 4631POPC   C1B61099  29.005   1.820   6.220
 4631POPC   C2B61100  29.043   1.542   6.564
 4631POPC   C3B61101  28.905   1.597   6.966
 4631POPC   C4B61102  28.712   1.602   7.342
 4632POPC   NC361103   0.980  36.361   5.482
 4632POPC   PO461104   1.531  36.181   5.419
 4632POPC   GL161105   1.267  36.059   5.804
 4632POPC   GL261106   0.906  36.116   5.909
 4632POPC   C1A61107   1.329  36.246   6.236
 4632POPC   D2A61108   1.635  36.384   6.572
 4632POPC   C3A61109   1.412  36.351   6.992
 4632POPC   C4A61110   1.430  35.969   7.281
 4632POPC   C1B61111   0.793  36.251   6.300
 4632POPC   C2B61112   1.007  36.276   6.675
 4632POPC   C3B61113   0.978  36.032   7.051
 4632POPC   C4B61114   0.697  36.052   7.425
 4633POPC   NC361115   2.827  39.650   5.597
 4633POPC   PO461116   2.458  40.176   5.601
 4633POPC   GL161117   2.482  39.898   5.979
 4633POPC   GL261118   2.603  39.539   6.046
 4633POPC   C1A61119   2.667  40.033   6.365
 4633POPC   D2A61120   2.924  40.078   6.716
 4633POPC   C3A61121   2.721  40.238   7.039
 4633POPC   C4A61122   2.449  39.935   7.022
 4633POPC   C1B61123   2.714  39.535   6.491
 4633POPC   C2B61124   3.069  39.574   6.771
 4633POPC   C3B61125   3.006  39.811   7.158
 4633POPC   C4B61126   3.028  39.698   7.633
 4634POPC   NC361127   2.477   9.960   5.556
 4634POPC   PO461128   2.853   9.541   5.189
 4634POPC   GL161129   2.850   9.615   5.706
 4634POPC   GL261130   2.967   9.937   5.890
 4634POPC   C1A61131   2.974   9.534   6.199
 4634POPC   D2A61132   2.904   9.455   6.663
 4634POPC   C3A61133   2.662   9.513   7.055
 4634POPC   C4A61134   2.644   9.680   7.503
 4634POPC   C1B61135   2.607   9.893   6.215
 4634POPC   C2B61136   2.542   9.826   6.671
 4634POPC   C3B61137   2.556  10.011   7.122
 4634POPC   C4B61138   2.446  10.170   7.583
 4635POPC   NC361139  42.689  30.287   5.119
 4635POPC   PO461140  43.200  29.979   5.464
 4635POPC   GL161141  43.231  29.973   5.875
 4635POPC   GL261142  43.443  30.263   5.892
 4635POPC   C1A61143  43.047  29.795   6.231
 4635POPC   D2A61144  42.963  29.935   6.632
 4635POPC   C3A61145  43.164  29.743   6.967
 4635POPC   C4A61146  42.888  29.861   7.275
 4635POPC   C1B61147  43.271  30.271   6.334
 4635POPC   C2B61148  43.348  30.322   6.793
 4635POPC   C3B61149  43.226  30.267   7.222
 4635POPC   C4B61150  43.304  30.217   7.662
 4636POPC   NC361151  25.571  28.123   5.341
 4636POPC   PO461152  24.972  28.332   5.130
 4636POPC   GL161153  25.138  28.312   5.603
 4636POPC   GL261154  25.446  28.460   5.756
 4636POPC   C1A61155  25.020  28.313   6.077
 4636POPC   D2A61156  25.213  28.301   6.500
 4636POPC   C3A61157  25.019  28.269   6.885
 4636POPC   C4A61158  25.104  28.589   7.149
 4636POPC   C1B61159  25.372  28.667   6.189
 4636POPC   C2B61160  25.573  28.791   6.551
 4636POPC   C3B61161  25.657  28.601   6.963
 4636POPC   C4B61162  25.784  28.719   7.360
 4637POPC   NC361163  23.693  28.729   5.388
 4637POPC   PO461164  24.014  28.084   5.275
 4637POPC   GL161165  23.880  28.277   5.697
 4637POPC   GL261166  23.522  28.400   5.757
 4637POPC   C1A61167  23.808  28.247   6.175
 4637POPC   D2A61168  23.698  28.420   6.586
 4637POPC   C3A61169  23.764  28.110   6.907
 4637POPC   C4A61170  24.139  28.076   7.144
 4637POPC   C1B61171  23.570  28.698   6.113
 4637POPC   C2B61172  23.806  28.977   6.386
 4637POPC   C3B61173  23.764  28.885   6.804
 4637POPC   C4B61174  23.663  28.563   7.132
 4638POPC   NC361175  44.946  11.111   5.379
 4638POPC   PO461176  44.528  11.641   5.503
 4638POPC   GL161177  44.762  11.394   5.769
 4638POPC   GL261178  44.545  11.134   5.810
 4638POPC   C1A61179  44.775  11.383   6.226
 4638POPC   D2A61180  44.540  11.289   6.609
 4638POPC   C3A61181  44.766  11.385   6.980
 4638POPC   C4A61182  44.661  11.561   7.396
 4638POPC   C1B61183  44.344  10.991   6.194
 4638POPC   C2B61184  44.327  10.801   6.603
 4638POPC   C3B61185  44.504  10.921   7.017
 4638POPC   C4B61186  44.709  11.046   7.418
 4639POPC   NC361187  23.922  17.383   5.320
 4639POPC   PO461188  23.351  17.758   5.455
 4639POPC   GL161189  23.658  17.552   5.784
 4639POPC   GL261190  23.868  17.242   5.794
 4639POPC   C1A61191  23.736  17.472   6.244
 4639POPC   D2A61192  23.913  17.525   6.657
 4639POPC   C3A61193  23.673  17.444   7.041
 4639POPC   C4A61194  23.786  17.719   7.382
 4639POPC   C1B61195  24.011  17.023   6.139
 4639POPC   C2B61196  24.204  17.124   6.527
 4639POPC   C3B61197  24.030  17.074   6.924
 4639POPC   C4B61198  23.869  17.004   7.334
 4640POPC   NC361199  24.027  16.316   5.640
 4640POPC   PO461200  23.576  15.876   5.356
 4640POPC   GL161201  23.605  15.665   5.764
 4640POPC   GL261202  23.948  15.783   5.853
 4640POPC   C1A61203  23.554  15.727   6.206
 4640POPC   D2A61204  23.635  15.989   6.565
 4640POPC   C3A61205  23.422  16.083   6.948
 4640POPC   C4A61206  23.726  16.144   7.222
 4640POPC   C1B61207  24.034  15.514   6.222
 4640POPC   C2B61208  23.764  15.481   6.613
 4640POPC   C3B61209  23.749  15.655   7.043
 4640POPC   C4B61210  24.014  15.623   7.441
 4641POPC   NC361211  44.748   7.041   5.562
 4641POPC   PO461212  44.478   7.539   5.191
 4641POPC   GL161213  44.464   7.446   5.687
 4641POPC   GL261214  44.310   7.646   5.848
 4641POPC   C1A61215  44.695   7.405   6.136
 4641POPC   D2A61216  44.940   7.476   6.546
 4641POPC   C3A61217  44.785   7.461   6.989
 4641POPC   C4A61218  44.888   7.457   7.436
 4641POPC   C1B61219  44.197   7.389   6.200
 4641POPC   C2B61220  44.394   7.382   6.581
 4641POPC   C3B61221  44.413   7.113   6.909
 4641POPC   C4B61222  44.382   7.308   7.288
 4642POPC   NC361223  32.621   1.259   5.559
 4642POPC   PO461224  31.967   0.999   5.468
 4642POPC   GL161225  32.162   1.229   5.825
 4642POPC   GL261226  32.473   1.077   6.020
 4642POPC   C1A61227  32.079   1.273   6.266
 4642POPC   D2A61228  32.253   1.152   6.690
 4642POPC   C3A61229  32.057   1.181   7.114
 4642POPC   C4A61230  31.913   1.024   7.594
 4642POPC   C1B61231  32.646   1.465   6.232
 4642POPC   C2B61232  32.727   1.672   6.639
 4642POPC   C3B61233  32.497   1.518   6.991
 4642POPC   C4B61234  32.547   1.213   7.305
 4643POPC   NC361235  24.894   9.232   5.246
 4643POPC   PO461236  25.414   8.908   5.364
 4643POPC   GL161237  25.298   8.914   5.773
 4643POPC   GL261238  25.537   9.195   5.812
 4643POPC   C1A61239  25.149   9.064   6.177
 4643POPC   D2A61240  25.312   9.188   6.566
 4643POPC   C3A61241  25.123   9.164   6.951
 4643POPC   C4A61242  25.322   9.173   7.351
 4643POPC   C1B61243  25.657   9.019   6.223
 4643POPC   C2B61244  25.802   9.062   6.668
 4643POPC   C3B61245  25.548   8.894   6.968
 4643POPC   C4B61246  25.223   8.589   7.032
 4644POPC   NC361247  34.578  28.001   5.455
 4644POPC   PO461248  34.670  27.331   5.362
 4644POPC   GL161249  34.720  27.480   5.793
 4644POPC   GL261250  34.928  27.782   5.796
 4644POPC   C1A61251  34.816  27.475   6.244
 4644POPC   D2A61252  34.862  27.544   6.681
 4644POPC   C3A61253  34.421  27.467   6.847
 4644POPC   C4A61254  34.348  27.448   7.299
 4644POPC   C1B61255  34.790  27.983   6.204
 4644POPC   C2B61256  34.579  27.972   6.661
 4644POPC   C3B61257  34.640  27.838   7.112
 4644POPC   C4B61258  34.487  27.942   7.552
 4645POPC   NC361259  28.597  39.179   5.399
 4645POPC   PO461260  29.119  38.892   5.612
 4645POPC   GL161261  28.807  39.131   5.866
 4645POPC   GL261262  28.790  39.491   5.767
 4645POPC   C1A61263  28.898  39.285   6.288
 4645POPC   D2A61264  29.022  39.527   6.684
 4645POPC   C3A61265  28.993  39.379   7.138
 4645POPC   C4A61266  28.816  39.022   7.382
 4645POPC   C1B61267  28.759  39.780   6.154
 4645POPC   C2B61268  28.739  39.947   6.588
 4645POPC   C3B61269  28.953  39.925   7.022
 4645POPC   C4B61270  29.099  39.792   7.447
 4646POPC   NC361271  28.047  41.699   5.333
 4646POPC   PO461272  28.563  41.213   5.530
 4646POPC   GL161273  28.528  41.514   5.846
 4646POPC   GL261274  28.211  41.595   5.827
 4646POPC   C1A61275  28.580  41.773   6.226
 4646POPC   D2A61276  28.513  41.723   6.678
 4646POPC   C3A61277  28.231  41.431   6.858
 4646POPC   C4A61278  28.260  41.557   7.254
 4646POPC   C1B61279  28.064  41.880   6.134
 4646POPC   C2B61280  27.992  41.799   6.569
 4646POPC   C3B61281  28.119  41.956   6.962
 4646POPC   C4B61282  28.001  41.966   7.383
 4647POPC   NC361283  30.995  21.971   5.341
 4647POPC   PO461284  30.606  21.586   5.152
 4647POPC   GL161285  30.533  21.853   5.603
 4647POPC   GL261286  30.804  22.115   5.778
 4647POPC   C1A61287  30.420  21.996   6.078
 4647POPC   D2A61288  30.579  22.052   6.533
 4647POPC   C3A61289  30.412  22.085   6.956
 4647POPC   C4A61290  30.556  22.041   7.387
 4647POPC   C1B61291  30.771  22.356   6.172
 4647POPC   C2B61292  30.925  22.480   6.603
 4647POPC   C3B61293  30.767  22.443   7.038
 4647POPC   C4B61294  30.399  22.516   7.256
 4648POPC   NC361295  18.062  37.743   5.397
 4648POPC   PO461296  18.613  37.610   5.566
 4648POPC   GL161297  18.365  37.769   5.846
 4648POPC   GL261298  18.182  37.459   5.847
 4648POPC   C1A61299  18.496  37.803   6.274
 4648POPC   D2A61300  18.566  37.442   6.556
 4648POPC   C3A61301  18.485  37.598   6.949
 4648POPC   C4A61302  18.309  37.951   7.139
 4648POPC   C1B61303  18.047  37.573   6.273
 4648POPC   C2B61304  18.031  37.400   6.707
 4648POPC   C3B61305  18.047  37.459   7.175
 4648POPC   C4B61306  18.054  37.380   7.635
 4649POPC   NC361307  16.269  17.262   5.447
 4649POPC   PO461308  15.720  17.659   5.522
 4649POPC   GL161309  16.002  17.457   5.840
 4649POPC   GL261310  16.424  17.464   5.887
 4649POPC   C1A61311  15.828  17.347   6.246
 4649POPC   D2A61312  15.799  17.598   6.597
 4649POPC   C3A61313  15.721  17.408   6.986
 4649POPC   C4A61314  15.774  17.517   7.422
 4649POPC   C1B61315  16.299  17.149   6.182
 4649POPC   C2B61316  16.175  17.255   6.616
 4649POPC   C3B61317  16.133  17.098   7.019
 4649POPC   C4B61318  16.244  17.293   7.391
 4650POPC   NC361319  17.384  39.474   5.581
 4650POPC   PO461320  17.683  39.056   5.177
 4650POPC   GL161321  17.727  39.099   5.701
 4650POPC   GL261322  17.420  39.128   5.951
 4650POPC   C1A61323  17.855  39.296   6.145
 4650POPC   D2A61324  17.790  39.070   6.561
 4650POPC   C3A61325  17.934  39.141   6.985
 4650POPC   C4A61326  17.886  39.547   7.174
 4650POPC   C1B61327  17.367  39.291   6.362
 4650POPC   C2B61328  17.203  38.986   6.645
 4650POPC   C3B61329  17.303  38.876   7.018
 4650POPC   C4B61330  17.502  39.158   7.298
 4651POPC   NC361331  14.508  39.439   5.192
 4651POPC   PO461332  14.125  38.885   5.332
 4651POPC   GL161333  14.376  39.162   5.661
 4651POPC   GL261334  14.690  39.010   5.826
 4651POPC   C1A61335  14.447  39.392   6.076
 4651POPC   D2A61336  14.406  39.285   6.527
 4651POPC   C3A61337  14.127  39.434   6.863
 4651POPC   C4A61338  14.304  39.393   7.266
 4651POPC   C1B61339  14.567  38.884   6.210
 4651POPC   C2B61340  14.706  38.886   6.629
 4651POPC   C3B61341  14.718  39.186   6.976
 4651POPC   C4B61342  14.991  38.962   7.246
 4652POPC   NC361343  39.837  18.260   5.462
 4652POPC   PO461344  40.480  17.988   5.549
 4652POPC   GL161345  40.201  18.300   5.833
 4652POPC   GL261346  39.832  18.293   5.965
 4652POPC   C1A61347  40.144  18.644   6.154
 4652POPC   D2A61348  39.851  18.651   6.496
 4652POPC   C3A61349  40.029  18.687   6.921
 4652POPC   C4A61350  39.924  18.477   7.304
 4652POPC   C1B61351  39.815  17.894   6.176
 4652POPC   C2B61352  39.958  17.775   6.598
 4652POPC   C3B61353  39.994  17.881   7.065
 4652POPC   C4B61354  39.752  17.993   7.414
 4653POPC   NC361355  12.636  26.749   5.501
 4653POPC   PO461356  12.032  26.850   5.293
 4653POPC   GL161357  12.150  26.799   5.728
 4653POPC   GL261358  11.837  26.854   5.918
 4653POPC   C1A61359  12.344  26.862   6.153
 4653POPC   D2A61360  12.464  27.015   6.596
 4653POPC   C3A61361  12.182  26.840   6.943
 4653POPC   C4A61362  12.259  26.608   7.328
 4653POPC   C1B61363  11.914  26.517   6.248
 4653POPC   C2B61364  11.893  26.440   6.707
 4653POPC   C3B61365  11.800  26.486   7.144
 4653POPC   C4B61366  11.859  26.379   7.632
 4654POPC   NC361367   1.521   9.993   5.221
 4654POPC   PO461368   1.264   9.457   5.385
 4654POPC   GL161369   1.467   9.612   5.733
 4654POPC   GL261370   1.507   9.987   5.718
 4654POPC   C1A61371   1.290   9.519   6.116
 4654POPC   D2A61372   1.054   9.764   6.435
 4654POPC   C3A61373   1.130   9.667   6.883
 4654POPC   C4A61374   0.885   9.933   7.130
 4654POPC   C1B61375   1.334  10.068   6.107
 4654POPC   C2B61376   1.427  10.113   6.531
 4654POPC   C3B61377   1.318  10.169   6.946
 4654POPC   C4B61378   1.635  10.248   7.234
 4655POPC   NC361379  43.496   9.192   5.406
 4655POPC   PO461380  44.109   8.879   5.405
 4655POPC   GL161381  43.877   9.028   5.740
 4655POPC   GL261382  43.749   8.761   5.899
 4655POPC   C1A61383  44.006   9.132   6.164
 4655POPC   D2A61384  44.007   9.362   6.550
 4655POPC   C3A61385  44.077   9.151   6.920
 4655POPC   C4A61386  43.881   9.104   7.329
 4655POPC   C1B61387  43.816   8.656   6.287
 4655POPC   C2B61388  44.096   8.741   6.615
 4655POPC   C3B61389  43.979   8.686   7.065
 4655POPC   C4B61390  44.022   8.622   7.546
 4656POPC   NC361391  22.706  36.195   5.445
 4656POPC   PO461392  23.344  36.170   5.389
 4656POPC   GL161393  23.066  35.852   5.654
 4656POPC   GL261394  23.296  35.742   5.910
 4656POPC   C1A61395  22.804  35.803   6.066
 4656POPC   D2A61396  22.976  35.926   6.471
 4656POPC   C3A61397  22.753  35.938   6.841
 4656POPC   C4A61398  22.881  36.074   7.237
 4656POPC   C1B61399  23.151  36.200   6.057
 4656POPC   C2B61400  23.265  36.415   6.449
 4656POPC   C3B61401  23.118  36.324   6.844
 4656POPC   C4B61402  23.172  36.545   7.207
 4657POPC   NC361403  31.306   8.300   5.042
 4657POPC   PO461404  30.610   8.313   5.285
 4657POPC   GL161405  30.444   8.298   5.727
 4657POPC   GL261406  30.735   8.118   5.794
 4657POPC   C1A61407  30.412   8.114   6.201
 4657POPC   D2A61408  30.611   7.965   6.619
 4657POPC   C3A61409  30.421   8.177   7.005
 4657POPC   C4A61410  30.425   8.314   7.472
 4657POPC   C1B61411  30.924   7.990   6.171
 4657POPC   C2B61412  31.131   8.106   6.571
 4657POPC   C3B61413  30.959   8.272   6.960
 4657POPC   C4B61414  30.803   8.014   7.310
 4658POPC   NC361415  20.492  31.319   5.414
 4658POPC   PO461416  21.107  31.651   5.311
 4658POPC   GL161417  20.856  31.553   5.695
 4658POPC   GL261418  20.864  31.187   5.760
 4658POPC   C1A61419  20.616  31.493   6.108
 4658POPC   D2A61420  20.424  31.589   6.517
 4658POPC   C3A61421  20.621  31.772   6.890
 4658POPC   C4A61422  20.402  31.580   7.245
 4658POPC   C1B61423  20.858  31.026   6.189
 4658POPC   C2B61424  20.665  31.132   6.542
 4658POPC   C3B61425  20.479  31.197   6.905
 4658POPC   C4B61426  20.607  31.070   7.287
 4659POPC   NC361427   3.367  11.394   5.381
 4659POPC   PO461428   4.008  11.156   5.415
 4659POPC   GL161429   3.710  11.278   5.739
 4659POPC   GL261430   3.439  11.032   5.781
 4659POPC   C1A61431   3.743  11.421   6.161
 4659POPC   D2A61432   3.684  11.293   6.590
 4659POPC   C3A61433   3.743  11.483   6.992
 4659POPC   C4A61434   3.524  11.408   7.379
 4659POPC   C1B61435   3.585  10.932   6.204
 4659POPC   C2B61436   3.670  10.796   6.644
 4659POPC   C3B61437   3.688  10.970   7.085
 4659POPC   C4B61438   3.581  10.924   7.533
 4660POPC   NC361439  36.221   2.426   5.489
 4660POPC   PO461440  36.030   3.030   5.158
 4660POPC   GL161441  35.985   2.869   5.680
 4660POPC   GL261442  35.793   2.569   5.785
 4660POPC   C1A61443  36.107   2.707   6.174
 4660POPC   D2A61444  36.099   2.555   6.671
 4660POPC   C3A61445  36.144   2.844   7.080
 4660POPC   C4A61446  36.004   3.038   7.500
 4660POPC   C1B61447  35.701   2.363   6.213
 4660POPC   C2B61448  35.608   2.379   6.676
 4660POPC   C3B61449  35.753   2.468   7.090
 4660POPC   C4B61450  35.629   2.665   7.473
 4661POPC   NC361451   3.320  19.122   5.183
 4661POPC   PO461452   3.806  18.884   5.557
 4661POPC   GL161453   3.731  19.236   5.859
 4661POPC   GL261454   3.380  19.296   5.977
 4661POPC   C1A61455   3.716  19.221   6.341
 4661POPC   D2A61456   3.670  18.787   6.584
 4661POPC   C3A61457   3.662  18.814   7.040
 4661POPC   C4A61458   3.542  19.218   7.160
 4661POPC   C1B61459   3.221  19.111   6.382
 4661POPC   C2B61460   3.201  18.997   6.832
 4661POPC   C3B61461   2.997  19.153   7.225
 4661POPC   C4B61462   2.921  19.072   7.705
 4662POPC   NC361463  39.198  12.463   5.675
 4662POPC   PO461464  39.466  11.940   5.760
 4662POPC   GL161465  39.119  12.038   6.020
 4662POPC   GL261466  39.125  12.392   6.159
 4662POPC   C1A61467  39.137  11.984   6.471
 4662POPC   D2A61468  39.439  12.234   6.675
 4662POPC   C3A61469  39.616  11.868   6.852
 4662POPC   C4A61470  39.298  11.738   7.089
 4662POPC   C1B61471  38.729  12.238   6.350
 4662POPC   C2B61472  38.634  12.100   6.758
 4662POPC   C3B61473  38.857  11.991   7.123
 4662POPC   C4B61474  39.259  12.228   7.184
 4663POPC   NC361475  18.613  14.704   5.597
 4663POPC   PO461476  18.143  14.314   5.260
 4663POPC   GL161477  18.227  14.352   5.712
 4663POPC   GL261478  18.276  14.644   5.969
 4663POPC   C1A61479  18.195  14.155   6.123
 4663POPC   D2A61480  18.116  14.146   6.562
 4663POPC   C3A61481  18.408  14.287   6.867
 4663POPC   C4A61482  18.370  14.397   7.291
 4663POPC   C1B61483  18.436  14.886   6.304
 4663POPC   C2B61484  18.459  14.769   6.725
 4663POPC   C3B61485  18.211  14.838   7.099
 4663POPC   C4B61486  18.358  14.898   7.538
 4664POPC   NC361487   0.679  12.526   5.355
 4664POPC   PO461488   0.337  13.136   5.495
 4664POPC   GL161489   0.315  12.847   5.835
 4664POPC   GL261490   0.659  12.796   5.817
 4664POPC   C1A61491   0.393  12.726   6.286
 4664POPC   D2A61492   0.596  12.797   6.710
 4664POPC   C3A61493   0.356  12.831   7.098
 4664POPC   C4A61494   0.398  12.686   7.538
 4664POPC   C1B61495   0.828  13.020   6.194
 4664POPC   C2B61496   0.802  13.249   6.584
 4664POPC   C3B61497   0.867  13.139   7.045
 4664POPC   C4B61498   0.852  12.953   7.505
 4665POPC   NC361499   0.655  11.744   5.608
 4665POPC   PO461500   0.256  12.326   5.507
 4665POPC   GL161501   0.301  12.002   5.863
 4665POPC   GL261502   0.088  11.724   5.963
 4665POPC   C1A61503   0.515  11.818   6.262
 4665POPC   D2A61504   0.750  11.901   6.669
 4665POPC   C3A61505   0.499  11.973   7.057
 4665POPC   C4A61506   0.181  12.321   7.155
 4665POPC   C1B61507   0.009  12.031   6.282
 4665POPC   C2B61508   0.142  12.064   6.698
 4665POPC   C3B61509   0.009  11.826   7.071
 4665POPC   C4B61510   0.060  11.845   7.528
 4666POPC   NC361511  30.250  18.125   5.076
 4666POPC   PO461512  30.769  18.379   5.416
 4666POPC   GL161513  30.879  18.473   5.831
 4666POPC   GL261514  30.547  18.512   5.886
 4666POPC   C1A61515  30.802  18.309   6.282
 4666POPC   D2A61516  30.940  17.985   6.605
 4666POPC   C3A61517  30.909  18.149   7.026
 4666POPC   C4A61518  30.926  18.572   7.213
 4666POPC   C1B61519  30.356  18.598   6.268
 4666POPC   C2B61520  30.482  18.570   6.702
 4666POPC   C3B61521  30.423  18.671   7.123
 4666POPC   C4B61522  30.273  18.444   7.505
 4667POPC   NC361523  18.707  27.571   5.244
 4667POPC   PO461524  19.278  27.861   5.468
 4667POPC   GL161525  19.129  27.682   5.851
 4667POPC   GL261526  19.407  27.581   6.037
 4667POPC   C1A61527  18.917  27.573   6.262
 4667POPC   D2A61528  18.834  27.601   6.723
 4667POPC   C3A61529  18.772  27.280   7.036
 4667POPC   C4A61530  18.723  27.459   7.479
 4667POPC   C1B61531  19.388  27.681   6.467
 4667POPC   C2B61532  19.329  27.599   6.897
 4667POPC   C3B61533  19.227  27.381   7.280
 4667POPC   C4B61534  19.481  27.323   7.655
 4668POPC   NC361535  38.894  19.408   5.529
 4668POPC   PO461536  39.303  18.932   5.259
 4668POPC   GL161537  39.309  18.777   5.678
 4668POPC   GL261538  39.283  19.128   5.754
 4668POPC   C1A61539  39.302  18.844   6.156
 4668POPC   D2A61540  38.990  18.984   6.475
 4668POPC   C3A61541  39.144  18.974   6.903
 4668POPC   C4A61542  38.903  19.039   7.278
 4668POPC   C1B61543  39.221  19.352   6.144
 4668POPC   C2B61544  39.317  19.387   6.567
 4668POPC   C3B61545  39.176  19.488   6.957
 4668POPC   C4B61546  39.333  19.303   7.329
 4669POPC   NC361547  14.715  41.588   5.391
 4669POPC   PO461548  14.235  41.171   5.515
 4669POPC   GL161549  14.528  41.381   5.830
 4669POPC   GL261550  14.342  41.695   5.753
 4669POPC   C1A61551  14.576  41.719   6.187
 4669POPC   D2A61552  14.311  41.805   6.537
 4669POPC   C3A61553  14.511  41.830   6.932
 4669POPC   C4A61554  14.541  41.609   7.326
 4669POPC   C1B61555  14.106  41.480   6.128
 4669POPC   C2B61556  13.877  41.521   6.515
 4669POPC   C3B61557  14.082  41.489   6.890
 4669POPC   C4B61558  14.059  41.402   7.291
 4670POPC   NC361559  30.151   8.117   5.282
 4670POPC   PO461560  29.645   8.489   5.482
 4670POPC   GL161561  29.903   8.230   5.738
 4670POPC   GL261562  29.754   7.923   5.856
 4670POPC   C1A61563  29.936   8.306   6.181
 4670POPC   D2A61564  29.936   8.108   6.585
 4670POPC   C3A61565  29.841   8.299   6.942
 4670POPC   C4A61566  30.078   8.567   7.184
 4670POPC   C1B61567  30.005   7.791   6.176
 4670POPC   C2B61568  30.191   7.669   6.567
 4670POPC   C3B61569  30.083   7.807   7.005
 4670POPC   C4B61570  30.329   7.834   7.401
 4671POPC   NC361571   1.019  34.606   5.322
 4671POPC   PO461572   1.625  34.619   5.518
 4671POPC   GL161573   1.246  34.533   5.795
 4671POPC   GL261574   1.018  34.806   5.800
 4671POPC   C1A61575   1.077  34.446   6.222
 4671POPC   D2A61576   1.206  34.266   6.595
 4671POPC   C3A61577   1.087  34.381   7.024
 4671POPC   C4A61578   1.394  34.372   7.358
 4671POPC   C1B61579   1.162  34.937   6.225
 4671POPC   C2B61580   1.183  34.794   6.665
 4671POPC   C3B61581   1.296  34.829   7.116
 4671POPC   C4B61582   1.057  34.783   7.530
 4672POPC   NC361583  41.733  15.406   5.078
 4672POPC   PO461584  41.330  15.715   5.506
 4672POPC   GL161585  41.296  15.415   5.854
 4672POPC   GL261586  41.516  15.148   5.716
 4672POPC   C1A61587  41.294  15.227   6.312
 4672POPC   D2A61588  41.353  15.457   6.717
 4672POPC   C3A61589  41.435  15.246   7.125
 4672POPC   C4A61590  41.416  14.880   7.432
 4672POPC   C1B61591  41.745  15.228   6.094
 4672POPC   C2B61592  41.785  15.146   6.548
 4672POPC   C3B61593  41.934  15.157   6.981
 4672POPC   C4B61594  41.891  15.541   7.234
 4673POPC   NC361595  11.078   7.943   5.352
 4673POPC   PO461596  11.525   8.392   5.287
 4673POPC   GL161597  11.316   8.336   5.698
 4673POPC   GL261598  11.327   8.001   5.817
 4673POPC   C1A61599  11.169   8.409   6.141
 4673POPC   D2A61600  11.321   8.280   6.569
 4673POPC   C3A61601  11.312   8.555   6.944
 4673POPC   C4A61602  11.451   8.473   7.386
 4673POPC   C1B61603  11.113   7.885   6.248
 4673POPC   C2B61604  11.053   7.852   6.712
 4673POPC   C3B61605  11.229   8.075   7.108
 4673POPC   C4B61606  11.288   8.059   7.623
 4674POPC   NC361607   7.857   1.859   5.391
 4674POPC   PO461608   8.534   1.735   5.471
 4674POPC   GL161609   8.345   1.933   5.845
 4674POPC   GL261610   8.563   2.222   5.927
 4674POPC   C1A61611   8.129   1.846   6.263
 4674POPC   D2A61612   8.095   1.543   6.632
 4674POPC   C3A61613   8.189   1.757   7.021
 4674POPC   C4A61614   8.225   2.149   7.253
 4674POPC   C1B61615   8.532   2.223   6.346
 4674POPC   C2B61616   8.512   1.904   6.650
 4674POPC   C3B61617   8.679   1.929   7.055
 4674POPC   C4B61618   8.741   1.975   7.489
 4675POPC   NC361619   0.854   2.312   4.913
 4675POPC   PO461620   0.557   1.896   5.326
 4675POPC   GL161621   0.528   1.952   5.775
 4675POPC   GL261622   0.616   2.279   5.829
 4675POPC   C1A61623   0.297   1.999   6.206
 4675POPC   D2A61624   0.197   2.182   6.637
 4675POPC   C3A61625   0.341   1.969   7.034
 4675POPC   C4A61626   0.735   1.717   7.084
 4675POPC   C1B61627   0.504   2.467   6.214
 4675POPC   C2B61628   0.599   2.498   6.635
 4675POPC   C3B61629   0.358   2.483   7.019
 4675POPC   C4B61630   0.551   2.386   7.396
 4676POPC   NC361631   5.986   5.530   5.352
 4676POPC   PO461632   5.614   6.013   5.356
 4676POPC   GL161633   5.660   5.766   5.725
 4676POPC   GL261634   5.499   5.455   5.753
 4676POPC   C1A61635   5.778   5.965   6.108
 4676POPC   D2A61636   5.954   6.229   6.415
 4676POPC   C3A61637   5.986   6.086   6.829
 4676POPC   C4A61638   5.737   5.965   7.184
 4676POPC   C1B61639   5.564   5.515   6.205
 4676POPC   C2B61640   5.528   5.828   6.540
 4676POPC   C3B61641   5.358   5.737   6.903
 4676POPC   C4B61642   5.488   5.505   7.256
 4677POPC   NC361643   2.488  19.197   5.515
 4677POPC   PO461644   2.584  19.882   5.443
 4677POPC   GL161645   2.771  19.873   5.889
 4677POPC   GL261646   3.080  19.705   5.877
 4677POPC   C1A61647   2.995  20.023   6.290
 4677POPC   D2A61648   3.139  19.912   6.718
 4677POPC   C3A61649   2.914  20.042   7.128
 4677POPC   C4A61650   2.808  20.358   7.440
 4677POPC   C1B61651   2.916  19.522   6.271
 4677POPC   C2B61652   2.924  19.442   6.721
 4677POPC   C3B61653   2.723  19.579   7.097
 4677POPC   C4B61654   2.609  19.472   7.515
 4678POPC   NC361655  36.632  30.638   5.456
 4678POPC   PO461656  37.253  30.849   5.394
 4678POPC   GL161657  37.009  30.820   5.794
 4678POPC   GL261658  36.679  30.843   5.950
 4678POPC   C1A61659  37.047  30.559   6.174
 4678POPC   D2A61660  37.163  30.499   6.600
 4678POPC   C3A61661  36.946  30.645   6.915
 4678POPC   C4A61662  37.009  30.556   7.320
 4678POPC   C1B61663  36.552  30.432   6.151
 4678POPC   C2B61664  36.657  30.334   6.598
 4678POPC   C3B61665  36.465  30.514   6.983
 4678POPC   C4B61666  36.584  30.830   7.303
 4679POPC   NC361667  33.387  44.109   5.388
 4679POPC   PO461668  32.830  43.746   5.317
 4679POPC   GL161669  32.911  43.980   5.696
 4679POPC   GL261670  33.242  43.904   5.842
 4679POPC   C1A61671  32.752  44.007   6.114
 4679POPC   D2A61672  32.761  43.829   6.511
 4679POPC   C3A61673  32.888  44.022   6.834
 4679POPC   C4A61674  32.853  44.030   7.282
 4679POPC   C1B61675  33.227  43.793   6.283
 4679POPC   C2B61676  33.266  43.666   6.718
 4679POPC   C3B61677  33.306  43.824   7.143
 4679POPC   C4B61678  33.296  44.117   7.499
 4680POPC   NC361679  42.023   8.929   5.381
 4680POPC   PO461680  42.583   8.526   5.434
 4680POPC   GL161681  42.503   9.003   5.670
 4680POPC   GL261682  42.163   9.055   5.858
 4680POPC   C1A61683  42.566   9.187   6.139
 4680POPC   D2A61684  42.629   8.968   6.567
 4680POPC   C3A61685  42.528   9.081   6.986
 4680POPC   C4A61686  42.427   8.980   7.430
 4680POPC   C1B61687  42.065   9.258   6.276
 4680POPC   C2B61688  42.063   9.325   6.740
 4680POPC   C3B61689  42.109   9.314   7.204
 4680POPC   C4B61690  41.800   9.076   7.483
 4681POPC   NC361691  28.869  41.756   5.565
 4681POPC   PO461692  29.302  41.344   5.252
 4681POPC   GL161693  29.122  41.357   5.732
 4681POPC   GL261694  29.334  41.500   5.944
 4681POPC   C1A61695  28.890  41.352   6.170
 4681POPC   D2A61696  29.140  41.395   6.575
 4681POPC   C3A61697  28.938  41.412   7.017
 4681POPC   C4A61698  29.141  41.282   7.425
 4681POPC   C1B61699  29.131  41.809   6.204
 4681POPC   C2B61700  28.991  41.884   6.596
 4681POPC   C3B61701  29.308  41.761   6.898
 4681POPC   C4B61702  29.361  41.766   7.309
 4682POPC   NC361703  35.099  11.036   5.154
 4682POPC   PO461704  35.519  11.521   5.231
 4682POPC   GL161705  35.425  11.584   5.695
 4682POPC   GL261706  35.771  11.670   5.691
 4682POPC   C1A61707  35.272  11.493   6.156
 4682POPC   D2A61708  35.168  11.272   6.570
 4682POPC   C3A61709  35.210  11.514   6.946
 4682POPC   C4A61710  35.339  11.341   7.321
 4682POPC   C1B61711  35.755  11.344   6.025
 4682POPC   C2B61712  35.681  11.393   6.464
 4682POPC   C3B61713  35.629  11.273   6.868
 4682POPC   C4B61714  35.754  11.046   7.239
 4683POPC   NC361715  21.651   6.625   5.457
 4683POPC   PO461716  21.106   6.204   5.441
 4683POPC   GL161717  21.277   6.395   5.825
 4683POPC   GL261718  21.653   6.443   5.933
 4683POPC   C1A61719  21.265   6.748   6.096
 4683POPC   D2A61720  21.503   6.850   6.453
 4683POPC   C3A61721  21.279   6.721   6.803
 4683POPC   C4A61722  21.210   6.646   7.218
 4683POPC   C1B61723  21.845   6.293   6.314
 4683POPC   C2B61724  21.619   6.317   6.719
 4683POPC   C3B61725  21.695   6.627   7.079
 4683POPC   C4B61726  21.778   6.509   7.531
 4684POPC   NC361727  28.664   0.401   5.186
 4684POPC   PO461728  28.030   0.326   5.440
 4684POPC   GL161729  28.362   0.436   5.744
 4684POPC   GL261730  28.590   0.183   5.657
 4684POPC   C1A61731  28.400   0.603   6.202
 4684POPC   D2A61732  28.623   0.764   6.597
 4684POPC   C3A61733  28.466   0.594   6.982
 4684POPC   C4A61734  28.359   0.440   7.405
 4684POPC   C1B61735  28.661   0.179   6.113
 4684POPC   C2B61736  28.697   0.201   6.596
 4684POPC   C3B61737  28.554   0.031   7.029
 4684POPC   C4B61738  28.558  44.963   7.505
 4685POPC   NC361739  28.220  43.242   5.470
 4685POPC   PO461740  28.814  42.847   5.460
 4685POPC   GL161741  28.575  43.034   5.761
 4685POPC   GL261742  28.266  42.841   5.807
 4685POPC   C1A61743  28.447  43.284   6.115
 4685POPC   D2A61744  28.631  43.254   6.490
 4685POPC   C3A61745  28.580  43.228   6.892
 4685POPC   C4A61746  28.680  43.114   7.271
 4685POPC   C1B61747  28.179  42.879   6.260
 4685POPC   C2B61748  28.148  43.099   6.665
 4685POPC   C3B61749  28.267  42.863   7.052
 4685POPC   C4B61750  28.359  42.831   7.514
 4686POPC   NC361751  40.928  43.662   5.501
 4686POPC   PO461752  40.756  43.081   5.430
 4686POPC   GL161753  40.910  43.238   5.813
 4686POPC   GL261754  40.596  43.272   5.921
 4686POPC   C1A61755  40.939  43.307   6.282
 4686POPC   D2A61756  40.859  43.103   6.676
 4686POPC   C3A61757  41.145  43.150   7.039
 4686POPC   C4A61758  41.006  43.226   7.483
 4686POPC   C1B61759  40.452  42.995   6.295
 4686POPC   C2B61760  40.400  42.870   6.744
 4686POPC   C3B61761  40.338  43.030   7.169
 4686POPC   C4B61762  40.506  43.095   7.596
 4687POPC   NC361763  35.826  38.023   5.052
 4687POPC   PO461764  35.837  37.382   5.101
 4687POPC   GL161765  36.103  37.536   5.532
 4687POPC   GL261766  36.241  37.880   5.679
 4687POPC   C1A61767  36.191  37.470   6.007
 4687POPC   D2A61768  36.134  37.271   6.432
 4687POPC   C3A61769  36.090  37.476   6.844
 4687POPC   C4A61770  36.140  37.522   7.289
 4687POPC   C1B61771  36.259  37.961   6.154
 4687POPC   C2B61772  36.441  38.014   6.589
 4687POPC   C3B61773  36.445  37.857   7.011
 4687POPC   C4B61774  36.138  38.033   7.285
 4688POPC   NC361775  19.070   3.798   5.138
 4688POPC   PO461776  18.787   3.458   5.645
 4688POPC   GL161777  18.872   3.646   5.991
 4688POPC   GL261778  19.182   3.775   5.776
 4688POPC   C1A61779  18.893   3.468   6.416
 4688POPC   D2A61780  19.214   3.297   6.683
 4688POPC   C3A61781  19.215   3.354   7.104
 4688POPC   C4A61782  18.983   3.208   7.433
 4688POPC   C1B61783  19.183   3.996   6.170
 4688POPC   C2B61784  18.970   3.960   6.567
 4688POPC   C3B61785  19.094   3.828   6.963
 4688POPC   C4B61786  18.916   3.704   7.337
 4689POPC   NC361787  26.937  34.237   5.330
 4689POPC   PO461788  26.548  34.680   5.528
 4689POPC   GL161789  26.878  34.653   5.818
 4689POPC   GL261790  27.148  34.401   5.757
 4689POPC   C1A61791  26.865  34.828   6.217
 4689POPC   D2A61792  26.675  34.808   6.603
 4689POPC   C3A61793  26.817  34.676   6.985
 4689POPC   C4A61794  26.682  34.466   7.318
 4689POPC   C1B61795  27.221  34.496   6.181
 4689POPC   C2B61796  27.068  34.395   6.577
 4689POPC   C3B61797  26.884  34.176   6.908
 4689POPC   C4B61798  27.121  34.246   7.249
 4690POPC   NC361799  35.554  28.257   5.234
 4690POPC   PO461800  34.948  28.279   5.518
 4690POPC   GL161801  35.231  28.220   5.846
 4690POPC   GL261802  35.575  28.248   5.832
 4690POPC   C1A61803  35.301  28.212   6.278
 4690POPC   D2A61804  35.102  27.990   6.608
 4690POPC   C3A61805  35.287  28.053   6.964
 4690POPC   C4A61806  35.335  28.436   7.175
 4690POPC   C1B61807  35.810  28.333   6.235
 4690POPC   C2B61808  35.647  28.309   6.658
 4690POPC   C3B61809  35.803  28.557   6.990
 4690POPC   C4B61810  35.783  28.439   7.403
 4691POPC   NC361811  23.911   9.340   5.357
 4691POPC   PO461812  23.839   9.961   5.217
 4691POPC   GL161813  23.913   9.789   5.649
 4691POPC   GL261814  23.601   9.728   5.844
 4691POPC   C1A61815  24.015   9.859   6.120
 4691POPC   D2A61816  23.862   9.786   6.565
 4691POPC   C3A61817  24.095   9.654   6.998
 4691POPC   C4A61818  24.021   9.469   7.462
 4691POPC   C1B61819  23.365   9.580   6.209
 4691POPC   C2B61820  23.451   9.494   6.650
 4691POPC   C3B61821  23.431   9.696   7.051
 4691POPC   C4B61822  23.475   9.561   7.480
 4692POPC   NC361823   9.615  20.355   5.488
 4692POPC   PO461824   9.623  19.684   5.394
 4692POPC   GL161825   9.810  19.946   5.728
 4692POPC   GL261826   9.510  20.095   5.912
 4692POPC   C1A61827   9.931  19.978   6.168
 4692POPC   D2A61828  10.035  19.650   6.469
 4692POPC   C3A61829   9.878  19.621   6.914
 4692POPC   C4A61830   9.508  19.764   7.121
 4692POPC   C1B61831   9.465  20.142   6.363
 4692POPC   C2B61832   9.715  20.089   6.746
 4692POPC   C3B61833   9.641  20.271   7.165
 4692POPC   C4B61834   9.482  20.077   7.565
 4693POPC   NC361835  29.479   8.064   5.467
 4693POPC   PO461836  28.898   7.824   5.469
 4693POPC   GL161837  29.035   8.157   5.771
 4693POPC   GL261838  29.384   8.269   5.914
 4693POPC   C1A61839  28.989   8.122   6.205
 4693POPC   D2A61840  29.034   7.854   6.532
 4693POPC   C3A61841  28.859   7.950   6.914
 4693POPC   C4A61842  29.107   8.109   7.228
 4693POPC   C1B61843  29.471   8.178   6.353
 4693POPC   C2B61844  29.289   8.241   6.753
 4693POPC   C3B61845  29.396   8.488   7.104
 4693POPC   C4B61846  29.485   8.399   7.542
 4694POPC   NC361847   3.981  31.538   5.193
 4694POPC   PO461848   4.592  31.376   5.266
 4694POPC   GL161849   4.348  31.448   5.642
 4694POPC   GL261850   4.366  31.757   5.775
 4694POPC   C1A61851   4.497  31.372   6.091
 4694POPC   D2A61852   4.346  31.435   6.517
 4694POPC   C3A61853   4.452  31.250   6.905
 4694POPC   C4A61854   4.383  31.361   7.296
 4694POPC   C1B61855   4.530  31.860   6.166
 4694POPC   C2B61856   4.443  31.936   6.584
 4694POPC   C3B61857   4.485  31.751   6.971
 4694POPC   C4B61858   4.648  31.784   7.402
 4695POPC   NC361859  27.556   6.161   5.465
 4695POPC   PO461860  27.676   5.496   5.359
 4695POPC   GL161861  27.662   5.758   5.792
 4695POPC   GL261862  27.335   5.945   5.860
 4695POPC   C1A61863  27.704   5.935   6.252
 4695POPC   D2A61864  27.882   5.805   6.674
 4695POPC   C3A61865  27.645   5.811   7.084
 4695POPC   C4A61866  27.667   5.917   7.555
 4695POPC   C1B61867  27.279   5.670   6.203
 4695POPC   C2B61868  27.433   5.580   6.624
 4695POPC   C3B61869  27.182   5.618   6.998
 4695POPC   C4B61870  27.305   5.560   7.460
 4696POPC   NC361871  28.850  20.718   5.613
 4696POPC   PO461872  29.444  20.460   5.488
 4696POPC   GL161873  29.224  20.424   5.860
 4696POPC   GL261874  28.922  20.228   5.833
 4696POPC   C1A61875  29.104  20.682   6.237
 4696POPC   D2A61876  29.287  20.815   6.630
 4696POPC   C3A61877  29.101  20.736   6.998
 4696POPC   C4A61878  29.391  20.536   7.255
 4696POPC   C1B61879  29.127  20.163   6.290
 4696POPC   C2B61880  29.195  20.250   6.775
 4696POPC   C3B61881  28.985  20.228   7.202
 4696POPC   C4B61882  28.787  20.241   7.641
 4697POPC   NC361883   8.101  21.751   5.086
 4697POPC   PO461884   8.350  22.231   5.483
 4697POPC   GL161885   8.128  22.073   5.824
 4697POPC   GL261886   7.895  21.790   5.865
 4697POPC   C1A61887   8.293  22.113   6.234
 4697POPC   D2A61888   8.551  22.252   6.573
 4697POPC   C3A61889   8.327  22.309   6.940
 4697POPC   C4A61890   8.446  22.329   7.324
 4697POPC   C1B61891   7.774  22.139   6.163
 4697POPC   C2B61892   7.908  22.321   6.541
 4697POPC   C3B61893   7.801  22.140   6.915
 4697POPC   C4B61894   7.930  22.265   7.291
 4698POPC   NC361895  25.151  11.103   5.073
 4698POPC   PO461896  25.271  10.491   5.418
 4698POPC   GL161897  25.222  10.504   5.832
 4698POPC   GL261898  25.536  10.672   5.900
 4698POPC   C1A61899  25.132  10.415   6.245
 4698POPC   D2A61900  25.285  10.318   6.652
 4698POPC   C3A61901  25.136  10.535   7.013
 4698POPC   C4A61902  24.761  10.401   7.194
 4698POPC   C1B61903  25.629  10.437   6.277
 4698POPC   C2B61904  25.732  10.556   6.714
 4698POPC   C3B61905  25.641  10.558   7.151
 4698POPC   C4B61906  25.618  10.420   7.581
 4699POPC   NC361907   4.751  30.311   5.397
 4699POPC   PO461908   4.156  30.599   5.428
 4699POPC   GL161909   4.462  30.664   5.722
 4699POPC   GL261910   4.371  30.968   5.836
 4699POPC   C1A61911   4.478  30.589   6.183
 4699POPC   D2A61912   4.204  30.599   6.576
 4699POPC   C3A61913   4.366  30.718   6.998
 4699POPC   C4A61914   4.498  30.445   7.382
 4699POPC   C1B61915   4.185  31.010   6.258
 4699POPC   C2B61916   4.029  31.059   6.693
 4699POPC   C3B61917   4.011  31.064   7.143
 4699POPC   C4B61918   4.091  31.104   7.620
 4700POPC   NC361919   9.180  43.359   5.346
 4700POPC   PO461920   8.921  42.711   5.255
 4700POPC   GL161921   9.128  42.819   5.670
 4700POPC   GL261922   9.178  43.183   5.818
 4700POPC   C1A61923   8.968  42.815   6.114
 4700POPC   D2A61924   8.754  43.031   6.440
 4700POPC   C3A61925   8.824  42.996   6.883
 4700POPC   C4A61926   8.589  43.159   7.254
 4700POPC   C1B61927   9.250  43.281   6.272
 4700POPC   C2B61928   9.129  43.416   6.698
 4700POPC   C3B61929   9.054  43.386   7.142
 4700POPC   C4B61930   9.284  43.358   7.506
 4701POPC   NC361931   6.533  30.676   5.247
 4701POPC   PO461932   7.248  30.800   5.296
 4701POPC   GL161933   6.857  30.707   5.611
 4701POPC   GL261934   6.822  30.527   5.916
 4701POPC   C1A61935   6.534  30.937   5.897
 4701POPC   D2A61936   6.426  30.994   6.348
 4701POPC   C3A61937   6.537  30.889   6.784
 4701POPC   C4A61938   6.569  30.930   7.236
 4701POPC   C1B61939   7.013  30.511   6.315
 4701POPC   C2B61940   6.975  30.566   6.742
 4701POPC   C3B61941   6.979  30.631   7.153
 4701POPC   C4B61942   7.063  30.349   7.458
 4702POPC   NC361943  40.542  21.290   5.481
 4702POPC   PO461944  41.106  21.163   5.677
 4702POPC   GL161945  40.728  21.226   5.945
 4702POPC   GL261946  40.401  20.978   5.862
 4702POPC   C1A61947  40.693  21.524   6.279
 4702POPC   D2A61948  40.772  21.731   6.689
 4702POPC   C3A61949  41.065  21.488   6.979
 4702POPC   C4A61950  41.297  21.342   7.383
 4702POPC   C1B61951  40.345  21.146   6.273
 4702POPC   C2B61952  40.322  21.418   6.623
 4702POPC   C3B61953  40.553  21.395   7.016
 4702POPC   C4B61954  40.461  21.264   7.443
 4703POPC   NC361955  38.665  31.667   5.386
 4703POPC   PO461956  38.136  31.289   5.557
 4703POPC   GL161957  38.496  31.360   5.846
 4703POPC   GL261958  38.657  31.689   5.883
 4703POPC   C1A61959  38.450  31.504   6.301
 4703POPC   D2A61960  38.349  31.734   6.668
 4703POPC   C3A61961  38.525  31.464   6.947
 4703POPC   C4A61962  38.314  31.238   7.251
 4703POPC   C1B61963  38.879  31.772   6.247
 4703POPC   C2B61964  38.956  31.850   6.655
 4703POPC   C3B61965  38.988  31.652   7.031
 4703POPC   C4B61966  38.872  31.729   7.417
 4704POPC   NC361967  23.363  31.396   5.504
 4704POPC   PO461968  24.019  31.332   5.482
 4704POPC   GL161969  23.771  31.362   5.848
 4704POPC   GL261970  23.468  31.203   5.971
 4704POPC   C1A61971  23.814  31.589   6.222
 4704POPC   D2A61972  23.832  31.579   6.660
 4704POPC   C3A61973  24.128  31.367   6.918
 4704POPC   C4A61974  23.942  31.263   7.293
 4704POPC   C1B61975  23.745  31.064   6.287
 4704POPC   C2B61976  23.809  31.036   6.709
 4704POPC   C3B61977  23.541  31.292   6.977
 4704POPC   C4B61978  23.513  31.551   7.309
 4705POPC   NC361979   0.879   5.946   5.051
 4705POPC   PO461980   0.285   5.678   5.350
 4705POPC   GL161981   0.347   5.752   5.800
 4705POPC   GL261982   0.663   5.830   5.871
 4705POPC   C1A61983   0.356   5.684   6.261
 4705POPC   D2A61984   0.164   6.017   6.555
 4705POPC   C3A61985   0.273   6.000   6.986
 4705POPC   C4A61986   0.558   5.745   7.224
 4705POPC   C1B61987   0.549   6.145   6.197
 4705POPC   C2B61988   0.610   6.312   6.611
 4705POPC   C3B61989   0.747   6.202   7.018
 4705POPC   C4B61990   0.530   6.347   7.381
 4706POPC   NC361991  42.094  24.507   5.307
 4706POPC   PO461992  42.782  24.251   5.450
 4706POPC   GL161993  42.467  24.532   5.682
 4706POPC   GL261994  42.226  24.275   5.731
 4706POPC   C1A61995  42.160  24.663   6.050
 4706POPC   D2A61996  42.208  24.475   6.460
 4706POPC   C3A61997  42.130  24.691   6.855
 4706POPC   C4A61998  42.256  24.515   7.267
 4706POPC   C1B61999  42.458  24.190   6.091
 4706POPC   C2B62000  42.595  24.106   6.493
 4706POPC   C3B62001  42.469  24.281   6.864
 4706POPC   C4B62002  42.597  24.148   7.223
 4707POPC   NC362003  44.560   2.670   5.517
 4707POPC   PO462004  44.944   3.180   5.481
 4707POPC   GL162005  44.766   3.022   5.831
 4707POPC   GL262006  44.432   3.127   5.747
 4707POPC   C1A62007  44.755   2.762   6.200
 4707POPC   D2A62008  44.760   2.965   6.590
 4707POPC   C3A62009  44.740   2.652   6.892
 4707POPC   C4A62010  44.915   2.583   7.313
 4707POPC   C1B62011  44.327   3.003   6.151
 4707POPC   C2B62012  44.288   2.816   6.540
 4707POPC   C3B62013  44.349   2.986   6.923
 4707POPC   C4B62014  44.557   2.949   7.289
 4708POPC   NC362015  44.589  24.489   5.299
 4708POPC   PO462016   0.159  24.327   5.378
 4708POPC   GL162017  44.822  24.400   5.752
 4708POPC   GL262018  44.514  24.651   5.819
 4708POPC   C1A62019  44.736  24.380   6.216
 4708POPC   D2A62020  44.872  24.606   6.614
 4708POPC   C3A62021  44.723  24.429   7.018
 4708POPC   C4A62022  44.378  24.131   7.021
 4708POPC   C1B62023  44.486  24.812   6.291
 4708POPC   C2B62024  44.352  24.559   6.681
 4708POPC   C3B62025  44.257  24.623   7.146
 4708POPC   C4B62026  44.361  24.823   7.551
 4709POPC   NC362027  31.190   0.828   5.294
 4709POPC   PO462028  30.605   0.517   5.481
 4709POPC   GL162029  30.811   0.674   5.824
 4709POPC   GL262030  31.154   0.743   5.813
 4709POPC   C1A62031  30.634   0.676   6.222
 4709POPC   D2A62032  30.401   0.354   6.434
 4709POPC   C3A62033  30.471   0.447   6.861
 4709POPC   C4A62034  30.296   0.450   7.256
 4709POPC   C1B62035  31.111   0.424   6.175
 4709POPC   C2B62036  30.886   0.336   6.547
 4709POPC   C3B62037  30.891   0.145   6.949
 4709POPC   C4B62038  30.768   0.266   7.344
 4710POPC   NC362039  26.581  30.562   5.328
 4710POPC   PO462040  26.519  31.192   5.429
 4710POPC   GL162041  26.681  30.855   5.771
 4710POPC   GL262042  26.617  30.474   5.808
 4710POPC   C1A62043  26.842  30.706   6.192
 4710POPC   D2A62044  26.901  30.895   6.592
 4710POPC   C3A62045  26.915  30.724   6.998
 4710POPC   C4A62046  26.649  30.896   7.305
 4710POPC   C1B62047  26.552  30.276   6.216
 4710POPC   C2B62048  26.791  30.370   6.609
 4710POPC   C3B62049  26.745  30.260   7.050
 4710POPC   C4B62050  26.725  30.415   7.467
 4711POPC   NC362051   4.343   0.796   5.426
 4711POPC   PO462052   4.320   1.423   5.310
 4711POPC   GL162053   4.224   1.501   5.715
 4711POPC   GL262054   4.368   1.246   5.880
 4711POPC   C1A62055   4.059   1.550   6.152
 4711POPC   D2A62056   4.235   1.481   6.577
 4711POPC   C3A62057   4.264   1.676   7.008
 4711POPC   C4A62058   4.329   1.439   7.422
 4711POPC   C1B62059   4.589   1.563   6.186
 4711POPC   C2B62060   4.688   1.695   6.661
 4711POPC   C3B62061   4.701   1.406   7.055
 4711POPC   C4B62062   4.712   1.106   7.444
 4712POPC   NC362063  18.656  23.172   5.345
 4712POPC   PO462064  18.426  22.558   5.345
 4712POPC   GL162065  18.282  22.891   5.680
 4712POPC   GL262066  18.043  23.192   5.725
 4712POPC   C1A62067  18.472  22.979   6.089
 4712POPC   D2A62068  18.688  22.977   6.522
 4712POPC   C3A62069  18.515  23.178   6.874
 4712POPC   C4A62070  18.359  23.025   7.247
 4712POPC   C1B62071  18.179  23.376   6.124
 4712POPC   C2B62072  18.106  23.191   6.556
 4712POPC   C3B62073  18.003  23.320   6.995
 4712POPC   C4B62074  17.985  23.289   7.449
 4713POPC   NC362075  30.133  21.612   5.283
 4713POPC   PO462076  29.809  22.151   5.315
 4713POPC   GL162077  29.774  22.208   5.784
 4713POPC   GL262078  29.549  21.914   5.784
 4713POPC   C1A62079  29.634  22.387   6.213
 4713POPC   D2A62080  29.564  22.191   6.640
 4713POPC   C3A62081  29.738  22.371   7.010
 4713POPC   C4A62082  29.540  22.672   7.202
 4713POPC   C1B62083  29.730  21.889   6.204
 4713POPC   C2B62084  30.036  22.017   6.524
 4713POPC   C3B62085  29.937  21.913   6.948
 4713POPC   C4B62086  29.529  21.915   7.118
 4714POPC   NC362087  15.446  20.446   5.478
 4714POPC   PO462088  14.902  20.972   5.605
 4714POPC   GL162089  15.031  20.566   5.760
 4714POPC   GL262090  15.380  20.682   5.916
 4714POPC   C1A62091  15.052  20.378   6.154
 4714POPC   D2A62092  15.271  20.631   6.428
 4714POPC   C3A62093  15.213  20.640   6.858
 4714POPC   C4A62094  14.874  20.459   7.090
 4714POPC   C1B62095  15.566  20.315   6.174
 4714POPC   C2B62096  15.383  20.117   6.561
 4714POPC   C3B62097  15.449  20.206   7.003
 4714POPC   C4B62098  15.367  20.536   7.337
 4715POPC   NC362099  26.042  16.256   5.203
 4715POPC   PO462100  25.906  15.558   5.319
 4715POPC   GL162101  26.027  15.770   5.742
 4715POPC   GL262102  25.993  16.132   5.754
 4715POPC   C1A62103  25.872  15.923   6.182
 4715POPC   D2A62104  25.961  16.188   6.531
 4715POPC   C3A62105  25.842  15.994   6.921
 4715POPC   C4A62106  25.934  16.018   7.361
 4715POPC   C1B62107  26.324  16.145   6.135
 4715POPC   C2B62108  26.498  16.229   6.551
 4715POPC   C3B62109  26.314  16.166   6.934
 4715POPC   C4B62110  26.398  16.288   7.302
 4716POPC   NC362111   8.699   0.507   5.094
 4716POPC   PO462112   8.081   0.535   5.345
 4716POPC   GL162113   8.183   0.503   5.834
 4716POPC   GL262114   8.178   0.856   5.978
 4716POPC   C1A62115   8.314   0.190   6.210
 4716POPC   D2A62116   8.606   0.159   6.603
 4716POPC   C3A62117   8.507   0.261   7.051
 4716POPC   C4A62118   8.133   0.126   7.269
 4716POPC   C1B62119   8.137   0.634   6.379
 4716POPC   C2B62120   8.109   0.419   6.768
 4716POPC   C3B62121   8.115   0.615   7.163
 4716POPC   C4B62122   7.875   0.884   7.357
 4717POPC   NC362123  27.381   1.213   5.183
 4717POPC   PO462124  26.800   1.133   5.346
 4717POPC   GL162125  26.836   1.326   5.752
 4717POPC   GL262126  27.181   1.368   5.835
 4717POPC   C1A62127  26.841   1.424   6.237
 4717POPC   D2A62128  26.914   1.463   6.702
 4717POPC   C3A62129  26.708   1.232   7.057
 4717POPC   C4A62130  26.511   1.251   7.476
 4717POPC   C1B62131  27.001   0.975   6.070
 4717POPC   C2B62132  27.051   0.988   6.540
 4717POPC   C3B62133  27.197   1.106   6.967
 4717POPC   C4B62134  27.382   1.234   7.342
 4718POPC   NC362135   1.717  41.854   5.454
 4718POPC   PO462136   1.402  41.413   5.533
 4718POPC   GL162137   1.175  41.295   5.936
 4718POPC   GL262138   1.446  41.051   5.954
 4718POPC   C1A62139   1.035  41.302   6.406
 4718POPC   D2A62140   0.970  41.506   6.848
 4718POPC   C3A62141   1.339  41.759   7.061
 4718POPC   C4A62142   1.272  41.976   7.488
 4718POPC   C1B62143   1.543  41.338   6.290
 4718POPC   C2B62144   1.442  41.374   6.721
 4718POPC   C3B62145   1.348  41.242   7.139
 4718POPC   C4B62146   1.564  41.068   7.488
 4719POPC   NC362147   8.421  35.839   5.400
 4719POPC   PO462148   8.144  36.431   5.020
 4719POPC   GL162149   8.203  36.338   5.516
 4719POPC   GL262150   8.022  36.101   5.658
 4719POPC   C1A62151   8.175  36.446   6.012
 4719POPC   D2A62152   8.323  36.315   6.435
 4719POPC   C3A62153   8.146  36.297   6.846
 4719POPC   C4A62154   8.185  36.121   7.271
 4719POPC   C1B62155   8.133  35.950   6.062
 4719POPC   C2B62156   8.001  35.914   6.475
 4719POPC   C3B62157   7.923  35.838   6.901
 4719POPC   C4B62158   7.785  35.821   7.334
 4720POPC   NC362159  22.621   6.541   5.685
 4720POPC   PO462160  22.109   6.672   5.298
 4720POPC   GL162161  22.115   6.587   5.756
 4720POPC   GL262162  22.231   6.232   5.883
 4720POPC   C1A62163  22.086   6.734   6.194
 4720POPC   D2A62164  21.980   6.657   6.638
 4720POPC   C3A62165  22.167   6.892   6.948
 4720POPC   C4A62166  22.045   6.893   7.350
 4720POPC   C1B62167  22.348   6.174   6.327
 4720POPC   C2B62168  22.146   6.098   6.722
 4720POPC   C3B62169  21.993   6.243   7.115
 4720POPC   C4B62170  22.265   6.438   7.451
 4721POPC   NC362171   9.281   9.856   5.355
 4721POPC   PO462172   8.694   9.525   5.400
 4721POPC   GL162173   8.898   9.753   5.750
 4721POPC   GL262174   9.237   9.795   5.848
 4721POPC   C1A62175   8.845   9.900   6.177
 4721POPC   D2A62176   9.054   9.796   6.585
 4721POPC   C3A62177   8.972   9.936   7.001
 4721POPC   C4A62178   9.130   9.970   7.478
 4721POPC   C1B62179   9.344   9.601   6.216
 4721POPC   C2B62180   9.439   9.434   6.606
 4721POPC   C3B62181   9.431   9.665   6.982
 4721POPC   C4B62182   9.356   9.532   7.406
 4722POPC   NC362183  25.897  10.654   5.530
 4722POPC   PO462184  25.836  10.000   5.550
 4722POPC   GL162185  25.955  10.298   5.901
 4722POPC   GL262186  26.213  10.538   5.928
 4722POPC   C1A62187  26.110  10.320   6.365
 4722POPC   D2A62188  26.215  10.671   6.635
 4722POPC   C3A62189  26.190  10.609   7.086
 4722POPC   C4A62190  26.433  10.666   7.452
 4722POPC   C1B62191  25.950  10.819   6.198
 4722POPC   C2B62192  25.854  11.049   6.578
 4722POPC   C3B62193  25.864  10.983   7.019
 4722POPC   C4B62194  25.918  10.822   7.483
 4723POPC   NC362195  18.151  34.309   5.238
 4723POPC   PO462196  18.027  34.849   5.609
 4723POPC   GL162197  18.043  34.475   5.776
 4723POPC   GL262198  18.383  34.443   5.765
 4723POPC   C1A62199  18.095  34.450   6.211
 4723POPC   D2A62200  17.986  34.630   6.614
 4723POPC   C3A62201  18.288  34.611   6.969
 4723POPC   C4A62202  18.359  34.346   7.313
 4723POPC   C1B62203  18.571  34.697   6.080
 4723POPC   C2B62204  18.498  34.673   6.501
 4723POPC   C3B62205  18.717  34.857   6.811
 4723POPC   C4B62206  18.736  34.879   7.213
 4724POPC   NC362207  27.550  37.874   5.520
 4724POPC   PO462208  27.813  37.263   5.450
 4724POPC   GL162209  27.682  37.464   5.821
 4724POPC   GL262210  27.357  37.373   5.825
 4724POPC   C1A62211  27.747  37.625   6.244
 4724POPC   D2A62212  27.903  37.754   6.634
 4724POPC   C3A62213  27.639  37.842   6.965
 4724POPC   C4A62214  27.916  37.927   7.298
 4724POPC   C1B62215  27.243  37.648   6.163
 4724POPC   C2B62216  27.325  37.594   6.616
 4724POPC   C3B62217  27.374  37.394   7.033
 4724POPC   C4B62218  27.534  37.599   7.405
 4725POPC   NC362219  12.935  16.479   5.426
 4725POPC   PO462220  12.564  17.045   5.561
 4725POPC   GL162221  12.953  16.855   5.785
 4725POPC   GL262222  12.860  16.537   5.931
 4725POPC   C1A62223  13.261  16.742   6.160
 4725POPC   D2A62224  13.198  16.675   6.625
 4725POPC   C3A62225  13.000  17.027   6.938
 4725POPC   C4A62226  12.596  17.109   7.195
 4725POPC   C1B62227  12.697  16.283   6.286
 4725POPC   C2B62228  12.705  16.295   6.713
 4725POPC   C3B62229  12.911  16.485   7.036
 4725POPC   C4B62230  13.311  16.670   7.118
 4726POPC   NC362231  12.761  19.565   5.350
 4726POPC   PO462232  12.512  20.197   5.380
 4726POPC   GL162233  12.598  20.079   5.831
 4726POPC   GL262234  12.822  19.794   5.837
 4726POPC   C1A62235  12.690  20.075   6.308
 4726POPC   D2A62236  12.996  19.971   6.644
 4726POPC   C3A62237  12.902  19.933   7.080
 4726POPC   C4A62238  12.797  19.994   7.525
 4726POPC   C1B62239  12.863  19.604   6.258
 4726POPC   C2B62240  12.849  19.497   6.691
 4726POPC   C3B62241  12.610  19.449   7.014
 4726POPC   C4B62242  12.815  19.510   7.362
 4727POPC   NC362243  22.301  29.397   5.437
 4727POPC   PO462244  21.938  28.944   5.164
 4727POPC   GL162245  21.923  29.025   5.638
 4727POPC   GL262246  21.577  28.930   5.731
 4727POPC   C1A62247  22.127  28.969   6.089
 4727POPC   D2A62248  22.472  28.897   6.426
 4727POPC   C3A62249  22.437  29.012   6.891
 4727POPC   C4A62250  22.262  29.317   7.217
 4727POPC   C1B62251  21.646  29.159   6.129
 4727POPC   C2B62252  21.810  29.269   6.553
 4727POPC   C3B62253  21.802  29.199   7.002
 4727POPC   C4B62254  22.029  28.840   7.195
 4728POPC   NC362255  33.406   5.330   5.415
 4728POPC   PO462256  33.835   4.882   5.246
 4728POPC   GL162257  33.819   4.984   5.727
 4728POPC   GL262258  34.039   5.269   5.843
 4728POPC   C1A62259  33.720   4.879   6.195
 4728POPC   D2A62260  33.521   4.870   6.634
 4728POPC   C3A62261  33.780   4.710   6.984
 4728POPC   C4A62262  34.082   4.811   7.280
 4728POPC   C1B62263  33.781   5.396   6.176
 4728POPC   C2B62264  33.670   5.367   6.608
 4728POPC   C3B62265  33.885   5.280   6.987
 4728POPC   C4B62266  34.029   5.326   7.386
 4729POPC   NC362267  22.821   9.643   5.259
 4729POPC   PO462268  23.460   9.427   5.460
 4729POPC   GL162269  23.092   9.627   5.720
 4729POPC   GL262270  22.775   9.833   5.729
 4729POPC   C1A62271  22.856   9.457   6.114
 4729POPC   D2A62272  23.013   9.266   6.522
 4729POPC   C3A62273  22.969   9.467   6.941
 4729POPC   C4A62274  23.011   9.681   7.378
 4729POPC   C1B62275  22.975   9.945   6.119
 4729POPC   C2B62276  22.998   9.798   6.541
 4729POPC   C3B62277  23.012   9.985   6.960
 4729POPC   C4B62278  22.784  10.160   7.313
 4730POPC   NC362279  43.617  14.121   5.332
 4730POPC   PO462280  44.200  14.532   5.351
 4730POPC   GL162281  43.946  14.376   5.672
 4730POPC   GL262282  44.032  14.021   5.641
 4730POPC   C1A62283  43.756  14.558   6.050
 4730POPC   D2A62284  43.693  14.694   6.481
 4730POPC   C3A62285  43.829  14.534   6.843
 4730POPC   C4A62286  43.875  14.598   7.240
 4730POPC   C1B62287  43.920  14.008   6.085
 4730POPC   C2B62288  43.943  14.171   6.506
 4730POPC   C3B62289  43.885  14.019   6.948
 4730POPC   C4B62290  43.848  14.120   7.413
 4731POPC   NC362291  33.815   3.168   5.336
 4731POPC   PO462292  33.954   3.809   5.436
 4731POPC   GL162293  33.985   3.468   5.772
 4731POPC   GL262294  33.701   3.204   5.829
 4731POPC   C1A62295  33.937   3.536   6.239
 4731POPC   D2A62296  33.918   3.891   6.543
 4731POPC   C3A62297  33.832   3.736   6.960
 4731POPC   C4A62298  34.036   3.316   7.082
 4731POPC   C1B62299  33.499   3.276   6.223
 4731POPC   C2B62300  33.533   3.497   6.625
 4731POPC   C3B62301  33.527   3.331   7.062
 4731POPC   C4B62302  33.512   3.425   7.500
 4732POPC   NC362303  10.862  28.270   5.541
 4732POPC   PO462304  10.206  28.369   5.523
 4732POPC   GL162305  10.421  28.326   5.890
 4732POPC   GL262306  10.676  28.535   5.926
 4732POPC   C1A62307  10.578  28.187   6.292
 4732POPC   D2A62308  10.511  28.375   6.655
 4732POPC   C3A62309  10.761  28.318   6.992
 4732POPC   C4A62310  10.629  28.307   7.368
 4732POPC   C1B62311  10.435  28.703   6.261
 4732POPC   C2B62312  10.173  28.776   6.644
 4732POPC   C3B62313  10.332  28.648   7.058
 4732POPC   C4B62314  10.393  28.737   7.496
 4733POPC   NC362315  31.803  21.169   5.387
 4733POPC   PO462316  31.292  21.623   5.429
 4733POPC   GL162317  31.449  21.553   5.855
 4733POPC   GL262318  31.691  21.307   5.854
 4733POPC   C1A62319  31.556  21.531   6.300
 4733POPC   D2A62320  31.372  21.558   6.703
 4733POPC   C3A62321  31.575  21.405   7.035
 4733POPC   C4A62322  31.271  21.547   7.299
 4733POPC   C1B62323  31.680  21.020   6.200
 4733POPC   C2B62324  31.662  21.101   6.615
 4733POPC   C3B62325  31.549  20.895   6.970
 4733POPC   C4B62326  31.718  20.976   7.315
 4734POPC   NC362327  19.623   4.315   5.581
 4734POPC   PO462328  20.204   4.257   5.235
 4734POPC   GL162329  20.120   4.228   5.716
 4734POPC   GL262330  19.953   4.539   5.898
 4734POPC   C1A62331  20.062   4.142   6.154
 4734POPC   D2A62332  19.825   4.171   6.526
 4734POPC   C3A62333  19.915   4.374   6.892
 4734POPC   C4A62334  20.038   4.115   7.227
 4734POPC   C1B62335  19.598   4.501   6.203
 4734POPC   C2B62336  19.339   4.313   6.533
 4734POPC   C3B62337  19.422   4.227   6.928
 4734POPC   C4B62338  19.533   4.524   7.230
 4735POPC   NC362339  35.516  17.888   5.135
 4735POPC   PO462340  35.025  17.439   5.384
 4735POPC   GL162341  35.347  17.488   5.717
 4735POPC   GL262342  35.254  17.841   5.807
 4735POPC   C1A62343  35.411  17.388   6.177
 4735POPC   D2A62344  35.174  17.354   6.579
 4735POPC   C3A62345  35.393  17.434   6.985
 4735POPC   C4A62346  35.758  17.711   7.078
 4735POPC   C1B62347  35.387  17.923   6.261
 4735POPC   C2B62348  35.370  17.888   6.735
 4735POPC   C3B62349  35.082  17.849   7.092
 4735POPC   C4B62350  35.022  18.115   7.449
 4736POPC   NC362351   5.037  38.636   5.399
 4736POPC   PO462352   5.513  38.222   5.239
 4736POPC   GL162353   5.333  38.284   5.682
 4736POPC   GL262354   4.958  38.287   5.758
 4736POPC   C1A62355   5.337  38.362   6.160
 4736POPC   D2A62356   5.079  38.329   6.554
 4736POPC   C3A62357   5.205  38.363   7.023
 4736POPC   C4A62358   5.448  38.087   7.296
 4736POPC   C1B62359   4.880  38.635   6.072
 4736POPC   C2B62360   4.841  38.783   6.517
 4736POPC   C3B62361   4.726  38.553   6.891
 4736POPC   C4B62362   4.706  38.223   7.184
 4737POPC   NC362363   4.907  16.171   5.425
 4737POPC   PO462364   5.296  15.721   5.458
 4737POPC   GL162365   5.009  15.686   5.807
 4737POPC   GL262366   4.810  15.967   5.904
 4737POPC   C1A62367   5.054  15.693   6.279
 4737POPC   D2A62368   5.344  15.838   6.595
 4737POPC   C3A62369   5.286  15.903   7.055
 4737POPC   C4A62370   4.900  15.956   7.288
 4737POPC   C1B62371   4.775  16.124   6.331
 4737POPC   C2B62372   4.876  16.048   6.770
 4737POPC   C3B62373   4.954  16.399   7.088
 4737POPC   C4B62374   4.806  16.409   7.548
 4738POPC   NC362375  17.772  16.133   5.462
 4738POPC   PO462376  17.400  15.712   5.062
 4738POPC   GL162377  17.584  15.676   5.547
 4738POPC   GL262378  17.358  15.925   5.730
 4738POPC   C1A62379  17.721  15.750   6.042
 4738POPC   D2A62380  17.512  15.767   6.469
 4738POPC   C3A62381  17.686  15.724   6.872
 4738POPC   C4A62382  17.547  15.815   7.267
 4738POPC   C1B62383  17.405  16.144   6.143
 4738POPC   C2B62384  17.137  16.143   6.507
 4738POPC   C3B62385  17.212  16.007   6.913
 4738POPC   C4B62386  17.413  16.280   7.158
 4739POPC   NC362387  20.834  36.312   4.927
 4739POPC   PO462388  21.113  35.962   5.437
 4739POPC   GL162389  20.803  36.109   5.737
 4739POPC   GL262390  20.667  35.792   5.841
 4739POPC   C1A62391  20.608  36.197   6.155
 4739POPC   D2A62392  20.524  36.020   6.556
 4739POPC   C3A62393  20.634  36.201   6.914
 4739POPC   C4A62394  20.389  36.357   7.252
 4739POPC   C1B62395  20.452  35.652   6.194
 4739POPC   C2B62396  20.286  35.557   6.594
 4739POPC   C3B62397  20.252  35.822   6.960
 4739POPC   C4B62398  20.532  35.886   7.286
 4740POPC   NC362399  15.872  40.174   5.053
 4740POPC   PO462400  16.091  39.801   5.585
 4740POPC   GL162401  15.910  39.912   5.958
 4740POPC   GL262402  16.157  39.710   6.115
 4740POPC   C1A62403  15.693  40.020   6.311
 4740POPC   D2A62404  15.886  39.837   6.631
 4740POPC   C3A62405  15.819  40.063   6.974
 4740POPC   C4A62406  16.068  40.096   7.309
 4740POPC   C1B62407  16.256  40.081   6.335
 4740POPC   C2B62408  16.099  40.348   6.651
 4740POPC   C3B62409  16.226  40.502   7.050
 4740POPC   C4B62410  16.235  40.532   7.534
 4741POPC   NC362411  29.256  36.918   5.399
 4741POPC   PO462412  28.795  37.450   5.467
 4741POPC   GL162413  28.907  37.442   5.920
 4741POPC   GL262414  29.176  37.206   5.862
 4741POPC   C1A62415  29.026  37.738   6.284
 4741POPC   D2A62416  29.090  37.647   6.727
 4741POPC   C3A62417  29.110  37.917   7.096
 4741POPC   C4A62418  29.312  37.791   7.502
 4741POPC   C1B62419  29.225  37.269   6.340
 4741POPC   C2B62420  29.379  37.238   6.790
 4741POPC   C3B62421  29.173  37.407   7.169
 4741POPC   C4B62422  29.193  37.272   7.592
 4742POPC   NC362423  21.186   2.070   5.375
 4742POPC   PO462424  20.619   1.719   5.367
 4742POPC   GL162425  20.454   1.793   5.814
 4742POPC   GL262426  20.568   2.120   5.872
 4742POPC   C1A62427  20.309   1.912   6.263
 4742POPC   D2A62428  20.062   1.816   6.630
 4742POPC   C3A62429  20.272   1.816   7.017
 4742POPC   C4A62430  20.377   1.488   7.261
 4742POPC   C1B62431  20.827   2.001   6.245
 4742POPC   C2B62432  21.022   1.820   6.631
 4742POPC   C3B62433  21.009   1.994   7.073
 4742POPC   C4B62434  20.885   2.410   7.201
 4743POPC   NC362435  34.701  22.098   5.272
 4743POPC   PO462436  34.058  21.916   5.252
 4743POPC   GL162437  34.377  22.016   5.675
 4743POPC   GL262438  34.775  22.062   5.750
 4743POPC   C1A62439  34.519  21.985   6.155
 4743POPC   D2A62440  34.700  22.228   6.538
 4743POPC   C3A62441  34.585  22.180   6.974
 4743POPC   C4A62442  34.536  22.386   7.358
 4743POPC   C1B62443  34.976  22.285   6.100
 4743POPC   C2B62444  35.193  22.436   6.477
 4743POPC   C3B62445  35.027  22.477   6.877
 4743POPC   C4B62446  35.053  22.256   7.240
 4744POPC   NC362447  15.833  25.131   5.467
 4744POPC   PO462448  16.431  25.021   5.587
 4744POPC   GL162449  16.158  25.069   5.905
 4744POPC   GL262450  16.088  25.414   5.933
 4744POPC   C1A62451  15.990  25.025   6.327
 4744POPC   D2A62452  16.158  24.947   6.731
 4744POPC   C3A62453  16.100  25.175   7.121
 4744POPC   C4A62454  15.688  25.042   7.241
 4744POPC   C1B62455  15.957  25.553   6.355
 4744POPC   C2B62456  15.777  25.364   6.734
 4744POPC   C3B62457  15.722  25.538   7.127
 4744POPC   C4B62458  16.052  25.725   7.336
 4745POPC   NC362459  15.097  40.540   5.281
 4745POPC   PO462460  15.677  40.663   5.490
 4745POPC   GL162461  15.344  40.608   5.752
 4745POPC   GL262462  15.033  40.804   5.756
 4745POPC   C1A62463  15.317  40.755   6.171
 4745POPC   D2A62464  15.448  41.015   6.494
 4745POPC   C3A62465  15.295  40.824   6.855
 4745POPC   C4A62466  15.454  40.874   7.270
 4745POPC   C1B62467  14.895  41.079   6.116
 4745POPC   C2B62468  14.965  41.162   6.572
 4745POPC   C3B62469  15.077  41.237   7.013
 4745POPC   C4B62470  14.975  40.945   7.347
 4746POPC   NC362471   1.832  37.020   5.452
 4746POPC   PO462472   2.538  37.166   5.401
 4746POPC   GL162473   2.234  37.024   5.775
 4746POPC   GL262474   1.874  37.125   5.933
 4746POPC   C1A62475   2.148  36.739   6.137
 4746POPC   D2A62476   2.168  36.545   6.540
 4746POPC   C3A62477   2.174  36.896   6.839
 4746POPC   C4A62478   2.013  36.804   7.238
 4746POPC   C1B62479   1.818  37.404   6.270
 4746POPC   C2B62480   1.943  37.485   6.676
 4746POPC   C3B62481   1.761  37.357   7.061
 4746POPC   C4B62482   2.006  37.268   7.400
 4747POPC   NC362483  32.447   4.978   5.113
 4747POPC   PO462484  33.042   4.986   5.376
 4747POPC   GL162485  33.098   5.168   5.793
 4747POPC   GL262486  32.890   5.435   5.662
 4747POPC   C1A62487  33.244   5.245   6.250
 4747POPC   D2A62488  33.161   5.446   6.680
 4747POPC   C3A62489  33.370   5.221   7.017
 4747POPC   C4A62490  33.593   5.048   7.380
 4747POPC   C1B62491  32.724   5.322   6.096
 4747POPC   C2B62492  32.758   5.131   6.515
 4747POPC   C3B62493  32.783   5.232   6.961
 4747POPC   C4B62494  32.993   5.103   7.326
 4748POPC   NC362495   5.216   2.401   5.352
 4748POPC   PO462496   4.735   2.903   5.374
 4748POPC   GL162497   4.855   2.856   5.773
 4748POPC   GL262498   5.174   2.745   5.738
 4748POPC   C1A62499   5.083   3.052   6.124
 4748POPC   D2A62500   5.273   3.000   6.524
 4748POPC   C3A62501   4.965   3.033   6.859
 4748POPC   C4A62502   4.845   3.114   7.286
 4748POPC   C1B62503   5.078   2.423   6.046
 4748POPC   C2B62504   5.254   2.350   6.468
 4748POPC   C3B62505   5.220   2.571   6.835
 4748POPC   C4B62506   5.062   2.683   7.219
 4749POPC   NC362507  26.833  39.109   5.446
 4749POPC   PO462508  26.621  39.624   5.674
 4749POPC   GL162509  26.907  39.405   5.974
 4749POPC   GL262510  27.184  39.166   5.842
 4749POPC   C1A62511  26.865  39.060   6.296
 4749POPC   D2A62512  26.774  38.764   6.660
 4749POPC   C3A62513  26.890  38.980   7.048
 4749POPC   C4A62514  26.843  39.447   7.159
 4749POPC   C1B62515  27.328  39.290   6.278
 4749POPC   C2B62516  27.138  39.336   6.683
 4749POPC   C3B62517  27.318  39.302   7.082
 4749POPC   C4B62518  27.247  39.031   7.446
 4750POPC   NC362519  12.009  36.787   4.902
 4750POPC   PO462520  12.057  37.267   5.330
 4750POPC   GL162521  12.188  37.243   5.760
 4750POPC   GL262522  11.923  37.349   5.943
 4750POPC   C1A62523  12.234  36.991   6.173
 4750POPC   D2A62524  12.061  36.872   6.613
 4750POPC   C3A62525  12.202  36.983   7.067
 4750POPC   C4A62526  12.130  36.727   7.472
 4750POPC   C1B62527  11.934  37.329   6.400
 4750POPC   C2B62528  11.857  37.295   6.828
 4750POPC   C3B62529  11.743  37.195   7.219
 4750POPC   C4B62530  12.094  37.222   7.524
 4751POPC   NC362531   5.325  23.594   5.406
 4751POPC   PO462532   4.842  24.026   5.430
 4751POPC   GL162533   5.002  23.779   5.796
 4751POPC   GL262534   5.172  23.430   5.855
 4751POPC   C1A62535   5.154  23.953   6.190
 4751POPC   D2A62536   5.353  24.151   6.563
 4751POPC   C3A62537   5.173  24.039   6.953
 4751POPC   C4A62538   5.257  23.879   7.356
 4751POPC   C1B62539   4.943  23.475   6.241
 4751POPC   C2B62540   5.045  23.671   6.617
 4751POPC   C3B62541   5.081  23.524   7.028
 4751POPC   C4B62542   4.768  23.367   7.320
 4752POPC   NC362543   1.371  14.473   5.202
 4752POPC   PO462544   1.025  13.951   5.356
 4752POPC   GL162545   1.166  14.226   5.722
 4752POPC   GL262546   1.303  14.582   5.701
 4752POPC   C1A62547   1.147  14.193   6.194
 4752POPC   D2A62548   1.419  14.021   6.538
 4752POPC   C3A62549   1.235  13.994   6.964
 4752POPC   C4A62550   1.365  14.183   7.365
 4752POPC   C1B62551   1.380  14.663   6.136
 4752POPC   C2B62552   1.293  14.547   6.553
 4752POPC   C3B62553   1.138  14.509   6.967
 4752POPC   C4B62554   1.369  14.674   7.287
 4753POPC   NC362555  35.648  13.598   5.386
 4753POPC   PO462556  36.072  14.117   5.324
 4753POPC   GL162557  36.040  13.832   5.752
 4753POPC   GL262558  36.304  13.506   5.803
 4753POPC   C1A62559  36.077  13.695   6.204
 4753POPC   D2A62560  36.251  13.892   6.566
 4753POPC   C3A62561  36.315  13.641   6.908
 4753POPC   C4A62562  36.071  13.859   7.203
 4753POPC   C1B62563  36.404  13.268   6.206
 4753POPC   C2B62564  36.277  13.140   6.647
 4753POPC   C3B62565  35.943  13.251   6.951
 4753POPC   C4B62566  35.804  13.097   7.370
 4754POPC   NC362567  43.419  25.574   5.514
 4754POPC   PO462568  43.217  25.005   5.190
 4754POPC   GL162569  43.085  25.170   5.617
 4754POPC   GL262570  42.911  25.480   5.680
 4754POPC   C1A62571  43.017  25.101   6.083
 4754POPC   D2A62572  43.192  25.281   6.466
 4754POPC   C3A62573  43.035  25.189   6.874
 4754POPC   C4A62574  43.079  25.032   7.286
 4754POPC   C1B62575  43.061  25.623   6.077
 4754POPC   C2B62576  42.990  25.751   6.477
 4754POPC   C3B62577  43.141  25.705   6.880
 4754POPC   C4B62578  43.097  25.623   7.311
 4755POPC   NC362579   4.681  13.135   5.406
 4755POPC   PO462580   4.203  12.771   5.145
 4755POPC   GL162581   4.293  12.802   5.627
 4755POPC   GL262582   3.963  12.725   5.765
 4755POPC   C1A62583   4.430  12.689   6.097
 4755POPC   D2A62584   4.558  12.530   6.549
 4755POPC   C3A62585   4.530  12.697   6.995
 4755POPC   C4A62586   4.434  12.961   7.353
 4755POPC   C1B62587   3.945  12.720   6.226
 4755POPC   C2B62588   4.093  12.682   6.662
 4755POPC   C3B62589   4.027  12.723   7.113
 4755POPC   C4B62590   3.942  13.006   7.437
 4756POPC   NC362591  10.161   8.433   5.472
 4756POPC   PO462592  10.611   8.010   5.423
 4756POPC   GL162593  10.457   8.164   5.829
 4756POPC   GL262594  10.822   8.107   5.889
 4756POPC   C1A62595  10.321   8.508   6.165
 4756POPC   D2A62596  10.433   8.622   6.617
 4756POPC   C3A62597  10.298   8.441   7.049
 4756POPC   C4A62598  10.470   8.199   7.447
 4756POPC   C1B62599  10.710   8.213   6.304
 4756POPC   C2B62600  10.510   8.108   6.661
 4756POPC   C3B62601  10.710   8.081   7.029
 4756POPC   C4B62602  10.868   7.856   7.369
 4757POPC   NC362603  14.583  10.588   5.498
 4757POPC   PO462604  14.020  10.281   5.393
 4757POPC   GL162605  14.220  10.305   5.795
 4757POPC   GL262606  14.178  10.647   5.892
 4757POPC   C1A62607  14.413  10.264   6.225
 4757POPC   D2A62608  14.558  10.448   6.635
 4757POPC   C3A62609  14.464  10.374   7.079
 4757POPC   C4A62610  14.172  10.656   7.293
 4757POPC   C1B62611  14.548  10.775   6.152
 4757POPC   C2B62612  14.765  10.926   6.539
 4757POPC   C3B62613  14.758  10.782   6.974
 4757POPC   C4B62614  14.656  10.761   7.438
 4758POPC   NC362615   6.170  40.030   5.450
 4758POPC   PO462616   5.673  39.654   5.698
 4758POPC   GL162617   5.918  39.956   5.905
 4758POPC   GL262618   6.259  39.862   5.896
 4758POPC   C1A62619   5.799  40.164   6.274
 4758POPC   D2A62620   5.845  40.274   6.693
 4758POPC   C3A62621   5.672  40.098   7.033
 4758POPC   C4A62622   5.812  40.265   7.392
 4758POPC   C1B62623   6.319  40.042   6.288
 4758POPC   C2B62624   6.338  40.160   6.716
 4758POPC   C3B62625   6.176  39.937   7.113
 4758POPC   C4B62626   6.045  39.572   7.381
 4759POPC   NC362627  19.449  41.344   5.522
 4759POPC   PO462628  19.998  41.669   5.286
 4759POPC   GL162629  19.856  41.667   5.739
 4759POPC   GL262630  19.539  41.837   5.761
 4759POPC   C1A62631  19.701  41.557   6.180
 4759POPC   D2A62632  19.524  41.320   6.538
 4759POPC   C3A62633  19.789  41.349   6.910
 4759POPC   C4A62634  19.789  41.544   7.315
 4759POPC   C1B62635  19.559  42.051   6.164
 4759POPC   C2B62636  19.579  41.904   6.580
 4759POPC   C3B62637  19.416  41.705   6.916
 4759POPC   C4B62638  19.410  41.932   7.278
 4760POPC   NC362639  11.479  39.774   5.181
 4760POPC   PO462640  11.225  40.398   5.472
 4760POPC   GL162641  11.193  40.124   5.826
 4760POPC   GL262642  11.410  39.855   5.695
 4760POPC   C1A62643  11.189  40.196   6.292
 4760POPC   D2A62644  11.529  40.035   6.604
 4760POPC   C3A62645  11.430  40.093   7.021
 4760POPC   C4A62646  11.067  40.165   7.265
 4760POPC   C1B62647  11.484  39.802   6.138
 4760POPC   C2B62648  11.161  39.712   6.470
 4760POPC   C3B62649  11.072  39.738   6.926
 4760POPC   C4B62650  11.351  39.670   7.316
 4761POPC   NC362651  17.977  33.356   5.484
 4761POPC   PO462652  18.235  33.878   5.131
 4761POPC   GL162653  18.195  33.998   5.637
 4761POPC   GL262654  17.951  33.828   5.696
 4761POPC   C1A62655  18.244  33.959   6.144
 4761POPC   D2A62656  18.293  34.186   6.594
 4761POPC   C3A62657  18.417  33.980   6.969
 4761POPC   C4A62658  18.518  33.860   7.404
 4761POPC   C1B62659  17.764  34.087   6.005
 4761POPC   C2B62660  17.810  34.075   6.460
 4761POPC   C3B62661  17.916  33.865   6.840
 4761POPC   C4B62662  18.003  33.974   7.276
 4762POPC   NC362663   5.764  33.196   5.015
 4762POPC   PO462664   6.205  32.844   5.441
 4762POPC   GL162665   6.036  33.151   5.676
 4762POPC   GL262666   5.758  32.991   5.836
 4762POPC   C1A62667   6.088  33.311   6.092
 4762POPC   D2A62668   5.948  33.102   6.460
 4762POPC   C3A62669   6.163  33.172   6.836
 4762POPC   C4A62670   6.033  33.238   7.262
 4762POPC   C1B62671   5.583  32.833   6.234
 4762POPC   C2B62672   5.691  32.723   6.681
 4762POPC   C3B62673   5.875  32.774   7.081
 4762POPC   C4B62674   5.583  32.997   7.331
 4763POPC   NC362675  17.568  35.492   5.355
 4763POPC   PO462676  17.134  34.986   5.491
 4763POPC   GL162677  17.344  35.297   5.781
 4763POPC   GL262678  17.727  35.323   5.830
 4763POPC   C1A62679  17.257  35.367   6.201
 4763POPC   D2A62680  17.018  35.319   6.581
 4763POPC   C3A62681  17.277  35.257   6.950
 4763POPC   C4A62682  17.465  35.592   7.137
 4763POPC   C1B62683  17.749  35.223   6.302
 4763POPC   C2B62684  17.735  35.359   6.746
 4763POPC   C3B62685  17.771  35.176   7.171
 4763POPC   C4B62686  17.887  35.098   7.628
 4764POPC   NC362687   2.252   6.938   5.281
 4764POPC   PO462688   1.824   6.488   5.469
 4764POPC   GL162689   1.897   6.789   5.779
 4764POPC   GL262690   2.242   6.858   5.813
 4764POPC   C1A62691   1.940   6.833   6.237
 4764POPC   D2A62692   2.053   6.590   6.593
 4764POPC   C3A62693   2.092   6.827   6.974
 4764POPC   C4A62694   1.899   6.933   7.349
 4764POPC   C1B62695   2.288   6.470   6.099
 4764POPC   C2B62696   2.460   6.304   6.544
 4764POPC   C3B62697   2.322   6.351   7.004
 4764POPC   C4B62698   2.344   6.616   7.415
 4765POPC   NC362699  37.283  26.675   5.564
 4765POPC   PO462700  37.907  26.685   5.307
 4765POPC   GL162701  37.771  26.882   5.725
 4765POPC   GL262702  37.491  27.108   5.802
 4765POPC   C1A62703  37.892  26.904   6.178
 4765POPC   D2A62704  37.786  26.662   6.534
 4765POPC   C3A62705  37.923  26.772   6.926
 4765POPC   C4A62706  37.830  26.851   7.338
 4765POPC   C1B62707  37.377  26.950   6.238
 4765POPC   C2B62708  37.213  26.978   6.677
 4765POPC   C3B62709  37.370  26.844   7.081
 4765POPC   C4B62710  37.267  26.882   7.518
 4766POPC   NC362711  39.515  25.029   5.409
 4766POPC   PO462712  40.150  25.227   5.503
 4766POPC   GL162713  39.875  25.169   5.828
 4766POPC   GL262714  39.768  24.812   5.845
 4766POPC   C1A62715  40.002  25.359   6.236
 4766POPC   D2A62716  40.219  25.265   6.631
 4766POPC   C3A62717  40.049  25.451   7.010
 4766POPC   C4A62718  40.143  25.432   7.466
 4766POPC   C1B62719  39.620  24.996   6.249
 4766POPC   C2B62720  39.681  25.063   6.679
 4766POPC   C3B62721  39.942  24.930   7.008
 4766POPC   C4B62722  39.954  24.959   7.465
 4767POPC   NC362723   1.880  10.456   5.090
 4767POPC   PO462724   2.139  11.051   5.213
 4767POPC   GL162725   1.948  10.709   5.536
 4767POPC   GL262726   2.248  10.670   5.728
 4767POPC   C1A62727   1.878  10.355   5.902
 4767POPC   D2A62728   1.913  10.249   6.373
 4767POPC   C3A62729   1.727  10.494   6.743
 4767POPC   C4A62730   1.835  10.722   7.140
 4767POPC   C1B62731   2.376  10.483   6.125
 4767POPC   C2B62732   2.420  10.296   6.522
 4767POPC   C3B62733   2.168  10.234   6.855
 4767POPC   C4B62734   2.272  10.450   7.204
 4768POPC   NC362735   7.266  32.329   4.978
 4768POPC   PO462736   7.227  31.798   5.360
 4768POPC   GL162737   7.103  31.963   5.764
 4768POPC   GL262738   7.419  32.093   5.821
 4768POPC   C1A62739   7.076  32.195   6.182
 4768POPC   D2A62740   7.232  32.379   6.578
 4768POPC   C3A62741   7.157  32.181   6.984
 4768POPC   C4A62742   7.286  32.311   7.382
 4768POPC   C1B62743   7.561  31.968   6.241
 4768POPC   C2B62744   7.473  31.934   6.683
 4768POPC   C3B62745   7.646  32.063   7.106
 4768POPC   C4B62746   7.973  31.990   7.441
 4769POPC   NC362747  16.741  21.677   5.416
 4769POPC   PO462748  16.890  21.013   5.334
 4769POPC   GL162749  16.780  21.284   5.738
 4769POPC   GL262750  17.012  21.428   5.889
 4769POPC   C1A62751  16.619  21.331   6.190
 4769POPC   D2A62752  16.377  21.428   6.574
 4769POPC   C3A62753  16.521  21.227   6.938
 4769POPC   C4A62754  16.598  21.386   7.345
 4769POPC   C1B62755  17.145  21.407   6.312
 4769POPC   C2B62756  16.878  21.540   6.596
 4769POPC   C3B62757  16.907  21.610   6.996
 4769POPC   C4B62758  16.926  21.787   7.383
 4770POPC   NC362759   5.788  35.573   5.355
 4770POPC   PO462760   5.408  35.123   5.674
 4770POPC   GL162761   5.680  35.418   5.834
 4770POPC   GL262762   5.636  35.755   5.814
 4770POPC   C1A62763   5.995  35.457   6.134
 4770POPC   D2A62764   6.050  35.159   6.496
 4770POPC   C3A62765   5.978  35.301   6.925
 4770POPC   C4A62766   5.924  35.380   7.370
 4770POPC   C1B62767   5.571  35.713   6.243
 4770POPC   C2B62768   5.858  35.674   6.577
 4770POPC   C3B62769   5.840  35.789   6.972
 4770POPC   C4B62770   5.572  35.774   7.329
 4771POPC   NC362771   7.783  23.753   5.359
 4771POPC   PO462772   8.442  23.801   5.184
 4771POPC   GL162773   8.300  23.753   5.624
 4771POPC   GL262774   8.108  23.435   5.689
 4771POPC   C1A62775   8.405  23.733   6.092
 4771POPC   D2A62776   8.508  23.533   6.494
 4771POPC   C3A62777   8.457  23.744   6.866
 4771POPC   C4A62778   8.552  23.822   7.263
 4771POPC   C1B62779   7.910  23.708   6.006
 4771POPC   C2B62780   7.978  23.685   6.445
 4771POPC   C3B62781   7.962  23.651   6.882
 4771POPC   C4B62782   7.942  23.988   7.176
 4772POPC   NC362783   6.652  24.801   5.391
 4772POPC   PO462784   6.663  24.136   5.263
 4772POPC   GL162785   6.620  24.382   5.716
 4772POPC   GL262786   6.520  24.740   5.878
 4772POPC   C1A62787   6.543  24.365   6.201
 4772POPC   D2A62788   6.795  24.497   6.588
 4772POPC   C3A62789   6.704  24.477   7.051
 4772POPC   C4A62790   6.469  24.333   7.389
 4772POPC   C1B62791   6.594  24.900   6.306
 4772POPC   C2B62792   6.539  24.909   6.774
 4772POPC   C3B62793   6.676  24.970   7.167
 4772POPC   C4B62794   7.096  24.821   7.210
 4773POPC   NC362795   7.390  29.273   5.369
 4773POPC   PO462796   7.807  28.746   5.238
 4773POPC   GL162797   7.505  28.870   5.656
 4773POPC   GL262798   7.120  28.791   5.730
 4773POPC   C1A62799   7.354  29.139   6.046
 4773POPC   D2A62800   7.505  29.154   6.479
 4773POPC   C3A62801   7.524  29.297   6.902
 4773POPC   C4A62802   7.522  29.163   7.324
 4773POPC   C1B62803   6.955  28.798   6.177
 4773POPC   C2B62804   6.989  29.015   6.605
 4773POPC   C3B62805   7.108  29.047   7.042
 4773POPC   C4B62806   7.093  28.931   7.494
 4774POPC   NC362807  16.723  42.731   5.364
 4774POPC   PO462808  16.585  42.089   5.353
 4774POPC   GL162809  16.705  42.343   5.697
 4774POPC   GL262810  16.461  42.605   5.776
 4774POPC   C1A62811  16.878  42.454   6.070
 4774POPC   D2A62812  16.701  42.427   6.464
 4774POPC   C3A62813  16.849  42.377   6.872
 4774POPC   C4A62814  16.670  42.127   7.179
 4774POPC   C1B62815  16.403  42.745   6.186
 4774POPC   C2B62816  16.351  42.743   6.642
 4774POPC   C3B62817  16.450  42.790   7.075
 4774POPC   C4B62818  16.545  42.814   7.531
 4775POPC   NC362819  17.764  13.304   5.667
 4775POPC   PO462820  17.961  12.719   5.710
 4775POPC   GL162821  17.746  12.897   5.990
 4775POPC   GL262822  17.441  12.726   5.880
 4775POPC   C1A62823  17.693  13.097   6.349
 4775POPC   D2A62824  17.747  12.888   6.715
 4775POPC   C3A62825  17.549  12.996   7.058
 4775POPC   C4A62826  17.534  12.899   7.480
 4775POPC   C1B62827  17.181  12.527   6.182
 4775POPC   C2B62828  17.043  12.603   6.569
 4775POPC   C3B62829  17.223  12.622   6.937
 4775POPC   C4B62830  17.343  12.457   7.313
 4776POPC   NC362831  15.380   6.718   5.601
 4776POPC   PO462832  14.818   6.436   5.324
 4776POPC   GL162833  14.984   6.383   5.768
 4776POPC   GL262834  15.341   6.295   5.898
 4776POPC   C1A62835  15.014   6.507   6.217
 4776POPC   D2A62836  14.913   6.534   6.637
 4776POPC   C3A62837  15.163   6.777   6.887
 4776POPC   C4A62838  14.916   6.968   7.152
 4776POPC   C1B62839  15.370   6.121   6.290
 4776POPC   C2B62840  15.391   6.298   6.696
 4776POPC   C3B62841  15.347   6.355   7.124
 4776POPC   C4B62842  15.498   6.146   7.453
 4777POPC   NC362843  20.226  14.117   5.467
 4777POPC   PO462844  20.031  14.836   5.453
 4777POPC   GL162845  19.842  14.559   5.779
 4777POPC   GL262846  19.986  14.226   5.904
 4777POPC   C1A62847  19.626  14.639   6.188
 4777POPC   D2A62848  19.437  14.547   6.600
 4777POPC   C3A62849  19.762  14.332   6.823
 4777POPC   C4A62850  19.969  14.452   7.212
 4777POPC   C1B62851  20.297  14.124   6.249
 4777POPC   C2B62852  20.257  14.199   6.706
 4777POPC   C3B62853  20.059  13.987   7.068
 4777POPC   C4B62854  19.898  14.023   7.503
 4778POPC   NC362855  36.080  19.150   5.310
 4778POPC   PO462856  35.610  18.769   5.655
 4778POPC   GL162857  35.980  19.074   5.791
 4778POPC   GL262858  36.362  18.991   5.743
 4778POPC   C1A62859  36.172  19.269   6.141
 4778POPC   D2A62860  36.057  19.097   6.521
 4778POPC   C3A62861  35.947  19.250   6.900
 4778POPC   C4A62862  36.173  19.213   7.273
 4778POPC   C1B62863  36.541  18.909   6.187
 4778POPC   C2B62864  36.476  18.849   6.677
 4778POPC   C3B62865  36.466  18.808   7.143
 4778POPC   C4B62866  36.348  18.580   7.553
 4779POPC   NC362867  19.971  21.090   5.566
 4779POPC   PO462868  19.529  21.488   5.551
 4779POPC   GL162869  19.787  21.486   5.872
 4779POPC   GL262870  20.131  21.534   5.808
 4779POPC   C1A62871  19.696  21.413   6.285
 4779POPC   D2A62872  19.872  21.231   6.645
 4779POPC   C3A62873  19.908  21.522   6.992
 4779POPC   C4A62874  19.645  21.511   7.373
 4779POPC   C1B62875  20.192  21.313   6.203
 4779POPC   C2B62876  20.366  21.364   6.609
 4779POPC   C3B62877  20.277  21.103   6.952
 4779POPC   C4B62878  20.062  21.152   7.345
 4780POPC   NC362879  12.781  39.402   5.557
 4780POPC   PO462880  12.520  38.757   5.394
 4780POPC   GL162881  12.508  38.975   5.760
 4780POPC   GL262882  12.862  38.950   5.837
 4780POPC   C1A62883  12.541  39.127   6.197
 4780POPC   D2A62884  12.502  39.270   6.642
 4780POPC   C3A62885  12.617  39.013   7.015
 4780POPC   C4A62886  12.640  39.174   7.452
 4780POPC   C1B62887  13.040  39.229   6.202
 4780POPC   C2B62888  13.014  39.359   6.665
 4780POPC   C3B62889  13.117  39.234   7.098
 4780POPC   C4B62890  13.440  38.966   7.295
 4781POPC   NC362891  28.285  19.969   5.293
 4781POPC   PO462892  28.459  19.380   5.611
 4781POPC   GL162893  28.518  19.855   5.744
 4781POPC   GL262894  28.185  20.003   5.809
 4781POPC   C1A62895  28.558  20.084   6.153
 4781POPC   D2A62896  28.568  19.898   6.528
 4781POPC   C3A62897  28.494  20.146   6.893
 4781POPC   C4A62898  28.216  20.093   7.246
 4781POPC   C1B62899  28.254  19.666   6.144
 4781POPC   C2B62900  28.079  19.558   6.499
 4781POPC   C3B62901  28.225  19.702   6.873
 4781POPC   C4B62902  27.964  19.658   7.240
 4782POPC   NC362903  24.758  22.322   5.474
 4782POPC   PO462904  24.312  21.919   5.210
 4782POPC   GL162905  24.415  21.991   5.653
 4782POPC   GL262906  24.619  21.725   5.782
 4782POPC   C1A62907  24.497  22.115   6.115
 4782POPC   D2A62908  24.797  22.095   6.467
 4782POPC   C3A62909  24.729  22.410   6.787
 4782POPC   C4A62910  24.511  22.345   7.167
 4782POPC   C1B62911  24.159  21.743   6.014
 4782POPC   C2B62912  24.071  21.951   6.423
 4782POPC   C3B62913  24.336  22.036   6.776
 4782POPC   C4B62914  24.281  21.912   7.202
 4783POPC   NC362915   4.406  24.025   5.320
 4783POPC   PO462916   4.059  23.469   5.393
 4783POPC   GL162917   4.429  23.639   5.694
 4783POPC   GL262918   4.656  23.353   5.809
 4783POPC   C1A62919   4.608  23.834   6.120
 4783POPC   D2A62920   4.515  23.684   6.561
 4783POPC   C3A62921   4.667  23.821   6.977
 4783POPC   C4A62922   4.434  23.788   7.373
 4783POPC   C1B62923   4.367  23.392   6.136
 4783POPC   C2B62924   4.107  23.156   6.362
 4783POPC   C3B62925   4.174  23.084   6.785
 4783POPC   C4B62926   4.350  23.409   7.031
 4784POPC   NC362927  13.628  40.925   5.138
 4784POPC   PO462928  13.337  41.262   5.686
 4784POPC   GL162929  13.455  40.847   5.860
 4784POPC   GL262930  13.777  40.769   5.831
 4784POPC   C1A62931  13.554  40.538   6.220
 4784POPC   D2A62932  13.715  40.670   6.605
 4784POPC   C3A62933  13.849  40.538   6.990
 4784POPC   C4A62934  13.592  40.656   7.312
 4784POPC   C1B62935  13.834  41.004   6.214
 4784POPC   C2B62936  14.050  41.057   6.580
 4784POPC   C3B62937  14.192  40.952   6.962
 4784POPC   C4B62938  14.034  40.895   7.353
 4785POPC   NC362939  12.065  20.048   5.340
 4785POPC   PO462940  12.321  19.360   5.405
 4785POPC   GL162941  12.253  19.721   5.699
 4785POPC   GL262942  11.909  19.847   5.784
 4785POPC   C1A62943  12.244  19.856   6.162
 4785POPC   D2A62944  12.428  19.723   6.568
 4785POPC   C3A62945  12.395  19.905   6.982
 4785POPC   C4A62946  12.270  19.990   7.419
 4785POPC   C1B62947  11.736  19.732   6.176
 4785POPC   C2B62948  11.910  19.752   6.583
 4785POPC   C3B62949  11.862  19.772   7.020
 4785POPC   C4B62950  12.124  19.536   7.268
 4786POPC   NC362951  43.639  36.103   5.359
 4786POPC   PO462952  44.319  35.955   5.362
 4786POPC   GL162953  44.062  35.829   5.757
 4786POPC   GL262954  43.695  35.927   5.851
 4786POPC   C1A62955  44.080  35.963   6.206
 4786POPC   D2A62956  43.931  35.975   6.647
 4786POPC   C3A62957  44.111  36.240   6.982
 4786POPC   C4A62958  44.204  36.100   7.398
 4786POPC   C1B62959  43.674  36.270   6.171
 4786POPC   C2B62960  43.720  36.449   6.614
 4786POPC   C3B62961  43.635  36.436   7.072
 4786POPC   C4B62962  43.754  36.678   7.446
 4787POPC   NC362963  35.807  30.868   5.139
 4787POPC   PO462964  36.283  30.354   5.294
 4787POPC   GL162965  36.170  30.636   5.674
 4787POPC   GL262966  35.823  30.635   5.637
 4787POPC   C1A62967  36.202  30.817   6.109
 4787POPC   D2A62968  36.334  30.744   6.532
 4787POPC   C3A62969  36.331  31.029   6.901
 4787POPC   C4A62970  36.095  30.972   7.274
 4787POPC   C1B62971  35.707  30.750   6.059
 4787POPC   C2B62972  35.786  30.611   6.475
 4787POPC   C3B62973  35.965  30.631   6.888
 4787POPC   C4B62974  35.734  30.625   7.264
 4788POPC   NC362975   0.664   6.230   5.549
 4788POPC   PO462976   0.184   6.672   5.383
 4788POPC   GL162977   0.312   6.560   5.792
 4788POPC   GL262978   0.209   6.232   5.799
 4788POPC   C1A62979   0.526   6.663   6.210
 4788POPC   D2A62980   0.736   6.823   6.586
 4788POPC   C3A62981   0.577   6.719   7.002
 4788POPC   C4A62982   0.655   6.828   7.451
 4788POPC   C1B62983   0.092   6.393   6.214
 4788POPC   C2B62984   0.159   6.563   6.603
 4788POPC   C3B62985   0.111   6.476   7.009
 4788POPC   C4B62986   0.160   6.712   7.338
 4789POPC   NC362987  20.345   4.615   4.969
 4789POPC   PO462988  20.850   4.457   5.445
 4789POPC   GL162989  20.702   4.327   5.848
 4789POPC   GL262990  20.441   4.532   6.023
 4789POPC   C1A62991  20.866   4.386   6.259
 4789POPC   D2A62992  20.688   4.379   6.654
 4789POPC   C3A62993  20.880   4.595   6.968
 4789POPC   C4A62994  21.102   4.248   7.174
 4789POPC   C1B62995  20.182   4.581   6.406
 4789POPC   C2B62996  20.314   4.676   6.815
 4789POPC   C3B62997  20.439   4.417   7.137
 4789POPC   C4B62998  20.365   4.369   7.572
 4790POPC   NC362999   2.907  36.365   5.292
 4790POPC   PO463000   2.455  35.933   5.346
 4790POPC   GL163001   2.772  35.978   5.713
 4790POPC   GL263002   2.883  36.300   5.801
 4790POPC   C1A63003   2.901  35.953   6.167
 4790POPC   D2A63004   3.106  36.208   6.461
 4790POPC   C3A63005   3.055  36.049   6.877
 4790POPC   C4A63006   2.746  36.142   7.181
 4790POPC   C1B63007   3.194  36.541   6.034
 4790POPC   C2B63008   3.194  36.741   6.440
 4790POPC   C3B63009   3.096  36.565   6.857
 4790POPC   C4B63010   2.920  36.631   7.263
 4791POPC   NC363011  34.141   5.210   5.349
 4791POPC   PO463012  34.444   4.617   5.427
 4791POPC   GL163013  34.310   4.837   5.776
 4791POPC   GL263014  34.522   5.109   5.715
 4791POPC   C1A63015  34.228   4.969   6.233
 4791POPC   D2A63016  34.154   4.940   6.713
 4791POPC   C3A63017  34.472   5.100   7.045
 4791POPC   C4A63018  34.854   5.168   7.354
 4791POPC   C1B63019  34.700   5.167   6.163
 4791POPC   C2B63020  34.698   5.440   6.573
 4791POPC   C3B63021  34.918   5.520   6.984
 4791POPC   C4B63022  35.289   5.456   7.273
 4792POPC   NC363023  15.581  10.480   5.128
 4792POPC   PO463024  15.028  10.413   5.481
 4792POPC   GL163025  14.950  10.545   5.888
 4792POPC   GL263026  14.998  10.892   5.942
 4792POPC   C1A63027  14.943  10.455   6.314
 4792POPC   D2A63028  15.089  10.159   6.636
 4792POPC   C3A63029  14.993  10.298   7.039
 4792POPC   C4A63030  15.147  10.643   7.273
 4792POPC   C1B63031  15.237  10.881   6.326
 4792POPC   C2B63032  15.260  10.649   6.705
 4792POPC   C3B63033  15.559  10.830   6.967
 4792POPC   C4B63034  15.470  11.082   7.301
 4793POPC   NC363035  14.472  22.406   5.153
 4793POPC   PO463036  14.000  22.930   5.260
 4793POPC   GL163037  14.130  22.813   5.722
 4793POPC   GL263038  14.489  22.871   5.885
 4793POPC   C1A63039  14.123  22.714   6.178
 4793POPC   D2A63040  14.195  22.967   6.529
 4793POPC   C3A63041  14.134  22.814   6.927
 4793POPC   C4A63042  14.069  23.097   7.248
 4793POPC   C1B63043  14.623  22.730   6.329
 4793POPC   C2B63044  14.628  22.839   6.778
 4793POPC   C3B63045  14.558  22.935   7.221
 4793POPC   C4B63046  14.675  22.662   7.579
 4794POPC   NC363047  38.256  26.303   5.363
 4794POPC   PO463048  38.707  25.782   5.368
 4794POPC   GL163049  38.367  25.866   5.714
 4794POPC   GL263050  38.354  26.214   5.845
 4794POPC   C1A63051  38.334  25.898   6.206
 4794POPC   D2A63052  38.533  26.127   6.539
 4794POPC   C3A63053  38.405  25.909   6.932
 4794POPC   C4A63054  38.731  25.720   7.201
 4794POPC   C1B63055  38.103  26.365   6.236
 4794POPC   C2B63056  38.095  26.296   6.709
 4794POPC   C3B63057  38.031  26.280   7.140
 4794POPC   C4B63058  37.979  26.233   7.608
 4795POPC   NC363059  25.913  25.798   5.295
 4795POPC   PO463060  26.114  25.136   5.386
 4795POPC   GL163061  26.014  25.001   5.822
 4795POPC   GL263062  26.281  25.067   6.100
 4795POPC   C1A63063  25.804  24.963   6.198
 4795POPC   D2A63064  25.985  25.115   6.604
 4795POPC   C3A63065  25.858  25.112   7.018
 4795POPC   C4A63066  26.257  25.071   7.221
 4795POPC   C1B63067  26.020  25.448   6.230
 4795POPC   C2B63068  25.808  25.587   6.653
 4795POPC   C3B63069  26.068  25.628   7.022
 4795POPC   C4B63070  26.246  25.569   7.415
 4796POPC   NC363071  44.915  11.918   5.510
 4796POPC   PO463072  44.552  12.520   5.431
 4796POPC   GL163073  44.443  12.358   5.793
 4796POPC   GL263074  44.513  12.030   5.829
 4796POPC   C1A63075  44.618  12.388   6.190
 4796POPC   D2A63076  44.454  12.228   6.554
 4796POPC   C3A63077  44.713  12.259   6.889
 4796POPC   C4A63078  44.704  12.160   7.293
 4796POPC   C1B63079  44.541  11.834   6.215
 4796POPC   C2B63080  44.699  11.790   6.639
 4796POPC   C3B63081  44.451  11.795   7.004
 4796POPC   C4B63082  44.268  11.375   7.082
 4797POPC   NC363083  25.241  26.219   5.214
 4797POPC   PO463084  25.469  25.542   5.375
 4797POPC   GL163085  25.228  25.742   5.709
 4797POPC   GL263086  25.231  26.093   5.714
 4797POPC   C1A63087  25.313  25.848   6.151
 4797POPC   D2A63088  25.306  25.686   6.564
 4797POPC   C3A63089  25.428  25.938   6.914
 4797POPC   C4A63090  25.301  26.010   7.356
 4797POPC   C1B63091  25.040  26.280   6.127
 4797POPC   C2B63092  25.040  26.112   6.529
 4797POPC   C3B63093  24.949  26.148   6.948
 4797POPC   C4B63094  24.798  26.488   7.159
 4798POPC   NC363095  16.139  29.023   5.412
 4798POPC   PO463096  15.653  29.425   5.461
 4798POPC   GL163097  15.904  29.278   5.835
 4798POPC   GL263098  15.957  28.912   5.896
 4798POPC   C1A63099  16.222  29.316   6.198
 4798POPC   D2A63100  16.469  29.213   6.612
 4798POPC   C3A63101  16.181  29.107   6.963
 4798POPC   C4A63102  16.015  29.395   7.253
 4798POPC   C1B63103  15.818  28.702   6.279
 4798POPC   C2B63104  15.772  28.915   6.675
 4798POPC   C3B63105  15.656  29.052   7.101
 4798POPC   C4B63106  15.773  29.036   7.535
 4799POPC   NC363107   2.134  19.917   5.360
 4799POPC   PO463108   2.056  19.344   5.509
 4799POPC   GL163109   2.313  19.632   5.803
 4799POPC   GL263110   2.287  20.028   5.848
 4799POPC   C1A63111   2.382  19.708   6.275
 4799POPC   D2A63112   2.143  19.967   6.635
 4799POPC   C3A63113   1.944  19.783   7.026
 4799POPC   C4A63114   1.588  19.673   7.300
 4799POPC   C1B63115   2.504  20.191   6.256
 4799POPC   C2B63116   2.631  20.053   6.705
 4799POPC   C3B63117   2.401  20.001   7.136
 4799POPC   C4B63118   2.205  20.297   7.454
 4800POPC   NC363119  38.191  20.806   5.569
 4800POPC   PO463120  38.759  20.570   5.255
 4800POPC   GL163121  38.642  20.639   5.721
 4800POPC   GL263122  38.425  20.441   5.911
 4800POPC   C1A63123  38.706  20.804   6.159
 4800POPC   D2A63124  38.763  20.759   6.596
 4800POPC   C3A63125  38.474  20.753   6.936
 4800POPC   C4A63126  38.652  20.960   7.321
 4800POPC   C1B63127  38.390  20.432   6.393
 4800POPC   C2B63128  38.020  20.441   6.676
 4800POPC   C3B63129  37.829  20.570   7.045
 4800POPC   C4B63130  38.160  20.627   7.329
 4801POPC   NC363131   4.059  24.861   5.715
 4801POPC   PO463132   4.423  24.500   5.256
 4801POPC   GL163133   4.509  24.381   5.688
 4801POPC   GL263134   4.630  24.687   5.810
 4801POPC   C1A63135   4.280  24.210   6.075
 4801POPC   D2A63136   4.332  24.262   6.552
 4801POPC   C3A63137   4.264  24.142   7.003
 4801POPC   C4A63138   4.339  24.282   7.440
 4801POPC   C1B63139   4.405  24.675   6.237
 4801POPC   C2B63140   4.456  24.763   6.688
 4801POPC   C3B63141   4.385  24.671   7.124
 4801POPC   C4B63142   4.236  24.792   7.543
 4802POPC   NC363143  20.787  24.982   4.993
 4802POPC   PO463144  20.484  25.382   5.431
 4802POPC   GL163145  20.521  25.348   5.850
 4802POPC   GL263146  20.628  25.052   5.855
 4802POPC   C1A63147  20.765  25.426   6.214
 4802POPC   D2A63148  20.666  25.669   6.550
 4802POPC   C3A63149  20.663  25.337   6.796
 4802POPC   C4A63150  20.837  25.205   7.150
 4802POPC   C1B63151  20.327  25.081   6.240
 4802POPC   C2B63152  20.213  24.948   6.667
 4802POPC   C3B63153  20.258  25.171   7.054
 4802POPC   C4B63154  20.436  25.213   7.456
 4803POPC   NC363155   8.692  41.959   5.531
 4803POPC   PO463156   8.188  42.473   5.458
 4803POPC   GL163157   7.962  42.445   5.833
 4803POPC   GL263158   8.256  42.257   5.949
 4803POPC   C1A63159   7.869  42.355   6.277
 4803POPC   D2A63160   8.169  42.205   6.596
 4803POPC   C3A63161   8.062  42.346   7.048
 4803POPC   C4A63162   7.950  42.391   7.553
 4803POPC   C1B63163   8.460  41.930   6.217
 4803POPC   C2B63164   8.649  41.976   6.618
 4803POPC   C3B63165   8.516  42.025   7.043
 4803POPC   C4B63166   8.416  42.274   7.401
 4804POPC   NC363167  38.446  36.339   5.636
 4804POPC   PO463168  38.353  36.979   5.613
 4804POPC   GL163169  38.587  37.144   5.940
 4804POPC   GL263170  38.755  36.833   5.984
 4804POPC   C1A63171  38.544  37.098   6.421
 4804POPC   D2A63172  38.224  37.075   6.756
 4804POPC   C3A63173  38.285  37.004   7.212
 4804POPC   C4A63174  38.635  37.080   7.517
 4804POPC   C1B63175  38.415  36.633   6.223
 4804POPC   C2B63176  38.131  36.585   6.571
 4804POPC   C3B63177  38.239  36.559   6.951
 4804POPC   C4B63178  38.622  36.624   7.172
 4805POPC   NC363179  18.970  13.165   5.255
 4805POPC   PO463180  19.434  12.699   5.407
 4805POPC   GL163181  19.235  12.687   5.871
 4805POPC   GL263182  18.868  12.535   5.879
 4805POPC   C1A63183  19.276  12.797   6.332
 4805POPC   D2A63184  19.020  12.670   6.716
 4805POPC   C3A63185  19.177  12.948   7.033
 4805POPC   C4A63186  19.390  12.978   7.419
 4805POPC   C1B63187  18.774  12.784   6.275
 4805POPC   C2B63188  18.909  13.147   6.568
 4805POPC   C3B63189  18.736  13.171   6.987
 4805POPC   C4B63190  18.630  12.749   7.106
 4806POPC   NC363191   6.639  32.825   5.326
 4806POPC   PO463192   6.988  33.409   5.180
 4806POPC   GL163193   6.811  33.318   5.651
 4806POPC   GL263194   6.527  33.064   5.789
 4806POPC   C1A63195   6.851  33.235   6.138
 4806POPC   D2A63196   6.619  32.982   6.460
 4806POPC   C3A63197   6.711  33.135   6.891
 4806POPC   C4A63198   6.512  33.393   7.191
 4806POPC   C1B63199   6.250  32.828   6.129
 4806POPC   C2B63200   6.223  32.672   6.596
 4806POPC   C3B63201   6.383  32.757   7.029
 4806POPC   C4B63202   6.295  32.648   7.458
 4807POPC   NC363203  28.661   4.911   5.662
 4807POPC   PO463204  28.232   5.220   5.212
 4807POPC   GL163205  28.247   5.239   5.692
 4807POPC   GL263206  28.063   5.000   5.903
 4807POPC   C1A63207  28.389   5.316   6.150
 4807POPC   D2A63208  28.334   5.197   6.589
 4807POPC   C3A63209  28.714   5.096   6.804
 4807POPC   C4A63210  28.715   5.297   7.169
 4807POPC   C1B63211  28.302   4.801   6.255
 4807POPC   C2B63212  28.265   4.540   6.643
 4807POPC   C3B63213  28.359   4.753   7.031
 4807POPC   C4B63214  28.231   5.151   7.180
 4808POPC   NC363215  15.393  36.308   5.431
 4808POPC   PO463216  16.034  36.154   5.383
 4808POPC   GL163217  15.957  36.080   5.809
 4808POPC   GL263218  15.625  36.072   5.823
 4808POPC   C1A63219  15.969  36.008   6.254
 4808POPC   D2A63220  15.846  36.251   6.607
 4808POPC   C3A63221  16.006  36.147   7.004
 4808POPC   C4A63222  16.121  36.232   7.427
 4808POPC   C1B63223  15.479  36.071   6.242
 4808POPC   C2B63224  15.569  35.827   6.623
 4808POPC   C3B63225  15.526  35.959   7.025
 4808POPC   C4B63226  15.625  36.213   7.354
 4809POPC   NC363227  35.778   7.027   5.240
 4809POPC   PO463228  35.685   6.375   5.432
 4809POPC   GL163229  35.403   6.664   5.618
 4809POPC   GL263230  35.139   6.452   5.695
 4809POPC   C1A63231  35.254   6.853   6.038
 4809POPC   D2A63232  34.963   6.830   6.410
 4809POPC   C3A63233  35.099   6.876   6.829
 4809POPC   C4A63234  35.256   6.986   7.215
 4809POPC   C1B63235  35.102   6.361   6.158
 4809POPC   C2B63236  35.207   6.401   6.609
 4809POPC   C3B63237  35.095   6.427   7.081
 4809POPC   C4B63238  35.412   6.337   7.424
 4810POPC   NC363239  44.827  40.172   5.480
 4810POPC   PO463240  44.518  39.584   5.286
 4810POPC   GL163241  44.566  39.786   5.724
 4810POPC   GL263242  44.830  39.549   5.820
 4810POPC   C1A63243  44.576  40.065   6.166
 4810POPC   D2A63244  44.788  39.981   6.638
 4810POPC   C3A63245  44.626  40.125   7.076
 4810POPC   C4A63246  44.582  40.380   7.489
 4810POPC   C1B63247  44.777  39.624   6.260
 4810POPC   C2B63248  44.689  39.450   6.652
 4810POPC   C3B63249  44.835  39.628   7.031
 4810POPC   C4B63250  44.552  39.637   7.344
 4811POPC   NC363251  42.366  17.187   5.446
 4811POPC   PO463252  42.130  16.541   5.346
 4811POPC   GL163253  42.473  16.600   5.725
 4811POPC   GL263254  42.395  16.909   5.953
 4811POPC   C1A63255  42.552  16.502   6.205
 4811POPC   D2A63256  42.191  16.685   6.455
 4811POPC   C3A63257  42.059  16.588   6.868
 4811POPC   C4A63258  42.317  16.543   7.242
 4811POPC   C1B63259  42.587  16.993   6.396
 4811POPC   C2B63260  42.484  16.870   6.860
 4811POPC   C3B63261  42.683  16.987   7.267
 4811POPC   C4B63262  42.647  17.208   7.678
 4812POPC   NC363263  26.154  34.556   5.335
 4812POPC   PO463264  25.533  34.784   5.283
 4812POPC   GL163265  25.767  34.600   5.698
 4812POPC   GL263266  26.156  34.511   5.833
 4812POPC   C1A63267  25.824  34.681   6.161
 4812POPC   D2A63268  26.066  34.607   6.546
 4812POPC   C3A63269  25.878  34.706   6.940
 4812POPC   C4A63270  25.890  34.377   7.233
 4812POPC   C1B63271  26.340  34.832   6.148
 4812POPC   C2B63272  26.259  35.082   6.537
 4812POPC   C3B63273  26.329  34.965   6.962
 4812POPC   C4B63274  26.252  34.725   7.296
 4813POPC   NC363275  38.471  41.991   5.449
 4813POPC   PO463276  38.553  41.333   5.716
 4813POPC   GL163277  38.306  41.637   5.816
 4813POPC   GL263278  38.050  41.376   5.872
 4813POPC   C1A63279  38.464  41.796   6.176
 4813POPC   D2A63280  38.780  41.612   6.450
 4813POPC   C3A63281  38.686  41.643   6.893
 4813POPC   C4A63282  38.687  41.370   7.220
 4813POPC   C1B63283  38.206  41.352   6.320
 4813POPC   C2B63284  38.259  41.689   6.620
 4813POPC   C3B63285  38.154  41.821   7.008
 4813POPC   C4B63286  38.192  41.505   7.283
 4814POPC   NC363287  38.958  35.629   5.499
 4814POPC   PO463288  39.545  35.678   5.409
 4814POPC   GL163289  39.316  35.323   5.693
 4814POPC   GL263290  39.462  35.059   5.916
 4814POPC   C1A63291  39.047  35.305   6.093
 4814POPC   D2A63292  39.137  35.531   6.502
 4814POPC   C3A63293  39.002  35.484   6.897
 4814POPC   C4A63294  39.117  35.533   7.299
 4814POPC   C1B63295  39.448  35.162   6.361
 4814POPC   C2B63296  39.153  35.026   6.682
 4814POPC   C3B63297  39.170  35.051   7.113
 4814POPC   C4B63298  39.474  35.182   7.433
 4815POPC   NC363299  20.987  11.030   5.398
 4815POPC   PO463300  20.462  11.499   5.226
 4815POPC   GL163301  20.495  11.360   5.703
 4815POPC   GL263302  20.802  11.206   5.833
 4815POPC   C1A63303  20.382  11.190   6.130
 4815POPC   D2A63304  20.300  11.249   6.579
 4815POPC   C3A63305  20.582  11.475   6.846
 4815POPC   C4A63306  20.859  11.578   7.173
 4815POPC   C1B63307  20.854  11.019   6.252
 4815POPC   C2B63308  20.737  10.958   6.715
 4815POPC   C3B63309  20.776  11.056   7.184
 4815POPC   C4B63310  20.874  10.996   7.634
 4816POPC   NC363311   9.610  32.289   5.026
 4816POPC   PO463312   9.568  32.070   5.536
 4816POPC   GL163313   9.601  32.313   5.942
 4816POPC   GL263314   9.804  32.599   5.895
 4816POPC   C1A63315   9.558  32.475   6.402
 4816POPC   D2A63316   9.560  32.497   6.886
 4816POPC   C3A63317   9.770  32.185   7.183
 4816POPC   C4A63318   9.736  31.742   7.307
 4816POPC   C1B63319  10.045  32.402   6.266
 4816POPC   C2B63320  10.059  32.368   6.745
 4816POPC   C3B63321  10.281  32.227   7.128
 4816POPC   C4B63322  10.253  31.865   7.419
 4817POPC   NC363323   3.132  13.461   5.415
 4817POPC   PO463324   3.701  13.632   5.233
 4817POPC   GL163325   3.584  13.702   5.701
 4817POPC   GL263326   3.272  13.654   5.858
 4817POPC   C1A63327   3.651  13.568   6.168
 4817POPC   D2A63328   3.484  13.561   6.603
 4817POPC   C3A63329   3.778  13.577   6.952
 4817POPC   C4A63330   3.938  13.891   7.249
 4817POPC   C1B63331   3.042  13.662   6.253
 4817POPC   C2B63332   2.979  13.636   6.677
 4817POPC   C3B63333   3.085  13.894   7.057
 4817POPC   C4B63334   3.431  13.746   7.278
 4818POPC   NC363335  30.910   4.958   5.373
 4818POPC   PO463336  30.387   5.374   5.516
 4818POPC   GL163337  30.580   5.056   5.813
 4818POPC   GL263338  30.930   4.933   5.884
 4818POPC   C1A63339  30.590   4.970   6.256
 4818POPC   D2A63340  30.589   5.283   6.530
 4818POPC   C3A63341  30.811   5.188   6.836
 4818POPC   C4A63342  30.704   5.209   7.217
 4818POPC   C1B63343  30.913   5.367   6.130
 4818POPC   C2B63344  30.935   5.663   6.528
 4818POPC   C3B63345  31.112   5.579   6.962
 4818POPC   C4B63346  31.188   5.330   7.322
 4819POPC   NC363347  14.688   3.660   5.466
 4819POPC   PO463348  14.601   2.994   5.481
 4819POPC   GL163349  14.661   3.298   5.868
 4819POPC   GL263350  14.448   3.616   5.920
 4819POPC   C1A63351  14.646   3.421   6.339
 4819POPC   D2A63352  14.490   3.811   6.553
 4819POPC   C3A63353  14.499   3.696   6.964
 4819POPC   C4A63354  14.479   3.254   7.041
 4819POPC   C1B63355  14.145   3.414   6.220
 4819POPC   C2B63356  14.149   3.425   6.672
 4819POPC   C3B63357  14.009   3.573   7.067
 4819POPC   C4B63358  14.274   3.550   7.414
 4820POPC   NC363359  34.880  10.656   5.546
 4820POPC   PO463360  34.254  10.400   5.525
 4820POPC   GL163361  34.528  10.415   5.892
 4820POPC   GL263362  34.880  10.271   5.877
 4820POPC   C1A63363  34.704  10.597   6.278
 4820POPC   D2A63364  34.940  10.742   6.661
 4820POPC   C3A63365  34.646  10.740   7.053
 4820POPC   C4A63366  34.501  10.997   7.423
 4820POPC   C1B63367  34.873  10.128   6.298
 4820POPC   C2B63368  34.753  10.273   6.715
 4820POPC   C3B63369  34.998  10.369   7.094
 4820POPC   C4B63370  34.775  10.238   7.485
 4821POPC   NC363371   5.052  42.347   5.431
 4821POPC   PO463372   4.673  42.719   5.528
 4821POPC   GL163373   4.875  42.450   5.906
 4821POPC   GL263374   5.040  42.104   5.877
 4821POPC   C1A63375   5.132  42.398   6.305
 4821POPC   D2A63376   5.326  42.308   6.717
 4821POPC   C3A63377   5.128  42.092   7.082
 4821POPC   C4A63378   4.978  42.264   7.472
 4821POPC   C1B63379   5.304  41.922   6.211
 4821POPC   C2B63380   5.455  41.819   6.653
 4821POPC   C3B63381   5.501  41.694   7.108
 4821POPC   C4B63382   5.392  41.979   7.524
 4822POPC   NC363383  35.335  41.083   5.407
 4822POPC   PO463384  35.550  40.446   5.356
 4822POPC   GL163385  35.251  40.633   5.692
 4822POPC   GL263386  35.279  40.952   5.888
 4822POPC   C1A63387  35.197  40.508   6.123
 4822POPC   D2A63388  35.358  40.614   6.485
 4822POPC   C3A63389  35.137  40.622   6.849
 4822POPC   C4A63390  35.293  40.556   7.235
 4822POPC   C1B63391  35.442  41.070   6.307
 4822POPC   C2B63392  35.466  41.025   6.767
 4822POPC   C3B63393  35.391  41.091   7.197
 4822POPC   C4B63394  35.333  40.939   7.624
 4823POPC   NC363395  19.367   2.194   5.360
 4823POPC   PO463396  18.725   1.896   5.340
 4823POPC   GL163397  19.023   1.889   5.646
 4823POPC   GL263398  19.011   2.210   5.793
 4823POPC   C1A63399  19.274   1.797   6.022
 4823POPC   D2A63400  19.115   1.738   6.438
 4823POPC   C3A63401  19.211   1.990   6.779
 4823POPC   C4A63402  19.165   1.956   7.204
 4823POPC   C1B63403  19.098   2.233   6.256
 4823POPC   C2B63404  18.991   2.427   6.663
 4823POPC   C3B63405  19.191   2.441   7.079
 4823POPC   C4B63406  19.509   2.453   7.442
 4824POPC   NC363407  33.740  33.527   5.306
 4824POPC   PO463408  33.639  34.175   5.446
 4824POPC   GL163409  33.855  33.793   5.729
 4824POPC   GL263410  33.650  33.465   5.838
 4824POPC   C1A63411  34.019  33.639   6.167
 4824POPC   D2A63412  33.970  33.422   6.582
 4824POPC   C3A63413  33.870  33.678   6.955
 4824POPC   C4A63414  33.933  33.781   7.410
 4824POPC   C1B63415  33.518  33.473   6.310
 4824POPC   C2B63416  33.483  33.408   6.778
 4824POPC   C3B63417  33.528  33.440   7.247
 4824POPC   C4B63418  33.473  33.717   7.622
 4825POPC   NC363419  44.108  14.987   5.320
 4825POPC   PO463420  43.508  15.242   5.222
 4825POPC   GL163421  43.682  14.980   5.649
 4825POPC   GL263422  44.059  14.880   5.813
 4825POPC   C1A63423  43.650  15.063   6.117
 4825POPC   D2A63424  43.826  15.204   6.543
 4825POPC   C3A63425  43.691  15.058   6.957
 4825POPC   C4A63426  43.456  15.376   7.225
 4825POPC   C1B63427  44.129  14.888   6.292
 4825POPC   C2B63428  44.175  14.907   6.781
 4825POPC   C3B63429  44.168  15.003   7.241
 4825POPC   C4B63430  44.117  14.911   7.728
 4826POPC   NC363431  36.590  38.238   5.499
 4826POPC   PO463432  37.047  38.671   5.171
 4826POPC   GL163433  36.932  38.579   5.626
 4826POPC   GL263434  36.670  38.666   5.847
 4826POPC   C1A63435  37.083  38.462   6.038
 4826POPC   D2A63436  36.938  38.686   6.366
 4826POPC   C3A63437  36.989  38.676   6.802
 4826POPC   C4A63438  36.940  38.654   7.228
 4826POPC   C1B63439  36.663  38.265   6.173
 4826POPC   C2B63440  36.921  38.204   6.542
 4826POPC   C3B63441  36.817  38.226   6.968
 4826POPC   C4B63442  36.622  38.200   7.357
 4827POPC   NC363443   5.785  11.814   5.362
 4827POPC   PO463444   5.859  12.451   5.291
 4827POPC   GL163445   5.864  12.178   5.708
 4827POPC   GL263446   6.102  11.887   5.755
 4827POPC   C1A63447   5.682  11.962   6.115
 4827POPC   D2A63448   5.834  12.018   6.581
 4827POPC   C3A63449   5.746  12.168   7.041
 4827POPC   C4A63450   5.747  12.520   7.334
 4827POPC   C1B63451   6.182  11.872   6.217
 4827POPC   C2B63452   6.185  11.657   6.658
 4827POPC   C3B63453   6.184  11.870   7.091
 4827POPC   C4B63454   6.234  11.702   7.562
 4828POPC   NC363455  22.479  18.329   5.429
 4828POPC   PO463456  21.897  17.981   5.498
 4828POPC   GL163457  22.136  18.172   5.820
 4828POPC   GL263458  22.391  17.890   5.752
 4828POPC   C1A63459  22.004  18.386   6.238
 4828POPC   D2A63460  22.203  18.475   6.674
 4828POPC   C3A63461  22.088  18.595   7.103
 4828POPC   C4A63462  22.170  18.549   7.550
 4828POPC   C1B63463  22.352  17.911   6.209
 4828POPC   C2B63464  22.322  17.804   6.642
 4828POPC   C3B63465  22.598  17.873   6.993
 4828POPC   C4B63466  22.456  17.978   7.368
 4829POPC   NC363467  39.940  23.199   5.477
 4829POPC   PO463468  39.971  22.534   5.484
 4829POPC   GL163469  39.943  22.816   5.817
 4829POPC   GL263470  40.212  23.068   5.878
 4829POPC   C1A63471  39.839  22.950   6.227
 4829POPC   D2A63472  39.977  23.127   6.596
 4829POPC   C3A63473  40.001  22.924   6.934
 4829POPC   C4A63474  39.894  23.030   7.305
 4829POPC   C1B63475  40.183  23.354   6.205
 4829POPC   C2B63476  40.300  23.569   6.568
 4829POPC   C3B63477  40.224  23.395   6.953
 4829POPC   C4B63478  40.385  23.349   7.309
 4830POPC   NC363479   8.569  25.886   5.378
 4830POPC   PO463480   9.249  26.035   5.484
 4830POPC   GL163481   9.020  26.014   5.830
 4830POPC   GL263482   8.646  25.938   5.875
 4830POPC   C1A63483   9.256  25.978   6.185
 4830POPC   D2A63484   9.292  26.161   6.565
 4830POPC   C3A63485   8.972  26.080   6.865
 4830POPC   C4A63486   8.964  26.224   7.291
 4830POPC   C1B63487   8.779  26.236   6.206
 4830POPC   C2B63488   8.829  26.469   6.566
 4830POPC   C3B63489   8.660  26.477   6.956
 4830POPC   C4B63490   8.641  26.596   7.359
 4831POPC   NC363491  18.219  28.387   5.299
 4831POPC   PO463492  18.067  28.781   5.761
 4831POPC   GL163493  18.192  28.401   5.925
 4831POPC   GL263494  18.522  28.417   5.764
 4831POPC   C1A63495  18.205  28.249   6.361
 4831POPC   D2A63496  18.368  27.991   6.697
 4831POPC   C3A63497  18.137  28.131   7.055
 4831POPC   C4A63498  18.176  28.491   7.303
 4831POPC   C1B63499  18.682  28.286   6.187
 4831POPC   C2B63500  18.667  28.427   6.631
 4831POPC   C3B63501  18.624  28.297   7.080
 4831POPC   C4B63502  18.668  28.321   7.561
 4832POPC   NC363503  34.617  31.129   5.138
 4832POPC   PO463504  34.400  31.721   5.331
 4832POPC   GL163505  34.638  31.474   5.650
 4832POPC   GL263506  34.727  31.703   5.912
 4832POPC   C1A63507  34.523  31.272   6.078
 4832POPC   D2A63508  34.265  31.251   6.474
 4832POPC   C3A63509  34.471  31.184   6.889
 4832POPC   C4A63510  34.438  30.935   7.276
 4832POPC   C1B63511  34.705  31.888   6.324
 4832POPC   C2B63512  34.434  31.726   6.630
 4832POPC   C3B63513  34.337  31.827   7.019
 4832POPC   C4B63514  34.423  31.507   7.323
 4833POPC   NC363515   6.767   7.820   5.471
 4833POPC   PO463516   6.517   8.412   5.408
 4833POPC   GL163517   6.590   8.247   5.796
 4833POPC   GL263518   6.891   8.253   5.760
 4833POPC   C1A63519   6.436   8.170   6.225
 4833POPC   D2A63520   6.690   8.210   6.587
 4833POPC   C3A63521   6.585   8.332   6.992
 4833POPC   C4A63522   6.190   8.215   7.145
 4833POPC   C1B63523   6.946   8.051   6.139
 4833POPC   C2B63524   7.125   7.940   6.506
 4833POPC   C3B63525   6.920   7.849   6.862
 4833POPC   C4B63526   6.803   7.927   7.256
 4834POPC   NC363527  29.220  32.047   5.498
 4834POPC   PO463528  29.238  32.713   5.489
 4834POPC   GL163529  28.993  32.590   5.800
 4834POPC   GL263530  28.770  32.330   5.691
 4834POPC   C1A63531  29.129  32.522   6.201
 4834POPC   D2A63532  29.182  32.196   6.485
 4834POPC   C3A63533  29.316  32.275   6.887
 4834POPC   C4A63534  29.127  32.232   7.259
 4834POPC   C1B63535  28.839  32.111   6.103
 4834POPC   C2B63536  28.710  31.976   6.544
 4834POPC   C3B63537  28.818  31.923   7.026
 4834POPC   C4B63538  28.776  31.954   7.552
 4835POPC   NC363539  14.105  15.201   5.279
 4835POPC   PO463540  14.690  15.388   5.375
 4835POPC   GL163541  14.634  15.199   5.756
 4835POPC   GL263542  14.301  15.016   5.750
 4835POPC   C1A63543  14.747  15.202   6.192
 4835POPC   D2A63544  14.647  14.919   6.544
 4835POPC   C3A63545  14.730  15.127   6.916
 4835POPC   C4A63546  14.660  15.386   7.270
 4835POPC   C1B63547  14.252  14.998   6.208
 4835POPC   C2B63548  14.063  15.056   6.599
 4835POPC   C3B63549  14.083  14.895   6.960
 4835POPC   C4B63550  14.410  14.902   7.251
 4836POPC   NC363551  38.261  12.172   5.487
 4836POPC   PO463552  38.935  12.114   5.522
 4836POPC   GL163553  38.653  12.188   5.845
 4836POPC   GL263554  38.655  12.533   5.745
 4836POPC   C1A63555  38.324  12.024   6.152
 4836POPC   D2A63556  38.295  11.795   6.506
 4836POPC   C3A63557  38.148  12.020   6.846
 4836POPC   C4A63558  38.215  11.847   7.244
 4836POPC   C1B63559  38.312  12.517   6.058
 4836POPC   C2B63560  38.287  12.483   6.510
 4836POPC   C3B63561  38.292  12.542   6.959
 4836POPC   C4B63562  38.449  12.275   7.272
 4837POPC   NC363563  41.356  21.557   5.686
 4837POPC   PO463564  41.546  22.163   5.351
 4837POPC   GL163565  41.550  22.314   5.771
 4837POPC   GL263566  41.216  22.265   5.865
 4837POPC   C1A63567  41.530  22.551   6.170
 4837POPC   D2A63568  41.410  22.640   6.619
 4837POPC   C3A63569  41.747  22.540   6.948
 4837POPC   C4A63570  41.842  22.515   7.423
 4837POPC   C1B63571  41.413  22.064   6.253
 4837POPC   C2B63572  41.349  21.813   6.664
 4837POPC   C3B63573  41.519  21.713   7.086
 4837POPC   C4B63574  41.796  21.454   7.348
 4838POPC   NC363575  11.952   8.390   5.159
 4838POPC   PO463576  12.430   7.978   5.384
 4838POPC   GL163577  12.251   8.306   5.682
 4838POPC   GL263578  11.869   8.360   5.693
 4838POPC   C1A63579  12.117   8.149   6.103
 4838POPC   D2A63580  12.104   7.824   6.435
 4838POPC   C3A63581  12.226   8.013   6.831
 4838POPC   C4A63582  12.168   8.203   7.230
 4838POPC   C1B63583  11.678   8.438   6.124
 4838POPC   C2B63584  11.771   8.624   6.554
 4838POPC   C3B63585  11.813   8.453   6.977
 4838POPC   C4B63586  11.729   8.002   7.101
 4839POPC   NC363587  12.811  23.275   5.446
 4839POPC   PO463588  13.109  22.621   5.544
 4839POPC   GL163589  12.905  22.949   5.826
 4839POPC   GL263590  12.569  23.042   5.830
 4839POPC   C1A63591  12.912  23.080   6.257
 4839POPC   D2A63592  12.965  23.074   6.713
 4839POPC   C3A63593  12.637  22.989   7.005
 4839POPC   C4A63594  12.730  22.571   7.165
 4839POPC   C1B63595  12.448  23.297   6.163
 4839POPC   C2B63596  12.537  23.317   6.585
 4839POPC   C3B63597  12.332  23.438   6.944
 4839POPC   C4B63598  12.494  23.367   7.341
 4840POPC   NC363599   5.534  26.664   5.483
 4840POPC   PO463600   4.948  26.486   5.434
 4840POPC   GL163601   5.035  26.817   5.788
 4840POPC   GL263602   5.301  27.075   5.762
 4840POPC   C1A63603   5.078  26.848   6.286
 4840POPC   D2A63604   4.951  26.719   6.741
 4840POPC   C3A63605   5.160  26.817   7.139
 4840POPC   C4A63606   5.259  26.575   7.526
 4840POPC   C1B63607   5.419  27.212   6.209
 4840POPC   C2B63608   5.274  27.251   6.664
 4840POPC   C3B63609   5.305  27.316   7.128
 4840POPC   C4B63610   5.018  27.193   7.483
 4841POPC   NC363611  44.655  37.414   5.350
 4841POPC   PO463612  44.645  38.120   5.476
 4841POPC   GL163613  44.777  37.756   5.746
 4841POPC   GL263614  44.454  37.594   5.792
 4841POPC   C1A63615  44.787  37.671   6.212
 4841POPC   D2A63616  44.495  37.845   6.539
 4841POPC   C3A63617  44.598  37.930   6.978
 4841POPC   C4A63618  44.810  37.750   7.352
 4841POPC   C1B63619  44.375  37.344   6.172
 4841POPC   C2B63620  44.573  37.324   6.574
 4841POPC   C3B63621  44.641  37.414   7.011
 4841POPC   C4B63622  44.337  37.321   7.368
 4842POPC   NC363623  43.478  28.869   5.637
 4842POPC   PO463624  43.559  29.450   5.546
 4842POPC   GL163625  43.699  29.254   5.938
 4842POPC   GL263626  43.843  28.905   5.997
 4842POPC   C1A63627  43.676  29.234   6.376
 4842POPC   D2A63628  43.508  29.424   6.696
 4842POPC   C3A63629  43.627  29.417   7.112
 4842POPC   C4A63630  43.604  29.091   7.418
 4842POPC   C1B63631  44.147  29.096   6.303
 4842POPC   C2B63632  44.075  29.240   6.737
 4842POPC   C3B63633  44.047  29.016   7.128
 4842POPC   C4B63634  44.362  28.709   7.314
 4843POPC   NC363635  26.735  24.693   5.380
 4843POPC   PO463636  26.501  24.014   5.413
 4843POPC   GL163637  26.623  24.253   5.798
 4843POPC   GL263638  26.961  24.402   5.778
 4843POPC   C1A63639  26.631  24.395   6.246
 4843POPC   D2A63640  26.360  24.224   6.545
 4843POPC   C3A63641  26.508  24.138   6.962
 4843POPC   C4A63642  26.709  24.479   7.170
 4843POPC   C1B63643  27.047  24.670   6.148
 4843POPC   C2B63644  27.098  24.756   6.617
 4843POPC   C3B63645  27.191  24.516   7.016
 4843POPC   C4B63646  27.191  24.536   7.484
 4844POPC   NC363647  23.448  10.038   5.445
 4844POPC   PO463648  23.782  10.742   5.488
 4844POPC   GL163649  23.590  10.539   5.801
 4844POPC   GL263650  23.737  10.236   5.832
 4844POPC   C1A63651  23.525  10.639   6.227
 4844POPC   D2A63652  23.265  10.698   6.611
 4844POPC   C3A63653  23.425  10.434   6.939
 4844POPC   C4A63654  23.657  10.460   7.341
 4844POPC   C1B63655  23.480  10.106   6.179
 4844POPC   C2B63656  23.436  10.048   6.622
 4844POPC   C3B63657  23.771  10.076   6.964
 4844POPC   C4B63658  23.815   9.912   7.337
 4845POPC   NC363659   5.305   7.181   5.787
 4845POPC   PO463660   5.020   7.555   5.324
 4845POPC   GL163661   4.856   7.612   5.757
 4845POPC   GL263662   4.739   7.310   5.922
 4845POPC   C1A63663   4.960   7.647   6.223
 4845POPC   D2A63664   5.275   7.481   6.540
 4845POPC   C3A63665   5.155   7.524   6.988
 4845POPC   C4A63666   5.280   7.199   7.242
 4845POPC   C1B63667   4.841   7.108   6.315
 4845POPC   C2B63668   4.968   7.101   6.756
 4845POPC   C3B63669   4.765   7.167   7.153
 4845POPC   C4B63670   4.912   6.982   7.521
 4846POPC   NC363671  16.439  40.863   5.336
 4846POPC   PO463672  16.994  40.574   5.551
 4846POPC   GL163673  16.635  40.702   5.817
 4846POPC   GL263674  16.647  41.011   6.024
 4846POPC   C1A63675  16.461  40.542   6.217
 4846POPC   D2A63676  16.593  40.430   6.632
 4846POPC   C3A63677  16.649  40.758   6.922
 4846POPC   C4A63678  16.957  40.638   7.147
 4846POPC   C1B63679  16.947  41.216   6.323
 4846POPC   C2B63680  17.003  41.330   6.784
 4846POPC   C3B63681  16.969  41.132   7.203
 4846POPC   C4B63682  16.638  40.930   7.464
 4847POPC   NC363683  25.926  39.528   5.433
 4847POPC   PO463684  26.355  38.963   5.364
 4847POPC   GL163685  26.055  39.102   5.740
 4847POPC   GL263686  26.185  39.428   5.878
 4847POPC   C1A63687  25.922  39.164   6.225
 4847POPC   D2A63688  26.099  39.198   6.669
 4847POPC   C3A63689  25.875  39.136   7.074
 4847POPC   C4A63690  25.891  39.384   7.458
 4847POPC   C1B63691  26.427  39.339   6.276
 4847POPC   C2B63692  26.598  39.267   6.717
 4847POPC   C3B63693  26.410  39.174   7.146
 4847POPC   C4B63694  26.435  39.472   7.543
 4848POPC   NC363695  28.397  35.095   5.596
 4848POPC   PO463696  28.840  35.168   5.948
 4848POPC   GL163697  28.409  35.070   6.127
 4848POPC   GL263698  28.130  35.286   5.991
 4848POPC   C1A63699  28.241  35.250   6.521
 4848POPC   D2A63700  27.933  35.493   6.769
 4848POPC   C3A63701  28.156  35.527   7.155
 4848POPC   C4A63702  28.391  35.247   7.444
 4848POPC   C1B63703  27.801  35.271   6.291
 4848POPC   C2B63704  27.821  34.982   6.670
 4848POPC   C3B63705  28.109  34.992   7.058
 4848POPC   C4B63706  28.035  34.887   7.536
 4849POPC   NC363707   6.149   3.457   5.427
 4849POPC   PO463708   5.519   3.523   5.341
 4849POPC   GL163709   5.746   3.465   5.769
 4849POPC   GL263710   5.992   3.178   5.876
 4849POPC   C1A63711   5.823   3.609   6.198
 4849POPC   D2A63712   5.945   3.505   6.611
 4849POPC   C3A63713   5.652   3.618   6.915
 4849POPC   C4A63714   5.743   3.835   7.256
 4849POPC   C1B63715   5.776   3.095   6.308
 4849POPC   C2B63716   5.720   3.087   6.785
 4849POPC   C3B63717   6.012   3.277   7.086
 4849POPC   C4B63718   6.137   3.230   7.533
 4850POPC   NC363719  21.363  39.587   5.389
 4850POPC   PO463720  21.060  40.174   5.430
 4850POPC   GL163721  21.360  40.047   5.787
 4850POPC   GL263722  21.599  39.752   5.812
 4850POPC   C1A63723  21.269  40.049   6.227
 4850POPC   D2A63724  20.994  40.314   6.467
 4850POPC   C3A63725  21.028  40.262   6.912
 4850POPC   C4A63726  21.271  39.996   7.169
 4850POPC   C1B63727  21.607  39.656   6.256
 4850POPC   C2B63728  21.561  39.834   6.673
 4850POPC   C3B63729  21.549  39.575   7.027
 4850POPC   C4B63730  21.800  39.513   7.366
 4851POPC   NC363731  44.268  32.977   5.357
 4851POPC   PO463732  44.541  33.585   5.457
 4851POPC   GL163733  44.710  33.272   5.777
 4851POPC   GL263734  44.605  32.930   5.739
 4851POPC   C1A63735  44.795  33.114   6.210
 4851POPC   D2A63736  44.611  33.215   6.628
 4851POPC   C3A63737  44.729  33.010   7.044
 4851POPC   C4A63738  44.579  32.924   7.464
 4851POPC   C1B63739  44.384  32.827   6.107
 4851POPC   C2B63740  44.388  32.763   6.528
 4851POPC   C3B63741  44.250  32.923   6.885
 4851POPC   C4B63742  44.146  32.739   7.244
 4852POPC   NC363743  34.118  30.339   5.417
 4852POPC   PO463744  34.699  30.734   5.357
 4852POPC   GL163745  34.610  30.782   5.785
 4852POPC   GL263746  34.281  30.617   5.827
 4852POPC   C1A63747  34.725  30.831   6.222
 4852POPC   D2A63748  34.974  30.924   6.578
 4852POPC   C3A63749  34.830  30.799   6.962
 4852POPC   C4A63750  34.736  30.519   7.282
 4852POPC   C1B63751  34.522  30.370   6.127
 4852POPC   C2B63752  34.642  30.469   6.575
 4852POPC   C3B63753  34.364  30.527   6.952
 4852POPC   C4B63754  34.231  30.449   7.396
 4853POPC   NC363755  16.041  34.725   5.333
 4853POPC   PO463756  15.810  34.215   5.532
 4853POPC   GL163757  16.145  34.422   5.777
 4853POPC   GL263758  16.287  34.793   5.781
 4853POPC   C1A63759  16.148  34.562   6.206
 4853POPC   D2A63760  16.046  34.819   6.563
 4853POPC   C3A63761  15.949  34.624   6.962
 4853POPC   C4A63762  15.651  34.737   7.270
 4853POPC   C1B63763  16.323  35.056   6.190
 4853POPC   C2B63764  16.326  35.243   6.629
 4853POPC   C3B63765  16.362  34.918   6.950
 4853POPC   C4B63766  16.206  34.923   7.328
 4854POPC   NC363767  16.077  11.993   5.327
 4854POPC   PO463768  15.423  12.223   5.183
 4854POPC   GL163769  15.642  12.162   5.625
 4854POPC   GL263770  16.003  12.278   5.746
 4854POPC   C1A63771  15.693  12.027   6.095
 4854POPC   D2A63772  15.663  11.708   6.469
 4854POPC   C3A63773  15.871  11.815   6.880
 4854POPC   C4A63774  15.664  12.103   7.145
 4854POPC   C1B63775  16.248  12.162   6.140
 4854POPC   C2B63776  16.238  11.966   6.552
 4854POPC   C3B63777  16.304  12.122   6.949
 4854POPC   C4B63778  16.128  12.191   7.339
 4855POPC   NC363779   3.417  33.048   5.600
 4855POPC   PO463780   4.122  32.946   5.772
 4855POPC   GL163781   3.785  33.189   5.944
 4855POPC   GL263782   3.600  32.889   6.057
 4855POPC   C1A63783   3.635  33.317   6.351
 4855POPC   D2A63784   3.512  33.087   6.720
 4855POPC   C3A63785   3.660  33.220   7.139
 4855POPC   C4A63786   3.645  33.048   7.550
 4855POPC   C1B63787   3.188  33.049   6.231
 4855POPC   C2B63788   2.999  33.141   6.626
 4855POPC   C3B63789   3.147  33.237   7.050
 4855POPC   C4B63790   3.185  33.231   7.522
 4856POPC   NC363791  15.420  27.588   5.430
 4856POPC   PO463792  14.862  27.830   5.484
 4856POPC   GL163793  14.993  27.752   5.878
 4856POPC   GL263794  15.258  27.506   5.925
 4856POPC   C1A63795  15.163  27.924   6.223
 4856POPC   D2A63796  15.313  27.758   6.591
 4856POPC   C3A63797  15.027  27.450   6.795
 4856POPC   C4A63798  14.894  27.466   7.219
 4856POPC   C1B63799  15.623  27.671   6.175
 4856POPC   C2B63800  15.875  27.837   6.506
 4856POPC   C3B63801  15.731  27.839   6.925
 4856POPC   C4B63802  15.315  27.741   7.104
 4857POPC   NC363803  19.462  18.108   5.569
 4857POPC   PO463804  18.800  18.354   5.524
 4857POPC   GL163805  19.049  18.322   5.846
 4857POPC   GL263806  19.002  17.980   5.802
 4857POPC   C1A63807  18.885  18.448   6.219
 4857POPC   D2A63808  18.955  18.693   6.564
 4857POPC   C3A63809  18.800  18.523   6.962
 4857POPC   C4A63810  18.904  18.410   7.376
 4857POPC   C1B63811  18.971  17.934   6.230
 4857POPC   C2B63812  18.979  18.145   6.626
 4857POPC   C3B63813  18.991  18.014   7.046
 4857POPC   C4B63814  18.982  17.885   7.470
 4858POPC   NC363815   9.057  12.889   5.295
 4858POPC   PO463816   9.538  12.623   5.290
 4858POPC   GL163817   9.307  12.655   5.725
 4858POPC   GL263818   9.116  12.972   5.807
 4858POPC   C1A63819   9.219  12.695   6.224
 4858POPC   D2A63820   8.987  12.772   6.657
 4858POPC   C3A63821   9.051  12.577   7.103
 4858POPC   C4A63822   8.996  12.369   7.535
 4858POPC   C1B63823   8.949  13.161   6.226
 4858POPC   C2B63824   8.888  13.276   6.691
 4858POPC   C3B63825   8.893  13.109   7.148
 4858POPC   C4B63826   8.811  13.185   7.624
 4859POPC   NC363827   1.877  16.903   5.483
 4859POPC   PO463828   1.648  16.318   5.150
 4859POPC   GL163829   1.935  16.405   5.685
 4859POPC   GL263830   2.295  16.294   5.736
 4859POPC   C1A63831   1.890  16.638   6.125
 4859POPC   D2A63832   1.941  16.985   6.474
 4859POPC   C3A63833   1.940  16.883   6.942
 4859POPC   C4A63834   2.271  16.655   7.113
 4859POPC   C1B63835   2.267  16.300   6.205
 4859POPC   C2B63836   2.064  16.482   6.613
 4859POPC   C3B63837   1.941  16.300   7.031
 4859POPC   C4B63838   2.209  16.235   7.420
 4860POPC   NC363839  24.060  25.806   5.548
 4860POPC   PO463840  23.379  25.796   5.738
 4860POPC   GL163841  23.724  25.806   5.972
 4860POPC   GL263842  23.883  26.046   5.951
 4860POPC   C1A63843  23.769  25.819   6.422
 4860POPC   D2A63844  23.563  26.039   6.762
 4860POPC   C3A63845  23.597  25.907   7.184
 4860POPC   C4A63846  23.564  25.810   7.623
 4860POPC   C1B63847  24.081  26.254   6.270
 4860POPC   C2B63848  23.972  26.351   6.677
 4860POPC   C3B63849  23.927  26.283   7.091
 4860POPC   C4B63850  23.864  26.216   7.549
 4861POPC   NC363851  18.905  39.058   5.460
 4861POPC   PO463852  19.271  39.596   5.437
 4861POPC   GL163853  19.213  39.534   5.854
 4861POPC   GL263854  18.881  39.409   5.855
 4861POPC   C1A63855  19.232  39.303   6.251
 4861POPC   D2A63856  18.970  39.297   6.604
 4861POPC   C3A63857  19.172  39.226   7.000
 4861POPC   C4A63858  18.986  39.271   7.407
 4861POPC   C1B63859  18.724  39.113   6.170
 4861POPC   C2B63860  18.479  39.115   6.566
 4861POPC   C3B63861  18.673  39.103   6.981
 4861POPC   C4B63862  18.678  38.883   7.363
 4862POPC   NC363863  17.192  33.867   5.456
 4862POPC   PO463864  17.487  33.293   5.444
 4862POPC   GL163865  17.489  33.599   5.789
 4862POPC   GL263866  17.727  33.478   5.975
 4862POPC   C1A63867  17.431  33.783   6.254
 4862POPC   D2A63868  17.402  33.831   6.743
 4862POPC   C3A63869  17.505  33.997   7.172
 4862POPC   C4A63870  17.660  33.947   7.664
 4862POPC   C1B63871  17.932  33.572   6.342
 4862POPC   C2B63872  17.918  33.329   6.704
 4862POPC   C3B63873  17.649  33.417   7.002
 4862POPC   C4B63874  17.677  33.563   7.357
 4863POPC   NC363875  26.073  35.999   5.400
 4863POPC   PO463876  25.561  35.650   5.624
 4863POPC   GL163877  25.912  35.875   5.855
 4863POPC   GL263878  25.883  36.274   5.818
 4863POPC   C1A63879  26.185  36.067   6.185
 4863POPC   D2A63880  26.021  36.310   6.526
 4863POPC   C3A63881  26.214  36.185   6.918
 4863POPC   C4A63882  26.182  36.241   7.352
 4863POPC   C1B63883  25.618  36.462   6.176
 4863POPC   C2B63884  25.523  36.399   6.644
 4863POPC   C3B63885  25.703  36.208   7.025
 4863POPC   C4B63886  25.742  36.466   7.377
 4864POPC   NC363887  21.701  38.971   5.416
 4864POPC   PO463888  22.402  38.956   5.519
 4864POPC   GL163889  22.169  39.264   5.816
 4864POPC   GL263890  22.188  39.654   5.705
 4864POPC   C1A63891  21.990  39.299   6.271
 4864POPC   D2A63892  21.825  39.235   6.724
 4864POPC   C3A63893  22.086  39.152   7.123
 4864POPC   C4A63894  22.264  39.139   7.565
 4864POPC   C1B63895  22.365  39.649   6.131
 4864POPC   C2B63896  22.349  39.526   6.578
 4864POPC   C3B63897  22.112  39.640   6.938
 4864POPC   C4B63898  22.290  39.588   7.338
 4865POPC   NC363899  43.065   2.117   5.353
 4865POPC   PO463900  43.080   1.453   5.376
 4865POPC   GL163901  43.096   1.788   5.729
 4865POPC   GL263902  42.783   1.920   5.727
 4865POPC   C1A63903  43.199   2.004   6.132
 4865POPC   D2A63904  43.391   2.117   6.587
 4865POPC   C3A63905  43.246   1.964   7.023
 4865POPC   C4A63906  42.960   1.614   7.194
 4865POPC   C1B63907  42.696   2.120   6.109
 4865POPC   C2B63908  42.941   2.345   6.409
 4865POPC   C3B63909  42.892   2.372   6.862
 4865POPC   C4B63910  42.930   2.348   7.316
 4866POPC   NC363911  44.077  30.866   5.507
 4866POPC   PO463912  43.441  31.111   5.548
 4866POPC   GL163913  43.643  30.794   5.831
 4866POPC   GL263914  43.988  30.869   5.998
 4866POPC   C1A63915  43.632  30.609   6.212
 4866POPC   D2A63916  43.844  30.745   6.539
 4866POPC   C3A63917  43.693  30.682   6.919
 4866POPC   C4A63918  43.857  30.431   7.218
 4866POPC   C1B63919  44.107  31.143   6.353
 4866POPC   C2B63920  44.110  31.091   6.834
 4866POPC   C3B63921  44.406  30.905   7.142
 4866POPC   C4B63922  44.374  30.771   7.601
 4867POPC   NC363923   8.872   4.504   5.486
 4867POPC   PO463924   8.446   4.094   5.196
 4867POPC   GL163925   8.701   4.038   5.646
 4867POPC   GL263926   9.075   4.118   5.759
 4867POPC   C1A63927   8.710   4.220   6.098
 4867POPC   D2A63928   8.939   4.134   6.498
 4867POPC   C3A63929   8.826   4.277   6.903
 4867POPC   C4A63930   8.675   4.379   7.297
 4867POPC   C1B63931   9.190   4.422   6.156
 4867POPC   C2B63932   9.132   4.612   6.629
 4867POPC   C3B63933   9.121   4.625   7.144
 4867POPC   C4B63934   9.020   4.514   7.632
 4868POPC   NC363935  38.163  29.411   5.317
 4868POPC   PO463936  38.759  29.217   5.164
 4868POPC   GL163937  38.699  29.253   5.687
 4868POPC   GL263938  38.457  29.012   5.846
 4868POPC   C1A63939  38.760  29.193   6.193
 4868POPC   D2A63940  38.528  28.954   6.522
 4868POPC   C3A63941  38.672  29.027   6.948
 4868POPC   C4A63942  38.508  29.124   7.357
 4868POPC   C1B63943  38.302  29.381   6.119
 4868POPC   C2B63944  38.095  29.448   6.509
 4868POPC   C3B63945  38.200  29.230   6.878
 4868POPC   C4B63946  38.014  29.037   7.227
 4869POPC   NC363947  13.776  39.327   5.495
 4869POPC   PO463948  13.165  39.125   5.479
 4869POPC   GL163949  13.424  38.948   5.815
 4869POPC   GL263950  13.805  38.885   5.758
 4869POPC   C1A63951  13.563  39.190   6.165
 4869POPC   D2A63952  13.471  39.535   6.473
 4869POPC   C3A63953  13.575  39.409   6.910
 4869POPC   C4A63954  13.814  39.531   7.274
 4869POPC   C1B63955  14.070  39.018   6.120
 4869POPC   C2B63956  13.895  39.096   6.543
 4869POPC   C3B63957  13.765  38.905   6.919
 4869POPC   C4B63958  13.944  39.021   7.333
 4870POPC   NC363959  25.656  41.369   5.472
 4870POPC   PO463960  26.316  41.555   5.334
 4870POPC   GL163961  26.071  41.612   5.719
 4870POPC   GL263962  26.097  41.253   5.732
 4870POPC   C1A63963  26.089  41.795   6.165
 4870POPC   D2A63964  26.273  41.901   6.571
 4870POPC   C3A63965  26.029  41.787   6.929
 4870POPC   C4A63966  26.170  41.661   7.355
 4870POPC   C1B63967  25.874  41.283   6.115
 4870POPC   C2B63968  25.770  41.458   6.508
 4870POPC   C3B63969  25.736  41.269   6.890
 4870POPC   C4B63970  25.938  41.228   7.278
 4871POPC   NC363971  16.521  25.458   5.428
 4871POPC   PO463972  16.824  26.071   5.350
 4871POPC   GL163973  16.816  26.050   5.775
 4871POPC   GL263974  16.918  25.722   5.821
 4871POPC   C1A63975  16.940  26.107   6.224
 4871POPC   D2A63976  16.977  26.274   6.634
 4871POPC   C3A63977  16.943  26.023   7.010
 4871POPC   C4A63978  16.836  26.337   7.290
 4871POPC   C1B63979  16.564  25.772   6.151
 4871POPC   C2B63980  16.645  25.860   6.609
 4871POPC   C3B63981  16.445  26.091   6.966
 4871POPC   C4B63982  16.460  26.004   7.403
 4872POPC   NC363983  42.989  10.958   5.318
 4872POPC   PO463984  43.063  10.347   5.389
 4872POPC   GL163985  43.063  10.589   5.787
 4872POPC   GL263986  43.006  10.950   5.823
 4872POPC   C1A63987  43.288  10.671   6.182
 4872POPC   D2A63988  43.229  10.472   6.562
 4872POPC   C3A63989  43.454  10.456   6.935
 4872POPC   C4A63990  43.164  10.265   7.233
 4872POPC   C1B63991  42.719  10.796   6.142
 4872POPC   C2B63992  42.668  10.502   6.461
 4872POPC   C3B63993  42.796  10.509   6.898
 4872POPC   C4B63994  43.076  10.751   7.157
 4873POPC   NC363995  41.389  41.586   4.997
 4873POPC   PO463996  41.745  41.603   5.550
 4873POPC   GL163997  41.439  41.606   5.868
 4873POPC   GL263998  41.438  41.293   5.939
 4873POPC   C1A63999  41.451  41.633   6.337
 4873POPC   D2A64000  41.228  41.520   6.712
 4873POPC   C3A64001  41.300  41.795   7.062
 4873POPC   C4A64002  41.742  41.944   7.089
 4873POPC   C1B64003  41.829  41.304   6.178
 4873POPC   C2B64004  41.782  41.274   6.638
 4873POPC   C3B64005  41.624  41.375   7.073
 4873POPC   C4B64006  41.176  41.342   7.221
 4874POPC   NC364007  19.252  14.100   5.422
 4874POPC   PO464008  18.851  13.591   5.371
 4874POPC   GL164009  19.101  13.661   5.728
 4874POPC   GL264010  18.962  13.943   5.801
 4874POPC   C1A64011  19.361  13.578   6.123
 4874POPC   D2A64012  19.544  13.295   6.459
 4874POPC   C3A64013  19.313  13.387   6.829
 4874POPC   C4A64014  19.162  13.433   7.236
 4874POPC   C1B64015  19.073  14.039   6.203
 4874POPC   C2B64016  19.050  13.743   6.551
 4874POPC   C3B64017  18.847  13.709   6.941
 4874POPC   C4B64018  18.913  13.937   7.312
 4875POPC   NC364019  39.751  29.583   5.699
 4875POPC   PO464020  40.105  29.039   5.491
 4875POPC   GL164021  40.169  29.274   5.862
 4875POPC   GL264022  40.365  29.608   5.880
 4875POPC   C1A64023  40.037  29.044   6.236
 4875POPC   D2A64024  39.675  28.997   6.496
 4875POPC   C3A64025  39.794  28.857   6.875
 4875POPC   C4A64026  40.186  28.808   7.078
 4875POPC   C1B64027  40.265  29.493   6.312
 4875POPC   C2B64028  40.001  29.379   6.667
 4875POPC   C3B64029  39.622  29.329   6.925
 4875POPC   C4B64030  39.798  29.116   7.294
 4876POPC   NC364031  11.848   5.160   5.369
 4876POPC   PO464032  12.430   4.967   5.379
 4876POPC   GL164033  12.144   4.863   5.749
 4876POPC   GL264034  11.774   4.732   5.690
 4876POPC   C1A64035  12.290   5.010   6.187
 4876POPC   D2A64036  12.502   5.085   6.590
 4876POPC   C3A64037  12.253   5.194   6.952
 4876POPC   C4A64038  11.823   5.289   7.112
 4876POPC   C1B64039  11.796   4.830   6.157
 4876POPC   C2B64040  11.998   4.883   6.584
 4876POPC   C3B64041  11.923   4.795   7.015
 4876POPC   C4B64042  11.984   4.856   7.449
 4877POPC   NC364043  39.559  22.371   5.669
 4877POPC   PO464044  39.758  21.998   5.123
 4877POPC   GL164045  39.917  22.002   5.612
 4877POPC   GL264046  40.188  22.182   5.805
 4877POPC   C1A64047  39.864  21.980   6.127
 4877POPC   D2A64048  39.936  22.186   6.564
 4877POPC   C3A64049  39.848  22.031   6.991
 4877POPC   C4A64050  40.046  22.128   7.398
 4877POPC   C1B64051  40.088  22.479   6.161
 4877POPC   C2B64052  40.261  22.634   6.571
 4877POPC   C3B64053  40.188  22.448   6.991
 4877POPC   C4B64054  39.766  22.508   7.124
 4878POPC   NC364055  24.262  31.952   5.480
 4878POPC   PO464056  24.747  32.516   5.523
 4878POPC   GL164057  24.561  32.217   5.799
 4878POPC   GL264058  24.214  32.327   5.889
 4878POPC   C1A64059  24.536  32.105   6.223
 4878POPC   D2A64060  24.340  32.323   6.569
 4878POPC   C3A64061  24.467  32.163   6.969
 4878POPC   C4A64062  24.695  32.489   7.153
 4878POPC   C1B64063  23.998  32.101   6.242
 4878POPC   C2B64064  23.920  32.071   6.705
 4878POPC   C3B64065  23.980  32.283   7.123
 4878POPC   C4B64066  24.183  32.115   7.487
 4879POPC   NC364067   1.344  23.395   5.384
 4879POPC   PO464068   0.941  23.832   5.429
 4879POPC   GL164069   1.107  23.731   5.846
 4879POPC   GL264070   0.971  23.401   5.850
 4879POPC   C1A64071   1.377  23.864   6.258
 4879POPC   D2A64072   1.376  24.000   6.727
 4879POPC   C3A64073   1.642  23.773   7.057
 4879POPC   C4A64074   1.748  23.557   7.465
 4879POPC   C1B64075   1.053  23.480   6.318
 4879POPC   C2B64076   1.367  23.485   6.685
 4879POPC   C3B64077   1.413  23.324   7.131
 4879POPC   C4B64078   1.371  23.239   7.595
 4880POPC   NC364079  43.659  29.889   5.582
 4880POPC   PO464080  43.872  30.460   5.481
 4880POPC   GL164081  43.949  30.324   5.914
 4880POPC   GL264082  44.026  29.954   5.933
 4880POPC   C1A64083  43.772  30.146   6.326
 4880POPC   D2A64084  43.506  29.901   6.593
 4880POPC   C3A64085  43.619  29.967   7.072
 4880POPC   C4A64086  43.776  30.047   7.526
 4880POPC   C1B64087  43.938  29.663   6.306
 4880POPC   C2B64088  43.946  29.720   6.771
 4880POPC   C3B64089  44.049  29.697   7.226
 4880POPC   C4B64090  44.219  29.759   7.652
 4881POPC   NC364091  32.179   3.095   5.392
 4881POPC   PO464092  32.037   2.502   5.497
 4881POPC   GL164093  32.216   2.778   5.803
 4881POPC   GL264094  31.959   3.019   5.848
 4881POPC   C1A64095  32.343   2.968   6.192
 4881POPC   D2A64096  32.234   3.122   6.599
 4881POPC   C3A64097  32.352   2.847   6.948
 4881POPC   C4A64098  32.186   2.529   7.236
 4881POPC   C1B64099  31.911   3.304   6.201
 4881POPC   C2B64100  31.911   3.519   6.604
 4881POPC   C3B64101  31.992   3.382   7.051
 4881POPC   C4B64102  31.919   3.043   7.366
 4882POPC   NC364103  37.386  27.780   5.389
 4882POPC   PO464104  37.922  27.340   5.334
 4882POPC   GL164105  37.795  27.667   5.715
 4882POPC   GL264106  37.476  27.634   5.873
 4882POPC   C1A64107  37.856  27.828   6.197
 4882POPC   D2A64108  37.832  27.653   6.658
 4882POPC   C3A64109  37.835  27.951   7.024
 4882POPC   C4A64110  37.842  27.976   7.494
 4882POPC   C1B64111  37.635  27.379   6.214
 4882POPC   C2B64112  37.702  27.158   6.613
 4882POPC   C3B64113  37.690  27.257   7.057
 4882POPC   C4B64114  37.540  27.609   7.317
 4883POPC   NC364115  42.220  30.948   5.536
 4883POPC   PO464116  42.340  30.268   5.445
 4883POPC   GL164117  42.456  30.493   5.833
 4883POPC   GL264118  42.632  30.821   5.834
 4883POPC   C1A64119  42.338  30.648   6.245
 4883POPC   D2A64120  42.105  30.693   6.624
 4883POPC   C3A64121  42.300  30.611   7.009
 4883POPC   C4A64122  42.233  30.894   7.352
 4883POPC   C1B64123  42.726  30.984   6.262
 4883POPC   C2B64124  42.656  30.855   6.698
 4883POPC   C3B64125  42.704  30.884   7.155
 4883POPC   C4B64126  42.689  31.037   7.592
 4884POPC   NC364127  44.135  42.556   5.507
 4884POPC   PO464128  44.746  42.315   5.308
 4884POPC   GL164129  44.522  42.317   5.730
 4884POPC   GL264130  44.532  42.611   5.871
 4884POPC   C1A64131  44.417  42.174   6.168
 4884POPC   D2A64132  44.553  41.926   6.537
 4884POPC   C3A64133  44.738  42.181   6.839
 4884POPC   C4A64134  44.849  42.225   7.285
 4884POPC   C1B64135  44.837  42.475   6.199
 4884POPC   C2B64136   0.064  42.490   6.617
 4884POPC   C3B64137   0.256  42.228   6.969
 4884POPC   C4B64138   0.298  42.025   7.405
 4885POPC   NC364139  42.774  23.002   5.446
 4885POPC   PO464140  43.288  22.708   5.387
 4885POPC   GL164141  43.111  22.786   5.782
 4885POPC   GL264142  43.185  23.128   5.806
 4885POPC   C1A64143  42.882  22.769   6.203
 4885POPC   D2A64144  42.690  22.845   6.638
 4885POPC   C3A64145  42.943  22.872   7.043
 4885POPC   C4A64146  43.108  23.006   7.474
 4885POPC   C1B64147  43.057  23.248   6.238
 4885POPC   C2B64148  42.905  23.314   6.675
 4885POPC   C3B64149  42.974  23.373   7.115
 4885POPC   C4B64150  43.393  23.419   7.314
 4886POPC   NC364151  27.716  38.857   5.439
 4886POPC   PO464152  27.515  39.472   5.254
 4886POPC   GL164153  27.638  39.418   5.690
 4886POPC   GL264154  27.419  39.620   5.899
 4886POPC   C1A64155  27.786  39.170   6.036
 4886POPC   D2A64156  27.755  38.877   6.383
 4886POPC   C3A64157  27.629  39.027   6.780
 4886POPC   C4A64158  27.736  39.040   7.216
 4886POPC   C1B64159  27.715  39.638   6.247
 4886POPC   C2B64160  27.651  39.523   6.676
 4886POPC   C3B64161  27.742  39.642   7.088
 4886POPC   C4B64162  28.124  39.794   7.275
 4887POPC   NC364163  36.863  35.806   5.297
 4887POPC   PO464164  37.239  36.274   5.356
 4887POPC   GL164165  37.072  36.190   5.782
 4887POPC   GL264166  37.083  35.861   5.812
 4887POPC   C1A64167  37.013  36.268   6.212
 4887POPC   D2A64168  37.089  36.073   6.593
 4887POPC   C3A64169  36.924  36.184   7.051
 4887POPC   C4A64170  36.866  36.104   7.538
 4887POPC   C1B64171  36.746  35.811   6.110
 4887POPC   C2B64172  36.710  35.636   6.510
 4887POPC   C3B64173  36.908  35.690   6.871
 4887POPC   C4B64174  36.751  35.730   7.219
 4888POPC   NC364175  16.175  11.207   5.294
 4888POPC   PO464176  15.783  11.684   5.493
 4888POPC   GL164177  16.061  11.466   5.732
 4888POPC   GL264178  16.265  11.785   5.780
 4888POPC   C1A64179  16.011  11.158   6.122
 4888POPC   D2A64180  16.253  10.964   6.500
 4888POPC   C3A64181  16.061  11.046   6.925
 4888POPC   C4A64182  15.897  11.390   7.184
 4888POPC   C1B64183  16.077  11.668   6.176
 4888POPC   C2B64184  16.113  11.451   6.550
 4888POPC   C3B64185  16.326  11.492   6.897
 4888POPC   C4B64186  16.287  11.705   7.243
 4889POPC   NC364187   3.838   7.332   5.384
 4889POPC   PO464188   3.088   7.286   5.210
 4889POPC   GL164189   3.389   7.480   5.592
 4889POPC   GL264190   3.584   7.225   5.829
 4889POPC   C1A64191   3.585   7.679   6.008
 4889POPC   D2A64192   3.550   7.479   6.440
 4889POPC   C3A64193   3.648   7.693   6.825
 4889POPC   C4A64194   3.448   7.628   7.206
 4889POPC   C1B64195   3.577   6.973   6.188
 4889POPC   C2B64196   3.655   6.980   6.611
 4889POPC   C3B64197   3.634   7.201   6.982
 4889POPC   C4B64198   3.941   7.458   7.209
 4890POPC   NC364199  14.242   9.568   5.415
 4890POPC   PO464200  14.748   9.743   5.818
 4890POPC   GL164201  14.326   9.792   5.909
 4890POPC   GL264202  14.171   9.487   5.921
 4890POPC   C1A64203  14.090   9.848   6.299
 4890POPC   D2A64204  14.286  10.001   6.707
 4890POPC   C3A64205  14.266   9.895   7.169
 4890POPC   C4A64206  14.667   9.760   7.345
 4890POPC   C1B64207  14.053   9.344   6.288
 4890POPC   C2B64208  14.132   9.480   6.672
 4890POPC   C3B64209  14.463   9.513   6.913
 4890POPC   C4B64210  14.287   9.353   7.273
 4891POPC   NC364211  15.170   9.905   5.578
 4891POPC   PO464212  14.701   9.432   5.359
 4891POPC   GL164213  15.112   9.404   5.714
 4891POPC   GL264214  15.432   9.567   5.875
 4891POPC   C1A64215  15.127   9.365   6.223
 4891POPC   D2A64216  14.985   9.619   6.633
 4891POPC   C3A64217  14.944   9.433   7.069
 4891POPC   C4A64218  14.995   9.415   7.559
 4891POPC   C1B64219  15.331   9.834   6.279
 4891POPC   C2B64220  15.476   9.826   6.743
 4891POPC   C3B64221  15.286   9.859   7.165
 4891POPC   C4B64222  15.263  10.175   7.521
 4892POPC   NC364223   5.580   1.495   5.568
 4892POPC   PO464224   6.009   1.351   5.180
 4892POPC   GL164225   6.068   1.614   5.629
 4892POPC   GL264226   6.088   1.379   5.875
 4892POPC   C1A64227   5.826   1.760   6.073
 4892POPC   D2A64228   5.582   1.546   6.415
 4892POPC   C3A64229   5.623   1.605   6.881
 4892POPC   C4A64230   5.494   1.293   7.231
 4892POPC   C1B64231   5.909   1.193   6.274
 4892POPC   C2B64232   5.823   1.160   6.748
 4892POPC   C3B64233   5.963   1.105   7.196
 4892POPC   C4B64234   6.222   0.949   7.561
 4893POPC   NC364235  27.377  12.254   5.495
 4893POPC   PO464236  27.899  12.090   5.719
 4893POPC   GL164237  27.509  12.066   5.969
 4893POPC   GL264238  27.275  12.346   5.991
 4893POPC   C1A64239  27.537  11.860   6.348
 4893POPC   D2A64240  27.444  11.857   6.761
 4893POPC   C3A64241  27.596  12.014   7.143
 4893POPC   C4A64242  27.937  12.302   7.283
 4893POPC   C1B64243  27.164  12.226   6.425
 4893POPC   C2B64244  27.461  12.379   6.748
 4893POPC   C3B64245  27.485  12.523   7.170
 4893POPC   C4B64246  27.620  12.612   7.579
 4894POPC   NC364247   3.055  35.526   5.287
 4894POPC   PO464248   3.669  35.144   5.228
 4894POPC   GL164249   3.591  35.387   5.639
 4894POPC   GL264250   3.284  35.592   5.723
 4894POPC   C1A64251   3.535  35.315   6.102
 4894POPC   D2A64252   3.657  35.449   6.522
 4894POPC   C3A64253   3.769  35.274   6.913
 4894POPC   C4A64254   3.639  35.374   7.306
 4894POPC   C1B64255   3.033  35.469   6.054
 4894POPC   C2B64256   3.025  35.484   6.512
 4894POPC   C3B64257   3.294  35.528   6.891
 4894POPC   C4B64258   3.292  35.766   7.251
 4895POPC   NC364259  41.113  13.967   5.475
 4895POPC   PO464260  41.742  14.125   5.440
 4895POPC   GL164261  41.540  14.361   5.760
 4895POPC   GL264262  41.345  14.110   5.929
 4895POPC   C1A64263  41.602  14.708   6.068
 4895POPC   D2A64264  41.730  14.647   6.494
 4895POPC   C3A64265  41.520  14.773   6.885
 4895POPC   C4A64266  41.424  14.421   7.148
 4895POPC   C1B64267  41.690  14.177   6.258
 4895POPC   C2B64268  41.728  14.183   6.739
 4895POPC   C3B64269  41.873  14.166   7.175
 4895POPC   C4B64270  41.995  14.172   7.609
 4896POPC   NC364271  40.386  30.241   5.447
 4896POPC   PO464272  40.751  29.724   5.374
 4896POPC   GL164273  40.853  29.808   5.819
 4896POPC   GL264274  40.768  30.156   5.830
 4896POPC   C1A64275  40.639  29.859   6.250
 4896POPC   D2A64276  40.661  29.572   6.622
 4896POPC   C3A64277  40.642  29.665   7.071
 4896POPC   C4A64278  41.024  29.793   7.297
 4896POPC   C1B64279  40.887  30.343   6.245
 4896POPC   C2B64280  40.902  30.275   6.706
 4896POPC   C3B64281  40.745  30.164   7.113
 4896POPC   C4B64282  40.603  30.065   7.563
 4897POPC   NC364283  13.755  20.953   5.413
 4897POPC   PO464284  13.486  20.355   5.312
 4897POPC   GL164285  13.655  20.347   5.722
 4897POPC   GL264286  13.488  20.641   5.747
 4897POPC   C1A64287  13.807  20.380   6.163
 4897POPC   D2A64288  13.937  20.268   6.596
 4897POPC   C3A64289  13.730  20.537   6.890
 4897POPC   C4A64290  13.857  20.727   7.247
 4897POPC   C1B64291  13.334  20.579   6.137
 4897POPC   C2B64292  13.392  20.746   6.545
 4897POPC   C3B64293  13.220  20.666   6.919
 4897POPC   C4B64294  13.362  20.765   7.320
 4898POPC   NC364295  29.181  20.105   5.348
 4898POPC   PO464296  28.935  19.502   5.211
 4898POPC   GL164297  29.005  19.715   5.660
 4898POPC   GL264298  29.288  19.881   5.850
 4898POPC   C1A64299  28.913  19.703   6.146
 4898POPC   D2A64300  29.075  19.757   6.606
 4898POPC   C3A64301  28.784  19.713   6.947
 4898POPC   C4A64302  28.662  19.858   7.339
 4898POPC   C1B64303  29.457  19.721   6.265
 4898POPC   C2B64304  29.652  19.420   6.551
 4898POPC   C3B64305  29.472  19.277   6.926
 4898POPC   C4B64306  29.238  19.579   7.162
 4899POPC   NC364307  28.905   1.164   5.452
 4899POPC   PO464308  29.536   1.487   5.315
 4899POPC   GL164309  29.337   1.347   5.707
 4899POPC   GL264310  29.185   1.025   5.858
 4899POPC   C1A64311  29.393   1.426   6.156
 4899POPC   D2A64312  29.439   1.192   6.546
 4899POPC   C3A64313  29.371   1.400   6.939
 4899POPC   C4A64314  29.149   1.357   7.350
 4899POPC   C1B64315  28.962   1.130   6.289
 4899POPC   C2B64316  28.985   1.076   6.795
 4899POPC   C3B64317  29.051   0.860   7.217
 4899POPC   C4B64318  28.819   0.724   7.632
 4900POPC   NC364319  16.944  37.030   5.522
 4900POPC   PO464320  16.527  36.606   5.291
 4900POPC   GL164321  16.437  36.926   5.645
 4900POPC   GL264322  16.591  37.256   5.785
 4900POPC   C1A64323  16.385  36.906   6.091
 4900POPC   D2A64324  16.547  36.711   6.464
 4900POPC   C3A64325  16.527  36.863   6.877
 4900POPC   C4A64326  16.798  36.743   7.205
 4900POPC   C1B64327  16.862  37.118   6.171
 4900POPC   C2B64328  16.791  37.221   6.621
 4900POPC   C3B64329  16.955  37.220   7.072
 4900POPC   C4B64330  17.168  36.987   7.453
 4901POPC   NC364331   9.675   7.608   5.187
 4901POPC   PO464332   9.796   7.006   5.482
 4901POPC   GL164333   9.754   7.202   5.829
 4901POPC   GL264334   9.787   7.524   5.713
 4901POPC   C1A64335   9.692   7.212   6.244
 4901POPC   D2A64336   9.517   7.425   6.601
 4901POPC   C3A64337   9.778   7.257   6.945
 4901POPC   C4A64338   9.973   7.525   7.217
 4901POPC   C1B64339   9.544   7.721   6.064
 4901POPC   C2B64340   9.282   7.907   6.420
 4901POPC   C3B64341   9.229   7.828   6.872
 4901POPC   C4B64342   9.496   7.792   7.248
 4902POPC   NC364343  23.518  29.713   5.342
 4902POPC   PO464344  24.217  29.697   5.346
 4902POPC   GL164345  23.895  29.807   5.725
 4902POPC   GL264346  23.511  29.891   5.814
 4902POPC   C1A64347  23.842  30.032   6.151
 4902POPC   D2A64348  23.549  30.044   6.539
 4902POPC   C3A64349  23.656  29.819   6.940
 4902POPC   C4A64350  23.797  29.932   7.362
 4902POPC   C1B64351  23.336  29.709   6.201
 4902POPC   C2B64352  23.189  29.670   6.655
 4902POPC   C3B64353  23.199  29.657   7.138
 4902POPC   C4B64354  23.301  29.568   7.594
 4903POPC   NC364355  36.115  28.822   5.077
 4903POPC   PO464356  35.942  28.393   5.526
 4903POPC   GL164357  36.206  28.296   5.884
 4903POPC   GL264358  36.412  27.977   5.875
 4903POPC   C1A64359  36.326  28.539   6.244
 4903POPC   D2A64360  36.137  28.800   6.550
 4903POPC   C3A64361  36.294  28.770   6.951
 4903POPC   C4A64362  36.263  28.732   7.395
 4903POPC   C1B64363  36.262  28.040   6.321
 4903POPC   C2B64364  36.155  28.292   6.700
 4903POPC   C3B64365  36.212  28.284   7.149
 4903POPC   C4B64366  36.407  28.065   7.460
 4904POPC   NC364367  28.364  32.541   5.296
 4904POPC   PO464368  28.123  31.975   5.442
 4904POPC   GL164369  28.276  32.198   5.756
 4904POPC   GL264370  28.267  32.527   5.812
 4904POPC   C1A64371  28.341  32.136   6.168
 4904POPC   D2A64372  28.256  32.313   6.536
 4904POPC   C3A64373  28.335  32.017   6.888
 4904POPC   C4A64374  28.203  32.062   7.288
 4904POPC   C1B64375  28.583  32.595   6.108
 4904POPC   C2B64376  28.718  32.524   6.505
 4904POPC   C3B64377  28.599  32.443   6.907
 4904POPC   C4B64378  28.644  32.381   7.305
 4905POPC   NC364379  18.462  26.852   5.447
 4905POPC   PO464380  17.944  27.183   5.304
 4905POPC   GL164381  18.068  27.043   5.736
 4905POPC   GL264382  18.167  26.677   5.827
 4905POPC   C1A64383  18.247  27.055   6.168
 4905POPC   D2A64384  18.459  26.948   6.554
 4905POPC   C3A64385  18.216  26.972   6.936
 4905POPC   C4A64386  18.101  26.605   7.178
 4905POPC   C1B64387  18.471  26.562   6.158
 4905POPC   C2B64388  18.612  26.452   6.566
 4905POPC   C3B64389  18.640  26.662   6.957
 4905POPC   C4B64390  18.565  26.469   7.325
 4906POPC   NC364391  18.101  35.875   5.487
 4906POPC   PO464392  18.731  36.044   5.588
 4906POPC   GL164393  18.442  36.340   5.802
 4906POPC   GL264394  18.084  36.293   5.784
 4906POPC   C1A64395  18.421  36.362   6.225
 4906POPC   D2A64396  18.513  35.995   6.488
 4906POPC   C3A64397  18.301  36.035   6.858
 4906POPC   C4A64398  18.367  36.029   7.278
 4906POPC   C1B64399  18.003  36.056   6.175
 4906POPC   C2B64400  17.808  36.008   6.566
 4906POPC   C3B64401  17.855  35.826   6.938
 4906POPC   C4B64402  17.890  35.810   7.373
 4907POPC   NC364403  11.741  19.434   5.511
 4907POPC   PO464404  11.094  19.120   5.425
 4907POPC   GL164405  11.214  19.141   5.877
 4907POPC   GL264406  11.502  19.320   5.936
 4907POPC   C1A64407  11.384  18.956   6.309
 4907POPC   D2A64408  11.295  18.964   6.760
 4907POPC   C3A64409  11.532  18.814   7.127
 4907POPC   C4A64410  11.479  18.785   7.666
 4907POPC   C1B64411  11.298  19.475   6.300
 4907POPC   C2B64412  11.067  19.431   6.693
 4907POPC   C3B64413  11.146  19.283   7.128
 4907POPC   C4B64414  11.224  19.257   7.577
 4908POPC   NC364415  40.723  36.936   5.204
 4908POPC   PO464416  41.242  37.374   5.399
 4908POPC   GL164417  41.031  37.143   5.767
 4908POPC   GL264418  40.731  36.910   5.761
 4908POPC   C1A64419  40.995  36.977   6.208
 4908POPC   D2A64420  40.756  37.137   6.590
 4908POPC   C3A64421  40.952  37.035   6.997
 4908POPC   C4A64422  40.811  37.053   7.440
 4908POPC   C1B64423  40.494  36.902   6.196
 4908POPC   C2B64424  40.500  36.667   6.628
 4908POPC   C3B64425  40.542  36.742   7.103
 4908POPC   C4B64426  40.610  36.618   7.570
 4909POPC   NC364427  29.968   5.750   5.385
 4909POPC   PO464428  29.744   6.396   5.595
 4909POPC   GL164429  29.910   6.051   5.816
 4909POPC   GL264430  30.168   6.282   5.917
 4909POPC   C1A64431  29.809   5.754   6.203
 4909POPC   D2A64432  29.588   5.723   6.626
 4909POPC   C3A64433  29.817   5.500   6.929
 4909POPC   C4A64434  30.187   5.551   7.173
 4909POPC   C1B64435  29.914   6.254   6.279
 4909POPC   C2B64436  29.946   6.082   6.675
 4909POPC   C3B64437  29.875   5.987   7.094
 4909POPC   C4B64438  29.956   6.142   7.526
 4910POPC   NC364439   8.243   6.935   5.392
 4910POPC   PO464440   8.058   6.393   5.624
 4910POPC   GL164441   8.006   6.740   5.898
 4910POPC   GL264442   8.348   6.830   5.875
 4910POPC   C1A64443   8.062   6.692   6.374
 4910POPC   D2A64444   8.102   6.403   6.735
 4910POPC   C3A64445   8.061   6.553   7.176
 4910POPC   C4A64446   7.831   6.665   7.554
 4910POPC   C1B64447   8.563   6.717   6.214
 4910POPC   C2B64448   8.571   6.438   6.539
 4910POPC   C3B64449   8.538   6.566   6.948
 4910POPC   C4B64450   8.609   6.713   7.323
 4911POPC   NC364451  11.182  36.247   5.423
 4911POPC   PO464452  10.911  35.633   5.467
 4911POPC   GL164453  11.084  35.869   5.818
 4911POPC   GL264454  11.398  36.054   5.857
 4911POPC   C1A64455  10.993  36.120   6.169
 4911POPC   D2A64456  11.022  35.953   6.574
 4911POPC   C3A64457  10.945  36.064   6.991
 4911POPC   C4A64458  11.246  36.306   7.246
 4911POPC   C1B64459  11.469  36.049   6.322
 4911POPC   C2B64460  11.424  36.211   6.760
 4911POPC   C3B64461  11.709  36.135   7.099
 4911POPC   C4B64462  11.858  35.734   7.262
 4912POPC   NC364463  34.703  26.143   5.411
 4912POPC   PO464464  35.417  25.987   5.337
 4912POPC   GL164465  35.561  25.980   5.756
 4912POPC   GL264466  35.673  25.647   5.672
 4912POPC   C1A64467  35.680  26.253   6.153
 4912POPC   D2A64468  35.784  26.478   6.578
 4912POPC   C3A64469  35.449  26.482   6.890
 4912POPC   C4A64470  35.284  26.185   7.207
 4912POPC   C1B64471  35.322  25.608   5.986
 4912POPC   C2B64472  35.340  25.587   6.457
 4912POPC   C3B64473  35.394  25.704   6.912
 4912POPC   C4B64474  35.180  25.705   7.327
 4913POPC   NC364475  15.121  43.142   5.232
 4913POPC   PO464476  14.977  43.648   5.614
 4913POPC   GL164477  15.264  43.300   5.784
 4913POPC   GL264478  15.215  42.940   5.697
 4913POPC   C1A64479  15.558  43.167   6.102
 4913POPC   D2A64480  15.460  42.996   6.491
 4913POPC   C3A64481  15.555  43.125   6.895
 4913POPC   C4A64482  15.238  43.291   7.177
 4913POPC   C1B64483  15.053  42.986   6.144
 4913POPC   C2B64484  14.871  43.172   6.539
 4913POPC   C3B64485  14.851  43.032   6.960
 4913POPC   C4B64486  14.916  42.690   7.253
 4914POPC   NC364487  39.028   0.712   5.454
 4914POPC   PO464488  39.271   0.091   5.495
 4914POPC   GL164489  39.176   0.158   5.885
 4914POPC   GL264490  39.291   0.505   5.876
 4914POPC   C1A64491  39.478   0.194   6.239
 4914POPC   D2A64492  39.749   0.277   6.581
 4914POPC   C3A64493  39.658   0.129   6.980
 4914POPC   C4A64494  39.221   0.078   7.029
 4914POPC   C1B64495  39.053   0.462   6.278
 4914POPC   C2B64496  38.888   0.561   6.657
 4914POPC   C3B64497  38.936   0.485   7.070
 4914POPC   C4B64498  39.164   0.417   7.458
 4915POPC   NC364499  19.397   4.734   5.266
 4915POPC   PO464500  18.841   5.171   5.400
 4915POPC   GL164501  19.131   5.146   5.730
 4915POPC   GL264502  19.115   4.788   5.716
 4915POPC   C1A64503  19.275   5.039   6.160
 4915POPC   D2A64504  19.281   4.815   6.548
 4915POPC   C3A64505  19.233   5.040   6.931
 4915POPC   C4A64506  19.297   5.352   7.243
 4915POPC   C1B64507  18.791   4.907   6.047
 4915POPC   C2B64508  18.814   5.068   6.477
 4915POPC   C3B64509  18.732   4.886   6.876
 4915POPC   C4B64510  18.820   5.077   7.255
 4916POPC   NC364511  44.083   5.014   5.401
 4916POPC   PO464512  43.782   5.534   5.476
 4916POPC   GL164513  43.923   5.313   5.834
 4916POPC   GL264514  44.297   5.357   5.753
 4916POPC   C1A64515  43.757   5.232   6.292
 4916POPC   D2A64516  43.656   5.257   6.770
 4916POPC   C3A64517  43.608   4.968   7.134
 4916POPC   C4A64518  43.795   5.089   7.562
 4916POPC   C1B64519  44.268   5.253   6.209
 4916POPC   C2B64520  44.159   5.138   6.646
 4916POPC   C3B64521  44.075   5.231   7.078
 4916POPC   C4B64522  44.075   5.497   7.410
 4917POPC   NC364523  35.717  32.258   5.155
 4917POPC   PO464524  36.217  31.947   5.447
 4917POPC   GL164525  36.127  32.258   5.718
 4917POPC   GL264526  36.374  32.493   5.617
 4917POPC   C1A64527  35.970  32.173   6.138
 4917POPC   D2A64528  36.082  31.882   6.471
 4917POPC   C3A64529  36.011  32.031   6.893
 4917POPC   C4A64530  36.046  31.959   7.338
 4917POPC   C1B64531  36.325  32.568   6.093
 4917POPC   C2B64532  36.294  32.367   6.513
 4917POPC   C3B64533  36.422  32.331   6.958
 4917POPC   C4B64534  36.239  32.422   7.361
 4918POPC   NC364535  37.008   2.389   5.533
 4918POPC   PO464536  36.443   2.822   5.480
 4918POPC   GL164537  36.625   2.585   5.828
 4918POPC   GL264538  36.980   2.740   5.894
 4918POPC   C1A64539  36.618   2.625   6.281
 4918POPC   D2A64540  36.507   2.863   6.671
 4918POPC   C3A64541  36.645   2.641   7.041
 4918POPC   C4A64542  36.544   2.619   7.466
 4918POPC   C1B64543  37.157   2.746   6.315
 4918POPC   C2B64544  37.011   2.834   6.723
 4918POPC   C3B64545  36.921   3.090   7.073
 4918POPC   C4B64546  36.973   2.912   7.450
 4919POPC   NC364547  39.935  11.773   5.675
 4919POPC   PO464548  39.826  12.225   5.099
 4919POPC   GL164549  39.815  12.290   5.627
 4919POPC   GL264550  40.152  12.275   5.842
 4919POPC   C1A64551  39.742  12.301   6.168
 4919POPC   D2A64552  39.958  12.159   6.588
 4919POPC   C3A64553  39.804  12.305   7.037
 4919POPC   C4A64554  39.705  11.995   7.348
 4919POPC   C1B64555  40.360  12.052   6.233
 4919POPC   C2B64556  40.437  11.990   6.700
 4919POPC   C3B64557  40.243  12.043   7.118
 4919POPC   C4B64558  40.281  11.987   7.565
 4920POPC   NC364559  30.927  15.682   5.427
 4920POPC   PO464560  30.631  16.252   5.169
 4920POPC   GL164561  30.684  16.117   5.661
 4920POPC   GL264562  31.008  15.987   5.847
 4920POPC   C1A64563  30.612  16.092   6.163
 4920POPC   D2A64564  30.719  16.198   6.636
 4920POPC   C3A64565  30.605  16.014   7.086
 4920POPC   C4A64566  30.393  15.973   7.524
 4920POPC   C1B64567  31.030  15.810   6.307
 4920POPC   C2B64568  30.884  15.727   6.746
 4920POPC   C3B64569  31.095  15.844   7.142
 4920POPC   C4B64570  31.228  15.712   7.573
 4921POPC   NC364571  18.940  10.215   5.460
 4921POPC   PO464572  18.781   9.620   5.149
 4921POPC   GL164573  18.872   9.726   5.606
 4921POPC   GL264574  19.214   9.705   5.663
 4921POPC   C1A64575  18.844   9.904   6.054
 4921POPC   D2A64576  18.968   9.839   6.517
 4921POPC   C3A64577  18.896  10.138   6.876
 4921POPC   C4A64578  18.819  10.040   7.308
 4921POPC   C1B64579  19.335   9.721   6.112
 4921POPC   C2B64580  19.371   9.513   6.516
 4921POPC   C3B64581  19.157   9.444   6.902
 4921POPC   C4B64582  19.245   9.785   7.142
 4922POPC   NC364583  11.417  16.505   4.937
 4922POPC   PO464584  11.753  16.743   5.290
 4922POPC   GL164585  11.698  16.703   5.777
 4922POPC   GL264586  12.003  16.792   5.959
 4922POPC   C1A64587  11.611  16.590   6.266
 4922POPC   D2A64588  11.693  16.706   6.729
 4922POPC   C3A64589  11.524  16.611   7.166
 4922POPC   C4A64590  11.548  16.512   7.619
 4922POPC   C1B64591  11.686  17.082   6.165
 4922POPC   C2B64592  11.402  17.083   6.538
 4922POPC   C3B64593  11.304  17.056   6.994
 4922POPC   C4B64594  11.040  17.252   7.330
 4923POPC   NC364595   2.914  18.236   5.272
 4923POPC   PO464596   2.961  18.924   5.444
 4923POPC   GL164597   3.007  18.501   5.785
 4923POPC   GL264598   3.028  18.117   5.752
 4923POPC   C1A64599   2.862  18.217   6.223
 4923POPC   D2A64600   2.718  17.996   6.666
 4923POPC   C3A64601   2.717  18.254   7.077
 4923POPC   C4A64602   2.409  18.400   7.426
 4923POPC   C1B64603   3.228  17.877   6.091
 4923POPC   C2B64604   3.188  17.858   6.527
 4923POPC   C3B64605   3.178  18.029   6.935
 4923POPC   C4B64606   3.116  18.126   7.384
 4924POPC   NC364607  31.075   7.204   5.501
 4924POPC   PO464608  30.621   6.645   5.483
 4924POPC   GL164609  30.493   6.680   5.862
 4924POPC   GL264610  30.506   7.032   5.831
 4924POPC   C1A64611  30.594   6.592   6.270
 4924POPC   D2A64612  30.784   6.477   6.651
 4924POPC   C3A64613  30.629   6.526   7.071
 4924POPC   C4A64614  30.750   6.600   7.512
 4924POPC   C1B64615  30.560   7.093   6.256
 4924POPC   C2B64616  30.514   6.949   6.673
 4924POPC   C3B64617  30.327   6.948   7.058
 4924POPC   C4B64618  30.434   7.009   7.524
 4925POPC   NC364619   1.577  12.963   5.403
 4925POPC   PO464620   0.921  12.927   5.306
 4925POPC   GL164621   1.158  12.883   5.727
 4925POPC   GL264622   1.422  12.618   5.790
 4925POPC   C1A64623   1.346  13.066   6.115
 4925POPC   D2A64624   1.578  13.092   6.500
 4925POPC   C3A64625   1.340  13.027   6.866
 4925POPC   C4A64626   1.315  13.093   7.303
 4925POPC   C1B64627   1.504  12.599   6.257
 4925POPC   C2B64628   1.549  12.371   6.655
 4925POPC   C3B64629   1.504  12.539   7.082
 4925POPC   C4B64630   1.065  12.658   7.134
 4926POPC   NC364631  20.747  22.511   5.245
 4926POPC   PO464632  20.144  22.854   5.241
 4926POPC   GL164633  20.402  22.894   5.649
 4926POPC   GL264634  20.706  22.674   5.744
 4926POPC   C1A64635  20.346  23.011   6.101
 4926POPC   D2A64636  20.219  22.785   6.472
 4926POPC   C3A64637  20.335  22.926   6.874
 4926POPC   C4A64638  20.521  22.919   7.273
 4926POPC   C1B64639  20.605  22.503   6.182
 4926POPC   C2B64640  20.639  22.460   6.636
 4926POPC   C3B64641  20.629  22.428   7.083
 4926POPC   C4B64642  20.934  22.418   7.383
 4927POPC   NC364643  25.010   3.210   5.244
 4927POPC   PO464644  25.231   3.685   5.375
 4927POPC   GL164645  25.315   3.774   5.844
 4927POPC   GL264646  25.625   3.957   5.874
 4927POPC   C1A64647  25.236   3.646   6.301
 4927POPC   D2A64648  25.390   3.791   6.716
 4927POPC   C3A64649  25.174   3.741   7.120
 4927POPC   C4A64650  25.120   3.402   7.456
 4927POPC   C1B64651  25.786   4.068   6.274
 4927POPC   C2B64652  25.746   4.150   6.723
 4927POPC   C3B64653  25.704   3.886   7.117
 4927POPC   C4B64654  25.493   3.750   7.529
 4928POPC   NC364655   0.743  35.391   5.431
 4928POPC   PO464656   0.082  35.326   5.511
 4928POPC   GL164657   0.270  35.085   5.834
 4928POPC   GL264658   0.634  35.144   5.855
 4928POPC   C1A64659   0.325  35.130   6.282
 4928POPC   D2A64660   0.346  35.450   6.572
 4928POPC   C3A64661   0.407  35.314   6.976
 4928POPC   C4A64662   0.165  35.199   7.329
 4928POPC   C1B64663   0.807  35.313   6.225
 4928POPC   C2B64664   0.775  35.147   6.614
 4928POPC   C3B64665   0.851  35.010   7.007
 4928POPC   C4B64666   0.675  35.104   7.375
 4929POPC   NC364667  33.548  20.711   5.625
 4929POPC   PO464668  32.895  20.522   5.318
 4929POPC   GL164669  33.067  20.548   5.740
 4929POPC   GL264670  33.115  20.898   5.858
 4929POPC   C1A64671  33.069  20.496   6.203
 4929POPC   D2A64672  33.207  20.457   6.641
 4929POPC   C3A64673  32.890  20.533   6.984
 4929POPC   C4A64674  32.795  20.966   7.141
 4929POPC   C1B64675  33.402  20.927   6.239
 4929POPC   C2B64676  33.506  20.879   6.664
 4929POPC   C3B64677  33.295  20.829   7.032
 4929POPC   C4B64678  33.221  20.952   7.457
 4930POPC   NC364679   9.141  38.131   5.351
 4930POPC   PO464680   8.751  38.689   5.369
 4930POPC   GL164681   8.841  38.375   5.697
 4930POPC   GL264682   8.630  38.059   5.679
 4930POPC   C1A64683   9.017  38.288   6.132
 4930POPC   D2A64684   9.114  38.498   6.567
 4930POPC   C3A64685   8.955  38.434   7.016
 4930POPC   C4A64686   9.164  38.335   7.428
 4930POPC   C1B64687   8.493  38.352   6.053
 4930POPC   C2B64688   8.638  38.291   6.474
 4930POPC   C3B64689   8.496  38.245   6.857
 4930POPC   C4B64690   8.476  38.293   7.286
 4931POPC   NC364691   0.035   9.578   5.291
 4931POPC   PO464692  44.428   9.825   5.339
 4931POPC   GL164693  44.754   9.764   5.695
 4931POPC   GL264694  44.888  10.089   5.876
 4931POPC   C1A64695  44.939   9.601   6.077
 4931POPC   D2A64696  44.731   9.520   6.495
 4931POPC   C3A64697  44.825   9.681   6.917
 4931POPC   C4A64698  44.627   9.485   7.273
 4931POPC   C1B64699  44.612   9.963   6.189
 4931POPC   C2B64700  44.545  10.036   6.584
 4931POPC   C3B64701  44.325   9.931   6.923
 4931POPC   C4B64702  44.576   9.994   7.253
 4932POPC   NC364703  16.476   0.614   5.055
 4932POPC   PO464704  17.014   0.322   5.426
 4932POPC   GL164705  16.968   0.459   5.850
 4932POPC   GL264706  16.747   0.715   5.806
 4932POPC   C1A64707  16.705   0.462   6.263
 4932POPC   D2A64708  16.327   0.524   6.553
 4932POPC   C3A64709  16.432   0.353   6.954
 4932POPC   C4A64710  16.795   0.249   7.170
 4932POPC   C1B64711  16.974   0.899   6.159
 4932POPC   C2B64712  17.063   0.731   6.542
 4932POPC   C3B64713  16.853   0.675   6.901
 4932POPC   C4B64714  16.994   0.694   7.311
 4933POPC   NC364715   7.105   1.015   5.319
 4933POPC   PO464716   7.651   1.283   5.604
 4933POPC   GL164717   7.302   1.154   5.782
 4933POPC   GL264718   7.369   0.817   5.721
 4933POPC   C1A64719   7.260   1.087   6.224
 4933POPC   D2A64720   7.235   1.089   6.682
 4933POPC   C3A64721   7.561   1.328   6.854
 4933POPC   C4A64722   7.552   1.620   7.185
 4933POPC   C1B64723   7.671   0.799   6.066
 4933POPC   C2B64724   7.746   0.963   6.479
 4933POPC   C3B64725   7.639   0.795   6.896
 4933POPC   C4B64726   7.403   0.998   7.230
 4934POPC   NC364727  19.188   5.715   5.392
 4934POPC   PO464728  18.549   5.929   5.349
 4934POPC   GL164729  18.790   5.933   5.685
 4934POPC   GL264730  18.841   5.598   5.737
 4934POPC   C1A64731  18.824   5.977   6.129
 4934POPC   D2A64732  19.140   5.945   6.452
 4934POPC   C3A64733  19.130   6.192   6.815
 4934POPC   C4A64734  19.073   6.077   7.250
 4934POPC   C1B64735  19.133   5.538   6.094
 4934POPC   C2B64736  19.200   5.430   6.541
 4934POPC   C3B64737  19.088   5.672   6.913
 4934POPC   C4B64738  18.855   5.620   7.331
 4935POPC   NC364739  30.290  33.085   5.270
 4935POPC   PO464740  30.904  32.823   5.067
 4935POPC   GL164741  30.786  32.709   5.589
 4935POPC   GL264742  30.461  32.824   5.799
 4935POPC   C1A64743  30.865  32.753   6.099
 4935POPC   D2A64744  30.602  32.890   6.490
 4935POPC   C3A64745  30.729  33.083   6.876
 4935POPC   C4A64746  30.660  32.925   7.257
 4935POPC   C1B64747  30.275  33.106   6.168
 4935POPC   C2B64748  30.293  33.288   6.636
 4935POPC   C3B64749  30.366  33.440   7.089
 4935POPC   C4B64750  30.492  33.315   7.534
 4936POPC   NC364751  25.096  27.759   5.549
 4936POPC   PO464752  25.726  27.686   5.270
 4936POPC   GL164753  25.419  27.409   5.704
 4936POPC   GL264754  25.076  27.309   5.821
 4936POPC   C1A64755  25.404  27.277   6.182
 4936POPC   D2A64756  25.116  27.299   6.565
 4936POPC   C3A64757  25.352  27.456   6.931
 4936POPC   C4A64758  25.609  27.795   7.130
 4936POPC   C1B64759  25.049  27.666   6.160
 4936POPC   C2B64760  24.842  27.962   6.428
 4936POPC   C3B64761  24.916  27.766   6.798
 4936POPC   C4B64762  25.107  27.839   7.179
 4937POPC   NC364763  34.879  38.394   5.147
 4937POPC   PO464764  34.806  38.761   5.444
 4937POPC   GL164765  34.657  38.715   5.904
 4937POPC   GL264766  34.310  38.607   5.842
 4937POPC   C1A64767  34.742  38.681   6.396
 4937POPC   D2A64768  34.784  38.369   6.772
 4937POPC   C3A64769  34.853  38.515   7.204
 4937POPC   C4A64770  34.913  38.405   7.645
 4937POPC   C1B64771  34.257  38.538   6.295
 4937POPC   C2B64772  34.323  38.590   6.756
 4937POPC   C3B64773  34.385  38.315   7.138
 4937POPC   C4B64774  34.616  38.032   7.432
 4938POPC   NC364775  32.947  41.629   4.959
 4938POPC   PO464776  33.233  41.356   5.633
 4938POPC   GL164777  33.065  41.503   5.969
 4938POPC   GL264778  32.896  41.729   5.840
 4938POPC   C1A64779  33.151  41.665   6.368
 4938POPC   D2A64780  33.078  41.396   6.727
 4938POPC   C3A64781  33.138  41.505   7.164
 4938POPC   C4A64782  32.986  41.326   7.564
 4938POPC   C1B64783  32.625  41.803   6.155
 4938POPC   C2B64784  32.704  41.777   6.593
 4938POPC   C3B64785  32.621  41.746   6.997
 4938POPC   C4B64786  32.774  41.772   7.385
 4939POPC   NC364787   4.169  22.205   5.477
 4939POPC   PO464788   4.823  22.360   5.442
 4939POPC   GL164789   4.550  22.201   5.880
 4939POPC   GL264790   4.187  22.056   5.953
 4939POPC   C1A64791   4.462  22.126   6.375
 4939POPC   D2A64792   4.184  22.202   6.759
 4939POPC   C3A64793   4.271  22.175   7.218
 4939POPC   C4A64794   4.601  22.389   7.459
 4939POPC   C1B64795   4.096  21.702   6.209
 4939POPC   C2B64796   4.163  21.616   6.651
 4939POPC   C3B64797   3.958  21.814   7.015
 4939POPC   C4B64798   3.964  21.832   7.460
 4940POPC   NC364799  37.356  18.202   5.465
 4940POPC   PO464800  37.862  18.618   5.514
 4940POPC   GL164801  37.706  18.311   5.815
 4940POPC   GL264802  37.350  18.410   5.959
 4940POPC   C1A64803  37.695  18.127   6.224
 4940POPC   D2A64804  37.702  18.346   6.590
 4940POPC   C3A64805  37.603  18.231   6.999
 4940POPC   C4A64806  37.570  18.147   7.419
 4940POPC   C1B64807  37.348  18.679   6.374
 4940POPC   C2B64808  37.393  18.663   6.833
 4940POPC   C3B64809  37.202  18.505   7.221
 4940POPC   C4B64810  37.276  18.534   7.683
 4941POPC   NC364811   9.605  20.388   4.992
 4941POPC   PO464812   9.999  20.621   5.570
 4941POPC   GL164813   9.876  20.469   5.923
 4941POPC   GL264814   9.581  20.640   5.915
 4941POPC   C1A64815   9.870  20.454   6.357
 4941POPC   D2A64816   9.660  20.595   6.697
 4941POPC   C3A64817   9.999  20.668   6.919
 4941POPC   C4A64818   9.983  20.776   7.313
 4941POPC   C1B64819   9.593  20.890   6.265
 4941POPC   C2B64820   9.432  21.056   6.652
 4941POPC   C3B64821   9.491  21.027   7.105
 4941POPC   C4B64822   9.525  20.854   7.535
 4942POPC   NC364823  16.170  39.323   5.486
 4942POPC   PO464824  15.604  38.954   5.373
 4942POPC   GL164825  15.753  39.093   5.779
 4942POPC   GL264826  15.772  39.442   5.798
 4942POPC   C1A64827  16.030  39.118   6.140
 4942POPC   D2A64828  16.100  39.354   6.532
 4942POPC   C3A64829  15.961  39.156   6.916
 4942POPC   C4A64830  16.194  39.099   7.276
 4942POPC   C1B64831  15.711  39.513   6.232
 4942POPC   C2B64832  15.568  39.423   6.631
 4942POPC   C3B64833  15.661  39.578   7.023
 4942POPC   C4B64834  16.044  39.590   7.264
 4943POPC   NC364835  39.515  16.552   5.453
 4943POPC   PO464836  38.833  16.672   5.539
 4943POPC   GL164837  39.023  16.918   5.856
 4943POPC   GL264838  39.323  16.760   5.897
 4943POPC   C1A64839  38.968  16.796   6.269
 4943POPC   D2A64840  39.139  16.611   6.621
 4943POPC   C3A64841  39.064  16.748   7.035
 4943POPC   C4A64842  38.997  16.928   7.442
 4943POPC   C1B64843  39.556  16.755   6.311
 4943POPC   C2B64844  39.569  16.864   6.755
 4943POPC   C3B64845  39.531  16.558   7.056
 4943POPC   C4B64846  39.474  16.581   7.551
 4944POPC   NC364847  37.942  37.155   5.503
 4944POPC   PO464848  38.117  36.481   5.343
 4944POPC   GL164849  37.975  36.676   5.764
 4944POPC   GL264850  37.612  36.661   5.850
 4944POPC   C1A64851  37.974  36.895   6.191
 4944POPC   D2A64852  37.752  36.961   6.613
 4944POPC   C3A64853  37.734  36.702   6.982
 4944POPC   C4A64854  37.371  36.442   7.058
 4944POPC   C1B64855  37.471  36.969   6.183
 4944POPC   C2B64856  37.395  37.306   6.469
 4944POPC   C3B64857  37.343  37.332   6.909
 4944POPC   C4B64858  37.416  37.493   7.321
 4945POPC   NC364859  18.461   7.140   5.501
 4945POPC   PO464860  18.117   7.634   5.510
 4945POPC   GL164861  18.237   7.438   5.882
 4945POPC   GL264862  18.088   7.130   5.895
 4945POPC   C1A64863  18.375   7.591   6.278
 4945POPC   D2A64864  18.395   7.371   6.670
 4945POPC   C3A64865  18.248   7.304   7.074
 4945POPC   C4A64866  18.405   7.469   7.434
 4945POPC   C1B64867  18.256   7.036   6.294
 4945POPC   C2B64868  18.065   6.975   6.705
 4945POPC   C3B64869  18.177   6.802   7.135
 4945POPC   C4B64870  18.113   7.026   7.541
 4946POPC   NC364871  15.353  22.753   5.475
 4946POPC   PO464872  14.702  22.715   5.446
 4946POPC   GL164873  14.966  22.990   5.741
 4946POPC   GL264874  15.307  23.003   5.910
 4946POPC   C1A64875  14.900  23.142   6.177
 4946POPC   D2A64876  15.146  23.002   6.511
 4946POPC   C3A64877  15.038  23.105   6.930
 4946POPC   C4A64878  15.049  22.836   7.287
 4946POPC   C1B64879  15.391  22.671   6.173
 4946POPC   C2B64880  15.549  22.634   6.586
 4946POPC   C3B64881  15.432  22.780   6.964
 4946POPC   C4B64882  15.565  22.864   7.394
 4947POPC   NC364883  24.248  26.121   5.153
 4947POPC   PO464884  24.856  25.989   5.370
 4947POPC   GL164885  24.739  25.996   5.807
 4947POPC   GL264886  24.474  25.818   5.821
 4947POPC   C1A64887  24.567  26.129   6.229
 4947POPC   D2A64888  24.542  26.298   6.657
 4947POPC   C3A64889  24.440  26.073   6.998
 4947POPC   C4A64890  24.348  26.282   7.347
 4947POPC   C1B64891  24.230  25.716   6.172
 4947POPC   C2B64892  24.259  25.863   6.563
 4947POPC   C3B64893  24.012  25.821   6.896
 4947POPC   C4B64894  24.091  25.816   7.328
 4948POPC   NC364895  39.704  40.692   5.438
 4948POPC   PO464896  40.173  41.182   5.402
 4948POPC   GL164897  40.074  40.931   5.748
 4948POPC   GL264898  39.760  41.042   5.844
 4948POPC   C1A64899  40.191  40.834   6.173
 4948POPC   D2A64900  40.080  40.685   6.584
 4948POPC   C3A64901  39.955  40.997   6.887
 4948POPC   C4A64902  40.193  41.031   7.263
 4948POPC   C1B64903  39.722  40.654   6.102
 4948POPC   C2B64904  39.564  40.614   6.502
 4948POPC   C3B64905  39.630  40.506   6.893
 4948POPC   C4B64906  39.859  40.628   7.226
 4949POPC   NC364907  16.101  43.432   5.442
 4949POPC   PO464908  15.805  44.063   5.495
 4949POPC   GL164909  15.782  43.922   5.870
 4949POPC   GL264910  15.815  43.552   5.848
 4949POPC   C1A64911  16.122  43.943   6.148
 4949POPC   D2A64912  16.014  43.981   6.573
 4949POPC   C3A64913  16.207  43.681   6.840
 4949POPC   C4A64914  16.068  43.930   7.165
 4949POPC   C1B64915  15.760  43.611   6.272
 4949POPC   C2B64916  15.818  43.444   6.611
 4949POPC   C3B64917  15.716  43.601   7.008
 4949POPC   C4B64918  15.588  43.561   7.434
 4950POPC   NC364919  33.018  16.864   5.283
 4950POPC   PO464920  33.123  16.289   5.403
 4950POPC   GL164921  33.177  16.665   5.728
 4950POPC   GL264922  32.855  16.790   5.835
 4950POPC   C1A64923  33.233  17.036   6.059
 4950POPC   D2A64924  33.205  17.179   6.514
 4950POPC   C3A64925  33.246  16.986   6.945
 4950POPC   C4A64926  33.188  17.156   7.356
 4950POPC   C1B64927  33.055  16.593   6.234
 4950POPC   C2B64928  33.314  16.578   6.629
 4950POPC   C3B64929  33.321  16.507   7.126
 4950POPC   C4B64930  33.257  16.300   7.557
 4951POPC   NC364931  38.573  33.428   5.452
 4951POPC   PO464932  38.406  32.773   5.366
 4951POPC   GL164933  38.363  32.957   5.776
 4951POPC   GL264934  38.669  32.997   5.946
 4951POPC   C1A64935  38.182  32.787   6.174
 4951POPC   D2A64936  38.306  32.642   6.591
 4951POPC   C3A64937  38.437  32.954   6.891
 4951POPC   C4A64938  38.218  33.037   7.249
 4951POPC   C1B64939  38.491  33.157   6.347
 4951POPC   C2B64940  38.462  33.451   6.698
 4951POPC   C3B64941  38.556  33.431   7.158
 4951POPC   C4B64942  38.626  33.130   7.513
 4952POPC   NC364943   6.171   7.097   5.306
 4952POPC   PO464944   6.843   7.371   5.352
 4952POPC   GL164945   6.748   7.384   5.778
 4952POPC   GL264946   6.363   7.365   5.737
 4952POPC   C1A64947   6.957   7.521   6.181
 4952POPC   D2A64948   7.109   7.440   6.608
 4952POPC   C3A64949   6.733   7.350   6.857
 4952POPC   C4A64950   6.613   7.441   7.276
 4952POPC   C1B64951   6.407   7.676   6.062
 4952POPC   C2B64952   6.576   7.716   6.493
 4952POPC   C3B64953   6.410   7.790   6.927
 4952POPC   C4B64954   6.149   7.722   7.304
 4953POPC   NC364955   5.592  30.619   5.520
 4953POPC   PO464956   6.117  30.902   5.182
 4953POPC   GL164957   6.104  30.726   5.644
 4953POPC   GL264958   6.358  30.484   5.691
 4953POPC   C1A64959   5.990  30.821   6.119
 4953POPC   D2A64960   6.055  30.765   6.607
 4953POPC   C3A64961   5.791  30.527   6.890
 4953POPC   C4A64962   5.603  30.416   7.278
 4953POPC   C1B64963   6.382  30.496   6.167
 4953POPC   C2B64964   6.495  30.367   6.611
 4953POPC   C3B64965   6.305  30.494   7.020
 4953POPC   C4B64966   6.063  30.872   7.145
 4954POPC   NC364967   7.635  30.803   5.554
 4954POPC   PO464968   7.211  30.334   5.653
 4954POPC   GL164969   7.298  30.695   5.900
 4954POPC   GL264970   7.191  31.035   5.771
 4954POPC   C1A64971   7.521  30.615   6.251
 4954POPC   D2A64972   7.488  30.346   6.601
 4954POPC   C3A64973   7.460  30.592   6.966
 4954POPC   C4A64974   7.814  30.697   7.171
 4954POPC   C1B64975   7.365  31.116   6.186
 4954POPC   C2B64976   7.438  30.965   6.609
 4954POPC   C3B64977   7.507  31.121   7.007
 4954POPC   C4B64978   7.275  31.012   7.351
 4955POPC   NC364979   9.430  23.141   5.422
 4955POPC   PO464980  10.004  22.836   5.555
 4955POPC   GL164981   9.725  23.027   5.828
 4955POPC   GL264982   9.454  22.775   5.800
 4955POPC   C1A64983   9.816  23.126   6.240
 4955POPC   D2A64984   9.945  22.917   6.625
 4955POPC   C3A64985   9.787  23.049   7.028
 4955POPC   C4A64986   9.831  23.251   7.453
 4955POPC   C1B64987   9.567  22.674   6.236
 4955POPC   C2B64988   9.563  22.536   6.682
 4955POPC   C3B64989   9.380  22.734   7.057
 4955POPC   C4B64990   9.592  22.795   7.442
 4956POPC   NC364991  36.394  23.898   5.497
 4956POPC   PO464992  35.968  23.374   5.422
 4956POPC   GL164993  36.138  23.598   5.806
 4956POPC   GL264994  35.974  23.889   5.910
 4956POPC   C1A64995  36.318  23.731   6.261
 4956POPC   D2A64996  36.511  23.685   6.719
 4956POPC   C3A64997  36.223  23.598   7.081
 4956POPC   C4A64998  35.767  23.522   7.185
 4956POPC   C1B64999  35.761  23.560   6.159
 4956POPC   C2B65000  35.654  23.614   6.611
 4956POPC   C3B65001  35.873  23.919   6.871
 4956POPC   C4B65002  36.058  24.024   7.274
 4957POPC   NC365003  40.390  10.346   5.526
 4957POPC   PO465004  41.061  10.504   5.220
 4957POPC   GL165005  40.860  10.529   5.674
 4957POPC   GL265006  40.912  10.853   5.769
 4957POPC   C1A65007  40.681  10.663   6.176
 4957POPC   D2A65008  40.833  10.612   6.662
 4957POPC   C3A65009  40.557  10.485   7.056
 4957POPC   C4A65010  40.363  10.299   7.456
 4957POPC   C1B65011  41.164  10.584   6.089
 4957POPC   C2B65012  41.306  10.691   6.479
 4957POPC   C3B65013  41.278  10.789   6.897
 4957POPC   C4B65014  41.046  10.509   7.163
 4958POPC   NC365015  28.395  29.069   5.494
 4958POPC   PO465016  27.822  29.333   5.499
 4958POPC   GL165017  28.078  29.146   5.869
 4958POPC   GL265018  28.173  29.395   6.110
 4958POPC   C1A65019  28.490  29.016   6.148
 4958POPC   D2A65020  28.558  29.278   6.519
 4958POPC   C3A65021  28.619  29.198   6.980
 4958POPC   C4A65022  28.528  28.864   7.294
 4958POPC   C1B65023  28.029  29.002   6.348
 4958POPC   C2B65024  28.165  28.890   6.755
 4958POPC   C3B65025  28.108  29.116   7.119
 4958POPC   C4B65026  28.202  29.243   7.531
 4959POPC   NC365027  21.712  36.197   5.340
 4959POPC   PO465028  22.355  35.861   5.483
 4959POPC   GL165029  22.264  36.295   5.684
 4959POPC   GL265030  21.964  36.344   5.859
 4959POPC   C1A65031  22.409  36.488   6.120
 4959POPC   D2A65032  22.744  36.436   6.469
 4959POPC   C3A65033  22.570  36.406   6.919
 4959POPC   C4A65034  22.380  36.075   7.231
 4959POPC   C1B65035  22.226  36.009   6.117
 4959POPC   C2B65036  22.351  36.105   6.527
 4959POPC   C3B65037  22.079  36.218   6.850
 4959POPC   C4B65038  21.916  35.867   7.062
 4960POPC   NC365039  28.280  37.351   5.322
 4960POPC   PO465040  27.976  38.024   5.479
 4960POPC   GL165041  28.097  37.768   5.841
 4960POPC   GL265042  28.377  37.531   5.794
 4960POPC   C1A65043  28.280  37.791   6.278
 4960POPC   D2A65044  28.610  37.655   6.574
 4960POPC   C3A65045  28.627  37.757   7.024
 4960POPC   C4A65046  28.805  37.659   7.437
 4960POPC   C1B65047  28.136  37.318   6.123
 4960POPC   C2B65048  28.209  37.351   6.579
 4960POPC   C3B65049  28.421  37.289   6.975
 4960POPC   C4B65050  28.220  37.017   7.245
 4961POPC   NC365051  21.451  16.916   5.339
 4961POPC   PO465052  21.177  16.423   5.608
 4961POPC   GL165053  21.487  16.589   5.863
 4961POPC   GL265054  21.498  16.949   5.844
 4961POPC   C1A65055  21.502  16.561   6.310
 4961POPC   D2A65056  21.224  16.444   6.622
 4961POPC   C3A65057  21.432  16.625   6.970
 4961POPC   C4A65058  21.359  16.554   7.396
 4961POPC   C1B65059  21.192  16.938   6.131
 4961POPC   C2B65060  21.236  16.954   6.555
 4961POPC   C3B65061  21.166  17.129   6.957
 4961POPC   C4B65062  21.402  17.042   7.308
 4962POPC   NC365063  26.051  24.202   5.571
 4962POPC   PO465064  26.442  24.737   5.723
 4962POPC   GL165065  26.203  24.551   6.008
 4962POPC   GL265066  25.848  24.484   5.977
 4962POPC   C1A65067  26.155  24.672   6.415
 4962POPC   D2A65068  25.886  24.630   6.771
 4962POPC   C3A65069  26.196  24.557   7.070
 4962POPC   C4A65070  26.302  24.536   7.502
 4962POPC   C1B65071  25.858  24.265   6.402
 4962POPC   C2B65072  25.963  24.114   6.842
 4962POPC   C3B65073  25.858  24.246   7.289
 4962POPC   C4B65074  25.830  24.256   7.771
 4963POPC   NC365075   6.609  21.254   5.311
 4963POPC   PO465076   6.949  20.755   5.610
 4963POPC   GL165077   6.714  21.100   5.787
 4963POPC   GL265078   6.783  21.450   5.750
 4963POPC   C1A65079   6.500  21.308   6.155
 4963POPC   D2A65080   6.683  21.285   6.571
 4963POPC   C3A65081   6.442  21.426   6.906
 4963POPC   C4A65082   6.363  21.198   7.273
 4963POPC   C1B65083   7.003  21.325   6.164
 4963POPC   C2B65084   7.098  21.606   6.510
 4963POPC   C3B65085   7.065  21.455   6.929
 4963POPC   C4B65086   7.110  21.676   7.305
 4964POPC   NC365087  13.025  25.904   5.107
 4964POPC   PO465088  13.741  25.944   5.214
 4964POPC   GL165089  13.739  25.969   5.686
 4964POPC   GL265090  13.773  25.665   5.846
 4964POPC   C1A65091  13.689  26.201   6.087
 4964POPC   D2A65092  13.480  26.114   6.494
 4964POPC   C3A65093  13.643  26.238   6.877
 4964POPC   C4A65094  13.483  26.115   7.256
 4964POPC   C1B65095  13.729  25.715   6.279
 4964POPC   C2B65096  13.729  25.673   6.686
 4964POPC   C3B65097  13.859  25.793   7.067
 4964POPC   C4B65098  13.826  25.578   7.423
 4965POPC   NC365099  11.727  37.539   5.497
 4965POPC   PO465100  11.130  37.935   5.460
 4965POPC   GL165101  11.382  37.798   5.768
 4965POPC   GL265102  11.195  37.506   5.813
 4965POPC   C1A65103  11.579  37.651   6.164
 4965POPC   D2A65104  11.462  37.444   6.557
 4965POPC   C3A65105  11.544  37.666   6.963
 4965POPC   C4A65106  11.393  37.711   7.375
 4965POPC   C1B65107  11.063  37.596   6.250
 4965POPC   C2B65108  11.003  37.576   6.697
 4965POPC   C3B65109  11.172  37.320   7.024
 4965POPC   C4B65110  11.101  37.272   7.456
 4966POPC   NC365111   7.530  38.860   5.389
 4966POPC   PO465112   7.729  39.533   5.418
 4966POPC   GL165113   7.539  39.252   5.751
 4966POPC   GL265114   7.196  39.349   5.847
 4966POPC   C1A65115   7.481  39.166   6.229
 4966POPC   D2A65116   7.655  39.117   6.630
 4966POPC   C3A65117   7.556  39.404   6.949
 4966POPC   C4A65118   7.840  39.376   7.272
 4966POPC   C1B65119   7.090  38.926   6.014
 4966POPC   C2B65120   7.007  38.779   6.453
 4966POPC   C3B65121   7.204  38.963   6.836
 4966POPC   C4B65122   7.463  39.008   7.262
 4967POPC   NC365123  25.644  33.667   5.359
 4967POPC   PO465124  26.208  34.066   5.450
 4967POPC   GL165125  25.869  34.078   5.748
 4967POPC   GL265126  25.864  33.752   5.833
 4967POPC   C1A65127  25.842  34.173   6.221
 4967POPC   D2A65128  25.691  34.108   6.680
 4967POPC   C3A65129  26.009  33.946   6.991
 4967POPC   C4A65130  25.998  33.946   7.469
 4967POPC   C1B65131  25.817  33.447   6.165
 4967POPC   C2B65132  25.500  33.305   6.457
 4967POPC   C3B65133  25.564  33.498   6.851
 4967POPC   C4B65134  25.812  33.525   7.237
 4968POPC   NC365135  24.386  38.885   5.410
 4968POPC   PO465136  24.616  39.586   5.327
 4968POPC   GL165137  24.587  39.400   5.775
 4968POPC   GL265138  24.458  39.074   5.863
 4968POPC   C1A65139  24.722  39.299   6.219
 4968POPC   D2A65140  24.804  39.558   6.563
 4968POPC   C3A65141  24.737  39.473   6.978
 4968POPC   C4A65142  24.559  39.475   7.383
 4968POPC   C1B65143  24.403  38.864   6.275
 4968POPC   C2B65144  24.546  38.837   6.702
 4968POPC   C3B65145  24.530  39.029   7.118
 4968POPC   C4B65146  24.444  38.991   7.563
 4969POPC   NC365147  10.151   3.916   5.556
 4969POPC   PO465148  10.032   4.562   5.265
 4969POPC   GL165149   9.924   4.484   5.732
 4969POPC   GL265150   9.621   4.664   5.904
 4969POPC   C1A65151   9.944   4.277   6.144
 4969POPC   D2A65152  10.174   4.232   6.529
 4969POPC   C3A65153   9.884   4.363   6.842
 4969POPC   C4A65154   9.859   4.139   7.241
 4969POPC   C1B65155   9.625   4.600   6.379
 4969POPC   C2B65156   9.464   4.230   6.584
 4969POPC   C3B65157   9.369   4.188   7.008
 4969POPC   C4B65158   9.436   4.325   7.445
 4970POPC   NC365159  29.584   8.952   5.489
 4970POPC   PO465160  30.256   9.123   5.472
 4970POPC   GL165161  30.268   8.787   5.794
 4970POPC   GL265162  29.919   8.729   5.845
 4970POPC   C1A65163  30.283   8.674   6.240
 4970POPC   D2A65164  30.121   8.666   6.684
 4970POPC   C3A65165  30.208   9.048   6.984
 4970POPC   C4A65166  29.997   9.439   7.177
 4970POPC   C1B65167  29.577   8.679   6.163
 4970POPC   C2B65168  29.595   8.632   6.619
 4970POPC   C3B65169  29.690   8.881   7.002
 4970POPC   C4B65170  29.460   8.896   7.415
 4971POPC   NC365171   6.416   1.111   5.110
 4971POPC   PO465172   6.878   1.426   5.519
 4971POPC   GL165173   6.917   1.471   5.914
 4971POPC   GL265174   6.580   1.533   5.943
 4971POPC   C1A65175   6.871   1.402   6.332
 4971POPC   D2A65176   6.603   1.537   6.594
 4971POPC   C3A65177   6.780   1.343   6.882
 4971POPC   C4A65178   7.100   1.370   7.144
 4971POPC   C1B65179   6.409   1.228   6.237
 4971POPC   C2B65180   6.327   1.100   6.677
 4971POPC   C3B65181   6.453   1.059   7.117
 4971POPC   C4B65182   6.596   1.434   7.342
 4972POPC   NC365183   1.879  15.151   5.442
 4972POPC   PO465184   2.430  14.802   5.643
 4972POPC   GL165185   2.172  15.164   5.862
 4972POPC   GL265186   1.868  15.335   5.897
 4972POPC   C1A65187   2.133  15.263   6.308
 4972POPC   D2A65188   2.212  14.905   6.547
 4972POPC   C3A65189   2.169  15.126   6.881
 4972POPC   C4A65190   2.146  14.971   7.260
 4972POPC   C1B65191   1.847  14.884   6.127
 4972POPC   C2B65192   1.655  14.916   6.553
 4972POPC   C3B65193   1.699  14.958   6.994
 4972POPC   C4B65194   1.821  15.360   7.199
 4973POPC   NC365195   5.884  24.270   5.311
 4973POPC   PO465196   6.207  24.739   5.484
 4973POPC   GL165197   6.105  24.437   5.760
 4973POPC   GL265198   5.793  24.557   5.735
 4973POPC   C1A65199   6.008  24.422   6.194
 4973POPC   D2A65200   6.223  24.590   6.538
 4973POPC   C3A65201   6.197  24.414   6.931
 4973POPC   C4A65202   6.013  24.560   7.287
 4973POPC   C1B65203   5.641  24.838   6.044
 4973POPC   C2B65204   5.727  24.767   6.487
 4973POPC   C3B65205   5.677  24.555   6.876
 4973POPC   C4B65206   5.579  24.845   7.192
 4974POPC   NC365207  18.641   9.274   5.459
 4974POPC   PO465208  19.303   9.132   5.345
 4974POPC   GL165209  19.078   9.024   5.720
 4974POPC   GL265210  19.307   9.244   5.917
 4974POPC   C1A65211  19.079   8.745   6.114
 4974POPC   D2A65212  18.946   8.823   6.562
 4974POPC   C3A65213  19.088   8.829   7.007
 4974POPC   C4A65214  18.930   9.159   7.320
 4974POPC   C1B65215  19.470   9.059   6.314
 4974POPC   C2B65216  19.487   9.050   6.781
 4974POPC   C3B65217  19.420   9.142   7.239
 4974POPC   C4B65218  19.335   9.208   7.705
 4975POPC   NC365219  15.097   4.202   5.331
 4975POPC   PO465220  15.532   4.627   5.119
 4975POPC   GL165221  15.437   4.534   5.607
 4975POPC   GL265222  15.097   4.423   5.803
 4975POPC   C1A65223  15.533   4.474   6.075
 4975POPC   D2A65224  15.364   4.283   6.458
 4975POPC   C3A65225  15.461   4.419   6.841
 4975POPC   C4A65226  15.167   4.591   7.123
 4975POPC   C1B65227  15.058   4.076   6.118
 4975POPC   C2B65228  15.006   3.920   6.576
 4975POPC   C3B65229  15.042   4.071   7.018
 4975POPC   C4B65230  14.722   3.943   7.346
 4976POPC   NC365231  41.971  22.036   5.444
 4976POPC   PO465232  41.777  21.659   5.839
 4976POPC   GL165233  41.948  22.067   5.992
 4976POPC   GL265234  42.287  22.131   5.853
 4976POPC   C1A65235  41.963  22.370   6.350
 4976POPC   D2A65236  42.235  22.586   6.632
 4976POPC   C3A65237  42.242  22.463   7.091
 4976POPC   C4A65238  42.287  22.251   7.520
 4976POPC   C1B65239  42.383  22.079   6.301
 4976POPC   C2B65240  42.190  22.078   6.725
 4976POPC   C3B65241  42.271  21.913   7.138
 4976POPC   C4B65242  42.634  21.843   7.432
 4977POPC   NC365243  43.409  34.313   4.991
 4977POPC   PO465244  43.960  34.291   5.320
 4977POPC   GL165245  43.876  34.529   5.749
 4977POPC   GL265246  43.801  34.304   5.940
 4977POPC   C1A65247  44.016  34.711   6.151
 4977POPC   D2A65248  44.048  34.339   6.430
 4977POPC   C3A65249  43.927  34.382   6.855
 4977POPC   C4A65250  44.160  34.457   7.232
 4977POPC   C1B65251  43.660  34.002   6.226
 4977POPC   C2B65252  43.384  34.159   6.529
 4977POPC   C3B65253  43.392  34.218   6.976
 4977POPC   C4B65254  43.680  34.272   7.295
 4978POPC   NC365255   0.497  39.455   5.292
 4978POPC   PO465256   0.177  38.836   5.370
 4978POPC   GL165257   0.377  38.931   5.739
 4978POPC   GL265258   0.305  39.303   5.761
 4978POPC   C1A65259   0.574  39.017   6.144
 4978POPC   D2A65260   0.618  39.423   6.392
 4978POPC   C3A65261   0.679  39.380   6.865
 4978POPC   C4A65262   0.654  39.008   7.180
 4978POPC   C1B65263   0.152  39.308   6.197
 4978POPC   C2B65264   0.187  39.457   6.650
 4978POPC   C3B65265   0.183  39.245   7.061
 4978POPC   C4B65266   0.054  39.408   7.473
 4979POPC   NC365267   3.477  38.671   4.949
 4979POPC   PO465268   3.413  38.329   5.514
 4979POPC   GL165269   3.519  38.119   5.857
 4979POPC   GL265270   3.186  37.967   5.865
 4979POPC   C1A65271   3.696  38.305   6.257
 4979POPC   D2A65272   3.702  38.680   6.584
 4979POPC   C3A65273   3.730  38.670   7.070
 4979POPC   C4A65274   3.820  38.797   7.554
 4979POPC   C1B65275   3.176  38.228   6.233
 4979POPC   C2B65276   3.380  38.152   6.624
 4979POPC   C3B65277   3.341  38.291   7.023
 4979POPC   C4B65278   3.020  38.206   7.308
 4980POPC   NC365279  27.728  43.227   5.148
 4980POPC   PO465280  27.272  42.824   5.430
 4980POPC   GL165281  27.557  42.974   5.750
 4980POPC   GL265282  27.373  42.788   5.987
 4980POPC   C1A65283  27.738  43.089   6.163
 4980POPC   D2A65284  27.757  42.806   6.570
 4980POPC   C3A65285  27.759  42.943   7.033
 4980POPC   C4A65286  28.016  43.231   7.331
 4980POPC   C1B65287  27.319  42.996   6.418
 4980POPC   C2B65288  27.587  43.308   6.640
 4980POPC   C3B65289  27.474  43.396   7.038
 4980POPC   C4B65290  27.249  43.037   7.089
 4981POPC   NC365291  10.152   0.325   5.528
 4981POPC   PO465292  10.818   0.404   5.508
 4981POPC   GL165293  10.533   0.518   5.802
 4981POPC   GL265294  10.376   0.831   5.707
 4981POPC   C1A65295  10.367   0.447   6.216
 4981POPC   D2A65296  10.501   0.171   6.549
 4981POPC   C3A65297  10.778   0.345   6.860
 4981POPC   C4A65298  10.585   0.467   7.254
 4981POPC   C1B65299  10.669   0.895   6.096
 4981POPC   C2B65300  10.659   0.753   6.519
 4981POPC   C3B65301  10.377   0.636   6.817
 4981POPC   C4B65302  10.327   0.907   7.174
 4982POPC   NC365303  24.463  13.742   5.577
 4982POPC   PO465304  24.819  13.126   5.484
 4982POPC   GL165305  24.796  13.296   5.904
 4982POPC   GL265306  24.470  13.234   5.977
 4982POPC   C1A65307  24.807  13.486   6.341
 4982POPC   D2A65308  24.572  13.727   6.679
 4982POPC   C3A65309  24.643  13.775   7.158
 4982POPC   C4A65310  24.896  13.789   7.548
 4982POPC   C1B65311  24.301  13.557   6.246
 4982POPC   C2B65312  24.113  13.521   6.612
 4982POPC   C3B65313  24.175  13.655   6.983
 4982POPC   C4B65314  24.201  13.531   7.350
 4983POPC   NC365315  44.204  38.293   5.507
 4983POPC   PO465316  44.494  38.831   5.201
 4983POPC   GL165317  44.535  38.650   5.671
 4983POPC   GL265318  44.873  38.495   5.795
 4983POPC   C1A65319  44.505  38.620   6.151
 4983POPC   D2A65320  44.662  38.379   6.528
 4983POPC   C3A65321  44.483  38.442   6.942
 4983POPC   C4A65322  44.464  38.669   7.357
 4983POPC   C1B65323  44.989  38.158   6.108
 4983POPC   C2B65324   0.035  37.998   6.544
 4983POPC   C3B65325   0.048  38.231   6.932
 4983POPC   C4B65326  44.813  38.277   7.308
 4984POPC   NC365327  19.280   7.608   5.401
 4984POPC   PO465328  18.893   6.979   5.447
 4984POPC   GL165329  18.939   7.280   5.776
 4984POPC   GL265330  18.723   7.571   5.781
 4984POPC   C1A65331  19.137   7.341   6.192
 4984POPC   D2A65332  19.219   7.486   6.621
 4984POPC   C3A65333  19.350   7.298   7.001
 4984POPC   C4A65334  19.385   7.431   7.408
 4984POPC   C1B65335  18.876   7.806   6.160
 4984POPC   C2B65336  18.758   7.740   6.593
 4984POPC   C3B65337  18.809   7.537   6.964
 4984POPC   C4B65338  19.145   7.765   7.082
 4985POPC   NC365339   4.072  10.760   5.699
 4985POPC   PO465340   4.471  10.336   5.318
 4985POPC   GL165341   4.328  10.279   5.755
 4985POPC   GL265342   4.525  10.544   5.815
 4985POPC   C1A65343   4.243  10.364   6.203
 4985POPC   D2A65344   4.118  10.548   6.594
 4985POPC   C3A65345   4.427  10.518   6.893
 4985POPC   C4A65346   4.400  10.455   7.316
 4985POPC   C1B65347   4.560  10.759   6.233
 4985POPC   C2B65348   4.570  11.139   6.484
 4985POPC   C3B65349   4.785  11.128   6.862
 4985POPC   C4B65350   4.709  10.844   7.190
 4986POPC   NC365351  43.204  27.588   5.359
 4986POPC   PO465352  42.797  27.289   5.569
 4986POPC   GL165353  43.006  27.610   5.869
 4986POPC   GL265354  42.936  27.989   5.879
 4986POPC   C1A65355  43.080  27.728   6.331
 4986POPC   D2A65356  43.320  27.793   6.731
 4986POPC   C3A65357  43.317  27.487   7.089
 4986POPC   C4A65358  43.037  27.256   7.347
 4986POPC   C1B65359  42.807  28.172   6.311
 4986POPC   C2B65360  42.848  28.037   6.752
 4986POPC   C3B65361  43.060  27.949   7.154
 4986POPC   C4B65362  43.071  28.165   7.578
 4987POPC   NC365363  14.735  16.667   5.308
 4987POPC   PO465364  14.149  16.907   5.427
 4987POPC   GL165365  14.233  16.809   5.834
 4987POPC   GL265366  14.136  16.453   5.778
 4987POPC   C1A65367  14.279  16.859   6.308
 4987POPC   D2A65368  14.178  16.846   6.778
 4987POPC   C3A65369  14.552  16.878   7.050
 4987POPC   C4A65370  14.611  16.977   7.499
 4987POPC   C1B65371  14.482  16.435   6.080
 4987POPC   C2B65372  14.444  16.384   6.528
 4987POPC   C3B65373  14.405  16.379   6.970
 4987POPC   C4B65374  14.161  16.619   7.282
 4988POPC   NC365375  41.072  16.073   5.295
 4988POPC   PO465376  40.430  15.709   5.361
 4988POPC   GL165377  40.530  15.689   5.815
 4988POPC   GL265378  40.906  15.790   5.855
 4988POPC   C1A65379  40.560  15.798   6.261
 4988POPC   D2A65380  40.848  15.708   6.587
 4988POPC   C3A65381  40.635  15.828   6.945
 4988POPC   C4A65382  40.596  16.248   7.158
 4988POPC   C1B65383  40.941  16.116   6.229
 4988POPC   C2B65384  40.828  16.212   6.673
 4988POPC   C3B65385  41.067  16.049   7.073
 4988POPC   C4B65386  41.001  15.696   7.345
 4989POPC   NC365387  17.684   2.455   5.284
 4989POPC   PO465388  17.345   3.037   5.416
 4989POPC   GL165389  17.578   2.887   5.798
 4989POPC   GL265390  17.649   2.562   5.774
 4989POPC   C1A65391  17.565   2.799   6.275
 4989POPC   D2A65392  17.276   2.587   6.578
 4989POPC   C3A65393  17.282   2.592   7.040
 4989POPC   C4A65394  17.318   3.009   7.269
 4989POPC   C1B65395  17.908   2.462   6.105
 4989POPC   C2B65396  17.970   2.569   6.544
 4989POPC   C3B65397  17.718   2.759   6.865
 4989POPC   C4B65398  17.736   2.711   7.322
 4990POPC   NC365399  20.211  17.387   5.295
 4990POPC   PO465400  19.593  17.041   5.352
 4990POPC   GL165401  19.766  17.249   5.779
 4990POPC   GL265402  19.842  17.610   5.948
 4990POPC   C1A65403  19.785  17.234   6.268
 4990POPC   D2A65404  19.772  17.484   6.658
 4990POPC   C3A65405  19.711  17.232   7.019
 4990POPC   C4A65406  19.941  17.012   7.325
 4990POPC   C1B65407  19.963  17.849   6.324
 4990POPC   C2B65408  20.281  17.693   6.625
 4990POPC   C3B65409  20.218  17.508   7.020
 4990POPC   C4B65410  19.851  17.704   7.175
 4991POPC   NC365411  12.309  38.327   5.407
 4991POPC   PO465412  11.745  38.711   5.320
 4991POPC   GL165413  11.909  38.683   5.733
 4991POPC   GL265414  11.974  38.347   5.814
 4991POPC   C1A65415  12.153  38.771   6.102
 4991POPC   D2A65416  12.353  38.777   6.519
 4991POPC   C3A65417  12.190  38.431   6.714
 4991POPC   C4A65418  12.205  38.389   7.127
 4991POPC   C1B65419  11.789  38.141   6.170
 4991POPC   C2B65420  11.689  38.307   6.597
 4991POPC   C3B65421  11.720  38.429   7.017
 4991POPC   C4B65422  11.732  38.107   7.353
 4992POPC   NC365423  23.385  16.558   5.134
 4992POPC   PO465424  23.990  16.695   5.363
 4992POPC   GL165425  23.713  16.745   5.749
 4992POPC   GL265426  23.405  16.982   5.652
 4992POPC   C1A65427  23.719  16.610   6.230
 4992POPC   D2A65428  24.034  16.647   6.599
 4992POPC   C3A65429  23.936  16.576   7.059
 4992POPC   C4A65430  23.570  16.603   7.379
 4992POPC   C1B65431  23.480  17.050   6.092
 4992POPC   C2B65432  23.652  17.057   6.533
 4992POPC   C3B65433  23.534  16.919   6.941
 4992POPC   C4B65434  23.286  17.085   7.272
 4993POPC   NC365435  28.332  43.967   5.421
 4993POPC   PO465436  28.607  43.402   5.283
 4993POPC   GL165437  28.507  43.607   5.734
 4993POPC   GL265438  28.147  43.631   5.826
 4993POPC   C1A65439  28.420  43.918   6.133
 4993POPC   D2A65440  28.510  44.010   6.579
 4993POPC   C3A65441  28.330  43.684   6.819
 4993POPC   C4A65442  28.400  43.564   7.244
 4993POPC   C1B65443  27.941  44.023   6.007
 4993POPC   C2B65444  28.060  44.189   6.418
 4993POPC   C3B65445  28.080  44.153   6.888
 4993POPC   C4B65446  28.179  44.099   7.312
 4994POPC   NC365447  38.511  35.947   5.260
 4994POPC   PO465448  38.918  36.427   5.623
 4994POPC   GL165449  38.791  36.107   5.918
 4994POPC   GL265450  38.612  35.858   5.776
 4994POPC   C1A65451  38.500  36.120   6.249
 4994POPC   D2A65452  38.177  36.076   6.512
 4994POPC   C3A65453  38.388  36.082   6.877
 4994POPC   C4A65454  38.255  36.083   7.249
 4994POPC   C1B65455  38.666  35.642   6.159
 4994POPC   C2B65456  38.672  35.764   6.582
 4994POPC   C3B65457  38.520  35.590   6.932
 4994POPC   C4B65458  38.667  35.780   7.274
 4995POPC   NC365459  26.259  42.030   5.465
 4995POPC   PO465460  25.644  41.884   5.472
 4995POPC   GL165461  25.865  42.101   5.794
 4995POPC   GL265462  26.218  42.242   5.918
 4995POPC   C1A65463  25.779  42.281   6.145
 4995POPC   D2A65464  26.090  42.364   6.476
 4995POPC   C3A65465  25.967  42.304   6.896
 4995POPC   C4A65466  25.814  42.173   7.282
 4995POPC   C1B65467  26.426  42.586   6.132
 4995POPC   C2B65468  26.553  42.574   6.548
 4995POPC   C3B65469  26.413  42.540   6.943
 4995POPC   C4B65470  26.185  42.588   7.314
 4996POPC   NC365471   3.875  18.341   5.460
 4996POPC   PO465472   4.476  18.172   5.347
 4996POPC   GL165473   4.266  18.273   5.786
 4996POPC   GL265474   4.233  18.643   5.848
 4996POPC   C1A65475   4.304  18.104   6.228
 4996POPC   D2A65476   4.144  18.062   6.683
 4996POPC   C3A65477   4.415  18.178   7.042
 4996POPC   C4A65478   4.695  18.021   7.360
 4996POPC   C1B65479   4.115  18.569   6.306
 4996POPC   C2B65480   4.117  18.584   6.782
 4996POPC   C3B65481   4.154  18.745   7.198
 4996POPC   C4B65482   3.997  18.545   7.587
 4997POPC   NC365483   4.899  21.908   5.544
 4997POPC   PO465484   5.268  21.383   5.317
 4997POPC   GL165485   5.195  21.346   5.792
 4997POPC   GL265486   5.105  21.656   5.937
 4997POPC   C1A65487   5.145  21.289   6.278
 4997POPC   D2A65488   4.919  21.236   6.679
 4997POPC   C3A65489   5.090  21.075   7.070
 4997POPC   C4A65490   5.008  21.043   7.541
 4997POPC   C1B65491   4.870  21.815   6.299
 4997POPC   C2B65492   4.689  21.708   6.713
 4997POPC   C3B65493   4.894  21.547   7.117
 4997POPC   C4B65494   5.244  21.464   7.406
 4998POPC   NC365495  20.396   4.594   5.506
 4998POPC   PO465496  20.378   5.241   5.188
 4998POPC   GL165497  20.462   5.125   5.637
 4998POPC   GL265498  20.160   4.985   5.774
 4998POPC   C1A65499  20.743   4.975   6.003
 4998POPC   D2A65500  20.675   4.848   6.460
 4998POPC   C3A65501  20.674   5.084   6.856
 4998POPC   C4A65502  20.895   5.253   7.233
 4998POPC   C1B65503  20.282   5.041   6.198
 4998POPC   C2B65504  20.155   5.124   6.614
 4998POPC   C3B65505  20.161   5.094   7.052
 4998POPC   C4B65506  20.462   4.894   7.274
 4999POPC   NC365507   1.751   2.147   5.484
 4999POPC   PO465508   2.367   2.246   5.572
 4999POPC   GL165509   2.068   2.007   5.899
 4999POPC   GL265510   1.706   2.095   5.976
 4999POPC   C1A65511   2.046   1.841   6.337
 4999POPC   D2A65512   2.234   1.954   6.771
 4999POPC   C3A65513   2.115   2.311   7.018
 4999POPC   C4A65514   2.210   2.473   7.447
 4999POPC   C1B65515   1.541   2.033   6.359
 4999POPC   C2B65516   1.722   1.942   6.729
 4999POPC   C3B65517   1.839   1.855   7.112
 4999POPC   C4B65518   1.539   1.773   7.429
 5000POPC   NC365519  27.376  33.755   5.274
 5000POPC   PO465520  27.936  33.778   5.605
 5000POPC   GL165521  27.588  33.651   5.778
 5000POPC   GL265522  27.357  33.914   5.738
 5000POPC   C1A65523  27.517  33.572   6.198
 5000POPC   D2A65524  27.336  33.509   6.589
 5000POPC   C3A65525  27.673  33.525   6.873
 5000POPC   C4A65526  28.048  33.546   7.111
 5000POPC   C1B65527  27.316  34.022   6.131
 5000POPC   C2B65528  27.499  34.008   6.540
 5000POPC   C3B65529  27.351  33.890   6.962
 5000POPC   C4B65530  27.593  33.753   7.327
 5001POPC   NC365531   5.734  15.610   5.447
 5001POPC   PO465532   6.262  15.634   5.565
 5001POPC   GL165533   5.932  15.827   5.899
 5001POPC   GL265534   5.561  15.921   5.852
 5001POPC   C1A65535   5.809  15.957   6.361
 5001POPC   D2A65536   5.802  15.837   6.816
 5001POPC   C3A65537   6.048  15.952   7.157
 5001POPC   C4A65538   5.807  16.177   7.452
 5001POPC   C1B65539   5.535  15.573   6.130
 5001POPC   C2B65540   5.650  15.426   6.542
 5001POPC   C3B65541   5.534  15.446   6.981
 5001POPC   C4B65542   5.683  15.662   7.342
 5002POPC   NC365543  40.421  36.330   5.347
 5002POPC   PO465544  39.824  36.253   5.351
 5002POPC   GL165545  40.102  36.225   5.742
 5002POPC   GL265546  40.320  36.564   5.792
 5002POPC   C1A65547  39.894  36.064   6.130
 5002POPC   D2A65548  39.614  36.101   6.475
 5002POPC   C3A65549  39.801  35.989   6.866
 5002POPC   C4A65550  39.794  36.147   7.254
 5002POPC   C1B65551  40.272  36.413   6.199
 5002POPC   C2B65552  40.127  36.276   6.575
 5002POPC   C3B65553  40.132  36.429   6.967
 5002POPC   C4B65554  40.397  36.281   7.254
 5003POPC   NC365555  39.478  43.139   5.462
 5003POPC   PO465556  38.890  43.080   5.744
 5003POPC   GL165557  39.291  43.064   5.953
 5003POPC   GL265558  39.338  43.427   5.958
 5003POPC   C1A65559  39.511  42.852   6.329
 5003POPC   D2A65560  39.492  42.824   6.801
 5003POPC   C3A65561  39.068  42.882   7.014
 5003POPC   C4A65562  39.007  42.942   7.468
 5003POPC   C1B65563  39.083  43.366   6.382
 5003POPC   C2B65564  39.054  43.367   6.871
 5003POPC   C3B65565  39.400  43.255   7.138
 5003POPC   C4B65566  39.507  43.061   7.508
 5004POPC   NC365567  35.177  18.855   5.516
 5004POPC   PO465568  34.939  19.504   5.556
 5004POPC   GL165569  35.176  19.290   5.870
 5004POPC   GL265570  35.496  19.276   5.696
 5004POPC   C1A65571  35.149  18.946   6.206
 5004POPC   D2A65572  35.108  18.793   6.662
 5004POPC   C3A65573  35.141  19.093   7.028
 5004POPC   C4A65574  35.178  19.055   7.501
 5004POPC   C1B65575  35.641  19.243   6.139
 5004POPC   C2B65576  35.526  19.110   6.554
 5004POPC   C3B65577  35.580  18.834   6.895
 5004POPC   C4B65578  35.633  19.058   7.262
 5005POPC   NC365579  28.218  33.326   5.014
 5005POPC   PO465580  28.385  32.935   5.555
 5005POPC   GL165581  28.273  33.047   5.943
 5005POPC   GL265582  28.423  33.407   5.940
 5005POPC   C1A65583  28.129  32.854   6.340
 5005POPC   D2A65584  28.364  32.862   6.719
 5005POPC   C3A65585  28.209  32.801   7.129
 5005POPC   C4A65586  28.040  32.525   7.407
 5005POPC   C1B65587  28.158  33.410   6.291
 5005POPC   C2B65588  28.326  33.403   6.681
 5005POPC   C3B65589  28.530  33.373   7.060
 5005POPC   C4B65590  28.322  33.234   7.431
 5006POPC   NC365591  16.287   4.978   5.487
 5006POPC   PO465592  16.889   5.114   5.117
 5006POPC   GL165593  16.811   4.921   5.566
 5006POPC   GL265594  16.610   5.172   5.814
 5006POPC   C1A65595  16.914   4.835   6.030
 5006POPC   D2A65596  16.827   5.119   6.387
 5006POPC   C3A65597  16.807   5.121   6.847
 5006POPC   C4A65598  16.638   5.007   7.227
 5006POPC   C1B65599  16.446   5.403   6.165
 5006POPC   C2B65600  16.394   5.362   6.607
 5006POPC   C3B65601  16.455   5.548   6.994
 5006POPC   C4B65602  16.381   5.420   7.411
 5007POPC   NC365603  33.474   1.310   5.121
 5007POPC   PO465604  33.855   0.715   5.060
 5007POPC   GL165605  33.904   1.044   5.426
 5007POPC   GL265606  33.580   1.091   5.603
 5007POPC   C1A65607  34.014   1.171   5.897
 5007POPC   D2A65608  34.168   1.234   6.361
 5007POPC   C3A65609  34.043   1.108   6.779
 5007POPC   C4A65610  33.869   1.303   7.155
 5007POPC   C1B65611  33.534   1.006   6.067
 5007POPC   C2B65612  33.587   1.037   6.548
 5007POPC   C3B65613  33.599   0.846   6.975
 5007POPC   C4B65614  33.553   0.957   7.414
 5008POPC   NC365615   1.312  40.068   5.461
 5008POPC   PO465616   0.685  40.042   5.352
 5008POPC   GL165617   0.921  39.868   5.743
 5008POPC   GL265618   0.935  40.188   5.813
 5008POPC   C1A65619   1.268  39.922   6.108
 5008POPC   D2A65620   1.549  39.809   6.483
 5008POPC   C3A65621   1.451  40.043   6.872
 5008POPC   C4A65622   1.178  40.082   7.226
 5008POPC   C1B65623   0.970  40.350   6.216
 5008POPC   C2B65624   1.020  40.276   6.648
 5008POPC   C3B65625   0.973  40.511   7.037
 5008POPC   C4B65626   1.147  40.545   7.461
 5009POPC   NC365627  12.522  12.482   5.424
 5009POPC   PO465628  12.089  12.996   5.214
 5009POPC   GL165629  12.105  12.794   5.671
 5009POPC   GL265630  12.393  12.809   5.820
 5009POPC   C1A65631  12.025  12.892   6.167
 5009POPC   D2A65632  12.197  13.068   6.581
 5009POPC   C3A65633  11.964  13.104   6.969
 5009POPC   C4A65634  11.738  12.867   7.292
 5009POPC   C1B65635  12.535  12.835   6.254
 5009POPC   C2B65636  12.734  12.811   6.644
 5009POPC   C3B65637  12.570  12.987   7.018
 5009POPC   C4B65638  12.240  12.812   7.264
 5010POPC   NC365639  28.475  18.300   5.307
 5010POPC   PO465640  27.944  18.009   5.457
 5010POPC   GL165641  28.203  18.299   5.744
 5010POPC   GL265642  28.476  18.057   5.809
 5010POPC   C1A65643  28.112  18.534   6.133
 5010POPC   D2A65644  28.314  18.531   6.544
 5010POPC   C3A65645  28.155  18.712   6.920
 5010POPC   C4A65646  28.371  18.489   7.235
 5010POPC   C1B65647  28.337  18.088   6.252
 5010POPC   C2B65648  28.245  18.001   6.696
 5010POPC   C3B65649  28.427  18.010   7.106
 5010POPC   C4B65650  28.701  17.962   7.450
 5011POPC   NC365651  17.575   8.293   5.414
 5011POPC   PO465652  16.971   8.454   5.584
 5011POPC   GL165653  17.336   8.281   5.884
 5011POPC   GL265654  17.673   8.061   5.841
 5011POPC   C1A65655  17.611   8.332   6.278
 5011POPC   D2A65656  17.925   8.307   6.608
 5011POPC   C3A65657  17.771   8.250   6.982
 5011POPC   C4A65658  17.444   8.349   7.268
 5011POPC   C1B65659  17.433   7.853   6.168
 5011POPC   C2B65660  17.541   7.903   6.596
 5011POPC   C3B65661  17.408   7.877   7.014
 5011POPC   C4B65662  17.674   7.917   7.376
 5012POPC   NC365663  14.195   1.245   5.253
 5012POPC   PO465664  14.741   0.906   5.485
 5012POPC   GL165665  14.617   1.255   5.764
 5012POPC   GL265666  14.251   1.250   5.827
 5012POPC   C1A65667  14.554   1.464   6.180
 5012POPC   D2A65668  14.265   1.370   6.541
 5012POPC   C3A65669  14.478   1.264   6.915
 5012POPC   C4A65670  14.486   1.634   7.174
 5012POPC   C1B65671  14.312   0.968   6.235
 5012POPC   C2B65672  14.217   0.836   6.688
 5012POPC   C3B65673  14.045   1.053   7.088
 5012POPC   C4B65674  14.074   1.061   7.540
 5013POPC   NC365675  15.510  15.897   5.373
 5013POPC   PO465676  16.147  15.734   5.474
 5013POPC   GL165677  16.277  15.833   5.899
 5013POPC   GL265678  16.059  16.145   5.948
 5013POPC   C1A65679  16.262  15.916   6.355
 5013POPC   D2A65680  16.034  16.220   6.529
 5013POPC   C3A65681  15.913  15.993   6.881
 5013POPC   C4A65682  16.198  15.846   7.215
 5013POPC   C1B65683  15.660  16.306   6.182
 5013POPC   C2B65684  15.514  16.240   6.629
 5013POPC   C3B65685  15.559  16.347   7.057
 5013POPC   C4B65686  15.851  16.184   7.355
 5014POPC   NC365687  32.658  43.314   5.385
 5014POPC   PO465688  32.105  42.978   5.170
 5014POPC   GL165689  32.380  42.939   5.599
 5014POPC   GL265690  32.084  43.004   5.753
 5014POPC   C1A65691  32.467  43.107   6.084
 5014POPC   D2A65692  32.288  43.047   6.539
 5014POPC   C3A65693  32.453  43.194   6.960
 5014POPC   C4A65694  32.208  43.455   7.255
 5014POPC   C1B65695  31.971  42.853   6.164
 5014POPC   C2B65696  32.050  42.573   6.517
 5014POPC   C3B65697  31.885  42.702   6.908
 5014POPC   C4B65698  32.140  42.894   7.234
 5015POPC   NC365699  44.684   7.826   5.484
 5015POPC   PO465700  44.956   8.415   5.257
 5015POPC   GL165701  44.541   8.312   5.686
 5015POPC   GL265702  44.560   8.076   5.911
 5015POPC   C1A65703  44.532   8.479   6.210
 5015POPC   D2A65704  44.822   8.400   6.593
 5015POPC   C3A65705  44.708   8.241   7.013
 5015POPC   C4A65706  44.920   7.925   7.209
 5015POPC   C1B65707  44.461   7.863   6.284
 5015POPC   C2B65708  44.591   7.851   6.693
 5015POPC   C3B65709  44.366   7.759   7.048
 5015POPC   C4B65710  44.485   7.802   7.448
 5016POPC   NC365711   2.465  21.977   5.357
 5016POPC   PO465712   3.114  22.261   5.410
 5016POPC   GL165713   2.878  22.339   5.787
 5016POPC   GL265714   2.705  22.075   5.799
 5016POPC   C1A65715   3.018  22.280   6.225
 5016POPC   D2A65716   3.104  22.493   6.636
 5016POPC   C3A65717   2.992  22.268   7.017
 5016POPC   C4A65718   2.853  21.888   7.257
 5016POPC   C1B65719   2.525  22.185   6.191
 5016POPC   C2B65720   2.627  22.262   6.627
 5016POPC   C3B65721   2.477  22.281   7.064
 5016POPC   C4B65722   2.574  22.516   7.463
 5017POPC   NC365723  33.984  43.408   5.567
 5017POPC   PO465724  33.682  42.889   5.246
 5017POPC   GL165725  33.680  42.875   5.745
 5017POPC   GL265726  33.868  43.120   5.971
 5017POPC   C1A65727  33.516  42.868   6.207
 5017POPC   D2A65728  33.665  42.795   6.618
 5017POPC   C3A65729  33.519  42.955   6.962
 5017POPC   C4A65730  33.702  43.110   7.318
 5017POPC   C1B65731  34.036  43.225   6.365
 5017POPC   C2B65732  34.158  43.575   6.653
 5017POPC   C3B65733  34.445  43.526   6.966
 5017POPC   C4B65734  34.191  43.255   7.228
 5018POPC   NC365735   7.632  37.199   5.082
 5018POPC   PO465736   7.307  36.707   5.397
 5018POPC   GL165737   7.458  36.573   5.802
 5018POPC   GL265738   7.794  36.586   5.700
 5018POPC   C1A65739   7.349  36.518   6.262
 5018POPC   D2A65740   7.326  36.528   6.723
 5018POPC   C3A65741   7.334  36.945   6.895
 5018POPC   C4A65742   7.186  37.017   7.275
 5018POPC   C1B65743   7.825  36.797   6.105
 5018POPC   C2B65744   7.668  36.894   6.496
 5018POPC   C3B65745   7.798  36.712   6.871
 5018POPC   C4B65746   7.693  36.812   7.234
 5019POPC   NC365747  14.715  14.116   5.692
 5019POPC   PO465748  14.112  14.253   5.414
 5019POPC   GL165749  14.252  14.448   5.786
 5019POPC   GL265750  13.990  14.624   5.990
 5019POPC   C1A65751  14.478  14.543   6.167
 5019POPC   D2A65752  14.269  14.583   6.548
 5019POPC   C3A65753  14.465  14.515   6.910
 5019POPC   C4A65754  14.372  14.150   7.137
 5019POPC   C1B65755  13.978  14.253   6.233
 5019POPC   C2B65756  14.028  14.063   6.649
 5019POPC   C3B65757  13.871  14.253   7.015
 5019POPC   C4B65758  14.041  14.526   7.287
 5020POPC   NC365759   9.639  10.616   5.246
 5020POPC   PO465760  10.269  10.348   5.201
 5020POPC   GL165761   9.882  10.343   5.592
 5020POPC   GL265762   9.762  10.667   5.814
 5020POPC   C1A65763   9.830  10.272   6.075
 5020POPC   D2A65764   9.617  10.571   6.379
 5020POPC   C3A65765   9.704  10.542   6.824
 5020POPC   C4A65766   9.913  10.314   7.150
 5020POPC   C1B65767  10.078  10.726   6.186
 5020POPC   C2B65768  10.121  10.943   6.613
 5020POPC   C3B65769  10.110  10.783   7.035
 5020POPC   C4B65770   9.723  10.760   7.311
 5021POPC   NC365771  22.034  26.913   4.964
 5021POPC   PO465772  22.492  26.728   5.411
 5021POPC   GL165773  22.307  26.512   5.806
 5021POPC   GL265774  21.933  26.397   5.765
 5021POPC   C1A65775  22.222  26.714   6.223
 5021POPC   D2A65776  22.413  26.696   6.623
 5021POPC   C3A65777  22.148  26.847   6.934
 5021POPC   C4A65778  22.191  27.047   7.292
 5021POPC   C1B65779  21.743  26.527   6.180
 5021POPC   C2B65780  21.808  26.829   6.519
 5021POPC   C3B65781  21.667  26.691   6.922
 5021POPC   C4B65782  21.775  26.778   7.342
 5022POPC   NC365783  32.796  32.418   5.520
 5022POPC   PO465784  33.562  32.220   5.551
 5022POPC   GL165785  33.272  32.232   5.893
 5022POPC   GL265786  33.167  32.568   5.916
 5022POPC   C1A65787  33.233  32.290   6.375
 5022POPC   D2A65788  33.292  32.236   6.848
 5022POPC   C3A65789  33.026  32.097   7.207
 5022POPC   C4A65790  33.231  32.003   7.606
 5022POPC   C1B65791  32.831  32.571   6.192
 5022POPC   C2B65792  32.765  32.441   6.628
 5022POPC   C3B65793  32.915  32.548   7.019
 5022POPC   C4B65794  32.622  32.684   7.300
 5023POPC   NC365795   9.166  37.196   5.611
 5023POPC   PO465796   8.851  37.697   5.289
 5023POPC   GL165797   9.081  37.716   5.670
 5023POPC   GL265798   8.792  37.562   5.825
 5023POPC   C1A65799   9.162  37.717   6.134
 5023POPC   D2A65800   8.943  37.485   6.473
 5023POPC   C3A65801   9.001  37.453   6.939
 5023POPC   C4A65802   9.247  37.272   7.289
 5023POPC   C1B65803   8.681  37.865   6.189
 5023POPC   C2B65804   8.571  37.774   6.662
 5023POPC   C3B65805   8.712  37.852   7.117
 5023POPC   C4B65806   8.662  37.883   7.592
 5024POPC   NC365807  31.128  44.981   5.108
 5024POPC   PO465808  31.702  44.550   5.107
 5024POPC   GL165809  31.484  44.593   5.539
 5024POPC   GL265810  31.304  44.881   5.602
 5024POPC   C1A65811  31.417  44.427   5.969
 5024POPC   D2A65812  31.519  44.565   6.413
 5024POPC   C3A65813  31.489  44.350   6.822
 5024POPC   C4A65814  31.763  44.506   7.137
 5024POPC   C1B65815  31.362  44.945   6.076
 5024POPC   C2B65816  31.254  44.992   6.518
 5024POPC   C3B65817  31.318  44.842   6.938
 5024POPC   C4B65818  31.206  44.998   7.341
 5025POPC   NC365819  15.884  24.106   5.139
 5025POPC   PO465820  16.250  24.639   5.194
 5025POPC   GL165821  16.079  24.627   5.626
 5025POPC   GL265822  15.944  24.280   5.642
 5025POPC   C1A65823  16.161  24.507   6.094
 5025POPC   D2A65824  16.068  24.231   6.479
 5025POPC   C3A65825  15.855  24.440   6.815
 5025POPC   C4A65826  16.059  24.651   7.132
 5025POPC   C1B65827  15.728  24.158   6.039
 5025POPC   C2B65828  15.542  24.239   6.446
 5025POPC   C3B65829  15.503  24.034   6.858
 5025POPC   C4B65830  15.766  24.113   7.209
 5026POPC   NC365831  44.091  12.459   5.396
 5026POPC   PO465832  43.787  11.805   5.392
 5026POPC   GL165833  43.770  11.839   5.817
 5026POPC   GL265834  43.966  12.147   5.795
 5026POPC   C1A65835  44.019  11.827   6.195
 5026POPC   D2A65836  44.177  11.723   6.577
 5026POPC   C3A65837  43.942  11.900   6.890
 5026POPC   C4A65838  43.986  11.758   7.275
 5026POPC   C1B65839  44.089  12.369   6.166
 5026POPC   C2B65840  43.965  12.325   6.570
 5026POPC   C3B65841  43.957  12.407   7.011
 5026POPC   C4B65842  43.687  12.172   7.285
 5027POPC   NC365843  15.555  41.064   5.299
 5027POPC   PO465844  15.777  41.603   5.685
 5027POPC   GL165845  16.109  41.719   5.898
 5027POPC   GL265846  16.300  41.409   5.849
 5027POPC   C1A65847  16.077  41.820   6.308
 5027POPC   D2A65848  15.927  41.788   6.711
 5027POPC   C3A65849  16.002  41.574   7.072
 5027POPC   C4A65850  16.054  41.963   7.238
 5027POPC   C1B65851  16.065  41.316   6.242
 5027POPC   C2B65852  15.838  41.297   6.639
 5027POPC   C3B65853  15.607  41.271   7.016
 5027POPC   C4B65854  15.783  41.245   7.469
 5028POPC   NC365855  42.065  37.149   5.333
 5028POPC   PO465856  42.670  37.012   5.607
 5028POPC   GL165857  42.375  37.005   5.939
 5028POPC   GL265858  42.021  37.118   5.890
 5028POPC   C1A65859  42.422  37.030   6.375
 5028POPC   D2A65860  42.215  37.079   6.771
 5028POPC   C3A65861  42.374  36.844   7.124
 5028POPC   C4A65862  42.601  36.430   7.198
 5028POPC   C1B65863  41.959  36.843   6.268
 5028POPC   C2B65864  41.850  36.681   6.699
 5028POPC   C3B65865  41.846  36.882   7.120
 5028POPC   C4B65866  42.038  37.275   7.206
 5029POPC   NC365867  42.073   3.274   5.503
 5029POPC   PO465868  42.601   3.546   5.343
 5029POPC   GL165869  42.535   3.359   5.750
 5029POPC   GL265870  42.779   3.103   5.758
 5029POPC   C1A65871  42.558   3.605   6.170
 5029POPC   D2A65872  42.363   3.649   6.598
 5029POPC   C3A65873  42.602   3.712   6.994
 5029POPC   C4A65874  42.519   3.884   7.423
 5029POPC   C1B65875  42.650   3.120   6.221
 5029POPC   C2B65876  42.697   3.279   6.695
 5029POPC   C3B65877  42.537   3.203   7.131
 5029POPC   C4B65878  42.112   2.976   7.174
 5030POPC   NC365879  21.513  40.281   5.354
 5030POPC   PO465880  21.531  40.960   5.336
 5030POPC   GL165881  21.456  40.884   5.747
 5030POPC   GL265882  21.280  40.575   5.715
 5030POPC   C1A65883  21.428  41.016   6.174
 5030POPC   D2A65884  21.354  40.807   6.545
 5030POPC   C3A65885  21.375  41.047   6.896
 5030POPC   C4A65886  21.520  40.926   7.306
 5030POPC   C1B65887  21.465  40.507   6.118
 5030POPC   C2B65888  21.574  40.350   6.550
 5030POPC   C3B65889  21.464  40.494   6.973
 5030POPC   C4B65890  21.506  40.380   7.409
 5031POPC   NC365891   9.163   3.081   5.308
 5031POPC   PO465892   9.220   2.432   5.383
 5031POPC   GL165893   8.922   2.600   5.717
 5031POPC   GL265894   8.934   2.942   5.751
 5031POPC   C1A65895   8.688   2.687   6.125
 5031POPC   D2A65896   8.749   2.918   6.520
 5031POPC   C3A65897   8.662   2.704   6.914
 5031POPC   C4A65898   8.695   2.870   7.346
 5031POPC   C1B65899   9.173   2.861   6.149
 5031POPC   C2B65900   9.340   2.907   6.560
 5031POPC   C3B65901   9.174   2.773   6.928
 5031POPC   C4B65902   9.390   2.587   7.247
 5032POPC   NC365903  38.458  40.336   5.379
 5032POPC   PO465904  38.080  39.750   5.256
 5032POPC   GL165905  38.225  39.972   5.709
 5032POPC   GL265906  38.608  40.021   5.805
 5032POPC   C1A65907  38.317  40.029   6.215
 5032POPC   D2A65908  38.445  39.825   6.638
 5032POPC   C3A65909  38.214  39.880   7.040
 5032POPC   C4A65910  38.267  39.903   7.508
 5032POPC   C1B65911  38.834  39.945   6.244
 5032POPC   C2B65912  38.928  39.990   6.706
 5032POPC   C3B65913  38.702  40.069   7.103
 5032POPC   C4B65914  38.713  40.130   7.562
 5033POPC   NC365915  35.995  19.902   5.203
 5033POPC   PO465916  36.496  19.396   5.300
 5033POPC   GL165917  36.483  19.687   5.639
 5033POPC   GL265918  36.167  19.571   5.705
 5033POPC   C1A65919  36.459  19.865   6.065
 5033POPC   D2A65920  36.299  19.779   6.473
 5033POPC   C3A65921  36.460  19.882   6.856
 5033POPC   C4A65922  36.300  19.738   7.244
 5033POPC   C1B65923  35.964  19.722   6.094
 5033POPC   C2B65924  35.839  19.574   6.499
 5033POPC   C3B65925  35.909  19.769   6.902
 5033POPC   C4B65926  35.824  19.583   7.308
 5034POPC   NC365927  23.392  25.626   5.308
 5034POPC   PO465928  23.289  24.889   5.328
 5034POPC   GL165929  23.283  25.224   5.717
 5034POPC   GL265930  22.997  25.459   5.734
 5034POPC   C1A65931  23.166  25.286   6.187
 5034POPC   D2A65932  22.869  25.222   6.544
 5034POPC   C3A65933  23.077  25.323   6.934
 5034POPC   C4A65934  23.425  25.016   6.960
 5034POPC   C1B65935  22.677  25.481   6.089
 5034POPC   C2B65936  22.596  25.642   6.535
 5034POPC   C3B65937  22.509  25.411   6.935
 5034POPC   C4B65938  22.669  25.229   7.345
 5035POPC   NC365939  33.222  22.593   5.319
 5035POPC   PO465940  32.682  22.844   5.530
 5035POPC   GL165941  33.059  22.920   5.792
 5035POPC   GL265942  33.306  22.656   5.795
 5035POPC   C1A65943  33.043  22.767   6.226
 5035POPC   D2A65944  33.108  22.913   6.632
 5035POPC   C3A65945  32.844  22.778   6.935
 5035POPC   C4A65946  32.723  23.138   7.160
 5035POPC   C1B65947  33.539  22.770   6.097
 5035POPC   C2B65948  33.598  22.931   6.467
 5035POPC   C3B65949  33.554  22.898   6.910
 5035POPC   C4B65950  33.294  22.641   7.157
 5036POPC   NC365951  41.146  27.950   5.584
 5036POPC   PO465952  41.745  28.043   5.416
 5036POPC   GL165953  41.767  27.724   5.799
 5036POPC   GL265954  41.446  27.720   5.912
 5036POPC   C1A65955  41.691  27.397   6.192
 5036POPC   D2A65956  41.511  27.241   6.581
 5036POPC   C3A65957  41.525  27.562   6.838
 5036POPC   C4A65958  41.563  27.671   7.214
 5036POPC   C1B65959  41.255  27.968   6.209
 5036POPC   C2B65960  41.205  28.176   6.557
 5036POPC   C3B65961  41.217  27.981   6.948
 5036POPC   C4B65962  40.975  28.064   7.301
 5037POPC   NC365963   9.305   0.855   5.491
 5037POPC   PO465964   9.029   0.228   5.268
 5037POPC   GL165965   9.130   0.401   5.689
 5037POPC   GL265966   8.818   0.457   5.815
 5037POPC   C1A65967   9.155   0.672   6.114
 5037POPC   D2A65968   9.265   0.537   6.538
 5037POPC   C3A65969   8.977   0.445   6.874
 5037POPC   C4A65970   9.138   0.562   7.248
 5037POPC   C1B65971   8.610   0.636   6.120
 5037POPC   C2B65972   8.693   0.702   6.516
 5037POPC   C3B65973   8.513   0.737   6.884
 5037POPC   C4B65974   8.650   0.665   7.324
 5038POPC   NC365975   1.972  36.032   5.395
 5038POPC   PO465976   2.087  36.675   5.276
 5038POPC   GL165977   2.091  36.449   5.716
 5038POPC   GL265978   2.286  36.124   5.791
 5038POPC   C1A65979   1.940  36.258   6.141
 5038POPC   D2A65980   2.079  36.005   6.510
 5038POPC   C3A65981   1.806  36.005   6.891
 5038POPC   C4A65982   1.866  36.318   7.207
 5038POPC   C1B65983   2.471  36.253   6.178
 5038POPC   C2B65984   2.577  36.153   6.604
 5038POPC   C3B65985   2.297  36.122   6.969
 5038POPC   C4B65986   2.268  36.067   7.420
 5039POPC   NC365987   3.033  20.035   5.472
 5039POPC   PO465988   3.507  19.501   5.392
 5039POPC   GL165989   3.593  19.729   5.831
 5039POPC   GL265990   3.805  19.996   5.825
 5039POPC   C1A65991   3.417  19.688   6.301
 5039POPC   D2A65992   3.434  19.461   6.723
 5039POPC   C3A65993   3.311  19.689   7.138
 5039POPC   C4A65994   3.385  20.142   7.256
 5039POPC   C1B65995   3.621  20.169   6.225
 5039POPC   C2B65996   3.522  20.256   6.678
 5039POPC   C3B65997   3.824  20.200   7.013
 5039POPC   C4B65998   4.022  19.982   7.356
 5040POPC   NC365999  18.345  19.239   5.295
 5040POPC   PO466000  18.004  18.804   5.723
 5040POPC   GL166001  18.348  19.057   5.789
 5040POPC   GL266002  18.157  19.369   5.754
 5040POPC   C1A66003  18.582  18.881   6.137
 5040POPC   D2A66004  18.543  19.016   6.543
 5040POPC   C3A66005  18.207  18.925   6.796
 5040POPC   C4A66006  18.328  18.869   7.226
 5040POPC   C1B66007  18.144  19.248   6.207
 5040POPC   C2B66008  17.955  19.329   6.602
 5040POPC   C3B66009  18.137  19.363   7.043
 5040POPC   C4B66010  18.224  19.297   7.493
 5041POPC   NC366011  22.848  11.715   4.977
 5041POPC   PO466012  22.931  11.132   5.368
 5041POPC   GL166013  23.068  11.328   5.780
 5041POPC   GL266014  23.163  11.681   5.673
 5041POPC   C1A66015  22.972  11.309   6.259
 5041POPC   D2A66016  22.799  11.546   6.629
 5041POPC   C3A66017  22.708  11.257   6.969
 5041POPC   C4A66018  23.032  10.965   7.029
 5041POPC   C1B66019  23.047  11.786   6.098
 5041POPC   C2B66020  23.258  11.835   6.470
 5041POPC   C3B66021  23.218  11.720   6.883
 5041POPC   C4B66022  22.941  11.626   7.202
 5042POPC   NC366023  24.600  41.025   5.313
 5042POPC   PO466024  24.070  40.744   5.404
 5042POPC   GL166025  24.372  40.791   5.734
 5042POPC   GL266026  24.691  40.611   5.699
 5042POPC   C1A66027  24.621  40.914   6.124
 5042POPC   D2A66028  24.892  40.810   6.475
 5042POPC   C3A66029  24.638  40.862   6.850
 5042POPC   C4A66030  24.478  40.934   7.280
 5042POPC   C1B66031  24.495  40.433   6.119
 5042POPC   C2B66032  24.589  40.365   6.565
 5042POPC   C3B66033  24.423  40.410   6.980
 5042POPC   C4B66034  24.122  40.557   7.251
 5043POPC   NC366035  37.844  22.346   5.383
 5043POPC   PO466036  37.276  21.891   5.357
 5043POPC   GL166037  37.540  22.028   5.716
 5043POPC   GL266038  37.629  22.361   5.837
 5043POPC   C1A66039  37.738  21.964   6.143
 5043POPC   D2A66040  37.729  22.176   6.538
 5043POPC   C3A66041  37.771  21.906   6.883
 5043POPC   C4A66042  38.015  21.838   7.256
 5043POPC   C1B66043  37.317  22.290   6.153
 5043POPC   C2B66044  37.292  22.435   6.569
 5043POPC   C3B66045  37.316  22.161   6.889
 5043POPC   C4B66046  37.573  22.201   7.240
 5044POPC   NC366047  44.864  32.504   5.609
 5044POPC   PO466048  44.424  32.086   5.537
 5044POPC   GL166049  44.550  32.235   5.919
 5044POPC   GL266050  44.855  32.209   6.071
 5044POPC   C1A66051  44.402  32.302   6.309
 5044POPC   D2A66052  44.692  32.336   6.648
 5044POPC   C3A66053  44.517  32.503   6.982
 5044POPC   C4A66054  44.465  32.209   7.250
 5044POPC   C1B66055  44.829  32.610   6.240
 5044POPC   C2B66056  44.921  32.780   6.629
 5044POPC   C3B66057   0.008  32.565   7.051
 5044POPC   C4B66058  44.803  32.476   7.474
 5045POPC   NC366059  12.715   8.432   5.433
 5045POPC   PO466060  13.131   7.950   5.601
 5045POPC   GL166061  12.823   8.131   5.856
 5045POPC   GL266062  13.057   8.410   5.850
 5045POPC   C1A66063  12.611   8.104   6.272
 5045POPC   D2A66064  12.773   8.215   6.678
 5045POPC   C3A66065  12.683   8.027   7.071
 5045POPC   C4A66066  12.596   8.256   7.450
 5045POPC   C1B66067  13.074   8.394   6.299
 5045POPC   C2B66068  13.286   8.347   6.693
 5045POPC   C3B66069  13.158   8.248   7.109
 5045POPC   C4B66070  13.081   8.146   7.532
 5046POPC   NC366071   8.418  21.763   5.548
 5046POPC   PO466072   7.949  21.295   5.338
 5046POPC   GL166073   8.294  21.299   5.738
 5046POPC   GL266074   8.348  21.598   6.005
 5046POPC   C1A66075   8.446  21.148   6.176
 5046POPC   D2A66076   8.158  21.152   6.518
 5046POPC   C3A66077   8.171  21.405   6.841
 5046POPC   C4A66078   8.096  21.367   7.232
 5046POPC   C1B66079   8.075  21.658   6.349
 5046POPC   C2B66080   8.190  21.888   6.704
 5046POPC   C3B66081   8.225  21.856   7.154
 5046POPC   C4B66082   7.904  21.784   7.456
 5047POPC   NC366083   3.241  39.165   5.355
 5047POPC   PO466084   2.632  39.232   5.586
 5047POPC   GL166085   2.989  39.213   5.824
 5047POPC   GL266086   2.769  39.025   6.042
 5047POPC   C1A66087   3.113  39.328   6.233
 5047POPC   D2A66088   2.934  39.071   6.596
 5047POPC   C3A66089   2.878  39.176   7.036
 5047POPC   C4A66090   3.205  39.376   7.267
 5047POPC   C1B66091   2.442  39.113   6.329
 5047POPC   C2B66092   2.434  39.051   6.759
 5047POPC   C3B66093   2.483  38.853   7.141
 5047POPC   C4B66094   2.503  38.799   7.570
 5048POPC   NC366095   6.848   4.098   5.369
 5048POPC   PO466096   7.526   4.319   5.316
 5048POPC   GL166097   7.719   4.330   5.768
 5048POPC   GL266098   7.386   4.282   5.862
 5048POPC   C1A66099   7.732   4.248   6.273
 5048POPC   D2A66100   7.486   4.303   6.688
 5048POPC   C3A66101   7.565   4.321   7.157
 5048POPC   C4A66102   7.792   4.395   7.558
 5048POPC   C1B66103   7.277   4.014   6.206
 5048POPC   C2B66104   7.044   4.051   6.567
 5048POPC   C3B66105   7.187   3.937   6.957
 5048POPC   C4B66106   7.135   3.983   7.385
 5049POPC   NC366107  42.003  40.359   5.481
 5049POPC   PO466108  42.630  39.950   5.346
 5049POPC   GL166109  42.365  40.025   5.727
 5049POPC   GL266110  42.370  40.362   5.847
 5049POPC   C1A66111  42.205  39.977   6.165
 5049POPC   D2A66112  42.408  39.862   6.559
 5049POPC   C3A66113  42.180  39.936   6.963
 5049POPC   C4A66114  41.908  40.306   7.014
 5049POPC   C1B66115  42.665  40.198   6.148
 5049POPC   C2B66116  42.806  40.185   6.535
 5049POPC   C3B66117  42.600  40.219   6.913
 5049POPC   C4B66118  42.576  40.348   7.343
 5050POPC   NC366119  34.880   4.456   5.361
 5050POPC   PO466120  34.950   3.736   5.380
 5050POPC   GL166121  34.924   4.012   5.714
 5050POPC   GL266122  34.608   4.247   5.780
 5050POPC   C1A66123  34.785   3.909   6.115
 5050POPC   D2A66124  34.592   4.215   6.370
 5050POPC   C3A66125  34.672   4.109   6.780
 5050POPC   C4A66126  34.583   4.099   7.180
 5050POPC   C1B66127  34.660   4.624   6.077
 5050POPC   C2B66128  34.589   4.723   6.531
 5050POPC   C3B66129  34.457   4.578   6.968
 5050POPC   C4B66130  34.554   4.594   7.415
 5051POPC   NC366131  13.804  13.013   5.424
 5051POPC   PO466132  13.708  12.407   5.718
 5051POPC   GL166133  13.812  12.825   5.889
 5051POPC   GL266134  13.495  12.978   5.844
 5051POPC   C1A66135  13.931  13.026   6.289
 5051POPC   D2A66136  13.800  12.816   6.686
 5051POPC   C3A66137  14.039  12.674   6.990
 5051POPC   C4A66138  14.044  12.810   7.405
 5051POPC   C1B66139  13.516  12.733   6.269
 5051POPC   C2B66140  13.222  12.602   6.525
 5051POPC   C3B66141  13.239  12.813   6.880
 5051POPC   C4B66142  13.592  12.847   7.161
 5052POPC   NC366143  22.743  32.041   5.447
 5052POPC   PO466144  23.201  32.634   5.404
 5052POPC   GL166145  23.225  32.471   5.831
 5052POPC   GL266146  23.137  32.133   5.805
 5052POPC   C1A66147  23.136  32.407   6.282
 5052POPC   D2A66148  22.856  32.221   6.617
 5052POPC   C3A66149  23.015  32.254   7.020
 5052POPC   C4A66150  23.128  32.626   7.218
 5052POPC   C1B66151  22.856  31.984   6.148
 5052POPC   C2B66152  22.837  31.711   6.528
 5052POPC   C3B66153  22.665  31.743   6.953
 5052POPC   C4B66154  22.548  32.090   7.211
 5053POPC   NC366155  16.979  15.578   5.142
 5053POPC   PO466156  16.654  16.032   5.560
 5053POPC   GL166157  16.866  15.952   5.920
 5053POPC   GL266158  16.942  16.283   6.051
 5053POPC   C1A66159  17.100  15.692   6.181
 5053POPC   D2A66160  17.030  15.648   6.596
 5053POPC   C3A66161  16.713  15.898   6.732
 5053POPC   C4A66162  16.701  16.040   7.127
 5053POPC   C1B66163  16.557  16.272   6.189
 5053POPC   C2B66164  16.531  16.376   6.609
 5053POPC   C3B66165  16.298  16.324   6.969
 5053POPC   C4B66166  16.361  16.294   7.391
 5054POPC   NC366167  33.302  44.810   5.387
 5054POPC   PO466168  32.684  44.550   5.295
 5054POPC   GL166169  32.894  44.691   5.679
 5054POPC   GL266170  33.183  44.453   5.737
 5054POPC   C1A66171  32.988  44.788   6.126
 5054POPC   D2A66172  32.985  44.571   6.567
 5054POPC   C3A66173  33.094  44.822   6.940
 5054POPC   C4A66174  32.784  44.953   7.233
 5054POPC   C1B66175  33.186  44.300   6.169
 5054POPC   C2B66176  33.331  44.189   6.597
 5054POPC   C3B66177  33.233  44.316   7.011
 5054POPC   C4B66178  33.038  44.523   7.356
 5055POPC   NC366179  35.135  30.951   5.416
 5055POPC   PO466180  35.509  30.415   5.280
 5055POPC   GL166181  35.308  30.551   5.703
 5055POPC   GL266182  34.973  30.408   5.694
 5055POPC   C1A66183  35.223  30.881   6.074
 5055POPC   D2A66184  35.431  31.097   6.440
 5055POPC   C3A66185  35.442  30.843   6.855
 5055POPC   C4A66186  35.243  30.600   7.212
 5055POPC   C1B66187  35.040  30.414   6.141
 5055POPC   C2B66188  35.259  30.507   6.502
 5055POPC   C3B66189  35.065  30.341   6.838
 5055POPC   C4B66190  35.057  30.131   7.239
 5056POPC   NC366191  27.412  25.428   5.380
 5056POPC   PO466192  27.834  25.055   5.560
 5056POPC   GL166193  27.484  25.089   5.865
 5056POPC   GL266194  27.369  25.428   5.908
 5056POPC   C1A66195  27.472  24.918   6.291
 5056POPC   D2A66196  27.623  25.041   6.713
 5056POPC   C3A66197  27.495  24.908   7.134
 5056POPC   C4A66198  27.660  25.007   7.558
 5056POPC   C1B66199  27.441  25.413   6.370
 5056POPC   C2B66200  27.215  25.360   6.769
 5056POPC   C3B66201  27.108  25.478   7.197
 5056POPC   C4B66202  27.460  25.507   7.495
 5057POPC   NC366203  37.416  10.813   5.518
 5057POPC   PO466204  38.045  10.600   5.625
 5057POPC   GL166205  37.768  10.664   5.938
 5057POPC   GL266206  37.450  10.535   5.959
 5057POPC   C1A66207  37.746  10.515   6.363
 5057POPC   D2A66208  37.818  10.139   6.586
 5057POPC   C3A66209  37.916  10.190   7.010
 5057POPC   C4A66210  37.687  10.495   7.232
 5057POPC   C1B66211  37.374  10.879   6.221
 5057POPC   C2B66212  37.331  10.764   6.636
 5057POPC   C3B66213  37.272  10.465   6.909
 5057POPC   C4B66214  37.186  10.607   7.277
 5058POPC   NC366215  40.928  42.661   5.388
 5058POPC   PO466216  40.544  42.132   5.553
 5058POPC   GL166217  40.727  42.422   5.814
 5058POPC   GL266218  40.544  42.765   5.787
 5058POPC   C1A66219  40.993  42.287   6.159
 5058POPC   D2A66220  41.012  41.922   6.431
 5058POPC   C3A66221  40.885  42.045   6.832
 5058POPC   C4A66222  40.765  42.274   7.185
 5058POPC   C1B66223  40.878  42.803   6.107
 5058POPC   C2B66224  40.846  42.617   6.516
 5058POPC   C3B66225  40.977  42.663   6.920
 5058POPC   C4B66226  40.775  42.808   7.264
 5059POPC   NC366227  40.009  20.697   5.317
 5059POPC   PO466228  39.459  20.921   5.625
 5059POPC   GL166229  39.825  20.703   5.831
 5059POPC   GL266230  40.083  20.433   5.764
 5059POPC   C1A66231  40.062  20.730   6.207
 5059POPC   D2A66232  40.165  20.488   6.566
 5059POPC   C3A66233  39.994  20.612   6.947
 5059POPC   C4A66234  40.289  20.773   7.240
 5059POPC   C1B66235  39.872  20.256   6.142
 5059POPC   C2B66236  39.686  20.331   6.582
 5059POPC   C3B66237  39.754  20.151   6.998
 5059POPC   C4B66238  39.768  20.217   7.446
 5060POPC   NC366239  40.118  37.510   5.480
 5060POPC   PO466240  39.610  37.812   5.193
 5060POPC   GL166241  39.822  37.881   5.683
 5060POPC   GL266242  40.198  37.811   5.891
 5060POPC   C1A66243  39.782  37.654   6.131
 5060POPC   D2A66244  39.923  37.714   6.559
 5060POPC   C3A66245  39.921  37.505   6.955
 5060POPC   C4A66246  40.170  37.749   7.223
 5060POPC   C1B66247  40.336  37.896   6.343
 5060POPC   C2B66248  40.411  37.597   6.718
 5060POPC   C3B66249  40.516  37.310   7.047
 5060POPC   C4B66250  40.377  37.359   7.474
 5061POPC   NC366251  15.254  12.533   5.502
 5061POPC   PO466252  14.855  11.966   5.316
 5061POPC   GL166253  15.032  11.894   5.759
 5061POPC   GL266254  15.188  12.207   5.889
 5061POPC   C1A66255  15.213  11.777   6.171
 5061POPC   D2A66256  15.221  11.940   6.601
 5061POPC   C3A66257  14.810  11.996   6.767
 5061POPC   C4A66258  14.680  12.067   7.206
 5061POPC   C1B66259  15.349  12.397   6.272
 5061POPC   C2B66260  15.580  12.514   6.643
 5061POPC   C3B66261  15.414  12.548   7.064
 5061POPC   C4B66262  15.167  12.188   7.262
 5062POPC   NC366263   5.039  31.236   5.216
 5062POPC   PO466264   5.154  30.571   5.383
 5062POPC   GL166265   4.993  30.680   5.735
 5062POPC   GL266266   4.849  31.014   5.652
 5062POPC   C1A66267   5.239  30.707   6.117
 5062POPC   D2A66268   5.118  30.816   6.528
 5062POPC   C3A66269   5.286  30.635   6.898
 5062POPC   C4A66270   5.178  30.692   7.306
 5062POPC   C1B66271   4.807  30.985   6.121
 5062POPC   C2B66272   4.618  30.939   6.543
 5062POPC   C3B66273   4.854  30.953   6.957
 5062POPC   C4B66274   4.685  30.911   7.365
 5063POPC   NC366275  20.201   9.777   5.283
 5063POPC   PO466276  20.815   9.616   5.267
 5063POPC   GL166277  20.528   9.594   5.642
 5063POPC   GL266278  20.467   9.967   5.692
 5063POPC   C1A66279  20.392   9.668   6.086
 5063POPC   D2A66280  20.646   9.824   6.434
 5063POPC   C3A66281  20.674   9.594   6.800
 5063POPC   C4A66282  20.506   9.705   7.202
 5063POPC   C1B66283  20.425  10.187   6.109
 5063POPC   C2B66284  20.343  10.226   6.566
 5063POPC   C3B66285  20.602  10.114   6.920
 5063POPC   C4B66286  20.900  10.009   7.289
 5064POPC   NC366287  16.058  36.698   5.328
 5064POPC   PO466288  16.187  37.347   5.485
 5064POPC   GL166289  15.975  37.138   5.824
 5064POPC   GL266290  15.932  36.780   5.823
 5064POPC   C1A66291  15.924  37.028   6.269
 5064POPC   D2A66292  16.035  36.766   6.621
 5064POPC   C3A66293  15.845  37.063   6.908
 5064POPC   C4A66294  15.859  37.350   7.228
 5064POPC   C1B66295  15.693  36.557   6.155
 5064POPC   C2B66296  15.529  36.631   6.586
 5064POPC   C3B66297  15.720  36.588   7.018
 5064POPC   C4B66298  16.139  36.718   7.178
 5065POPC   NC366299  36.526   0.167   5.360
 5065POPC   PO466300  35.909   0.473   5.436
 5065POPC   GL166301  36.045   0.514   5.838
 5065POPC   GL266302  35.782   0.730   5.923
 5065POPC   C1A66303  36.161   0.699   6.237
 5065POPC   D2A66304  36.489   0.711   6.494
 5065POPC   C3A66305  36.348   0.650   6.910
 5065POPC   C4A66306  36.010   0.728   7.185
 5065POPC   C1B66307  35.800   0.350   6.270
 5065POPC   C2B66308  35.868   0.131   6.665
 5065POPC   C3B66309  35.718   0.217   7.098
 5065POPC   C4B66310  35.963   0.290   7.467
 5066POPC   NC366311  44.223   5.923   5.364
 5066POPC   PO466312  43.675   6.241   5.422
 5066POPC   GL166313  43.751   6.006   5.777
 5066POPC   GL266314  44.040   5.813   5.829
 5066POPC   C1A66315  43.675   5.855   6.181
 5066POPC   D2A66316  43.910   5.670   6.506
 5066POPC   C3A66317  43.722   5.752   6.887
 5066POPC   C4A66318  43.820   5.904   7.282
 5066POPC   C1B66319  44.123   6.123   6.143
 5066POPC   C2B66320  44.240   6.068   6.576
 5066POPC   C3B66321  44.251   6.314   6.933
 5066POPC   C4B66322  44.090   6.311   7.346
 5067POPC   NC366323  20.021   5.390   5.489
 5067POPC   PO466324  19.834   4.716   5.444
 5067POPC   GL166325  19.624   4.924   5.768
 5067POPC   GL266326  19.631   5.303   5.824
 5067POPC   C1A66327  19.787   4.972   6.173
 5067POPC   D2A66328  19.659   5.188   6.506
 5067POPC   C3A66329  19.731   4.894   6.842
 5067POPC   C4A66330  19.683   5.009   7.253
 5067POPC   C1B66331  19.986   5.457   6.114
 5067POPC   C2B66332  20.059   5.619   6.498
 5067POPC   C3B66333  19.858   5.497   6.869
 5067POPC   C4B66334  19.900   5.463   7.288
 5068POPC   NC366335  21.568  33.245   5.297
 5068POPC   PO466336  21.280  32.612   5.508
 5068POPC   GL166337  21.326  33.068   5.732
 5068POPC   GL266338  21.023  33.307   5.803
 5068POPC   C1A66339  21.475  33.167   6.173
 5068POPC   D2A66340  21.679  32.910   6.517
 5068POPC   C3A66341  21.480  32.959   6.938
 5068POPC   C4A66342  21.450  33.377   7.106
 5068POPC   C1B66343  20.999  32.990   6.163
 5068POPC   C2B66344  21.166  32.866   6.547
 5068POPC   C3B66345  21.036  32.669   6.926
 5068POPC   C4B66346  20.987  32.823   7.305
 5069POPC   NC366347  13.368   9.288   5.554
 5069POPC   PO466348  12.859   8.881   5.358
 5069POPC   GL166349  12.794   8.844   5.748
 5069POPC   GL266350  12.907   9.172   5.799
 5069POPC   C1A66351  12.652   8.607   6.112
 5069POPC   D2A66352  12.716   8.734   6.550
 5069POPC   C3A66353  12.963   8.697   6.933
 5069POPC   C4A66354  12.921   8.627   7.386
 5069POPC   C1B66355  12.659   9.113   6.166
 5069POPC   C2B66356  12.759   9.255   6.568
 5069POPC   C3B66357  13.010   9.240   6.922
 5069POPC   C4B66358  12.764   9.092   7.252
 5070POPC   NC366359  13.339  37.131   5.444
 5070POPC   PO466360  13.490  36.502   5.376
 5070POPC   GL166361  13.708  36.746   5.750
 5070POPC   GL266362  13.476  36.937   5.928
 5070POPC   C1A66363  13.966  36.909   6.114
 5070POPC   D2A66364  14.114  37.073   6.559
 5070POPC   C3A66365  13.786  37.110   6.861
 5070POPC   C4A66366  13.699  37.064   7.307
 5070POPC   C1B66367  13.553  36.666   6.305
 5070POPC   C2B66368  13.749  36.584   6.722
 5070POPC   C3B66369  13.430  36.754   7.011
 5070POPC   C4B66370  13.254  37.205   7.100
 5071POPC   NC366371  26.973  35.643   5.360
 5071POPC   PO466372  27.008  34.992   5.459
 5071POPC   GL166373  26.859  35.209   5.862
 5071POPC   GL266374  26.789  35.562   5.832
 5071POPC   C1A66375  26.644  35.279   6.260
 5071POPC   D2A66376  26.679  35.446   6.672
 5071POPC   C3A66377  26.775  35.188   7.023
 5071POPC   C4A66378  26.686  34.979   7.429
 5071POPC   C1B66379  26.931  35.707   6.245
 5071POPC   C2B66380  27.087  35.758   6.662
 5071POPC   C3B66381  26.954  35.674   7.093
 5071POPC   C4B66382  26.817  35.470   7.473
 5072POPC   NC366383  10.620  24.169   5.578
 5072POPC   PO466384  10.739  23.506   5.452
 5072POPC   GL166385  10.448  23.696   5.758
 5072POPC   GL266386  10.708  23.825   5.952
 5072POPC   C1A66387  10.255  23.850   6.194
 5072POPC   D2A66388  10.110  23.885   6.662
 5072POPC   C3A66389  10.359  23.727   7.037
 5072POPC   C4A66390  10.318  23.647   7.484
 5072POPC   C1B66391  10.693  24.055   6.336
 5072POPC   C2B66392  10.659  23.708   6.606
 5072POPC   C3B66393  10.872  23.730   6.974
 5072POPC   C4B66394  10.915  24.003   7.285
 5073POPC   NC366395  37.830  13.062   5.341
 5073POPC   PO466396  37.316  12.652   5.302
 5073POPC   GL166397  37.593  12.760   5.691
 5073POPC   GL266398  37.849  12.525   5.837
 5073POPC   C1A66399  37.729  13.102   5.993
 5073POPC   D2A66400  37.842  13.238   6.430
 5073POPC   C3A66401  37.872  12.991   6.804
 5073POPC   C4A66402  37.555  13.069   7.152
 5073POPC   C1B66403  37.861  12.698   6.258
 5073POPC   C2B66404  37.527  12.701   6.551
 5073POPC   C3B66405  37.571  12.579   6.984
 5073POPC   C4B66406  37.251  12.547   7.286
 5074POPC   NC366407  14.632   9.308   5.797
 5074POPC   PO466408  14.504   8.776   5.477
 5074POPC   GL166409  14.237   8.934   5.781
 5074POPC   GL266410  14.219   8.595   5.883
 5074POPC   C1A66411  14.319   8.935   6.228
 5074POPC   D2A66412  14.521   9.158   6.528
 5074POPC   C3A66413  14.448   9.004   6.932
 5074POPC   C4A66414  14.691   9.051   7.334
 5074POPC   C1B66415  14.131   8.468   6.271
 5074POPC   C2B66416  14.301   8.486   6.678
 5074POPC   C3B66417  14.115   8.626   7.027
 5074POPC   C4B66418  14.259   8.773   7.383
 5075POPC   NC366419  16.199  33.984   5.427
 5075POPC   PO466420  16.794  33.673   5.372
 5075POPC   GL166421  16.811  33.736   5.831
 5075POPC   GL266422  16.463  33.706   5.829
 5075POPC   C1A66423  16.911  33.816   6.311
 5075POPC   D2A66424  16.946  33.603   6.745
 5075POPC   C3A66425  16.971  33.907   7.116
 5075POPC   C4A66426  17.148  34.048   7.537
 5075POPC   C1B66427  16.401  33.752   6.293
 5075POPC   C2B66428  16.517  33.885   6.729
 5075POPC   C3B66429  16.476  33.771   7.190
 5075POPC   C4B66430  16.292  33.787   7.624
 5076POPC   NC366431  42.154  43.413   5.351
 5076POPC   PO466432  42.058  42.755   5.479
 5076POPC   GL166433  42.366  42.982   5.784
 5076POPC   GL266434  42.296  43.300   5.816
 5076POPC   C1A66435  42.406  43.132   6.268
 5076POPC   D2A66436  42.174  43.291   6.643
 5076POPC   C3A66437  42.425  43.310   7.024
 5076POPC   C4A66438  42.527  43.264   7.492
 5076POPC   C1B66439  41.990  43.431   6.164
 5076POPC   C2B66440  41.808  43.669   6.533
 5076POPC   C3B66441  41.980  43.669   6.960
 5076POPC   C4B66442  42.059  43.447   7.349
 5077POPC   NC366443  23.639  40.606   5.338
 5077POPC   PO466444  23.384  41.174   5.582
 5077POPC   GL166445  23.685  40.869   5.777
 5077POPC   GL266446  23.870  40.512   5.797
 5077POPC   C1A66447  23.534  40.637   6.125
 5077POPC   D2A66448  23.446  40.775   6.498
 5077POPC   C3A66449  23.708  40.641   6.821
 5077POPC   C4A66450  23.597  40.767   7.197
 5077POPC   C1B66451  24.052  40.782   6.130
 5077POPC   C2B66452  24.222  40.758   6.546
 5077POPC   C3B66453  24.110  40.942   6.936
 5077POPC   C4B66454  24.000  41.056   7.348
 5078POPC   NC366455  43.581   4.290   5.189
 5078POPC   PO466456  43.322   4.147   5.688
 5078POPC   GL166457  43.033   4.152   6.020
 5078POPC   GL266458  42.908   4.487   6.088
 5078POPC   C1A66459  43.139   4.215   6.459
 5078POPC   D2A66460  43.270   4.536   6.764
 5078POPC   C3A66461  43.267   4.402   7.171
 5078POPC   C4A66462  42.954   4.170   7.412
 5078POPC   C1B66463  42.780   4.560   6.540
 5078POPC   C2B66464  42.783   4.419   6.978
 5078POPC   C3B66465  42.658   4.587   7.384
 5078POPC   C4B66466  42.748   4.988   7.589
 5079POPC   NC366467  22.391  20.681   5.494
 5079POPC   PO466468  21.857  20.318   5.479
 5079POPC   GL166469  22.093  20.466   5.861
 5079POPC   GL266470  22.373  20.237   5.841
 5079POPC   C1A66471  22.198  20.802   6.200
 5079POPC   D2A66472  22.469  21.001   6.560
 5079POPC   C3A66473  22.377  20.836   6.972
 5079POPC   C4A66474  21.920  20.701   7.088
 5079POPC   C1B66475  22.439  20.355   6.270
 5079POPC   C2B66476  22.207  20.442   6.658
 5079POPC   C3B66477  22.293  20.336   7.094
 5079POPC   C4B66478  22.219  20.174   7.496
 5080POPC   NC366479  28.162  40.712   5.233
 5080POPC   PO466480  27.652  41.019   5.620
 5080POPC   GL166481  27.502  40.723   5.925
 5080POPC   GL266482  27.480  41.005   6.136
 5080POPC   C1A66483  27.391  40.487   6.309
 5080POPC   D2A66484  27.219  40.414   6.715
 5080POPC   C3A66485  27.358  40.671   7.075
 5080POPC   C4A66486  27.760  40.642   7.268
 5080POPC   C1B66487  27.853  40.746   6.296
 5080POPC   C2B66488  27.776  40.604   6.713
 5080POPC   C3B66489  27.734  41.009   6.918
 5080POPC   C4B66490  27.970  41.135   7.241
 5081POPC   NC366491   4.893   4.058   5.124
 5081POPC   PO466492   4.409   4.527   5.423
 5081POPC   GL166493   4.333   4.475   5.893
 5081POPC   GL266494   4.348   4.195   5.944
 5081POPC   C1A66495   4.184   4.376   6.369
 5081POPC   D2A66496   4.331   4.142   6.752
 5081POPC   C3A66497   4.452   4.415   7.113
 5081POPC   C4A66498   4.363   4.491   7.554
 5081POPC   C1B66499   4.632   4.095   6.289
 5081POPC   C2B66500   4.829   3.892   6.647
 5081POPC   C3B66501   4.718   3.945   7.069
 5081POPC   C4B66502   4.508   4.028   7.450
 5082POPC   NC366503  17.825  36.833   5.412
 5082POPC   PO466504  17.298  37.266   5.361
 5082POPC   GL166505  17.440  36.985   5.715
 5082POPC   GL266506  17.764  37.085   5.839
 5082POPC   C1A66507  17.391  36.948   6.183
 5082POPC   D2A66508  17.311  37.185   6.578
 5082POPC   C3A66509  17.379  36.951   6.964
 5082POPC   C4A66510  17.604  36.711   7.316
 5082POPC   C1B66511  17.875  37.099   6.245
 5082POPC   C2B66512  17.748  36.904   6.594
 5082POPC   C3B66513  17.896  36.968   6.973
 5082POPC   C4B66514  18.069  36.939   7.353
 5083POPC   NC366515   7.618  28.345   5.309
 5083POPC   PO466516   7.220  27.886   5.484
 5083POPC   GL166517   7.491  28.072   5.809
 5083POPC   GL266518   7.438  28.383   5.780
 5083POPC   C1A66519   7.717  28.109   6.193
 5083POPC   D2A66520   7.694  28.326   6.583
 5083POPC   C3A66521   7.324  28.293   6.859
 5083POPC   C4A66522   7.399  28.159   7.261
 5083POPC   C1B66523   7.520  28.637   6.119
 5083POPC   C2B66524   7.347  28.676   6.499
 5083POPC   C3B66525   7.544  28.778   6.864
 5083POPC   C4B66526   7.416  28.655   7.243
 5084POPC   NC366527  37.421  33.838   5.593
 5084POPC   PO466528  38.098  33.534   5.495
 5084POPC   GL166529  37.919  33.818   5.829
 5084POPC   GL266530  37.713  33.580   5.926
 5084POPC   C1A66531  37.774  33.948   6.267
 5084POPC   D2A66532  37.601  33.832   6.699
 5084POPC   C3A66533  37.840  34.039   7.026
 5084POPC   C4A66534  37.901  33.960   7.493
 5084POPC   C1B66535  37.341  33.428   6.119
 5084POPC   C2B66536  37.170  33.432   6.529
 5084POPC   C3B66537  37.397  33.369   6.907
 5084POPC   C4B66538  37.636  33.600   7.209
 5085POPC   NC366539  20.971  21.070   5.547
 5085POPC   PO466540  20.361  21.256   5.391
 5085POPC   GL166541  20.611  21.393   5.728
 5085POPC   GL266542  20.527  21.090   5.868
 5085POPC   C1A66543  20.613  21.598   6.144
 5085POPC   D2A66544  20.838  21.562   6.562
 5085POPC   C3A66545  20.705  21.505   6.994
 5085POPC   C4A66546  20.347  21.556   7.251
 5085POPC   C1B66547  20.697  21.117   6.266
 5085POPC   C2B66548  20.682  20.931   6.628
 5085POPC   C3B66549  20.870  21.006   6.984
 5085POPC   C4B66550  20.622  21.094   7.313
 5086POPC   NC366551   1.558  12.053   5.287
 5086POPC   PO466552   0.930  12.004   5.353
 5086POPC   GL166553   1.180  12.143   5.745
 5086POPC   GL266554   1.413  11.902   5.844
 5086POPC   C1A66555   1.246  12.155   6.237
 5086POPC   D2A66556   1.276  11.929   6.637
 5086POPC   C3A66557   1.143  12.111   7.017
 5086POPC   C4A66558   0.900  11.970   7.374
 5086POPC   C1B66559   1.630  11.782   6.262
 5086POPC   C2B66560   1.695  11.662   6.724
 5086POPC   C3B66561   1.369  11.612   7.079
 5086POPC   C4B66562   1.480  11.674   7.524
 5087POPC   NC366563  13.839  10.706   5.443
 5087POPC   PO466564  13.217  10.428   5.395
 5087POPC   GL166565  13.455  10.599   5.754
 5087POPC   GL266566  13.699  10.375   5.794
 5087POPC   C1A66567  13.731  10.772   6.102
 5087POPC   D2A66568  13.884  10.733   6.516
 5087POPC   C3A66569  13.588  10.570   6.817
 5087POPC   C4A66570  13.663  10.632   7.233
 5087POPC   C1B66571  13.890  10.304   6.195
 5087POPC   C2B66572  13.807  10.155   6.610
 5087POPC   C3B66573  13.975  10.281   7.009
 5087POPC   C4B66574  13.946  10.208   7.487
 5088POPC   NC366575  32.447   9.401   5.538
 5088POPC   PO466576  32.215   8.950   5.052
 5088POPC   GL166577  32.125   8.994   5.563
 5088POPC   GL266578  31.964   9.286   5.731
 5088POPC   C1A66579  32.285   8.873   6.014
 5088POPC   D2A66580  32.171   8.960   6.479
 5088POPC   C3A66581  32.233   8.821   6.916
 5088POPC   C4A66582  32.112   8.899   7.347
 5088POPC   C1B66583  32.200   9.385   6.146
 5088POPC   C2B66584  32.286   9.456   6.600
 5088POPC   C3B66585  32.229   9.326   7.031
 5088POPC   C4B66586  32.382   9.321   7.433
 5089POPC   NC366587  14.978  32.897   4.854
 5089POPC   PO466588  15.310  32.962   5.338
 5089POPC   GL166589  15.251  32.953   5.804
 5089POPC   GL266590  14.897  33.001   5.789
 5089POPC   C1A66591  15.434  33.017   6.256
 5089POPC   D2A66592  15.536  33.186   6.699
 5089POPC   C3A66593  15.371  33.004   7.117
 5089POPC   C4A66594  15.220  32.783   7.510
 5089POPC   C1B66595  14.928  33.092   6.260
 5089POPC   C2B66596  15.011  33.104   6.738
 5089POPC   C3B66597  14.858  32.953   7.161
 5089POPC   C4B66598  14.792  33.070   7.589
 5090POPC   NC366599  11.294  38.814   5.240
 5090POPC   PO466600  11.111  39.476   5.208
 5090POPC   GL166601  11.218  39.345   5.635
 5090POPC   GL266602  11.042  39.058   5.740
 5090POPC   C1A66603  11.284  39.320   6.102
 5090POPC   D2A66604  11.570  39.372   6.431
 5090POPC   C3A66605  11.445  39.409   6.844
 5090POPC   C4A66606  11.730  39.329   7.184
 5090POPC   C1B66607  11.070  38.840   6.152
 5090POPC   C2B66608  11.334  38.893   6.532
 5090POPC   C3B66609  11.505  38.921   6.950
 5090POPC   C4B66610  11.325  39.074   7.371
 5091POPC   NC366611   6.959   6.911   5.424
 5091POPC   PO466612   6.380   6.654   5.320
 5091POPC   GL166613   6.602   6.570   5.714
 5091POPC   GL266614   6.558   6.897   5.763
 5091POPC   C1A66615   6.623   6.360   6.154
 5091POPC   D2A66616   6.747   6.485   6.571
 5091POPC   C3A66617   6.504   6.305   6.870
 5091POPC   C4A66618   6.526   6.435   7.267
 5091POPC   C1B66619   6.611   6.886   6.188
 5091POPC   C2B66620   6.940   6.988   6.461
 5091POPC   C3B66621   7.013   6.911   6.881
 5091POPC   C4B66622   6.649   6.919   7.159
 5092POPC   NC366623  42.191  29.492   5.467
 5092POPC   PO466624  42.088  28.857   5.413
 5092POPC   GL166625  42.216  29.064   5.802
 5092POPC   GL266626  42.555  29.140   5.688
 5092POPC   C1A66627  42.098  29.260   6.218
 5092POPC   D2A66628  42.086  29.354   6.694
 5092POPC   C3A66629  41.929  29.284   7.135
 5092POPC   C4A66630  42.173  29.390   7.513
 5092POPC   C1B66631  42.724  29.080   6.114
 5092POPC   C2B66632  42.506  29.128   6.508
 5092POPC   C3B66633  42.448  29.023   6.942
 5092POPC   C4B66634  42.800  28.923   7.213
 5093POPC   NC366635  36.580  21.528   5.564
 5093POPC   PO466636  36.376  20.931   5.362
 5093POPC   GL166637  36.219  21.200   5.741
 5093POPC   GL266638  36.456  21.087   5.948
 5093POPC   C1A66639  36.225  21.515   6.148
 5093POPC   D2A66640  36.444  21.791   6.443
 5093POPC   C3A66641  36.354  21.760   6.887
 5093POPC   C4A66642  35.981  21.540   7.071
 5093POPC   C1B66643  36.003  21.060   6.169
 5093POPC   C2B66644  36.008  21.252   6.554
 5093POPC   C3B66645  36.424  21.299   6.702
 5093POPC   C4B66646  36.402  21.175   7.119
 5094POPC   NC366647  43.329  11.800   5.447
 5094POPC   PO466648  42.951  12.337   5.526
 5094POPC   GL166649  43.121  12.295   5.902
 5094POPC   GL266650  43.444  12.226   5.792
 5094POPC   C1A66651  43.125  12.143   6.314
 5094POPC   D2A66652  43.031  12.316   6.716
 5094POPC   C3A66653  43.165  12.037   7.056
 5094POPC   C4A66654  42.966  11.805   7.375
 5094POPC   C1B66655  43.615  12.135   6.203
 5094POPC   C2B66656  43.514  12.114   6.658
 5094POPC   C3B66657  43.446  12.463   6.956
 5094POPC   C4B66658  43.258  12.445   7.377
 5095POPC   NC366659  15.188  35.177   5.595
 5095POPC   PO466660  15.332  35.823   5.454
 5095POPC   GL166661  15.331  35.647   5.829
 5095POPC   GL266662  14.986  35.623   5.822
 5095POPC   C1A66663  15.464  35.534   6.225
 5095POPC   D2A66664  15.283  35.359   6.599
 5095POPC   C3A66665  15.441  35.445   7.007
 5095POPC   C4A66666  15.273  35.300   7.403
 5095POPC   C1B66667  14.968  35.352   6.192
 5095POPC   C2B66668  14.756  35.441   6.590
 5095POPC   C3B66669  14.807  35.416   7.059
 5095POPC   C4B66670  14.805  35.464   7.538
 5096POPC   NC366671  25.503  18.348   5.016
 5096POPC   PO466672  25.088  17.832   5.359
 5096POPC   GL166673  25.043  18.240   5.565
 5096POPC   GL266674  25.381  18.398   5.545
 5096POPC   C1A66675  24.880  18.301   6.001
 5096POPC   D2A66676  25.128  18.223   6.400
 5096POPC   C3A66677  25.266  18.064   6.793
 5096POPC   C4A66678  25.107  18.059   7.158
 5096POPC   C1B66679  25.358  18.480   5.999
 5096POPC   C2B66680  25.416  18.632   6.446
 5096POPC   C3B66681  25.247  18.556   6.847
 5096POPC   C4B66682  25.442  18.480   7.229
 5097POPC   NC366683  14.133   3.039   5.470
 5097POPC   PO466684  14.494   2.466   5.308
 5097POPC   GL166685  14.406   2.594   5.721
 5097POPC   GL266686  14.297   2.311   5.834
 5097POPC   C1A66687  14.526   2.833   6.109
 5097POPC   D2A66688  14.396   3.004   6.500
 5097POPC   C3A66689  14.527   2.777   6.850
 5097POPC   C4A66690  14.451   2.804   7.283
 5097POPC   C1B66691  14.110   2.393   6.189
 5097POPC   C2B66692  14.121   2.573   6.558
 5097POPC   C3B66693  14.180   2.423   6.947
 5097POPC   C4B66694  14.087   2.464   7.365
 5098POPC   NC366695   6.923  27.101   5.570
 5098POPC   PO466696   6.879  26.483   5.434
 5098POPC   GL166697   6.885  26.601   5.856
 5098POPC   GL266698   6.568  26.769   5.859
 5098POPC   C1A66699   6.807  26.758   6.284
 5098POPC   D2A66700   6.598  26.723   6.663
 5098POPC   C3A66701   6.860  26.899   6.979
 5098POPC   C4A66702   6.749  27.037   7.383
 5098POPC   C1B66703   6.217  26.567   6.100
 5098POPC   C2B66704   6.128  26.426   6.537
 5098POPC   C3B66705   6.159  26.486   7.003
 5098POPC   C4B66706   6.269  26.559   7.450
 5099POPC   NC366707  37.453  30.220   5.068
 5099POPC   PO466708  37.767  29.666   5.298
 5099POPC   GL166709  37.562  29.828   5.694
 5099POPC   GL266710  37.309  30.009   5.912
 5099POPC   C1A66711  37.749  29.841   6.121
 5099POPC   D2A66712  37.652  29.732   6.563
 5099POPC   C3A66713  37.998  29.835   6.854
 5099POPC   C4A66714  37.990  30.115   7.210
 5099POPC   C1B66715  37.459  30.212   6.315
 5099POPC   C2B66716  37.568  30.219   6.790
 5099POPC   C3B66717  37.384  30.228   7.224
 5099POPC   C4B66718  37.321  30.414   7.699
 5100POPC   NC366719  25.571  15.832   5.474
 5100POPC   PO466720  24.959  15.934   5.218
 5100POPC   GL166721  25.141  15.972   5.680
 5100POPC   GL266722  24.994  15.717   5.892
 5100POPC   C1A66723  25.411  16.117   6.070
 5100POPC   D2A66724  25.484  16.002   6.525
 5100POPC   C3A66725  25.189  16.080   6.888
 5100POPC   C4A66726  25.442  16.138   7.257
 5100POPC   C1B66727  25.355  15.628   6.166
 5100POPC   C2B66728  25.321  15.528   6.590
 5100POPC   C3B66729  25.461  15.663   6.969
 5100POPC   C4B66730  25.282  15.522   7.308
 5101POPC   NC366731  17.698   6.497   5.433
 5101POPC   PO466732  17.326   7.031   5.405
 5101POPC   GL166733  17.611   6.939   5.783
 5101POPC   GL266734  17.588   6.610   5.920
 5101POPC   C1A66735  17.736   6.951   6.239
 5101POPC   D2A66736  17.516   6.895   6.612
 5101POPC   C3A66737  17.716   6.673   6.933
 5101POPC   C4A66738  17.499   6.695   7.287
 5101POPC   C1B66739  17.378   6.425   6.296
 5101POPC   C2B66740  17.349   6.376   6.751
 5101POPC   C3B66741  17.276   6.228   7.147
 5101POPC   C4B66742  17.506   6.241   7.525
 5102POPC   NC366743  10.625  24.567   5.134
 5102POPC   PO466744  10.178  24.330   5.540
 5102POPC   GL166745  10.328  24.686   5.763
 5102POPC   GL266746  10.079  24.949   5.901
 5102POPC   C1A66747  10.559  24.631   6.149
 5102POPC   D2A66748  10.767  24.604   6.545
 5102POPC   C3A66749  10.576  24.650   6.979
 5102POPC   C4A66750  10.416  24.656   7.418
 5102POPC   C1B66751  10.064  24.583   6.203
 5102POPC   C2B66752  10.290  24.378   6.554
 5102POPC   C3B66753  10.562  24.161   6.853
 5102POPC   C4B66754  10.418  24.164   7.290
 5103POPC   NC366755  11.606  24.500   5.312
 5103POPC   PO466756  10.966  24.265   5.263
 5103POPC   GL166757  11.186  24.440   5.648
 5103POPC   GL266758  11.498  24.259   5.732
 5103POPC   C1A66759  11.280  24.626   6.070
 5103POPC   D2A66760  11.278  24.708   6.527
 5103POPC   C3A66761  11.078  24.376   6.844
 5103POPC   C4A66762  11.233  24.386   7.255
 5103POPC   C1B66763  11.703  24.304   6.101
 5103POPC   C2B66764  11.529  24.260   6.488
 5103POPC   C3B66765  11.568  24.465   6.868
 5103POPC   C4B66766  11.756  24.284   7.188
 5104POPC   NC366767  34.677  23.094   5.492
 5104POPC   PO466768  34.430  22.536   5.350
 5104POPC   GL166769  34.668  22.570   5.744
 5104POPC   GL266770  35.014  22.725   5.772
 5104POPC   C1A66771  34.624  22.659   6.199
 5104POPC   D2A66772  34.408  22.779   6.580
 5104POPC   C3A66773  34.574  22.715   6.972
 5104POPC   C4A66774  34.390  22.875   7.372
 5104POPC   C1B66775  35.066  22.939   6.195
 5104POPC   C2B66776  34.870  23.058   6.613
 5104POPC   C3B66777  34.787  23.160   7.072
 5104POPC   C4B66778  34.780  23.183   7.543
 5105POPC   NC366779  27.858  23.833   5.336
 5105POPC   PO466780  27.303  23.440   5.251
 5105POPC   GL166781  27.410  23.549   5.751
 5105POPC   GL266782  27.684  23.777   5.819
 5105POPC   C1A66783  27.408  23.651   6.235
 5105POPC   D2A66784  27.244  23.562   6.660
 5105POPC   C3A66785  27.500  23.668   7.009
 5105POPC   C4A66786  27.736  23.447   7.303
 5105POPC   C1B66787  27.807  23.989   6.231
 5105POPC   C2B66788  27.694  24.016   6.680
 5105POPC   C3B66789  27.945  23.941   7.076
 5105POPC   C4B66790  27.848  23.909   7.523
 5106POPC   NC366791   7.675  10.550   5.260
 5106POPC   PO466792   8.275  10.410   5.260
 5106POPC   GL166793   8.344  10.532   5.710
 5106POPC   GL266794   8.022  10.690   5.842
 5106POPC   C1A66795   8.422  10.261   6.101
 5106POPC   D2A66796   8.257  10.204   6.523
 5106POPC   C3A66797   8.472  10.206   6.899
 5106POPC   C4A66798   8.360  10.581   7.095
 5106POPC   C1B66799   8.182  10.684   6.291
 5106POPC   C2B66800   8.057  10.772   6.720
 5106POPC   C3B66801   7.942  10.873   7.155
 5106POPC   C4B66802   7.788  10.878   7.586
 5107POPC   NC366803  29.375   6.555   5.362
 5107POPC   PO466804  28.820   6.841   5.634
 5107POPC   GL166805  29.162   6.817   5.860
 5107POPC   GL266806  29.212   6.464   5.823
 5107POPC   C1A66807  29.108   6.899   6.291
 5107POPC   D2A66808  29.038   6.954   6.729
 5107POPC   C3A66809  29.368   6.769   7.004
 5107POPC   C4A66810  29.627   6.425   7.155
 5107POPC   C1B66811  28.983   6.401   6.183
 5107POPC   C2B66812  29.098   6.474   6.609
 5107POPC   C3B66813  28.969   6.450   7.036
 5107POPC   C4B66814  28.942   6.120   7.312
 5108POPC   NC366815  43.068  32.747   5.538
 5108POPC   PO466816  43.412  33.085   5.194
 5108POPC   GL166817  43.416  33.027   5.751
 5108POPC   GL266818  43.500  32.661   5.826
 5108POPC   C1A66819  43.163  33.057   6.191
 5108POPC   D2A66820  43.029  33.138   6.667
 5108POPC   C3A66821  43.370  33.273   6.999
 5108POPC   C4A66822  43.445  33.403   7.444
 5108POPC   C1B66823  43.315  32.465   6.184
 5108POPC   C2B66824  43.173  32.656   6.541
 5108POPC   C3B66825  43.252  32.757   6.938
 5108POPC   C4B66826  43.547  32.491   7.137
 5109POPC   NC366827  16.583   2.161   5.354
 5109POPC   PO466828  16.935   1.545   5.538
 5109POPC   GL166829  16.606   1.795   5.813
 5109POPC   GL266830  16.681   2.173   5.863
 5109POPC   C1A66831  16.418   1.960   6.240
 5109POPC   D2A66832  16.574   2.297   6.529
 5109POPC   C3A66833  16.711   2.165   6.973
 5109POPC   C4A66834  16.521   1.963   7.343
 5109POPC   C1B66835  16.985   2.351   6.195
 5109POPC   C2B66836  17.074   2.118   6.601
 5109POPC   C3B66837  16.924   1.728   6.793
 5109POPC   C4B66838  16.927   1.679   7.235
 5110POPC   NC366839   2.153  33.489   5.456
 5110POPC   PO466840   2.000  32.858   5.308
 5110POPC   GL166841   2.105  32.891   5.732
 5110POPC   GL266842   1.808  32.707   5.771
 5110POPC   C1A66843   2.135  33.072   6.186
 5110POPC   D2A66844   2.053  33.245   6.647
 5110POPC   C3A66845   2.100  32.964   7.035
 5110POPC   C4A66846   2.345  33.079   7.419
 5110POPC   C1B66847   1.662  32.874   6.143
 5110POPC   C2B66848   1.607  33.016   6.552
 5110POPC   C3B66849   1.620  33.177   6.952
 5110POPC   C4B66850   1.655  33.004   7.354
 5111POPC   NC366851  34.650   0.591   5.608
 5111POPC   PO466852  34.349   0.182   5.154
 5111POPC   GL166853  34.719   0.091   5.627
 5111POPC   GL266854  35.045   0.099   5.783
 5111POPC   C1A66855  34.729   0.316   6.151
 5111POPC   D2A66856  34.558   0.640   6.528
 5111POPC   C3A66857  34.625   0.644   7.018
 5111POPC   C4A66858  34.442   0.655   7.490
 5111POPC   C1B66859  34.909  44.850   6.184
 5111POPC   C2B66860  34.565  44.985   6.501
 5111POPC   C3B66861  34.521   0.074   6.941
 5111POPC   C4B66862  34.710   0.263   7.334
 5112POPC   NC366863  24.078  33.645   5.477
 5112POPC   PO466864  23.406  33.626   5.358
 5112POPC   GL166865  23.572  33.815   5.763
 5112POPC   GL266866  23.896  34.026   5.783
 5112POPC   C1A66867  23.598  33.950   6.203
 5112POPC   D2A66868  23.689  33.746   6.589
 5112POPC   C3A66869  23.497  33.892   6.983
 5112POPC   C4A66870  23.346  33.641   7.363
 5112POPC   C1B66871  24.086  33.761   6.138
 5112POPC   C2B66872  24.195  33.756   6.587
 5112POPC   C3B66873  24.010  33.646   6.998
 5112POPC   C4B66874  24.145  33.550   7.419
 5113POPC   NC366875  23.534  13.709   5.362
 5113POPC   PO466876  24.129  13.385   5.644
 5113POPC   GL166877  23.934  13.726   5.901
 5113POPC   GL266878  23.576  13.766   5.867
 5113POPC   C1A66879  23.765  13.778   6.343
 5113POPC   D2A66880  23.756  13.863   6.788
 5113POPC   C3A66881  23.688  13.551   7.129
 5113POPC   C4A66882  23.784  13.270   7.482
 5113POPC   C1B66883  23.372  13.472   6.142
 5113POPC   C2B66884  23.325  13.610   6.569
 5113POPC   C3B66885  23.268  13.924   6.919
 5113POPC   C4B66886  23.588  14.018   7.260
 5114POPC   NC366887   7.070  26.233   5.094
 5114POPC   PO466888   7.508  25.837   5.481
 5114POPC   GL166889   7.622  26.031   5.855
 5114POPC   GL266890   7.613  26.358   5.833
 5114POPC   C1A66891   7.760  26.164   6.288
 5114POPC   D2A66892   7.777  26.408   6.670
 5114POPC   C3A66893   7.611  26.250   7.058
 5114POPC   C4A66894   7.839  26.055   7.370
 5114POPC   C1B66895   7.282  26.404   6.194
 5114POPC   C2B66896   7.022  26.387   6.584
 5114POPC   C3B66897   7.086  26.163   6.978
 5114POPC   C4B66898   7.219  25.760   7.167
 5115POPC   NC366899   9.776  43.683   5.450
 5115POPC   PO466900  10.234  44.089   5.362
 5115POPC   GL166901  10.150  43.817   5.811
 5115POPC   GL266902   9.790  43.758   5.933
 5115POPC   C1A66903  10.082  43.815   6.320
 5115POPC   D2A66904   9.784  44.101   6.563
 5115POPC   C3A66905   9.735  44.060   7.029
 5115POPC   C4A66906   9.944  43.804   7.334
 5115POPC   C1B66907   9.592  43.669   6.310
 5115POPC   C2B66908   9.652  43.413   6.661
 5115POPC   C3B66909   9.554  43.541   7.072
 5115POPC   C4B66910   9.440  43.827   7.391
 5116POPC   NC366911  33.325  21.658   5.498
 5116POPC   PO466912  32.908  22.234   5.182
 5116POPC   GL166913  32.990  22.240   5.672
 5116POPC   GL266914  32.801  22.483   5.856
 5116POPC   C1A66915  33.216  22.280   6.117
 5116POPC   D2A66916  33.335  22.468   6.540
 5116POPC   C3A66917  33.081  22.265   6.857
 5116POPC   C4A66918  32.887  22.359   7.244
 5116POPC   C1B66919  32.694  22.291   6.210
 5116POPC   C2B66920  32.699  22.070   6.562
 5116POPC   C3B66921  32.521  22.225   6.936
 5116POPC   C4B66922  32.420  21.991   7.320
 5117POPC   NC366923  39.114  27.109   5.694
 5117POPC   PO466924  39.243  27.734   5.488
 5117POPC   GL166925  39.403  27.763   5.876
 5117POPC   GL266926  39.512  27.424   5.884
 5117POPC   C1A66927  39.208  27.778   6.302
 5117POPC   D2A66928  38.879  27.728   6.633
 5117POPC   C3A66929  39.032  27.597   7.062
 5117POPC   C4A66930  39.057  27.373   7.458
 5117POPC   C1B66931  39.627  27.505   6.299
 5117POPC   C2B66932  39.507  27.592   6.712
 5117POPC   C3B66933  39.692  27.438   7.081
 5117POPC   C4B66934  39.484  27.673   7.372
 5118POPC   NC366935  14.859  21.626   5.193
 5118POPC   PO466936  15.518  21.497   5.017
 5118POPC   GL166937  15.429  21.609   5.531
 5118POPC   GL266938  15.308  21.291   5.747
 5118POPC   C1A66939  15.566  21.633   6.022
 5118POPC   D2A66940  15.570  21.708   6.518
 5118POPC   C3A66941  15.380  21.464   6.898
 5118POPC   C4A66942  15.475  21.480   7.362
 5118POPC   C1B66943  15.230  21.106   6.197
 5118POPC   C2B66944  14.935  20.984   6.565
 5118POPC   C3B66945  14.837  20.973   7.017
 5118POPC   C4B66946  15.078  21.155   7.306
 5119POPC   NC366947   1.582   7.539   5.003
 5119POPC   PO466948   0.993   7.425   5.351
 5119POPC   GL166949   1.174   7.390   5.746
 5119POPC   GL266950   1.473   7.315   5.592
 5119POPC   C1A66951   1.366   7.612   6.096
 5119POPC   D2A66952   1.448   7.765   6.494
 5119POPC   C3A66953   1.259   7.556   6.850
 5119POPC   C4A66954   1.182   7.708   7.268
 5119POPC   C1B66955   1.628   7.177   5.988
 5119POPC   C2B66956   1.675   7.260   6.432
 5119POPC   C3B66957   1.732   7.220   6.881
 5119POPC   C4B66958   1.546   7.351   7.275
 5120POPC   NC366959  27.136  23.834   5.431
 5120POPC   PO466960  26.820  23.344   5.601
 5120POPC   GL166961  26.759  23.745   5.791
 5120POPC   GL266962  27.057  23.888   5.943
 5120POPC   C1A66963  26.627  23.904   6.187
 5120POPC   D2A66964  26.854  23.969   6.556
 5120POPC   C3A66965  26.770  23.674   6.885
 5120POPC   C4A66966  26.657  23.743   7.314
 5120POPC   C1B66967  26.926  23.498   6.224
 5120POPC   C2B66968  26.978  23.132   6.493
 5120POPC   C3B66969  27.096  23.111   6.923
 5120POPC   C4B66970  27.084  23.433   7.201
 5121POPC   NC366971  20.383  27.334   5.522
 5121POPC   PO466972  20.566  28.017   5.295
 5121POPC   GL166973  20.406  27.780   5.750
 5121POPC   GL266974  20.722  27.549   5.850
 5121POPC   C1A66975  20.397  27.624   6.229
 5121POPC   D2A66976  20.757  27.604   6.571
 5121POPC   C3A66977  20.665  27.712   7.014
 5121POPC   C4A66978  20.255  27.638   7.254
 5121POPC   C1B66979  20.764  27.225   6.200
 5121POPC   C2B66980  20.970  27.134   6.601
 5121POPC   C3B66981  20.909  27.220   7.069
 5121POPC   C4B66982  20.966  27.089   7.504
 5122POPC   NC366983   0.457  14.192   5.432
 5122POPC   PO466984   0.563  14.836   5.424
 5122POPC   GL166985   0.405  14.617   5.779
 5122POPC   GL266986   0.694  14.417   5.839
 5122POPC   C1A66987   0.245  14.367   6.116
 5122POPC   D2A66988   0.351  14.210   6.510
 5122POPC   C3A66989   0.359  14.519   6.819
 5122POPC   C4A66990   0.295  14.339   7.224
 5122POPC   C1B66991   0.859  14.613   6.201
 5122POPC   C2B66992   0.816  14.398   6.572
 5122POPC   C3B66993   0.713  14.161   6.916
 5122POPC   C4B66994   0.808  14.286   7.295
 5123POPC   NC366995  44.845  38.520   5.288
 5123POPC   PO466996   0.527  38.387   5.138
 5123POPC   GL166997   0.353  38.394   5.594
 5123POPC   GL266998   0.559  38.149   5.768
 5123POPC   C1A66999   0.390  38.508   6.071
 5123POPC   D2A67000   0.167  38.503   6.490
 5123POPC   C3A67001   0.382  38.654   6.876
 5123POPC   C4A67002   0.317  38.526   7.320
 5123POPC   C1B67003   0.727  38.089   6.169
 5123POPC   C2B67004   0.535  38.168   6.565
 5123POPC   C3B67005   0.588  38.198   7.006
 5123POPC   C4B67006   0.742  38.263   7.425
 5124POPC   NC367007   7.598  21.552   5.488
 5124POPC   PO467008   7.037  21.410   5.262
 5124POPC   GL167009   7.237  21.252   5.683
 5124POPC   GL267010   7.285  21.598   5.877
 5124POPC   C1A67011   7.518  21.198   6.080
 5124POPC   D2A67012   7.393  21.196   6.524
 5124POPC   C3A67013   7.707  21.113   6.823
 5124POPC   C4A67014   7.701  21.036   7.246
 5124POPC   C1B67015   7.556  21.673   6.275
 5124POPC   C2B67016   7.702  21.630   6.730
 5124POPC   C3B67017   7.574  21.521   7.182
 5124POPC   C4B67018   7.463  21.653   7.672
 5125POPC   NC367019  23.627  32.686   5.583
 5125POPC   PO467020  23.980  33.155   5.481
 5125POPC   GL167021  23.759  33.113   5.841
 5125POPC   GL267022  23.465  33.271   5.747
 5125POPC   C1A67023  23.798  33.025   6.273
 5125POPC   D2A67024  23.914  33.273   6.633
 5125POPC   C3A67025  23.797  32.966   6.884
 5125POPC   C4A67026  23.866  32.773   7.237
 5125POPC   C1B67027  23.528  33.453   6.144
 5125POPC   C2B67028  23.421  33.317   6.527
 5125POPC   C3B67029  23.526  33.400   6.938
 5125POPC   C4B67030  23.737  33.285   7.268
 5126POPC   NC367031  19.965  29.897   5.422
 5126POPC   PO467032  20.665  29.855   5.188
 5126POPC   GL167033  20.713  29.930   5.632
 5126POPC   GL267034  20.389  30.038   5.745
 5126POPC   C1A67035  20.780  29.977   6.094
 5126POPC   D2A67036  20.839  30.105   6.548
 5126POPC   C3A67037  20.877  29.873   6.940
 5126POPC   C4A67038  21.044  30.105   7.282
 5126POPC   C1B67039  20.395  30.304   6.147
 5126POPC   C2B67040  20.330  30.283   6.577
 5126POPC   C3B67041  20.205  30.326   7.002
 5126POPC   C4B67042  20.519  30.153   7.248
 5127POPC   NC367043  39.094   1.316   5.089
 5127POPC   PO467044  38.751   1.558   5.597
 5127POPC   GL167045  39.028   1.243   5.691
 5127POPC   GL267046  39.237   1.414   5.863
 5127POPC   C1A67047  39.105   0.944   6.052
 5127POPC   D2A67048  39.447   0.851   6.353
 5127POPC   C3A67049  39.280   0.859   6.756
 5127POPC   C4A67050  39.328   0.802   7.163
 5127POPC   C1B67051  39.147   1.397   6.249
 5127POPC   C2B67052  39.341   1.338   6.600
 5127POPC   C3B67053  39.350   1.297   7.036
 5127POPC   C4B67054  39.148   1.567   7.311
 5128POPC   NC367055  15.539   1.769   5.269
 5128POPC   PO467056  16.126   2.118   5.409
 5128POPC   GL167057  16.112   2.000   5.785
 5128POPC   GL267058  15.772   1.850   5.738
 5128POPC   C1A67059  15.971   2.222   6.124
 5128POPC   D2A67060  15.924   2.136   6.532
 5128POPC   C3A67061  16.227   2.023   6.834
 5128POPC   C4A67062  16.035   1.940   7.215
 5128POPC   C1B67063  15.881   1.720   6.166
 5128POPC   C2B67064  16.013   1.614   6.581
 5128POPC   C3B67065  15.794   1.581   6.959
 5128POPC   C4B67066  15.390   1.731   7.077
 5129POPC   NC367067  35.976  41.868   5.362
 5129POPC   PO467068  36.436  41.391   5.215
 5129POPC   GL167069  36.213  41.410   5.646
 5129POPC   GL267070  35.940  41.632   5.814
 5129POPC   C1A67071  36.337  41.401   6.073
 5129POPC   D2A67072  36.221  41.632   6.437
 5129POPC   C3A67073  36.269  41.555   6.875
 5129POPC   C4A67074  36.161  41.794   7.263
 5129POPC   C1B67075  35.862  41.245   6.075
 5129POPC   C2B67076  35.847  41.287   6.541
 5129POPC   C3B67077  35.954  41.121   6.963
 5129POPC   C4B67078  36.205  41.307   7.316
 5130POPC   NC367079  34.314  26.992   5.424
 5130POPC   PO467080  33.744  27.172   5.389
 5130POPC   GL167081  33.672  26.964   5.777
 5130POPC   GL267082  33.978  26.777   5.857
 5130POPC   C1A67083  33.755  27.143   6.201
 5130POPC   D2A67084  33.951  27.147   6.616
 5130POPC   C3A67085  33.735  27.209   7.017
 5130POPC   C4A67086  33.908  27.229   7.443
 5130POPC   C1B67087  33.867  26.661   6.315
 5130POPC   C2B67088  33.721  26.707   6.759
 5130POPC   C3B67089  33.829  26.749   7.202
 5130POPC   C4B67090  33.891  26.407   7.533
 5131POPC   NC367091  17.189   9.888   5.456
 5131POPC   PO467092  16.469   9.992   5.462
 5131POPC   GL167093  16.593   9.632   5.757
 5131POPC   GL267094  16.939   9.668   5.845
 5131POPC   C1A67095  16.706   9.344   6.145
 5131POPC   D2A67096  16.967   9.450   6.545
 5131POPC   C3A67097  16.759   9.662   6.891
 5131POPC   C4A67098  16.812   9.700   7.336
 5131POPC   C1B67099  16.811   9.845   6.252
 5131POPC   C2B67100  17.064   9.977   6.615
 5131POPC   C3B67101  16.938  10.122   7.048
 5131POPC   C4B67102  16.768  10.181   7.492
 5132POPC   NC367103  39.795  38.248   5.241
 5132POPC   PO467104  40.201  38.688   5.505
 5132POPC   GL167105  39.967  38.395   5.715
 5132POPC   GL267106  39.770  38.683   5.781
 5132POPC   C1A67107  39.945  38.174   6.115
 5132POPC   D2A67108  39.916  38.262   6.540
 5132POPC   C3A67109  40.175  38.185   6.891
 5132POPC   C4A67110  40.154  38.525   7.192
 5132POPC   C1B67111  39.908  38.677   6.178
 5132POPC   C2B67112  39.822  38.830   6.546
 5132POPC   C3B67113  39.752  38.596   6.916
 5132POPC   C4B67114  39.712  38.716   7.374
 5133POPC   NC367115  40.405  29.410   5.406
 5133POPC   PO467116  41.092  29.147   5.372
 5133POPC   GL167117  40.851  29.287   5.710
 5133POPC   GL267118  41.173  29.347   5.855
 5133POPC   C1A67119  40.623  29.170   6.111
 5133POPC   D2A67120  40.459  29.082   6.555
 5133POPC   C3A67121  40.675  28.877   6.905
 5133POPC   C4A67122  40.712  28.920   7.370
 5133POPC   C1B67123  41.051  29.397   6.285
 5133POPC   C2B67124  41.003  29.195   6.677
 5133POPC   C3B67125  41.008  29.274   7.142
 5133POPC   C4B67126  41.191  29.391   7.554
 5134POPC   NC367127   1.761   1.449   5.044
 5134POPC   PO467128   1.936   0.982   5.501
 5134POPC   GL167129   1.952   1.278   5.885
 5134POPC   GL267130   1.731   1.583   5.881
 5134POPC   C1A67131   2.128   1.313   6.319
 5134POPC   D2A67132   2.014   1.494   6.731
 5134POPC   C3A67133   2.255   1.457   7.098
 5134POPC   C4A67134   2.452   1.346   7.517
 5134POPC   C1B67135   1.663   1.510   6.333
 5134POPC   C2B67136   1.508   1.468   6.748
 5134POPC   C3B67137   1.683   1.372   7.157
 5134POPC   C4B67138   1.591   1.305   7.625
 5135POPC   NC367139   3.978  33.238   5.458
 5135POPC   PO467140   4.633  32.950   5.357
 5135POPC   GL167141   4.663  32.980   5.828
 5135POPC   GL267142   4.548  33.315   5.990
 5135POPC   C1A67143   4.499  32.894   6.272
 5135POPC   D2A67144   4.308  32.963   6.680
 5135POPC   C3A67145   4.617  33.031   6.961
 5135POPC   C4A67146   4.565  32.805   7.299
 5135POPC   C1B67147   4.171  33.296   6.313
 5135POPC   C2B67148   3.991  33.412   6.737
 5135POPC   C3B67149   4.200  33.340   7.121
 5135POPC   C4B67150   4.089  32.969   7.276
 5136POPC   NC367151  39.418  30.206   5.394
 5136POPC   PO467152  40.106  29.840   5.495
 5136POPC   GL167153  40.022  30.074   5.834
 5136POPC   GL267154  39.737  30.295   5.793
 5136POPC   C1A67155  40.095  29.960   6.249
 5136POPC   D2A67156  40.236  29.874   6.676
 5136POPC   C3A67157  39.873  29.839   6.912
 5136POPC   C4A67158  39.994  29.559   7.192
 5136POPC   C1B67159  39.886  30.451   6.210
 5136POPC   C2B67160  39.929  30.282   6.612
 5136POPC   C3B67161  39.839  30.370   7.017
 5136POPC   C4B67162  39.661  30.326   7.419
 5137POPC   NC367163   3.955  19.650   5.429
 5137POPC   PO467164   4.609  19.547   5.209
 5137POPC   GL167165   4.548  19.373   5.649
 5137POPC   GL267166   4.241  19.159   5.640
 5137POPC   C1A67167   4.651  19.054   5.994
 5137POPC   D2A67168   4.633  18.874   6.444
 5137POPC   C3A67169   4.515  19.097   6.842
 5137POPC   C4A67170   4.621  19.015   7.258
 5137POPC   C1B67171   4.163  19.101   6.102
 5137POPC   C2B67172   4.137  19.031   6.530
 5137POPC   C3B67173   4.014  19.178   6.931
 5137POPC   C4B67174   4.224  19.345   7.301
 5138POPC   NC367175  41.986   2.549   5.565
 5138POPC   PO467176  42.358   2.978   5.310
 5138POPC   GL167177  42.462   2.717   5.653
 5138POPC   GL267178  42.249   2.921   5.863
 5138POPC   C1A67179  42.551   2.615   6.106
 5138POPC   D2A67180  42.479   2.499   6.530
 5138POPC   C3A67181  42.509   2.728   6.909
 5138POPC   C4A67182  42.437   2.559   7.296
 5138POPC   C1B67183  42.026   2.719   6.240
 5138POPC   C2B67184  42.027   2.694   6.695
 5138POPC   C3B67185  41.989   2.476   7.077
 5138POPC   C4B67186  41.957   2.643   7.549
 5139POPC   NC367187  11.875  22.745   5.212
 5139POPC   PO467188  12.552  22.886   5.327
 5139POPC   GL167189  12.171  22.819   5.625
 5139POPC   GL267190  12.040  23.173   5.701
 5139POPC   C1A67191  12.145  22.851   6.114
 5139POPC   D2A67192  12.363  22.827   6.554
 5139POPC   C3A67193  12.241  22.654   6.989
 5139POPC   C4A67194  12.191  22.965   7.348
 5139POPC   C1B67195  11.948  23.415   6.100
 5139POPC   C2B67196  11.992  23.332   6.550
 5139POPC   C3B67197  11.948  23.076   6.921
 5139POPC   C4B67198  11.758  22.689   7.155
 5140POPC   NC367199  41.874  39.475   5.431
 5140POPC   PO467200  41.295  39.132   5.365
 5140POPC   GL167201  41.393  39.289   5.787
 5140POPC   GL267202  41.748  39.315   5.900
 5140POPC   C1A67203  41.273  39.172   6.222
 5140POPC   D2A67204  41.349  39.284   6.681
 5140POPC   C3A67205  41.372  38.980   7.023
 5140POPC   C4A67206  41.489  39.087   7.473
 5140POPC   C1B67207  41.769  39.224   6.334
 5140POPC   C2B67208  41.813  39.015   6.720
 5140POPC   C3B67209  41.808  39.256   7.085
 5140POPC   C4B67210  42.007  39.564   7.305
 5141POPC   NC367211  20.321   2.070   5.387
 5141POPC   PO467212  19.713   1.848   5.334
 5141POPC   GL167213  19.950   1.813   5.708
 5141POPC   GL267214  20.046   2.132   5.868
 5141POPC   C1A67215  19.840   1.751   6.132
 5141POPC   D2A67216  19.589   1.834   6.469
 5141POPC   C3A67217  19.636   1.720   6.907
 5141POPC   C4A67218  19.873   1.527   7.206
 5141POPC   C1B67219  19.891   2.226   6.327
 5141POPC   C2B67220  19.739   2.217   6.784
 5141POPC   C3B67221  19.993   2.215   7.174
 5141POPC   C4B67222  20.088   2.326   7.617
 5142POPC   NC367223   1.479  22.506   5.426
 5142POPC   PO467224   2.119  22.300   5.318
 5142POPC   GL167225   2.207  22.315   5.786
 5142POPC   GL267226   1.898  22.458   5.886
 5142POPC   C1A67227   2.030  22.123   6.241
 5142POPC   D2A67228   2.061  22.274   6.707
 5142POPC   C3A67229   2.009  21.981   7.073
 5142POPC   C4A67230   1.873  21.661   7.403
 5142POPC   C1B67231   2.179  22.600   6.238
 5142POPC   C2B67232   2.347  22.683   6.672
 5142POPC   C3B67233   2.191  22.706   7.073
 5142POPC   C4B67234   1.831  22.490   7.183
 5143POPC   NC367235  35.851  44.537   5.592
 5143POPC   PO467236  36.471  44.702   5.448
 5143POPC   GL167237  36.268  44.745   5.827
 5143POPC   GL267238  35.943  44.991   5.835
 5143POPC   C1A67239  36.331  44.549   6.241
 5143POPC   D2A67240  36.138  44.602   6.636
 5143POPC   C3A67241  36.328  44.627   7.030
 5143POPC   C4A67242  36.000  44.799   7.269
 5143POPC   C1B67243  36.192   0.044   6.223
 5143POPC   C2B67244  36.424   0.072   6.591
 5143POPC   C3B67245  36.288   0.154   7.011
 5143POPC   C4B67246  36.440   0.038   7.396
 5144POPC   NC367247   0.868   5.249   5.372
 5144POPC   PO467248   0.201   5.031   5.409
 5144POPC   GL167249   0.497   4.952   5.733
 5144POPC   GL267250   0.555   5.288   5.851
 5144POPC   C1A67251   0.759   4.876   6.113
 5144POPC   D2A67252   0.645   4.865   6.558
 5144POPC   C3A67253   0.866   4.896   6.964
 5144POPC   C4A67254   0.537   4.968   7.294
 5144POPC   C1B67255   0.301   5.161   6.241
 5144POPC   C2B67256   0.165   5.228   6.698
 5144POPC   C3B67257   0.191   5.332   7.157
 5144POPC   C4B67258   0.436   5.399   7.592
 5145POPC   NC367259  44.565  41.909   5.439
 5145POPC   PO467260  44.779  41.311   5.325
 5145POPC   GL167261  44.806  41.564   5.774
 5145POPC   GL267262  44.813  41.927   5.905
 5145POPC   C1A67263  44.813  41.557   6.262
 5145POPC   D2A67264   0.020  41.310   6.598
 5145POPC   C3A67265  44.740  41.427   6.902
 5145POPC   C4A67266  44.702  41.780   7.121
 5145POPC   C1B67267   0.019  42.018   6.333
 5145POPC   C2B67268   0.062  41.803   6.735
 5145POPC   C3B67269   0.196  41.598   7.137
 5145POPC   C4B67270   0.271  41.521   7.620
 5146POPC   NC367271   6.805  38.464   5.333
 5146POPC   PO467272   6.129  38.541   5.342
 5146POPC   GL167273   6.407  38.363   5.624
 5146POPC   GL267274   6.546  38.665   5.730
 5146POPC   C1A67275   6.567  38.177   6.030
 5146POPC   D2A67276   6.674  38.335   6.472
 5146POPC   C3A67277   6.741  38.132   6.874
 5146POPC   C4A67278   6.622  38.271   7.265
 5146POPC   C1B67279   6.462  38.653   6.153
 5146POPC   C2B67280   6.470  38.814   6.577
 5146POPC   C3B67281   6.744  38.668   6.908
 5146POPC   C4B67282   6.981  38.805   7.257
 5147POPC   NC367283   1.501  16.138   5.561
 5147POPC   PO467284   1.020  15.713   5.281
 5147POPC   GL167285   1.161  15.802   5.734
 5147POPC   GL267286   1.491  15.679   5.821
 5147POPC   C1A67287   1.260  15.944   6.193
 5147POPC   D2A67288   1.342  15.906   6.642
 5147POPC   C3A67289   0.946  15.885   6.918
 5147POPC   C4A67290   0.727  16.059   7.299
 5147POPC   C1B67291   1.656  15.622   6.253
 5147POPC   C2B67292   1.500  15.401   6.621
 5147POPC   C3B67293   1.359  15.554   7.003
 5147POPC   C4B67294   1.493  15.626   7.498
 5148POPC   NC367295  19.232  17.152   5.633
 5148POPC   PO467296  18.835  16.636   5.520
 5148POPC   GL167297  18.866  16.557   5.942
 5148POPC   GL267298  19.187  16.729   5.942
 5148POPC   C1A67299  18.961  16.600   6.406
 5148POPC   D2A67300  19.147  16.411   6.807
 5148POPC   C3A67301  19.056  16.590   7.234
 5148POPC   C4A67302  19.156  16.534   7.702
 5148POPC   C1B67303  19.286  17.074   6.265
 5148POPC   C2B67304  19.268  17.181   6.728
 5148POPC   C3B67305  19.214  17.122   7.189
 5148POPC   C4B67306  19.002  16.983   7.567
 5149POPC   NC367307  31.426  20.420   5.435
 5149POPC   PO467308  31.483  19.773   5.171
 5149POPC   GL167309  31.485  19.820   5.679
 5149POPC   GL267310  31.814  19.848   5.873
 5149POPC   C1A67311  31.435  20.095   6.091
 5149POPC   D2A67312  31.246  20.154   6.523
 5149POPC   C3A67313  31.470  20.063   6.932
 5149POPC   C4A67314  31.278  19.977   7.354
 5149POPC   C1B67315  31.538  19.600   6.177
 5149POPC   C2B67316  31.381  19.606   6.626
 5149POPC   C3B67317  31.473  19.567   7.096
 5149POPC   C4B67318  31.707  19.745   7.473
 5150POPC   NC367319  11.067  23.671   5.165
 5150POPC   PO467320  11.492  23.421   5.589
 5150POPC   GL167321  11.162  23.634   5.766
 5150POPC   GL267322  11.094  23.929   5.633
 5150POPC   C1A67323  11.093  23.540   6.176
 5150POPC   D2A67324  11.430  23.361   6.423
 5150POPC   C3A67325  11.286  23.492   6.794
 5150POPC   C4A67326  11.242  23.483   7.228
 5150POPC   C1B67327  11.158  24.077   6.082
 5150POPC   C2B67328  11.157  23.920   6.530
 5150POPC   C3B67329  11.378  23.977   6.921
 5150POPC   C4B67330  11.458  23.914   7.321
 5151POPC   NC367331  32.516  30.140   5.661
 5151POPC   PO467332  32.091  30.333   5.278
 5151POPC   GL167333  32.021  30.181   5.756
 5151POPC   GL267334  32.156  29.835   5.880
 5151POPC   C1A67335  32.125  30.215   6.236
 5151POPC   D2A67336  32.246  30.347   6.688
 5151POPC   C3A67337  32.208  30.101   7.086
 5151POPC   C4A67338  32.366  29.754   7.378
 5151POPC   C1B67339  32.101  29.706   6.337
 5151POPC   C2B67340  32.152  29.672   6.802
 5151POPC   C3B67341  31.895  29.683   7.190
 5151POPC   C4B67342  31.935  29.571   7.656
 5152POPC   NC367343  36.344   1.702   5.592
 5152POPC   PO467344  35.826   2.154   5.467
 5152POPC   GL167345  35.996   2.008   5.828
 5152POPC   GL267346  36.245   2.238   5.966
 5152POPC   C1A67347  36.082   1.804   6.210
 5152POPC   D2A67348  35.989   2.056   6.547
 5152POPC   C3A67349  36.176   1.919   6.904
 5152POPC   C4A67350  36.059   1.897   7.329
 5152POPC   C1B67351  36.516   2.103   6.322
 5152POPC   C2B67352  36.687   1.922   6.742
 5152POPC   C3B67353  36.612   2.104   7.146
 5152POPC   C4B67354  36.232   2.347   7.191
 5153POPC   NC367355  20.132  43.584   5.041
 5153POPC   PO467356  20.699  43.837   5.418
 5153POPC   GL167357  20.473  43.984   5.806
 5153POPC   GL267358  20.786  43.915   5.951
 5153POPC   C1A67359  20.411  44.085   6.249
 5153POPC   D2A67360  20.483  43.857   6.602
 5153POPC   C3A67361  20.512  44.000   7.034
 5153POPC   C4A67362  20.497  43.780   7.458
 5153POPC   C1B67363  20.910  44.024   6.371
 5153POPC   C2B67364  20.960  43.845   6.789
 5153POPC   C3B67365  20.966  43.846   7.234
 5153POPC   C4B67366  20.910  44.045   7.635
 5154POPC   NC367367  25.246  31.421   5.248
 5154POPC   PO467368  25.431  31.864   5.662
 5154POPC   GL167369  25.365  31.560   5.892
 5154POPC   GL267370  25.045  31.433   5.748
 5154POPC   C1A67371  25.448  31.614   6.342
 5154POPC   D2A67372  25.260  31.864   6.679
 5154POPC   C3A67373  25.291  31.693   7.096
 5154POPC   C4A67374  25.455  31.546   7.518
 5154POPC   C1B67375  24.948  31.603   6.172
 5154POPC   C2B67376  25.063  31.409   6.602
 5154POPC   C3B67377  25.044  31.229   6.984
 5154POPC   C4B67378  25.283  31.110   7.315
 5155POPC   NC367379  18.331  31.821   5.287
 5155POPC   PO467380  18.119  31.213   5.230
 5155POPC   GL167381  18.292  31.365   5.666
 5155POPC   GL267382  18.571  31.632   5.712
 5155POPC   C1A67383  18.334  31.270   6.142
 5155POPC   D2A67384  18.498  31.205   6.602
 5155POPC   C3A67385  18.155  31.262   6.932
 5155POPC   C4A67386  17.942  31.673   7.044
 5155POPC   C1B67387  18.534  31.769   6.156
 5155POPC   C2B67388  18.681  31.703   6.570
 5155POPC   C3B67389  18.500  31.648   6.956
 5155POPC   C4B67390  18.683  31.706   7.338
 5156POPC   NC367391  43.119  23.966   5.629
 5156POPC   PO467392  42.841  23.449   5.393
 5156POPC   GL167393  42.917  23.558   5.846
 5156POPC   GL267394  43.262  23.660   6.014
 5156POPC   C1A67395  42.816  23.707   6.262
 5156POPC   D2A67396  43.018  23.816   6.643
 5156POPC   C3A67397  42.688  23.762   6.915
 5156POPC   C4A67398  42.615  23.673   7.358
 5156POPC   C1B67399  43.195  24.095   6.258
 5156POPC   C2B67400  43.392  24.320   6.619
 5156POPC   C3B67401  43.469  24.116   6.972
 5156POPC   C4B67402  43.165  23.834   7.139
 5157POPC   NC367403  25.832  32.043   5.553
 5157POPC   PO467404  26.324  32.463   5.501
 5157POPC   GL167405  26.062  32.388   5.861
 5157POPC   GL267406  26.128  32.075   5.972
 5157POPC   C1A67407  25.991  32.483   6.282
 5157POPC   D2A67408  25.937  32.299   6.665
 5157POPC   C3A67409  25.822  32.548   6.999
 5157POPC   C4A67410  25.894  32.463   7.380
 5157POPC   C1B67411  25.935  31.790   6.277
 5157POPC   C2B67412  25.780  31.812   6.723
 5157POPC   C3B67413  25.969  31.988   7.100
 5157POPC   C4B67414  25.805  31.931   7.502
 5158POPC   NC367415   7.991  43.583   5.427
 5158POPC   PO467416   8.715  43.659   5.359
 5158POPC   GL167417   8.432  43.780   5.745
 5158POPC   GL267418   8.388  44.132   5.811
 5158POPC   C1A67419   8.072  43.661   6.067
 5158POPC   D2A67420   7.899  43.702   6.492
 5158POPC   C3A67421   8.167  43.916   6.768
 5158POPC   C4A67422   8.128  43.916   7.203
 5158POPC   C1B67423   8.202  44.116   6.252
 5158POPC   C2B67424   7.928  44.309   6.545
 5158POPC   C3B67425   8.000  44.369   6.999
 5158POPC   C4B67426   8.346  44.383   7.266
 5159POPC   NC367427   8.022   0.993   5.505
 5159POPC   PO467428   7.799   1.484   5.133
 5159POPC   GL167429   8.103   1.488   5.642
 5159POPC   GL267430   8.450   1.355   5.808
 5159POPC   C1A67431   8.065   1.335   6.130
 5159POPC   D2A67432   8.328   1.097   6.457
 5159POPC   C3A67433   8.094   1.042   6.846
 5159POPC   C4A67434   7.970   1.333   7.167
 5159POPC   C1B67435   8.528   1.533   6.258
 5159POPC   C2B67436   8.799   1.460   6.623
 5159POPC   C3B67437   8.747   1.408   7.059
 5159POPC   C4B67438   8.426   1.111   7.225
 5160POPC   NC367439  30.179   4.963   5.489
 5160POPC   PO467440  29.655   5.315   5.347
 5160POPC   GL167441  29.679   4.944   5.694
 5160POPC   GL267442  29.971   4.783   5.895
 5160POPC   C1A67443  29.557   4.962   6.130
 5160POPC   D2A67444  29.687   5.207   6.492
 5160POPC   C3A67445  29.701   4.995   6.888
 5160POPC   C4A67446  29.731   5.150   7.302
 5160POPC   C1B67447  30.088   5.014   6.236
 5160POPC   C2B67448  30.230   4.941   6.653
 5160POPC   C3B67449  30.210   5.043   7.069
 5160POPC   C4B67450  30.071   4.776   7.375
 5161POPC   NC367451  40.069  42.333   5.432
 5161POPC   PO467452  39.536  41.925   5.608
 5161POPC   GL167453  39.764  42.296   5.847
 5161POPC   GL267454  40.038  42.590   5.878
 5161POPC   C1A67455  39.798  42.413   6.290
 5161POPC   D2A67456  39.935  42.548   6.695
 5161POPC   C3A67457  39.909  42.204   6.992
 5161POPC   C4A67458  39.926  42.307   7.407
 5161POPC   C1B67459  40.351  42.460   6.214
 5161POPC   C2B67460  40.427  42.343   6.665
 5161POPC   C3B67461  40.318  42.492   7.089
 5161POPC   C4B67462  40.350  42.618   7.511
 5162POPC   NC367463  17.836  16.930   5.384
 5162POPC   PO467464  17.450  16.474   5.573
 5162POPC   GL167465  17.594  16.801   5.827
 5162POPC   GL267466  17.408  17.053   5.673
 5162POPC   C1A67467  17.847  16.848   6.206
 5162POPC   D2A67468  17.995  16.657   6.584
 5162POPC   C3A67469  17.680  16.641   6.918
 5162POPC   C4A67470  17.733  16.629   7.373
 5162POPC   C1B67471  17.436  17.181   6.136
 5162POPC   C2B67472  17.498  17.010   6.575
 5162POPC   C3B67473  17.487  17.107   7.032
 5162POPC   C4B67474  17.230  17.244   7.388
 5163POPC   NC367475  37.255   0.090   5.208
 5163POPC   PO467476  36.783   0.549   5.251
 5163POPC   GL167477  36.595   0.585   5.658
 5163POPC   GL267478  36.918   0.406   5.758
 5163POPC   C1A67479  36.531   0.396   6.070
 5163POPC   D2A67480  36.874   0.360   6.354
 5163POPC   C3A67481  36.802   0.415   6.770
 5163POPC   C4A67482  36.738   0.400   7.179
 5163POPC   C1B67483  37.178   0.113   5.994
 5163POPC   C2B67484  37.344   0.125   6.392
 5163POPC   C3B67485  37.218   0.120   6.850
 5163POPC   C4B67486  37.240   0.295   7.233
 5164POPC   NC367487  37.416   3.152   5.486
 5164POPC   PO467488  37.754   3.609   5.440
 5164POPC   GL167489  37.710   3.451   5.854
 5164POPC   GL267490  37.917   3.172   5.874
 5164POPC   C1A67491  37.745   3.631   6.278
 5164POPC   D2A67492  37.971   3.581   6.682
 5164POPC   C3A67493  37.710   3.514   7.041
 5164POPC   C4A67494  37.300   3.508   7.227
 5164POPC   C1B67495  37.981   3.179   6.331
 5164POPC   C2B67496  37.833   3.090   6.742
 5164POPC   C3B67497  38.035   3.139   7.142
 5164POPC   C4B67498  38.137   3.450   7.478
 5165POPC   NC367499  37.998   2.340   5.451
 5165POPC   PO467500  37.410   2.671   5.500
 5165POPC   GL167501  37.591   2.767   5.882
 5165POPC   GL267502  37.412   3.042   5.981
 5165POPC   C1A67503  37.675   2.771   6.340
 5165POPC   D2A67504  37.494   2.693   6.735
 5165POPC   C3A67505  37.818   2.653   7.001
 5165POPC   C4A67506  38.246   2.658   7.155
 5165POPC   C1B67507  37.451   3.222   6.376
 5165POPC   C2B67508  37.342   3.218   6.788
 5165POPC   C3B67509  37.480   3.036   7.151
 5165POPC   C4B67510  37.670   3.235   7.476
 5166POPC   NC367511  19.511  10.454   5.147
 5166POPC   PO467512  18.881  10.650   5.297
 5166POPC   GL167513  19.195  10.561   5.714
 5166POPC   GL267514  19.227  10.198   5.869
 5166POPC   C1A67515  19.082  10.552   6.189
 5166POPC   D2A67516  19.037  10.848   6.525
 5166POPC   C3A67517  19.097  10.666   6.909
 5166POPC   C4A67518  19.049  10.855   7.307
 5166POPC   C1B67519  19.487  10.204   6.207
 5166POPC   C2B67520  19.307  10.237   6.595
 5166POPC   C3B67521  19.399  10.268   7.024
 5166POPC   C4B67522  19.216  10.389   7.416
 5167POPC   NC367523   3.971   1.711   5.270
 5167POPC   PO467524   4.408   2.171   5.413
 5167POPC   GL167525   4.343   1.981   5.828
 5167POPC   GL267526   4.092   2.202   5.895
 5167POPC   C1A67527   4.312   1.962   6.312
 5167POPC   D2A67528   4.373   2.259   6.643
 5167POPC   C3A67529   4.466   2.154   7.070
 5167POPC   C4A67530   4.773   2.303   7.351
 5167POPC   C1B67531   3.965   2.330   6.307
 5167POPC   C2B67532   3.859   2.304   6.746
 5167POPC   C3B67533   3.982   2.257   7.167
 5167POPC   C4B67534   4.051   1.896   7.443
 5168POPC   NC367535  28.572  22.358   5.410
 5168POPC   PO467536  28.190  21.972   5.693
 5168POPC   GL167537  28.565  22.156   5.898
 5168POPC   GL267538  28.536  22.539   5.886
 5168POPC   C1A67539  28.692  22.040   6.334
 5168POPC   D2A67540  28.346  21.843   6.597
 5168POPC   C3A67541  28.233  21.910   7.036
 5168POPC   C4A67542  28.295  21.898   7.492
 5168POPC   C1B67543  28.607  22.545   6.323
 5168POPC   C2B67544  28.609  22.365   6.747
 5168POPC   C3B67545  28.663  22.172   7.143
 5168POPC   C4B67546  28.601  22.293   7.553
 5169POPC   NC367547  19.190  29.282   5.302
 5169POPC   PO467548  18.704  29.659   5.065
 5169POPC   GL167549  18.808  29.451   5.636
 5169POPC   GL267550  18.984  29.136   5.740
 5169POPC   C1A67551  18.718  29.333   6.103
 5169POPC   D2A67552  18.822  29.340   6.534
 5169POPC   C3A67553  18.811  29.115   6.877
 5169POPC   C4A67554  18.884  29.227   7.280
 5169POPC   C1B67555  19.232  29.068   6.111
 5169POPC   C2B67556  19.252  29.022   6.563
 5169POPC   C3B67557  19.315  29.174   6.984
 5169POPC   C4B67558  19.323  28.889   7.316
 5170POPC   NC367559  14.812  38.024   5.366
 5170POPC   PO467560  15.209  37.487   5.402
 5170POPC   GL167561  15.109  37.554   5.805
 5170POPC   GL267562  15.074  37.891   5.779
 5170POPC   C1A67563  15.021  37.381   6.211
 5170POPC   D2A67564  15.150  37.427   6.627
 5170POPC   C3A67565  14.934  37.292   6.985
 5170POPC   C4A67566  15.104  37.593   7.261
 5170POPC   C1B67567  14.907  37.930   6.162
 5170POPC   C2B67568  14.744  37.730   6.497
 5170POPC   C3B67569  14.799  37.782   6.896
 5170POPC   C4B67570  14.737  38.008   7.236
 5171POPC   NC367571  41.054  11.069   5.336
 5171POPC   PO467572  40.573  11.561   5.073
 5171POPC   GL167573  40.784  11.382   5.597
 5171POPC   GL267574  41.099  11.363   5.774
 5171POPC   C1A67575  40.666  11.284   6.077
 5171POPC   D2A67576  40.514  11.523   6.464
 5171POPC   C3A67577  40.564  11.394   6.889
 5171POPC   C4A67578  40.386  11.572   7.267
 5171POPC   C1B67579  41.118  11.093   6.157
 5171POPC   C2B67580  40.895  11.124   6.564
 5171POPC   C3B67581  41.057  11.257   6.987
 5171POPC   C4B67582  41.122  10.996   7.337
 5172POPC   NC367583   9.309   8.355   5.151
 5172POPC   PO467584   9.850   7.956   5.440
 5172POPC   GL167585   9.940   8.019   5.845
 5172POPC   GL267586   9.887   8.347   5.906
 5172POPC   C1A67587  10.153   8.036   6.242
 5172POPC   D2A67588  10.020   8.304   6.589
 5172POPC   C3A67589   9.775   8.055   6.878
 5172POPC   C4A67590  10.017   8.048   7.249
 5172POPC   C1B67591   9.606   8.319   6.281
 5172POPC   C2B67592   9.544   8.507   6.709
 5172POPC   C3B67593   9.735   8.492   7.130
 5172POPC   C4B67594   9.611   8.231   7.495
 5173POPC   NC367595   3.218  10.592   5.576
 5173POPC   PO467596   3.836  10.375   5.583
 5173POPC   GL167597   3.635  10.496   5.943
 5173POPC   GL267598   3.294  10.377   6.007
 5173POPC   C1A67599   3.724  10.303   6.332
 5173POPC   D2A67600   3.568  10.200   6.723
 5173POPC   C3A67601   3.711  10.463   7.034
 5173POPC   C4A67602   3.903  10.549   7.391
 5173POPC   C1B67603   3.280  10.571   6.386
 5173POPC   C2B67604   3.223  10.575   6.793
 5173POPC   C3B67605   3.249  10.312   7.165
 5173POPC   C4B67606   3.251  10.486   7.623
 5174POPC   NC367607  26.907  36.540   5.477
 5174POPC   PO467608  26.567  35.889   5.448
 5174POPC   GL167609  26.840  36.091   5.757
 5174POPC   GL267610  27.158  35.972   5.878
 5174POPC   C1A67611  26.737  36.182   6.192
 5174POPC   D2A67612  26.570  35.955   6.545
 5174POPC   C3A67613  26.763  36.117   6.898
 5174POPC   C4A67614  26.681  36.187   7.323
 5174POPC   C1B67615  27.245  36.140   6.332
 5174POPC   C2B67616  27.284  36.209   6.818
 5174POPC   C3B67617  27.177  36.108   7.257
 5174POPC   C4B67618  27.335  36.171   7.694
 5175POPC   NC367619  18.469  34.933   5.463
 5175POPC   PO467620  18.018  35.443   5.340
 5175POPC   GL167621  18.254  35.419   5.727
 5175POPC   GL267622  18.611  35.479   5.664
 5175POPC   C1A67623  18.317  35.617   6.157
 5175POPC   D2A67624  18.189  35.564   6.602
 5175POPC   C3A67625  18.169  35.112   6.806
 5175POPC   C4A67626  18.261  35.062   7.249
 5175POPC   C1B67627  18.627  35.224   6.047
 5175POPC   C2B67628  18.564  35.210   6.473
 5175POPC   C3B67629  18.594  35.354   6.910
 5175POPC   C4B67630  18.265  35.557   7.118
 5176POPC   NC367631  14.063   4.032   5.373
 5176POPC   PO467632  14.654   4.096   5.279
 5176POPC   GL167633  14.638   4.096   5.750
 5176POPC   GL267634  14.280   4.096   5.820
 5176POPC   C1A67635  14.582   4.195   6.218
 5176POPC   D2A67636  14.807   4.396   6.585
 5176POPC   C3A67637  14.601   4.321   6.990
 5176POPC   C4A67638  14.337   4.518   7.293
 5176POPC   C1B67639  14.108   3.935   6.191
 5176POPC   C2B67640  13.962   3.917   6.609
 5176POPC   C3B67641  14.151   4.070   6.979
 5176POPC   C4B67642  14.238   4.037   7.393
 5177POPC   NC367643  14.895   1.644   5.476
 5177POPC   PO467644  15.229   2.054   5.029
 5177POPC   GL167645  15.262   2.074   5.594
 5177POPC   GL267646  15.051   1.898   5.897
 5177POPC   C1A67647  15.469   2.084   6.086
 5177POPC   D2A67648  15.498   1.851   6.517
 5177POPC   C3A67649  15.517   2.161   6.864
 5177POPC   C4A67650  15.377   2.333   7.262
 5177POPC   C1B67651  14.851   1.938   6.311
 5177POPC   C2B67652  15.023   1.906   6.735
 5177POPC   C3B67653  14.962   1.987   7.170
 5177POPC   C4B67654  14.842   1.732   7.518
 5178POPC   NC367655  25.461  16.898   5.301
 5178POPC   PO467656  25.635  16.299   5.422
 5178POPC   GL167657  25.426  16.510   5.734
 5178POPC   GL267658  25.147  16.709   5.694
 5178POPC   C1A67659  25.410  16.621   6.161
 5178POPC   D2A67660  25.229  16.446   6.516
 5178POPC   C3A67661  25.564  16.445   6.846
 5178POPC   C4A67662  25.619  16.652   7.248
 5178POPC   C1B67663  24.985  16.869   6.078
 5178POPC   C2B67664  25.171  16.970   6.478
 5178POPC   C3B67665  25.178  16.809   6.897
 5178POPC   C4B67666  25.008  16.924   7.277
 5179POPC   NC367667  27.430  41.327   5.352
 5179POPC   PO467668  27.629  41.925   5.369
 5179POPC   GL167669  27.712  41.568   5.714
 5179POPC   GL267670  27.380  41.453   5.851
 5179POPC   C1A67671  27.835  41.409   6.173
 5179POPC   D2A67672  27.601  41.473   6.603
 5179POPC   C3A67673  27.764  41.570   7.047
 5179POPC   C4A67674  27.767  41.514   7.512
 5179POPC   C1B67675  27.525  41.808   6.131
 5179POPC   C2B67676  27.389  41.988   6.514
 5179POPC   C3B67677  27.590  42.031   6.898
 5179POPC   C4B67678  27.504  41.939   7.364
 5180POPC   NC367679  19.994   8.680   5.502
 5180POPC   PO467680  20.074   9.337   5.390
 5180POPC   GL167681  19.833   9.132   5.723
 5180POPC   GL267682  19.570   8.858   5.707
 5180POPC   C1A67683  19.978   8.970   6.124
 5180POPC   D2A67684  20.260   8.773   6.418
 5180POPC   C3A67685  20.038   8.878   6.799
 5180POPC   C4A67686  19.920   9.086   7.192
 5180POPC   C1B67687  19.588   8.616   6.109
 5180POPC   C2B67688  19.424   8.562   6.549
 5180POPC   C3B67689  19.622   8.603   6.977
 5180POPC   C4B67690  19.646   8.726   7.408
 5181POPC   NC367691   5.086  14.461   5.192
 5181POPC   PO467692   4.933  14.939   5.377
 5181POPC   GL167693   5.162  14.714   5.735
 5181POPC   GL267694   5.521  14.604   5.743
 5181POPC   C1A67695   5.111  14.558   6.203
 5181POPC   D2A67696   4.909  14.478   6.647
 5181POPC   C3A67697   5.111  14.573   7.070
 5181POPC   C4A67698   5.005  14.615   7.515
 5181POPC   C1B67699   5.593  14.379   6.170
 5181POPC   C2B67700   5.404  14.320   6.618
 5181POPC   C3B67701   5.349  14.109   7.045
 5181POPC   C4B67702   5.505  13.833   7.399
 5182POPC   NC367703   3.799   9.138   5.514
 5182POPC   PO467704   3.254   8.779   5.239
 5182POPC   GL167705   3.352   8.788   5.700
 5182POPC   GL267706   3.662   8.803   5.892
 5182POPC   C1A67707   3.209   9.035   6.082
 5182POPC   D2A67708   3.330   9.261   6.483
 5182POPC   C3A67709   3.340   8.983   6.825
 5182POPC   C4A67710   3.205   8.887   7.225
 5182POPC   C1B67711   3.706   9.160   6.168
 5182POPC   C2B67712   3.837   9.250   6.601
 5182POPC   C3B67713   3.719   9.269   7.028
 5182POPC   C4B67714   3.712   8.870   7.237
 5183POPC   NC367715   2.509  32.702   5.363
 5183POPC   PO467716   2.626  33.431   5.387
 5183POPC   GL167717   2.546  33.150   5.718
 5183POPC   GL267718   2.837  32.916   5.750
 5183POPC   C1A67719   2.629  33.222   6.168
 5183POPC   D2A67720   2.504  33.001   6.557
 5183POPC   C3A67721   2.529  33.232   6.927
 5183POPC   C4A67722   2.726  33.380   7.280
 5183POPC   C1B67723   2.761  32.744   6.171
 5183POPC   C2B67724   2.829  32.604   6.599
 5183POPC   C3B67725   2.818  32.820   7.003
 5183POPC   C4B67726   2.820  32.901   7.439
 5184POPC   NC367727   1.162  33.621   5.418
 5184POPC   PO467728   0.951  34.196   5.045
 5184POPC   GL167729   1.047  34.109   5.549
 5184POPC   GL267730   1.421  34.015   5.666
 5184POPC   C1A67731   1.062  33.980   6.027
 5184POPC   D2A67732   1.081  33.770   6.456
 5184POPC   C3A67733   0.924  33.930   6.855
 5184POPC   C4A67734   1.160  33.913   7.300
 5184POPC   C1B67735   1.553  33.931   6.129
 5184POPC   C2B67736   1.682  34.071   6.545
 5184POPC   C3B67737   1.520  34.058   6.966
 5184POPC   C4B67738   1.690  33.952   7.385
 5185POPC   NC367739   6.187  38.177   5.052
 5185POPC   PO467740   5.789  37.793   5.412
 5185POPC   GL167741   5.811  37.667   5.815
 5185POPC   GL267742   5.611  37.927   5.920
 5185POPC   C1A67743   5.831  37.494   6.211
 5185POPC   D2A67744   5.696  37.544   6.631
 5185POPC   C3A67745   5.971  37.432   6.979
 5185POPC   C4A67746   6.121  37.384   7.423
 5185POPC   C1B67747   5.677  37.995   6.329
 5185POPC   C2B67748   5.466  38.006   6.708
 5185POPC   C3B67749   5.797  37.939   6.954
 5185POPC   C4B67750   5.861  37.796   7.323
 5186POPC   NC367751  31.943  19.762   5.338
 5186POPC   PO467752  32.624  19.736   5.250
 5186POPC   GL167753  32.367  19.832   5.695
 5186POPC   GL267754  32.203  19.537   5.817
 5186POPC   C1A67755  32.375  19.838   6.220
 5186POPC   D2A67756  32.471  19.826   6.731
 5186POPC   C3A67757  32.387  20.114   7.092
 5186POPC   C4A67758  32.362  20.246   7.583
 5186POPC   C1B67759  32.064  19.426   6.215
 5186POPC   C2B67760  32.162  19.424   6.668
 5186POPC   C3B67761  32.001  19.704   7.015
 5186POPC   C4B67762  32.208  19.784   7.431
 5187POPC   NC367763  19.483  14.786   5.457
 5187POPC   PO467764  19.727  15.386   5.363
 5187POPC   GL167765  19.751  15.249   5.770
 5187POPC   GL267766  19.604  15.562   5.889
 5187POPC   C1A67767  19.922  15.079   6.178
 5187POPC   D2A67768  19.948  15.181   6.635
 5187POPC   C3A67769  19.790  14.867   6.930
 5187POPC   C4A67770  19.719  14.880   7.366
 5187POPC   C1B67771  19.687  15.541   6.329
 5187POPC   C2B67772  19.808  15.761   6.702
 5187POPC   C3B67773  19.989  15.701   7.094
 5187POPC   C4B67774  19.998  15.328   7.377
 5188POPC   NC367775  39.145  29.244   5.408
 5188POPC   PO467776  39.366  29.538   5.946
 5188POPC   GL167777  39.233  29.077   5.995
 5188POPC   GL267778  38.946  28.857   5.885
 5188POPC   C1A67779  39.163  29.009   6.444
 5188POPC   D2A67780  39.075  29.363   6.733
 5188POPC   C3A67781  39.116  29.255   7.139
 5188POPC   C4A67782  39.367  28.895   7.188
 5188POPC   C1B67783  38.865  28.628   6.268
 5188POPC   C2B67784  38.936  28.650   6.733
 5188POPC   C3B67785  38.919  28.650   7.202
 5188POPC   C4B67786  38.994  28.958   7.542
 5189POPC   NC367787  43.891  32.423   5.391
 5189POPC   PO467788  44.518  32.596   5.313
 5189POPC   GL167789  44.223  32.563   5.724
 5189POPC   GL267790  44.033  32.204   5.834
 5189POPC   C1A67791  43.935  32.585   6.123
 5189POPC   D2A67792  43.706  32.544   6.522
 5189POPC   C3A67793  43.996  32.424   6.861
 5189POPC   C4A67794  43.972  32.260   7.286
 5189POPC   C1B67795  43.679  32.087   6.139
 5189POPC   C2B67796  43.539  31.917   6.568
 5189POPC   C3B67797  43.629  31.974   7.025
 5189POPC   C4B67798  43.667  31.900   7.476
 5190POPC   NC367799  26.927   6.936   5.419
 5190POPC   PO467800  27.105   6.265   5.478
 5190POPC   GL167801  26.828   6.475   5.796
 5190POPC   GL267802  26.763   6.840   5.883
 5190POPC   C1A67803  26.611   6.467   6.186
 5190POPC   D2A67804  26.752   6.367   6.592
 5190POPC   C3A67805  26.710   6.563   6.999
 5190POPC   C4A67806  27.074   6.538   7.288
 5190POPC   C1B67807  26.888   6.892   6.337
 5190POPC   C2B67808  26.864   7.028   6.785
 5190POPC   C3B67809  26.927   7.020   7.254
 5190POPC   C4B67810  27.158   6.852   7.697
 5191POPC   NC367811  21.707   0.280   5.460
 5191POPC   PO467812  21.139   0.298   5.387
 5191POPC   GL167813  21.347   0.272   5.831
 5191POPC   GL267814  21.696   0.374   5.963
 5191POPC   C1A67815  21.315   0.332   6.289
 5191POPC   D2A67816  21.364   0.587   6.666
 5191POPC   C3A67817  21.320   0.330   7.022
 5191POPC   C4A67818  20.994   0.290   7.353
 5191POPC   C1B67819  21.790   0.568   6.378
 5191POPC   C2B67820  21.846   0.456   6.833
 5191POPC   C3B67821  21.805   0.243   7.229
 5191POPC   C4B67822  21.460   0.048   7.457
 5192POPC   NC367823  37.523  40.663   5.465
 5192POPC   PO467824  37.674  41.359   5.402
 5192POPC   GL167825  37.640  41.058   5.791
 5192POPC   GL267826  37.921  40.783   5.839
 5192POPC   C1A67827  37.583  40.820   6.203
 5192POPC   D2A67828  37.597  40.517   6.521
 5192POPC   C3A67829  37.619  40.677   6.893
 5192POPC   C4A67830  37.409  40.932   7.171
 5192POPC   C1B67831  38.001  40.453   6.211
 5192POPC   C2B67832  38.024  40.218   6.619
 5192POPC   C3B67833  37.931  40.307   7.050
 5192POPC   C4B67834  37.966  40.736   7.245
 5193POPC   NC367835  39.480  12.508   5.209
 5193POPC   PO467836  39.043  12.866   5.500
 5193POPC   GL167837  39.359  12.932   5.825
 5193POPC   GL267838  39.107  12.923   6.000
 5193POPC   C1A67839  39.526  12.803   6.237
 5193POPC   D2A67840  39.402  12.971   6.644
 5193POPC   C3A67841  39.415  12.692   7.003
 5193POPC   C4A67842  39.155  12.722   7.384
 5193POPC   C1B67843  38.919  13.181   6.242
 5193POPC   C2B67844  38.973  13.275   6.603
 5193POPC   C3B67845  38.983  13.021   6.968
 5193POPC   C4B67846  38.853  13.183   7.331
 5194POPC   NC367847  21.057  32.095   5.417
 5194POPC   PO467848  20.422  31.784   5.528
 5194POPC   GL167849  20.713  32.064   5.790
 5194POPC   GL267850  20.506  32.328   5.896
 5194POPC   C1A67851  20.963  32.414   6.057
 5194POPC   D2A67852  20.971  32.397   6.499
 5194POPC   C3A67853  20.642  32.370   6.757
 5194POPC   C4A67854  20.623  32.304   7.184
 5194POPC   C1B67855  20.572  32.132   6.287
 5194POPC   C2B67856  20.262  32.068   6.575
 5194POPC   C3B67857  20.123  31.910   6.953
 5194POPC   C4B67858  20.230  32.069   7.383
 5195POPC   NC367859  34.127   6.957   5.557
 5195POPC   PO467860  33.729   7.487   5.415
 5195POPC   GL167861  33.814   7.441   5.817
 5195POPC   GL267862  33.451   7.395   5.861
 5195POPC   C1A67863  33.963   7.279   6.229
 5195POPC   D2A67864  34.220   7.333   6.614
 5195POPC   C3A67865  33.987   7.323   6.962
 5195POPC   C4A67866  33.604   7.393   7.144
 5195POPC   C1B67867  33.580   7.635   6.230
 5195POPC   C2B67868  33.539   7.560   6.659
 5195POPC   C3B67869  33.359   7.812   6.993
 5195POPC   C4B67870  33.535   7.914   7.344
 5196POPC   NC367871  42.965  31.084   5.544
 5196POPC   PO467872  42.676  31.639   5.226
 5196POPC   GL167873  42.860  31.653   5.715
 5196POPC   GL267874  43.170  31.463   5.861
 5196POPC   C1A67875  42.764  31.593   6.198
 5196POPC   D2A67876  43.018  31.686   6.646
 5196POPC   C3A67877  42.821  31.508   7.074
 5196POPC   C4A67878  42.899  31.495   7.549
 5196POPC   C1B67879  43.139  31.286   6.314
 5196POPC   C2B67880  43.089  31.204   6.762
 5196POPC   C3B67881  43.328  31.504   7.049
 5196POPC   C4B67882  43.397  31.478   7.502
 5197POPC   NC367883  40.445  31.876   5.549
 5197POPC   PO467884  39.852  31.601   5.471
 5197POPC   GL167885  39.912  31.372   5.845
 5197POPC   GL267886  39.561  31.272   5.878
 5197POPC   C1A67887  40.206  31.467   6.207
 5197POPC   D2A67888  40.395  31.667   6.608
 5197POPC   C3A67889  40.230  31.514   7.042
 5197POPC   C4A67890  39.923  31.694   7.332
 5197POPC   C1B67891  39.693  31.345   6.302
 5197POPC   C2B67892  39.946  31.356   6.637
 5197POPC   C3B67893  39.745  31.320   6.997
 5197POPC   C4B67894  39.875  31.167   7.334
 5198POPC   NC367895  20.842  29.459   5.380
 5198POPC   PO467896  20.430  28.900   5.371
 5198POPC   GL167897  20.617  29.113   5.730
 5198POPC   GL267898  20.489  29.482   5.761
 5198POPC   C1A67899  20.628  28.984   6.154
 5198POPC   D2A67900  20.728  29.029   6.584
 5198POPC   C3A67901  20.551  28.859   6.982
 5198POPC   C4A67902  20.590  28.953   7.423
 5198POPC   C1B67903  20.797  29.478   6.089
 5198POPC   C2B67904  20.930  29.504   6.532
 5198POPC   C3B67905  20.648  29.409   6.910
 5198POPC   C4B67906  20.435  29.565   7.274
 5199POPC   NC367907  39.891  23.791   5.378
 5199POPC   PO467908  40.254  24.267   5.422
 5199POPC   GL167909  40.227  23.912   5.777
 5199POPC   GL267910  40.007  23.585   5.807
 5199POPC   C1A67911  40.052  23.862   6.227
 5199POPC   D2A67912  39.882  24.089   6.590
 5199POPC   C3A67913  40.026  23.861   6.934
 5199POPC   C4A67914  40.251  23.850   7.310
 5199POPC   C1B67915  39.695  23.487   6.146
 5199POPC   C2B67916  39.760  23.587   6.584
 5199POPC   C3B67917  39.707  23.455   7.024
 5199POPC   C4B67918  39.872  23.510   7.474
 5200POPC   NC367919  37.664  12.352   5.381
 5200POPC   PO467920  38.019  11.764   5.480
 5200POPC   GL167921  37.942  11.917   5.858
 5200POPC   GL267922  37.652  12.051   5.883
 5200POPC   C1A67923  37.832  11.836   6.302
 5200POPC   D2A67924  37.811  11.645   6.709
 5200POPC   C3A67925  37.734  11.852   7.088
 5200POPC   C4A67926  37.906  12.268   7.237
 5200POPC   C1B67927  37.558  12.301   6.221
 5200POPC   C2B67928  37.608  12.164   6.658
 5200POPC   C3B67929  37.330  12.121   7.014
 5200POPC   C4B67930  37.453  12.119   7.444
 5201POPC   NC367931   8.378  36.746   5.294
 5201POPC   PO467932   7.958  37.268   5.430
 5201POPC   GL167933   8.179  36.959   5.716
 5201POPC   GL267934   8.425  37.191   5.757
 5201POPC   C1A67935   8.369  36.895   6.163
 5201POPC   D2A67936   8.162  36.788   6.525
 5201POPC   C3A67937   8.269  36.903   6.942
 5201POPC   C4A67938   8.151  36.623   7.257
 5201POPC   C1B67939   8.046  37.270   6.082
 5201POPC   C2B67940   8.026  37.292   6.523
 5201POPC   C3B67941   7.853  37.210   6.921
 5201POPC   C4B67942   8.056  37.264   7.282
 5202POPC   NC367943  19.322  11.286   5.501
 5202POPC   PO467944  18.634  11.257   5.372
 5202POPC   GL167945  18.825  11.338   5.747
 5202POPC   GL267946  18.902  10.984   5.792
 5202POPC   C1A67947  18.693  11.250   6.184
 5202POPC   D2A67948  18.570  11.092   6.577
 5202POPC   C3A67949  18.732  11.221   6.935
 5202POPC   C4A67950  18.839  11.325   7.306
 5202POPC   C1B67951  19.184  11.146   6.135
 5202POPC   C2B67952  19.433  11.183   6.517
 5202POPC   C3B67953  19.277  11.188   6.956
 5202POPC   C4B67954  19.306  11.491   7.320
 5203POPC   NC367955  36.130  21.312   5.256
 5203POPC   PO467956  35.439  21.218   5.331
 5203POPC   GL167957  35.306  21.310   5.745
 5203POPC   GL267958  35.674  21.266   5.836
 5203POPC   C1A67959  35.275  21.099   6.113
 5203POPC   D2A67960  35.493  21.053   6.465
 5203POPC   C3A67961  35.211  21.138   6.801
 5203POPC   C4A67962  35.268  21.011   7.205
 5203POPC   C1B67963  35.678  21.500   6.230
 5203POPC   C2B67964  35.573  21.503   6.684
 5203POPC   C3B67965  35.425  21.505   7.078
 5203POPC   C4B67966  35.577  21.588   7.464
 5204POPC   NC367967  39.135  41.985   5.361
 5204POPC   PO467968  38.617  41.595   5.220
 5204POPC   GL167969  38.967  41.564   5.572
 5204POPC   GL267970  38.830  41.817   5.811
 5204POPC   C1A67971  39.150  41.488   6.033
 5204POPC   D2A67972  39.341  41.596   6.464
 5204POPC   C3A67973  39.184  41.471   6.887
 5204POPC   C4A67974  39.186  41.232   7.281
 5204POPC   C1B67975  38.912  42.063   6.221
 5204POPC   C2B67976  39.064  41.981   6.669
 5204POPC   C3B67977  39.020  41.952   7.127
 5204POPC   C4B67978  39.045  42.107   7.564
 5205POPC   NC367979  22.317   6.169   5.354
 5205POPC   PO467980  22.483   5.465   5.189
 5205POPC   GL167981  22.387   5.725   5.601
 5205POPC   GL267982  22.035   5.715   5.724
 5205POPC   C1A67983  22.424   5.727   6.070
 5205POPC   D2A67984  22.235   5.611   6.479
 5205POPC   C3A67985  22.367   5.644   6.903
 5205POPC   C4A67986  22.394   5.971   7.185
 5205POPC   C1B67987  21.902   5.809   6.161
 5205POPC   C2B67988  21.737   5.807   6.604
 5205POPC   C3B67989  21.834   5.739   7.067
 5205POPC   C4B67990  21.688   5.611   7.501
 5206POPC   NC367991  38.479  27.748   5.386
 5206POPC   PO467992  38.667  27.120   5.495
 5206POPC   GL167993  38.417  27.405   5.798
 5206POPC   GL267994  38.072  27.281   5.884
 5206POPC   C1A67995  38.500  27.678   6.203
 5206POPC   D2A67996  38.316  27.817   6.619
 5206POPC   C3A67997  38.536  27.786   7.013
 5206POPC   C4A67998  38.578  27.460   7.293
 5206POPC   C1B67999  38.125  27.357   6.328
 5206POPC   C2B68000  38.197  27.296   6.743
 5206POPC   C3B68001  38.106  27.535   7.114
 5206POPC   C4B68002  38.007  27.488   7.543
 5207POPC   NC368003  18.923  20.446   5.260
 5207POPC   PO468004  19.270  21.001   5.060
 5207POPC   GL168005  19.177  20.819   5.508
 5207POPC   GL268006  18.782  20.796   5.604
 5207POPC   C1A68007  19.122  20.670   5.970
 5207POPC   D2A68008  19.019  20.373   6.346
 5207POPC   C3A68009  19.172  20.468   6.778
 5207POPC   C4A68010  19.251  20.227   7.175
 5207POPC   C1B68011  18.624  20.520   5.967
 5207POPC   C2B68012  18.520  20.551   6.416
 5207POPC   C3B68013  18.684  20.411   6.809
 5207POPC   C4B68014  18.830  20.509   7.193
 5208POPC   NC368015  13.245  12.229   5.633
 5208POPC   PO468016  12.856  12.803   5.529
 5208POPC   GL168017  12.865  12.673   5.914
 5208POPC   GL268018  13.155  12.620   5.973
 5208POPC   C1A68019  12.802  12.389   6.258
 5208POPC   D2A68020  12.988  12.157   6.586
 5208POPC   C3A68021  12.919  12.405   6.930
 5208POPC   C4A68022  12.626  12.485   7.241
 5208POPC   C1B68023  13.060  13.020   6.281
 5208POPC   C2B68024  13.014  13.246   6.743
 5208POPC   C3B68025  13.040  13.120   7.210
 5208POPC   C4B68026  12.989  13.231   7.662
 5209POPC   NC368027  35.348  10.069   5.665
 5209POPC   PO468028  35.309  10.680   5.370
 5209POPC   GL168029  35.321  10.577   5.824
 5209POPC   GL268030  35.082  10.781   5.999
 5209POPC   C1A68031  35.406  10.417   6.249
 5209POPC   D2A68032  35.262  10.212   6.623
 5209POPC   C3A68033  35.537  10.323   6.907
 5209POPC   C4A68034  35.556  10.570   7.247
 5209POPC   C1B68035  35.434  10.946   6.248
 5209POPC   C2B68036  35.520  10.817   6.664
 5209POPC   C3B68037  35.275  10.934   7.006
 5209POPC   C4B68038  35.054  10.824   7.338
 5210POPC   NC368039  40.278  15.291   5.524
 5210POPC   PO468040  39.673  15.357   5.204
 5210POPC   GL168041  39.731  15.049   5.634
 5210POPC   GL268042  40.042  15.053   5.890
 5210POPC   C1A68043  39.611  14.937   6.106
 5210POPC   D2A68044  39.932  15.073   6.434
 5210POPC   C3A68045  39.926  15.148   6.886
 5210POPC   C4A68046  40.169  14.996   7.246
 5210POPC   C1B68047  40.277  15.371   6.183
 5210POPC   C2B68048  40.269  15.548   6.605
 5210POPC   C3B68049  40.344  15.427   7.034
 5210POPC   C4B68050  40.065  15.460   7.394
 5211POPC   NC368051   1.329   7.804   5.469
 5211POPC   PO468052   0.883   8.344   5.361
 5211POPC   GL168053   1.181   8.261   5.708
 5211POPC   GL268054   1.049   8.468   5.992
 5211POPC   C1A68055   1.453   8.137   6.081
 5211POPC   D2A68056   1.271   8.276   6.491
 5211POPC   C3A68057   1.323   8.074   6.890
 5211POPC   C4A68058   1.204   8.240   7.285
 5211POPC   C1B68059   0.980   8.011   6.142
 5211POPC   C2B68060   0.911   7.887   6.559
 5211POPC   C3B68061   0.806   8.138   6.911
 5211POPC   C4B68062   0.758   7.982   7.318
 5212POPC   NC368063  27.248  11.311   5.273
 5212POPC   PO468064  26.641  11.114   5.357
 5212POPC   GL168065  26.649  11.353   5.740
 5212POPC   GL268066  27.009  11.388   5.778
 5212POPC   C1A68067  26.636  11.490   6.175
 5212POPC   D2A68068  26.815  11.290   6.537
 5212POPC   C3A68069  26.711  11.415   6.926
 5212POPC   C4A68070  26.666  11.446   7.348
 5212POPC   C1B68071  26.972  11.035   6.117
 5212POPC   C2B68072  27.134  10.891   6.556
 5212POPC   C3B68073  27.158  11.142   6.946
 5212POPC   C4B68074  27.152  11.610   7.090
 5213POPC   NC368075  34.215  23.981   5.508
 5213POPC   PO468076  33.578  23.716   5.367
 5213POPC   GL168077  33.845  23.641   5.709
 5213POPC   GL268078  33.697  23.897   5.856
 5213POPC   C1A68079  34.116  23.643   6.085
 5213POPC   D2A68080  34.211  23.771   6.518
 5213POPC   C3A68081  34.053  23.587   6.912
 5213POPC   C4A68082  34.070  23.883   7.228
 5213POPC   C1B68083  33.558  23.681   6.212
 5213POPC   C2B68084  33.674  23.776   6.630
 5213POPC   C3B68085  33.597  23.894   7.036
 5213POPC   C4B68086  33.212  24.034   7.197
 5214POPC   NC368087  42.934   0.647   5.621
 5214POPC   PO468088  43.322   0.202   5.432
 5214POPC   GL168089  43.281   0.351   5.849
 5214POPC   GL268090  42.958   0.209   5.910
 5214POPC   C1A68091  43.170   0.589   6.242
 5214POPC   D2A68092  43.208   0.427   6.645
 5214POPC   C3A68093  43.379   0.618   7.013
 5214POPC   C4A68094  43.318   0.454   7.394
 5214POPC   C1B68095  42.678   0.425   6.205
 5214POPC   C2B68096  42.717   0.616   6.604
 5214POPC   C3B68097  42.876   0.561   7.028
 5214POPC   C4B68098  42.814   0.491   7.468
 5215POPC   NC368099  17.945  10.013   5.614
 5215POPC   PO468100  17.593   9.820   5.199
 5215POPC   GL168101  17.587   9.668   5.706
 5215POPC   GL268102  17.896   9.504   5.750
 5215POPC   C1A68103  17.357   9.649   6.147
 5215POPC   D2A68104  17.548   9.673   6.574
 5215POPC   C3A68105  17.458   9.892   6.929
 5215POPC   C4A68106  17.269   9.590   7.154
 5215POPC   C1B68107  17.866   9.701   6.170
 5215POPC   C2B68108  18.055   9.777   6.557
 5215POPC   C3B68109  17.967   9.686   6.986
 5215POPC   C4B68110  17.738   9.798   7.349
 5216POPC   NC368111  10.737  44.108   5.381
 5216POPC   PO468112  10.572  43.479   5.570
 5216POPC   GL168113  10.651  43.900   5.843
 5216POPC   GL268114  10.509  44.271   5.790
 5216POPC   C1A68115  10.678  44.034   6.289
 5216POPC   D2A68116  10.867  43.922   6.705
 5216POPC   C3A68117  10.883  43.451   6.809
 5216POPC   C4A68118  10.848  43.253   7.231
 5216POPC   C1B68119  10.239  44.243   6.115
 5216POPC   C2B68120  10.293  44.241   6.576
 5216POPC   C3B68121  10.260  44.022   6.972
 5216POPC   C4B68122  10.522  43.680   7.178
 5217POPC   NC368123  15.090  37.111   5.158
 5217POPC   PO468124  15.649  36.923   5.393
 5217POPC   GL168125  15.434  36.890   5.763
 5217POPC   GL268126  15.139  37.048   5.693
 5217POPC   C1A68127  15.405  37.019   6.196
 5217POPC   D2A68128  15.127  36.940   6.531
 5217POPC   C3A68129  15.276  36.897   6.938
 5217POPC   C4A68130  15.401  37.184   7.190
 5217POPC   C1B68131  14.896  36.910   6.056
 5217POPC   C2B68132  14.707  36.707   6.411
 5217POPC   C3B68133  14.837  36.632   6.817
 5217POPC   C4B68134  14.891  36.718   7.243
 5218POPC   NC368135  10.240   4.186   5.089
 5218POPC   PO468136  10.431   4.244   5.724
 5218POPC   GL168137  10.458   4.515   6.036
 5218POPC   GL268138  10.808   4.524   6.016
 5218POPC   C1A68139  10.217   4.721   6.337
 5218POPC   D2A68140  10.311   4.685   6.779
 5218POPC   C3A68141  10.337   4.291   7.043
 5218POPC   C4A68142  10.230   4.457   7.435
 5218POPC   C1B68143  10.895   4.450   6.454
 5218POPC   C2B68144  10.967   4.048   6.643
 5218POPC   C3B68145  10.827   3.955   7.047
 5218POPC   C4B68146  10.726   4.215   7.424
 5219POPC   NC368147   7.932   7.505   5.336
 5219POPC   PO468148   8.610   7.198   5.271
 5219POPC   GL168149   8.392   7.482   5.578
 5219POPC   GL268150   8.166   7.292   5.756
 5219POPC   C1A68151   8.340   7.693   6.018
 5219POPC   D2A68152   8.211   7.587   6.471
 5219POPC   C3A68153   8.365   7.680   6.886
 5219POPC   C4A68154   8.379   7.538   7.305
 5219POPC   C1B68155   8.064   7.181   6.187
 5219POPC   C2B68156   7.984   7.131   6.657
 5219POPC   C3B68157   7.923   7.062   7.125
 5219POPC   C4B68158   8.210   7.006   7.479
 5220POPC   NC368159  29.368  19.413   5.396
 5220POPC   PO468160  29.222  18.687   5.365
 5220POPC   GL168161  29.122  18.863   5.754
 5220POPC   GL268162  29.082  19.220   5.775
 5220POPC   C1A68163  29.137  18.744   6.179
 5220POPC   D2A68164  29.109  18.569   6.569
 5220POPC   C3A68165  29.147  18.834   6.901
 5220POPC   C4A68166  29.022  18.800   7.275
 5220POPC   C1B68167  28.902  19.194   6.193
 5220POPC   C2B68168  29.040  19.255   6.637
 5220POPC   C3B68169  28.878  19.239   7.080
 5220POPC   C4B68170  28.805  19.396   7.529
 5221POPC   NC368171  16.883   3.044   5.390
 5221POPC   PO468172  16.453   2.614   5.260
 5221POPC   GL168173  16.716   2.638   5.656
 5221POPC   GL268174  17.092   2.660   5.707
 5221POPC   C1A68175  16.685   2.753   6.107
 5221POPC   D2A68176  16.569   2.859   6.533
 5221POPC   C3A68177  16.800   2.664   6.820
 5221POPC   C4A68178  16.850   2.786   7.213
 5221POPC   C1B68179  17.130   2.991   6.040
 5221POPC   C2B68180  17.052   3.051   6.472
 5221POPC   C3B68181  16.941   3.174   6.871
 5221POPC   C4B68182  16.928   3.346   7.264
 5222POPC   NC368183  41.280   0.553   5.411
 5222POPC   PO468184  41.922   0.390   5.334
 5222POPC   GL168185  41.753   0.471   5.779
 5222POPC   GL268186  41.537   0.764   5.807
 5222POPC   C1A68187  41.780   0.639   6.239
 5222POPC   D2A68188  41.865   0.834   6.638
 5222POPC   C3A68189  41.572   0.648   6.855
 5222POPC   C4A68190  41.520   0.499   7.204
 5222POPC   C1B68191  41.272   0.588   6.143
 5222POPC   C2B68192  41.090   0.577   6.601
 5222POPC   C3B68193  41.100   0.766   7.020
 5222POPC   C4B68194  41.196   0.801   7.490
 5223POPC   NC368195   0.094   1.839   5.359
 5223POPC   PO468196  44.587   2.260   5.320
 5223POPC   GL168197  44.583   2.018   5.690
 5223POPC   GL268198  44.418   2.280   5.870
 5223POPC   C1A68199  44.693   1.933   6.115
 5223POPC   D2A68200  44.725   2.214   6.463
 5223POPC   C3A68201  44.800   1.908   6.790
 5223POPC   C4A68202  44.827   1.784   7.198
 5223POPC   C1B68203  44.256   2.382   6.275
 5223POPC   C2B68204  44.312   2.347   6.735
 5223POPC   C3B68205  44.591   2.225   7.115
 5223POPC   C4B68206  44.520   2.298   7.544
 5224POPC   NC368207   8.025  29.545   5.370
 5224POPC   PO468208   7.904  30.205   5.421
 5224POPC   GL168209   8.107  30.024   5.816
 5224POPC   GL268210   8.211  29.669   5.824
 5224POPC   C1A68211   8.182  29.933   6.273
 5224POPC   D2A68212   8.263  30.187   6.633
 5224POPC   C3A68213   7.938  30.230   6.928
 5224POPC   C4A68214   7.978  29.919   7.213
 5224POPC   C1B68215   8.339  29.458   6.209
 5224POPC   C2B68216   8.432  29.593   6.641
 5224POPC   C3B68217   8.431  29.751   7.058
 5224POPC   C4B68218   8.383  29.497   7.451
 5225POPC   NC368219  41.582  31.584   5.585
 5225POPC   PO468220  41.925  31.136   5.231
 5225POPC   GL168221  41.879  31.233   5.766
 5225POPC   GL268222  41.540  31.225   5.948
 5225POPC   C1A68223  41.833  31.454   6.243
 5225POPC   D2A68224  41.579  31.614   6.597
 5225POPC   C3A68225  41.774  31.642   7.010
 5225POPC   C4A68226  41.623  31.878   7.386
 5225POPC   C1B68227  41.418  31.167   6.373
 5225POPC   C2B68228  41.087  31.335   6.649
 5225POPC   C3B68229  41.194  31.572   7.024
 5225POPC   C4B68230  41.473  31.382   7.317
 5226POPC   NC368231  32.839   3.362   5.441
 5226POPC   PO468232  32.156   3.549   5.313
 5226POPC   GL168233  32.125   3.535   5.766
 5226POPC   GL268234  32.423   3.280   5.794
 5226POPC   C1A68235  32.001   3.817   6.165
 5226POPC   D2A68236  31.839   4.026   6.568
 5226POPC   C3A68237  32.110   3.886   6.932
 5226POPC   C4A68238  32.359   3.728   7.309
 5226POPC   C1B68239  32.408   3.490   6.185
 5226POPC   C2B68240  32.393   3.669   6.550
 5226POPC   C3B68241  32.509   3.454   6.893
 5226POPC   C4B68242  32.453   3.225   7.257
 5227POPC   NC368243  42.621  10.428   5.567
 5227POPC   PO468244  41.943  10.380   5.450
 5227POPC   GL168245  42.099  10.507   5.843
 5227POPC   GL268246  42.212  10.854   5.878
 5227POPC   C1A68247  42.200  10.285   6.228
 5227POPC   D2A68248  42.406  10.074   6.577
 5227POPC   C3A68249  42.378  10.222   7.000
 5227POPC   C4A68250  41.999  10.319   7.237
 5227POPC   C1B68251  42.209  10.802   6.301
 5227POPC   C2B68252  42.180  10.569   6.669
 5227POPC   C3B68253  42.288  10.714   7.064
 5227POPC   C4B68254  42.608  10.791   7.334
 5228POPC   NC368255  38.779  32.564   5.569
 5228POPC   PO468256  39.335  32.220   5.304
 5228POPC   GL168257  39.303  32.177   5.744
 5228POPC   GL268258  39.623  31.996   5.810
 5228POPC   C1A68259  39.171  32.197   6.182
 5228POPC   D2A68260  39.234  32.500   6.462
 5228POPC   C3A68261  39.127  32.297   6.835
 5228POPC   C4A68262  39.173  32.135   7.250
 5228POPC   C1B68263  39.663  32.183   6.202
 5228POPC   C2B68264  39.547  32.088   6.612
 5228POPC   C3B68265  39.612  32.210   7.020
 5228POPC   C4B68266  39.656  32.119   7.456
 5229POPC   NC368267  32.818   8.981   5.113
 5229POPC   PO468268  32.903   9.408   5.628
 5229POPC   GL168269  32.914   9.008   5.741
 5229POPC   GL268270  33.221   9.029   5.883
 5229POPC   C1A68271  32.838   8.801   6.159
 5229POPC   D2A68272  32.660   8.760   6.576
 5229POPC   C3A68273  32.631   9.121   6.804
 5229POPC   C4A68274  32.842   9.310   7.136
 5229POPC   C1B68275  33.335   8.936   6.283
 5229POPC   C2B68276  33.101   9.038   6.630
 5229POPC   C3B68277  33.035   8.837   7.004
 5229POPC   C4B68278  33.376   8.683   7.204
 5230POPC   NC368279  33.184  42.497   5.396
 5230POPC   PO468280  33.058  41.871   5.329
 5230POPC   GL168281  32.998  42.196   5.739
 5230POPC   GL268282  32.791  42.531   5.726
 5230POPC   C1A68283  32.766  42.263   6.156
 5230POPC   D2A68284  32.993  42.179   6.511
 5230POPC   C3A68285  32.847  42.197   6.933
 5230POPC   C4A68286  33.104  42.154   7.289
 5230POPC   C1B68287  33.148  42.557   6.072
 5230POPC   C2B68288  33.140  42.666   6.544
 5230POPC   C3B68289  33.160  42.590   7.007
 5230POPC   C4B68290  33.237  42.847   7.362
 5231POPC   NC368291  22.497  38.504   5.674
 5231POPC   PO468292  21.869  38.526   5.310
 5231POPC   GL168293  22.004  38.687   5.742
 5231POPC   GL268294  22.090  38.403   5.935
 5231POPC   C1A68295  22.210  38.835   6.183
 5231POPC   D2A68296  22.306  38.978   6.637
 5231POPC   C3A68297  22.249  38.672   6.991
 5231POPC   C4A68298  22.091  38.687   7.432
 5231POPC   C1B68299  22.185  38.302   6.353
 5231POPC   C2B68300  22.312  38.113   6.723
 5231POPC   C3B68301  22.542  38.253   7.056
 5231POPC   C4B68302  22.226  38.200   7.335
 5232POPC   NC368303  26.798  13.069   5.509
 5232POPC   PO468304  26.972  12.433   5.567
 5232POPC   GL168305  26.829  12.695   5.906
 5232POPC   GL268306  26.490  12.623   5.816
 5232POPC   C1A68307  26.750  12.989   6.301
 5232POPC   D2A68308  26.648  13.193   6.764
 5232POPC   C3A68309  26.761  13.021   7.187
 5232POPC   C4A68310  26.949  13.156   7.602
 5232POPC   C1B68311  26.485  12.525   6.244
 5232POPC   C2B68312  26.500  12.720   6.642
 5232POPC   C3B68313  26.456  12.615   7.054
 5232POPC   C4B68314  26.743  12.384   7.245
 5233POPC   NC368315  21.043  43.496   5.443
 5233POPC   PO468316  21.597  43.112   5.414
 5233POPC   GL168317  21.303  43.013   5.705
 5233POPC   GL268318  21.551  42.816   5.883
 5233POPC   C1A68319  21.181  43.078   6.165
 5233POPC   D2A68320  21.403  43.124   6.585
 5233POPC   C3A68321  21.188  43.239   6.966
 5233POPC   C4A68322  21.287  43.451   7.371
 5233POPC   C1B68323  21.487  42.693   6.307
 5233POPC   C2B68324  21.549  42.609   6.745
 5233POPC   C3B68325  21.531  42.856   7.118
 5233POPC   C4B68326  21.449  42.634   7.501
 5234POPC   NC368327  22.594  37.778   5.663
 5234POPC   PO468328  23.041  37.514   5.195
 5234POPC   GL168329  23.129  37.731   5.618
 5234POPC   GL268330  23.015  37.513   5.782
 5234POPC   C1A68331  23.066  37.884   6.120
 5234POPC   D2A68332  22.741  37.941   6.475
 5234POPC   C3A68333  22.934  37.882   6.894
 5234POPC   C4A68334  23.130  37.699   7.262
 5234POPC   C1B68335  22.970  37.374   6.179
 5234POPC   C2B68336  22.812  37.439   6.596
 5234POPC   C3B68337  22.917  37.323   6.998
 5234POPC   C4B68338  23.012  37.249   7.452
 5235POPC   NC368339  24.024  42.814   5.199
 5235POPC   PO468340  24.530  43.086   5.277
 5235POPC   GL168341  24.554  43.102   5.779
 5235POPC   GL268342  24.800  42.851   5.872
 5235POPC   C1A68343  24.598  43.235   6.255
 5235POPC   D2A68344  24.401  43.119   6.693
 5235POPC   C3A68345  24.611  43.074   7.127
 5235POPC   C4A68346  24.561  43.276   7.568
 5235POPC   C1B68347  24.650  42.733   6.299
 5235POPC   C2B68348  24.636  42.670   6.741
 5235POPC   C3B68349  24.343  42.642   7.052
 5235POPC   C4B68350  24.347  42.326   7.351
 5236POPC   NC368351  38.944  14.055   5.614
 5236POPC   PO468352  38.438  13.580   5.347
 5236POPC   GL168353  38.427  13.720   5.773
 5236POPC   GL268354  38.159  13.985   5.876
 5236POPC   C1A68355  38.515  13.478   6.190
 5236POPC   D2A68356  38.355  13.382   6.611
 5236POPC   C3A68357  38.644  13.467   6.945
 5236POPC   C4A68358  38.474  13.545   7.342
 5236POPC   C1B68359  38.552  13.985   6.171
 5236POPC   C2B68360  38.601  13.828   6.579
 5236POPC   C3B68361  38.340  13.880   6.935
 5236POPC   C4B68362  38.424  14.090   7.295
 5237POPC   NC368363  35.478   8.649   5.623
 5237POPC   PO468364  35.278   8.070   5.285
 5237POPC   GL168365  35.375   8.178   5.764
 5237POPC   GL268366  35.086   8.375   5.832
 5237POPC   C1A68367  35.416   8.458   6.221
 5237POPC   D2A68368  35.633   8.514   6.631
 5237POPC   C3A68369  35.408   8.475   7.021
 5237POPC   C4A68370  35.556   8.413   7.443
 5237POPC   C1B68371  35.112   8.055   6.180
 5237POPC   C2B68372  35.398   8.038   6.533
 5237POPC   C3B68373  35.412   7.955   6.961
 5237POPC   C4B68374  35.169   8.082   7.337
 5238POPC   NC368375   6.768  22.758   5.487
 5238POPC   PO468376   6.096  22.884   5.689
 5238POPC   GL168377   6.487  23.050   5.818
 5238POPC   GL268378   6.536  22.731   5.961
 5238POPC   C1A68379   6.823  23.079   6.165
 5238POPC   D2A68380   6.743  22.762   6.497
 5238POPC   C3A68381   6.723  22.929   6.916
 5238POPC   C4A68382   6.973  22.727   7.223
 5238POPC   C1B68383   6.328  23.011   6.292
 5238POPC   C2B68384   6.246  22.882   6.681
 5238POPC   C3B68385   6.186  23.056   7.058
 5238POPC   C4B68386   6.104  23.441   7.229
 5239POPC   NC368387  20.614  12.892   5.268
 5239POPC   PO468388  21.179  13.117   5.395
 5239POPC   GL168389  20.852  12.898   5.708
 5239POPC   GL268390  20.474  12.941   5.761
 5239POPC   C1A68391  20.793  12.846   6.148
 5239POPC   D2A68392  20.616  12.752   6.535
 5239POPC   C3A68393  20.369  12.955   6.857
 5239POPC   C4A68394  20.584  12.853   7.221
 5239POPC   C1B68395  20.260  12.698   6.127
 5239POPC   C2B68396  20.293  12.350   6.477
 5239POPC   C3B68397  20.431  12.435   6.925
 5239POPC   C4B68398  20.125  12.639   7.214
 5240POPC   NC368399  38.829  29.959   5.609
 5240POPC   PO468400  39.396  29.735   5.417
 5240POPC   GL168401  39.282  30.012   5.857
 5240POPC   GL268402  38.981  30.154   6.045
 5240POPC   C1A68403  39.249  29.966   6.401
 5240POPC   D2A68404  39.038  29.879   6.780
 5240POPC   C3A68405  39.386  29.784   7.080
 5240POPC   C4A68406  39.492  29.493   7.398
 5240POPC   C1B68407  39.398  30.375   6.162
 5240POPC   C2B68408  39.463  30.469   6.596
 5240POPC   C3B68409  39.326  30.301   6.993
 5240POPC   C4B68410  38.913  30.212   7.151
 5241POPC   NC368411  10.699   5.036   5.350
 5241POPC   PO468412  11.431   4.971   5.323
 5241POPC   GL168413  11.418   5.116   5.750
 5241POPC   GL268414  11.132   4.919   5.850
 5241POPC   C1A68415  11.408   5.187   6.218
 5241POPC   D2A68416  11.493   5.336   6.642
 5241POPC   C3A68417  11.185   5.313   6.974
 5241POPC   C4A68418  11.377   5.275   7.380
 5241POPC   C1B68419  11.292   4.690   6.222
 5241POPC   C2B68420  11.493   4.810   6.636
 5241POPC   C3B68421  11.437   4.871   7.088
 5241POPC   C4B68422  11.123   4.664   7.376
 5242POPC   NC368423  39.503  42.355   5.381
 5242POPC   PO468424  38.930  42.513   5.122
 5242POPC   GL168425  39.149  42.643   5.618
 5242POPC   GL268426  39.256  42.293   5.825
 5242POPC   C1A68427  39.091  42.614   6.150
 5242POPC   D2A68428  39.307  42.419   6.510
 5242POPC   C3A68429  39.230  42.393   6.939
 5242POPC   C4A68430  39.378  42.617   7.305
 5242POPC   C1B68431  39.425  42.042   6.204
 5242POPC   C2B68432  39.621  42.019   6.597
 5242POPC   C3B68433  39.503  41.874   6.974
 5242POPC   C4B68434  39.476  42.136   7.300
 5243POPC   NC368435  18.857  39.793   5.494
 5243POPC   PO468436  19.473  40.066   5.317
 5243POPC   GL168437  19.333  40.033   5.772
 5243POPC   GL268438  18.995  40.088   5.870
 5243POPC   C1A68439  19.318  40.078   6.257
 5243POPC   D2A68440  19.244  40.320   6.617
 5243POPC   C3A68441  18.898  40.271   6.836
 5243POPC   C4A68442  18.962  40.069   7.197
 5243POPC   C1B68443  18.938  39.758   6.223
 5243POPC   C2B68444  19.013  39.806   6.668
 5243POPC   C3B68445  18.837  39.605   7.035
 5243POPC   C4B68446  18.653  39.664   7.448
 5244POPC   NC368447  30.841   6.232   5.512
 5244POPC   PO468448  30.300   6.079   5.370
 5244POPC   GL168449  30.472   5.894   5.764
 5244POPC   GL268450  30.661   6.148   5.982
 5244POPC   C1A68451  30.431   5.642   6.173
 5244POPC   D2A68452  30.260   5.662   6.625
 5244POPC   C3A68453  30.612   5.655   6.941
 5244POPC   C4A68454  30.681   5.677   7.401
 5244POPC   C1B68455  30.411   6.118   6.364
 5244POPC   C2B68456  30.455   6.114   6.798
 5244POPC   C3B68457  30.369   6.045   7.209
 5244POPC   C4B68458  30.510   6.163   7.577
 5245POPC   NC368459   5.390  37.729   5.152
 5245POPC   PO468460   4.827  37.521   5.432
 5245POPC   GL168461   5.116  37.784   5.686
 5245POPC   GL268462   5.318  37.527   5.794
 5245POPC   C1A68463   5.013  37.947   6.121
 5245POPC   D2A68464   4.811  37.731   6.468
 5245POPC   C3A68465   4.958  37.917   6.858
 5245POPC   C4A68466   5.052  37.775   7.277
 5245POPC   C1B68467   5.335  37.587   6.265
 5245POPC   C2B68468   5.199  37.483   6.713
 5245POPC   C3B68469   5.462  37.567   7.080
 5245POPC   C4B68470   5.493  37.528   7.525
 5246POPC   NC368471  23.138  33.983   5.513
 5246POPC   PO468472  22.451  33.921   5.521
 5246POPC   GL168473  22.761  33.715   5.798
 5246POPC   GL268474  23.009  33.503   5.662
 5246POPC   C1A68475  23.095  33.832   6.138
 5246POPC   D2A68476  23.167  33.783   6.582
 5246POPC   C3A68477  22.764  33.854   6.851
 5246POPC   C4A68478  22.567  33.907   7.281
 5246POPC   C1B68479  23.029  33.342   6.081
 5246POPC   C2B68480  22.930  33.273   6.506
 5246POPC   C3B68481  23.021  33.414   6.903
 5246POPC   C4B68482  22.824  33.474   7.269
 5247POPC   NC368483   9.030  29.212   5.377
 5247POPC   PO468484   8.639  28.695   5.608
 5247POPC   GL168485   8.848  29.063   5.838
 5247POPC   GL268486   9.166  29.224   5.871
 5247POPC   C1A68487   8.832  29.267   6.242
 5247POPC   D2A68488   8.929  29.458   6.649
 5247POPC   C3A68489   8.713  29.330   7.052
 5247POPC   C4A68490   8.797  29.228   7.509
 5247POPC   C1B68491   9.286  29.480   6.257
 5247POPC   C2B68492   9.458  29.444   6.680
 5247POPC   C3B68493   9.230  29.337   7.076
 5247POPC   C4B68494   9.271  29.357   7.525
 5248POPC   NC368495  35.824  30.077   5.308
 5248POPC   PO468496  36.303  29.543   5.346
 5248POPC   GL168497  36.050  29.777   5.663
 5248POPC   GL268498  36.173  30.105   5.719
 5248POPC   C1A68499  35.872  29.825   6.099
 5248POPC   D2A68500  36.038  29.745   6.503
 5248POPC   C3A68501  35.816  29.761   6.893
 5248POPC   C4A68502  36.034  29.728   7.278
 5248POPC   C1B68503  36.046  30.320   6.096
 5248POPC   C2B68504  36.162  30.245   6.521
 5248POPC   C3B68505  36.260  30.043   6.909
 5248POPC   C4B68506  36.091  30.253   7.241
 5249POPC   NC368507   6.764  25.291   5.224
 5249POPC   PO468508   6.992  24.808   5.700
 5249POPC   GL168509   6.795  25.186   5.753
 5249POPC   GL268510   6.440  25.209   5.633
 5249POPC   C1A68511   6.945  25.333   6.167
 5249POPC   D2A68512   7.001  25.096   6.569
 5249POPC   C3A68513   6.916  25.357   6.912
 5249POPC   C4A68514   6.856  25.439   7.315
 5249POPC   C1B68515   6.438  25.352   6.076
 5249POPC   C2B68516   6.563  25.381   6.530
 5249POPC   C3B68517   6.391  25.365   6.953
 5249POPC   C4B68518   6.185  25.625   7.215
 5250POPC   NC368519  28.482  40.218   5.487
 5250POPC   PO468520  28.502  39.624   5.323
 5250POPC   GL168521  28.380  39.815   5.792
 5250POPC   GL268522  28.161  40.098   5.853
 5250POPC   C1A68523  28.213  39.838   6.277
 5250POPC   D2A68524  28.149  39.811   6.737
 5250POPC   C3A68525  28.464  40.037   6.999
 5250POPC   C4A68526  28.600  39.932   7.421
 5250POPC   C1B68527  28.229  40.369   6.213
 5250POPC   C2B68528  28.237  40.363   6.664
 5250POPC   C3B68529  28.027  40.258   7.064
 5250POPC   C4B68530  28.130  40.282   7.526
 5251POPC   NC368531  16.701  38.472   5.574
 5251POPC   PO468532  17.248  38.911   5.531
 5251POPC   GL168533  17.015  38.750   5.883
 5251POPC   GL268534  16.639  38.821   5.947
 5251POPC   C1A68535  16.956  38.614   6.319
 5251POPC   D2A68536  16.821  38.330   6.648
 5251POPC   C3A68537  16.825  38.552   7.059
 5251POPC   C4A68538  16.768  38.457   7.542
 5251POPC   C1B68539  16.454  38.454   6.196
 5251POPC   C2B68540  16.216  38.267   6.526
 5251POPC   C3B68541  16.372  38.318   6.918
 5251POPC   C4B68542  16.365  38.621   7.249
 5252POPC   NC368543  42.545  42.733   5.369
 5252POPC   PO468544  42.398  42.070   5.254
 5252POPC   GL168545  42.516  42.119   5.719
 5252POPC   GL268546  42.522  42.465   5.788
 5252POPC   C1A68547  42.476  42.146   6.186
 5252POPC   D2A68548  42.296  42.001   6.565
 5252POPC   C3A68549  42.312  42.293   6.878
 5252POPC   C4A68550  42.412  42.194   7.271
 5252POPC   C1B68551  42.324  42.636   6.139
 5252POPC   C2B68552  42.423  42.692   6.550
 5252POPC   C3B68553  42.148  42.806   6.862
 5252POPC   C4B68554  42.343  42.818   7.228
 5253POPC   NC368555   4.074  41.089   5.788
 5253POPC   PO468556   4.357  40.806   5.259
 5253POPC   GL168557   4.475  40.681   5.704
 5253POPC   GL268558   4.420  40.332   5.631
 5253POPC   C1A68559   4.456  40.776   6.178
 5253POPC   D2A68560   4.202  40.945   6.486
 5253POPC   C3A68561   4.370  40.948   6.888
 5253POPC   C4A68562   4.014  40.952   7.119
 5253POPC   C1B68563   4.431  40.277   6.096
 5253POPC   C2B68564   4.314  40.434   6.533
 5253POPC   C3B68565   4.162  40.477   6.938
 5253POPC   C4B68566   4.350  40.618   7.322
 5254POPC   NC368567  18.192   5.631   5.363
 5254POPC   PO468568  18.022   6.245   5.210
 5254POPC   GL168569  18.142   6.047   5.656
 5254POPC   GL268570  18.379   6.194   5.862
 5254POPC   C1A68571  18.219   5.713   6.004
 5254POPC   D2A68572  18.049   5.650   6.426
 5254POPC   C3A68573  18.118   5.560   6.863
 5254POPC   C4A68574  18.163   5.831   7.224
 5254POPC   C1B68575  18.346   6.103   6.305
 5254POPC   C2B68576  18.652   6.121   6.607
 5254POPC   C3B68577  18.645   5.935   6.983
 5254POPC   C4B68578  18.567   6.114   7.371
 5255POPC   NC368579  37.976  33.024   5.420
 5255POPC   PO468580  37.382  33.439   5.376
 5255POPC   GL168581  37.531  33.148   5.685
 5255POPC   GL268582  37.424  32.812   5.647
 5255POPC   C1A68583  37.760  33.110   6.089
 5255POPC   D2A68584  37.762  33.400   6.447
 5255POPC   C3A68585  37.962  33.181   6.772
 5255POPC   C4A68586  37.738  33.039   7.118
 5255POPC   C1B68587  37.291  32.904   6.082
 5255POPC   C2B68588  37.442  32.991   6.534
 5255POPC   C3B68589  37.317  32.815   6.968
 5255POPC   C4B68590  37.430  32.742   7.438
 5256POPC   NC368591  11.423  42.535   5.381
 5256POPC   PO468592  10.981  42.059   5.422
 5256POPC   GL168593  11.217  42.201   5.842
 5256POPC   GL268594  11.440  42.492   5.879
 5256POPC   C1A68595  11.373  42.245   6.304
 5256POPC   D2A68596  11.167  42.227   6.671
 5256POPC   C3A68597  11.333  42.350   7.025
 5256POPC   C4A68598  11.098  42.295   7.338
 5256POPC   C1B68599  11.549  42.740   6.242
 5256POPC   C2B68600  11.431  42.698   6.649
 5256POPC   C3B68601  11.601  42.771   7.046
 5256POPC   C4B68602  11.376  42.737   7.429
 5257POPC   NC368603  10.728  39.217   5.354
 5257POPC   PO468604  10.054  39.210   5.308
 5257POPC   GL168605  10.360  39.285   5.716
 5257POPC   GL268606  10.688  39.479   5.784
 5257POPC   C1A68607  10.296  39.404   6.187
 5257POPC   D2A68608  10.453  39.211   6.557
 5257POPC   C3A68609  10.486  39.322   6.979
 5257POPC   C4A68610  10.369  39.002   7.309
 5257POPC   C1B68611  10.773  39.246   6.147
 5257POPC   C2B68612  10.982  39.251   6.547
 5257POPC   C3B68613  10.990  39.111   6.966
 5257POPC   C4B68614  10.902  39.426   7.285
 5258POPC   NC368615  20.776  24.254   5.425
 5258POPC   PO468616  20.438  24.795   5.230
 5258POPC   GL168617  20.450  24.589   5.697
 5258POPC   GL268618  20.365  24.252   5.741
 5258POPC   C1A68619  20.625  24.661   6.159
 5258POPC   D2A68620  20.697  24.869   6.580
 5258POPC   C3A68621  20.582  24.754   7.024
 5258POPC   C4A68622  20.806  24.542   7.373
 5258POPC   C1B68623  20.470  24.187   6.167
 5258POPC   C2B68624  20.454  24.406   6.576
 5258POPC   C3B68625  20.568  24.242   6.980
 5258POPC   C4B68626  20.349  24.309   7.355
 5259POPC   NC368627   9.271  44.856   5.466
 5259POPC   PO468628   9.943  44.936   5.391
 5259POPC   GL168629   9.823  44.694   5.779
 5259POPC   GL268630   9.463  44.705   5.939
 5259POPC   C1A68631   9.936  44.633   6.213
 5259POPC   D2A68632  10.164  44.752   6.576
 5259POPC   C3A68633   9.935  44.505   6.853
 5259POPC   C4A68634   9.729  44.593   7.214
 5259POPC   C1B68635   9.415  44.447   6.337
 5259POPC   C2B68636   9.397  44.436   6.807
 5259POPC   C3B68637   9.294  44.318   7.247
 5259POPC   C4B68638   9.200  44.327   7.706
 5260POPC   NC368639  31.830   0.558   5.525
 5260POPC   PO468640  31.193   0.371   5.366
 5260POPC   GL168641  31.460   0.333   5.770
 5260POPC   GL268642  31.772   0.090   5.809
 5260POPC   C1A68643  31.581   0.608   6.131
 5260POPC   D2A68644  31.368   0.766   6.501
 5260POPC   C3A68645  31.257   0.504   6.843
 5260POPC   C4A68646  31.266   0.526   7.280
 5260POPC   C1B68647  31.899   0.219   6.209
 5260POPC   C2B68648  31.665   0.314   6.562
 5260POPC   C3B68649  31.724   0.385   6.973
 5260POPC   C4B68650  31.721   0.051   7.205
 5261POPC   NC368651  14.422  23.112   5.410
 5261POPC   PO468652  14.709  23.735   5.428
 5261POPC   GL168653  14.433  23.649   5.757
 5261POPC   GL268654  14.635  23.374   5.816
 5261POPC   C1A68655  14.350  23.830   6.175
 5261POPC   D2A68656  14.609  23.916   6.551
 5261POPC   C3A68657  14.408  23.836   6.948
 5261POPC   C4A68658  13.984  23.947   7.071
 5261POPC   C1B68659  14.339  23.292   6.142
 5261POPC   C2B68660  14.367  23.455   6.548
 5261POPC   C3B68661  14.524  23.335   6.922
 5261POPC   C4B68662  14.840  23.507   7.176
 5262POPC   NC368663   2.530  31.933   5.473
 5262POPC   PO468664   2.937  32.480   5.407
 5262POPC   GL168665   2.764  32.379   5.801
 5262POPC   GL268666   2.871  32.062   5.858
 5262POPC   C1A68667   2.638  32.271   6.254
 5262POPC   D2A68668   2.633  32.072   6.641
 5262POPC   C3A68669   2.685  32.300   6.998
 5262POPC   C4A68670   2.428  32.592   7.231
 5262POPC   C1B68671   3.125  32.134   6.243
 5262POPC   C2B68672   3.124  32.159   6.706
 5262POPC   C3B68673   3.104  31.994   7.133
 5262POPC   C4B68674   3.192  31.948   7.581
 5263POPC   NC368675  13.562  23.635   5.198
 5263POPC   PO468676  13.880  24.133   5.513
 5263POPC   GL168677  13.483  23.984   5.727
 5263POPC   GL268678  13.507  23.642   5.703
 5263POPC   C1A68679  13.460  23.826   6.182
 5263POPC   D2A68680  13.745  23.906   6.539
 5263POPC   C3A68681  13.553  23.725   6.896
 5263POPC   C4A68682  13.537  23.870   7.311
 5263POPC   C1B68683  13.857  23.536   6.031
 5263POPC   C2B68684  13.866  23.387   6.481
 5263POPC   C3B68685  14.012  23.473   6.926
 5263POPC   C4B68686  13.901  23.543   7.411
 5264POPC   NC368687  22.181  23.254   5.324
 5264POPC   PO468688  22.331  23.901   5.384
 5264POPC   GL168689  22.187  23.709   5.768
 5264POPC   GL268690  21.843  23.690   5.835
 5264POPC   C1A68691  22.207  23.547   6.210
 5264POPC   D2A68692  22.358  23.498   6.660
 5264POPC   C3A68693  22.075  23.440   7.014
 5264POPC   C4A68694  21.848  23.703   7.274
 5264POPC   C1B68695  21.827  23.908   6.214
 5264POPC   C2B68696  22.126  23.967   6.551
 5264POPC   C3B68697  22.144  24.028   6.988
 5264POPC   C4B68698  21.846  24.217   7.265
 5265POPC   NC368699   6.838   5.250   5.534
 5265POPC   PO468700   6.626   4.633   5.394
 5265POPC   GL168701   6.569   4.866   5.782
 5265POPC   GL268702   6.236   4.732   5.825
 5265POPC   C1A68703   6.792   5.108   6.180
 5265POPC   D2A68704   6.968   5.441   6.505
 5265POPC   C3A68705   6.787   5.409   6.943
 5265POPC   C4A68706   6.661   5.018   7.173
 5265POPC   C1B68707   6.287   5.057   6.156
 5265POPC   C2B68708   6.400   5.325   6.528
 5265POPC   C3B68709   6.246   5.225   6.952
 5265POPC   C4B68710   6.203   4.805   7.158
 5266POPC   NC368711  25.087  12.575   5.481
 5266POPC   PO468712  25.641  13.018   5.411
 5266POPC   GL168713  25.492  12.785   5.758
 5266POPC   GL268714  25.199  12.963   5.827
 5266POPC   C1A68715  25.564  12.791   6.208
 5266POPC   D2A68716  25.633  12.595   6.622
 5266POPC   C3A68717  25.341  12.590   6.879
 5266POPC   C4A68718  25.242  12.988   7.053
 5266POPC   C1B68719  25.102  12.610   6.117
 5266POPC   C2B68720  25.005  12.548   6.511
 5266POPC   C3B68721  24.824  12.716   6.869
 5266POPC   C4B68722  24.977  12.580   7.248
 5267POPC   NC368723  39.992  39.758   5.127
 5267POPC   PO468724  39.827  40.248   5.485
 5267POPC   GL168725  40.075  40.167   5.828
 5267POPC   GL268726  40.039  39.815   5.762
 5267POPC   C1A68727  40.201  40.262   6.255
 5267POPC   D2A68728  39.914  40.187   6.591
 5267POPC   C3A68729  40.025  40.166   7.026
 5267POPC   C4A68730  40.312  40.418   7.259
 5267POPC   C1B68731  39.830  39.856   6.159
 5267POPC   C2B68732  39.721  39.711   6.560
 5267POPC   C3B68733  39.879  39.652   6.982
 5267POPC   C4B68734  39.819  39.777   7.420
 5268POPC   NC368735   8.525  28.999   5.267
 5268POPC   PO468736   7.921  29.136   5.557
 5268POPC   GL168737   8.039  29.152   5.935
 5268POPC   GL268738   8.373  29.177   5.774
 5268POPC   C1A68739   8.009  29.140   6.415
 5268POPC   D2A68740   7.951  29.492   6.720
 5268POPC   C3A68741   7.950  29.405   7.186
 5268POPC   C4A68742   7.961  29.162   7.603
 5268POPC   C1B68743   8.442  28.959   6.161
 5268POPC   C2B68744   8.496  29.090   6.573
 5268POPC   C3B68745   8.263  29.108   6.926
 5268POPC   C4B68746   8.396  28.984   7.323
 5269POPC   NC368747   3.057   6.986   5.565
 5269POPC   PO468748   2.604   6.603   5.221
 5269POPC   GL168749   2.698   6.615   5.700
 5269POPC   GL268750   2.724   6.962   5.927
 5269POPC   C1A68751   2.782   6.528   6.156
 5269POPC   D2A68752   2.549   6.813   6.426
 5269POPC   C3A68753   2.604   6.746   6.859
 5269POPC   C4A68754   2.794   6.508   7.202
 5269POPC   C1B68755   3.075   6.918   6.224
 5269POPC   C2B68756   3.062   6.677   6.613
 5269POPC   C3B68757   3.104   6.904   6.990
 5269POPC   C4B68758   3.167   6.803   7.393
 5270POPC   NC368759  38.026  19.038   5.630
 5270POPC   PO468760  37.736  19.610   5.521
 5270POPC   GL168761  37.597  19.271   5.833
 5270POPC   GL268762  37.524  18.888   5.857
 5270POPC   C1A68763  37.644  19.177   6.281
 5270POPC   D2A68764  37.416  19.146   6.658
 5270POPC   C3A68765  37.654  19.101   7.027
 5270POPC   C4A68766  37.897  19.111   7.414
 5270POPC   C1B68767  37.797  18.708   6.172
 5270POPC   C2B68768  37.906  18.825   6.596
 5270POPC   C3B68769  37.936  18.644   7.001
 5270POPC   C4B68770  37.663  18.653   7.345
 5271POPC   NC368771  38.648  13.113   5.399
 5271POPC   PO468772  38.093  12.644   5.408
 5271POPC   GL168773  38.204  12.942   5.795
 5271POPC   GL268774  38.577  13.016   5.890
 5271POPC   C1A68775  38.282  12.992   6.286
 5271POPC   D2A68776  38.567  12.920   6.669
 5271POPC   C3A68777  38.382  13.056   7.051
 5271POPC   C4A68778  38.040  12.945   7.293
 5271POPC   C1B68779  38.729  12.721   6.230
 5271POPC   C2B68780  39.001  12.627   6.597
 5271POPC   C3B68781  38.858  12.513   7.004
 5271POPC   C4B68782  38.643  12.723   7.321
 5272POPC   NC368783  26.258  22.461   5.447
 5272POPC   PO468784  26.302  21.846   5.188
 5272POPC   GL168785  25.985  21.908   5.607
 5272POPC   GL268786  25.746  22.141   5.725
 5272POPC   C1A68787  26.015  21.941   6.125
 5272POPC   D2A68788  26.255  22.129   6.543
 5272POPC   C3A68789  26.129  22.040   7.010
 5272POPC   C4A68790  26.263  22.272   7.426
 5272POPC   C1B68791  25.601  22.286   6.115
 5272POPC   C2B68792  25.731  22.113   6.510
 5272POPC   C3B68793  25.645  22.215   6.906
 5272POPC   C4B68794  25.777  22.308   7.278
 5273POPC   NC368795   4.837  29.401   5.351
 5273POPC   PO468796   5.278  29.026   5.355
 5273POPC   GL168797   5.355  29.049   5.801
 5273POPC   GL268798   5.098  29.283   5.828
 5273POPC   C1A68799   5.396  28.947   6.252
 5273POPC   D2A68800   5.519  29.132   6.663
 5273POPC   C3A68801   5.368  28.966   7.043
 5273POPC   C4A68802   5.326  29.298   7.314
 5273POPC   C1B68803   4.920  29.117   6.214
 5273POPC   C2B68804   5.019  28.978   6.644
 5273POPC   C3B68805   4.888  29.140   7.058
 5273POPC   C4B68806   4.833  29.162   7.494
 5274POPC   NC368807  27.815  21.710   5.640
 5274POPC   PO468808  27.291  21.769   5.306
 5274POPC   GL168809  27.405  22.026   5.725
 5274POPC   GL268810  27.365  21.827   5.986
 5274POPC   C1A68811  27.723  22.157   6.140
 5274POPC   D2A68812  27.955  22.301   6.550
 5274POPC   C3A68813  27.764  22.266   6.988
 5274POPC   C4A68814  27.802  21.968   7.324
 5274POPC   C1B68815  27.232  22.185   6.226
 5274POPC   C2B68816  27.409  22.221   6.615
 5274POPC   C3B68817  27.228  22.222   7.010
 5274POPC   C4B68818  27.266  22.006   7.370
 5275POPC   NC368819   7.143   2.556   5.449
 5275POPC   PO468820   6.442   2.954   5.479
 5275POPC   GL168821   6.501   2.902   5.920
 5275POPC   GL268822   6.882   2.844   5.917
 5275POPC   C1A68823   6.336   2.983   6.358
 5275POPC   D2A68824   6.398   3.214   6.732
 5275POPC   C3A68825   6.455   2.993   7.122
 5275POPC   C4A68826   6.409   2.507   7.194
 5275POPC   C1B68827   6.743   2.619   6.310
 5275POPC   C2B68828   6.631   2.693   6.751
 5275POPC   C3B68829   6.893   2.703   7.165
 5275POPC   C4B68830   6.895   2.608   7.595
 5276POPC   NC368831  43.697   0.482   5.471
 5276POPC   PO468832  43.821  44.802   5.601
 5276POPC   GL168833  43.746   0.138   5.887
 5276POPC   GL268834  43.805  44.961   6.194
 5276POPC   C1A68835  43.660   0.454   6.230
 5276POPC   D2A68836  43.714   0.354   6.673
 5276POPC   C3A68837  43.875   0.457   7.092
 5276POPC   C4A68838  43.896   0.325   7.541
 5276POPC   C1B68839  44.133   0.261   6.325
 5276POPC   C2B68840  44.270   0.365   6.777
 5276POPC   C3B68841  44.322   0.245   7.244
 5276POPC   C4B68842  44.372   0.233   7.734
 5277POPC   NC368843  28.464  20.951   5.148
 5277POPC   PO468844  28.559  20.357   5.421
 5277POPC   GL168845  28.457  20.460   5.841
 5277POPC   GL268846  28.279  20.731   5.796
 5277POPC   C1A68847  28.549  20.732   6.227
 5277POPC   D2A68848  28.357  20.922   6.602
 5277POPC   C3A68849  28.576  20.683   6.892
 5277POPC   C4A68850  28.544  20.484   7.267
 5277POPC   C1B68851  28.057  20.587   6.189
 5277POPC   C2B68852  28.114  20.463   6.636
 5277POPC   C3B68853  28.072  20.613   7.054
 5277POPC   C4B68854  28.088  20.511   7.497
 5278POPC   NC368855  32.421  20.641   5.348
 5278POPC   PO468856  31.729  20.736   5.280
 5278POPC   GL168857  32.022  20.751   5.644
 5278POPC   GL268858  32.167  20.414   5.752
 5278POPC   C1A68859  32.149  20.867   6.078
 5278POPC   D2A68860  32.248  21.074   6.491
 5278POPC   C3A68861  32.384  20.812   6.844
 5278POPC   C4A68862  32.428  20.596   7.233
 5278POPC   C1B68863  31.997  20.375   6.190
 5278POPC   C2B68864  31.913  20.659   6.560
 5278POPC   C3B68865  31.939  20.567   7.012
 5278POPC   C4B68866  31.896  20.163   7.247
 5279POPC   NC368867  33.869  23.355   5.288
 5279POPC   PO468868  33.659  22.758   5.334
 5279POPC   GL168869  33.641  23.040   5.666
 5279POPC   GL268870  33.943  22.859   5.771
 5279POPC   C1A68871  33.775  23.243   6.048
 5279POPC   D2A68872  33.899  23.355   6.452
 5279POPC   C3A68873  34.015  23.086   6.760
 5279POPC   C4A68874  33.951  23.128   7.188
 5279POPC   C1B68875  34.032  22.803   6.228
 5279POPC   C2B68876  33.918  22.599   6.638
 5279POPC   C3B68877  34.071  22.632   7.010
 5279POPC   C4B68878  33.790  22.626   7.293
 5280POPC   NC368879  29.958   2.600   5.605
 5280POPC   PO468880  29.539   3.040   5.454
 5280POPC   GL168881  29.705   2.964   5.863
 5280POPC   GL268882  30.111   3.007   5.885
 5280POPC   C1A68883  29.768   2.842   6.283
 5280POPC   D2A68884  29.777   2.971   6.703
 5280POPC   C3A68885  29.878   2.621   6.959
 5280POPC   C4A68886  29.750   2.430   7.317
 5280POPC   C1B68887  30.311   3.002   6.318
 5280POPC   C2B68888  30.290   2.893   6.776
 5280POPC   C3B68889  30.228   2.877   7.245
 5280POPC   C4B68890  30.202   2.965   7.753
 5281POPC   NC368891  44.191  44.540   5.504
 5281POPC   PO468892  43.606  44.382   5.189
 5281POPC   GL168893  43.563  44.384   5.722
 5281POPC   GL268894  43.418  44.725   5.914
 5281POPC   C1A68895  43.685  44.356   6.183
 5281POPC   D2A68896  43.516  44.403   6.628
 5281POPC   C3A68897  43.816  44.567   6.936
 5281POPC   C4A68898  43.909  44.895   7.270
 5281POPC   C1B68899  43.324   0.034   6.257
 5281POPC   C2B68900  43.414  44.926   6.687
 5281POPC   C3B68901  43.494   0.114   7.082
 5281POPC   C4B68902  43.505   0.024   7.579
 5282POPC   NC368903  24.730  34.347   5.413
 5282POPC   PO468904  25.271  33.968   5.280
 5282POPC   GL168905  25.322  33.802   5.735
 5282POPC   GL268906  25.441  33.474   5.838
 5282POPC   C1A68907  25.457  33.836   6.189
 5282POPC   D2A68908  25.211  33.732   6.546
 5282POPC   C3A68909  25.243  33.883   6.946
 5282POPC   C4A68910  25.549  33.984   7.198
 5282POPC   C1B68911  25.092  33.461   6.126
 5282POPC   C2B68912  24.963  33.278   6.530
 5282POPC   C3B68913  24.997  33.416   6.955
 5282POPC   C4B68914  25.300  33.476   7.275
 5283POPC   NC368915   5.943  42.434   5.511
 5283POPC   PO468916   5.383  42.024   5.483
 5283POPC   GL168917   5.608  42.220   5.866
 5283POPC   GL268918   6.009  42.152   5.941
 5283POPC   C1A68919   5.656  42.298   6.310
 5283POPC   D2A68920   5.838  42.157   6.684
 5283POPC   C3A68921   5.644  42.160   7.104
 5283POPC   C4A68922   5.742  42.366   7.502
 5283POPC   C1B68923   6.230  42.293   6.352
 5283POPC   C2B68924   6.331  42.682   6.634
 5283POPC   C3B68925   6.323  42.785   7.113
 5283POPC   C4B68926   6.092  42.769   7.531
 5284POPC   NC368927   8.169  28.737   5.562
 5284POPC   PO468928   7.950  28.053   5.468
 5284POPC   GL168929   8.193  28.241   5.759
 5284POPC   GL268930   7.931  28.427   5.875
 5284POPC   C1A68931   8.284  28.145   6.190
 5284POPC   D2A68932   8.182  28.204   6.617
 5284POPC   C3A68933   8.444  28.212   6.988
 5284POPC   C4A68934   8.589  28.482   7.320
 5284POPC   C1B68935   8.039  28.631   6.254
 5284POPC   C2B68936   8.066  28.687   6.690
 5284POPC   C3B68937   7.938  28.436   7.045
 5284POPC   C4B68938   7.902  28.812   7.256
 5285POPC   NC368939   4.213  41.266   5.247
 5285POPC   PO468940   4.223  41.511   5.826
 5285POPC   GL168941   4.394  41.731   6.149
 5285POPC   GL268942   4.733  41.708   6.035
 5285POPC   C1A68943   4.289  41.960   6.549
 5285POPC   D2A68944   4.022  41.785   6.893
 5285POPC   C3A68945   4.231  41.431   7.035
 5285POPC   C4A68946   4.665  41.441   7.153
 5285POPC   C1B68947   4.719  42.098   6.279
 5285POPC   C2B68948   4.784  42.208   6.716
 5285POPC   C3B68949   4.584  42.094   7.130
 5285POPC   C4B68950   4.142  42.079   7.281
 5286POPC   NC368951  40.124  21.729   5.150
 5286POPC   PO468952  40.125  21.139   5.400
 5286POPC   GL168953  39.928  21.200   5.808
 5286POPC   GL268954  39.837  21.541   5.820
 5286POPC   C1A68955  39.846  21.282   6.261
 5286POPC   D2A68956  39.876  21.656   6.526
 5286POPC   C3A68957  39.832  21.518   6.929
 5286POPC   C4A68958  40.086  21.209   7.114
 5286POPC   C1B68959  40.223  21.604   6.045
 5286POPC   C2B68960  40.347  21.895   6.371
 5286POPC   C3B68961  40.281  21.876   6.813
 5286POPC   C4B68962  40.210  21.692   7.220
 5287POPC   NC368963  42.864  37.363   5.370
 5287POPC   PO468964  43.281  37.835   5.114
 5287POPC   GL168965  43.136  37.774   5.611
 5287POPC   GL268966  43.139  37.465   5.835
 5287POPC   C1A68967  42.990  37.865   6.090
 5287POPC   D2A68968  43.068  37.598   6.467
 5287POPC   C3A68969  43.003  37.737   6.901
 5287POPC   C4A68970  43.173  37.906   7.320
 5287POPC   C1B68971  43.470  37.405   6.187
 5287POPC   C2B68972  43.487  37.375   6.664
 5287POPC   C3B68973  43.329  37.393   7.085
 5287POPC   C4B68974  43.524  37.563   7.401
 5288POPC   NC368975  10.640  18.959   5.456
 5288POPC   PO468976  10.459  19.550   5.451
 5288POPC   GL168977  10.371  19.261   5.781
 5288POPC   GL268978  10.221  19.503   5.976
 5288POPC   C1A68979  10.462  18.977   6.126
 5288POPC   D2A68980  10.410  18.952   6.580
 5288POPC   C3A68981  10.739  19.038   6.897
 5288POPC   C4A68982  10.612  18.769   7.250
 5288POPC   C1B68983  10.484  19.431   6.360
 5288POPC   C2B68984  10.339  19.406   6.798
 5288POPC   C3B68985  10.372  19.239   7.194
 5288POPC   C4B68986  10.713  19.227   7.457
 5289POPC   NC368987  20.935   7.320   5.345
 5289POPC   PO468988  21.538   7.102   5.352
 5289POPC   GL168989  21.316   7.336   5.700
 5289POPC   GL268990  21.261   7.718   5.808
 5289POPC   C1A68991  21.260   7.286   6.133
 5289POPC   D2A68992  21.398   7.369   6.518
 5289POPC   C3A68993  21.222   7.230   6.868
 5289POPC   C4A68994  21.471   7.083   7.165
 5289POPC   C1B68995  21.208   7.786   6.300
 5289POPC   C2B68996  21.251   7.772   6.800
 5289POPC   C3B68997  21.382   7.591   7.233
 5289POPC   C4B68998  21.223   7.360   7.623
 5290POPC   NC368999   8.400  37.588   5.412
 5290POPC   PO469000   8.100  38.157   5.448
 5290POPC   GL169001   8.154  38.004   5.880
 5290POPC   GL269002   8.292  37.684   5.914
 5290POPC   C1A69003   8.208  38.013   6.339
 5290POPC   D2A69004   8.051  37.797   6.689
 5290POPC   C3A69005   8.105  37.983   7.078
 5290POPC   C4A69006   8.271  37.721   7.336
 5290POPC   C1B69007   8.504  37.394   6.229
 5290POPC   C2B69008   8.541  37.205   6.629
 5290POPC   C3B69009   8.502  37.359   7.044
 5290POPC   C4B69010   8.744  37.413   7.419
 5291POPC   NC369011   7.632   6.571   5.528
 5291POPC   PO469012   7.222   7.097   5.736
 5291POPC   GL169013   7.454   6.818   5.929
 5291POPC   GL269014   7.199   6.545   5.779
 5291POPC   C1A69015   7.620   6.490   6.185
 5291POPC   D2A69016   7.637   6.266   6.582
 5291POPC   C3A69017   7.659   6.603   6.858
 5291POPC   C4A69018   7.468   6.791   7.163
 5291POPC   C1B69019   7.072   6.584   6.168
 5291POPC   C2B69020   7.247   6.579   6.540
 5291POPC   C3B69021   7.187   6.357   6.888
 5291POPC   C4B69022   7.016   6.534   7.225
 5292POPC   NC369023  36.044   3.459   5.354
 5292POPC   PO469024  36.772   3.437   5.354
 5292POPC   GL169025  36.351   3.314   5.722
 5292POPC   GL269026  35.902   3.356   5.808
 5292POPC   C1A69027  36.214   3.510   6.164
 5292POPC   D2A69028  35.989   3.820   6.457
 5292POPC   C3A69029  36.117   3.770   6.897
 5292POPC   C4A69030  36.445   3.431   7.001
 5292POPC   C1B69031  35.700   3.466   6.201
 5292POPC   C2B69032  35.856   3.339   6.620
 5292POPC   C3B69033  35.942   3.333   7.078
 5292POPC   C4B69034  35.747   3.559   7.393
 5293POPC   NC369035  11.369  21.091   5.453
 5293POPC   PO469036  11.476  21.727   5.388
 5293POPC   GL169037  11.344  21.503   5.796
 5293POPC   GL269038  11.013  21.297   5.795
 5293POPC   C1A69039  11.184  21.514   6.243
 5293POPC   D2A69040  11.050  21.468   6.678
 5293POPC   C3A69041  11.409  21.588   7.019
 5293POPC   C4A69042  11.365  21.772   7.450
 5293POPC   C1B69043  11.155  21.000   6.120
 5293POPC   C2B69044  11.288  21.008   6.572
 5293POPC   C3B69045  11.163  21.115   7.006
 5293POPC   C4B69046  11.366  21.196   7.363
 5294POPC   NC369047  28.902  23.971   5.214
 5294POPC   PO469048  28.316  23.768   5.322
 5294POPC   GL169049  28.223  23.718   5.764
 5294POPC   GL269050  28.055  23.419   5.778
 5294POPC   C1A69051  28.344  23.871   6.185
 5294POPC   D2A69052  28.190  23.870   6.613
 5294POPC   C3A69053  28.455  23.838   6.974
 5294POPC   C4A69054  28.657  23.698   7.337
 5294POPC   C1B69055  27.869  23.455   6.189
 5294POPC   C2B69056  27.830  23.519   6.622
 5294POPC   C3B69057  28.109  23.453   6.974
 5294POPC   C4B69058  28.213  23.500   7.450
 5295POPC   NC369059  28.373   1.666   5.223
 5295POPC   PO469060  28.049   2.199   5.520
 5295POPC   GL169061  28.394   1.994   5.765
 5295POPC   GL269062  28.560   1.670   5.719
 5295POPC   C1A69063  28.501   2.084   6.166
 5295POPC   D2A69064  28.251   2.155   6.555
 5295POPC   C3A69065  28.452   2.344   6.887
 5295POPC   C4A69066  28.416   2.344   7.318
 5295POPC   C1B69067  28.598   1.561   6.160
 5295POPC   C2B69068  28.619   1.800   6.572
 5295POPC   C3B69069  28.432   1.827   6.955
 5295POPC   C4B69070  28.065   2.027   7.099
 5296POPC   NC369071   3.777   5.673   5.371
 5296POPC   PO469072   3.467   6.301   5.397
 5296POPC   GL169073   3.591   5.979   5.778
 5296POPC   GL269074   3.859   5.698   5.860
 5296POPC   C1A69075   3.377   5.669   6.083
 5296POPC   D2A69076   3.323   5.493   6.508
 5296POPC   C3A69077   3.532   5.708   6.866
 5296POPC   C4A69078   3.366   5.945   7.231
 5296POPC   C1B69079   3.847   5.919   6.239
 5296POPC   C2B69080   3.856   6.116   6.616
 5296POPC   C3B69081   3.867   6.075   7.036
 5296POPC   C4B69082   3.821   5.789   7.365
 5297POPC   NC369083  41.022  13.068   5.488
 5297POPC   PO469084  40.763  12.519   5.287
 5297POPC   GL169085  40.727  12.548   5.758
 5297POPC   GL269086  40.886  12.838   5.906
 5297POPC   C1A69087  40.527  12.619   6.186
 5297POPC   D2A69088  40.405  12.895   6.545
 5297POPC   C3A69089  40.547  12.764   6.943
 5297POPC   C4A69090  40.400  12.797   7.334
 5297POPC   C1B69091  40.849  13.036   6.282
 5297POPC   C2B69092  40.921  12.972   6.685
 5297POPC   C3B69093  40.856  13.155   7.077
 5297POPC   C4B69094  41.164  13.315   7.355
 5298POPC   NC369095  35.195  32.509   5.275
 5298POPC   PO469096  35.547  31.894   5.413
 5298POPC   GL169097  35.505  32.281   5.647
 5298POPC   GL269098  35.167  32.188   5.699
 5298POPC   C1A69099  35.446  32.357   6.113
 5298POPC   D2A69100  35.569  32.084   6.455
 5298POPC   C3A69101  35.565  32.305   6.827
 5298POPC   C4A69102  35.593  32.156   7.234
 5298POPC   C1B69103  35.171  31.916   6.096
 5298POPC   C2B69104  35.178  31.746   6.537
 5298POPC   C3B69105  35.226  31.912   6.969
 5298POPC   C4B69106  35.124  32.357   7.116
 5299POPC   NC369107  41.212  29.672   5.407
 5299POPC   PO469108  41.613  30.223   5.280
 5299POPC   GL169109  41.523  29.983   5.707
 5299POPC   GL269110  41.284  30.182   5.899
 5299POPC   C1A69111  41.414  29.727   6.096
 5299POPC   D2A69112  41.123  29.883   6.425
 5299POPC   C3A69113  41.160  29.668   6.819
 5299POPC   C4A69114  41.513  29.680   7.140
 5299POPC   C1B69115  41.644  30.161   6.206
 5299POPC   C2B69116  41.575  30.026   6.626
 5299POPC   C3B69117  41.316  30.129   6.959
 5299POPC   C4B69118  41.498  30.219   7.291
 5300POPC   NC369119  37.021  16.661   5.479
 5300POPC   PO469120  36.569  17.160   5.396
 5300POPC   GL169121  36.787  17.004   5.783
 5300POPC   GL269122  36.477  16.952   5.901
 5300POPC   C1A69123  37.033  16.750   6.122
 5300POPC   D2A69124  37.050  16.496   6.499
 5300POPC   C3A69125  37.155  16.640   6.905
 5300POPC   C4A69126  36.964  16.608   7.291
 5300POPC   C1B69127  36.638  16.998   6.318
 5300POPC   C2B69128  36.969  17.039   6.623
 5300POPC   C3B69129  36.941  17.070   7.072
 5300POPC   C4B69130  36.549  16.929   7.143
 5301POPC   NC369131  35.040   9.325   5.651
 5301POPC   PO469132  35.585   9.034   5.394
 5301POPC   GL169133  35.397   9.065   5.866
 5301POPC   GL269134  35.551   9.234   6.073
 5301POPC   C1A69135  35.101   8.879   6.207
 5301POPC   D2A69136  35.113   8.669   6.622
 5301POPC   C3A69137  35.072   8.909   7.031
 5301POPC   C4A69138  35.264   9.291   7.240
 5301POPC   C1B69139  35.570   8.958   6.365
 5301POPC   C2B69140  35.489   9.016   6.768
 5301POPC   C3B69141  35.641   8.919   7.148
 5301POPC   C4B69142  35.687   9.162   7.509
 5302POPC   NC369143  38.114  14.612   5.593
 5302POPC   PO469144  38.638  14.299   5.318
 5302POPC   GL169145  38.536  14.325   5.764
 5302POPC   GL269146  38.844  14.488   5.897
 5302POPC   C1A69147  38.340  14.435   6.183
 5302POPC   D2A69148  38.329  14.249   6.564
 5302POPC   C3A69149  38.269  14.438   6.968
 5302POPC   C4A69150  38.190  14.628   7.378
 5302POPC   C1B69151  38.834  14.408   6.358
 5302POPC   C2B69152  38.770  14.356   6.806
 5302POPC   C3B69153  38.823  14.396   7.257
 5302POPC   C4B69154  38.636  14.365   7.663
 5303POPC   NC369155  24.018  10.337   5.413
 5303POPC   PO469156  24.586  10.582   5.038
 5303POPC   GL169157  24.538  10.637   5.573
 5303POPC   GL269158  24.206  10.623   5.788
 5303POPC   C1A69159  24.650  10.522   6.067
 5303POPC   D2A69160  24.741  10.459   6.560
 5303POPC   C3A69161  24.430  10.570   6.859
 5303POPC   C4A69162  24.344  10.858   7.226
 5303POPC   C1B69163  24.076  10.389   6.175
 5303POPC   C2B69164  23.832  10.395   6.560
 5303POPC   C3B69165  23.940  10.571   6.951
 5303POPC   C4B69166  24.167  10.317   7.248
 5304POPC   NC369167  14.595   5.043   5.489
 5304POPC   PO469168  13.944   4.908   5.436
 5304POPC   GL169169  14.218   4.885   5.818
 5304POPC   GL269170  14.457   4.595   5.767
 5304POPC   C1A69171  14.178   5.022   6.259
 5304POPC   D2A69172  14.183   4.981   6.712
 5304POPC   C3A69173  14.307   5.265   7.039
 5304POPC   C4A69174  14.194   5.042   7.410
 5304POPC   C1B69175  14.590   4.708   6.182
 5304POPC   C2B69176  14.689   4.921   6.565
 5304POPC   C3B69177  14.618   4.839   6.996
 5304POPC   C4B69178  14.688   5.079   7.351
 5305POPC   NC369179  10.709  15.084   5.255
 5305POPC   PO469180  10.197  14.995   5.417
 5305POPC   GL169181  10.545  15.074   5.770
 5305POPC   GL269182  10.861  15.300   5.710
 5305POPC   C1A69183  10.477  15.126   6.262
 5305POPC   D2A69184  10.383  14.975   6.723
 5305POPC   C3A69185  10.289  15.175   7.142
 5305POPC   C4A69186  10.301  14.988   7.568
 5305POPC   C1B69187  10.971  15.183   6.143
 5305POPC   C2B69188  10.877  15.050   6.598
 5305POPC   C3B69189  10.797  15.106   7.065
 5305POPC   C4B69190  10.791  14.873   7.485
 5306POPC   NC369191  33.972   4.506   5.457
 5306POPC   PO469192  33.356   4.310   5.665
 5306POPC   GL169193  33.698   4.430   5.902
 5306POPC   GL269194  33.933   4.155   5.839
 5306POPC   C1A69195  33.701   4.348   6.346
 5306POPC   D2A69196  33.463   4.108   6.669
 5306POPC   C3A69197  33.606   4.217   7.073
 5306POPC   C4A69198  33.648   3.934   7.407
 5306POPC   C1B69199  34.176   4.431   6.119
 5306POPC   C2B69200  34.160   4.433   6.565
 5306POPC   C3B69201  34.129   4.177   6.924
 5306POPC   C4B69202  34.061   4.291   7.335
 5307POPC   NC369203  36.914   9.630   5.430
 5307POPC   PO469204  36.353  10.133   5.358
 5307POPC   GL169205  36.763  10.114   5.696
 5307POPC   GL269206  36.812   9.770   5.897
 5307POPC   C1A69207  36.960  10.145   6.167
 5307POPC   D2A69208  36.809   9.816   6.499
 5307POPC   C3A69209  36.964   9.816   6.963
 5307POPC   C4A69210  36.896   9.766   7.443
 5307POPC   C1B69211  37.168   9.656   6.166
 5307POPC   C2B69212  37.249   9.549   6.593
 5307POPC   C3B69213  37.186   9.337   6.974
 5307POPC   C4B69214  37.422   9.172   7.320
 5308POPC   NC369215   1.379   3.039   5.298
 5308POPC   PO469216   1.380   2.408   5.572
 5308POPC   GL169217   1.032   2.586   5.789
 5308POPC   GL269218   1.131   2.904   5.756
 5308POPC   C1A69219   1.007   2.502   6.250
 5308POPC   D2A69220   1.000   2.799   6.611
 5308POPC   C3A69221   1.158   2.678   7.026
 5308POPC   C4A69222   1.123   2.525   7.475
 5308POPC   C1B69223   1.299   2.936   6.215
 5308POPC   C2B69224   1.401   3.095   6.675
 5308POPC   C3B69225   1.464   3.223   7.131
 5308POPC   C4B69226   1.665   3.001   7.492
 5309POPC   NC369227  42.593  34.547   5.361
 5309POPC   PO469228  41.951  34.462   5.165
 5309POPC   GL169229  42.132  34.627   5.572
 5309POPC   GL269230  41.897  34.592   5.809
 5309POPC   C1A69231  42.400  34.635   6.003
 5309POPC   D2A69232  42.438  34.467   6.445
 5309POPC   C3A69233  42.550  34.616   6.877
 5309POPC   C4A69234  42.490  34.362   7.255
 5309POPC   C1B69235  41.977  34.403   6.226
 5309POPC   C2B69236  41.980  34.595   6.659
 5309POPC   C3B69237  42.091  34.623   7.106
 5309POPC   C4B69238  42.143  34.584   7.558
 5310POPC   NC369239  44.204  13.377   5.015
 5310POPC   PO469240  43.706  13.664   5.391
 5310POPC   GL169241  43.812  13.571   5.797
 5310POPC   GL269242  43.756  13.199   5.781
 5310POPC   C1A69243  44.077  13.511   6.182
 5310POPC   D2A69244  44.042  13.678   6.587
 5310POPC   C3A69245  44.260  13.577   6.968
 5310POPC   C4A69246  44.024  13.657   7.315
 5310POPC   C1B69247  43.549  13.328   6.158
 5310POPC   C2B69248  43.627  13.266   6.580
 5310POPC   C3B69249  43.756  13.425   6.957
 5310POPC   C4B69250  43.708  13.266   7.407
 5311POPC   NC369251  21.521   8.536   5.286
 5311POPC   PO469252  21.136   9.053   5.454
 5311POPC   GL169253  21.156   9.137   5.831
 5311POPC   GL269254  21.519   9.137   5.810
 5311POPC   C1A69255  21.244   9.116   6.252
 5311POPC   D2A69256  21.511   9.071   6.583
 5311POPC   C3A69257  21.384   8.959   6.985
 5311POPC   C4A69258  21.064   8.988   7.266
 5311POPC   C1B69259  21.678   9.391   6.172
 5311POPC   C2B69260  21.606   9.593   6.590
 5311POPC   C3B69261  21.694   9.373   6.980
 5311POPC   C4B69262  21.479   9.317   7.382
 5312POPC   NC369263   5.524  22.685   5.554
 5312POPC   PO469264   4.910  23.039   5.288
 5312POPC   GL169265   5.004  22.963   5.738
 5312POPC   GL269266   5.081  22.639   5.790
 5312POPC   C1A69267   5.118  23.001   6.211
 5312POPC   D2A69268   5.225  23.192   6.645
 5312POPC   C3A69269   5.132  23.012   7.077
 5312POPC   C4A69270   5.334  22.860   7.470
 5312POPC   C1B69271   5.324  22.541   6.172
 5312POPC   C2B69272   5.346  22.664   6.593
 5312POPC   C3B69273   5.400  22.572   7.019
 5312POPC   C4B69274   5.025  22.495   7.199
 5313POPC   NC369275  39.400  21.396   5.606
 5313POPC   PO469276  38.847  21.599   5.224
 5313POPC   GL169277  38.950  21.506   5.791
 5313POPC   GL269278  39.073  21.136   5.916
 5313POPC   C1A69279  39.156  21.517   6.248
 5313POPC   D2A69280  39.438  21.362   6.622
 5313POPC   C3A69281  39.326  21.445   7.078
 5313POPC   C4A69282  39.283  21.553   7.542
 5313POPC   C1B69283  39.370  21.019   6.252
 5313POPC   C2B69284  39.682  20.866   6.562
 5313POPC   C3B69285  39.642  21.025   6.978
 5313POPC   C4B69286  39.666  21.225   7.396
 5314POPC   NC369287  11.250  26.116   5.450
 5314POPC   PO469288  10.709  25.643   5.406
 5314POPC   GL169289  11.023  25.784   5.756
 5314POPC   GL269290  11.403  25.703   5.756
 5314POPC   C1A69291  11.070  26.093   6.106
 5314POPC   D2A69292  11.194  26.036   6.541
 5314POPC   C3A69293  11.365  26.296   6.871
 5314POPC   C4A69294  11.146  26.233   7.271
 5314POPC   C1B69295  11.365  25.673   6.204
 5314POPC   C2B69296  11.446  25.596   6.641
 5314POPC   C3B69297  11.295  25.792   7.010
 5314POPC   C4B69298  11.152  25.739   7.446
 5315POPC   NC369299  36.070  39.363   5.551
 5315POPC   PO469300  36.638  38.964   5.418
 5315POPC   GL169301  36.487  39.191   5.788
 5315POPC   GL269302  36.217  38.951   5.859
 5315POPC   C1A69303  36.252  39.374   6.186
 5315POPC   D2A69304  35.952  39.318   6.537
 5315POPC   C3A69305  36.042  39.466   6.917
 5315POPC   C4A69306  36.361  39.332   7.164
 5315POPC   C1B69307  35.954  38.916   6.239
 5315POPC   C2B69308  36.028  38.750   6.672
 5315POPC   C3B69309  36.009  38.951   7.083
 5315POPC   C4B69310  35.841  39.316   7.359
 5316POPC   NC369311  28.077  11.125   4.966
 5316POPC   PO469312  28.297  10.589   5.319
 5316POPC   GL169313  28.273  10.643   5.765
 5316POPC   GL269314  28.107  10.364   5.876
 5316POPC   C1A69315  28.018  10.807   6.135
 5316POPC   D2A69316  27.964  10.656   6.570
 5316POPC   C3A69317  28.130  10.505   6.940
 5316POPC   C4A69318  28.102  10.152   7.225
 5316POPC   C1B69319  28.346  10.440   6.266
 5316POPC   C2B69320  28.533  10.596   6.660
 5316POPC   C3B69321  28.598  10.487   7.106
 5316POPC   C4B69322  28.901  10.298   7.333
 5317POPC   NC369323   2.243  24.981   5.416
 5317POPC   PO469324   1.802  25.312   5.363
 5317POPC   GL169325   1.997  25.396   5.814
 5317POPC   GL269326   2.244  25.155   5.933
 5317POPC   C1A69327   1.960  25.382   6.311
 5317POPC   D2A69328   2.003  25.156   6.740
 5317POPC   C3A69329   1.921  25.346   7.162
 5317POPC   C4A69330   1.841  25.734   7.396
 5317POPC   C1B69331   2.214  24.903   6.330
 5317POPC   C2B69332   2.162  24.662   6.738
 5317POPC   C3B69333   2.104  24.836   7.169
 5317POPC   C4B69334   1.821  24.926   7.508
 5318POPC   NC369335   3.778  20.697   5.386
 5318POPC   PO469336   3.192  20.479   5.488
 5318POPC   GL169337   3.489  20.702   5.805
 5318POPC   GL269338   3.378  21.003   6.004
 5318POPC   C1A69339   3.784  20.700   6.132
 5318POPC   D2A69340   3.930  20.509   6.489
 5318POPC   C3A69341   3.745  20.695   6.845
 5318POPC   C4A69342   3.807  20.661   7.256
 5318POPC   C1B69343   3.457  20.957   6.471
 5318POPC   C2B69344   3.257  20.847   6.877
 5318POPC   C3B69345   3.290  20.641   7.300
 5318POPC   C4B69346   3.256  20.414   7.700
 5319POPC   NC369347  12.301   5.876   5.359
 5319POPC   PO469348  11.694   5.597   5.389
 5319POPC   GL169349  12.023   5.573   5.679
 5319POPC   GL269350  12.021   5.916   5.827
 5319POPC   C1A69351  12.096   5.484   6.114
 5319POPC   D2A69352  12.018   5.409   6.554
 5319POPC   C3A69353  12.171   5.718   6.866
 5319POPC   C4A69354  12.084   6.104   7.089
 5319POPC   C1B69355  12.215   6.077   6.243
 5319POPC   C2B69356  12.273   6.427   6.569
 5319POPC   C3B69357  12.478   6.449   6.989
 5319POPC   C4B69358  12.507   6.219   7.399
 5320POPC   NC369359  16.015  23.408   5.478
 5320POPC   PO469360  16.319  23.955   5.184
 5320POPC   GL169361  16.172  23.804   5.724
 5320POPC   GL269362  15.828  23.547   5.908
 5320POPC   C1A69363  16.121  23.839   6.163
 5320POPC   D2A69364  15.765  23.770   6.452
 5320POPC   C3A69365  15.982  23.799   6.850
 5320POPC   C4A69366  16.262  23.905   7.205
 5320POPC   C1B69367  15.772  23.180   6.200
 5320POPC   C2B69368  15.591  23.212   6.629
 5320POPC   C3B69369  15.695  23.224   7.057
 5320POPC   C4B69370  15.911  23.532   7.295
 5321POPC   NC369371  40.076   0.936   5.379
 5321POPC   PO469372  39.389   1.075   5.362
 5321POPC   GL169373  39.701   1.184   5.780
 5321POPC   GL269374  40.086   1.169   5.828
 5321POPC   C1A69375  39.825   1.222   6.260
 5321POPC   D2A69376  39.797   1.154   6.714
 5321POPC   C3A69377  39.982   1.440   6.994
 5321POPC   C4A69378  39.676   1.634   7.251
 5321POPC   C1B69379  40.328   1.051   6.192
 5321POPC   C2B69380  40.307   1.156   6.623
 5321POPC   C3B69381  40.193   0.910   6.971
 5321POPC   C4B69382  40.214   0.827   7.381
 5322POPC   NC369383   2.833   9.073   5.262
 5322POPC   PO469384   2.538   8.459   5.474
 5322POPC   GL169385   2.542   8.691   5.853
 5322POPC   GL269386   2.534   9.008   5.704
 5322POPC   C1A69387   2.690   8.664   6.268
 5322POPC   D2A69388   2.910   8.957   6.507
 5322POPC   C3A69389   2.808   9.022   6.930
 5322POPC   C4A69390   2.667   8.862   7.314
 5322POPC   C1B69391   2.580   9.194   6.128
 5322POPC   C2B69392   2.459   9.236   6.580
 5322POPC   C3B69393   2.301   9.144   6.993
 5322POPC   C4B69394   2.261   9.356   7.355
 5323POPC   NC369395  17.288  18.908   5.386
 5323POPC   PO469396  17.921  19.055   5.261
 5323POPC   GL169397  17.622  19.119   5.711
 5323POPC   GL269398  17.481  18.803   5.883
 5323POPC   C1A69399  17.603  19.253   6.163
 5323POPC   D2A69400  17.457  19.141   6.576
 5323POPC   C3A69401  17.612  19.314   6.969
 5323POPC   C4A69402  17.815  19.000   7.236
 5323POPC   C1B69403  17.286  18.645   6.299
 5323POPC   C2B69404  17.050  18.825   6.653
 5323POPC   C3B69405  17.234  18.942   7.005
 5323POPC   C4B69406  17.263  19.205   7.317
 5324POPC   NC369407  27.056  15.964   5.311
 5324POPC   PO469408  26.372  16.021   5.431
 5324POPC   GL169409  26.691  16.064   5.755
 5324POPC   GL269410  26.648  15.720   5.805
 5324POPC   C1A69411  26.862  16.006   6.206
 5324POPC   D2A69412  27.082  15.941   6.642
 5324POPC   C3A69413  26.809  16.052   7.013
 5324POPC   C4A69414  26.752  15.949   7.475
 5324POPC   C1B69415  26.323  15.640   6.140
 5324POPC   C2B69416  26.274  15.785   6.553
 5324POPC   C3B69417  26.460  15.694   6.938
 5324POPC   C4B69418  26.319  15.704   7.348
 5325POPC   NC369419  23.830  41.207   5.376
 5325POPC   PO469420  23.333  41.620   5.187
 5325POPC   GL169421  23.557  41.673   5.646
 5325POPC   GL269422  23.750  41.401   5.837
 5325POPC   C1A69423  23.551  41.698   6.173
 5325POPC   D2A69424  23.462  41.622   6.658
 5325POPC   C3A69425  23.706  41.768   7.042
 5325POPC   C4A69426  24.042  41.934   7.302
 5325POPC   C1B69427  23.641  41.168   6.224
 5325POPC   C2B69428  23.739  41.172   6.678
 5325POPC   C3B69429  23.598  41.279   7.113
 5325POPC   C4B69430  23.360  41.482   7.474
 5326POPC   NC369431   6.829   6.034   5.269
 5326POPC   PO469432   6.443   5.457   5.398
 5326POPC   GL169433   6.694   5.704   5.719
 5326POPC   GL269434   6.603   6.052   5.731
 5326POPC   C1A69435   6.671   5.761   6.183
 5326POPC   D2A69436   6.429   5.986   6.477
 5326POPC   C3A69437   6.383   5.757   6.865
 5326POPC   C4A69438   6.317   5.971   7.236
 5326POPC   C1B69439   7.008   6.086   5.962
 5326POPC   C2B69440   7.053   6.108   6.399
 5326POPC   C3B69441   6.884   5.913   6.743
 5326POPC   C4B69442   6.833   6.027   7.150
 5327POPC   NC369443  17.019  34.548   5.322
 5327POPC   PO469444  16.386  34.412   5.310
 5327POPC   GL169445  16.650  34.363   5.687
 5327POPC   GL269446  16.789  34.703   5.772
 5327POPC   C1A69447  16.537  34.209   6.119
 5327POPC   D2A69448  16.481  34.419   6.562
 5327POPC   C3A69449  16.646  34.334   6.984
 5327POPC   C4A69450  16.685  34.669   7.259
 5327POPC   C1B69451  16.871  34.568   6.207
 5327POPC   C2B69452  17.003  34.487   6.628
 5327POPC   C3B69453  17.039  34.816   6.921
 5327POPC   C4B69454  17.074  34.986   7.352
 5328POPC   NC369455  16.293  13.791   5.314
 5328POPC   PO469456  15.846  13.304   5.381
 5328POPC   GL169457  16.148  13.478   5.689
 5328POPC   GL269458  16.211  13.864   5.793
 5328POPC   C1A69459  16.249  13.446   6.111
 5328POPC   D2A69460  16.232  13.300   6.511
 5328POPC   C3A69461  15.904  13.367   6.842
 5328POPC   C4A69462  16.064  13.356   7.248
 5328POPC   C1B69463  16.079  13.935   6.177
 5328POPC   C2B69464  15.942  13.755   6.534
 5328POPC   C3B69465  16.141  13.816   6.938
 5328POPC   C4B69466  16.122  14.054   7.357
 5329POPC   NC369467  20.697  19.423   5.388
 5329POPC   PO469468  20.316  20.016   5.306
 5329POPC   GL169469  20.298  19.877   5.749
 5329POPC   GL269470  20.345  19.534   5.751
 5329POPC   C1A69471  20.399  19.863   6.242
 5329POPC   D2A69472  20.492  19.800   6.700
 5329POPC   C3A69473  20.442  20.115   7.036
 5329POPC   C4A69474  20.590  20.220   7.455
 5329POPC   C1B69475  20.735  19.537   6.038
 5329POPC   C2B69476  20.918  19.559   6.464
 5329POPC   C3B69477  20.766  19.392   6.865
 5329POPC   C4B69478  20.499  19.609   7.199
 5330POPC   NC369479  26.984  13.897   5.419
 5330POPC   PO469480  26.295  13.748   5.425
 5330POPC   GL169481  26.590  13.826   5.799
 5330POPC   GL269482  26.700  13.510   5.784
 5330POPC   C1A69483  26.929  13.947   6.126
 5330POPC   D2A69484  27.148  13.890   6.554
 5330POPC   C3A69485  26.891  13.836   6.920
 5330POPC   C4A69486  26.665  13.550   7.162
 5330POPC   C1B69487  26.929  13.445   6.164
 5330POPC   C2B69488  27.094  13.324   6.563
 5330POPC   C3B69489  27.106  13.352   6.999
 5330POPC   C4B69490  27.120  13.574   7.380
 5331POPC   NC369491   9.365  40.589   5.371
 5331POPC   PO469492   9.811  40.991   5.060
 5331POPC   GL169493   9.850  40.729   5.534
 5331POPC   GL269494  10.163  40.810   5.762
 5331POPC   C1A69495   9.734  40.663   6.025
 5331POPC   D2A69496   9.677  40.977   6.423
 5331POPC   C3A69497   9.651  40.818   6.873
 5331POPC   C4A69498   9.497  40.509   7.202
 5331POPC   C1B69499  10.154  40.895   6.228
 5331POPC   C2B69500  10.229  41.026   6.674
 5331POPC   C3B69501  10.128  40.892   7.100
 5331POPC   C4B69502   9.787  40.872   7.399
 5332POPC   NC369503  13.148  42.427   4.988
 5332POPC   PO469504  12.793  41.942   5.295
 5332POPC   GL169505  12.941  42.080   5.742
 5332POPC   GL269506  12.853  42.441   5.773
 5332POPC   C1A69507  12.861  42.130   6.232
 5332POPC   D2A69508  12.898  41.923   6.648
 5332POPC   C3A69509  12.723  42.045   7.050
 5332POPC   C4A69510  12.784  42.283   7.442
 5332POPC   C1B69511  13.025  42.620   6.166
 5332POPC   C2B69512  12.846  42.538   6.578
 5332POPC   C3B69513  12.913  42.532   7.019
 5332POPC   C4B69514  13.094  42.728   7.407
 5333POPC   NC369515  36.037   8.933   5.336
 5333POPC   PO469516  36.506   9.393   5.450
 5333POPC   GL169517  36.090   9.303   5.754
 5333POPC   GL269518  35.906   8.930   5.830
 5333POPC   C1A69519  36.032   9.218   6.227
 5333POPC   D2A69520  35.998   9.004   6.636
 5333POPC   C3A69521  36.328   9.051   6.888
 5333POPC   C4A69522  36.104   9.153   7.219
 5333POPC   C1B69523  35.976   8.675   6.237
 5333POPC   C2B69524  36.142   8.490   6.656
 5333POPC   C3B69525  36.090   8.646   7.103
 5333POPC   C4B69526  35.958   8.743   7.532
 5334POPC   NC369527   9.703   2.530   5.354
 5334POPC   PO469528   9.592   3.207   5.402
 5334POPC   GL169529   9.524   2.953   5.768
 5334POPC   GL269530   9.449   2.595   5.818
 5334POPC   C1A69531   9.698   2.888   6.185
 5334POPC   D2A69532   9.900   2.975   6.567
 5334POPC   C3A69533   9.725   2.900   6.998
 5334POPC   C4A69534   9.972   2.874   7.408
 5334POPC   C1B69535   9.875   2.469   5.988
 5334POPC   C2B69536  10.015   2.459   6.421
 5334POPC   C3B69537  10.053   2.313   6.834
 5334POPC   C4B69538   9.875   2.422   7.217
 5335POPC   NC369539  23.826  23.555   5.422
 5335POPC   PO469540  23.937  24.191   5.630
 5335POPC   GL169541  23.706  23.849   5.850
 5335POPC   GL269542  23.486  23.549   5.829
 5335POPC   C1A69543  23.598  23.772   6.274
 5335POPC   D2A69544  23.818  23.589   6.591
 5335POPC   C3A69545  24.004  23.917   6.832
 5335POPC   C4A69546  23.959  24.248   7.128
 5335POPC   C1B69547  23.559  23.263   6.216
 5335POPC   C2B69548  23.380  23.274   6.649
 5335POPC   C3B69549  23.456  23.628   6.941
 5335POPC   C4B69550  23.717  23.711   7.291
 5336POPC   NC369551   6.390   9.479   5.353
 5336POPC   PO469552   6.908   9.776   5.556
 5336POPC   GL169553   6.699   9.572   5.883
 5336POPC   GL269554   6.403   9.380   5.856
 5336POPC   C1A69555   6.474   9.712   6.253
 5336POPC   D2A69556   6.402  10.034   6.555
 5336POPC   C3A69557   6.284   9.930   6.942
 5336POPC   C4A69558   6.581   9.749   7.206
 5336POPC   C1B69559   6.113   9.364   6.190
 5336POPC   C2B69560   6.107   9.535   6.605
 5336POPC   C3B69561   6.170   9.434   7.025
 5336POPC   C4B69562   6.107   9.694   7.388
 5337POPC   NC369563  21.936  27.871   5.440
 5337POPC   PO469564  22.236  27.220   5.258
 5337POPC   GL169565  22.174  27.427   5.699
 5337POPC   GL269566  22.358  27.725   5.795
 5337POPC   C1A69567  22.093  27.302   6.150
 5337POPC   D2A69568  22.234  27.171   6.541
 5337POPC   C3A69569  22.173  27.402   6.916
 5337POPC   C4A69570  22.143  27.543   7.338
 5337POPC   C1B69571  22.155  27.844   6.153
 5337POPC   C2B69572  22.227  28.055   6.565
 5337POPC   C3B69573  22.241  27.948   7.009
 5337POPC   C4B69574  22.357  27.997   7.463
 5338POPC   NC369575   8.667   9.071   5.428
 5338POPC   PO469576   9.116   8.624   5.501
 5338POPC   GL169577   9.008   8.856   5.867
 5338POPC   GL269578   8.997   9.229   5.780
 5338POPC   C1A69579   8.975   8.869   6.320
 5338POPC   D2A69580   9.227   8.962   6.678
 5338POPC   C3A69581   9.048   8.832   7.043
 5338POPC   C4A69582   8.705   8.613   7.072
 5338POPC   C1B69583   8.888   9.374   6.180
 5338POPC   C2B69584   8.849   9.320   6.621
 5338POPC   C3B69585   9.031   9.352   7.008
 5338POPC   C4B69586   8.856   9.548   7.349
 5339POPC   NC369587  32.233  24.054   5.446
 5339POPC   PO469588  32.189  23.508   5.164
 5339POPC   GL169589  32.185  23.549   5.693
 5339POPC   GL269590  31.862  23.375   5.755
 5339POPC   C1A69591  32.480  23.463   6.141
 5339POPC   D2A69592  32.622  23.465   6.637
 5339POPC   C3A69593  32.396  23.651   7.022
 5339POPC   C4A69594  32.168  23.815   7.401
 5339POPC   C1B69595  31.984  23.420   6.201
 5339POPC   C2B69596  32.057  23.584   6.627
 5339POPC   C3B69597  31.873  23.564   7.057
 5339POPC   C4B69598  31.652  23.548   7.476
 5340POPC   NC369599  11.073  23.170   5.558
 5340POPC   PO469600  11.630  23.198   5.120
 5340POPC   GL169601  11.592  22.928   5.592
 5340POPC   GL269602  11.294  22.751   5.770
 5340POPC   C1A69603  11.629  22.970   6.091
 5340POPC   D2A69604  11.420  22.818   6.511
 5340POPC   C3A69605  11.440  23.034   6.908
 5340POPC   C4A69606  11.610  23.152   7.324
 5340POPC   C1B69607  11.105  23.000   6.153
 5340POPC   C2B69608  10.954  23.159   6.530
 5340POPC   C3B69609  10.903  22.919   6.884
 5340POPC   C4B69610  11.087  23.006   7.275
 5341POPC   NC369611   0.434   8.199   5.348
 5341POPC   PO469612   0.012   8.375   5.805
 5341POPC   GL169613   0.470   8.460   5.894
 5341POPC   GL269614   0.660   8.179   5.801
 5341POPC   C1A69615   0.647   8.366   6.326
 5341POPC   D2A69616   0.339   8.274   6.649
 5341POPC   C3A69617   0.323   8.354   7.083
 5341POPC   C4A69618   0.323   8.177   7.479
 5341POPC   C1B69619   0.469   7.906   6.118
 5341POPC   C2B69620   0.397   7.754   6.532
 5341POPC   C3B69621   0.381   7.848   6.956
 5341POPC   C4B69622   0.345   7.691   7.346
 5342POPC   NC369623  16.708  26.507   5.466
 5342POPC   PO469624  16.422  27.175   5.370
 5342POPC   GL169625  16.452  26.888   5.726
 5342POPC   GL269626  16.827  26.923   5.784
 5342POPC   C1A69627  16.551  26.809   6.179
 5342POPC   D2A69628  16.775  26.840   6.583
 5342POPC   C3A69629  16.602  26.656   6.948
 5342POPC   C4A69630  16.602  26.831   7.353
 5342POPC   C1B69631  16.999  27.135   6.219
 5342POPC   C2B69632  16.980  27.315   6.671
 5342POPC   C3B69633  16.963  27.297   7.151
 5342POPC   C4B69634  16.968  27.136   7.602
 5343POPC   NC369635  28.124   5.634   5.366
 5343POPC   PO469636  28.622   6.111   5.445
 5343POPC   GL169637  28.317   5.920   5.749
 5343POPC   GL269638  28.030   6.133   5.845
 5343POPC   C1A69639  28.182   5.775   6.164
 5343POPC   D2A69640  28.369   5.773   6.552
 5343POPC   C3A69641  28.343   5.583   6.938
 5343POPC   C4A69642  28.519   5.776   7.307
 5343POPC   C1B69643  28.424   6.238   6.137
 5343POPC   C2B69644  28.674   6.177   6.528
 5343POPC   C3B69645  28.533   6.148   6.948
 5343POPC   C4B69646  28.119   6.010   7.087
 5344POPC   NC369647  39.580  34.124   5.373
 5344POPC   PO469648  39.198  34.741   5.453
 5344POPC   GL169649  39.072  34.630   5.831
 5344POPC   GL269650  39.173  34.278   5.868
 5344POPC   C1A69651  39.121  34.776   6.229
 5344POPC   D2A69652  39.321  34.519   6.520
 5344POPC   C3A69653  39.331  34.586   6.941
 5344POPC   C4A69654  39.510  34.698   7.297
 5344POPC   C1B69655  39.040  34.131   6.298
 5344POPC   C2B69656  39.032  34.173   6.767
 5344POPC   C3B69657  39.271  34.146   7.176
 5344POPC   C4B69658  39.236  34.359   7.571
 5345POPC   NC369659  28.216   9.855   5.254
 5345POPC   PO469660  28.241   9.178   5.386
 5345POPC   GL169661  28.188   9.519   5.689
 5345POPC   GL269662  28.147   9.873   5.749
 5345POPC   C1A69663  28.244   9.519   6.119
 5345POPC   D2A69664  28.258   9.722   6.493
 5345POPC   C3A69665  28.450   9.583   6.850
 5345POPC   C4A69666  28.236   9.597   7.239
 5345POPC   C1B69667  28.453   9.972   6.071
 5345POPC   C2B69668  28.635  10.062   6.477
 5345POPC   C3B69669  28.442  10.096   6.831
 5345POPC   C4B69670  28.565   9.963   7.218
 5346POPC   NC369671   3.679  16.792   5.344
 5346POPC   PO469672   3.016  16.948   5.482
 5346POPC   GL169673   3.242  16.713   5.828
 5346POPC   GL269674   3.564  16.549   5.789
 5346POPC   C1A69675   3.440  16.795   6.235
 5346POPC   D2A69676   3.655  16.882   6.633
 5346POPC   C3A69677   3.481  16.870   7.054
 5346POPC   C4A69678   3.618  16.948   7.487
 5346POPC   C1B69679   3.853  16.449   6.158
 5346POPC   C2B69680   4.024  16.472   6.593
 5346POPC   C3B69681   3.800  16.474   6.984
 5346POPC   C4B69682   3.883  16.511   7.413
 5347POPC   NC369683  26.325  16.478   5.595
 5347POPC   PO469684  25.950  16.895   5.231
 5347POPC   GL169685  25.882  16.726   5.639
 5347POPC   GL269686  26.125  16.924   5.804
 5347POPC   C1A69687  25.903  16.526   6.073
 5347POPC   D2A69688  25.833  16.677   6.473
 5347POPC   C3A69689  26.122  16.606   6.804
 5347POPC   C4A69690  26.183  16.774   7.211
 5347POPC   C1B69691  26.226  16.938   6.238
 5347POPC   C2B69692  26.218  17.095   6.673
 5347POPC   C3B69693  26.405  17.237   7.074
 5347POPC   C4B69694  26.393  17.142   7.548
 5348POPC   NC369695   4.806  36.964   5.331
 5348POPC   PO469696   5.405  37.236   5.119
 5348POPC   GL169697   5.240  37.052   5.603
 5348POPC   GL269698   4.926  37.174   5.787
 5348POPC   C1A69699   5.141  36.805   6.058
 5348POPC   D2A69700   5.143  36.573   6.474
 5348POPC   C3A69701   5.276  36.669   6.903
 5348POPC   C4A69702   5.077  36.637   7.313
 5348POPC   C1B69703   4.966  37.251   6.229
 5348POPC   C2B69704   4.837  36.999   6.566
 5348POPC   C3B69705   4.886  36.999   7.004
 5348POPC   C4B69706   5.183  37.186   7.276
 5349POPC   NC369707  32.122  15.166   4.958
 5349POPC   PO469708  31.928  15.307   5.376
 5349POPC   GL169709  31.919  15.195   5.854
 5349POPC   GL269710  32.251  15.202   6.034
 5349POPC   C1A69711  31.830  15.077   6.320
 5349POPC   D2A69712  32.039  14.914   6.701
 5349POPC   C3A69713  32.039  15.014   7.147
 5349POPC   C4A69714  31.712  14.992   7.485
 5349POPC   C1B69715  32.271  15.312   6.481
 5349POPC   C2B69716  32.455  15.160   6.875
 5349POPC   C3B69717  32.523  14.821   7.183
 5349POPC   C4B69718  32.805  14.865   7.522
 5350POPC   NC369719  10.596  29.747   5.584
 5350POPC   PO469720  10.048  29.915   5.402
 5350POPC   GL169721  10.252  30.057   5.786
 5350POPC   GL269722  10.191  29.761   5.920
 5350POPC   C1A69723  10.500  30.047   6.220
 5350POPC   D2A69724  10.632  30.137   6.685
 5350POPC   C3A69725  10.390  30.042   7.088
 5350POPC   C4A69726  10.595  29.913   7.488
 5350POPC   C1B69727  10.272  29.572   6.258
 5350POPC   C2B69728  10.595  29.650   6.535
 5350POPC   C3B69729  10.639  29.622   6.957
 5350POPC   C4B69730  10.359  29.535   7.236
 5351POPC   NC369731  22.262  41.884   5.450
 5351POPC   PO469732  22.487  41.205   5.521
 5351POPC   GL169733  22.159  41.429   5.797
 5351POPC   GL269734  22.063  41.757   5.883
 5351POPC   C1A69735  21.866  41.370   6.151
 5351POPC   D2A69736  21.962  41.220   6.552
 5351POPC   C3A69737  21.827  41.365   6.946
 5351POPC   C4A69738  22.158  41.600   7.157
 5351POPC   C1B69739  22.225  41.983   6.211
 5351POPC   C2B69740  22.330  41.945   6.643
 5351POPC   C3B69741  22.587  41.850   7.018
 5351POPC   C4B69742  22.476  41.886   7.472
 5352POPC   NC369743  18.448  14.805   5.138
 5352POPC   PO469744  19.075  14.541   5.449
 5352POPC   GL169745  18.993  14.456   5.866
 5352POPC   GL269746  18.675  14.328   5.948
 5352POPC   C1A69747  19.025  14.630   6.279
 5352POPC   D2A69748  18.960  14.879   6.654
 5352POPC   C3A69749  19.271  14.849   6.984
 5352POPC   C4A69750  19.455  14.481   7.190
 5352POPC   C1B69751  18.580  14.378   6.368
 5352POPC   C2B69752  18.878  14.231   6.634
 5352POPC   C3B69753  19.178  14.145   6.916
 5352POPC   C4B69754  18.943  14.430   7.144
 5353POPC   NC369755   9.475  25.573   5.596
 5353POPC   PO469756   9.009  25.259   5.181
 5353POPC   GL169757   9.072  25.207   5.646
 5353POPC   GL269758   8.937  25.553   5.629
 5353POPC   C1A69759   9.167  25.035   6.112
 5353POPC   D2A69760   9.104  24.882   6.581
 5353POPC   C3A69761   9.246  25.154   6.948
 5353POPC   C4A69762   9.341  25.426   7.280
 5353POPC   C1B69763   8.969  25.541   6.086
 5353POPC   C2B69764   9.052  25.655   6.532
 5353POPC   C3B69765   8.979  25.580   6.959
 5353POPC   C4B69766   8.896  25.723   7.373
 5354POPC   NC369767  28.478   2.394   5.449
 5354POPC   PO469768  28.132   2.921   5.307
 5354POPC   GL169769  28.387   2.842   5.692
 5354POPC   GL269770  28.221   2.565   5.848
 5354POPC   C1A69771  28.533   2.915   6.147
 5354POPC   D2A69772  28.655   2.775   6.593
 5354POPC   C3A69773  28.495   2.834   7.054
 5354POPC   C4A69774  28.386   2.813   7.520
 5354POPC   C1B69775  28.141   2.600   6.272
 5354POPC   C2B69776  28.142   2.740   6.684
 5354POPC   C3B69777  28.035   2.574   7.076
 5354POPC   C4B69778  27.746   2.358   7.290
 5355POPC   NC369779  40.552  35.152   5.577
 5355POPC   PO469780  40.512  35.878   5.498
 5355POPC   GL169781  40.619  35.601   5.800
 5355POPC   GL269782  40.931  35.469   5.762
 5355POPC   C1A69783  40.618  35.388   6.202
 5355POPC   D2A69784  40.622  35.613   6.600
 5355POPC   C3A69785  40.783  35.394   6.960
 5355POPC   C4A69786  40.428  35.306   7.171
 5355POPC   C1B69787  40.914  35.790   6.175
 5355POPC   C2B69788  41.070  35.907   6.602
 5355POPC   C3B69789  41.099  35.799   7.049
 5355POPC   C4B69790  41.138  35.417   7.352
 5356POPC   NC369791  16.852  18.071   5.364
 5356POPC   PO469792  17.010  18.697   5.684
 5356POPC   GL169793  16.765  18.461   5.941
 5356POPC   GL269794  16.728  18.119   5.856
 5356POPC   C1A69795  16.740  18.523   6.373
 5356POPC   D2A69796  16.571  18.669   6.767
 5356POPC   C3A69797  16.832  18.567   7.140
 5356POPC   C4A69798  17.015  18.341   7.531
 5356POPC   C1B69799  16.623  18.025   6.281
 5356POPC   C2B69800  16.880  17.899   6.651
 5356POPC   C3B69801  16.833  18.053   7.075
 5356POPC   C4B69802  16.414  18.207   7.180
 5357POPC   NC369803  20.141  36.481   5.516
 5357POPC   PO469804  19.890  37.088   5.294
 5357POPC   GL169805  19.817  36.982   5.734
 5357POPC   GL269806  19.807  36.654   5.874
 5357POPC   C1A69807  19.799  37.040   6.199
 5357POPC   D2A69808  19.881  36.782   6.553
 5357POPC   C3A69809  19.673  36.852   6.965
 5357POPC   C4A69810  19.821  37.147   7.258
 5357POPC   C1B69811  20.157  36.519   6.183
 5357POPC   C2B69812  20.258  36.449   6.631
 5357POPC   C3B69813  20.165  36.718   6.980
 5357POPC   C4B69814  19.984  36.630   7.394
 5358POPC   NC369815  19.228  24.462   5.327
 5358POPC   PO469816  19.335  25.001   5.049
 5358POPC   GL169817  19.184  24.842   5.632
 5358POPC   GL269818  19.045  24.427   5.798
 5358POPC   C1A69819  19.127  24.775   6.139
 5358POPC   D2A69820  19.131  24.528   6.536
 5358POPC   C3A69821  18.937  24.560   6.953
 5358POPC   C4A69822  19.200  24.629   7.291
 5358POPC   C1B69823  18.960  24.159   6.214
 5358POPC   C2B69824  18.915  24.089   6.700
 5358POPC   C3B69825  19.209  24.131   7.069
 5358POPC   C4B69826  19.112  24.153   7.531
 5359POPC   NC369827  22.941  21.913   5.152
 5359POPC   PO469828  22.668  21.263   5.250
 5359POPC   GL169829  22.732  21.148   5.696
 5359POPC   GL269830  22.857  21.453   5.804
 5359POPC   C1A69831  22.741  20.916   6.106
 5359POPC   D2A69832  22.981  20.933   6.513
 5359POPC   C3A69833  22.859  21.110   6.935
 5359POPC   C4A69834  23.087  21.455   7.180
 5359POPC   C1B69835  22.696  21.413   6.217
 5359POPC   C2B69836  22.718  21.505   6.645
 5359POPC   C3B69837  22.609  21.560   7.081
 5359POPC   C4B69838  22.683  21.434   7.519
 5360POPC   NC369839  24.033  37.416   5.603
 5360POPC   PO469840  23.613  37.017   5.223
 5360POPC   GL169841  23.642  36.975   5.694
 5360POPC   GL269842  23.350  37.132   5.777
 5360POPC   C1A69843  23.663  36.701   6.109
 5360POPC   D2A69844  23.786  36.425   6.497
 5360POPC   C3A69845  23.674  36.581   6.963
 5360POPC   C4A69846  23.851  36.976   7.216
 5360POPC   C1B69847  23.460  37.168   6.218
 5360POPC   C2B69848  23.516  36.910   6.591
 5360POPC   C3B69849  23.331  36.993   6.999
 5360POPC   C4B69850  23.403  36.952   7.433
 5361POPC   NC369851  34.536  36.986   5.414
 5361POPC   PO469852  34.323  36.379   5.538
 5361POPC   GL169853  34.465  36.590   5.923
 5361POPC   GL269854  34.658  36.900   5.904
 5361POPC   C1A69855  34.555  36.703   6.374
 5361POPC   D2A69856  34.557  37.029   6.702
 5361POPC   C3A69857  34.502  36.900   7.108
 5361POPC   C4A69858  34.252  36.901   7.457
 5361POPC   C1B69859  34.871  37.109   6.280
 5361POPC   C2B69860  35.038  37.216   6.727
 5361POPC   C3B69861  34.820  37.332   7.135
 5361POPC   C4B69862  34.719  37.119   7.521
 5362POPC   NC369863  13.827  28.464   5.472
 5362POPC   PO469864  13.335  27.949   5.375
 5362POPC   GL169865  13.507  28.165   5.754
 5362POPC   GL269866  13.467  28.531   5.809
 5362POPC   C1A69867  13.416  28.257   6.209
 5362POPC   D2A69868  13.485  28.554   6.551
 5362POPC   C3A69869  13.455  28.369   6.962
 5362POPC   C4A69870  13.737  28.066   7.126
 5362POPC   C1B69871  13.853  28.503   6.126
 5362POPC   C2B69872  14.000  28.655   6.547
 5362POPC   C3B69873  13.984  28.478   6.971
 5362POPC   C4B69874  13.741  28.578   7.356
 5363POPC   NC369875  35.878  15.217   5.729
 5363POPC   PO469876  35.411  14.896   5.336
 5363POPC   GL169877  35.375  15.116   5.737
 5363POPC   GL269878  35.553  14.836   5.855
 5363POPC   C1A69879  35.415  15.240   6.208
 5363POPC   D2A69880  35.596  15.291   6.648
 5363POPC   C3A69881  35.390  15.528   6.987
 5363POPC   C4A69882  35.086  15.416   7.284
 5363POPC   C1B69883  35.289  14.709   6.192
 5363POPC   C2B69884  35.119  14.778   6.603
 5363POPC   C3B69885  35.235  15.029   6.928
 5363POPC   C4B69886  35.219  14.933   7.330
 5364POPC   NC369887  16.953  44.103   5.500
 5364POPC   PO469888  16.551  43.546   5.494
 5364POPC   GL169889  16.661  43.803   5.881
 5364POPC   GL269890  17.009  43.773   5.898
 5364POPC   C1A69891  16.756  43.808   6.373
 5364POPC   D2A69892  17.116  43.800   6.713
 5364POPC   C3A69893  16.968  43.660   7.114
 5364POPC   C4A69894  16.548  43.757   7.213
 5364POPC   C1B69895  17.000  44.180   6.160
 5364POPC   C2B69896  16.954  44.294   6.615
 5364POPC   C3B69897  17.232  44.365   6.985
 5364POPC   C4B69898  17.239  44.403   7.458
 5365POPC   NC369899   5.199   3.155   5.370
 5365POPC   PO469900   4.908   3.787   5.502
 5365POPC   GL169901   5.006   3.448   5.731
 5365POPC   GL269902   4.663   3.332   5.690
 5365POPC   C1A69903   5.290   3.515   6.090
 5365POPC   D2A69904   5.329   3.702   6.499
 5365POPC   C3A69905   5.157   3.501   6.847
 5365POPC   C4A69906   5.187   3.505   7.279
 5365POPC   C1B69907   4.713   3.555   6.116
 5365POPC   C2B69908   4.802   3.375   6.508
 5365POPC   C3B69909   4.646   3.453   6.954
 5365POPC   C4B69910   4.670   3.561   7.415
 5366POPC   NC369911  31.270   4.177   5.523
 5366POPC   PO469912  31.857   4.504   5.319
 5366POPC   GL169913  31.650   4.431   5.775
 5366POPC   GL269914  31.325   4.587   5.886
 5366POPC   C1A69915  31.479   4.142   6.176
 5366POPC   D2A69916  31.175   4.229   6.534
 5366POPC   C3A69917  31.324   4.126   6.947
 5366POPC   C4A69918  31.642   4.314   7.213
 5366POPC   C1B69919  31.484   4.612   6.334
 5366POPC   C2B69920  31.512   4.585   6.781
 5366POPC   C3B69921  31.197   4.578   7.104
 5366POPC   C4B69922  31.038   4.842   7.363
 5367POPC   NC369923   6.297  12.614   5.402
 5367POPC   PO469924   6.456  13.155   5.676
 5367POPC   GL169925   6.519  12.722   5.884
 5367POPC   GL269926   6.197  12.532   5.906
 5367POPC   C1A69927   6.767  12.677   6.290
 5367POPC   D2A69928   6.669  12.913   6.655
 5367POPC   C3A69929   6.704  12.741   7.059
 5367POPC   C4A69930   6.975  12.887   7.419
 5367POPC   C1B69931   6.263  12.675   6.337
 5367POPC   C2B69932   6.359  12.505   6.732
 5367POPC   C3B69933   6.234  12.474   7.164
 5367POPC   C4B69934   6.136  12.687   7.608
 5368POPC   NC369935  13.305  40.097   5.322
 5368POPC   PO469936  13.929  39.766   5.404
 5368POPC   GL169937  13.711  40.006   5.746
 5368POPC   GL269938  13.556  40.335   5.702
 5368POPC   C1A69939  13.716  40.050   6.208
 5368POPC   D2A69940  13.905  40.178   6.611
 5368POPC   C3A69941  13.796  40.008   7.045
 5368POPC   C4A69942  13.661  39.988   7.494
 5368POPC   C1B69943  13.235  40.154   5.998
 5368POPC   C2B69944  13.237  40.063   6.442
 5368POPC   C3B69945  13.411  40.260   6.812
 5368POPC   C4B69946  13.277  40.247   7.242
 5369POPC   NC369947   5.247  20.956   5.155
 5369POPC   PO469948   4.962  20.391   5.298
 5369POPC   GL169949   4.931  20.578   5.723
 5369POPC   GL269950   5.265  20.680   5.733
 5369POPC   C1A69951   4.860  20.766   6.160
 5369POPC   D2A69952   5.132  20.766   6.530
 5369POPC   C3A69953   4.987  20.467   6.816
 5369POPC   C4A69954   4.709  20.743   7.004
 5369POPC   C1B69955   5.282  20.471   6.116
 5369POPC   C2B69956   5.474  20.383   6.512
 5369POPC   C3B69957   5.502  20.572   6.909
 5369POPC   C4B69958   5.387  20.180   7.058
 5370POPC   NC369959  20.889  18.665   5.549
 5370POPC   PO469960  20.375  19.052   5.368
 5370POPC   GL169961  20.231  19.033   5.765
 5370POPC   GL269962  20.590  19.071   5.850
 5370POPC   C1A69963  20.201  19.241   6.131
 5370POPC   D2A69964  20.431  19.354   6.456
 5370POPC   C3A69965  20.239  19.319   6.851
 5370POPC   C4A69966  20.424  19.094   7.171
 5370POPC   C1B69967  20.827  19.065   6.253
 5370POPC   C2B69968  20.918  18.775   6.600
 5370POPC   C3B69969  20.937  18.932   7.038
 5370POPC   C4B69970  20.866  19.284   7.362
 5371POPC   NC369971  27.856  10.730   5.450
 5371POPC   PO469972  27.259  10.509   5.454
 5371POPC   GL169973  27.551  10.463   5.772
 5371POPC   GL269974  27.674  10.164   5.681
 5371POPC   C1A69975  27.698  10.394   6.195
 5371POPC   D2A69976  27.481  10.513   6.560
 5371POPC   C3A69977  27.653  10.345   6.932
 5371POPC   C4A69978  27.795  10.559   7.306
 5371POPC   C1B69979  27.379  10.041   6.035
 5371POPC   C2B69980  27.413  10.007   6.492
 5371POPC   C3B69981  27.294   9.985   6.940
 5371POPC   C4B69982  27.459  10.144   7.367
 5372POPC   NC369983  13.014  20.361   5.358
 5372POPC   PO469984  12.678  20.944   5.272
 5372POPC   GL169985  12.704  20.794   5.698
 5372POPC   GL269986  13.038  20.901   5.792
 5372POPC   C1A69987  12.830  20.487   6.034
 5372POPC   D2A69988  12.971  20.459   6.484
 5372POPC   C3A69989  12.689  20.346   6.810
 5372POPC   C4A69990  12.563  20.353   7.228
 5372POPC   C1B69991  12.959  20.922   6.267
 5372POPC   C2B69992  12.776  20.881   6.735
 5372POPC   C3B69993  12.886  20.915   7.211
 5372POPC   C4B69994  13.056  20.926   7.690
 5373POPC   NC369995   9.834  29.570   5.640
 5373POPC   PO469996   9.451  29.200   5.178
 5373POPC   GL169997   9.608  29.094   5.628
 5373POPC   GL269998   9.977  28.989   5.742
 5373POPC   C1A69999   9.616  29.135   6.099
 5373POPC   D2A70000   9.683  28.882   6.466
 5373POPC   C3A70001   9.622  28.990   6.888
 5373POPC   C4A70002   9.872  28.817   7.218
 5373POPC   C1B70003  10.106  29.086   6.190
 5373POPC   C2B70004   9.963  29.300   6.562
 5373POPC   C3B70005  10.036  29.242   6.983
 5373POPC   C4B70006   9.708  29.392   7.223
 5374POPC   NC370007  22.569  42.471   5.567
 5374POPC   PO470008  21.955  42.197   5.602
 5374POPC   GL170009  21.879  42.407   5.937
 5374POPC   GL270010  22.238  42.465   5.971
 5374POPC   C1A70011  21.896  42.384   6.377
 5374POPC   D2A70012  22.108  42.458   6.758
 5374POPC   C3A70013  22.140  42.150   7.079
 5374POPC   C4A70014  21.764  42.371   7.182
 5374POPC   C1B70015  22.450  42.404   6.382
 5374POPC   C2B70016  22.604  42.353   6.817
 5374POPC   C3B70017  22.740  42.293   7.232
 5374POPC   C4B70018  22.642  42.327   7.679
 5375POPC   NC370019  21.913  14.434   5.481
 5375POPC   PO470020  22.599  14.656   5.503
 5375POPC   GL170021  22.251  14.613   5.824
 5375POPC   GL270022  21.918  14.823   5.821
 5375POPC   C1A70023  22.137  14.320   6.166
 5375POPC   D2A70024  22.130  14.395   6.608
 5375POPC   C3A70025  22.278  14.117   6.919
 5375POPC   C4A70026  21.932  14.087   7.195
 5375POPC   C1B70027  21.947  14.791   6.303
 5375POPC   C2B70028  22.048  14.863   6.783
 5375POPC   C3B70029  22.228  14.654   7.164
 5375POPC   C4B70030  22.324  14.688   7.631
 5376POPC   NC370031  40.561  17.700   5.202
 5376POPC   PO470032  40.766  17.161   5.581
 5376POPC   GL170033  40.741  17.300   5.937
 5376POPC   GL270034  40.658  17.604   5.860
 5376POPC   C1A70035  40.611  17.170   6.305
 5376POPC   D2A70036  40.782  17.195   6.692
 5376POPC   C3A70037  40.982  17.510   6.817
 5376POPC   C4A70038  40.855  17.453   7.214
 5376POPC   C1B70039  40.750  17.685   6.303
 5376POPC   C2B70040  40.680  17.958   6.654
 5376POPC   C3B70041  40.844  17.945   7.064
 5376POPC   C4B70042  41.278  17.773   7.171
 5377POPC   NC370043  32.478  22.437   5.452
 5377POPC   PO470044  32.068  21.858   5.441
 5377POPC   GL170045  32.162  22.156   5.766
 5377POPC   GL270046  32.496  22.068   5.794
 5377POPC   C1A70047  32.177  22.373   6.181
 5377POPC   D2A70048  31.952  22.447   6.574
 5377POPC   C3A70049  32.002  22.214   6.966
 5377POPC   C4A70050  32.082  22.354   7.371
 5377POPC   C1B70051  32.358  21.878   6.155
 5377POPC   C2B70052  32.208  21.974   6.529
 5377POPC   C3B70053  32.317  21.772   6.878
 5377POPC   C4B70054  32.044  21.647   7.175
 5378POPC   NC370055   3.370  18.883   5.693
 5378POPC   PO470056   3.384  18.300   5.355
 5378POPC   GL170057   3.504  18.257   5.807
 5378POPC   GL270058   3.745  18.497   5.929
 5378POPC   C1A70059   3.358  18.367   6.257
 5378POPC   D2A70060   3.076  18.437   6.645
 5378POPC   C3A70061   3.219  18.533   7.072
 5378POPC   C4A70062   3.527  18.413   7.409
 5378POPC   C1B70063   3.800  18.101   6.185
 5378POPC   C2B70064   3.639  18.063   6.568
 5378POPC   C3B70065   3.651  18.327   6.882
 5378POPC   C4B70066   3.947  18.262   7.176
 5379POPC   NC370067  20.095  24.915   5.534
 5379POPC   PO470068  19.547  25.250   5.428
 5379POPC   GL170069  19.749  25.475   5.756
 5379POPC   GL270070  20.092  25.587   5.743
 5379POPC   C1A70071  19.859  25.338   6.189
 5379POPC   D2A70072  19.730  24.986   6.455
 5379POPC   C3A70073  19.758  24.971   6.908
 5379POPC   C4A70074  19.790  25.238   7.234
 5379POPC   C1B70075  20.268  25.642   6.191
 5379POPC   C2B70076  20.174  25.467   6.614
 5379POPC   C3B70077  20.016  25.638   7.017
 5379POPC   C4B70078  20.053  25.566   7.494
 5380POPC   NC370079  35.015  15.146   5.324
 5380POPC   PO470080  34.446  15.225   5.469
 5380POPC   GL170081  34.637  15.300   5.900
 5380POPC   GL270082  34.909  15.058   5.938
 5380POPC   C1A70083  34.550  15.526   6.345
 5380POPC   D2A70084  34.326  15.513   6.778
 5380POPC   C3A70085  34.538  15.537   7.197
 5380POPC   C4A70086  34.719  15.363   7.624
 5380POPC   C1B70087  34.939  15.200   6.387
 5380POPC   C2B70088  34.817  15.309   6.820
 5380POPC   C3B70089  34.720  15.059   7.201
 5380POPC   C4B70090  34.797  14.812   7.585
 5381POPC   NC370091  10.886  27.307   5.274
 5381POPC   PO470092  11.072  27.878   5.618
 5381POPC   GL170093  10.693  27.866   5.891
 5381POPC   GL270094  10.365  27.844   5.717
 5381POPC   C1A70095  10.459  27.503   6.103
 5381POPC   D2A70096  10.455  27.259   6.494
 5381POPC   C3A70097  10.540  27.536   6.866
 5381POPC   C4A70098  10.674  27.817   7.191
 5381POPC   C1B70099  10.164  27.940   6.137
 5381POPC   C2B70100  10.283  27.875   6.587
 5381POPC   C3B70101  10.267  28.086   6.998
 5381POPC   C4B70102  10.245  27.948   7.416
 5382POPC   NC370103  41.527   5.939   5.425
 5382POPC   PO470104  41.360   5.404   5.458
 5382POPC   GL170105  41.655   5.628   5.823
 5382POPC   GL270106  41.733   5.999   5.891
 5382POPC   C1A70107  41.727   5.698   6.307
 5382POPC   D2A70108  41.900   5.874   6.722
 5382POPC   C3A70109  41.800   5.611   7.093
 5382POPC   C4A70110  41.914   5.466   7.494
 5382POPC   C1B70111  41.786   6.209   6.319
 5382POPC   C2B70112  41.573   6.264   6.743
 5382POPC   C3B70113  41.476   5.999   7.108
 5382POPC   C4B70114  41.620   6.038   7.537
 5383POPC   NC370115  29.400  42.483   5.240
 5383POPC   PO470116  29.330  41.853   5.581
 5383POPC   GL170117  29.082  42.167   5.815
 5383POPC   GL270118  29.141  42.506   5.682
 5383POPC   C1A70119  28.830  42.225   6.201
 5383POPC   D2A70120  28.942  42.422   6.581
 5383POPC   C3A70121  29.116  42.232   6.950
 5383POPC   C4A70122  29.080  42.167   7.367
 5383POPC   C1B70123  29.164  42.623   6.110
 5383POPC   C2B70124  29.426  42.632   6.461
 5383POPC   C3B70125  29.328  42.679   6.884
 5383POPC   C4B70126  29.472  42.522   7.280
 5384POPC   NC370127  11.452   4.491   5.318
 5384POPC   PO470128  10.804   4.577   5.493
 5384POPC   GL170129  11.240   4.421   5.776
 5384POPC   GL270130  11.569   4.244   5.760
 5384POPC   C1A70131  11.252   4.155   6.179
 5384POPC   D2A70132  11.412   4.316   6.566
 5384POPC   C3A70133  11.226   4.350   6.966
 5384POPC   C4A70134  11.340   3.996   7.183
 5384POPC   C1B70135  11.747   4.310   6.152
 5384POPC   C2B70136  11.925   4.364   6.554
 5384POPC   C3B70137  11.753   4.290   6.967
 5384POPC   C4B70138  11.611   4.472   7.330
 5385POPC   NC370139   1.650  35.048   5.674
 5385POPC   PO470140   1.836  35.585   5.311
 5385POPC   GL170141   2.140  35.581   5.641
 5385POPC   GL270142   2.216  35.201   5.591
 5385POPC   C1A70143   2.029  35.721   6.076
 5385POPC   D2A70144   1.946  35.498   6.483
 5385POPC   C3A70145   2.146  35.615   6.886
 5385POPC   C4A70146   1.941  35.663   7.302
 5385POPC   C1B70147   2.186  35.225   6.051
 5385POPC   C2B70148   2.244  35.081   6.485
 5385POPC   C3B70149   2.056  35.114   6.863
 5385POPC   C4B70150   1.791  34.936   7.128
 5386POPC   NC370151  17.165  41.023   5.581
 5386POPC   PO470152  17.761  40.549   5.485
 5386POPC   GL170153  17.476  40.653   5.845
 5386POPC   GL270154  17.208  40.458   5.991
 5386POPC   C1A70155  17.413  40.923   6.219
 5386POPC   D2A70156  17.440  41.289   6.503
 5386POPC   C3A70157  17.476  41.135   6.918
 5386POPC   C4A70158  17.515  40.898   7.269
 5386POPC   C1B70159  16.956  40.668   6.276
 5386POPC   C2B70160  17.111  40.827   6.660
 5386POPC   C3B70161  17.394  40.583   6.895
 5386POPC   C4B70162  17.320  40.335   7.300
 5387POPC   NC370163  37.716  16.524   5.415
 5387POPC   PO470164  37.369  17.082   5.564
 5387POPC   GL170165  37.619  16.822   5.811
 5387POPC   GL270166  37.388  16.540   5.807
 5387POPC   C1A70167  37.783  16.770   6.210
 5387POPC   D2A70168  37.538  16.670   6.560
 5387POPC   C3A70169  37.619  16.868   6.971
 5387POPC   C4A70170  37.441  17.233   7.184
 5387POPC   C1B70171  37.540  16.331   6.127
 5387POPC   C2B70172  37.475  16.161   6.497
 5387POPC   C3B70173  37.569  16.295   6.910
 5387POPC   C4B70174  37.390  16.338   7.311
 5388POPC   NC370175  42.728   9.619   5.333
 5388POPC   PO470176  42.077   9.389   5.442
 5388POPC   GL170177  42.342   9.530   5.786
 5388POPC   GL270178  42.702   9.569   5.845
 5388POPC   C1A70179  42.316   9.701   6.196
 5388POPC   D2A70180  42.492   9.570   6.603
 5388POPC   C3A70181  42.259   9.741   6.963
 5388POPC   C4A70182  42.240   9.875   7.400
 5388POPC   C1B70183  42.796   9.864   6.212
 5388POPC   C2B70184  42.912  10.072   6.602
 5388POPC   C3B70185  42.814   9.922   6.995
 5388POPC   C4B70186  42.664   9.536   7.165
 5389POPC   NC370187   2.483  38.889   5.314
 5389POPC   PO470188   1.846  38.840   5.107
 5389POPC   GL170189   1.930  38.957   5.563
 5389POPC   GL270190   1.765  39.284   5.736
 5389POPC   C1A70191   2.007  38.921   6.020
 5389POPC   D2A70192   1.800  39.044   6.410
 5389POPC   C3A70193   2.011  39.361   6.651
 5389POPC   C4A70194   2.105  39.284   7.086
 5389POPC   C1B70195   1.564  39.426   6.133
 5389POPC   C2B70196   1.394  39.318   6.548
 5389POPC   C3B70197   1.604  39.203   6.925
 5389POPC   C4B70198   1.656  39.546   7.191
 5390POPC   NC370199  37.655  42.522   5.369
 5390POPC   PO470200  38.230  42.824   5.485
 5390POPC   GL170201  37.817  42.777   5.779
 5390POPC   GL270202  37.736  42.403   5.854
 5390POPC   C1A70203  37.598  42.753   6.203
 5390POPC   D2A70204  37.644  42.564   6.643
 5390POPC   C3A70205  37.385  42.358   6.976
 5390POPC   C4A70206  37.582  42.190   7.413
 5390POPC   C1B70207  37.834  42.276   6.251
 5390POPC   C2B70208  37.958  42.144   6.657
 5390POPC   C3B70209  37.917  42.319   7.067
 5390POPC   C4B70210  37.649  42.669   7.263
 5391POPC   NC370211  36.623  25.325   5.042
 5391POPC   PO470212  37.165  25.607   5.366
 5391POPC   GL170213  37.136  25.236   5.696
 5391POPC   GL270214  36.823  25.215   5.857
 5391POPC   C1A70215  37.168  25.053   6.184
 5391POPC   D2A70216  36.902  25.017   6.611
 5391POPC   C3A70217  37.050  25.203   7.014
 5391POPC   C4A70218  36.932  25.603   7.242
 5391POPC   C1B70219  36.718  25.374   6.243
 5391POPC   C2B70220  36.819  25.540   6.634
 5391POPC   C3B70221  36.571  25.389   6.925
 5391POPC   C4B70222  36.436  25.712   7.138
 5392POPC   NC370223   5.877  18.935   5.134
 5392POPC   PO470224   5.797  19.495   5.506
 5392POPC   GL170225   5.875  19.403   5.891
 5392POPC   GL270226   5.799  19.061   5.874
 5392POPC   C1A70227   6.024  19.328   6.288
 5392POPC   D2A70228   6.025  18.973   6.581
 5392POPC   C3A70229   6.113  19.071   7.004
 5392POPC   C4A70230   6.171  19.461   7.221
 5392POPC   C1B70231   5.598  19.014   6.289
 5392POPC   C2B70232   5.509  18.893   6.752
 5392POPC   C3B70233   5.697  18.783   7.163
 5392POPC   C4B70234   6.016  18.693   7.490
 5393POPC   NC370235  10.953  19.645   5.411
 5393POPC   PO470236  11.607  19.914   5.382
 5393POPC   GL170237  11.375  19.868   5.795
 5393POPC   GL270238  11.131  20.130   5.806
 5393POPC   C1A70239  11.350  20.056   6.250
 5393POPC   D2A70240  11.407  19.850   6.640
 5393POPC   C3A70241  11.276  19.783   7.057
 5393POPC   C4A70242  11.465  19.722   7.478
 5393POPC   C1B70243  10.902  20.302   6.160
 5393POPC   C2B70244  10.835  20.262   6.601
 5393POPC   C3B70245  11.047  20.270   7.017
 5393POPC   C4B70246  11.163  20.151   7.455
 5394POPC   NC370247  28.089  44.861   5.553
 5394POPC   PO470248  28.542  44.347   5.562
 5394POPC   GL170249  28.410  44.390   5.930
 5394POPC   GL270250  28.464  44.746   5.907
 5394POPC   C1A70251  28.640  44.437   6.315
 5394POPC   D2A70252  28.745  44.675   6.674
 5394POPC   C3A70253  28.647  44.389   6.986
 5394POPC   C4A70254  28.651  43.980   7.096
 5394POPC   C1B70255  28.195  44.703   6.267
 5394POPC   C2B70256  28.236  44.591   6.698
 5394POPC   C3B70257  28.232  44.647   7.139
 5394POPC   C4B70258  28.075   0.009   7.366
 5395POPC   NC370259  24.488   7.978   5.251
 5395POPC   PO470260  24.784   8.525   5.441
 5395POPC   GL170261  24.695   8.224   5.780
 5395POPC   GL270262  24.696   7.857   5.711
 5395POPC   C1A70263  24.495   8.244   6.186
 5395POPC   D2A70264  24.531   8.461   6.581
 5395POPC   C3A70265  24.570   8.286   6.997
 5395POPC   C4A70266  24.834   8.452   7.330
 5395POPC   C1B70267  24.711   7.782   6.168
 5395POPC   C2B70268  24.526   7.901   6.579
 5395POPC   C3B70269  24.625   7.769   7.001
 5395POPC   C4B70270  24.663   7.953   7.424
 5396POPC   NC370271  38.800  41.047   5.449
 5396POPC   PO470272  39.450  41.072   5.399
 5396POPC   GL170273  39.269  40.852   5.772
 5396POPC   GL270274  38.945  40.643   5.756
 5396POPC   C1A70275  39.352  41.006   6.192
 5396POPC   D2A70276  39.554  41.137   6.580
 5396POPC   C3A70277  39.304  40.924   6.872
 5396POPC   C4A70278  39.343  40.740   7.250
 5396POPC   C1B70279  38.843  40.891   6.152
 5396POPC   C2B70280  38.667  40.850   6.602
 5396POPC   C3B70281  38.817  40.721   7.051
 5396POPC   C4B70282  38.776  40.665   7.522
 5397POPC   NC370283  25.491  36.810   5.462
 5397POPC   PO470284  24.799  36.943   5.264
 5397POPC   GL170285  25.097  37.125   5.666
 5397POPC   GL270286  25.330  36.930   5.964
 5397POPC   C1A70287  25.195  37.401   6.046
 5397POPC   D2A70288  25.366  37.174   6.437
 5397POPC   C3A70289  25.113  37.071   6.823
 5397POPC   C4A70290  25.051  37.036   7.294
 5397POPC   C1B70291  25.162  36.669   6.326
 5397POPC   C2B70292  24.922  36.443   6.643
 5397POPC   C3B70293  24.917  36.599   7.027
 5397POPC   C4B70294  25.360  36.670   7.117
 5398POPC   NC370295   7.345  19.962   5.359
 5398POPC   PO470296   7.825  19.615   5.584
 5398POPC   GL170297   7.527  19.925   5.846
 5398POPC   GL270298   7.134  19.998   5.822
 5398POPC   C1A70299   7.479  19.988   6.304
 5398POPC   D2A70300   7.657  20.217   6.667
 5398POPC   C3A70301   7.343  20.214   7.009
 5398POPC   C4A70302   7.326  20.134   7.453
 5398POPC   C1B70303   6.973  19.858   6.224
 5398POPC   C2B70304   7.158  19.641   6.578
 5398POPC   C3B70305   7.001  19.585   6.988
 5398POPC   C4B70306   6.940  19.968   7.180
 5399POPC   NC370307  27.032  17.841   5.220
 5399POPC   PO470308  26.680  18.418   5.400
 5399POPC   GL170309  26.960  18.182   5.640
 5399POPC   GL270310  27.133  18.476   5.760
 5399POPC   C1A70311  26.900  18.116   6.089
 5399POPC   D2A70312  26.726  18.360   6.440
 5399POPC   C3A70313  26.950  18.340   6.836
 5399POPC   C4A70314  26.908  18.409   7.259
 5399POPC   C1B70315  27.111  18.600   6.192
 5399POPC   C2B70316  26.993  18.802   6.594
 5399POPC   C3B70317  27.160  18.790   7.035
 5399POPC   C4B70318  27.050  18.869   7.473
 5400POPC   NC370319  17.397  25.472   5.240
 5400POPC   PO470320  17.848  24.955   5.370
 5400POPC   GL170321  17.697  25.285   5.646
 5400POPC   GL270322  17.437  25.083   5.737
 5400POPC   C1A70323  17.681  25.427   6.085
 5400POPC   D2A70324  17.421  25.339   6.468
 5400POPC   C3A70325  17.540  25.382   6.880
 5400POPC   C4A70326  17.216  25.540   7.141
 5400POPC   C1B70327  17.572  24.936   6.196
 5400POPC   C2B70328  17.514  24.880   6.702
 5400POPC   C3B70329  17.343  25.000   7.157
 5400POPC   C4B70330  17.496  24.859   7.605
 5401POPC   NC370331  37.069  22.393   5.452
 5401POPC   PO470332  36.637  21.892   5.270
 5401POPC   GL170333  36.824  21.977   5.668
 5401POPC   GL270334  36.669  22.282   5.773
 5401POPC   C1A70335  36.855  21.933   6.129
 5401POPC   D2A70336  36.872  22.135   6.526
 5401POPC   C3A70337  36.836  21.976   6.960
 5401POPC   C4A70338  36.773  22.067   7.408
 5401POPC   C1B70339  36.856  22.532   6.096
 5401POPC   C2B70340  36.848  22.652   6.511
 5401POPC   C3B70341  36.859  22.472   6.913
 5401POPC   C4B70342  37.137  22.457   7.251
 5402POPC   NC370343  24.687  35.152   5.305
 5402POPC   PO470344  24.043  35.454   5.389
 5402POPC   GL170345  24.289  35.199   5.656
 5402POPC   GL270346  24.523  35.463   5.755
 5402POPC   C1A70347  24.457  35.061   6.062
 5402POPC   D2A70348  24.623  35.103   6.495
 5402POPC   C3A70349  24.479  34.972   6.873
 5402POPC   C4A70350  24.670  35.131   7.218
 5402POPC   C1B70351  24.768  35.440   6.160
 5402POPC   C2B70352  24.914  35.499   6.574
 5402POPC   C3B70353  24.662  35.569   6.925
 5402POPC   C4B70354  24.752  35.636   7.343
 5403POPC   NC370355  26.481  25.179   5.648
 5403POPC   PO470356  27.109  25.042   5.377
 5403POPC   GL170357  26.969  25.060   5.814
 5403POPC   GL270358  26.865  25.400   5.864
 5403POPC   C1A70359  27.000  25.165   6.288
 5403POPC   D2A70360  26.750  25.173   6.683
 5403POPC   C3A70361  26.953  24.991   7.081
 5403POPC   C4A70362  27.158  25.062   7.502
 5403POPC   C1B70363  26.573  25.462   6.234
 5403POPC   C2B70364  26.380  25.556   6.625
 5403POPC   C3B70365  26.586  25.514   7.037
 5403POPC   C4B70366  26.675  25.279   7.424
 5404POPC   NC370367  14.599   8.330   5.587
 5404POPC   PO470368  14.088   7.980   5.431
 5404POPC   GL170369  14.023   8.121   5.813
 5404POPC   GL270370  14.334   8.099   5.956
 5404POPC   C1A70371  13.903   8.021   6.225
 5404POPC   D2A70372  14.154   7.988   6.568
 5404POPC   C3A70373  14.064   8.117   6.976
 5404POPC   C4A70374  14.360   8.248   7.279
 5404POPC   C1B70375  14.578   8.214   6.330
 5404POPC   C2B70376  14.780   8.185   6.744
 5404POPC   C3B70377  14.838   8.065   7.189
 5404POPC   C4B70378  14.708   8.052   7.632
 5405POPC   NC370379  15.645   3.372   5.439
 5405POPC   PO470380  15.149   3.793   5.517
 5405POPC   GL170381  15.193   3.471   5.785
 5405POPC   GL270382  15.532   3.468   5.915
 5405POPC   C1A70383  15.100   3.567   6.186
 5405POPC   D2A70384  15.125   3.387   6.586
 5405POPC   C3A70385  14.991   3.563   6.990
 5405POPC   C4A70386  15.151   3.706   7.392
 5405POPC   C1B70387  15.550   3.258   6.280
 5405POPC   C2B70388  15.524   3.069   6.675
 5405POPC   C3B70389  15.465   3.360   6.985
 5405POPC   C4B70390  15.621   3.611   7.285
 5406POPC   NC370391  36.812  42.396   5.516
 5406POPC   PO470392  37.353  42.202   5.223
 5406POPC   GL170393  37.276  42.456   5.688
 5406POPC   GL270394  37.076  42.721   5.844
 5406POPC   C1A70395  37.290  42.354   6.160
 5406POPC   D2A70396  37.415  42.074   6.509
 5406POPC   C3A70397  37.094  41.951   6.832
 5406POPC   C4A70398  37.142  41.989   7.280
 5406POPC   C1B70399  36.794  42.524   6.190
 5406POPC   C2B70400  36.853  42.429   6.642
 5406POPC   C3B70401  36.809  42.511   7.084
 5406POPC   C4B70402  36.733  42.704   7.505
 5407POPC   NC370403  40.363  34.722   5.200
 5407POPC   PO470404  40.957  35.082   5.364
 5407POPC   GL170405  40.842  34.783   5.747
 5407POPC   GL270406  40.494  34.629   5.720
 5407POPC   C1A70407  40.609  34.859   6.177
 5407POPC   D2A70408  40.700  35.054   6.581
 5407POPC   C3A70409  40.579  34.856   6.951
 5407POPC   C4A70410  40.824  34.541   7.142
 5407POPC   C1B70411  40.604  34.348   6.109
 5407POPC   C2B70412  40.552  34.400   6.595
 5407POPC   C3B70413  40.417  34.290   7.043
 5407POPC   C4B70414  40.610  34.214   7.463
 5408POPC   NC370415   3.989  12.386   5.330
 5408POPC   PO470416   3.456  11.840   5.233
 5408POPC   GL170417   3.611  11.781   5.659
 5408POPC   GL270418   3.889  11.972   5.651
 5408POPC   C1A70419   3.473  11.864   6.093
 5408POPC   D2A70420   3.433  11.732   6.509
 5408POPC   C3A70421   3.376  12.063   6.786
 5408POPC   C4A70422   3.552  11.964   7.176
 5408POPC   C1B70423   3.773  12.281   5.981
 5408POPC   C2B70424   3.707  12.295   6.446
 5408POPC   C3B70425   3.790  12.337   6.900
 5408POPC   C4B70426   3.887  12.294   7.347
 5409POPC   NC370427  34.080  18.038   5.026
 5409POPC   PO470428  33.493  17.963   5.430
 5409POPC   GL170429  33.722  18.247   5.717
 5409POPC   GL270430  34.069  18.276   5.591
 5409POPC   C1A70431  33.787  18.227   6.180
 5409POPC   D2A70432  33.785  18.259   6.638
 5409POPC   C3A70433  33.560  17.972   6.898
 5409POPC   C4A70434  33.557  18.194   7.288
 5409POPC   C1B70435  34.219  18.463   5.990
 5409POPC   C2B70436  34.173  18.509   6.435
 5409POPC   C3B70437  34.271  18.288   6.834
 5409POPC   C4B70438  34.225  18.349   7.291
 5410POPC   NC370439   1.795  32.496   5.096
 5410POPC   PO470440   2.308  32.288   5.294
 5410POPC   GL170441   2.257  32.408   5.739
 5410POPC   GL270442   2.319  32.110   5.902
 5410POPC   C1A70443   2.209  32.551   6.213
 5410POPC   D2A70444   2.313  32.537   6.706
 5410POPC   C3A70445   1.975  32.434   7.059
 5410POPC   C4A70446   1.599  32.468   7.337
 5410POPC   C1B70447   2.272  31.918   6.307
 5410POPC   C2B70448   2.135  32.045   6.731
 5410POPC   C3B70449   2.291  32.010   7.147
 5410POPC   C4B70450   2.315  31.737   7.539
 5411POPC   NC370451  36.383  35.252   5.445
 5411POPC   PO470452  35.799  35.174   5.280
 5411POPC   GL170453  35.977  35.052   5.735
 5411POPC   GL270454  36.180  35.344   5.898
 5411POPC   C1A70455  36.080  34.933   6.200
 5411POPC   D2A70456  36.070  35.137   6.625
 5411POPC   C3A70457  36.299  35.059   7.006
 5411POPC   C4A70458  36.417  35.349   7.302
 5411POPC   C1B70459  36.236  35.554   6.324
 5411POPC   C2B70460  36.270  35.608   6.798
 5411POPC   C3B70461  35.962  35.456   7.105
 5411POPC   C4B70462  35.613  35.180   7.096
 5412POPC   NC370463  12.845  14.138   5.343
 5412POPC   PO470464  12.735  14.732   5.322
 5412POPC   GL170465  12.947  14.513   5.709
 5412POPC   GL270466  13.055  14.123   5.787
 5412POPC   C1A70467  13.027  14.483   6.164
 5412POPC   D2A70468  12.700  14.445   6.494
 5412POPC   C3A70469  12.748  14.660   6.904
 5412POPC   C4A70470  13.051  14.564   7.192
 5412POPC   C1B70471  12.847  14.004   6.142
 5412POPC   C2B70472  13.011  14.034   6.534
 5412POPC   C3B70473  12.859  14.155   6.899
 5412POPC   C4B70474  12.936  14.057   7.278
 5413POPC   NC370475  44.246  33.949   5.433
 5413POPC   PO470476  43.590  33.827   5.266
 5413POPC   GL170477  43.818  33.692   5.642
 5413POPC   GL270478  44.023  33.874   5.861
 5413POPC   C1A70479  43.796  33.488   6.066
 5413POPC   D2A70480  43.646  33.539   6.488
 5413POPC   C3A70481  43.790  33.871   6.742
 5413POPC   C4A70482  43.708  33.769   7.169
 5413POPC   C1B70483  44.133  33.816   6.287
 5413POPC   C2B70484  44.282  33.640   6.647
 5413POPC   C3B70485  44.209  33.788   7.055
 5413POPC   C4B70486  44.473  34.047   7.259
 5414POPC   NC370487  34.965   3.236   5.424
 5414POPC   PO470488  35.595   3.337   5.355
 5414POPC   GL170489  35.342   3.521   5.751
 5414POPC   GL270490  34.978   3.507   5.841
 5414POPC   C1A70491  35.277   3.734   6.162
 5414POPC   D2A70492  35.479   3.766   6.570
 5414POPC   C3A70493  35.495   3.537   6.924
 5414POPC   C4A70494  35.263   3.565   7.234
 5414POPC   C1B70495  35.172   3.215   6.138
 5414POPC   C2B70496  35.335   3.234   6.554
 5414POPC   C3B70497  35.137   3.148   6.983
 5414POPC   C4B70498  34.994   3.199   7.476
 5415POPC   NC370499  14.964  25.616   5.366
 5415POPC   PO470500  15.370  25.086   5.354
 5415POPC   GL170501  15.098  25.181   5.735
 5415POPC   GL270502  14.743  25.156   5.699
 5415POPC   C1A70503  15.133  25.310   6.216
 5415POPC   D2A70504  15.244  25.526   6.635
 5415POPC   C3A70505  15.256  25.326   7.044
 5415POPC   C4A70506  15.384  25.363   7.489
 5415POPC   C1B70507  14.631  25.319   6.167
 5415POPC   C2B70508  14.700  25.516   6.584
 5415POPC   C3B70509  14.703  25.334   7.000
 5415POPC   C4B70510  14.900  25.249   7.403
 5416POPC   NC370511  27.767  18.455   5.499
 5416POPC   PO470512  27.433  17.765   5.482
 5416POPC   GL170513  27.506  18.112   5.801
 5416POPC   GL270514  27.819  18.033   5.939
 5416POPC   C1A70515  27.576  18.367   6.222
 5416POPC   D2A70516  27.417  18.531   6.640
 5416POPC   C3A70517  27.436  18.355   7.082
 5416POPC   C4A70518  27.415  18.475   7.530
 5416POPC   C1B70519  27.843  17.899   6.339
 5416POPC   C2B70520  27.758  18.144   6.690
 5416POPC   C3B70521  27.945  18.228   7.077
 5416POPC   C4B70522  27.762  18.111   7.487
 5417POPC   NC370523  29.607   4.145   5.427
 5417POPC   PO470524  30.232   4.502   5.425
 5417POPC   GL170525  30.001   4.290   5.768
 5417POPC   GL270526  29.642   4.405   5.858
 5417POPC   C1A70527  30.020   4.366   6.215
 5417POPC   D2A70528  29.812   4.634   6.503
 5417POPC   C3A70529  29.991   4.548   6.899
 5417POPC   C4A70530  30.290   4.350   7.153
 5417POPC   C1B70531  29.535   4.173   6.226
 5417POPC   C2B70532  29.745   4.096   6.625
 5417POPC   C3B70533  29.731   4.099   7.069
 5417POPC   C4B70534  29.392   4.136   7.397
 5418POPC   NC370535  15.235   0.924   5.384
 5418POPC   PO470536  15.325   1.562   5.628
 5418POPC   GL170537  15.343   1.185   5.831
 5418POPC   GL270538  15.060   0.985   5.871
 5418POPC   C1A70539  15.361   1.167   6.253
 5418POPC   D2A70540  15.595   1.290   6.582
 5418POPC   C3A70541  15.369   1.245   6.922
 5418POPC   C4A70542  15.293   1.008   7.243
 5418POPC   C1B70543  14.839   1.049   6.256
 5418POPC   C2B70544  14.923   1.358   6.598
 5418POPC   C3B70545  14.939   1.469   7.036
 5418POPC   C4B70546  14.772   1.218   7.362
 5419POPC   NC370547  23.125  29.019   5.299
 5419POPC   PO470548  22.525  29.002   5.522
 5419POPC   GL170549  22.931  29.108   5.771
 5419POPC   GL270550  23.263  28.889   5.758
 5419POPC   C1A70551  22.954  29.341   6.173
 5419POPC   D2A70552  22.738  29.380   6.560
 5419POPC   C3A70553  22.915  29.278   6.936
 5419POPC   C4A70554  22.827  28.945   7.236
 5419POPC   C1B70555  23.048  28.820   6.182
 5419POPC   C2B70556  22.938  28.878   6.629
 5419POPC   C3B70557  23.254  28.812   6.942
 5419POPC   C4B70558  23.246  28.683   7.408
 5420POPC   NC370559  39.141  32.624   5.173
 5420POPC   PO470560  38.906  33.100   5.510
 5420POPC   GL170561  39.221  32.942   5.798
 5420POPC   GL270562  39.110  32.648   5.959
 5420POPC   C1A70563  39.523  32.912   6.174
 5420POPC   D2A70564  39.667  33.083   6.585
 5420POPC   C3A70565  39.338  32.902   6.818
 5420POPC   C4A70566  39.211  32.674   7.160
 5420POPC   C1B70567  39.026  32.970   6.299
 5420POPC   C2B70568  38.878  33.157   6.683
 5420POPC   C3B70569  38.949  33.117   7.094
 5420POPC   C4B70570  39.293  33.389   7.080
 5421POPC   NC370571  15.983   2.589   5.342
 5421POPC   PO470572  16.043   3.200   5.615
 5421POPC   GL170573  15.970   2.823   5.827
 5421POPC   GL270574  16.232   2.534   5.796
 5421POPC   C1A70575  15.739   2.791   6.215
 5421POPC   D2A70576  15.638   2.566   6.579
 5421POPC   C3A70577  15.738   2.717   7.011
 5421POPC   C4A70578  15.627   3.030   7.341
 5421POPC   C1B70579  16.213   2.637   6.264
 5421POPC   C2B70580  16.174   2.551   6.722
 5421POPC   C3B70581  16.368   2.511   7.125
 5421POPC   C4B70582  16.208   2.333   7.511
 5422POPC   NC370583  26.348  15.461   5.450
 5422POPC   PO470584  27.089  15.529   5.438
 5422POPC   GL170585  26.808  15.244   5.670
 5422POPC   GL270586  26.965  14.901   5.631
 5422POPC   C1A70587  26.722  15.329   6.130
 5422POPC   D2A70588  26.751  15.578   6.496
 5422POPC   C3A70589  26.794  15.337   6.873
 5422POPC   C4A70590  26.500  15.220   7.163
 5422POPC   C1B70591  27.173  15.110   6.021
 5422POPC   C2B70592  27.088  15.174   6.487
 5422POPC   C3B70593  27.260  15.161   6.945
 5422POPC   C4B70594  27.064  14.930   7.299
 5423POPC   NC370595  43.164  41.222   5.425
 5423POPC   PO470596  43.364  41.854   5.364
 5423POPC   GL170597  43.140  41.650   5.719
 5423POPC   GL270598  43.367  41.434   5.904
 5423POPC   C1A70599  42.783  41.733   6.017
 5423POPC   D2A70600  42.746  41.787   6.460
 5423POPC   C3A70601  42.977  41.526   6.766
 5423POPC   C4A70602  42.959  41.365   7.176
 5423POPC   C1B70603  43.235  41.716   6.257
 5423POPC   C2B70604  43.199  41.974   6.652
 5423POPC   C3B70605  43.237  41.848   7.124
 5423POPC   C4B70606  43.520  41.715   7.511
 5424POPC   NC370607  36.934  19.596   5.361
 5424POPC   PO470608  36.994  20.221   5.541
 5424POPC   GL170609  36.945  19.870   5.827
 5424POPC   GL270610  37.218  19.639   5.871
 5424POPC   C1A70611  36.925  19.860   6.279
 5424POPC   D2A70612  36.912  20.137   6.613
 5424POPC   C3A70613  37.085  19.921   6.918
 5424POPC   C4A70614  36.816  19.718   7.190
 5424POPC   C1B70615  37.200  19.435   6.274
 5424POPC   C2B70616  37.009  19.456   6.693
 5424POPC   C3B70617  37.212  19.428   7.097
 5424POPC   C4B70618  37.366  19.782   7.320
 5425POPC   NC370619  30.906  32.195   5.471
 5425POPC   PO470620  30.339  31.924   5.488
 5425POPC   GL170621  30.377  32.312   5.765
 5425POPC   GL270622  30.722  32.281   5.929
 5425POPC   C1A70623  30.409  32.498   6.232
 5425POPC   D2A70624  30.799  32.426   6.498
 5425POPC   C3A70625  30.722  32.553   6.914
 5425POPC   C4A70626  30.391  32.497   7.242
 5425POPC   C1B70627  30.546  32.016   6.279
 5425POPC   C2B70628  30.616  32.011   6.747
 5425POPC   C3B70629  30.736  32.116   7.176
 5425POPC   C4B70630  31.079  32.149   7.483
 5426POPC   NC370631   7.741  33.813   5.460
 5426POPC   PO470632   8.414  34.035   5.375
 5426POPC   GL170633   8.115  34.085   5.731
 5426POPC   GL270634   8.142  33.754   5.831
 5426POPC   C1A70635   7.935  34.033   6.188
 5426POPC   D2A70636   8.037  33.839   6.604
 5426POPC   C3A70637   7.994  34.039   7.005
 5426POPC   C4A70638   8.100  33.977   7.437
 5426POPC   C1B70639   8.285  33.466   6.194
 5426POPC   C2B70640   8.164  33.338   6.638
 5426POPC   C3B70641   8.183  33.534   7.073
 5426POPC   C4B70642   8.018  33.455   7.538
 5427POPC   NC370643  12.867   0.156   5.249
 5427POPC   PO470644  12.446   0.647   5.222
 5427POPC   GL170645  12.724   0.571   5.614
 5427POPC   GL270646  12.816   0.226   5.766
 5427POPC   C1A70647  12.742   0.635   6.088
 5427POPC   D2A70648  12.712   0.912   6.451
 5427POPC   C3A70649  12.629   0.735   6.864
 5427POPC   C4A70650  12.768   0.615   7.289
 5427POPC   C1B70651  13.072   0.248   6.169
 5427POPC   C2B70652  12.975   0.447   6.565
 5427POPC   C3B70653  12.797   0.243   6.929
 5427POPC   C4B70654  12.860   0.077   7.343
 5428W        W70655  26.315  43.796   2.207
 5429W        W70656  13.244   4.825   0.476
 5430W        W70657  27.540  10.410   0.706
 5431W        W70658  16.632   8.159   3.802
 5432W        W70659  42.294  44.801   0.355
 5433W        W70660  38.289  27.698   2.406
 5434W        W70661  35.631  34.739   4.438
 5435W        W70662  10.161   3.030  12.411
 5436W        W70663  38.005  33.260  13.066
 5437W        W70664  19.219   1.364   0.028
 5438W        W70665  32.544   2.813   4.645
 5439W        W70666  18.159  18.086  14.080
 5440W        W70667  34.913  37.809   2.098
 5441W        W70668  33.619  25.177   0.912
 5442W        W70669  15.276  22.983   1.706
 5443W        W70670  38.995  33.032  13.417
 5444W        W70671  10.235  19.266  14.478
 5445W        W70672  30.180  18.807  14.440
 5446W        W70673  18.562  44.176   2.307
 5447W        W70674  34.645  12.393  14.733
 5448W        W70675  35.032   9.723   4.223
 5449W        W70676  38.807  38.908  13.537
 5450W        W70677   6.564  28.040   0.897
 5451W        W70678  36.096  32.171   0.790
 5452W        W70679  37.672  28.803  12.623
 5453W        W70680  22.687  10.821  11.746
 5454W        W70681  38.406  15.727  11.838
 5455W        W70682   9.657   2.122  14.868
 5456W        W70683  26.879   1.042  13.572
 5457W        W70684  40.582  37.436  12.405
 5458W        W70685  22.950  21.208   0.470
 5459W        W70686  18.123  15.235  11.431
 5460W        W70687  21.978   0.620  11.530
 5461W        W70688   8.834  19.789  11.562
 5462W        W70689  38.373  29.629   0.622
 5463W        W70690  37.312  13.349  13.305
 5464W        W70691  29.689  29.712   4.205
 5465W        W70692  14.242  17.760   0.032
 5466W        W70693  16.948   1.703  11.625
 5467W        W70694  12.182  29.467  10.945
 5468W        W70695   1.156  36.101   5.008
 5469W        W70696  16.693  36.845  12.832
 5470W        W70697  20.021  26.738   2.317
 5471W        W70698  34.585   4.463   4.349
 5472W        W70699   8.237  20.916  11.202
 5473W        W70700  25.300  32.711   0.303
 5474W        W70701  27.736  17.281  12.555
 5475W        W70702  17.779  17.232  14.890
 5476W        W70703  38.695  39.827   1.278
 5477W        W70704  13.049  40.364   2.786
 5478W        W70705   5.528  13.990  11.099
 5479W        W70706   8.946  40.394   5.112
 5480W        W70707  20.517  21.584  11.794
 5481W        W70708  28.068   3.811  10.495
 5482W        W70709  21.691  21.957   3.247
 5483W        W70710  12.382  35.170   4.105
 5484W        W70711   6.853  40.900  11.041
 5485W        W70712  13.848  44.830   1.688
 5486W        W70713  39.881  17.210  11.644
 5487W        W70714  28.091  22.165   2.575
 5488W        W70715   0.177  32.233  14.401
 5489W        W70716  10.298  32.675  13.729
 5490W        W70717   8.476   5.131   4.099
 5491W        W70718  37.695  24.189   0.927
 5492W        W70719  22.734  25.433   0.340
 5493W        W70720  18.877  37.460   5.111
 5494W        W70721  21.492  41.318  10.426
 5495W        W70722   9.141  29.048  11.503
 5496W        W70723   0.359  16.338  12.882
 5497W        W70724   0.320  10.247   0.281
 5498W        W70725   0.738  44.674  14.158
 5499W        W70726  34.240  43.150  13.609
 5500W        W70727  39.044  35.778   3.597
 5501W        W70728  29.220   1.880  13.992
 5502W        W70729  15.599   4.627   0.965
 5503W        W70730  19.019  20.151   1.541
 5504W        W70731  37.367   2.340   0.380
 5505W        W70732  30.568  18.487   3.277
 5506W        W70733  13.867  16.604  11.175
 5507W        W70734  27.494  13.589   0.899
 5508W        W70735   7.328  34.563  12.448
 5509W        W70736   1.664  17.605  12.569
 5510W        W70737  30.623  29.041  11.354
 5511W        W70738   5.503  23.699   2.759
 5512W        W70739  33.378  11.779   3.960
 5513W        W70740  22.631  35.026   2.350
 5514W        W70741  15.761  32.647  10.654
 5515W        W70742  14.325  31.817   4.298
 5516W        W70743   5.010  21.753  10.556
 5517W        W70744  13.829  33.325  13.502
 5518W        W70745  19.941   6.278  13.712
 5519W        W70746   1.427  30.937  12.821
 5520W        W70747   9.259  35.370   0.572
 5521W        W70748   5.819  35.047   4.384
 5522W        W70749  22.181  19.269   4.285
 5523W        W70750   1.011   0.828   3.242
 5524W        W70751  33.608  26.441  11.628
 5525W        W70752  31.692  41.166  11.883
 5526W        W70753  30.423  31.833   2.274
 5527W        W70754   2.797  25.174  13.751
 5528W        W70755  25.649  44.269   0.454
 5529W        W70756  29.395  34.523   1.813
 5530W        W70757   4.809   0.242  12.485
 5531W        W70758  44.332  21.870  11.788
 5532W        W70759  14.189  36.294  13.953
 5533W        W70760  29.208   1.938   3.080
 5534W        W70761  35.596   2.851   3.197
 5535W        W70762  11.647  10.122  12.566
 5536W        W70763  17.774   4.591   3.796
 5537W        W70764  40.144   5.695  12.028
 5538W        W70765   3.823  24.270  13.481
 5539W        W70766   7.949  20.379   4.258
 5540W        W70767  39.021  43.082   5.243
 5541W        W70768  23.155   6.076  12.551
 5542W        W70769  33.506  34.621   4.863
 5543W        W70770  30.669   5.186  13.932
 5544W        W70771   0.696   5.851  12.138
 5545W        W70772  27.439  30.887   0.369
 5546W        W70773  35.481   2.548  14.198
 5547W        W70774   1.006  38.771  10.704
 5548W        W70775  12.141   0.733   1.346
 5549W        W70776  25.938  43.851  13.708
 5550W        W70777  22.116   1.997   4.519
 5551W        W70778  29.784  21.131  12.814
 5552W        W70779   5.935   2.738   2.763
 5553W        W70780   0.079   1.262   0.331
 5554W        W70781  24.798  39.068  12.023
 5555W        W70782  40.308  42.038  12.967
 5556W        W70783  29.555  11.885  14.325
 5557W        W70784   6.238  11.069  11.276
 5558W        W70785  40.914   1.226   3.553
 5559W        W70786  35.415  16.588   4.546
 5560W        W70787  40.334  38.966   1.761
 5561W        W70788  34.873  24.493  11.611
 5562W        W70789  20.173  32.929   1.739
 5563W        W70790  12.993   7.131   0.863
 5564W        W70791  35.946  31.478   1.911
 5565W        W70792  25.784  27.174  10.732
 5566W        W70793  12.947  42.675   2.845
 5567W        W70794  15.664  27.957  11.528
 5568W        W70795  20.118   2.240  13.765
 5569W        W70796  12.745  24.500  11.546
 5570W        W70797  44.978  12.222   2.844
 5571W        W70798   7.465   9.847  13.090
 5572W        W70799   7.666   9.904   1.848
 5573W        W70800  16.843  13.879  14.268
 5574W        W70801   0.581   2.286   0.872
 5575W        W70802   3.450  42.625  12.079
 5576W        W70803  32.664  15.088   3.500
 5577W        W70804  20.566  30.077   2.382
 5578W        W70805  18.372  19.759   0.964
 5579W        W70806  16.907  44.950   0.817
 5580W        W70807  25.706  24.643   2.659
 5581W        W70808  14.359  13.253  12.915
 5582W        W70809   8.210  10.736   4.872
 5583W        W70810  17.596  25.676   4.789
 5584W        W70811  30.403  38.913  11.574
 5585W        W70812  32.174  31.665   4.581
 5586W        W70813  20.142   1.724   5.036
 5587W        W70814  30.526  43.911   0.815
 5588W        W70815  13.458  38.992  13.132
 5589W        W70816  20.130   9.624  14.623
 5590W        W70817  20.523  17.763  13.407
 5591W        W70818  32.970  26.993  13.604
 5592W        W70819  32.124   3.003   1.646
 5593W        W70820  25.247  26.931  13.952
 5594W        W70821   5.529   8.820   0.769
 5595W        W70822  38.438  43.921  12.445
 5596W        W70823  26.084  11.811  14.907
 5597W        W70824  21.238  13.344   3.604
 5598W        W70825   7.352  27.945   2.842
 5599W        W70826  13.601  20.155   2.179
 5600W        W70827  38.980  32.097   0.473
 5601W        W70828  38.103   3.349  14.936
 5602W        W70829  44.433  41.395  14.914
 5603W        W70830  19.223  23.971  13.578
 5604W        W70831   1.306  43.473  13.495
 5605W        W70832  21.744   0.678   2.686
 5606W        W70833  38.661  30.432  13.869
 5607W        W70834  12.897  35.914   1.155
 5608W        W70835  24.071  33.993   3.206
 5609W        W70836   4.798  37.996   4.695
 5610W        W70837   3.308  11.924  12.497
 5611W        W70838  11.200  19.209   4.000
 5612W        W70839  23.062   3.372  12.875
 5613W        W70840  28.415  31.169   0.479
 5614W        W70841  25.642   8.655   1.962
 5615W        W70842  43.297  12.777  12.221
 5616W        W70843  20.993  15.775   1.630
 5617W        W70844  23.939  39.948  11.106
 5618W        W70845  24.351  25.668  14.818
 5619W        W70846  21.712  24.724  13.401
 5620W        W70847  35.873  33.489  10.511
 5621W        W70848  13.791   4.592  14.779
 5622W        W70849  29.181  20.784  13.451
 5623W        W70850   6.389  17.507   3.215
 5624W        W70851   6.804  37.051  13.093
 5625W        W70852  37.782  10.324   4.618
 5626W        W70853  14.708  17.828  14.290
 5627W        W70854  41.874   1.680   2.540
 5628W        W70855  40.947  36.569  14.118
 5629W        W70856  10.726  39.766   4.376
 5630W        W70857  22.244  40.433  10.814
 5631W        W70858  31.017  17.012   3.761
 5632W        W70859   6.225   7.976   2.325
 5633W        W70860   9.599  10.601   4.307
 5634W        W70861  16.444   1.864  12.804
 5635W        W70862  30.009  17.301  13.536
 5636W        W70863  43.050  10.037  10.152
 5637W        W70864  14.245  13.830   0.288
 5638W        W70865  17.017  36.406  12.775
 5639W        W70866   2.488   9.187  13.572
 5640W        W70867  17.578   7.436  10.710
 5641W        W70868  27.666  44.280   1.877
 5642W        W70869  29.604  16.944  11.149
 5643W        W70870   8.635   0.274   4.626
 5644W        W70871  17.272   7.076   2.211
 5645W        W70872  29.121  40.711  11.463
 5646W        W70873  24.245   9.859   4.125
 5647W        W70874  17.384  11.798   3.574
 5648W        W70875  41.335  38.206  11.535
 5649W        W70876  21.863   2.575  14.347
 5650W        W70877  10.705   0.428  14.741
 5651W        W70878  10.192  24.764   2.320
 5652W        W70879  34.140  10.650   0.915
 5653W        W70880  10.647  28.467   1.301
 5654W        W70881  38.682  34.206  13.678
 5655W        W70882  27.416   7.603  11.945
 5656W        W70883  13.192   3.727   2.237
 5657W        W70884   4.707  17.787   1.899
 5658W        W70885  25.389  28.996  10.739
 5659W        W70886  23.661  29.559   4.576
 5660W        W70887  35.582  33.815   1.353
 5661W        W70888  37.971  15.080  14.406
 5662W        W70889  21.086  16.635  12.692
 5663W        W70890   8.538  39.574  11.554
 5664W        W70891  34.089  14.200  11.565
 5665W        W70892  27.776  32.019  12.892
 5666W        W70893  24.499  37.341   2.372
 5667W        W70894  10.233   4.014  14.526
 5668W        W70895  28.191  10.633   1.944
 5669W        W70896  19.262  16.206   3.880
 5670W        W70897  28.069   3.758   2.726
 5671W        W70898  31.453   6.196  14.141
 5672W        W70899  17.963  20.836   1.497
 5673W        W70900   1.068  35.403   2.251
 5674W        W70901   4.840   2.766  10.108
 5675W        W70902  14.185  41.782  12.270
 5676W        W70903  28.162   2.365   4.561
 5677W        W70904   6.926   6.891   1.971
 5678W        W70905  31.977  39.080   4.477
 5679W        W70906  25.152  15.550  11.825
 5680W        W70907  24.745  13.005  13.030
 5681W        W70908  40.837  10.760   4.106
 5682W        W70909   0.297  17.421  11.866
 5683W        W70910  44.927  31.089  11.141
 5684W        W70911  12.773  22.719  13.725
 5685W        W70912  33.128  31.050   3.631
 5686W        W70913  38.576  22.151  12.067
 5687W        W70914  24.407  42.335   2.233
 5688W        W70915  18.377  10.324  10.760
 5689W        W70916  43.708  29.999   2.404
 5690W        W70917  38.438  17.915  11.151
 5691W        W70918  13.243   0.839  13.524
 5692W        W70919  12.847  44.407   2.400
 5693W        W70920  42.099  41.292   3.788
 5694W        W70921  25.251  35.581   1.295
 5695W        W70922  23.151  17.289  13.089
 5696W        W70923  11.518  38.904  12.878
 5697W        W70924  44.949  23.445  10.283
 5698W        W70925   6.903  10.198   3.867
 5699W        W70926  43.354  37.099  13.660
 5700W        W70927  14.217  17.638  14.523
 5701W        W70928  43.745  12.539   2.193
 5702W        W70929  43.542  41.683   2.671
 5703W        W70930  14.843  38.049  13.359
 5704W        W70931  43.221  37.378  11.974
 5705W        W70932  35.369  34.435  13.522
 5706W        W70933  33.633  32.938  14.905
 5707W        W70934  23.239  15.813   1.549
 5708W        W70935  21.061  22.036  14.763
 5709W        W70936  28.962   2.704   3.586
 5710W        W70937  35.003   2.094   1.764
 5711W        W70938  35.897  34.306  13.529
 5712W        W70939  21.592  39.997   0.487
 5713W        W70940   1.451  12.295   0.291
 5714W        W70941  16.544  10.246   3.818
 5715W        W70942  19.676  42.590  13.902
 5716W        W70943   2.864   7.981   2.908
 5717W        W70944  35.452  37.137   1.891
 5718W        W70945  10.959  37.405  12.789
 5719W        W70946  37.445   2.913  11.399
 5720W        W70947   3.651  32.513   3.416
 5721W        W70948   3.325  36.057   3.748
 5722W        W70949  38.769  44.964  11.166
 5723W        W70950  41.751  24.862   1.871
 5724W        W70951  33.394   5.113  12.151
 5725W        W70952   9.570  14.168  11.694
 5726W        W70953   4.520   5.630   1.472
 5727W        W70954  13.537   1.982  14.805
 5728W        W70955  32.196  31.886   3.281
 5729W        W70956  12.105  33.432  11.220
 5730W        W70957  26.533  34.451  11.569
 5731W        W70958  33.568  35.332  13.263
 5732W        W70959   0.174   1.942   0.828
 5733W        W70960  15.708  10.216   0.359
 5734W        W70961  42.286  35.134  11.157
 5735W        W70962  24.771   4.060  10.534
 5736W        W70963   0.122  22.169   0.043
 5737W        W70964  40.756  41.921   2.781
 5738W        W70965  41.003   4.888   0.498
 5739W        W70966  23.944   2.944   0.941
 5740W        W70967  44.017  42.814  14.454
 5741W        W70968   7.763  24.430  12.492
 5742W        W70969  41.365  43.367  14.866
 5743W        W70970  31.892  34.377   2.428
 5744W        W70971  22.215  40.874  14.460
 5745W        W70972  41.728   3.862  14.946
 5746W        W70973  16.816  18.071   0.947
 5747W        W70974  24.596   2.668   4.474
 5748W        W70975  28.054  31.956   0.390
 5749W        W70976  22.860  28.597  14.308
 5750W        W70977  21.769  17.652   3.749
 5751W        W70978   6.584  26.654   1.802
 5752W        W70979  28.475   4.669  11.691
 5753W        W70980  24.466  18.907  13.705
 5754W        W70981  35.590   6.983  12.049
 5755W        W70982   5.709  10.153   1.872
 5756W        W70983   8.362  23.678  13.509
 5757W        W70984  28.215  39.505   4.076
 5758W        W70985  22.920   2.637   4.592
 5759W        W70986   8.665  24.222   4.527
 5760W        W70987  30.360  11.063   2.167
 5761W        W70988   0.382   5.405  14.863
 5762W        W70989   7.922  20.773   0.234
 5763W        W70990   7.504  20.763  14.737
 5764W        W70991  15.193  21.834  13.353
 5765W        W70992  38.313  41.024   4.676
 5766W        W70993  36.205  27.489  11.746
 5767W        W70994  31.499   9.803  11.725
 5768W        W70995   3.962  24.820   3.860
 5769W        W70996   4.218  20.010   3.742
 5770W        W70997  21.075  40.990  10.521
 5771W        W70998   5.974   3.857   4.122
 5772W        W70999   5.195   8.787  12.357
 5773W        W71000  12.412   7.277   2.335
 5774W        W71001  38.880   1.229   3.725
 5775W        W71002  38.368  33.803   4.404
 5776W        W71003  14.050  42.845   2.774
 5777W        W71004  10.126  42.797   1.408
 5778W        W71005   5.417  35.428   3.297
 5779W        W71006   4.111  13.327  12.653
 5780W        W71007  41.001   6.177  13.050
 5781W        W71008  18.567   2.505  14.828
 5782W        W71009  20.542   4.513   2.736
 5783W        W71010   8.144  32.918  12.543
 5784W        W71011  15.545  38.261  12.518
 5785W        W71012  30.674  20.842  12.439
 5786W        W71013  41.489  40.386  12.563
 5787W        W71014  31.621  36.906   0.250
 5788W        W71015  24.104  35.099  11.224
 5789W        W71016  40.020  34.079   4.466
 5790W        W71017  34.449  39.956   2.875
 5791W        W71018  39.861  12.077  14.426
 5792W        W71019  15.850  32.154   4.246
 5793W        W71020  36.792  18.590   0.543
 5794W        W71021   6.350  31.535   0.940
 5795W        W71022  42.620  34.787   0.815
 5796W        W71023   2.900  41.760   9.517
 5797W        W71024  20.680  22.438  13.888
 5798W        W71025   3.196  28.638   0.909
 5799W        W71026  29.917  33.233  10.894
 5800W        W71027  15.182   8.473   1.260
 5801W        W71028  44.463  16.869   3.379
 5802W        W71029  33.765  13.173   3.908
 5803W        W71030  24.721   8.106  11.197
 5804W        W71031   7.855   5.261  14.929
 5805W        W71032  20.061   7.247   3.184
 5806W        W71033  33.049  14.787  12.088
 5807W        W71034  30.984  31.494  14.512
 5808W        W71035  39.375   3.681  14.777
 5809W        W71036   9.278   3.466  12.574
 5810W        W71037  37.515   5.571  13.182
 5811W        W71038  24.742   3.779   2.211
 5812W        W71039  36.463  23.490   4.003
 5813W        W71040  29.615  35.086  14.180
 5814W        W71041  28.100   1.789  12.563
 5815W        W71042   7.246  27.489  10.870
 5816W        W71043  26.655  36.303   4.597
 5817W        W71044  21.517  39.171  10.197
 5818W        W71045  29.535  35.973  11.142
 5819W        W71046  24.714  22.394  12.495
 5820W        W71047  44.755  21.320   3.368
 5821W        W71048  11.887  44.034  14.898
 5822W        W71049  31.474  21.525  13.631
 5823W        W71050  20.532  19.257  11.617
 5824W        W71051   1.503   4.604   3.310
 5825W        W71052  13.140  33.925   2.789
 5826W        W71053  27.938  43.757   3.124
 5827W        W71054  16.806  18.036   3.294
 5828W        W71055  12.309  41.583   1.679
 5829W        W71056  38.243  20.073  13.389
 5830W        W71057  39.492  40.989  14.137
 5831W        W71058  31.480  21.145   2.210
 5832W        W71059   3.666  16.605  10.764
 5833W        W71060  10.576  10.630  13.996
 5834W        W71061  38.323  36.341   1.765
 5835W        W71062   9.788   9.698   2.154
 5836W        W71063  20.924  34.461  11.235
 5837W        W71064  39.046  12.590  10.771
 5838W        W71065  44.314  18.441   2.229
 5839W        W71066  12.381  42.574   3.660
 5840W        W71067  40.273   5.389   1.379
 5841W        W71068   9.220  16.824   2.604
 5842W        W71069  12.309   5.158  12.153
 5843W        W71070   4.306   3.797  13.495
 5844W        W71071   2.362  16.189  12.440
 5845W        W71072  33.483  16.243  12.992
 5846W        W71073   1.788  20.223   2.658
 5847W        W71074  30.595  33.453   4.038
 5848W        W71075  14.604  17.385   3.152
 5849W        W71076  25.786  20.989   3.605
 5850W        W71077   5.376  23.285   3.731
 5851W        W71078  38.763  32.350  13.945
 5852W        W71079   4.157  21.131  13.786
 5853W        W71080  38.058  18.153   0.239
 5854W        W71081  12.414  34.203   2.213
 5855W        W71082   3.105  31.864  13.276
 5856W        W71083   0.912   6.138   4.069
 5857W        W71084  41.053   1.678   3.785
 5858W        W71085   5.707  40.283   1.803
 5859W        W71086  31.783  39.011  11.226
 5860W        W71087  20.479  32.704   3.083
 5861W        W71088  25.222  30.023   3.209
 5862W        W71089   7.226   0.871   1.258
 5863W        W71090  17.584   6.639   0.076
 5864W        W71091   6.314  12.032  10.961
 5865W        W71092   8.589  29.262   2.246
 5866W        W71093  37.911  32.650   2.847
 5867W        W71094  14.409  25.199   0.905
 5868W        W71095  22.282  25.665   0.092
 5869W        W71096   8.300  20.346  13.244
 5870W        W71097  23.757  43.015   1.758
 5871W        W71098  15.734   0.878   1.431
 5872W        W71099  24.817   7.623   1.999
 5873W        W71100  15.823  42.113   2.633
 5874W        W71101  42.910  20.179  14.251
 5875W        W71102  19.474  28.443  12.911
 5876W        W71103  31.540  17.224  13.413
 5877W        W71104  40.079  21.854   4.127
 5878W        W71105  27.003  40.765   4.874
 5879W        W71106  18.644  34.644  10.756
 5880W        W71107   8.008  39.565  11.431
 5881W        W71108   1.874  35.181  12.839
 5882W        W71109  27.185  23.230   2.010
 5883W        W71110  29.938  33.555  12.515
 5884W        W71111  17.085   5.700  10.722
 5885W        W71112   6.299  35.177  10.793
 5886W        W71113  36.315  12.058  12.910
 5887W        W71114  30.993  26.278  11.318
 5888W        W71115  17.275  11.755   1.714
 5889W        W71116  19.746  16.293  14.717
 5890W        W71117   6.306   9.469  14.863
 5891W        W71118  25.203  25.545   2.401
 5892W        W71119  14.161   7.696  12.328
 5893W        W71120  44.582  24.245  11.452
 5894W        W71121  41.396  36.522  12.874
 5895W        W71122  27.964  29.912   3.015
 5896W        W71123  41.771  38.728   0.018
 5897W        W71124  22.416  27.955  13.864
 5898W        W71125  15.849  42.115  13.004
 5899W        W71126  40.492  41.321  10.721
 5900W        W71127  23.252   9.233  11.646
 5901W        W71128  38.987  23.944   4.478
 5902W        W71129   7.095  34.546   2.826
 5903W        W71130  10.135   5.988  11.667
 5904W        W71131  37.378  40.255   4.174
 5905W        W71132   7.689  26.513   3.257
 5906W        W71133   1.019   6.837   0.496
 5907W        W71134   3.777   9.376   2.794
 5908W        W71135   6.138  15.748   2.752
 5909W        W71136  44.421   7.627   1.794
 5910W        W71137  13.824  26.084   2.841
 5911W        W71138  22.082  27.213   3.673
 5912W        W71139  36.161  44.716   1.958
 5913W        W71140  36.825  12.168  12.982
 5914W        W71141  44.727   2.500  14.702
 5915W        W71142   9.906   4.132  12.634
 5916W        W71143  26.270   8.978  11.986
 5917W        W71144   8.815  18.503  14.483
 5918W        W71145   4.818  29.724  11.211
 5919W        W71146   2.873  30.955   4.589
 5920W        W71147  18.659  28.929   0.271
 5921W        W71148  12.598  29.564  10.678
 5922W        W71149   0.046  23.726   2.407
 5923W        W71150  27.773  17.103   0.259
 5924W        W71151  35.154  21.416   3.121
 5925W        W71152   0.071  36.814  13.411
 5926W        W71153   1.391   9.049  13.860
 5927W        W71154  19.775  38.608  13.749
 5928W        W71155   9.042  40.999  11.927
 5929W        W71156  24.602  11.195   4.089
 5930W        W71157  19.753   1.834   2.692
 5931W        W71158  11.322  41.462   2.584
 5932W        W71159   7.890  24.954   4.084
 5933W        W71160  28.853  36.505  11.246
 5934W        W71161  15.239  15.590  11.193
 5935W        W71162  43.116  13.122  11.040
 5936W        W71163  35.687  37.100  11.861
 5937W        W71164  17.681  44.686   3.510
 5938W        W71165   8.127  10.748   1.896
 5939W        W71166  43.289  26.574   4.237
 5940W        W71167  40.819   0.683  12.932
 5941W        W71168   0.012  15.983  13.932
 5942W        W71169   6.019  24.450  10.681
 5943W        W71170  22.252  19.587  11.648
 5944W        W71171  27.303  43.724   0.792
 5945W        W71172  37.483   4.804  10.711
 5946W        W71173  25.198  40.858   2.140
 5947W        W71174  43.429  36.814   0.510
 5948W        W71175  39.970   2.250   3.516
 5949W        W71176  21.778  37.846  14.005
 5950W        W71177  15.994  15.120   0.065
 5951W        W71178  35.671  16.606  12.931
 5952W        W71179  25.584  24.567  11.233
 5953W        W71180   5.029  14.574   3.172
 5954W        W71181  37.179   5.614   9.800
 5955W        W71182   8.699  20.746   3.024
 5956W        W71183   6.342  35.487   3.168
 5957W        W71184   7.479  44.388  11.808
 5958W        W71185  12.518   6.958  10.805
 5959W        W71186  12.230   5.656   3.427
 5960W        W71187  33.004  43.500   4.466
 5961W        W71188  39.463   9.437  12.959
 5962W        W71189  43.343  33.785   1.214
 5963W        W71190   0.445  23.622   9.757
 5964W        W71191  22.020  19.030  12.319
 5965W        W71192  15.717  36.142   0.845
 5966W        W71193  44.120  37.830  13.391
 5967W        W71194  21.359  24.786  14.470
 5968W        W71195   6.496  30.062   2.246
 5969W        W71196  11.347  19.758   0.313
 5970W        W71197  15.393   1.174   4.544
 5971W        W71198  11.808  10.154  12.085
 5972W        W71199  32.285  16.068  10.832
 5973W        W71200  18.653  32.828  12.924
 5974W        W71201   3.149  16.034   3.181
 5975W        W71202  34.170  44.520   4.145
 5976W        W71203   4.936  30.642   4.647
 5977W        W71204  35.203  40.270   3.536
 5978W        W71205  18.595   6.848  12.741
 5979W        W71206  42.895  29.576  11.939
 5980W        W71207  42.487  28.860   0.292
 5981W        W71208   7.837  30.216  14.465
 5982W        W71209  18.544  44.315   3.602
 5983W        W71210  27.088   1.322  14.855
 5984W        W71211  21.578  30.848   1.757
 5985W        W71212  14.608  22.325   1.378
 5986W        W71213  44.008  18.771   4.080
 5987W        W71214   6.792   6.101   1.219
 5988W        W71215  31.718  42.161  11.654
 5989W        W71216  41.460  18.712   4.930
 5990W        W71217  16.260  11.153   0.727
 5991W        W71218  24.492  31.408   1.700
 5992W        W71219  30.666  34.622   1.980
 5993W        W71220   0.286  42.819  12.741
 5994W        W71221  23.525  17.146   4.331
 5995W        W71222  31.836  38.955  13.522
 5996W        W71223  27.435  15.213  11.717
 5997W        W71224  31.049  42.501  13.459
 5998W        W71225  44.707   5.708  11.855
 5999W        W71226  16.076  28.272  11.603
 6000W        W71227  21.234  12.833  12.843
 6001W        W71228  37.308  12.712   3.723
 6002W        W71229  13.209  27.488  13.957
 6003W        W71230  44.839   8.398   4.073
 6004W        W71231  37.560  16.552  11.934
 6005W        W71232   2.952  28.319   3.543
 6006W        W71233   5.142   9.050   2.149
 6007W        W71234  41.486  19.034   3.784
 6008W        W71235  30.791  16.885  10.359
 6009W        W71236   3.776   4.426   0.943
 6010W        W71237  26.190  14.431  11.475
 6011W        W71238  37.908   7.684  13.007
 6012W        W71239  43.906  38.517   4.572
 6013W        W71240   8.267   7.948   2.580
 6014W        W71241  29.175  17.635  11.224
 6015W        W71242  33.374  21.191  11.740
 6016W        W71243  20.201  33.179   1.292
 6017W        W71244  33.091  14.621   4.206
 6018W        W71245  37.038   9.411   4.152
 6019W        W71246  25.198  10.665  14.153
 6020W        W71247  34.293  40.940   0.385
 6021W        W71248  39.410  12.186   0.428
 6022W        W71249  42.472  42.627  13.084
 6023W        W71250  40.565   2.210   3.268
 6024W        W71251  37.825  32.540  13.501
 6025W        W71252   7.332   3.213  11.159
 6026W        W71253   7.824  37.096   4.190
 6027W        W71254   2.162  26.311   2.221
 6028W        W71255  44.231  29.651   0.460
 6029W        W71256  12.451  21.975  14.365
 6030W        W71257   5.704  42.271  12.792
 6031W        W71258  42.293   3.795   2.192
 6032W        W71259   6.732  40.342  10.898
 6033W        W71260  21.513  33.132   1.428
 6034W        W71261   8.325  20.554   3.360
 6035W        W71262  17.095  24.122   0.181
 6036W        W71263  37.092  19.527  12.870
 6037W        W71264  17.524   4.696  10.842
 6038W        W71265   7.743  29.225   4.079
 6039W        W71266  17.993  32.257  12.490
 6040W        W71267  38.670  32.513   5.006
 6041W        W71268   1.994  41.495  12.552
 6042W        W71269   1.572  36.979   0.229
 6043W        W71270  26.595  15.388  10.947
 6044W        W71271  41.851  37.103   4.035
 6045W        W71272   5.905   6.196   3.729
 6046W        W71273  17.109  22.091   3.024
 6047W        W71274  10.621  34.421   2.767
 6048W        W71275  33.980  20.778   1.855
 6049W        W71276  44.070  14.115   5.053
 6050W        W71277  29.624  33.616   5.050
 6051W        W71278  27.859  34.191   4.609
 6052W        W71279   3.062  11.594  12.079
 6053W        W71280  19.539  15.605  11.030
 6054W        W71281  40.803  15.318   2.467
 6055W        W71282  15.894  38.595   3.755
 6056W        W71283  18.862  41.861  14.930
 6057W        W71284   2.418  26.277  13.633
 6058W        W71285  14.716  13.702   5.043
 6059W        W71286   7.291   3.305  12.702
 6060W        W71287  31.189  40.007   1.929
 6061W        W71288  13.618  10.189  12.359
 6062W        W71289  34.669  36.143  11.032
 6063W        W71290  11.277  14.788  10.921
 6064W        W71291   1.047  33.251  13.128
 6065W        W71292  43.860  12.017  12.936
 6066W        W71293  42.382  28.888   1.668
 6067W        W71294   5.165  13.386  13.045
 6068W        W71295  35.116  12.770  13.206
 6069W        W71296  36.102  39.382  12.350
 6070W        W71297   1.790  20.286  14.374
 6071W        W71298  40.341  31.998  11.570
 6072W        W71299   5.846  12.749  14.940
 6073W        W71300  16.138   2.399   1.501
 6074W        W71301   5.442  10.246   0.263
 6075W        W71302  33.954   0.027   0.092
 6076W        W71303   1.377  18.755   0.788
 6077W        W71304   3.269  22.511   1.266
 6078W        W71305   9.177  42.809  12.609
 6079W        W71306  28.472  38.644  10.060
 6080W        W71307  24.907  22.539  12.964
 6081W        W71308  38.221  36.853  11.320
 6082W        W71309  21.290  20.062  12.434
 6083W        W71310   7.570  42.277  13.701
 6084W        W71311  34.940  34.637  11.525
 6085W        W71312   2.268  36.931  11.989
 6086W        W71313  29.482  16.079  14.654
 6087W        W71314  44.057  32.560   1.293
 6088W        W71315  31.571  18.041   0.041
 6089W        W71316   3.856  16.094   0.358
 6090W        W71317  35.791   1.318  11.222
 6091W        W71318  19.233  42.922   2.380
 6092W        W71319  40.273  43.423   0.886
 6093W        W71320   7.165  23.740  10.391
 6094W        W71321  11.909  17.020   1.848
 6095W        W71322  33.395  18.475   0.171
 6096W        W71323   1.207   9.057   1.736
 6097W        W71324   8.952  27.869   3.975
 6098W        W71325  33.143  19.512   0.064
 6099W        W71326  33.647   8.255  14.542
 6100W        W71327   2.458   1.907   4.239
 6101W        W71328  24.596  36.061   0.856
 6102W        W71329  27.205  16.098   1.817
 6103W        W71330  33.987  16.178   4.516
 6104W        W71331  13.222  33.391   2.765
 6105W        W71332  29.806  18.282   4.032
 6106W        W71333  14.262  30.498  10.435
 6107W        W71334   2.184  28.298  12.892
 6108W        W71335   6.906  20.445   0.377
 6109W        W71336   8.578  22.062  11.624
 6110W        W71337   1.899  41.506  13.340
 6111W        W71338  37.962  41.364   4.900
 6112W        W71339  41.927  37.965  14.516
 6113W        W71340  44.486  14.691  12.984
 6114W        W71341  33.781  30.222  10.576
 6115W        W71342  25.250  16.247   4.867
 6116W        W71343  10.941  27.247  11.127
 6117W        W71344  14.097   3.015  12.010
 6118W        W71345  11.159  19.424  10.578
 6119W        W71346  16.619   1.028  11.192
 6120W        W71347   4.228  28.132  12.814
 6121W        W71348  19.651  21.481   1.441
 6122W        W71349  34.136   0.527  12.131
 6123W        W71350  18.024  31.968  13.802
 6124W        W71351  17.265  22.529   0.896
 6125W        W71352  35.067  34.455  13.972
 6126W        W71353  18.684  42.411   4.567
 6127W        W71354  38.512   8.297   3.869
 6128W        W71355  16.457  17.257   4.176
 6129W        W71356   7.362  13.319  11.539
 6130W        W71357  26.263   4.487   4.068
 6131W        W71358  33.892   2.936   2.222
 6132W        W71359  16.610  44.520  12.968
 6133W        W71360  26.490   5.699   4.045
 6134W        W71361  21.035  20.874   1.206
 6135W        W71362   4.459   7.957   3.579
 6136W        W71363   9.284  42.988   4.968
 6137W        W71364  39.963  29.531   4.499
 6138W        W71365  11.635  30.530   0.257
 6139W        W71366  13.262  12.214  13.875
 6140W        W71367  12.298  29.931   2.621
 6141W        W71368  28.157  27.162   0.813
 6142W        W71369  38.980  40.830   0.424
 6143W        W71370  16.586  40.311   0.303
 6144W        W71371  12.598   8.266   3.912
 6145W        W71372  23.611  25.396   3.668
 6146W        W71373  21.970  34.456   2.333
 6147W        W71374  23.290   3.739  12.539
 6148W        W71375  30.409  29.456  12.012
 6149W        W71376  39.841  29.009   3.231
 6150W        W71377  39.516  40.931   0.569
 6151W        W71378  38.820  37.766  12.142
 6152W        W71379  19.882  35.325   0.993
 6153W        W71380  30.358   5.168   0.978
 6154W        W71381   1.975  31.963  13.055
 6155W        W71382  38.104  41.565  10.427
 6156W        W71383   5.279  14.221   0.997
 6157W        W71384   8.829  38.491  13.632
 6158W        W71385  14.312   0.061   3.604
 6159W        W71386  41.463  22.563  11.463
 6160W        W71387  42.254  16.585   4.075
 6161W        W71388  42.444  33.377  13.002
 6162W        W71389  28.642  16.112   2.778
 6163W        W71390  20.769  14.822  10.679
 6164W        W71391  16.574   3.830   2.271
 6165W        W71392   4.151  34.879   2.205
 6166W        W71393   5.629   7.856  12.115
 6167W        W71394  34.054   7.452  13.361
 6168W        W71395  16.740  14.853   3.694
 6169W        W71396  36.810  24.322   3.267
 6170W        W71397   6.445  15.687   2.242
 6171W        W71398  19.613  21.255  14.456
 6172W        W71399  27.029   1.930  10.419
 6173W        W71400   5.583   7.006  14.322
 6174W        W71401  10.816  17.253   2.681
 6175W        W71402  40.846  21.048  13.458
 6176W        W71403  31.555   3.821  10.979
 6177W        W71404  15.069  28.972   0.812
 6178W        W71405  39.073  32.603   3.707
 6179W        W71406  11.967   7.179  13.049
 6180W        W71407  20.162   8.073  13.582
 6181W        W71408   3.740   7.827   2.600
 6182W        W71409  41.840  35.826   4.099
 6183W        W71410  27.193   1.989   3.750
 6184W        W71411  21.084  38.573  13.728
 6185W        W71412  31.185  19.847  13.054
 6186W        W71413   8.363  32.956  11.815
 6187W        W71414  24.134   3.264   3.333
 6188W        W71415  43.469  12.771   0.987
 6189W        W71416  10.189   6.197  12.168
 6190W        W71417  43.855  17.824   2.739
 6191W        W71418   3.820  20.791   3.671
 6192W        W71419  32.929  22.520  12.639
 6193W        W71420  38.099  22.278  13.034
 6194W        W71421  18.831   3.135  11.915
 6195W        W71422  18.207  20.217  13.758
 6196W        W71423  26.539  11.614  11.555
 6197W        W71424  15.982   1.000   4.901
 6198W        W71425  28.381  24.289  14.220
 6199W        W71426  32.650  42.972  11.760
 6200W        W71427   5.220   9.538  11.037
 6201W        W71428  11.415  20.924  11.201
 6202W        W71429  43.949  15.760  12.688
 6203W        W71430   1.501   6.928   4.034
 6204W        W71431  26.081   4.124  10.796
 6205W        W71432  40.975   3.263  11.515
 6206W        W71433  27.283  18.669   1.816
 6207W        W71434   0.978  41.626  14.894
 6208W        W71435   0.931   4.016  11.923
 6209W        W71436  31.486  11.883   0.998
 6210W        W71437  42.393  11.091  12.995
 6211W        W71438  10.741  29.123  11.090
 6212W        W71439  39.088  16.465   0.069
 6213W        W71440   0.276  16.070  11.476
 6214W        W71441  10.441   6.292   2.248
 6215W        W71442  14.612   9.390   4.147
 6216W        W71443  19.094   8.778  14.045
 6217W        W71444  10.147  30.279  13.351
 6218W        W71445  26.256   5.769   1.429
 6219W        W71446  39.619  35.305   3.208
 6220W        W71447  24.183  22.798   3.462
 6221W        W71448  29.398  35.900   4.159
 6222W        W71449  18.523   2.730   1.405
 6223W        W71450  41.464  19.587   4.760
 6224W        W71451  18.145  31.640  10.730
 6225W        W71452   1.689  27.636   1.729
 6226W        W71453   0.184   3.299   1.810
 6227W        W71454   1.968  18.796  14.255
 6228W        W71455  42.916  37.298  12.569
 6229W        W71456  26.371   9.727   1.092
 6230W        W71457  13.650  43.080   0.512
 6231W        W71458  24.050  13.041  14.529
 6232W        W71459  16.236  36.776  12.635
 6233W        W71460  24.432  29.382   3.418
 6234W        W71461  40.859  40.762  14.442
 6235W        W71462  13.589  28.563   1.343
 6236W        W71463   2.345  26.535   1.798
 6237W        W71464  44.681  15.215  10.216
 6238W        W71465   9.174  11.383   0.789
 6239W        W71466  29.888  29.233   1.798
 6240W        W71467  42.281   0.289  12.508
 6241W        W71468  18.539   9.368   2.151
 6242W        W71469  28.505  31.424  13.354
 6243W        W71470  16.860  22.559  11.484
 6244W        W71471  24.262   7.499   3.186
 6245W        W71472  19.091  12.295   0.019
 6246W        W71473  27.728  32.177   0.716
 6247W        W71474  16.331   9.596   4.521
 6248W        W71475   7.783  19.331   4.239
 6249W        W71476  36.839   4.272  14.341
 6250W        W71477  13.435   1.003  12.075
 6251W        W71478   5.633  16.541  13.466
 6252W        W71479  25.242   6.759   1.158
 6253W        W71480  36.927  44.540   3.556
 6254W        W71481  31.073  20.686   4.676
 6255W        W71482   6.279  29.408   2.787
 6256W        W71483  43.452   1.647   3.628
 6257W        W71484  28.721  18.541  13.917
 6258W        W71485  22.594   1.233   0.850
 6259W        W71486  10.672  30.974   4.105
 6260W        W71487  14.354  21.024  14.297
 6261W        W71488  40.324  16.710  12.617
 6262W        W71489  28.001  30.585   3.809
 6263W        W71490  44.171  15.268  13.317
 6264W        W71491  34.885  24.663   4.287
 6265W        W71492  26.259  36.473  12.061
 6266W        W71493   2.210   8.877   0.994
 6267W        W71494  35.859  10.321  12.953
 6268W        W71495   1.485  13.756  14.764
 6269W        W71496  13.557  12.922  14.528
 6270W        W71497   0.782  15.424  14.375
 6271W        W71498  16.758   4.717  12.926
 6272W        W71499  38.426  29.893   3.017
 6273W        W71500  42.853   6.162   0.323
 6274W        W71501   2.996  37.703  11.613
 6275W        W71502   1.913   6.898  13.994
 6276W        W71503  43.331  40.322  14.780
 6277W        W71504   2.862  12.599   1.224
 6278W        W71505  27.257  43.091  12.081
 6279W        W71506  17.383  31.198  11.615
 6280W        W71507  40.994   4.954   1.014
 6281W        W71508  28.986  20.734  13.938
 6282W        W71509  35.634  19.412   1.086
 6283W        W71510  18.391  16.767   2.502
 6284W        W71511  14.891  26.774  10.730
 6285W        W71512  24.128  26.138  14.794
 6286W        W71513  18.281  13.890  11.145
 6287W        W71514  16.162  40.985  10.708
 6288W        W71515  18.747   7.524  12.435
 6289W        W71516  23.923  39.647  10.167
 6290W        W71517  43.722   3.485  12.070
 6291W        W71518  15.718   6.557   2.730
 6292W        W71519  10.147  44.360   4.601
 6293W        W71520  31.507  39.295   4.575
 6294W        W71521  23.272   7.007  14.317
 6295W        W71522  13.923  27.499   3.111
 6296W        W71523  26.700  42.104  10.733
 6297W        W71524  11.372   1.782   1.952
 6298W        W71525  41.888  24.603   4.769
 6299W        W71526   1.156  31.983   4.218
 6300W        W71527   1.389  13.890  12.085
 6301W        W71528  43.290  30.013  12.252
 6302W        W71529   2.055  27.559  13.425
 6303W        W71530   7.514  31.124   1.411
 6304W        W71531  42.756   6.328   1.223
 6305W        W71532  42.358  13.756   3.797
 6306W        W71533  44.661   9.148  11.119
 6307W        W71534  19.112   8.612  11.569
 6308W        W71535  12.567   8.817   0.940
 6309W        W71536   7.528   2.288   4.034
 6310W        W71537   7.629  18.718  14.033
 6311W        W71538   8.218  10.205   4.745
 6312W        W71539  40.963  38.090   0.975
 6313W        W71540  16.924  18.531   0.278
 6314W        W71541  20.310   5.628  12.057
 6315W        W71542  41.716  25.208   3.191
 6316W        W71543  41.881   6.370  13.043
 6317W        W71544  37.875   6.992  11.660
 6318W        W71545  24.887  28.685   1.708
 6319W        W71546  21.946  37.392  13.836
 6320W        W71547  21.296  20.228   4.822
 6321W        W71548   1.961  40.976   5.025
 6322W        W71549   9.592  20.545  12.055
 6323W        W71550  36.395  31.482  11.051
 6324W        W71551  30.175  29.541   4.288
 6325W        W71552   1.484  10.657  10.558
 6326W        W71553  16.937  10.686   3.150
 6327W        W71554  36.655  30.138  14.987
 6328W        W71555  37.577  41.912  12.224
 6329W        W71556  39.157   1.299   4.155
 6330W        W71557  24.747  11.790  14.342
 6331W        W71558  43.867   5.442  13.998
 6332W        W71559   2.238   7.207   0.272
 6333W        W71560  24.145  11.397   4.283
 6334W        W71561  26.881  11.221   0.248
 6335W        W71562  31.462  34.794   1.487
 6336W        W71563  13.910   9.315  12.460
 6337W        W71564   0.663  16.864   2.855
 6338W        W71565  18.947  15.718   2.842
 6339W        W71566  10.360  16.269   4.406
 6340W        W71567   9.784  28.911   2.734
 6341W        W71568  10.850  11.157  11.168
 6342W        W71569  39.610  23.670   0.629
 6343W        W71570  34.568  11.855  14.860
 6344W        W71571  44.721  33.533   4.037
 6345W        W71572  25.200  34.188  12.345
 6346W        W71573  34.605  37.533   1.780
 6347W        W71574  24.781  41.601   2.656
 6348W        W71575  30.098  19.304   3.277
 6349W        W71576  38.012  25.224  14.165
 6350W        W71577  25.342  23.976  13.037
 6351W        W71578  15.395  15.473   4.170
 6352W        W71579  38.711   8.630   3.540
 6353W        W71580  33.501  21.847  11.963
 6354W        W71581  29.515  27.401   0.565
 6355W        W71582  35.073  21.251  14.716
 6356W        W71583  28.098  18.019  13.528
 6357W        W71584  24.203   0.584  14.236
 6358W        W71585   7.558  17.814   1.247
 6359W        W71586  41.813  11.913   3.302
 6360W        W71587   9.681  24.252   3.621
 6361W        W71588  12.982   2.852  14.346
 6362W        W71589  29.620  40.442  13.459
 6363W        W71590   7.861  32.165   1.391
 6364W        W71591  36.245  30.524  11.602
 6365W        W71592  42.984  40.433  12.837
 6366W        W71593  15.216  25.048   3.366
 6367W        W71594  40.509   0.049   4.217
 6368W        W71595  26.543  35.891   0.463
 6369W        W71596  16.302  22.115  12.141
 6370W        W71597   2.020  19.231   2.660
 6371W        W71598  26.801  28.052  13.364
 6372W        W71599  30.476   3.618   0.918
 6373W        W71600  14.341  42.705  11.887
 6374W        W71601   3.432  22.837   4.697
 6375W        W71602  33.747  10.947   0.700
 6376W        W71603  21.586  18.618   3.788
 6377W        W71604  20.516  16.569  11.142
 6378W        W71605   8.279  28.422   4.283
 6379W        W71606  28.449   4.116  13.971
 6380W        W71607  11.076  35.473   1.433
 6381W        W71608   1.717   0.914   0.217
 6382W        W71609  28.798  29.018   1.964
 6383W        W71610  26.026   9.949  12.098
 6384W        W71611  37.535  41.855   0.831
 6385W        W71612  20.021  36.524  11.235
 6386W        W71613  38.818  38.754   4.941
 6387W        W71614  12.282  34.411   0.779
 6388W        W71615  30.802   1.192  12.036
 6389W        W71616   9.751  20.765  11.542
 6390W        W71617   0.660   9.705  12.354
 6391W        W71618  36.035  37.326   1.357
 6392W        W71619  12.447  27.566   3.218
 6393W        W71620  23.676   1.613   0.283
 6394W        W71621  41.793  36.480  12.540
 6395W        W71622  43.312  28.969   1.715
 6396W        W71623  21.986  11.618   1.705
 6397W        W71624  10.765  35.306  11.689
 6398W        W71625  44.996  18.968  12.933
 6399W        W71626  31.245   4.659  12.125
 6400W        W71627  15.108  25.026  13.140
 6401W        W71628  11.422   9.320   0.037
 6402W        W71629   7.356   5.952  13.967
 6403W        W71630   7.303  32.235  14.697
 6404W        W71631   9.354  29.653   4.339
 6405W        W71632  21.500  37.276   1.864
 6406W        W71633  11.187   0.255  14.925
 6407W        W71634  10.687  30.637   0.361
 6408W        W71635  29.945  33.614   0.771
 6409W        W71636  28.971   7.951   1.818
 6410W        W71637  24.960  41.033   0.424
 6411W        W71638  22.272  15.650   3.902
 6412W        W71639  38.600  18.166   0.232
 6413W        W71640  42.889  33.625  10.735
 6414W        W71641  12.654   4.392   2.218
 6415W        W71642   1.836  20.200  10.533
 6416W        W71643   1.067  16.351  10.814
 6417W        W71644  39.931  16.554   3.706
 6418W        W71645  41.367  15.590  14.262
 6419W        W71646   9.694   8.577   3.158
 6420W        W71647  21.094  34.490   1.482
 6421W        W71648  24.455  39.840  13.376
 6422W        W71649  17.002   8.379  10.722
 6423W        W71650  22.537  10.435   4.674
 6424W        W71651   4.437  26.704  12.542
 6425W        W71652   4.347  21.097  14.774
 6426W        W71653  11.850  17.162   2.692
 6427W        W71654  36.583  15.193  11.132
 6428W        W71655  41.371   0.469  14.824
 6429W        W71656  28.672   9.165  12.839
 6430W        W71657  19.137  33.549   1.035
 6431W        W71658   2.932  16.208   1.680
 6432W        W71659  15.249  28.225   4.583
 6433W        W71660   2.816  39.072   3.146
 6434W        W71661  44.485  22.011  14.711
 6435W        W71662  30.820   3.260  12.013
 6436W        W71663  31.629  21.766  13.202
 6437W        W71664  28.835   6.283  11.631
 6438W        W71665  40.837  24.743  14.512
 6439W        W71666   8.379   2.584   3.788
 6440W        W71667  10.872  16.402   4.494
 6441W        W71668  35.959  34.433  14.482
 6442W        W71669  37.148   8.212   1.030
 6443W        W71670  17.766  16.522  10.555
 6444W        W71671   6.889  39.797   2.402
 6445W        W71672  32.190  32.521  12.585
 6446W        W71673   5.854  32.781   4.241
 6447W        W71674  35.791   5.374   0.215
 6448W        W71675  25.159   2.723   3.850
 6449W        W71676  36.110   6.450   4.206
 6450W        W71677  31.072  34.005  13.252
 6451W        W71678  11.719  17.114  11.544
 6452W        W71679  26.173   2.343  10.540
 6453W        W71680  18.274  29.698   1.897
 6454W        W71681  26.530  11.475   1.689
 6455W        W71682  19.206   8.901   0.174
 6456W        W71683  33.565  27.790   3.618
 6457W        W71684  37.620  36.985  13.843
 6458W        W71685  37.880  24.044  11.553
 6459W        W71686  43.018  34.060   4.241
 6460W        W71687  16.273   1.286  11.982
 6461W        W71688  19.033  17.581   3.337
 6462W        W71689  30.504  41.564   4.261
 6463W        W71690  20.430  28.027   4.199
 6464W        W71691  30.438   9.162   3.205
 6465W        W71692  30.125  12.253  13.551
 6466W        W71693  34.259  44.953   3.866
 6467W        W71694  37.677  15.052   2.204
 6468W        W71695  15.290  23.207  13.470
 6469W        W71696  28.003  33.954   4.190
 6470W        W71697  24.959  29.916  12.503
 6471W        W71698  26.669  24.642  11.917
 6472W        W71699  23.216  31.615  10.764
 6473W        W71700  23.270  15.475  12.860
 6474W        W71701   7.662  23.052   4.512
 6475W        W71702  43.754  40.094  10.787
 6476W        W71703   2.736  29.386   3.692
 6477W        W71704   0.001  35.428   2.084
 6478W        W71705   5.895   0.779  14.705
 6479W        W71706   4.446  37.538  13.856
 6480W        W71707  25.257  33.225   0.364
 6481W        W71708  11.342  31.404  13.085
 6482W        W71709  36.551  12.491  11.604
 6483W        W71710   6.985  21.654  10.512
 6484W        W71711  24.474  16.055   1.479
 6485W        W71712  11.410  22.721   4.981
 6486W        W71713  23.296  18.596  11.521
 6487W        W71714  22.573  18.669   1.776
 6488W        W71715  25.785  37.476   0.357
 6489W        W71716  39.712   2.897  13.364
 6490W        W71717  39.063   4.753   4.684
 6491W        W71718   4.501  30.883  13.884
 6492W        W71719   3.329  33.298  11.323
 6493W        W71720  24.155  15.703  14.864
 6494W        W71721   2.812  40.459  11.867
 6495W        W71722  33.788   3.151  13.825
 6496W        W71723   0.853  39.692   3.630
 6497W        W71724  33.196  30.002  14.959
 6498W        W71725  40.804  41.581  11.555
 6499W        W71726  11.335  10.284  13.797
 6500W        W71727  44.770  34.532   0.886
 6501W        W71728   1.990  23.466   0.860
 6502W        W71729  26.484  16.718   2.819
 6503W        W71730  18.087  20.061   2.358
 6504W        W71731   5.396  44.049  12.639
 6505W        W71732  18.820   1.886  11.824
 6506W        W71733  43.324  13.873  10.779
 6507W        W71734  36.487  22.127   3.093
 6508W        W71735   1.584  38.499   3.450
 6509W        W71736   6.831  42.260   3.839
 6510W        W71737   1.876  30.683  12.655
 6511W        W71738   6.226  42.540   1.360
 6512W        W71739  16.738  17.311  10.636
 6513W        W71740  32.713   6.210   4.093
 6514W        W71741  27.428  29.325  10.611
 6515W        W71742   3.270  26.927   3.076
 6516W        W71743  43.385   3.314   4.997
 6517W        W71744  41.810  36.768  12.111
 6518W        W71745  19.779  22.006   2.686
 6519W        W71746  25.481  13.860   2.992
 6520W        W71747  24.686   6.443  13.641
 6521W        W71748  30.398   5.856   4.920
 6522W        W71749  31.817   1.749   2.738
 6523W        W71750  13.758  13.992   0.191
 6524W        W71751  20.043  42.874  13.102
 6525W        W71752  40.818  42.349   1.226
 6526W        W71753  31.622  43.976  10.690
 6527W        W71754  33.890  21.201   4.631
 6528W        W71755  44.801  30.326  10.704
 6529W        W71756  22.173  36.842   3.274
 6530W        W71757  20.326   1.723  10.203
 6531W        W71758  41.015  36.030   2.413
 6532W        W71759   6.188  37.775   4.700
 6533W        W71760   6.760  30.409   3.795
 6534W        W71761  38.002  42.890   0.268
 6535W        W71762  32.095  30.255  12.568
 6536W        W71763  13.573  25.547  13.771
 6537W        W71764  16.164  37.304   3.773
 6538W        W71765  41.304  35.415   0.775
 6539W        W71766  30.450  12.455   9.660
 6540W        W71767  16.090  24.713  12.425
 6541W        W71768  15.673  20.343  13.331
 6542W        W71769  18.060  17.146   2.389
 6543W        W71770  14.095  19.062  13.374
 6544W        W71771  11.323  31.904   0.502
 6545W        W71772  17.268  27.086   3.899
 6546W        W71773   4.871  10.183   2.015
 6547W        W71774  38.920  27.156   2.372
 6548W        W71775  39.893  32.549  12.952
 6549W        W71776  42.318  10.303   0.029
 6550W        W71777   7.046  18.452  12.130
 6551W        W71778  32.514  36.367  13.576
 6552W        W71779  25.414  41.568   1.831
 6553W        W71780  19.339  23.732   4.558
 6554W        W71781   9.897  29.989   1.710
 6555W        W71782  21.471  14.712  13.490
 6556W        W71783  13.096  34.646   1.390
 6557W        W71784  13.322  16.189  11.713
 6558W        W71785  23.980  15.345   2.420
 6559W        W71786  18.638  13.487   0.176
 6560W        W71787  32.596   3.290   2.460
 6561W        W71788  17.790   8.747  10.660
 6562W        W71789   0.378   9.704  11.636
 6563W        W71790  21.644  17.686   2.868
 6564W        W71791  22.935  35.410  11.398
 6565W        W71792  30.765  14.160  12.552
 6566W        W71793   2.551  24.270  13.242
 6567W        W71794  33.161   8.210  14.372
 6568W        W71795   7.105   4.739  13.387
 6569W        W71796  28.374  20.107  11.634
 6570W        W71797  24.966  32.094  11.934
 6571W        W71798  41.258  42.832  12.530
 6572W        W71799  28.155   9.898  14.383
 6573W        W71800  29.660  10.326   4.042
 6574W        W71801  16.998   1.406  11.213
 6575W        W71802  10.641   4.549   0.410
 6576W        W71803  29.205  13.360  13.881
 6577W        W71804  36.367   2.929  10.682
 6578W        W71805  14.784  10.568  12.016
 6579W        W71806  40.354  37.064  13.086
 6580W        W71807   6.378  39.536  12.727
 6581W        W71808  37.073  30.202   0.275
 6582W        W71809  42.039  30.938   2.679
 6583W        W71810   2.270  20.971  11.846
 6584W        W71811  14.694  39.523  11.033
 6585W        W71812  44.655  14.303   9.877
 6586W        W71813  22.714  11.898  14.676
 6587W        W71814  12.540  40.580   4.194
 6588W        W71815   8.228  40.562  12.036
 6589W        W71816  19.114   2.531  14.768
 6590W        W71817  18.250  36.934  11.193
 6591W        W71818  13.745   7.485  13.514
 6592W        W71819  31.424  13.603  13.471
 6593W        W71820  39.823  19.950  13.855
 6594W        W71821   5.993  22.001  11.457
 6595W        W71822  15.800  14.276  14.134
 6596W        W71823  38.937  26.796  12.942
 6597W        W71824  24.302   2.461   1.219
 6598W        W71825  13.046  14.170  14.673
 6599W        W71826  14.380  11.716  12.586
 6600W        W71827  14.766  10.893   1.744
 6601W        W71828   8.660   3.247   2.700
 6602W        W71829  27.481  29.443  11.510
 6603W        W71830  24.167  34.331  12.487
 6604W        W71831   3.442  41.778   0.333
 6605W        W71832  38.454  20.167   1.847
 6606W        W71833  32.430   0.286  10.721
 6607W        W71834  11.114  23.069  11.636
 6608W        W71835   3.990   7.218  12.611
 6609W        W71836   5.003  25.916  11.029
 6610W        W71837  31.028   9.888   3.312
 6611W        W71838  35.314  20.596  11.993
 6612W        W71839  20.107  34.019   0.757
 6613W        W71840   0.548  23.586  12.910
 6614W        W71841  39.991  28.974  14.041
 6615W        W71842   0.024   5.858  11.465
 6616W        W71843  23.524  36.797  12.413
 6617W        W71844  10.602  18.806   4.967
 6618W        W71845   3.379  33.655   1.128
 6619W        W71846   9.825  24.950  14.938
 6620W        W71847  35.903  20.165  13.591
 6621W        W71848  40.319   0.268   1.824
 6622W        W71849  12.333  41.786  14.102
 6623W        W71850  30.994   4.172   3.725
 6624W        W71851  33.650   4.092  11.190
 6625W        W71852  41.239  10.554  14.377
 6626W        W71853  15.272  21.775   1.228
 6627W        W71854   7.452  13.581  12.528
 6628W        W71855   7.109  16.572   0.544
 6629W        W71856   4.052  23.161  12.654
 6630W        W71857  31.416  12.872   1.826
 6631W        W71858  22.588  25.940  11.683
 6632W        W71859  23.653  41.472   1.615
 6633W        W71860  44.425  20.802   2.682
 6634W        W71861  41.578  23.692  11.868
 6635W        W71862   2.947  12.201  12.722
 6636W        W71863  28.875  31.707  13.555
 6637W        W71864  36.204  27.939  10.607
 6638W        W71865  27.070  29.653   1.946
 6639W        W71866  24.877  41.247  13.379
 6640W        W71867   2.135  37.058  13.246
 6641W        W71868  43.552   8.710  13.083
 6642W        W71869  39.627  32.372  12.240
 6643W        W71870   5.638  10.780  13.196
 6644W        W71871  20.662  19.414   3.152
 6645W        W71872  22.511  21.238   4.730
 6646W        W71873   6.800  44.887   4.362
 6647W        W71874  20.983  19.281   4.971
 6648W        W71875  18.482  36.174   1.174
 6649W        W71876  43.836  22.553  14.407
 6650W        W71877  32.201  20.066  10.810
 6651W        W71878   5.215  24.090   0.359
 6652W        W71879  16.754  37.331   2.141
 6653W        W71880  17.508   3.223  12.450
 6654W        W71881  39.784  39.054   1.018
 6655W        W71882  30.497  38.829  14.583
 6656W        W71883  24.321  21.914   1.381
 6657W        W71884  31.531   0.470  14.344
 6658W        W71885  10.192   6.950  14.802
 6659W        W71886  40.029  30.966   0.323
 6660W        W71887  19.965  21.709   2.253
 6661W        W71888  42.603  14.473   4.207
 6662W        W71889  31.478   9.102   4.581
 6663W        W71890   0.338  32.460   4.265
 6664W        W71891   5.726   0.469  13.409
 6665W        W71892  39.023  23.248  11.339
 6666W        W71893   4.814  31.676  12.870
 6667W        W71894  30.010  26.030  13.935
 6668W        W71895  16.338  17.827   0.961
 6669W        W71896  17.614  34.385   0.009
 6670W        W71897  20.472  37.404  13.490
 6671W        W71898  27.257  14.381   3.744
 6672W        W71899  29.263   8.109  14.962
 6673W        W71900   3.486  26.416  12.613
 6674W        W71901  43.825  34.113   0.690
 6675W        W71902  27.497  25.213  11.161
 6676W        W71903   1.444  43.293   0.939
 6677W        W71904   2.694  18.769  12.554
 6678W        W71905  16.174  39.899   1.310
 6679W        W71906  17.649  41.018  14.916
 6680W        W71907  10.558  11.732  14.719
 6681W        W71908  25.985  44.965  14.769
 6682W        W71909  28.024  11.992  14.496
 6683W        W71910   8.837   6.598   3.705
 6684W        W71911   9.725  43.022   2.288
 6685W        W71912  15.100   7.337  13.563
 6686W        W71913  15.787   7.766   3.238
 6687W        W71914  32.111  40.025   3.102
 6688W        W71915  25.722   7.370  13.533
 6689W        W71916  31.473   6.592   1.362
 6690W        W71917  25.117  22.124   0.598
 6691W        W71918  42.971  36.361  14.778
 6692W        W71919  27.477  44.407   3.710
 6693W        W71920  44.228  44.915   3.240
 6694W        W71921  16.088  13.131  10.614
 6695W        W71922  41.357  23.620  12.367
 6696W        W71923  35.425  10.757  14.452
 6697W        W71924  22.136  42.939  11.568
 6698W        W71925  25.211   7.301   1.288
 6699W        W71926   9.155  40.202  11.053
 6700W        W71927  20.211  17.802   1.169
 6701W        W71928  30.576  28.389   5.082
 6702W        W71929  20.634  11.681  12.471
 6703W        W71930  27.554  27.206   0.337
 6704W        W71931  26.465  11.793   3.855
 6705W        W71932   3.571   2.952  10.695
 6706W        W71933   0.110  18.301  14.209
 6707W        W71934   2.218  31.202   4.399
 6708W        W71935   3.630  34.638  13.562
 6709W        W71936  23.000  19.563  10.613
 6710W        W71937   2.778  31.196   2.382
 6711W        W71938  22.685   6.849   1.211
 6712W        W71939   8.623   1.661  11.468
 6713W        W71940  43.732  11.031  11.902
 6714W        W71941  28.442  33.576  12.370
 6715W        W71942  23.875  30.581   1.739
 6716W        W71943  10.885  26.488   0.342
 6717W        W71944  34.707  19.589   3.077
 6718W        W71945   5.269  35.388  11.547
 6719W        W71946  44.313   9.438  12.338
 6720W        W71947  31.107   3.162  14.516
 6721W        W71948   7.769  18.799   3.705
 6722W        W71949  29.196  33.484   0.461
 6723W        W71950   4.880  13.319  13.960
 6724W        W71951   1.739  19.968   0.923
 6725W        W71952  17.669  13.278  12.715
 6726W        W71953  39.339  40.120  13.804
 6727W        W71954  27.946  35.272  14.393
 6728W        W71955   4.725  29.159   0.913
 6729W        W71956  36.639  32.550   1.852
 6730W        W71957  37.841  33.528   2.787
 6731W        W71958   5.762  21.521  14.287
 6732W        W71959  23.184  12.540   0.705
 6733W        W71960  30.346  35.044   5.115
 6734W        W71961  38.658  25.757   1.247
 6735W        W71962  20.571  25.429  14.932
 6736W        W71963  27.762  28.954  14.488
 6737W        W71964  38.535  12.460  10.745
 6738W        W71965  40.427  21.150   2.772
 6739W        W71966  35.066  10.867   1.770
 6740W        W71967   4.805  10.330   2.494
 6741W        W71968  40.579  34.321  12.484
 6742W        W71969  29.913   3.688   3.633
 6743W        W71970  29.772  43.012  12.355
 6744W        W71971  41.655  26.659   0.494
 6745W        W71972  33.510   8.907   0.909
 6746W        W71973  41.865  18.672   3.616
 6747W        W71974  28.596  32.402   1.843
 6748W        W71975  30.128  41.368  14.312
 6749W        W71976  29.038  31.440  13.158
 6750W        W71977  33.657  39.394  13.457
 6751W        W71978   5.025  23.515   2.831
 6752W        W71979   4.843  29.732   1.835
 6753W        W71980  44.735   6.419   2.396
 6754W        W71981   6.784  27.146   3.721
 6755W        W71982  40.428   7.223  14.219
 6756W        W71983  15.082  15.658   0.937
 6757W        W71984  39.415  22.495   4.375
 6758W        W71985  29.074  41.034   2.285
 6759W        W71986  18.681  41.937   3.148
 6760W        W71987  14.382   3.459   1.943
 6761W        W71988   7.181  30.596  14.376
 6762W        W71989  40.820  37.796   0.048
 6763W        W71990  36.490  31.487   1.786
 6764W        W71991  26.619   7.438  10.617
 6765W        W71992  21.125   6.680  14.288
 6766W        W71993  40.740  26.504   4.141
 6767W        W71994  24.602  17.045   2.292
 6768W        W71995  18.525  10.207   3.259
 6769W        W71996  35.975  38.712   2.821
 6770W        W71997  14.740  20.260   2.415
 6771W        W71998  36.873   5.930   5.309
 6772W        W71999  15.345  36.912  11.170
 6773W        W72000  39.409  38.570   0.428
 6774W        W72001  19.143  31.049  12.156
 6775W        W72002  36.098   6.842  13.842
 6776W        W72003  42.552  43.224  13.483
 6777W        W72004  10.400  16.915  10.688
 6778W        W72005   6.707  33.140  10.641
 6779W        W72006  17.798  27.319  11.052
 6780W        W72007  21.278  13.391  11.664
 6781W        W72008  31.937  35.117  14.382
 6782W        W72009  39.490  44.766   2.320
 6783W        W72010   5.200  14.776   9.886
 6784W        W72011  37.463  25.804  14.946
 6785W        W72012  28.195   0.351   1.260
 6786W        W72013   7.192  30.084  12.519
 6787W        W72014  26.514  27.101   1.626
 6788W        W72015  31.578  31.978  14.440
 6789W        W72016  31.874  28.222   2.791
 6790W        W72017  22.454   4.214   2.791
 6791W        W72018  13.428  13.155   0.391
 6792W        W72019   0.479  43.748  12.526
 6793W        W72020   6.544  37.169   1.969
 6794W        W72021  37.200  44.788  11.087
 6795W        W72022  25.506  27.904   0.714
 6796W        W72023   8.940  41.541  14.991
 6797W        W72024  15.900  44.484   1.446
 6798W        W72025  40.682   4.710  11.153
 6799W        W72026  14.685   4.147   1.425
 6800W        W72027  41.906   9.641  13.456
 6801W        W72028  13.058   9.722  12.642
 6802W        W72029   1.451  25.595   2.874
 6803W        W72030  42.970   2.718  13.551
 6804W        W72031  26.086  31.518  14.134
 6805W        W72032   4.181  27.799  11.134
 6806W        W72033  27.933  12.347   3.234
 6807W        W72034  12.816  35.966  11.544
 6808W        W72035   9.688  32.529  11.835
 6809W        W72036  21.522   8.752   2.568
 6810W        W72037  24.284  25.718   4.609
 6811W        W72038   0.750  13.640   4.033
 6812W        W72039  35.503  40.008   3.850
 6813W        W72040   9.264   6.701   0.719
 6814W        W72041   9.866  43.293   1.885
 6815W        W72042  32.630   1.274   4.764
 6816W        W72043   3.231  34.747  12.795
 6817W        W72044  21.152  38.448  14.217
 6818W        W72045   3.652  21.539   0.361
 6819W        W72046  23.664  22.683  10.623
 6820W        W72047  41.152  29.236  11.256
 6821W        W72048  28.779  28.015   5.084
 6822W        W72049  10.375   6.352   3.615
 6823W        W72050  12.142  43.666  14.444
 6824W        W72051  31.052  27.531   1.748
 6825W        W72052  33.611  25.955  14.924
 6826W        W72053   8.363  32.053   2.162
 6827W        W72054  11.168  23.173   3.226
 6828W        W72055  20.097  20.227   0.255
 6829W        W72056  37.410  33.938   0.927
 6830W        W72057  28.822   0.660  11.699
 6831W        W72058  11.139  44.943  14.446
 6832W        W72059  38.381  42.753   1.947
 6833W        W72060  10.615  14.877   0.910
 6834W        W72061  43.988  18.200   9.899
 6835W        W72062  40.494  21.139   4.433
 6836W        W72063  14.231  25.512  14.978
 6837W        W72064  35.218  16.660   1.347
 6838W        W72065  20.056  36.781   2.645
 6839W        W72066  12.365  30.648   0.063
 6840W        W72067  25.127  43.372   4.078
 6841W        W72068  30.115  29.155   3.958
 6842W        W72069  41.575  14.742   2.160
 6843W        W72070  38.862  16.208   3.761
 6844W        W72071  34.477  19.537   0.078
 6845W        W72072  29.076   2.907   4.108
 6846W        W72073   9.494  42.986   2.742
 6847W        W72074  10.747   9.171  14.267
 6848W        W72075   8.228  19.658   4.355
 6849W        W72076   6.838  10.623   1.239
 6850W        W72077  33.165   1.630   3.682
 6851W        W72078  24.216   6.877  11.131
 6852W        W72079  14.097  43.934   4.409
 6853W        W72080  42.856  27.484  12.531
 6854W        W72081  14.152  19.283  11.343
 6855W        W72082  32.585  39.949   0.232
 6856W        W72083  39.735  35.371  13.898
 6857W        W72084   5.904  20.259   2.854
 6858W        W72085  18.028  27.027   4.806
 6859W        W72086  10.617   1.698   3.279
 6860W        W72087  17.222  32.490   1.009
 6861W        W72088  24.200  39.057   1.825
 6862W        W72089   1.537   8.911  11.352
 6863W        W72090  44.467  10.852   3.681
 6864W        W72091   0.524  42.838  14.712
 6865W        W72092  17.368  11.933  10.274
 6866W        W72093  31.047  33.178   0.658
 6867W        W72094  16.157   6.244   4.502
 6868W        W72095  39.802  39.115   0.006
 6869W        W72096  23.037   9.413  12.849
 6870W        W72097   3.218   3.924   2.722
 6871W        W72098  25.377  33.998   4.262
 6872W        W72099  21.262  36.137  12.519
 6873W        W72100  25.416  44.252  12.638
 6874W        W72101  40.284   9.097  13.920
 6875W        W72102   6.743  30.950   1.670
 6876W        W72103  12.323   1.474   3.591
 6877W        W72104  40.611  37.836  12.058
 6878W        W72105   1.395  33.692   4.817
 6879W        W72106   8.382  14.233   2.184
 6880W        W72107  15.469  26.990  13.548
 6881W        W72108  24.381  41.572  14.764
 6882W        W72109  12.379  14.161  10.652
 6883W        W72110   7.349  36.964   3.791
 6884W        W72111  30.217  22.539   2.628
 6885W        W72112  36.815  43.922   2.130
 6886W        W72113  23.619  27.583   3.880
 6887W        W72114  12.141  10.233  12.540
 6888W        W72115   1.612  10.601  14.779
 6889W        W72116  30.971  36.336  12.066
 6890W        W72117   1.018  18.527  11.240
 6891W        W72118   1.344  26.530   2.821
 6892W        W72119  34.215  39.308  10.920
 6893W        W72120  42.413   7.161   1.191
 6894W        W72121   0.504  31.107   4.321
 6895W        W72122  17.217  31.204   4.305
 6896W        W72123  39.288   1.902  14.322
 6897W        W72124  15.295  14.159   4.574
 6898W        W72125  35.380   3.409  13.951
 6899W        W72126  22.151  28.983   1.167
 6900W        W72127  41.306  39.834   3.205
 6901W        W72128  44.869  16.124  11.830
 6902W        W72129  21.155  18.195  14.418
 6903W        W72130  13.755  12.203   4.877
 6904W        W72131  26.703  27.060   4.011
 6905W        W72132  21.723  25.615   4.042
 6906W        W72133  12.469  36.006   1.755
 6907W        W72134  27.397  13.690  14.438
 6908W        W72135  20.804  35.766   2.778
 6909W        W72136  20.991  26.731   3.252
 6910W        W72137   7.855   4.711  13.776
 6911W        W72138  26.498   3.361   0.390
 6912W        W72139  43.401  17.944   5.374
 6913W        W72140  12.762  34.949   5.210
 6914W        W72141  30.644  40.564   4.593
 6915W        W72142  44.308  18.090  10.727
 6916W        W72143  22.989  33.493   2.951
 6917W        W72144  33.625  27.766  12.106
 6918W        W72145  22.768  26.933   4.319
 6919W        W72146  24.591  14.790   3.089
 6920W        W72147  44.525   6.641  14.263
 6921W        W72148  28.612  41.773  11.115
 6922W        W72149  12.201  16.881   1.108
 6923W        W72150  24.995  15.117  11.609
 6924W        W72151   4.217   1.937   1.319
 6925W        W72152  14.078   3.614  13.434
 6926W        W72153  31.922   4.435   1.341
 6927W        W72154  20.488  21.410  14.038
 6928W        W72155  19.223  11.690   2.135
 6929W        W72156  19.358  26.016   2.299
 6930W        W72157  16.528  41.019  13.964
 6931W        W72158   7.360  12.035  13.683
 6932W        W72159  22.208   8.490  14.935
 6933W        W72160  24.739  14.254   2.375
 6934W        W72161  16.026  21.628  14.854
 6935W        W72162  31.007  12.854   1.077
 6936W        W72163  27.781   8.264  12.555
 6937W        W72164  22.480  44.848  11.057
 6938W        W72165  38.858  23.859   3.448
 6939W        W72166  35.296  34.976  13.533
 6940W        W72167  32.505  42.367   0.771
 6941W        W72168   9.731  39.528   2.846
 6942W        W72169  23.648  14.854  11.095
 6943W        W72170  11.856   3.048   4.289
 6944W        W72171  27.951  10.126  14.828
 6945W        W72172  20.186  43.393  11.177
 6946W        W72173  43.855  19.736  12.174
 6947W        W72174  29.599   8.697  13.745
 6948W        W72175  39.011  34.433  10.756
 6949W        W72176  17.637   3.735  12.356
 6950W        W72177  37.510   2.719   3.195
 6951W        W72178  23.899  37.786  12.786
 6952W        W72179  19.333  33.933   2.094
 6953W        W72180  23.820  32.890  13.880
 6954W        W72181  31.510  42.411   1.292
 6955W        W72182  34.195  16.003   0.573
 6956W        W72183  12.293   1.517  10.795
 6957W        W72184   9.630  39.001  13.343
 6958W        W72185  28.616  21.996  14.424
 6959W        W72186  20.031  36.449   1.757
 6960W        W72187  44.835   8.684  11.332
 6961W        W72188  44.224   2.985   0.934
 6962W        W72189   2.470   0.892  14.505
 6963W        W72190  23.167  19.222   0.386
 6964W        W72191  33.475  35.154   1.920
 6965W        W72192  12.203  33.831  14.242
 6966W        W72193   8.241  13.007  11.942
 6967W        W72194  15.676  26.046   4.597
 6968W        W72195  14.601   2.134  14.971
 6969W        W72196   4.761   9.514   0.483
 6970W        W72197  34.566  11.763  13.963
 6971W        W72198   9.266  37.371   0.216
 6972W        W72199  30.359  41.571   2.367
 6973W        W72200  37.038  15.468   3.973
 6974W        W72201  15.191   8.429   0.359
 6975W        W72202   4.891  10.194  11.542
 6976W        W72203   2.510  22.667   3.387
 6977W        W72204  39.245   4.638  14.308
 6978W        W72205  28.490  32.548  14.443
 6979W        W72206  28.647  43.366   4.125
 6980W        W72207  31.117  28.400  13.317
 6981W        W72208  19.767  36.002   1.768
 6982W        W72209  11.622   3.402  10.479
 6983W        W72210  33.003  18.689  13.833
 6984W        W72211  20.066  39.205  11.552
 6985W        W72212  13.626   0.982   3.762
 6986W        W72213  30.491  19.691  13.817
 6987W        W72214  17.128   0.440   2.527
 6988W        W72215  30.550  43.056  13.463
 6989W        W72216  25.990  23.147   1.664
 6990W        W72217  32.494  26.212  14.854
 6991W        W72218  28.213  17.245  10.620
 6992W        W72219  40.055  19.278   0.169
 6993W        W72220  32.144  11.283  12.466
 6994W        W72221   2.413   3.366   0.996
 6995W        W72222  28.497  40.084  10.286
 6996W        W72223   4.723  20.216   3.715
 6997W        W72224   7.472   2.363  14.417
 6998W        W72225   5.686  19.743   2.898
 6999W        W72226  36.823   6.411   2.817
 7000W        W72227   6.315  15.407   1.252
 7001W        W72228  28.511  36.623  14.658
 7002W        W72229   3.139  29.331   0.155
 7003W        W72230  32.512   6.407  14.494
 7004W        W72231  44.888   4.556  12.068
 7005W        W72232  24.479   5.766  10.797
 7006W        W72233  36.076   0.996   1.466
 7007W        W72234   8.724  40.803  10.625
 7008W        W72235  34.614  17.819   1.814
 7009W        W72236  41.423  17.119   2.140
 7010W        W72237  13.072  34.440   2.917
 7011W        W72238  32.156   3.148   0.350
 7012W        W72239  16.629  35.659   2.986
 7013W        W72240  35.261   7.193   4.134
 7014W        W72241   2.441   2.295   4.983
 7015W        W72242  40.405  24.350  12.062
 7016W        W72243  28.142  11.222   2.456
 7017W        W72244  31.643  35.826   1.701
 7018W        W72245  35.432  41.037  10.668
 7019W        W72246   6.973  34.904  14.978
 7020W        W72247  27.062  25.731  11.557
 7021W        W72248   3.890  28.918   2.784
 7022W        W72249  36.306  20.131   3.842
 7023W        W72250  22.555  16.186   3.772
 7024W        W72251  30.035   7.618   1.637
 7025W        W72252  26.106  25.493   2.616
 7026W        W72253  12.306  16.896   2.169
 7027W        W72254  33.044   4.929   1.806
 7028W        W72255  14.238   9.311   4.501
 7029W        W72256  28.381  25.461   4.056
 7030W        W72257  14.028  27.167   3.479
 7031W        W72258  15.243  36.356  12.637
 7032W        W72259  37.133  36.421   0.171
 7033W        W72260  27.558  30.024  14.793
 7034W        W72261  20.525  43.037   4.508
 7035W        W72262   0.145   1.521   4.081
 7036W        W72263   2.379  38.096  12.544
 7037W        W72264  33.466  42.028  12.441
 7038W        W72265  32.184  25.638   3.611
 7039W        W72266  15.872  39.935  14.893
 7040W        W72267  26.803  31.416  12.413
 7041W        W72268   1.861   7.297  11.166
 7042W        W72269  13.017  29.542   0.265
 7043W        W72270   7.656  31.938   4.656
 7044W        W72271  10.542  18.254  11.635
 7045W        W72272  14.044  19.277   3.439
 7046W        W72273  40.816  17.175  12.175
 7047W        W72274   2.906   8.129   3.775
 7048W        W72275  37.283   4.237   1.163
 7049W        W72276  26.471  10.152   4.987
 7050W        W72277   7.999  27.970  12.877
 7051W        W72278  18.012  26.887  13.532
 7052W        W72279   2.733  13.624   0.380
 7053W        W72280  33.990  18.991  11.657
 7054W        W72281  19.314   4.105   1.767
 7055W        W72282  22.712  12.111  14.117
 7056W        W72283  18.133  38.900  12.324
 7057W        W72284   2.862  34.736  14.253
 7058W        W72285   6.925  33.556  14.966
 7059W        W72286  17.012  36.329  12.139
 7060W        W72287   8.907  42.837  11.122
 7061W        W72288  18.342   9.915  12.508
 7062W        W72289  26.517   1.930   0.923
 7063W        W72290  22.773  34.117   1.260
 7064W        W72291  36.572  44.278  12.088
 7065W        W72292   9.609  34.373  10.752
 7066W        W72293  32.952   1.719   4.136
 7067W        W72294  31.557  22.543   4.329
 7068W        W72295   8.377  37.361   2.350
 7069W        W72296  29.512  10.111   4.501
 7070W        W72297  16.083   9.142  14.279
 7071W        W72298  39.301  15.488   1.795
 7072W        W72299  39.043  15.240   0.293
 7073W        W72300  36.272  28.413   1.696
 7074W        W72301  25.040  12.224   0.549
 7075W        W72302  36.795  32.900  13.146
 7076W        W72303   6.417  44.704   4.048
 7077W        W72304  35.360  29.090   2.772
 7078W        W72305  24.922   7.544  11.708
 7079W        W72306  25.181   4.042  12.974
 7080W        W72307  13.175  17.057   2.280
 7081W        W72308  33.379   7.600   2.817
 7082W        W72309  27.509  35.434  12.455
 7083W        W72310   9.951  40.744   1.930
 7084W        W72311  17.687  11.400   2.230
 7085W        W72312  32.120  13.752   2.585
 7086W        W72313  16.355  22.071  13.062
 7087W        W72314   1.184  30.182   2.746
 7088W        W72315  43.763  33.534   1.920
 7089W        W72316  30.082  14.297   0.382
 7090W        W72317  32.511  37.616   0.142
 7091W        W72318   2.481  11.337   3.701
 7092W        W72319  21.233   0.342  10.216
 7093W        W72320  14.614  31.652   3.105
 7094W        W72321  16.652  12.922   3.309
 7095W        W72322  12.622   6.145  13.590
 7096W        W72323  14.081  28.643  13.579
 7097W        W72324  26.747  42.449   4.367
 7098W        W72325  25.458  29.616  11.201
 7099W        W72326  41.180  19.137   4.768
 7100W        W72327  25.130  12.213   3.336
 7101W        W72328  37.256  41.275   0.307
 7102W        W72329   1.530  19.666   0.548
 7103W        W72330  37.604   9.852  11.523
 7104W        W72331  40.408  20.920  10.266
 7105W        W72332  38.256  32.723  11.271
 7106W        W72333  15.920  23.020   3.583
 7107W        W72334  40.227  38.348   0.985
 7108W        W72335  37.316  12.943   2.341
 7109W        W72336  28.101  22.067   0.196
 7110W        W72337  22.446   5.292  10.392
 7111W        W72338  43.027  28.961  11.252
 7112W        W72339  11.867  38.010   3.325
 7113W        W72340   2.481  32.977   1.557
 7114W        W72341  19.727  34.527  13.312
 7115W        W72342  15.344  40.826   2.415
 7116W        W72343  19.393  38.504   4.520
 7117W        W72344  36.993   9.177  14.525
 7118W        W72345  24.147  41.719   0.752
 7119W        W72346  12.390  25.469   1.373
 7120W        W72347   9.305  26.522  13.933
 7121W        W72348  21.666  33.269  10.956
 7122W        W72349  36.151  28.391   1.163
 7123W        W72350  12.305  35.024  12.904
 7124W        W72351  13.632  34.385  12.605
 7125W        W72352  25.540  14.421   2.575
 7126W        W72353  33.147  41.858   0.380
 7127W        W72354  18.662  33.240  11.118
 7128W        W72355  15.778  27.940   2.051
 7129W        W72356  31.227  27.077   1.076
 7130W        W72357  33.918  36.359  13.861
 7131W        W72358  27.853  21.602   2.336
 7132W        W72359   7.959  26.501  12.057
 7133W        W72360  21.551   5.427   3.536
 7134W        W72361  33.967   3.668  10.947
 7135W        W72362  42.500   2.795   2.149
 7136W        W72363  33.647  12.259   4.650
 7137W        W72364  29.139   0.920   2.151
 7138W        W72365  23.852   3.834  12.105
 7139W        W72366  26.937  12.805  14.497
 7140W        W72367   0.762  37.414  11.114
 7141W        W72368  25.088  29.804  11.519
 7142W        W72369  10.721  34.636   1.811
 7143W        W72370  12.565  18.518  12.603
 7144W        W72371  20.258  21.186  14.729
 7145W        W72372  21.950  15.591  11.066
 7146W        W72373   7.433  39.920  12.970
 7147W        W72374  42.447  33.362  10.837
 7148W        W72375  13.483  18.238  14.867
 7149W        W72376  10.713  19.450   2.701
 7150W        W72377  42.964   8.755  13.967
 7151W        W72378  11.828  31.905   2.734
 7152W        W72379  22.714  35.357  10.299
 7153W        W72380  40.313  20.101   2.388
 7154W        W72381  25.183  19.531  10.622
 7155W        W72382  43.038  12.145  14.245
 7156W        W72383  35.893  40.554   3.659
 7157W        W72384  11.577   9.703   3.673
 7158W        W72385  16.641  44.696  11.962
 7159W        W72386  43.479   7.650   1.307
 7160W        W72387  13.107  18.047   3.143
 7161W        W72388   8.344  34.777   3.721
 7162W        W72389  19.588  11.656  13.253
 7163W        W72390   0.152  17.245   5.082
 7164W        W72391  37.757  10.345  14.775
 7165W        W72392  17.486  12.333   3.385
 7166W        W72393  20.228  40.454  13.034
 7167W        W72394  16.871  28.372  12.506
 7168W        W72395   8.430  26.682  14.528
 7169W        W72396   7.473   6.861  13.422
 7170W        W72397   8.253  22.023   3.865
 7171W        W72398  37.696  25.148   0.875
 7172W        W72399  40.475   1.392   3.769
 7173W        W72400  15.869  12.387   4.973
 7174W        W72401  42.547  31.493   0.547
 7175W        W72402  10.810  35.943  14.823
 7176W        W72403   7.888   5.594  10.744
 7177W        W72404  25.592  23.625  13.329
 7178W        W72405  31.239  27.818  11.207
 7179W        W72406   3.541  22.036   0.280
 7180W        W72407   2.497   9.655  13.356
 7181W        W72408   0.705  18.030   2.420
 7182W        W72409  37.554   9.435   2.697
 7183W        W72410  27.192   1.310   0.407
 7184W        W72411  29.209  29.894   2.291
 7185W        W72412   9.709   3.581  10.816
 7186W        W72413  32.021  28.558  11.802
 7187W        W72414  32.639  22.200   2.765
 7188W        W72415   9.959  40.044   4.155
 7189W        W72416   5.088  38.999   0.307
 7190W        W72417  24.116   1.098  11.258
 7191W        W72418   9.154  42.454  12.994
 7192W        W72419  13.222   3.453  12.520
 7193W        W72420  43.717  23.040  11.732
 7194W        W72421  23.944  39.875  14.266
 7195W        W72422  15.042  28.579   2.796
 7196W        W72423  43.656  16.557   0.789
 7197W        W72424   3.631  21.125   1.513
 7198W        W72425  38.732   8.643  11.182
 7199W        W72426  30.047  44.475  11.355
 7200W        W72427  40.570  41.398  13.564
 7201W        W72428  26.712  30.185   3.457
 7202W        W72429   5.897  33.306  11.757
 7203W        W72430   6.779   5.961   2.658
 7204W        W72431   7.019  30.717  11.543
 7205W        W72432  23.621   3.147  13.611
 7206W        W72433  11.274  20.358   1.764
 7207W        W72434  38.904   8.281   0.349
 7208W        W72435  18.509  28.067   4.743
 7209W        W72436  20.531  32.484   4.653
 7210W        W72437  25.176  10.610  11.154
 7211W        W72438  38.400  22.697   2.804
 7212W        W72439  15.639  24.612   5.294
 7213W        W72440   5.495   4.928  12.835
 7214W        W72441  18.855  21.549  12.501
 7215W        W72442   8.292  35.899   4.311
 7216W        W72443  25.114   2.636  11.078
 7217W        W72444  17.033  25.672  14.146
 7218W        W72445  12.040  19.055   4.054
 7219W        W72446  35.485  27.884  14.951
 7220W        W72447   5.245  28.872  12.009
 7221W        W72448  19.563   6.455  11.156
 7222W        W72449  43.685  21.311   1.924
 7223W        W72450  15.346  23.492   2.400
 7224W        W72451   2.466  13.609   0.962
 7225W        W72452  29.421  40.935   1.891
 7226W        W72453   0.918  19.350  12.077
 7227W        W72454   6.435   8.570  10.590
 7228W        W72455  33.891  27.630   2.907
 7229W        W72456  35.603  38.991  11.908
 7230W        W72457   0.840  33.168   3.268
 7231W        W72458  27.581  17.765   2.753
 7232W        W72459  13.539  15.352  14.815
 7233W        W72460  13.993  33.677   3.145
 7234W        W72461  33.477   6.454   3.479
 7235W        W72462   9.562  41.403  10.430
 7236W        W72463  32.997  27.871   5.345
 7237W        W72464  31.472  22.844  14.454
 7238W        W72465   0.225  23.493   1.073
 7239W        W72466  15.687  31.570   2.255
 7240W        W72467  30.145   4.803   3.378
 7241W        W72468  20.576  26.911  14.566
 7242W        W72469  34.690  34.098  13.887
 7243W        W72470  13.947   9.240   3.679
 7244W        W72471  41.863   6.668   4.124
 7245W        W72472  35.792  28.157   3.835
 7246W        W72473  36.748  10.125   2.452
 7247W        W72474  31.596  25.122  14.812
 7248W        W72475  22.956   6.214   0.861
 7249W        W72476  31.134   8.337   1.009
 7250W        W72477  29.384  16.505  14.394
 7251W        W72478  37.214   5.780  13.563
 7252W        W72479  38.900   7.769   2.202
 7253W        W72480  10.766  18.107   0.230
 7254W        W72481  19.336  12.665   3.658
 7255W        W72482  34.217  30.995  10.454
 7256W        W72483  36.153  37.707  13.172
 7257W        W72484  41.471  33.370   3.450
 7258W        W72485   1.209  40.034   0.227
 7259W        W72486   3.851  42.866   1.188
 7260W        W72487   5.362  38.847  10.919
 7261W        W72488  29.606   1.998   4.069
 7262W        W72489   3.490   7.277   4.828
 7263W        W72490   1.305  22.780  11.953
 7264W        W72491  30.926   5.116  12.775
 7265W        W72492  27.161  27.238  11.594
 7266W        W72493   7.847   4.468   1.253
 7267W        W72494   6.826   3.280  12.400
 7268W        W72495  20.803  19.957  12.219
 7269W        W72496  30.631  16.790   4.529
 7270W        W72497  19.960  39.062  14.460
 7271W        W72498  13.552  44.848  11.564
 7272W        W72499  24.974  31.335   3.433
 7273W        W72500  18.632   9.875  10.710
 7274W        W72501  17.266  10.877  11.582
 7275W        W72502   8.119  24.669   0.371
 7276W        W72503   6.242  26.094   2.360
 7277W        W72504  21.323   2.228  12.343
 7278W        W72505  42.920  31.789   0.232
 7279W        W72506  22.124  11.149   1.483
 7280W        W72507   2.698  17.791   1.873
 7281W        W72508   7.907  24.078   2.292
 7282W        W72509  43.356  39.317   4.871
 7283W        W72510  28.729  23.103   4.828
 7284W        W72511  21.966  43.918   2.221
 7285W        W72512  35.330  25.982  10.484
 7286W        W72513  11.957  33.525  14.977
 7287W        W72514  20.383  23.707   2.934
 7288W        W72515  20.248  43.602  12.471
 7289W        W72516  34.128  39.282  13.306
 7290W        W72517  21.336  34.796   1.148
 7291W        W72518   1.148   1.993   0.781
 7292W        W72519  31.788   2.363   3.157
 7293W        W72520  36.102  24.116  14.002
 7294W        W72521  35.738   5.902   0.869
 7295W        W72522  29.697  39.453   0.507
 7296W        W72523   2.965  13.773  13.551
 7297W        W72524  38.566  17.378  11.153
 7298W        W72525  11.402   0.228  14.111
 7299W        W72526  18.640  16.525   0.900
 7300W        W72527  11.288  39.359   3.696
 7301W        W72528  27.379   5.428   0.177
 7302W        W72529   5.506  30.098  12.144
 7303W        W72530  35.665   1.387  12.108
 7304W        W72531  32.423  19.102   1.957
 7305W        W72532  16.438  31.688   2.222
 7306W        W72533  16.090  12.003   4.679
 7307W        W72534  23.384  26.369  12.536
 7308W        W72535   2.032  28.432   1.765
 7309W        W72536  23.533  44.467  13.160
 7310W        W72537  16.293   0.158   4.588
 7311W        W72538  39.376   0.545  10.740
 7312W        W72539   2.301  34.001   4.052
 7313W        W72540  24.372  18.674  11.130
 7314W        W72541  22.785  16.291   4.272
 7315W        W72542  25.530   7.285  13.044
 7316W        W72543  28.494   7.301   0.418
 7317W        W72544  28.614  17.580  10.571
 7318W        W72545  24.428  11.380   0.477
 7319W        W72546   0.221  37.144  13.003
 7320W        W72547  24.140  41.325   3.321
 7321W        W72548  36.082  14.886   0.247
 7322W        W72549  24.010  33.438  11.646
 7323W        W72550  32.752  43.640   1.977
 7324W        W72551  44.163   4.329  10.384
 7325W        W72552  43.491  24.278  12.855
 7326W        W72553  43.999   2.769  12.603
 7327W        W72554  33.342  35.191  12.839
 7328W        W72555  44.214  22.120   3.733
 7329W        W72556  36.289  19.381  14.009
 7330W        W72557  28.117  10.674  10.304
 7331W        W72558  41.471  11.268   3.105
 7332W        W72559  13.031  19.521  10.019
 7333W        W72560   6.540  26.111   1.628
 7334W        W72561  25.495  40.769  13.905
 7335W        W72562  17.101  18.137   2.375
 7336W        W72563  13.866  29.672   4.281
 7337W        W72564  13.799  34.623   1.666
 7338W        W72565  29.328  31.130  12.037
 7339W        W72566  35.109  30.966   4.547
 7340W        W72567  31.782  32.458   2.690
 7341W        W72568  41.861   3.906   0.945
 7342W        W72569  14.869  37.520  12.886
 7343W        W72570  31.458  30.209  11.792
 7344W        W72571  38.430  43.090  12.091
 7345W        W72572  41.062   0.381   3.582
 7346W        W72573   0.021   4.102  11.417
 7347W        W72574  35.505   6.299   4.788
 7348W        W72575  44.914  28.608   3.124
 7349W        W72576  42.907  35.453  12.620
 7350W        W72577   1.283   7.935  12.338
 7351W        W72578  40.321   0.284   2.344
 7352W        W72579  35.084  19.304  14.297
 7353W        W72580  12.484  27.032  14.321
 7354W        W72581  24.972  35.358   3.671
 7355W        W72582  26.764  28.917   3.696
 7356W        W72583  10.910  11.753   0.799
 7357W        W72584   2.498  32.805  12.562
 7358W        W72585  43.567  13.445   3.556
 7359W        W72586  14.257  25.206   3.697
 7360W        W72587  35.266  10.069  10.330
 7361W        W72588  32.499  26.189  12.973
 7362W        W72589   3.317  28.930  13.345
 7363W        W72590   2.363  23.713   2.739
 7364W        W72591  15.321   7.951   1.277
 7365W        W72592   7.012  35.659   1.813
 7366W        W72593  32.712  26.042   4.021
 7367W        W72594   2.780   4.833  14.703
 7368W        W72595  42.973  12.506  14.601
 7369W        W72596  44.515   8.378   0.895
 7370W        W72597   3.553  23.207   3.787
 7371W        W72598   0.752  18.093  11.702
 7372W        W72599  25.495  22.663   2.133
 7373W        W72600   5.970  44.950   4.135
 7374W        W72601  27.949  36.624   9.799
 7375W        W72602  39.876   4.140   2.773
 7376W        W72603  30.947   7.151   0.499
 7377W        W72604   8.114   8.328  12.496
 7378W        W72605   1.977  20.233  11.046
 7379W        W72606  40.577  40.687  11.606
 7380W        W72607  35.108   1.007   1.233
 7381W        W72608   7.965   9.067   2.200
 7382W        W72609  13.953  18.806   3.654
 7383W        W72610  27.566  22.751  14.316
 7384W        W72611  42.307  26.665  12.105
 7385W        W72612  31.101  12.568  11.188
 7386W        W72613  17.494  22.714  10.682
 7387W        W72614  41.667  23.657   4.150
 7388W        W72615  14.834  24.622   1.456
 7389W        W72616   2.232   1.035   4.405
 7390W        W72617  18.618  33.365  14.237
 7391W        W72618  15.627  30.238  13.039
 7392W        W72619   3.906  23.639   1.594
 7393W        W72620  37.572  30.448   3.712
 7394W        W72621  12.387  26.551   3.796
 7395W        W72622  35.979   0.696   3.666
 7396W        W72623  26.791  31.019  13.160
 7397W        W72624  34.395  30.666  14.979
 7398W        W72625  14.613  29.482   3.744
 7399W        W72626  11.891  18.292   2.216
 7400W        W72627  18.691  35.287  12.586
 7401W        W72628  40.412  15.639   4.000
 7402W        W72629  22.599  29.469   0.041
 7403W        W72630  11.430  11.252  14.120
 7404W        W72631  23.923  28.035  12.078
 7405W        W72632  17.781  20.934  14.781
 7406W        W72633  25.810  23.115   2.158
 7407W        W72634  12.986   3.386  10.834
 7408W        W72635  22.078  24.135  11.394
 7409W        W72636  12.567  23.496   0.665
 7410W        W72637  29.416   7.024   2.824
 7411W        W72638  25.560  15.289   2.280
 7412W        W72639  11.680  36.514   2.227
 7413W        W72640  20.004   8.252   0.831
 7414W        W72641  44.001  38.839   1.679
 7415W        W72642  44.740  43.423   0.330
 7416W        W72643  23.016  28.050  11.147
 7417W        W72644  24.656  18.164   3.559
 7418W        W72645  37.993   0.243   0.720
 7419W        W72646  24.995  27.035  11.165
 7420W        W72647  36.818  34.632   2.246
 7421W        W72648  26.220  17.910  12.803
 7422W        W72649   3.233  38.750   3.069
 7423W        W72650  34.956  31.145  14.468
 7424W        W72651   8.181  39.374   3.197
 7425W        W72652  16.782   7.386   0.020
 7426W        W72653  41.191   7.783   1.674
 7427W        W72654  22.462   1.956   3.136
 7428W        W72655  33.962   5.325  14.429
 7429W        W72656  35.630   0.922  14.305
 7430W        W72657   7.956  31.056   2.783
 7431W        W72658  42.984  35.396  14.435
 7432W        W72659   9.166  32.877   1.223
 7433W        W72660  32.459   9.060  11.138
 7434W        W72661  32.925   7.808   3.627
 7435W        W72662   9.754   5.347  14.722
 7436W        W72663  16.597  27.161  12.222
 7437W        W72664  11.691  17.855   1.169
 7438W        W72665  10.873  12.317  13.429
 7439W        W72666  44.449  30.319  11.092
 7440W        W72667  12.829  38.048  12.189
 7441W        W72668   1.271  29.160  14.048
 7442W        W72669  13.382  39.486  13.765
 7443W        W72670   1.177  29.076   3.650
 7444W        W72671  40.440  43.316   3.757
 7445W        W72672  20.379  28.431  11.109
 7446W        W72673  27.204  23.122  12.044
 7447W        W72674  33.152  20.582  13.434
 7448W        W72675  23.581  41.959   1.421
 7449W        W72676   0.682  18.347  14.189
 7450W        W72677  31.449  12.246  12.935
 7451W        W72678  41.794  40.155   3.913
 7452W        W72679  19.548  25.756   2.844
 7453W        W72680  17.482  11.688   0.831
 7454W        W72681  41.303  43.137   3.180
 7455W        W72682   5.399   9.855   4.569
 7456W        W72683  34.499  40.006  12.699
 7457W        W72684  36.577   2.922   0.715
 7458W        W72685  25.458  17.262  10.400
 7459W        W72686  24.390  18.259   1.804
 7460W        W72687  41.047  12.867   4.134
 7461W        W72688  27.547  40.388   0.925
 7462W        W72689  29.580  17.638   3.660
 7463W        W72690  16.176  31.603   1.771
 7464W        W72691  40.621  43.288  12.111
 7465W        W72692  33.032  15.929  11.453
 7466W        W72693   1.234  22.028  13.808
 7467W        W72694  34.352  24.472  11.602
 7468W        W72695  22.505  12.846   0.136
 7469W        W72696  43.704  20.011   0.138
 7470W        W72697  43.470  14.710  14.786
 7471W        W72698  31.587  18.464  12.923
 7472W        W72699  38.096   7.471  10.481
 7473W        W72700  26.694  42.847   2.147
 7474W        W72701  22.247  30.397   2.241
 7475W        W72702   4.414  29.685   4.146
 7476W        W72703   5.325  17.687  12.740
 7477W        W72704  29.740   7.094  12.082
 7478W        W72705   9.694  13.356   2.848
 7479W        W72706  14.049  29.549   0.301
 7480W        W72707  27.562   4.238   3.854
 7481W        W72708  36.615  17.061  11.182
 7482W        W72709   4.150  34.169   3.828
 7483W        W72710  41.336  31.341  12.647
 7484W        W72711  44.606  21.497   5.080
 7485W        W72712  37.035  14.247   1.042
 7486W        W72713  41.864   5.356   0.502
 7487W        W72714  24.653  23.072   2.227
 7488W        W72715   2.487   6.506  11.449
 7489W        W72716  34.033   8.007  14.324
 7490W        W72717   6.298  31.000  12.232
 7491W        W72718  10.179  30.916   1.865
 7492W        W72719  38.163  30.829  14.717
 7493W        W72720   3.683  10.213  14.369
 7494W        W72721   0.838  25.544   2.174
 7495W        W72722  37.746  22.089   1.115
 7496W        W72723  31.556  19.507  13.051
 7497W        W72724  28.368  10.625   1.398
 7498W        W72725  36.985   2.036  13.885
 7499W        W72726  11.927  19.100   0.792
 7500W        W72727  31.557   9.204   2.292
 7501W        W72728  22.180  12.926  12.569
 7502W        W72729  21.079   7.174   4.115
 7503W        W72730  19.745  27.459  10.456
 7504W        W72731  39.617  20.126  12.826
 7505W        W72732  28.553   3.941   2.610
 7506W        W72733  42.699   7.245   2.064
 7507W        W72734  23.052  15.561  14.487
 7508W        W72735   3.372  36.934   0.404
 7509W        W72736  14.467  11.705   4.697
 7510W        W72737  34.122  32.223   1.397
 7511W        W72738  42.594  24.797  13.994
 7512W        W72739  18.638   1.804   3.361
 7513W        W72740  14.113  28.433  11.943
 7514W        W72741  16.187  42.615   3.729
 7515W        W72742  44.437  27.330  14.360
 7516W        W72743   5.144  31.763  11.460
 7517W        W72744  30.569   6.648   1.308
 7518W        W72745   2.708  30.570  11.560
 7519W        W72746  31.163  32.081   3.524
 7520W        W72747  17.816  41.694  10.615
 7521W        W72748  36.818  38.077  13.351
 7522W        W72749  26.042  20.534   1.270
 7523W        W72750  15.725  15.550  14.279
 7524W        W72751  11.669  11.274   1.845
 7525W        W72752  43.706  43.841  14.790
 7526W        W72753  10.826  41.825  12.985
 7527W        W72754  17.226  24.483  13.888
 7528W        W72755  28.142  28.483   0.296
 7529W        W72756  12.696  44.741   3.262
 7530W        W72757  35.919  20.833  10.729
 7531W        W72758  22.799   0.468  13.458
 7532W        W72759  40.947  39.151  14.487
 7533W        W72760  32.448  24.223   0.518
 7534W        W72761  17.196  26.733   4.298
 7535W        W72762  13.345  43.295   3.312
 7536W        W72763  29.096  15.635  12.150
 7537W        W72764   6.067   7.053  13.566
 7538W        W72765  24.960  17.278   4.163
 7539W        W72766  11.915  37.316  11.843
 7540W        W72767  22.039  40.920  10.962
 7541W        W72768  11.370  33.667   2.683
 7542W        W72769  24.621  15.089  11.251
 7543W        W72770  23.531  13.011  11.580
 7544W        W72771  34.374   1.677  10.667
 7545W        W72772  19.136   4.917  13.326
 7546W        W72773  39.416  10.163  10.667
 7547W        W72774  11.144   5.206  11.143
 7548W        W72775   8.516  30.561  10.641
 7549W        W72776  22.238  23.217   3.759
 7550W        W72777  15.730  18.116   0.017
 7551W        W72778  40.711  28.673  12.332
 7552W        W72779  37.356  39.437  11.597
 7553W        W72780  44.688  12.696  10.655
 7554W        W72781  38.224  24.873  13.371
 7555W        W72782  18.711  12.199   3.679
 7556W        W72783  11.785  40.349   3.061
 7557W        W72784  11.862  35.538   0.952
 7558W        W72785  12.999   4.851   1.405
 7559W        W72786  26.254   8.635  12.692
 7560W        W72787  32.463  41.733   4.152
 7561W        W72788   0.879  21.314  11.589
 7562W        W72789   2.580   3.502  10.274
 7563W        W72790   7.259   7.287   2.259
 7564W        W72791  39.581  14.696  12.977
 7565W        W72792   4.257  44.580  12.006
 7566W        W72793  34.551  10.698   4.492
 7567W        W72794  31.841  25.812  14.313
 7568W        W72795   0.723  37.580   3.676
 7569W        W72796   2.534  25.075  11.639
 7570W        W72797  27.300  24.548   3.738
 7571W        W72798  10.735  12.518  14.536
 7572W        W72799  28.179  16.616   2.226
 7573W        W72800  44.318  35.056  13.897
 7574W        W72801  10.929  38.819   0.297
 7575W        W72802  27.511   0.272  11.467
 7576W        W72803  14.579  30.710  10.768
 7577W        W72804   5.735  29.107   4.098
 7578W        W72805  12.350  42.198   3.290
 7579W        W72806   8.472  22.025  12.537
 7580W        W72807  11.230  29.479  12.230
 7581W        W72808   2.525  26.082   0.166
 7582W        W72809  20.807  22.028   3.370
 7583W        W72810   1.041  13.111  11.582
 7584W        W72811  11.337  10.393  12.027
 7585W        W72812  35.577  15.979  13.858
 7586W        W72813   5.976  25.168   2.659
 7587W        W72814  26.541  13.621  12.620
 7588W        W72815  20.684  44.841   3.051
 7589W        W72816  36.557  13.950  11.657
 7590W        W72817  43.035   3.361   4.615
 7591W        W72818  41.043   3.701   1.188
 7592W        W72819   4.146  42.072  13.749
 7593W        W72820  19.566  21.763  12.903
 7594W        W72821  42.816   9.336  10.411
 7595W        W72822  34.826  19.589  11.810
 7596W        W72823  36.867  26.505   1.809
 7597W        W72824  40.025   1.531  10.778
 7598W        W72825  16.279  16.089   2.723
 7599W        W72826  12.309  44.314   2.395
 7600W        W72827  18.327  11.338   0.698
 7601W        W72828  24.012  43.918   0.455
 7602W        W72829  33.691  28.082   3.115
 7603W        W72830   0.990   4.251  10.599
 7604W        W72831  29.893   1.562   0.410
 7605W        W72832  31.398  31.083  11.212
 7606W        W72833  32.684  16.812  10.308
 7607W        W72834  38.311  40.827  13.500
 7608W        W72835   8.932  12.574   0.929
 7609W        W72836  39.203  36.620  13.982
 7610W        W72837  39.504  10.159  14.057
 7611W        W72838  38.982  40.498   1.327
 7612W        W72839   8.881   6.117  10.631
 7613W        W72840  40.407   0.884   3.593
 7614W        W72841  27.713  12.372   2.350
 7615W        W72842  35.061  39.770   0.333
 7616W        W72843  43.341   5.505  13.969
 7617W        W72844   6.893  22.133   3.298
 7618W        W72845  19.082   0.749  13.786
 7619W        W72846  32.403   4.390  11.521
 7620W        W72847   6.434  13.274  12.792
 7621W        W72848   1.302  33.614  12.844
 7622W        W72849  21.142   6.755   0.955
 7623W        W72850  28.623  11.853   2.099
 7624W        W72851  16.042  43.854  14.353
 7625W        W72852  31.459   1.516  13.091
 7626W        W72853  25.869  32.500  12.332
 7627W        W72854   4.286  26.963   1.215
 7628W        W72855  33.253  19.369  11.128
 7629W        W72856  12.411  19.006  12.771
 7630W        W72857   5.351  27.655   4.589
 7631W        W72858  32.004  35.253   0.754
 7632W        W72859   9.801  11.229   2.403
 7633W        W72860  19.190  28.890   3.456
 7634W        W72861  26.422  38.016  12.516
 7635W        W72862  27.801  27.007  10.469
 7636W        W72863  29.659   4.252  14.378
 7637W        W72864  12.857  10.168  12.900
 7638W        W72865  15.034   1.753   0.844
 7639W        W72866  42.564  31.118   5.184
 7640W        W72867  25.677   6.780   3.269
 7641W        W72868   5.054  38.019  13.525
 7642W        W72869  34.445   5.849  12.840
 7643W        W72870  21.236  38.328  12.370
 7644W        W72871  36.701  25.001   1.326
 7645W        W72872  31.639  24.865  13.348
 7646W        W72873  25.516   6.742   0.294
 7647W        W72874  39.857  29.731  11.174
 7648W        W72875   7.215  21.260   2.314
 7649W        W72876  10.227   5.329   2.227
 7650W        W72877  33.626   4.393   1.809
 7651W        W72878  40.238  39.873   3.296
 7652W        W72879  39.841   8.856   4.794
 7653W        W72880  32.067  16.242  12.820
 7654W        W72881  10.604  26.207  14.956
 7655W        W72882  38.641   4.861   0.466
 7656W        W72883  37.788  30.977   0.963
 7657W        W72884  13.351  35.292   4.988
 7658W        W72885  16.817  19.290  13.045
 7659W        W72886  32.360  22.734   3.217
 7660W        W72887  37.968   2.521   3.407
 7661W        W72888  26.773  42.897  13.886
 7662W        W72889  13.357  34.903  11.618
 7663W        W72890  15.011  44.563  11.133
 7664W        W72891  42.437  20.503  12.999
 7665W        W72892  30.932  36.102   3.787
 7666W        W72893  31.633   1.697  11.970
 7667W        W72894   7.279  36.599   3.143
 7668W        W72895  42.458  35.847  14.956
 7669W        W72896  35.779  24.268  12.457
 7670W        W72897  41.532  21.726   4.418
 7671W        W72898   5.936  28.218   2.234
 7672W        W72899   5.260  40.113  14.128
 7673W        W72900  18.629   5.279  12.013
 7674W        W72901  13.405  10.217  10.024
 7675W        W72902  40.907  39.618  13.507
 7676W        W72903   0.882  38.254  10.756
 7677W        W72904  24.233  28.575   0.965
 7678W        W72905  36.085  13.251  12.823
 7679W        W72906  19.725  11.425  10.440
 7680W        W72907  26.888  11.525   0.918
 7681W        W72908   7.180  44.189   3.645
 7682W        W72909  18.511  31.411  11.606
 7683W        W72910  20.682   9.235   1.872
 7684W        W72911   9.750  44.075  12.976
 7685W        W72912  23.267   4.693  12.519
 7686W        W72913  10.252  16.034  13.195
 7687W        W72914  35.097  39.064   1.374
 7688W        W72915   0.500  15.296   3.186
 7689W        W72916  24.131  22.114   2.696
 7690W        W72917  11.071  33.908   0.805
 7691W        W72918  43.367  28.453   9.728
 7692W        W72919  43.756  21.262  11.938
 7693W        W72920  38.509  19.174   1.034
 7694W        W72921  39.349  44.841  13.338
 7695W        W72922  14.690  23.157   4.097
 7696W        W72923  31.281  22.588   0.470
 7697W        W72924  33.341  23.591   1.439
 7698W        W72925  15.301  16.771   0.944
 7699W        W72926  44.879  28.640   1.483
 7700W        W72927  21.226   7.277  14.839
 7701W        W72928  30.322  26.150  14.484
 7702W        W72929   5.135  37.081   1.332
 7703W        W72930  17.288   1.581   2.192
 7704W        W72931  44.430  19.371   3.358
 7705W        W72932  38.559   1.414  10.643
 7706W        W72933  33.279  38.091   2.323
 7707W        W72934  37.107  36.001  14.829
 7708W        W72935   0.205  13.251   1.768
 7709W        W72936  40.718   7.937   3.263
 7710W        W72937  23.521   0.869  14.570
 7711W        W72938  27.705  24.222   2.441
 7712W        W72939  21.506  22.093  11.391
 7713W        W72940   9.322  25.998  13.895
 7714W        W72941  14.712  19.496   4.134
 7715W        W72942  34.373  40.358  10.946
 7716W        W72943  24.745  20.524  11.557
 7717W        W72944   7.368  19.337   4.600
 7718W        W72945   7.011  33.994   0.456
 7719W        W72946  33.537  31.294   1.155
 7720W        W72947  13.161   5.480   4.704
 7721W        W72948   8.240  27.582   0.081
 7722W        W72949  28.116  17.369  14.319
 7723W        W72950  25.626  10.882  13.487
 7724W        W72951  38.770  37.456  14.270
 7725W        W72952  36.008   6.157  14.560
 7726W        W72953  18.673   4.942   1.874
 7727W        W72954  25.591   3.229   1.137
 7728W        W72955  20.109  14.252   3.672
 7729W        W72956  21.073  36.354  11.134
 7730W        W72957  20.208   7.381   4.622
 7731W        W72958   6.160  23.674   2.246
 7732W        W72959  27.235  31.444   4.026
 7733W        W72960  18.779  20.793   4.583
 7734W        W72961  16.069   4.882   1.370
 7735W        W72962  14.635  18.759   0.354
 7736W        W72963  16.364  11.451   2.259
 7737W        W72964  31.906  18.228   3.431
 7738W        W72965  39.168  44.308   3.043
 7739W        W72966  39.456  40.834  10.648
 7740W        W72967  23.634  22.796  13.059
 7741W        W72968   1.734   6.002  14.847
 7742W        W72969   2.764  38.855  10.906
 7743W        W72970  42.451  34.688  12.613
 7744W        W72971  32.613  38.260   5.501
 7745W        W72972  35.578  14.124   0.317
 7746W        W72973  43.801  23.102   1.709
 7747W        W72974  28.465  22.272   3.889
 7748W        W72975   1.303  32.049   1.644
 7749W        W72976  29.873  17.829   1.482
 7750W        W72977   5.738  20.155  12.929
 7751W        W72978  42.754   5.657   0.393
 7752W        W72979   1.554   3.498  13.049
 7753W        W72980  19.174  18.016   2.251
 7754W        W72981  31.944  16.290   2.755
 7755W        W72982  18.149  43.545   2.424
 7756W        W72983   3.957   3.303   1.349
 7757W        W72984  31.413   5.313  10.770
 7758W        W72985   1.045  19.028   2.799
 7759W        W72986  27.656   6.873  13.383
 7760W        W72987  31.082  30.420   3.416
 7761W        W72988   8.258  36.953   0.508
 7762W        W72989  24.993  16.156   2.262
 7763W        W72990   7.589   1.933  12.090
 7764W        W72991  11.337  34.213   3.793
 7765W        W72992  25.479  36.672   4.712
 7766W        W72993   3.506   9.809   4.187
 7767W        W72994  31.964  23.494   3.746
 7768W        W72995  31.406  23.437   0.824
 7769W        W72996   3.471   4.173  14.996
 7770W        W72997  35.088  25.102   4.101
 7771W        W72998  38.001  37.987   0.365
 7772W        W72999   3.839  31.434   3.559
 7773W        W73000  28.043  35.147  13.899
 7774W        W73001  43.870  10.472  12.583
 7775W        W73002   9.861   8.636  13.966
 7776W        W73003  14.786  37.176   0.868
 7777W        W73004  12.385  38.614   2.355
 7778W        W73005  17.514   1.021   1.209
 7779W        W73006  32.318  43.498  13.164
 7780W        W73007  27.508  22.681  11.988
 7781W        W73008  34.021  10.662  11.285
 7782W        W73009  26.695  33.032   1.305
 7783W        W73010  32.014  32.527  14.867
 7784W        W73011  21.787  11.048  13.434
 7785W        W73012   1.505   6.763   0.310
 7786W        W73013   9.112  30.494  12.618
 7787W        W73014  31.247  44.576  13.598
 7788W        W73015   7.953  28.508  11.669
 7789W        W73016  13.090   7.132  11.586
 7790W        W73017  33.116  25.249   0.810
 7791W        W73018  24.901  21.722  14.939
 7792W        W73019  11.901  34.328   3.094
 7793W        W73020  25.480  21.255  11.429
 7794W        W73021   1.277   7.842  14.938
 7795W        W73022  28.392  26.121   1.334
 7796W        W73023  42.447   3.335  12.320
 7797W        W73024  35.556  20.131   2.172
 7798W        W73025  19.027  25.474  11.462
 7799W        W73026   9.788  20.505  14.851
 7800W        W73027   5.815  32.596  13.965
 7801W        W73028  38.598  43.853  11.563
 7802W        W73029  39.950  31.599  10.556
 7803W        W73030   3.696  19.611  14.174
 7804W        W73031  17.280  33.413   3.557
 7805W        W73032  17.895  16.205   2.143
 7806W        W73033  29.378  23.463   3.713
 7807W        W73034  31.361  10.200   2.435
 7808W        W73035  44.349  38.625   0.726
 7809W        W73036  29.695   6.020  14.772
 7810W        W73037  43.678  16.247   2.833
 7811W        W73038  22.743  37.095  12.038
 7812W        W73039   1.153  26.435  11.543
 7813W        W73040  28.060  40.765  11.520
 7814W        W73041   9.263  12.695   0.261
 7815W        W73042   3.451   6.966  14.369
 7816W        W73043   8.771  15.627  13.544
 7817W        W73044  18.044  40.246  12.946
 7818W        W73045  24.071  20.457  12.718
 7819W        W73046  18.500   6.464  12.423
 7820W        W73047  14.178   6.760   0.690
 7821W        W73048   6.858  42.820  11.223
 7822W        W73049  33.954  31.884  10.745
 7823W        W73050   4.663   4.273   0.755
 7824W        W73051   2.996  27.163   1.780
 7825W        W73052  40.373  44.805  13.498
 7826W        W73053   6.968  36.421  14.787
 7827W        W73054   9.022  28.026   0.926
 7828W        W73055  35.648   7.440   3.258
 7829W        W73056   6.790   6.873   4.559
 7830W        W73057  30.312  29.004  10.524
 7831W        W73058   5.446  26.335  12.704
 7832W        W73059  37.064  17.755   2.260
 7833W        W73060  25.282  27.810   2.886
 7834W        W73061  12.631  23.497   2.853
 7835W        W73062  17.625  24.426  12.944
 7836W        W73063   1.760  22.215   0.354
 7837W        W73064  20.312  10.299   3.003
 7838W        W73065  15.490  14.365   2.007
 7839W        W73066  14.811   1.717   4.150
 7840W        W73067  33.357  30.447  11.599
 7841W        W73068  15.791  44.481   1.973
 7842W        W73069   7.898  28.269  12.480
 7843W        W73070   1.845  11.170  10.635
 7844W        W73071   2.971  14.313   2.173
 7845W        W73072  11.797  33.454  12.909
 7846W        W73073   5.706  13.662  14.928
 7847W        W73074   3.814  31.883  10.350
 7848W        W73075  17.889   8.382   4.096
 7849W        W73076  20.048  36.022   2.210
 7850W        W73077  26.197  43.532  12.424
 7851W        W73078  24.518  20.623  12.498
 7852W        W73079  14.070   5.727   3.232
 7853W        W73080  44.465  17.767  11.560
 7854W        W73081  35.406  14.626  11.927
 7855W        W73082  42.559   1.323  12.514
 7856W        W73083  32.510  16.856   1.648
 7857W        W73084  28.729   2.272  12.115
 7858W        W73085  19.258  29.973   3.288
 7859W        W73086   8.263  40.894  13.847
 7860W        W73087  31.099  41.974  13.619
 7861W        W73088  18.750  40.133  11.116
 7862W        W73089   6.719  43.785  12.634
 7863W        W73090  41.495  24.030  14.992
 7864W        W73091   3.908  28.733  14.781
 7865W        W73092  38.579  30.348  12.736
 7866W        W73093  39.563   7.118   4.562
 7867W        W73094  44.905  16.145   0.776
 7868W        W73095  20.070  13.127  11.221
 7869W        W73096  29.746  34.399  12.062
 7870W        W73097  42.991  21.708  11.585
 7871W        W73098  37.581  23.236  14.171
 7872W        W73099  36.162   4.430  11.581
 7873W        W73100  33.290  18.177  12.489
 7874W        W73101  17.394   8.205  13.450
 7875W        W73102  16.637  18.749   2.537
 7876W        W73103  18.772   6.292   2.833
 7877W        W73104  33.513  38.200   0.050
 7878W        W73105   3.211  20.889   1.763
 7879W        W73106   1.184  35.361  14.432
 7880W        W73107   9.329  43.803  11.421
 7881W        W73108  37.488  29.355   2.322
 7882W        W73109  31.376  41.854  11.181
 7883W        W73110  41.875  13.753   3.993
 7884W        W73111  40.791  13.733  13.111
 7885W        W73112  38.583   4.649   2.787
 7886W        W73113   2.733  14.226  10.739
 7887W        W73114   8.868   0.166  11.507
 7888W        W73115   1.350   5.085   3.519
 7889W        W73116  15.360   1.977   2.411
 7890W        W73117   4.418  32.776   0.826
 7891W        W73118  36.869  43.352   0.241
 7892W        W73119  43.047  22.505   2.244
 7893W        W73120   8.897  18.255  13.174
 7894W        W73121  42.626   6.191   4.586
 7895W        W73122   9.141  36.490  12.996
 7896W        W73123  35.407  14.690   4.728
 7897W        W73124  37.397   6.768  10.963
 7898W        W73125  36.543  20.068   1.854
 7899W        W73126   8.790  25.831  13.562
 7900W        W73127  19.109  42.313  14.820
 7901W        W73128  38.321  35.467  14.389
 7902W        W73129  16.706  32.072   2.711
 7903W        W73130  34.265  34.961  12.894
 7904W        W73131  33.492  18.713  11.899
 7905W        W73132   7.835   9.820  14.055
 7906W        W73133  38.860  37.599   3.289
 7907W        W73134  36.966   9.621  11.836
 7908W        W73135  12.316  37.016  12.043
 7909W        W73136  16.031  38.070   4.267
 7910W        W73137  36.551  19.054   0.809
 7911W        W73138  25.110  20.573  13.956
 7912W        W73139  35.508  38.401  14.041
 7913W        W73140  24.412   6.748   3.612
 7914W        W73141  26.269   1.627   1.355
 7915W        W73142  40.332   2.934   1.343
 7916W        W73143  18.332   2.785  13.897
 7917W        W73144  30.976  12.211   2.329
 7918W        W73145   5.394  11.261  11.499
 7919W        W73146  38.819  24.410  10.174
 7920W        W73147  26.859  21.135   1.070
 7921W        W73148  29.129  14.914  12.741
 7922W        W73149  23.251  29.136  10.693
 7923W        W73150  40.827  18.061  12.690
 7924W        W73151  30.751  20.129  13.888
 7925W        W73152   1.326  17.720  14.236
 7926W        W73153  26.628   2.735  12.631
 7927W        W73154   2.286  35.490  12.988
 7928W        W73155  15.586   2.861  11.218
 7929W        W73156   8.705  22.404  13.971
 7930W        W73157   2.350   3.964  14.709
 7931W        W73158  33.042  29.401   3.244
 7932W        W73159  17.640  26.303  14.488
 7933W        W73160  25.803  26.264   1.359
 7934W        W73161   5.844  24.565  11.134
 7935W        W73162  32.664  36.232  14.935
 7936W        W73163  12.741  35.460   5.097
 7937W        W73164  32.929   0.804   3.077
 7938W        W73165  36.452  24.509   1.281
 7939W        W73166  21.315  26.055   0.370
 7940W        W73167   5.732   6.331   4.204
 7941W        W73168   3.506   2.796  11.602
 7942W        W73169  20.959   2.420   2.565
 7943W        W73170  11.010  34.546   3.099
 7944W        W73171  34.018  28.843   3.611
 7945W        W73172  21.084  31.080  10.365
 7946W        W73173   2.414  10.467  10.831
 7947W        W73174  35.952  19.208  11.956
 7948W        W73175   6.829  38.338   1.409
 7949W        W73176   3.451  22.240  14.289
 7950W        W73177  30.540  10.779  12.916
 7951W        W73178  33.218  28.819   4.533
 7952W        W73179  21.377  42.696   5.106
 7953W        W73180  37.914  24.536  13.141
 7954W        W73181  42.447   1.583   3.787
 7955W        W73182  44.750  31.405   1.302
 7956W        W73183  10.372  40.798   0.403
 7957W        W73184   3.235  32.869  11.046
 7958W        W73185  18.780   9.418  14.794
 7959W        W73186  24.466  30.323   3.606
 7960W        W73187   9.048  25.614   4.648
 7961W        W73188  33.390  40.369  10.782
 7962W        W73189  42.064   4.464  12.937
 7963W        W73190  19.369  26.375  13.111
 7964W        W73191  11.506  16.071   9.750
 7965W        W73192  20.441   3.582   4.884
 7966W        W73193  42.674  22.744   1.943
 7967W        W73194  13.644  33.181   2.123
 7968W        W73195   8.644  32.297   4.084
 7969W        W73196  17.545  37.332  13.549
 7970W        W73197  34.846   3.969  14.938
 7971W        W73198   5.816  40.557  14.437
 7972W        W73199  15.724  34.688  10.676
 7973W        W73200  28.580  44.037   0.972
 7974W        W73201  12.455  27.738  12.545
 7975W        W73202  26.290  15.298  10.534
 7976W        W73203  26.934  21.047  14.357
 7977W        W73204  22.675  24.427  11.598
 7978W        W73205  20.814   1.364   1.273
 7979W        W73206  39.439  26.546   1.875
 7980W        W73207  33.244  26.611   0.185
 7981W        W73208   8.643  34.484   5.184
 7982W        W73209   4.834  32.924   2.237
 7983W        W73210  15.213  41.926  13.843
 7984W        W73211  14.236  32.413  14.433
 7985W        W73212  12.751  31.149   1.515
 7986W        W73213  29.435  13.033  12.292
 7987W        W73214  20.793  21.134  10.839
 7988W        W73215   2.148   0.291  11.885
 7989W        W73216  13.460  25.732  12.941
 7990W        W73217  31.067  40.782   0.830
 7991W        W73218   3.721   9.350  11.349
 7992W        W73219   5.970  10.984  10.617
 7993W        W73220  14.028   6.235   0.914
 7994W        W73221   9.729  32.063   3.582
 7995W        W73222   4.536  10.180  10.142
 7996W        W73223  34.299  19.830  12.945
 7997W        W73224  43.778  12.692  14.281
 7998W        W73225  23.437  14.010  10.762
 7999W        W73226  34.852  35.500   2.367
 8000W        W73227  39.803   2.718   3.299
 8001W        W73228  36.097   8.642   1.280
 8002W        W73229   0.219   2.455  14.377
 8003W        W73230  23.455  28.242  12.369
 8004W        W73231  27.900  13.090  12.851
 8005W        W73232   3.148  21.021   1.283
 8006W        W73233   8.507  43.885  10.652
 8007W        W73234  37.572  16.882  13.486
 8008W        W73235  22.777  21.022  11.917
 8009W        W73236  33.541   9.946   0.892
 8010W        W73237  37.088   2.068   2.139
 8011W        W73238  34.036  43.957   3.948
 8012W        W73239  25.733  30.235  12.912
 8013W        W73240   9.754   1.446   2.592
 8014W        W73241  17.171  11.473  11.235
 8015W        W73242  31.382  19.662  14.896
 8016W        W73243  17.096  11.939  13.816
 8017W        W73244  23.764  15.790   0.817
 8018W        W73245  20.775  10.691  14.380
 8019W        W73246   0.531   9.678   4.322
 8020W        W73247  41.388  22.663  11.969
 8021W        W73248   8.313  34.372  13.964
 8022W        W73249  37.531  33.324  10.717
 8023W        W73250   5.207  38.468   0.383
 8024W        W73251  28.168   0.647  10.982
 8025W        W73252  13.156  17.316   1.822
 8026W        W73253  15.705  15.428   5.437
 8027W        W73254  19.782  19.128  14.663
 8028W        W73255  20.010  19.581  12.553
 8029W        W73256   2.983   3.333   3.737
 8030W        W73257  24.733  27.094  12.408
 8031W        W73258  14.266  31.639  12.481
 8032W        W73259  27.493  24.408   4.195
 8033W        W73260  21.469  28.997  14.465
 8034W        W73261  30.065  16.318  13.919
 8035W        W73262  34.922  11.826  13.312
 8036W        W73263  25.125  33.615   3.600
 8037W        W73264  41.496  35.592  11.259
 8038W        W73265  34.870   1.384  12.440
 8039W        W73266  21.188  15.622  10.581
 8040W        W73267  40.312  43.509  12.456
 8041W        W73268  18.774   8.291   0.294
 8042W        W73269   7.062  20.214   2.208
 8043W        W73270  41.133  33.705  11.616
 8044W        W73271  19.087  25.002   0.411
 8045W        W73272  13.144  38.074   4.524
 8046W        W73273  35.068  44.242   1.861
 8047W        W73274  27.412  44.274  12.183
 8048W        W73275   2.982  39.312  14.379
 8049W        W73276  35.271  34.932   0.877
 8050W        W73277  32.269  17.361   5.043
 8051W        W73278  13.326  20.175   4.841
 8052W        W73279  28.049   6.474  14.085
 8053W        W73280  24.947   8.631   0.437
 8054W        W73281  18.345  34.934  14.941
 8055W        W73282  31.029  17.719   4.344
 8056W        W73283  12.566  22.652   0.266
 8057W        W73284   1.888  22.557   4.638
 8058W        W73285   7.847  41.233   3.735
 8059W        W73286  35.633  28.545  12.858
 8060W        W73287  20.767  28.448  14.564
 8061W        W73288  42.063  27.814  13.367
 8062W        W73289  11.328   6.189   1.236
 8063W        W73290   0.988  21.738  11.329
 8064W        W73291  14.585  30.142  10.683
 8065W        W73292  33.892   3.411   3.708
 8066W        W73293  34.473   1.863   3.178
 8067W        W73294  12.019  41.352  12.241
 8068W        W73295   5.960  36.492  14.891
 8069W        W73296  37.515  33.114  10.231
 8070W        W73297  13.404  15.277  11.720
 8071W        W73298  19.999  24.002   4.603
 8072W        W73299  40.610  15.261   4.395
 8073W        W73300  39.897   4.672  13.060
 8074W        W73301  38.822  20.488   3.158
 8075W        W73302  27.159  35.820  12.398
 8076W        W73303   7.894  24.760  14.861
 8077W        W73304   4.575  24.620   2.693
 8078W        W73305  17.113  42.437   0.798
 8079W        W73306  19.336  23.032   0.285
 8080W        W73307   4.593  15.261   3.539
 8081W        W73308  41.850  15.595  14.035
 8082W        W73309  35.492  20.561   2.994
 8083W        W73310  17.360  32.062   1.254
 8084W        W73311  31.848  37.279   0.957
 8085W        W73312   5.880  31.107  14.779
 8086W        W73313   6.671  22.761  11.720
 8087W        W73314  31.177  25.778  13.286
 8088W        W73315  12.510  40.604   0.936
 8089W        W73316  10.221  37.848   1.334
 8090W        W73317  23.144   3.439  14.377
 8091W        W73318  17.815  14.002  11.339
 8092W        W73319  39.830  34.173  11.329
 8093W        W73320  21.643  43.458   2.272
 8094W        W73321  20.056  10.598  13.017
 8095W        W73322  12.203  38.628  11.224
 8096W        W73323  34.466   4.944   4.492
 8097W        W73324  39.399  22.348  14.804
 8098W        W73325  32.614  32.165  12.959
 8099W        W73326  38.602  17.116  13.398
 8100W        W73327  44.696  41.637  11.673
 8101W        W73328  11.024  44.326   1.497
 8102W        W73329  15.733  10.295  13.461
 8103W        W73330  44.955  41.845   0.555
 8104W        W73331  43.530  34.030   1.874
 8105W        W73332   4.336   5.167   2.225
 8106W        W73333  35.360   9.232  10.818
 8107W        W73334   8.697   9.295  12.190
 8108W        W73335  27.011  38.364  11.860
 8109W        W73336   7.221  41.003   0.368
 8110W        W73337  26.747  22.326   3.737
 8111W        W73338   0.316  14.083  12.030
 8112W        W73339  26.994  26.653   3.279
 8113W        W73340   1.600  36.320   2.862
 8114W        W73341  39.936   0.641  13.980
 8115W        W73342   7.886  13.181  13.206
 8116W        W73343  40.232  41.807  12.491
 8117W        W73344   2.403   9.370   1.419
 8118W        W73345   7.318  16.565  10.343
 8119W        W73346  39.956  27.504  13.727
 8120W        W73347  17.099  27.981  11.571
 8121W        W73348  11.682   0.864  11.209
 8122W        W73349  21.088  28.624  13.603
 8123W        W73350  14.147   1.774   4.635
 8124W        W73351  24.137  14.866   1.231
 8125W        W73352  40.808  39.062   2.129
 8126W        W73353  37.763  25.686  13.433
 8127W        W73354  22.735  24.600   4.390
 8128W        W73355  37.963  33.121   3.125
 8129W        W73356  16.981  41.757   4.486
 8130W        W73357   8.020  19.586   0.545
 8131W        W73358  34.943  19.100  13.050
 8132W        W73359  18.819  23.176  10.574
 8133W        W73360  20.753  32.662  12.489
 8134W        W73361  36.550  35.699   3.197
 8135W        W73362  17.059  37.883  10.725
 8136W        W73363   8.839   3.044   4.445
 8137W        W73364  29.667  41.566  14.083
 8138W        W73365   5.291  41.837   1.397
 8139W        W73366  44.648  21.172   4.189
 8140W        W73367  25.053  41.996  10.750
 8141W        W73368  33.333  13.120   3.624
 8142W        W73369  15.533   2.185   4.240
 8143W        W73370  38.595  28.684  12.113
 8144W        W73371  27.191  19.161   2.871
 8145W        W73372  23.732  26.841  12.393
 8146W        W73373   0.079  22.410   3.570
 8147W        W73374  22.785  43.131  10.329
 8148W        W73375   5.266  26.237   9.751
 8149W        W73376  31.450  15.907  13.819
 8150W        W73377  10.769  38.988  11.552
 8151W        W73378   5.934  25.529   1.207
 8152W        W73379  17.683  38.284  12.474
 8153W        W73380  27.499  30.644  14.111
 8154W        W73381  35.977   1.520  10.781
 8155W        W73382  28.243  12.519   4.536
 8156W        W73383  26.013  34.560   4.814
 8157W        W73384  35.074   2.960  11.483
 8158W        W73385  40.572   2.883  11.956
 8159W        W73386  17.008  18.483  13.381
 8160W        W73387  37.392  14.337   4.629
 8161W        W73388   8.664  40.572  14.881
 8162W        W73389  31.313  41.508  10.774
 8163W        W73390  36.290  28.153   2.483
 8164W        W73391  11.352   9.131  12.555
 8165W        W73392   3.817   9.647   1.445
 8166W        W73393  40.463   6.410   1.299
 8167W        W73394  16.190  28.350  10.736
 8168W        W73395  27.506  27.057   9.481
 8169W        W73396  28.739  22.011   3.080
 8170W        W73397   8.654  29.862   2.731
 8171W        W73398   0.818  41.145  14.811
 8172W        W73399   4.402  32.403  11.645
 8173W        W73400  13.333   9.899   0.884
 8174W        W73401  40.246   4.722  14.377
 8175W        W73402   6.446  15.256  12.031
 8176W        W73403  38.503  26.371  12.503
 8177W        W73404  23.014  35.565   0.329
 8178W        W73405  41.713  26.269  12.511
 8179W        W73406  16.471  16.620   3.179
 8180W        W73407   4.244  27.379  14.733
 8181W        W73408  37.348  43.219   0.664
 8182W        W73409  17.034  29.063  14.320
 8183W        W73410  26.405  39.886   1.389
 8184W        W73411  18.227  39.942  12.188
 8185W        W73412   2.716  33.000  13.822
 8186W        W73413  41.891  24.806  13.459
 8187W        W73414   5.206  17.807   0.506
 8188W        W73415   4.433  34.865  12.669
 8189W        W73416  34.593   6.457  12.007
 8190W        W73417  27.633  17.723   3.916
 8191W        W73418   3.512  24.500   0.356
 8192W        W73419  15.418  20.238  11.073
 8193W        W73420   6.660  33.621   4.617
 8194W        W73421  31.455   7.869  14.286
 8195W        W73422  27.468  35.950   4.331
 8196W        W73423   8.035  22.665   1.004
 8197W        W73424  42.726  43.748  14.289
 8198W        W73425   3.288  37.018   1.274
 8199W        W73426  38.468  22.259   1.294
 8200W        W73427  17.762  30.938   1.718
 8201W        W73428  37.871   0.730   4.641
 8202W        W73429  30.469  31.370   4.124
 8203W        W73430  35.049  39.636  13.457
 8204W        W73431  11.839  13.571  14.957
 8205W        W73432  14.849   3.265  11.080
 8206W        W73433   0.363  44.757  11.488
 8207W        W73434   3.212  24.603   2.845
 8208W        W73435  15.170   9.291  11.177
 8209W        W73436  19.012   3.954  11.185
 8210W        W73437  25.970  41.780   1.176
 8211W        W73438  39.872  16.349   4.172
 8212W        W73439  40.744  14.728   1.807
 8213W        W73440  37.676   8.528  13.174
 8214W        W73441  11.302  35.371  11.786
 8215W        W73442  15.001   4.927  14.257
 8216W        W73443  30.928   1.281   1.975
 8217W        W73444  24.985  10.205  14.942
 8218W        W73445  36.899  27.459  13.749
 8219W        W73446  35.570  26.105   0.310
 8220W        W73447  18.171  30.386  14.023
 8221W        W73448   0.050  11.684   2.151
 8222W        W73449  38.820  30.563   4.553
 8223W        W73450  39.358  13.687  11.083
 8224W        W73451  15.137  38.974  12.103
 8225W        W73452  31.195  44.727  11.877
 8226W        W73453  16.346  18.847   0.904
 8227W        W73454   6.026  25.633   2.415
 8228W        W73455  19.109  31.476  10.947
 8229W        W73456   3.751  17.191   3.268
 8230W        W73457  21.137  25.136   4.588
 8231W        W73458  44.447  44.755   1.368
 8232W        W73459  25.664  33.144   3.154
 8233W        W73460  31.362   5.772  13.755
 8234W        W73461  11.531  42.492   3.359
 8235W        W73462  27.574   0.730  13.057
 8236W        W73463  25.811  44.259  14.434
 8237W        W73464  41.843   1.836  13.551
 8238W        W73465  44.462   8.599   1.389
 8239W        W73466  30.995  36.052  10.398
 8240W        W73467  34.103  24.031  11.564
 8241W        W73468  26.005   5.204   3.681
 8242W        W73469   7.642  31.350   3.829
 8243W        W73470   3.715   6.955   0.828
 8244W        W73471  34.165  40.508   4.879
 8245W        W73472   9.357  40.942   1.821
 8246W        W73473   9.242  32.037  12.383
 8247W        W73474  26.711  30.151   4.277
 8248W        W73475   6.973   1.426   2.683
 8249W        W73476  27.419  33.069   0.259
 8250W        W73477  26.344  22.654  14.048
 8251W        W73478  23.222  36.544   3.354
 8252W        W73479   4.336  20.789  12.911
 8253W        W73480  11.575  10.657   0.758
 8254W        W73481  22.746   9.237   4.911
 8255W        W73482  42.043  14.162   2.693
 8256W        W73483  37.648  33.448  11.208
 8257W        W73484  14.138   8.354   0.242
 8258W        W73485  32.832  39.534  13.857
 8259W        W73486  20.222  38.892   1.396
 8260W        W73487  17.584  21.238  13.877
 8261W        W73488   7.671  22.698  12.035
 8262W        W73489  36.373  22.490  13.625
 8263W        W73490  21.620  30.332  14.629
 8264W        W73491  24.403   3.934  14.001
 8265W        W73492  26.034  27.107   1.804
 8266W        W73493  41.206  20.834  12.521
 8267W        W73494  38.212  14.437   1.239
 8268W        W73495   8.962   4.243  12.431
 8269W        W73496  18.234  35.866  11.642
 8270W        W73497   3.300  37.301   0.831
 8271W        W73498  25.273  28.390  11.138
 8272W        W73499   6.981   3.688  13.598
 8273W        W73500  12.151   1.020  10.426
 8274W        W73501  23.662  20.891  10.898
 8275W        W73502  35.178  10.600  11.135
 8276W        W73503   9.296  30.957   1.002
 8277W        W73504  23.604  12.129  11.386
 8278W        W73505  28.438  24.295  10.966
 8279W        W73506  18.371  21.590  11.593
 8280W        W73507  42.064  10.243   2.803
 8281W        W73508  36.132   7.732   3.241
 8282W        W73509  29.951  29.074  14.223
 8283W        W73510   3.813   6.915   2.151
 8284W        W73511  21.119  13.145  12.076
 8285W        W73512   1.780   6.824  11.387
 8286W        W73513  23.688   5.205  13.772
 8287W        W73514   7.897  12.515   0.019
 8288W        W73515   0.254  38.522  11.342
 8289W        W73516   5.535  34.438  11.843
 8290W        W73517  43.826  28.688   3.078
 8291W        W73518  17.259  10.796   1.759
 8292W        W73519  37.380   4.696   3.375
 8293W        W73520  19.737  38.884  14.897
 8294W        W73521  31.660   8.979  12.527
 8295W        W73522  26.620  36.574   5.025
 8296W        W73523  10.811  29.475   0.871
 8297W        W73524   2.721  30.963  12.410
 8298W        W73525  29.736  17.778   0.236
 8299W        W73526   5.401  34.691   2.561
 8300W        W73527  36.621  27.415   3.691
 8301W        W73528  41.252   0.725  12.424
 8302W        W73529  38.801  12.285   2.495
 8303W        W73530  42.444  10.177  10.494
 8304W        W73531  10.908  42.417   4.839
 8305W        W73532  14.444  25.388   2.710
 8306W        W73533  22.068  16.047   1.535
 8307W        W73534  27.135   7.196   3.205
 8308W        W73535  11.683  20.116  10.789
 8309W        W73536  24.026  38.283   0.252
 8310W        W73537   4.783   5.452  11.156
 8311W        W73538  19.819  35.928   3.762
 8312W        W73539  20.242  32.384   1.683
 8313W        W73540   7.611  17.294   1.252
 8314W        W73541  11.662  23.931   3.468
 8315W        W73542  36.027  28.838   0.914
 8316W        W73543   7.329   3.451  14.956
 8317W        W73544  24.891  36.496   0.833
 8318W        W73545  32.622  12.228   4.519
 8319W        W73546  14.713  24.986   3.538
 8320W        W73547  39.056  32.293  14.481
 8321W        W73548  39.503  25.848  11.097
 8322W        W73549  27.081  29.891   3.216
 8323W        W73550   0.539  24.588   5.091
 8324W        W73551   8.125   4.304   4.803
 8325W        W73552  14.849  25.171   5.179
 8326W        W73553  13.116  39.841  14.161
 8327W        W73554   9.293  12.795  14.338
 8328W        W73555  11.298  22.647  13.744
 8329W        W73556  21.073  22.471  10.711
 8330W        W73557  41.023  10.159   1.845
 8331W        W73558   0.007  25.119  11.734
 8332W        W73559  14.472  21.234   4.181
 8333W        W73560  35.958  42.616  12.130
 8334W        W73561  36.385  14.384  11.257
 8335W        W73562  37.386  16.678  14.365
 8336W        W73563  29.067  16.630   3.215
 8337W        W73564  19.740  11.190   3.400
 8338W        W73565  20.890  19.141   1.268
 8339W        W73566  13.135   8.514   5.090
 8340W        W73567  26.494  36.985  13.588
 8341W        W73568  37.857  17.904  12.066
 8342W        W73569   2.494   0.890  11.679
 8343W        W73570  12.762  37.815  10.893
 8344W        W73571   5.446  11.216  12.943
 8345W        W73572  28.673  17.245  13.386
 8346W        W73573  35.848   0.904  12.928
 8347W        W73574  21.285   0.460  11.089
 8348W        W73575  33.006   9.719   0.838
 8349W        W73576  25.284   7.848   3.219
 8350W        W73577  22.069  43.901   4.177
 8351W        W73578  21.133  30.142   0.885
 8352W        W73579  42.355  23.689   3.818
 8353W        W73580  24.501  23.200   1.366
 8354W        W73581  18.140   5.657  12.565
 8355W        W73582  16.496   1.226   0.813
 8356W        W73583   3.918  12.659   2.828
 8357W        W73584  18.522  43.392  14.928
 8358W        W73585  36.436  34.534   4.171
 8359W        W73586   8.737  15.281   1.382
 8360W        W73587  28.998  19.832  10.979
 8361W        W73588  16.704  18.779   1.263
 8362W        W73589   0.776  41.957  10.985
 8363W        W73590  36.461  42.599   1.891
 8364W        W73591   7.442  34.137   3.333
 8365W        W73592  24.037  16.586  14.661
 8366W        W73593  19.288  24.269  10.958
 8367W        W73594  39.323  29.047  11.508
 8368W        W73595   0.565  22.339   1.035
 8369W        W73596   0.940  43.142   1.820
 8370W        W73597  28.951  12.796   0.785
 8371W        W73598  23.444  20.280  13.946
 8372W        W73599  20.201   6.120  11.264
 8373W        W73600  22.752  27.766   4.939
 8374W        W73601  11.519   4.909   1.170
 8375W        W73602   0.996  38.199   1.688
 8376W        W73603  10.726  18.705  13.165
 8377W        W73604  32.160   5.777  11.571
 8378W        W73605   5.228  14.439   2.688
 8379W        W73606  28.178   5.745   2.185
 8380W        W73607  35.100  36.046  13.241
 8381W        W73608  12.074  38.831  14.900
 8382W        W73609  38.804   4.272   4.566
 8383W        W73610  18.196  40.023   2.358
 8384W        W73611   8.325  33.167   4.001
 8385W        W73612  38.906  28.989   0.486
 8386W        W73613  16.880  39.173  13.950
 8387W        W73614  21.660  17.133  12.413
 8388W        W73615  30.963  14.270  13.006
 8389W        W73616  38.775  36.617  10.714
 8390W        W73617  44.590  40.519   5.114
 8391W        W73618  16.176  29.364  10.688
 8392W        W73619  22.771  13.109  13.927
 8393W        W73620  33.699  33.434  14.633
 8394W        W73621   1.256   8.179  14.512
 8395W        W73622  15.869  24.583   4.832
 8396W        W73623  16.116  11.139   1.758
 8397W        W73624  17.181  37.405  13.138
 8398W        W73625  26.188  23.016  11.992
 8399W        W73626  17.798   0.172  13.978
 8400W        W73627  37.423   2.687  10.947
 8401W        W73628   3.174   4.357   3.708
 8402W        W73629  37.378  37.958  12.619
 8403W        W73630   6.200  30.893  12.703
 8404W        W73631   4.678   3.992  13.847
 8405W        W73632  19.503   6.332  13.416
 8406W        W73633  10.577  39.423   2.606
 8407W        W73634   6.304   9.849   0.225
 8408W        W73635  35.657  14.505   3.202
 8409W        W73636  20.022  28.526  14.623
 8410W        W73637  24.038  28.942  14.072
 8411W        W73638  27.244  16.634  11.003
 8412W        W73639  30.411  12.793   0.496
 8413W        W73640   9.322  33.214   4.135
 8414W        W73641  17.707  44.880  10.777
 8415W        W73642  22.113  12.653  11.930
 8416W        W73643  37.246  36.478   4.295
 8417W        W73644  21.129  22.735   1.257
 8418W        W73645   1.415  13.657  12.577
 8419W        W73646  24.071  15.713  13.332
 8420W        W73647  16.081   4.071   1.854
 8421W        W73648  13.790  27.117   0.838
 8422W        W73649  29.207   5.855  14.717
 8423W        W73650  33.274   8.845   4.939
 8424W        W73651  40.000  36.737   2.829
 8425W        W73652  20.650   0.997   2.173
 8426W        W73653   6.781  35.895  10.734
 8427W        W73654   1.397  30.595   4.642
 8428W        W73655  15.060  13.447   4.061
 8429W        W73656  31.787   7.669  14.950
 8430W        W73657  42.898  13.642  12.489
 8431W        W73658   6.132  13.695   1.751
 8432W        W73659  33.525   1.420  10.324
 8433W        W73660  24.020  32.126   3.181
 8434W        W73661   2.489   5.225  14.529
 8435W        W73662  36.558   4.566   3.754
 8436W        W73663   9.953   7.581  12.116
 8437W        W73664  39.885   4.615  13.996
 8438W        W73665   4.549  16.549   9.749
 8439W        W73666  36.953  15.748   2.189
 8440W        W73667  40.243  36.491  11.515
 8441W        W73668  10.889  33.859  12.943
 8442W        W73669  12.965  25.679   1.316
 8443W        W73670  11.439   9.656  10.712
 8444W        W73671  11.736   6.469   1.369
 8445W        W73672   8.431  39.618  10.657
 8446W        W73673   6.903   5.229  10.757
 8447W        W73674   5.222  22.809  14.251
 8448W        W73675   1.985  39.367  11.284
 8449W        W73676  44.049   7.445   0.040
 8450W        W73677  43.882   7.763  13.350
 8451W        W73678  29.861  25.544   2.298
 8452W        W73679  36.913  35.981   3.574
 8453W        W73680  23.785  32.897  13.162
 8454W        W73681   8.859  16.827   5.399
 8455W        W73682  36.906  18.239   3.752
 8456W        W73683  14.681  31.994  12.010
 8457W        W73684  39.160   3.880   4.626
 8458W        W73685  16.225   1.257   1.923
 8459W        W73686  29.098  20.203   0.718
 8460W        W73687   5.461  42.341  11.076
 8461W        W73688  39.023   0.516  12.930
 8462W        W73689  20.993  28.639   1.809
 8463W        W73690  29.884   5.528   4.854
 8464W        W73691  21.747  36.480  10.868
 8465W        W73692  15.789  16.044   4.918
 8466W        W73693   6.109   9.802   4.057
 8467W        W73694  11.837  38.315  11.071
 8468W        W73695  21.041  14.117   2.269
 8469W        W73696   5.445  16.701   3.238
 8470W        W73697  32.469   3.279   1.918
 8471W        W73698  16.134   8.296  12.908
 8472W        W73699  14.621   3.800   0.427
 8473W        W73700  37.314   9.618   3.143
 8474W        W73701  24.588  41.036   1.419
 8475W        W73702   6.725  20.764  14.250
 8476W        W73703  15.331  22.753  14.778
 8477W        W73704   7.706  27.832  12.259
 8478W        W73705  12.993   8.964   4.887
 8479W        W73706  23.080  38.976   3.606
 8480W        W73707  19.188  43.595  12.151
 8481W        W73708  44.720  37.559   1.396
 8482W        W73709  21.645   3.657  13.410
 8483W        W73710   2.978  29.225  11.962
 8484W        W73711  44.433  18.051  13.546
 8485W        W73712   0.403  34.723   3.696
 8486W        W73713  28.965  29.426   3.468
 8487W        W73714  32.699  24.812   2.287
 8488W        W73715  34.672  15.502  14.533
 8489W        W73716  10.902   7.190  14.817
 8490W        W73717  34.854  41.222   0.348
 8491W        W73718   4.356  17.870  14.149
 8492W        W73719  34.868   8.896  11.120
 8493W        W73720  10.692  12.830  14.121
 8494W        W73721  36.369   8.148   1.843
 8495W        W73722   5.221   1.830   1.217
 8496W        W73723  10.180  30.135   4.692
 8497W        W73724   3.019  10.719   0.823
 8498W        W73725  11.871  41.319   4.396
 8499W        W73726  38.907  20.075  14.036
 8500W        W73727  18.061  37.439   2.681
 8501W        W73728  22.149  17.299   4.330
 8502W        W73729  16.429  10.417  11.716
 8503W        W73730  20.994  29.210  11.339
 8504W        W73731  43.629  24.748   2.278
 8505W        W73732  23.174  18.712   0.923
 8506W        W73733   4.864  10.100  12.660
 8507W        W73734  26.455  20.830   3.686
 8508W        W73735   4.603  44.981   4.619
 8509W        W73736  14.039  30.470   1.402
 8510W        W73737  36.835  31.503  12.501
 8511W        W73738  30.123   8.760  14.293
 8512W        W73739  39.621  11.798   4.510
 8513W        W73740  37.795  41.934   3.690
 8514W        W73741  25.707  11.663   0.295
 8515W        W73742   0.493  37.620  13.050
 8516W        W73743  33.063   1.962  13.181
 8517W        W73744  37.533  21.772   3.999
 8518W        W73745   8.904  44.971  11.044
 8519W        W73746   1.946  42.535  11.588
 8520W        W73747   2.375  26.692   3.143
 8521W        W73748  25.078  32.680   3.621
 8522W        W73749  22.053  13.684  13.987
 8523W        W73750  33.931  41.524   4.007
 8524W        W73751  15.342  17.008  13.752
 8525W        W73752  24.744  20.896  10.781
 8526W        W73753  39.104   4.250   2.881
 8527W        W73754  27.447  35.963  10.302
 8528W        W73755  41.921  12.707   2.885
 8529W        W73756  42.297  39.840  14.560
 8530W        W73757  16.050  41.963   4.489
 8531W        W73758  35.536  34.423  14.856
 8532W        W73759  28.688  26.786  12.053
 8533W        W73760  34.503  44.075   2.356
 8534W        W73761  22.775  16.817   4.394
 8535W        W73762   9.956  35.447   4.214
 8536W        W73763  29.043  41.405  12.778
 8537W        W73764  39.848  26.613  14.872
 8538W        W73765   5.749   5.198  13.653
 8539W        W73766  15.395  44.172   1.330
 8540W        W73767   5.078  34.009  13.449
 8541W        W73768  42.067  27.101   4.085
 8542W        W73769   7.480  25.258  11.575
 8543W        W73770  14.313  39.650  14.871
 8544W        W73771  11.372  29.399   4.048
 8545W        W73772  21.430  26.990   3.191
 8546W        W73773  17.099  19.218   0.808
 8547W        W73774  41.411  31.656  10.784
 8548W        W73775  30.611  40.461  11.487
 8549W        W73776  17.313  43.808  14.524
 8550W        W73777  42.581  40.503  13.781
 8551W        W73778  34.456  21.464  13.548
 8552W        W73779   1.295  37.203   1.393
 8553W        W73780   3.403  24.947   3.183
 8554W        W73781  29.079  17.750  10.742
 8555W        W73782  28.549  35.009  13.967
 8556W        W73783   2.998  27.045   2.661
 8557W        W73784  39.100  30.216   2.203
 8558W        W73785  38.360  12.650  12.031
 8559W        W73786  20.716  18.858  12.980
 8560W        W73787   9.780   6.264   1.430
 8561W        W73788  27.852  38.572   2.895
 8562W        W73789  22.541  12.632  14.079
 8563W        W73790  12.749  11.905   2.577
 8564W        W73791   7.890   2.883  11.278
 8565W        W73792  25.791  41.329   0.872
 8566W        W73793  35.040  40.560   3.158
 8567W        W73794   9.644   3.279  14.351
 8568W        W73795  37.894   9.352  12.135
 8569W        W73796  36.404  34.185  13.319
 8570W        W73797  32.960  36.967  14.674
 8571W        W73798  44.284   7.788  11.610
 8572W        W73799   5.911  42.003  11.082
 8573W        W73800  31.100   7.325  13.805
 8574W        W73801  16.876  27.361  11.198
 8575W        W73802  38.678   2.922  13.037
 8576W        W73803  11.260   8.604   4.777
 8577W        W73804  19.785  16.502  13.148
 8578W        W73805  12.416   8.549   0.019
 8579W        W73806  31.074  25.437  14.160
 8580W        W73807  38.044   0.138   2.232
 8581W        W73808   6.308  19.954  11.028
 8582W        W73809  31.862  41.308  12.434
 8583W        W73810   0.842   1.523   1.503
 8584W        W73811  37.382  44.993   0.130
 8585W        W73812  21.280  13.357  12.537
 8586W        W73813   9.848  38.155   1.592
 8587W        W73814  37.128  44.658   1.753
 8588W        W73815   1.729  15.872   2.273
 8589W        W73816  26.380   2.994   4.295
 8590W        W73817  23.878  11.603   1.965
 8591W        W73818   9.699  40.088   2.849
 8592W        W73819  19.688  15.054   4.628
 8593W        W73820  31.869  36.176  14.019
 8594W        W73821  38.139  22.773   0.366
 8595W        W73822   9.813  38.452   4.403
 8596W        W73823  31.000  23.427  12.449
 8597W        W73824  31.658   3.376  10.708
 8598W        W73825  20.786  31.007  13.080
 8599W        W73826   2.249  21.493  13.998
 8600W        W73827   9.049  10.824   1.821
 8601W        W73828  12.018  29.957   0.329
 8602W        W73829   1.151  26.236  14.107
 8603W        W73830  23.454  25.157  11.145
 8604W        W73831   1.896  18.667   2.772
 8605W        W73832  19.419  34.893  12.405
 8606W        W73833   5.338  12.085   3.919
 8607W        W73834  21.312   8.589  13.495
 8608W        W73835  16.820  24.659   2.824
 8609W        W73836  21.162  35.463   3.672
 8610W        W73837   9.222  11.323  13.961
 8611W        W73838  29.415  14.298   0.465
 8612W        W73839  25.883  33.081   1.809
 8613W        W73840  27.504  34.424   2.150
 8614W        W73841  25.514  26.460  14.527
 8615W        W73842  28.408  18.878   3.708
 8616W        W73843   1.463   5.178  14.019
 8617W        W73844   7.810  21.193  11.152
 8618W        W73845  37.507  17.714   4.613
 8619W        W73846   9.841  44.280  12.517
 8620W        W73847  28.550  21.824   0.328
 8621W        W73848  15.609   9.103   4.204
 8622W        W73849  28.858  23.573  13.341
 8623W        W73850  24.741  32.314   2.754
 8624W        W73851  22.837  22.036   4.160
 8625W        W73852  22.175  43.769  12.036
 8626W        W73853   0.707  11.118   3.149
 8627W        W73854  15.885  41.589   3.332
 8628W        W73855  42.432  34.260   2.400
 8629W        W73856  33.062  33.761  14.493
 8630W        W73857  23.459  27.417   1.405
 8631W        W73858   5.211  31.928  13.737
 8632W        W73859  37.832   5.911  14.070
 8633W        W73860   8.908  38.520  14.994
 8634W        W73861  23.639  15.833  13.576
 8635W        W73862  28.619  24.412   2.888
 8636W        W73863  13.776  25.012   1.441
 8637W        W73864   6.855  32.117   2.372
 8638W        W73865   4.834   1.830  12.509
 8639W        W73866   3.240  17.955  13.313
 8640W        W73867  10.316  18.163  11.168
 8641W        W73868  30.799  41.558  10.705
 8642W        W73869  41.433  43.709   4.654
 8643W        W73870   8.327   1.711   3.141
 8644W        W73871  20.042  38.977  11.093
 8645W        W73872   4.313   0.834  11.382
 8646W        W73873  40.401  24.307  11.150
 8647W        W73874  15.082  16.642   4.101
 8648W        W73875  28.464   0.784  13.934
 8649W        W73876  33.924   4.890   4.401
 8650W        W73877   1.924  42.224  10.372
 8651W        W73878  31.904  12.023  11.995
 8652W        W73879  36.195  38.458  14.309
 8653W        W73880  14.012  12.166   1.383
 8654W        W73881  40.153   4.233   3.212
 8655W        W73882   9.273  29.539  14.016
 8656W        W73883  10.698   3.531   1.285
 8657W        W73884  42.876  40.506   4.445
 8658W        W73885  40.537  39.121  13.964
 8659W        W73886  22.569  26.222  14.847
 8660W        W73887  30.660  41.348  12.067
 8661W        W73888  37.405  29.049  14.810
 8662W        W73889  44.872  20.469  13.802
 8663W        W73890   0.192  15.162  12.464
 8664W        W73891  14.487  33.720   3.892
 8665W        W73892  43.468   4.537  14.265
 8666W        W73893  32.302  27.726  10.336
 8667W        W73894   9.365  31.506   0.891
 8668W        W73895  11.125  13.107  13.948
 8669W        W73896  12.224  21.464  10.946
 8670W        W73897  35.950  39.939   2.140
 8671W        W73898  25.105   2.438   2.989
 8672W        W73899  38.016  14.493   1.717
 8673W        W73900  23.954  41.068   2.817
 8674W        W73901  20.691  43.553   3.755
 8675W        W73902   5.334  32.549   3.540
 8676W        W73903  10.618  24.722  12.509
 8677W        W73904   4.322  19.062   0.100
 8678W        W73905  44.414  15.232   0.755
 8679W        W73906  14.084  24.875  11.210
 8680W        W73907   2.349  17.073   1.398
 8681W        W73908  16.875   2.931   3.344
 8682W        W73909  11.166   0.779   1.281
 8683W        W73910  14.150   0.864  12.844
 8684W        W73911  32.500  18.200   4.654
 8685W        W73912   6.664   1.443   1.271
 8686W        W73913  28.830  16.696  13.415
 8687W        W73914  37.440  41.310  14.396
 8688W        W73915  27.029  10.802   4.648
 8689W        W73916  32.775  15.909   4.277
 8690W        W73917  37.286   8.135   2.763
 8691W        W73918  31.404  40.015  11.117
 8692W        W73919  44.037  38.475  13.948
 8693W        W73920  15.611   0.478  11.175
 8694W        W73921   7.268   0.213  11.450
 8695W        W73922   7.784  41.780  10.700
 8696W        W73923  20.178   4.203  13.547
 8697W        W73924  37.612  38.887   3.546
 8698W        W73925  10.009   7.715   0.498
 8699W        W73926  18.137   3.556  14.575
 8700W        W73927  13.836  38.862   1.679
 8701W        W73928  33.540  28.258   2.241
 8702W        W73929  17.184  28.221  12.910
 8703W        W73930   3.711  34.606   4.965
 8704W        W73931  30.328  31.669   5.046
 8705W        W73932  32.950   7.818  14.097
 8706W        W73933  30.033   2.934  11.190
 8707W        W73934  44.667  20.763  14.457
 8708W        W73935  39.875  31.136  14.416
 8709W        W73936  27.936   0.427  12.846
 8710W        W73937  24.569  20.499  11.072
 8711W        W73938   6.008  20.483   3.923
 8712W        W73939   0.091   0.334  13.829
 8713W        W73940   1.543  17.369   4.983
 8714W        W73941  14.175  38.824  12.126
 8715W        W73942  36.561  44.576  13.390
 8716W        W73943  44.244  20.427   0.761
 8717W        W73944   5.391   5.936  13.810
 8718W        W73945  42.262   5.787   0.922
 8719W        W73946  20.762  36.409  12.553
 8720W        W73947  26.975  27.426   5.192
 8721W        W73948  34.450  23.631  11.683
 8722W        W73949  28.498  28.066   3.059
 8723W        W73950  28.204  38.908   1.954
 8724W        W73951  21.224  40.916  14.553
 8725W        W73952  37.960  34.808   0.840
 8726W        W73953   6.483  39.477   2.543
 8727W        W73954  12.952  23.961  12.083
 8728W        W73955  23.731  40.857  11.507
 8729W        W73956  15.864  22.387  13.030
 8730W        W73957  42.452  31.682  14.547
 8731W        W73958   9.721  26.413   1.800
 8732W        W73959  42.783  34.593  13.440
 8733W        W73960  17.270  11.196   0.807
 8734W        W73961  27.972  26.440   0.358
 8735W        W73962   6.774   0.864   0.503
 8736W        W73963  30.491  27.967  14.899
 8737W        W73964   0.729   3.504  13.945
 8738W        W73965  25.057  16.326  11.161
 8739W        W73966   2.334   9.143  14.899
 8740W        W73967  30.932  42.382   0.184
 8741W        W73968  17.475  44.219  13.985
 8742W        W73969  41.490  35.526   1.756
 8743W        W73970  36.356   6.244  12.808
 8744W        W73971  34.269  41.870   3.783
 8745W        W73972   0.595  44.421   4.532
 8746W        W73973  35.059  34.929  11.935
 8747W        W73974  19.252  21.803  11.687
 8748W        W73975  12.755  18.570  12.139
 8749W        W73976  12.713  11.837   4.427
 8750W        W73977  19.660  10.719   3.553
 8751W        W73978  14.625  21.966  12.013
 8752W        W73979   3.362  27.949   3.545
 8753W        W73980  18.743  21.770  14.283
 8754W        W73981  15.258  38.089   1.815
 8755W        W73982   8.133  42.570   2.399
 8756W        W73983  19.855  31.561  11.626
 8757W        W73984   9.455  40.585  11.230
 8758W        W73985  23.540  27.401  12.136
 8759W        W73986  41.308  16.548   4.137
 8760W        W73987  43.946   7.301   3.563
 8761W        W73988   2.532  18.660   1.617
 8762W        W73989  31.396  10.827   0.781
 8763W        W73990  14.303  30.547  11.876
 8764W        W73991  25.512   0.234   1.866
 8765W        W73992   9.722  28.904  14.278
 8766W        W73993   8.249  38.585   2.654
 8767W        W73994  44.882  38.207   0.125
 8768W        W73995  39.023  15.327   2.225
 8769W        W73996   2.412  39.806   4.141
 8770W        W73997   1.731  36.989  14.212
 8771W        W73998   6.637  30.318   0.858
 8772W        W73999  36.470  22.656   3.146
 8773W        W74000  21.269  36.948   3.194
 8774W        W74001  42.564  13.825  12.165
 8775W        W74002  31.051  36.502  14.173
 8776W        W74003  27.987  44.422   2.304
 8777W        W74004  14.304  30.322   2.731
 8778W        W74005  23.775   7.491   4.129
 8779W        W74006   8.801   6.525  13.419
 8780W        W74007   4.857  16.663  14.590
 8781W        W74008  15.598  36.533  13.950
 8782W        W74009  14.547  12.685   4.850
 8783W        W74010   1.426  22.320   2.414
 8784W        W74011  14.618  26.623   2.996
 8785W        W74012  33.439  16.530  13.413
 8786W        W74013  21.237   4.642   3.867
 8787W        W74014  39.040  37.990  13.071
 8788W        W74015  29.457  22.002   1.521
 8789W        W74016  10.236  38.019  13.909
 8790W        W74017  26.392  18.249   4.723
 8791W        W74018  42.029  15.582   1.365
 8792W        W74019   2.387  12.505  13.045
 8793W        W74020  35.318  14.057   3.049
 8794W        W74021   7.230  35.411  11.631
 8795W        W74022  41.548   0.879  12.022
 8796W        W74023   2.078   7.944   2.594
 8797W        W74024  41.310   5.168   1.352
 8798W        W74025  22.109  36.335   3.258
 8799W        W74026  26.891   1.901   1.886
 8800W        W74027  23.238  15.622  12.324
 8801W        W74028  18.431  15.186  11.848
 8802W        W74029  34.105  13.395   4.234
 8803W        W74030  10.703   5.998  11.012
 8804W        W74031  19.027  14.770  13.067
 8805W        W74032   4.800  44.582   3.815
 8806W        W74033  40.477   5.701  14.468
 8807W        W74034  37.318  35.525   4.049
 8808W        W74035  20.061  10.916   3.788
 8809W        W74036  16.902   2.483   3.597
 8810W        W74037   7.389  22.201   3.114
 8811W        W74038  15.030  10.662  14.338
 8812W        W74039  21.225  33.369   3.145
 8813W        W74040  24.812  33.118  13.006
 8814W        W74041  28.148  37.419  10.191
 8815W        W74042  40.406  44.293  12.023
 8816W        W74043   9.186  13.359   0.882
 8817W        W74044  17.762  10.917  13.021
 8818W        W74045  15.309  16.737   4.554
 8819W        W74046  34.053  14.164   2.172
 8820W        W74047  16.694  19.282   1.136
 8821W        W74048   0.171   5.849  12.935
 8822W        W74049  20.124  11.389  12.553
 8823W        W74050  15.675   3.284  11.504
 8824W        W74051   3.317  25.736   0.359
 8825W        W74052  24.236  32.105  12.656
 8826W        W74053  24.777   6.701  13.209
 8827W        W74054  28.653   6.492  13.168
 8828W        W74055  27.654  26.611  14.833
 8829W        W74056   2.286  31.442   1.356
 8830W        W74057  43.439  14.550  11.532
 8831W        W74058  17.057  13.584   4.090
 8832W        W74059  28.895   2.969  14.379
 8833W        W74060  25.260  27.503   4.631
 8834W        W74061  14.323  26.212   0.860
 8835W        W74062  42.323  11.806   4.619
 8836W        W74063  41.475   3.796   3.335
 8837W        W74064  14.567  14.694  13.666
 8838W        W74065   8.813  11.768  13.969
 8839W        W74066  43.647   8.703   4.594
 8840W        W74067  13.875  44.921   0.750
 8841W        W74068  39.069  25.494   0.303
 8842W        W74069   1.720  31.360  14.983
 8843W        W74070  30.987  12.682   0.117
 8844W        W74071  17.891  26.121   4.265
 8845W        W74072  43.908  42.657  12.894
 8846W        W74073   8.363  19.768  12.412
 8847W        W74074  27.543  29.167  14.052
 8848W        W74075  21.092  27.214  13.959
 8849W        W74076  30.263  42.316  13.891
 8850W        W74077  15.951  33.703   5.804
 8851W        W74078  18.285  15.794  13.465
 8852W        W74079   5.089   2.603  11.399
 8853W        W74080  33.382  37.171   1.880
 8854W        W74081  10.356  43.566  12.595
 8855W        W74082   9.800  36.554   0.309
 8856W        W74083  38.513  33.208  13.290
 8857W        W74084  26.491   6.656  11.116
 8858W        W74085  44.437  40.866   0.030
 8859W        W74086  37.893  26.673  13.421
 8860W        W74087  15.867   9.628   4.251
 8861W        W74088  13.267  12.723  12.521
 8862W        W74089  38.283   0.802  12.513
 8863W        W74090   7.379  30.950   4.322
 8864W        W74091  33.162   0.149   0.778
 8865W        W74092   0.313  21.745  12.668
 8866W        W74093  28.313  10.581  11.137
 8867W        W74094  25.705  26.235  13.309
 8868W        W74095   3.711  14.482  12.978
 8869W        W74096  15.579  36.326   2.287
 8870W        W74097  20.268  32.865  14.252
 8871W        W74098   9.163  37.737  14.489
 8872W        W74099  35.707  38.412   9.685
 8873W        W74100  13.357   2.906   2.946
 8874W        W74101  20.372   8.341  12.060
 8875W        W74102  35.755   5.299  13.428
 8876W        W74103  44.011  40.430  13.965
 8877W        W74104  31.117  23.637  14.836
 8878W        W74105  13.903   4.880  11.689
 8879W        W74106  19.818   9.218  11.131
 8880W        W74107   2.994  18.846  13.434
 8881W        W74108  43.059  42.292  12.395
 8882W        W74109  19.506  42.017  13.018
 8883W        W74110   7.757   9.021   4.080
 8884W        W74111   2.031  42.408   3.705
 8885W        W74112  27.645  15.705   0.372
 8886W        W74113   1.027  35.893  13.915
 8887W        W74114  32.592  23.165   1.257
 8888W        W74115   7.343  25.651   0.694
 8889W        W74116  20.255  33.700  11.263
 8890W        W74117  22.774  29.121  13.497
 8891W        W74118  24.705  15.993   3.693
 8892W        W74119  23.550  29.219   3.619
 8893W        W74120   5.946  40.860  12.820
 8894W        W74121  21.772  30.614   2.363
 8895W        W74122  28.422  18.646   0.644
 8896W        W74123  23.217  31.586   2.799
 8897W        W74124  12.479  35.135  13.892
 8898W        W74125  28.513  10.670  12.943
 8899W        W74126  15.561  22.433  12.075
 8900W        W74127  40.377  41.569   4.138
 8901W        W74128  41.759  31.639   3.120
 8902W        W74129  11.338  29.604   1.239
 8903W        W74130  43.804  13.441   0.870
 8904W        W74131  34.666  35.549   0.712
 8905W        W74132  11.698  20.079  11.650
 8906W        W74133  25.058   2.971   2.246
 8907W        W74134   4.537  38.410   3.685
 8908W        W74135  32.114   8.359   4.536
 8909W        W74136   3.765  36.320  10.317
 8910W        W74137  17.635  31.500  10.638
 8911W        W74138  15.044  37.124   0.384
 8912W        W74139   1.743   2.999   0.700
 8913W        W74140  40.995  18.403   0.593
 8914W        W74141   9.139   3.689   2.237
 8915W        W74142  33.913  44.826  13.276
 8916W        W74143  16.574  31.846   3.811
 8917W        W74144   7.063   5.117   4.329
 8918W        W74145  41.836  28.597  14.548
 8919W        W74146  14.121   3.306  12.441
 8920W        W74147   5.513   5.657   4.404
 8921W        W74148  43.007  36.729  13.402
 8922W        W74149   5.371  38.328  12.495
 8923W        W74150  38.379  36.936   2.801
 8924W        W74151  37.003   3.374  11.643
 8925W        W74152  24.948  41.986   1.290
 8926W        W74153  10.324  18.552   3.766
 8927W        W74154  41.958   1.188  11.932
 8928W        W74155  35.208  27.151   0.870
 8929W        W74156  43.790  15.037   3.150
 8930W        W74157  37.402  15.171   1.767
 8931W        W74158  19.437  41.277  12.447
 8932W        W74159  19.338  44.582   1.787
 8933W        W74160  10.445   8.612  10.369
 8934W        W74161  29.567  37.364   3.151
 8935W        W74162  12.028  31.872  12.523
 8936W        W74163   9.302   9.270   3.209
 8937W        W74164  14.805  32.439   3.674
 8938W        W74165  41.762  39.148   0.850
 8939W        W74166  21.206  26.697   4.588
 8940W        W74167   2.928  25.002  14.262
 8941W        W74168   6.391  37.100  13.421
 8942W        W74169  16.000  15.752  12.474
 8943W        W74170   0.068   0.900   0.699
 8944W        W74171   9.564  36.339   4.616
 8945W        W74172   3.877  10.647  14.092
 8946W        W74173  36.544  31.847   0.758
 8947W        W74174  19.237  44.121  13.577
 8948W        W74175  12.335  20.114   4.549
 8949W        W74176   3.463  24.292   4.577
 8950W        W74177   5.203   5.304   4.099
 8951W        W74178   7.652  33.009  14.838
 8952W        W74179  10.115  40.068  14.920
 8953W        W74180  34.410  29.714   3.736
 8954W        W74181  35.320  23.540   2.873
 8955W        W74182  14.037  33.126  14.918
 8956W        W74183  21.097  32.818  10.722
 8957W        W74184  38.554  11.418  11.093
 8958W        W74185  15.822  36.408  14.491
 8959W        W74186  20.732  29.466  11.744
 8960W        W74187  12.002  40.542   2.640
 8961W        W74188  43.967  20.969  11.574
 8962W        W74189  43.811  16.814   1.233
 8963W        W74190  40.087  22.710  11.740
 8964W        W74191   1.321  11.880  14.323
 8965W        W74192  33.989  17.291   3.601
 8966W        W74193  34.457  28.493  13.536
 8967W        W74194  36.044   9.573  13.484
 8968W        W74195   4.911   7.788   0.723
 8969W        W74196   3.736   7.686   3.599
 8970W        W74197  39.415  23.659  14.171
 8971W        W74198   8.713  40.935  11.546
 8972W        W74199  39.526   3.788   0.707
 8973W        W74200  17.575  15.756   3.737
 8974W        W74201  19.683  35.539   4.503
 8975W        W74202  23.987   7.762  12.947
 8976W        W74203  38.590  27.841   3.403
 8977W        W74204   0.102  22.487   1.212
 8978W        W74205  36.586  23.660   0.194
 8979W        W74206  34.513  21.502   0.883
 8980W        W74207  43.844   1.818  10.333
 8981W        W74208  39.019   0.003  12.059
 8982W        W74209   1.563  24.504   0.169
 8983W        W74210   3.816  33.040  10.767
 8984W        W74211  26.951  21.334  13.903
 8985W        W74212  36.093  39.823  12.641
 8986W        W74213  42.344   0.348  14.015
 8987W        W74214  12.546  12.857  10.916
 8988W        W74215  17.005  44.434  13.863
 8989W        W74216  12.844   2.865  10.709
 8990W        W74217  24.011  44.867   1.735
 8991W        W74218  10.828  17.705   2.951
 8992W        W74219  29.469  14.812  10.370
 8993W        W74220   2.566  19.289   2.558
 8994W        W74221  43.337  26.229  10.132
 8995W        W74222   2.316  14.297   2.718
 8996W        W74223  24.773  10.374  14.062
 8997W        W74224   5.321  26.814   2.657
 8998W        W74225  11.668  29.988   4.311
 8999W        W74226  11.572   2.355   4.673
 9000W        W74227  39.335  27.637  11.131
 9001W        W74228  40.846  39.826   3.455
 9002W        W74229   2.275  34.315  12.566
 9003W        W74230  44.345   2.301   0.656
 9004W        W74231  12.209  40.543  12.925
 9005W        W74232  28.492  39.884  12.419
 9006W        W74233  44.257  30.677   3.090
 9007W        W74234  44.784  23.674  13.877
 9008W        W74235  14.267  37.103  11.636
 9009W        W74236  36.120  41.256   3.186
 9010W        W74237  37.999   4.623   4.646
 9011W        W74238  36.080  37.437   0.521
 9012W        W74239  28.573   6.747  11.503
 9013W        W74240  18.851  19.974  11.863
 9014W        W74241   4.267  40.390   3.678
 9015W        W74242   9.995  43.388   3.316
 9016W        W74243  25.966  31.088  12.646
 9017W        W74244  20.850  12.761   0.019
 9018W        W74245   5.727  10.462   1.462
 9019W        W74246  42.746  16.222  11.467
 9020W        W74247  19.617   2.595  11.660
 9021W        W74248  19.555  15.154   1.754
 9022W        W74249  17.554  40.439   2.093
 9023W        W74250  44.916  31.265   4.956
 9024W        W74251  14.367  27.141   0.865
 9025W        W74252  33.935  14.862   1.852
 9026W        W74253  33.564  40.068   3.163
 9027W        W74254  37.629  20.572   1.817
 9028W        W74255  31.032  32.433  14.222
 9029W        W74256   0.435  34.160  10.561
 9030W        W74257  33.634  16.733   0.968
 9031W        W74258  40.285  10.335  14.484
 9032W        W74259  13.308   7.760  13.435
 9033W        W74260  30.668  12.303  12.501
 9034W        W74261  31.845  31.480   3.212
 9035W        W74262  19.808  21.096   1.760
 9036W        W74263  43.403  27.864  13.822
 9037W        W74264   7.017  24.627  12.132
 9038W        W74265  37.947  21.997  13.421
 9039W        W74266  10.117  35.353   1.736
 9040W        W74267  18.095  16.414  12.643
 9041W        W74268   5.233  20.231   3.509
 9042W        W74269  44.204  13.776  10.733
 9043W        W74270   8.517  12.931  10.736
 9044W        W74271  13.715  19.637   2.910
 9045W        W74272  22.996  33.166  11.627
 9046W        W74273  14.499  13.715  13.941
 9047W        W74274  28.315   8.854   0.492
 9048W        W74275   7.842   4.969   0.353
 9049W        W74276  34.465   7.335  13.689
 9050W        W74277  30.929   1.172   0.364
 9051W        W74278  35.366   1.475   1.406
 9052W        W74279  20.987   5.956   1.537
 9053W        W74280  44.156  33.433   1.580
 9054W        W74281  29.630  32.525  11.554
 9055W        W74282  18.559  31.558   1.741
 9056W        W74283  24.724  28.101  11.564
 9057W        W74284  37.868  38.532  11.059
 9058W        W74285  19.688   9.857   3.875
 9059W        W74286  25.266  13.162   1.258
 9060W        W74287  17.413  36.430  12.458
 9061W        W74288   1.310  13.882  11.199
 9062W        W74289  24.550  28.629  13.186
 9063W        W74290  43.463  23.501  11.187
 9064W        W74291  11.475  20.390  11.164
 9065W        W74292  26.616  28.341   4.787
 9066W        W74293  25.086   5.856  10.453
 9067W        W74294   0.972  26.980   1.801
 9068W        W74295  36.177  40.496   0.453
 9069W        W74296  10.212  40.966  11.604
 9070W        W74297  19.284   9.889   0.964
 9071W        W74298  37.510  20.116   2.783
 9072W        W74299   4.327  11.301  13.467
 9073W        W74300  44.610  32.518   1.314
 9074W        W74301  44.555  35.564  11.173
 9075W        W74302  21.692  42.255   1.372
 9076W        W74303  14.591  17.713  10.820
 9077W        W74304  12.567  41.845   4.143
 9078W        W74305  38.635  44.965   3.329
 9079W        W74306   0.317   5.506   3.628
 9080W        W74307  16.293   3.314  11.259
 9081W        W74308   3.443  20.974   3.205
 9082W        W74309  22.957   7.730   1.351
 9083W        W74310   4.467  14.303   1.326
 9084W        W74311  28.507   7.920  14.394
 9085W        W74312  40.759  15.922  12.614
 9086W        W74313   1.244  14.272  10.866
 9087W        W74314  29.597  42.065   3.325
 9088W        W74315  10.763  39.394  13.098
 9089W        W74316  35.749  35.366  12.378
 9090W        W74317  11.162  37.561  13.939
 9091W        W74318  37.807  34.119  14.838
 9092W        W74319  27.749  28.511   1.118
 9093W        W74320  34.589   5.771   3.844
 9094W        W74321  44.537   7.748   1.321
 9095W        W74322   5.884  32.608   0.806
 9096W        W74323  39.460  28.524   1.547
 9097W        W74324   2.962  42.868   0.868
 9098W        W74325   6.462  35.015  14.912
 9099W        W74326  31.108  21.138  12.130
 9100W        W74327  28.549  39.023  11.412
 9101W        W74328   9.827   3.992   0.456
 9102W        W74329   9.751   2.968   1.284
 9103W        W74330  43.186  43.008  11.322
 9104W        W74331  21.082  39.939  10.778
 9105W        W74332  19.047  27.727  14.700
 9106W        W74333  30.876  21.688   4.315
 9107W        W74334   0.885   6.195   1.775
 9108W        W74335  11.364  28.238   4.449
 9109W        W74336  26.171  21.471  14.359
 9110W        W74337  17.239  24.718  12.038
 9111W        W74338   7.762   5.761   0.783
 9112W        W74339  14.272  38.816   3.324
 9113W        W74340   8.742   5.737   4.139
 9114W        W74341  24.229  39.974  12.925
 9115W        W74342  33.609   1.878   3.653
 9116W        W74343  42.967  42.045   1.962
 9117W        W74344   0.526   3.381   0.916
 9118W        W74345  22.295  33.159  12.710
 9119W        W74346   9.097  14.179   2.737
 9120W        W74347  34.309   7.642  12.523
 9121W        W74348   7.234  24.880   1.460
 9122W        W74349   1.752   4.662  12.522
 9123W        W74350  38.496   1.475   4.562
 9124W        W74351  44.107  24.555   2.308
 9125W        W74352  44.968  36.316  13.531
 9126W        W74353  37.030  12.948  13.161
 9127W        W74354   9.318  38.419  13.842
 9128W        W74355  42.289  41.714  12.007
 9129W        W74356  15.528  38.743   1.476
 9130W        W74357  12.372   7.435  13.331
 9131W        W74358  21.601  29.031   2.383
 9132W        W74359   1.115  14.150  14.696
 9133W        W74360   7.538   1.592  12.616
 9134W        W74361  14.621  23.352  14.586
 9135W        W74362  15.811  26.906  12.758
 9136W        W74363  33.698  44.686  13.835
 9137W        W74364  24.510  43.584   1.772
 9138W        W74365  10.897   8.356  10.397
 9139W        W74366  31.886  18.253   1.995
 9140W        W74367   2.429  15.749   3.731
 9141W        W74368  32.146  22.971   2.771
 9142W        W74369  40.109  29.657  11.646
 9143W        W74370  10.370  10.399  14.498
 9144W        W74371  19.760  12.311   2.209
 9145W        W74372  43.580  41.667  12.097
 9146W        W74373  34.860   2.006   4.244
 9147W        W74374  24.634  10.655   3.199
 9148W        W74375   2.387  33.968   1.240
 9149W        W74376  44.584  38.424  14.753
 9150W        W74377   0.455  35.062  11.998
 9151W        W74378   1.296  19.516   2.794
 9152W        W74379  12.699  23.909   4.948
 9153W        W74380  21.643  29.177   1.035
 9154W        W74381  36.038   6.318   0.896
 9155W        W74382  16.064   8.691   0.922
 9156W        W74383  22.968  23.216  12.027
 9157W        W74384  30.964   3.622   1.839
 9158W        W74385  18.800  34.056   2.111
 9159W        W74386  39.725  33.713   2.716
 9160W        W74387  37.861  24.030   1.410
 9161W        W74388  38.972   3.194   4.334
 9162W        W74389  28.669  37.058  14.333
 9163W        W74390  10.732  31.663   0.431
 9164W        W74391  36.483   3.928  10.503
 9165W        W74392   4.452  34.632   0.535
 9166W        W74393  27.035  12.774   1.925
 9167W        W74394  39.572  13.277  14.288
 9168W        W74395  11.151   7.690   4.351
 9169W        W74396  10.094  42.566  14.868
 9170W        W74397   8.821   1.870   4.229
 9171W        W74398  20.214   7.208  11.145
 9172W        W74399   9.717  36.067   0.470
 9173W        W74400  18.743  21.120  10.746
 9174W        W74401  34.899  12.389   3.398
 9175W        W74402  23.273   5.555  13.843
 9176W        W74403  22.780  42.808   4.162
 9177W        W74404  30.712  20.069  12.579
 9178W        W74405  31.676  23.452   5.091
 9179W        W74406   1.227  17.143   3.253
 9180W        W74407  24.048  13.838  11.907
 9181W        W74408   0.978  10.761   0.632
 9182W        W74409   5.318  22.572  13.792
 9183W        W74410   7.744  28.605   2.363
 9184W        W74411  19.232   3.495   3.104
 9185W        W74412  14.737  35.700   4.171
 9186W        W74413  24.649  14.679  12.037
 9187W        W74414  31.880  17.260  13.817
 9188W        W74415  11.393   3.026  13.829
 9189W        W74416  43.982  12.651   1.162
 9190W        W74417  34.920  12.100  11.073
 9191W        W74418   2.873  10.329  12.885
 9192W        W74419  27.909  10.256  11.134
 9193W        W74420  17.020  17.655   1.952
 9194W        W74421  20.535  24.863   1.342
 9195W        W74422  43.917  26.178  11.764
 9196W        W74423  23.474  23.265  12.204
 9197W        W74424   8.318  27.041   1.317
 9198W        W74425   7.270  42.160  11.097
 9199W        W74426  25.504   1.838   2.831
 9200W        W74427  34.441   9.731   0.758
 9201W        W74428  44.224  30.508   0.843
 9202W        W74429  37.641   4.874   0.231
 9203W        W74430  17.675   9.690   3.625
 9204W        W74431  26.559  30.494  10.801
 9205W        W74432   7.785  43.471   1.804
 9206W        W74433   2.937  39.735   4.258
 9207W        W74434   9.757  24.768   2.660
 9208W        W74435  18.965  13.796   4.498
 9209W        W74436   2.823  16.520  12.408
 9210W        W74437  17.385  17.639  14.429
 9211W        W74438  19.277  23.411   2.736
 9212W        W74439   4.156  42.450  11.112
 9213W        W74440  11.928  11.085  14.853
 9214W        W74441  28.086   4.970   4.769
 9215W        W74442   6.727  42.989   1.471
 9216W        W74443  37.632  34.425   1.143
 9217W        W74444  29.999   4.290   4.266
 9218W        W74445   0.851  21.021   4.796
 9219W        W74446  13.328   0.276  11.429
 9220W        W74447  35.620  19.539   0.568
 9221W        W74448  19.044  12.689  13.782
 9222W        W74449  22.907   7.608  12.380
 9223W        W74450  29.224  32.934   3.336
 9224W        W74451  21.856  21.426   2.641
 9225W        W74452   8.404  21.572   4.073
 9226W        W74453  16.534   6.714   0.760
 9227W        W74454  38.630  20.956  12.464
 9228W        W74455  11.069  36.149   3.171
 9229W        W74456  36.769  17.363  11.608
 9230W        W74457  21.216   7.681  14.225
 9231W        W74458  34.588  20.952  14.528
 9232W        W74459  31.731  17.484   2.312
 9233W        W74460  20.288  42.709  12.177
 9234W        W74461  44.226  15.286  10.668
 9235W        W74462  15.309  14.225  13.939
 9236W        W74463  27.215  11.600   0.466
 9237W        W74464  44.206  39.771  10.650
 9238W        W74465   9.834   0.801   3.818
 9239W        W74466   3.265  36.385  12.770
 9240W        W74467  24.453   2.698   0.310
 9241W        W74468  31.583  26.206  14.092
 9242W        W74469  22.534  38.115  11.077
 9243W        W74470  11.127  26.437  10.610
 9244W        W74471   1.461  26.994   2.657
 9245W        W74472  42.459   4.773   1.895
 9246W        W74473  14.797  20.458  13.021
 9247W        W74474  14.365   7.752   4.518
 9248W        W74475  12.265   7.766   3.235
 9249W        W74476  32.594  16.681  13.838
 9250W        W74477  23.535  19.582   1.870
 9251W        W74478  43.909  27.140   0.443
 9252W        W74479  43.825  29.563   2.700
 9253W        W74480  35.796  23.712   1.815
 9254W        W74481  31.102  17.185  14.901
 9255W        W74482   4.963  29.516   2.913
 9256W        W74483  41.899  14.801  14.374
 9257W        W74484  41.412  17.493   2.528
 9258W        W74485   2.661  21.320  12.606
 9259W        W74486   1.736  32.560   1.985
 9260W        W74487  42.570  39.996   2.331
 9261W        W74488   9.202  18.709  13.904
 9262W        W74489  32.697  28.702   4.555
 9263W        W74490  42.715  33.542   4.148
 9264W        W74491  18.938  16.797   2.638
 9265W        W74492   4.182  28.542   1.003
 9266W        W74493  42.765  11.353   2.411
 9267W        W74494  25.009  26.928   2.312
 9268W        W74495  17.262  19.635  14.975
 9269W        W74496  16.598  32.366   1.741
 9270W        W74497  31.095  16.240   4.170
 9271W        W74498  21.057   9.394  11.537
 9272W        W74499   0.341   7.367  13.333
 9273W        W74500  30.038  16.364   4.495
 9274W        W74501  44.385  21.999   1.675
 9275W        W74502  42.512  19.319  14.942
 9276W        W74503  27.457  27.143  13.847
 9277W        W74504  31.898  29.146   1.880
 9278W        W74505   0.779   5.788   3.677
 9279W        W74506  44.527  38.137   2.785
 9280W        W74507   0.346  21.030   1.253
 9281W        W74508  14.881   1.978   9.610
 9282W        W74509  44.247  17.582  13.562
 9283W        W74510   5.476  44.106   3.972
 9284W        W74511   5.035   6.882   2.719
 9285W        W74512  18.238  22.120   1.990
 9286W        W74513  44.564  40.072   1.252
 9287W        W74514  15.254  24.778   4.241
 9288W        W74515  43.752  10.913  11.205
 9289W        W74516   2.814  20.562   2.224
 9290W        W74517  22.144   6.911   0.818
 9291W        W74518  22.767  34.456   4.646
 9292W        W74519  19.724  39.986  14.504
 9293W        W74520   0.130   5.759   1.337
 9294W        W74521  27.356   2.646  12.671
 9295W        W74522  12.589  32.445   2.666
 9296W        W74523  34.068  33.491  11.872
 9297W        W74524  42.911  25.708   2.273
 9298W        W74525   3.379   4.717   1.854
 9299W        W74526   7.742   0.625   4.659
 9300W        W74527  12.303  11.330  12.586
 9301W        W74528  39.531  38.597   2.412
 9302W        W74529   3.175  36.872  10.329
 9303W        W74530  13.759   0.636   2.941
 9304W        W74531   2.904  12.727  10.676
 9305W        W74532  38.089  27.131  13.412
 9306W        W74533  32.394  38.106   5.062
 9307W        W74534  40.467   6.705  14.340
 9308W        W74535  24.123  15.688   4.623
 9309W        W74536  37.132  42.986  12.082
 9310W        W74537  28.940  38.960  14.680
 9311W        W74538  10.612  19.454   1.354
 9312W        W74539  37.163  16.250  14.860
 9313W        W74540  36.812  27.347   0.718
 9314W        W74541  11.911  16.139   0.567
 9315W        W74542  44.396  40.467   4.075
 9316W        W74543  33.854  11.955   4.112
 9317W        W74544  17.606  35.141   1.719
 9318W        W74545  40.413  30.477  12.386
 9319W        W74546  37.579  37.894  10.296
 9320W        W74547   9.620   4.905  14.952
 9321W        W74548  12.253  31.261  13.314
 9322W        W74549  15.804   8.437  14.268
 9323W        W74550  41.562  19.830  11.642
 9324W        W74551  37.560  24.794   3.252
 9325W        W74552  42.016  12.156  12.091
 9326W        W74553   1.034  41.971   2.232
 9327W        W74554  36.426  32.089  13.425
 9328W        W74555  18.989   2.692  11.730
 9329W        W74556  25.255  40.225  12.348
 9330W        W74557  36.319  18.421   3.556
 9331W        W74558  22.073  29.517  13.869
 9332W        W74559  42.143  10.485   1.009
 9333W        W74560  44.842  36.385   2.258
 9334W        W74561  28.418  40.228  11.079
 9335W        W74562  20.765  29.004   2.185
 9336W        W74563  30.142  27.400  12.601
 9337W        W74564  43.839   0.448   4.868
 9338W        W74565  44.891  16.374   0.296
 9339W        W74566  22.969  30.900   2.392
 9340W        W74567  36.548  44.207  10.749
 9341W        W74568  23.620  34.263  12.441
 9342W        W74569  19.530  26.058  12.196
 9343W        W74570  25.650  10.851  12.486
 9344W        W74571  13.814   8.371  11.640
 9345W        W74572  12.828  30.181   3.817
 9346W        W74573   7.624  17.423   2.825
 9347W        W74574  14.576  38.726   2.867
 9348W        W74575   9.285  12.495   2.220
 9349W        W74576  27.021  39.488   3.201
 9350W        W74577   7.709  21.261   1.434
 9351W        W74578  16.821  37.826  11.572
 9352W        W74579  14.932  37.052  11.545
 9353W        W74580   8.442  29.997  14.807
 9354W        W74581  19.635  26.652   1.770
 9355W        W74582  36.032   2.160  14.067
 9356W        W74583  38.330  43.320   0.669
 9357W        W74584  35.463  39.307   4.563
 9358W        W74585  28.539  37.996  14.506
 9359W        W74586  39.348   1.405   1.290
 9360W        W74587  28.199  39.225   4.519
 9361W        W74588  18.143  36.988  12.470
 9362W        W74589  35.616  34.846  12.366
 9363W        W74590  31.233  27.398  12.570
 9364W        W74591  14.984  37.163  13.270
 9365W        W74592  44.568   5.294  14.403
 9366W        W74593  39.929  11.525  12.521
 9367W        W74594   3.088  24.057  11.913
 9368W        W74595  30.710   6.067  10.823
 9369W        W74596  37.987  37.384  12.398
 9370W        W74597  35.604  41.255   3.269
 9371W        W74598  21.322   4.411  14.739
 9372W        W74599  29.646  37.305  11.662
 9373W        W74600  28.631  32.276   3.888
 9374W        W74601  13.334  25.739   2.196
 9375W        W74602  22.797  30.943   3.239
 9376W        W74603  37.015  20.078   3.284
 9377W        W74604  34.596  36.015   5.268
 9378W        W74605  32.198   6.521  10.577
 9379W        W74606  27.273  23.487   4.218
 9380W        W74607  43.907  44.052  10.924
 9381W        W74608   7.442  16.779  14.992
 9382W        W74609  33.801  37.949  10.376
 9383W        W74610  26.907  15.783  11.043
 9384W        W74611  41.734   1.926   2.084
 9385W        W74612  35.360  41.399  14.201
 9386W        W74613  40.956  12.174   3.792
 9387W        W74614  32.547   9.243   4.224
 9388W        W74615  42.734  38.479   0.343
 9389W        W74616   4.817   9.173   4.746
 9390W        W74617  42.940  27.506   1.881
 9391W        W74618  11.155  34.998  11.473
 9392W        W74619  44.994  32.943  12.030
 9393W        W74620  40.169  37.055   4.299
 9394W        W74621  42.730  31.590   2.903
 9395W        W74622   2.505  29.094   1.525
 9396W        W74623  28.643  14.220   4.998
 9397W        W74624  16.685  44.131   0.278
 9398W        W74625  13.877   3.025   3.205
 9399W        W74626  22.186  34.768   4.045
 9400W        W74627  28.204  10.290   4.035
 9401W        W74628  27.496   9.395   0.805
 9402W        W74629  22.462  12.332  14.499
 9403W        W74630   7.225  13.828  12.056
 9404W        W74631   6.292  30.864   0.041
 9405W        W74632  14.341  40.600   2.257
 9406W        W74633  26.697  28.755   0.246
 9407W        W74634  10.856  14.195  13.888
 9408W        W74635  24.079  29.541  10.413
 9409W        W74636  21.569   8.753   4.648
 9410W        W74637  43.876  14.724   1.746
 9411W        W74638  28.006   1.643  13.943
 9412W        W74639  18.033  20.756   1.992
 9413W        W74640   3.822  18.290  12.113
 9414W        W74641  28.917  40.041  13.326
 9415W        W74642  31.508  37.495   4.117
 9416W        W74643  30.981  28.139   0.491
 9417W        W74644  15.132  13.947  14.971
 9418W        W74645   7.100  26.508  10.000
 9419W        W74646   2.998  22.542   3.308
 9420W        W74647  44.704  11.306  11.978
 9421W        W74648  20.541  35.645   4.499
 9422W        W74649  22.000  17.113  13.944
 9423W        W74650  18.026  37.963   1.386
 9424W        W74651   8.865   5.725  14.810
 9425W        W74652  39.509   9.687   0.413
 9426W        W74653   3.877  27.905  11.561
 9427W        W74654   7.754   2.592  10.880
 9428W        W74655  40.835  22.565  13.977
 9429W        W74656  39.338  26.540  12.091
 9430W        W74657  36.376  18.346   3.048
 9431W        W74658  10.079  27.180  12.941
 9432W        W74659  13.682   2.351   1.897
 9433W        W74660   5.498  42.264   1.160
 9434W        W74661  23.620   9.614   3.437
 9435W        W74662  39.425  10.441   3.825
 9436W        W74663   9.498  10.776   4.783
 9437W        W74664  11.238  26.946   4.147
 9438W        W74665  18.674  24.565  13.690
 9439W        W74666   8.915  11.206   0.347
 9440W        W74667  38.395  34.016   1.055
 9441W        W74668   5.327  13.877   2.708
 9442W        W74669  26.531  12.870   0.290
 9443W        W74670   8.344  42.561  14.984
 9444W        W74671  23.870  17.219  11.138
 9445W        W74672  43.608  38.589   2.248
 9446W        W74673  21.080  13.482   3.118
 9447W        W74674  43.667  38.469  11.027
 9448W        W74675  18.123  38.141  11.933
 9449W        W74676   7.314  23.682  13.285
 9450W        W74677  35.500  31.677  11.210
 9451W        W74678  37.107  15.730   0.624
 9452W        W74679  30.238   3.541  13.123
 9453W        W74680  10.370   2.480   2.328
 9454W        W74681   1.810  25.415  11.946
 9455W        W74682  21.446  28.148   0.793
 9456W        W74683  35.336  32.077   0.364
 9457W        W74684  24.050  18.562   0.684
 9458W        W74685   3.189  27.922   1.579
 9459W        W74686  16.794  17.740   2.408
 9460W        W74687  14.298  23.015   2.207
 9461W        W74688  13.240   8.854  10.940
 9462W        W74689  40.578  17.146   0.417
 9463W        W74690  41.996  28.525   1.687
 9464W        W74691  21.666   4.379  12.119
 9465W        W74692  34.838  36.329   1.897
 9466W        W74693   1.020  11.235  14.829
 9467W        W74694   0.709   6.998   3.660
 9468W        W74695  26.568  43.474   3.093
 9469W        W74696  43.618   5.763   4.315
 9470W        W74697   3.883  13.109   4.240
 9471W        W74698  17.926   1.317  13.437
 9472W        W74699  43.327  14.123   4.717
 9473W        W74700  35.785  12.050  14.433
 9474W        W74701   9.766  32.663  14.925
 9475W        W74702  15.136  38.302   2.293
 9476W        W74703  11.533  26.599  11.994
 9477W        W74704  31.576   8.150   1.186
 9478W        W74705  39.068  16.700   1.374
 9479W        W74706   4.301  10.752   4.717
 9480W        W74707  34.795  11.831  12.357
 9481W        W74708   6.606  17.290  13.028
 9482W        W74709  35.498  44.067  13.093
 9483W        W74710  10.315   6.262   1.384
 9484W        W74711   7.759  23.402   1.864
 9485W        W74712   5.330  10.764   4.605
 9486W        W74713   3.989  21.593   0.771
 9487W        W74714  30.016  10.124  14.529
 9488W        W74715   4.043  39.947   1.288
 9489W        W74716  16.635  43.657  12.103
 9490W        W74717  34.203  40.600  13.892
 9491W        W74718  41.161   0.816   1.376
 9492W        W74719  13.101  29.043   3.253
 9493W        W74720  34.785  24.453   1.753
 9494W        W74721  29.008  17.195   5.155
 9495W        W74722  44.831  13.843   4.453
 9496W        W74723   2.794   3.805  14.979
 9497W        W74724   6.951  23.202   3.135
 9498W        W74725  18.860   9.989  12.461
 9499W        W74726   2.797  25.816   2.317
 9500W        W74727  15.181  33.951  13.065
 9501W        W74728  28.481  40.648   0.163
 9502W        W74729  23.344  36.907  14.054
 9503W        W74730   8.584   2.398   1.908
 9504W        W74731  34.861  12.195  10.512
 9505W        W74732  36.365  12.124   1.902
 9506W        W74733   4.515  38.618  12.372
 9507W        W74734  36.618  34.717  11.337
 9508W        W74735   2.943  41.271   4.984
 9509W        W74736  22.699  26.415  10.493
 9510W        W74737  15.681  43.488  12.928
 9511W        W74738  31.579  13.813  11.344
 9512W        W74739   8.841   0.882   1.899
 9513W        W74740  29.978  12.738  12.393
 9514W        W74741  35.178   7.169   3.311
 9515W        W74742   8.149  41.008  13.346
 9516W        W74743  35.005  14.634   0.848
 9517W        W74744  26.776  14.108  12.594
 9518W        W74745  23.926  15.231   4.836
 9519W        W74746  31.680  28.202   3.279
 9520W        W74747  40.551  24.232  12.578
 9521W        W74748   7.710  28.196  11.300
 9522W        W74749   9.984  19.134  12.021
 9523W        W74750  23.159  38.444   3.599
 9524W        W74751  29.133  19.754  13.268
 9525W        W74752  26.168  28.603  10.713
 9526W        W74753  17.080  19.460  10.084
 9527W        W74754  17.618  18.057   1.612
 9528W        W74755  42.873   3.740  13.460
 9529W        W74756  25.127  21.315  13.615
 9530W        W74757  18.652  13.760  14.750
 9531W        W74758   6.335   4.595   4.951
 9532W        W74759  18.315  40.802   2.775
 9533W        W74760  27.688  38.841   3.689
 9534W        W74761  17.776  23.578   4.125
 9535W        W74762   2.975  28.178   0.979
 9536W        W74763  40.276  12.383  14.472
 9537W        W74764  40.843   6.593  10.729
 9538W        W74765  22.380  44.753  12.376
 9539W        W74766  44.116  41.480  13.452
 9540W        W74767  11.781  25.165  14.879
 9541W        W74768   7.289  40.920  11.876
 9542W        W74769  43.299   4.956  14.617
 9543W        W74770  13.248  16.761  13.031
 9544W        W74771  22.071  38.010  14.971
 9545W        W74772  19.236   5.222   4.528
 9546W        W74773  17.115  39.478   0.850
 9547W        W74774  28.597  14.822  14.069
 9548W        W74775   9.288  17.313   2.393
 9549W        W74776  32.839   6.820   0.283
 9550W        W74777   0.723  39.519   1.423
 9551W        W74778   4.788  44.363  13.441
 9552W        W74779   0.030  20.697   2.241
 9553W        W74780  26.654  10.446   3.663
 9554W        W74781  41.121  37.822  14.158
 9555W        W74782  14.767  27.471   3.201
 9556W        W74783  12.413  14.693  11.547
 9557W        W74784   0.973   7.960   1.764
 9558W        W74785  34.582   0.812  11.204
 9559W        W74786   0.633  38.091   3.691
 9560W        W74787  31.616  27.900   0.410
 9561W        W74788  19.650  12.298   3.416
 9562W        W74789  34.931  27.561   3.888
 9563W        W74790  28.208  34.513  11.906
 9564W        W74791  36.062   4.525   2.639
 9565W        W74792   1.051  25.903  11.440
 9566W        W74793   7.790  42.444   2.825
 9567W        W74794  24.477   9.217  13.748
 9568W        W74795   6.214  11.284  14.259
 9569W        W74796  34.279  26.314   2.698
 9570W        W74797  40.913  23.704   0.927
 9571W        W74798  13.623  17.152  14.133
 9572W        W74799   2.387  35.132  13.514
 9573W        W74800  31.904   1.814  14.373
 9574W        W74801   8.092  18.719  12.873
 9575W        W74802   1.970  38.808   3.673
 9576W        W74803  31.022  19.693  13.909
 9577W        W74804  36.624  40.802  14.272
 9578W        W74805  36.777  29.741  14.675
 9579W        W74806  15.321  12.168  12.440
 9580W        W74807  12.625  26.992  10.642
 9581W        W74808  28.934   6.338   4.198
 9582W        W74809  29.247  44.404  11.077
 9583W        W74810  19.929  28.820  14.142
 9584W        W74811  33.138  42.207  12.792
 9585W        W74812  21.069  30.694   0.258
 9586W        W74813  30.545  27.640  11.782
 9587W        W74814  24.556   8.327  10.754
 9588W        W74815  38.955  27.308  12.948
 9589W        W74816  20.062  16.944  11.234
 9590W        W74817   8.378  33.790   4.883
 9591W        W74818  22.526   8.756  14.600
 9592W        W74819   7.303  16.505   4.925
 9593W        W74820   9.749  19.219   3.594
 9594W        W74821  23.569   9.157  14.761
 9595W        W74822   8.138  16.785  12.030
 9596W        W74823  17.067  22.420  10.719
 9597W        W74824  27.060  40.204  13.690
 9598W        W74825  14.726  22.611  11.202
 9599W        W74826  20.803  31.383   2.483
 9600W        W74827  17.066  25.549   4.101
 9601W        W74828  23.448  38.009   3.587
 9602W        W74829  21.076   5.710  12.656
 9603W        W74830  43.173  44.152  10.601
 9604W        W74831  31.505  25.670  13.909
 9605W        W74832   3.877   8.384  14.404
 9606W        W74833  19.043  12.265  11.702
 9607W        W74834  38.918  38.805   1.205
 9608W        W74835  37.784   1.897  14.294
 9609W        W74836  39.065   7.642   1.733
 9610W        W74837   6.798  14.170  14.344
 9611W        W74838  16.575   9.285   0.337
 9612W        W74839  33.682  19.573   0.914
 9613W        W74840  28.102  26.051  14.315
 9614W        W74841  35.462  40.989   1.231
 9615W        W74842  29.000  17.396   9.884
 9616W        W74843  17.678  31.217  12.106
 9617W        W74844  26.153  33.817  13.775
 9618W        W74845  38.048  26.594   3.816
 9619W        W74846  11.644  18.956  13.213
 9620W        W74847  38.501  30.583   0.909
 9621W        W74848  17.684   3.633  11.144
 9622W        W74849  41.930  38.806  10.750
 9623W        W74850  21.712  25.156  14.556
 9624W        W74851  44.500  14.016   4.079
 9625W        W74852   3.307  22.355  12.798
 9626W        W74853  13.957  26.295  12.488
 9627W        W74854  33.067   2.531  13.847
 9628W        W74855  24.617  29.633   0.861
 9629W        W74856  23.986  43.851   3.662
 9630W        W74857  23.370  38.420  11.168
 9631W        W74858  25.220  41.400   2.786
 9632W        W74859   8.315  32.579   2.254
 9633W        W74860   1.017  44.314  13.937
 9634W        W74861  12.196   6.450  13.542
 9635W        W74862  35.889  10.608  14.304
 9636W        W74863   3.422  11.293   0.013
 9637W        W74864  15.377  34.389   3.294
 9638W        W74865  26.428  21.118  14.026
 9639W        W74866  42.823  20.051   1.640
 9640W        W74867   8.823   1.753   2.919
 9641W        W74868   6.380  22.072   3.351
 9642W        W74869  39.101  13.331  12.954
 9643W        W74870  14.774  18.591   3.817
 9644W        W74871   5.219  40.103   3.654
 9645W        W74872  12.935  42.611   3.815
 9646W        W74873  23.249  36.971  11.959
 9647W        W74874  26.528  38.301  11.135
 9648W        W74875  40.016  32.004   0.692
 9649W        W74876  11.666  32.822   2.846
 9650W        W74877   1.503   5.801   1.205
 9651W        W74878  10.212  23.529  10.672
 9652W        W74879  33.572  33.142   3.837
 9653W        W74880  13.807  13.747  11.729
 9654W        W74881  36.409  18.826   0.324
 9655W        W74882  19.383  20.117  11.876
 9656W        W74883  42.585  25.761  11.482
 9657W        W74884  13.210  37.057   1.325
 9658W        W74885  21.652  21.492  10.753
 9659W        W74886  11.360  15.605  14.560
 9660W        W74887   6.216  19.755  14.843
 9661W        W74888  30.432   8.386  13.509
 9662W        W74889  11.288  35.532  12.619
 9663W        W74890  15.089   5.853   3.587
 9664W        W74891  33.910   7.572   0.827
 9665W        W74892   7.466  40.541   0.258
 9666W        W74893  38.784  40.814   2.782
 9667W        W74894  30.031  24.933   2.790
 9668W        W74895  15.682  25.280  10.697
 9669W        W74896  42.372  29.586   0.018
 9670W        W74897  39.046  36.555   4.598
 9671W        W74898  22.257   2.224  14.345
 9672W        W74899   4.548  21.778   1.071
 9673W        W74900  32.241   8.953  13.870
 9674W        W74901   3.875  17.244   0.379
 9675W        W74902   2.905  16.635   2.123
 9676W        W74903  13.432  20.080   2.901
 9677W        W74904  22.650  21.350   1.464
 9678W        W74905  30.106  21.280  13.184
 9679W        W74906  25.967  36.412   1.745
 9680W        W74907  30.426   7.213   2.222
 9681W        W74908  15.578  31.134  12.131
 9682W        W74909  13.355   9.165   2.819
 9683W        W74910  20.141  18.198  13.236
 9684W        W74911  41.010  44.114  14.299
 9685W        W74912  22.150   9.418  14.974
 9686W        W74913  32.602   3.287  14.461
 9687W        W74914  11.624  25.432  11.885
 9688W        W74915   7.721  36.276  13.527
 9689W        W74916  11.588   6.266  11.947
 9690W        W74917  19.373  44.396   1.286
 9691W        W74918  26.432  18.157   4.202
 9692W        W74919  26.545  30.199  11.616
 9693W        W74920  35.835   4.770  10.709
 9694W        W74921  38.891  21.124   1.840
 9695W        W74922  37.071   2.840   4.329
 9696W        W74923  36.853   4.677  11.974
 9697W        W74924  10.192   1.003  12.510
 9698W        W74925   8.402  20.082   3.628
 9699W        W74926  18.479  36.836   1.073
 9700W        W74927   2.729   7.044  12.931
 9701W        W74928  15.144  33.418   3.629
 9702W        W74929  38.236  15.861   1.738
 9703W        W74930  29.619  33.056  11.686
 9704W        W74931  34.670  28.897  13.787
 9705W        W74932  43.998  43.442  13.927
 9706W        W74933  38.986  40.539   4.208
 9707W        W74934  22.995  39.985   0.719
 9708W        W74935  17.130  38.466   3.343
 9709W        W74936   3.064  27.902  11.206
 9710W        W74937  34.957  14.232   1.204
 9711W        W74938  27.473  40.038   0.106
 9712W        W74939  23.181  25.179   0.428
 9713W        W74940  38.329  13.756  14.668
 9714W        W74941  42.955  41.574   4.483
 9715W        W74942  38.343  26.038   2.725
 9716W        W74943   0.893  44.995  11.211
 9717W        W74944  44.504  33.926   2.305
 9718W        W74945   3.476  17.427  13.943
 9719W        W74946   3.819   6.692  12.389
 9720W        W74947  17.327   4.835   1.282
 9721W        W74948  14.432   9.759  10.207
 9722W        W74949  37.084  14.120   3.796
 9723W        W74950  19.167  39.698   4.075
 9724W        W74951  12.469  36.219  13.504
 9725W        W74952  42.926  28.414   5.110
 9726W        W74953   1.380  42.399   2.809
 9727W        W74954  41.408  30.188   3.424
 9728W        W74955  15.037  10.946   4.105
 9729W        W74956  41.380  41.134   4.107
 9730W        W74957   4.760  35.143  14.647
 9731W        W74958  42.067  42.999   9.877
 9732W        W74959  24.359  23.374   2.525
 9733W        W74960  40.487   1.748  12.057
 9734W        W74961   9.766   4.442   4.826
 9735W        W74962  29.769  19.744  10.821
 9736W        W74963  26.721   9.045   2.743
 9737W        W74964  24.872  15.605   4.045
 9738W        W74965   1.339  12.655  13.912
 9739W        W74966  19.010  14.576   1.434
 9740W        W74967  39.561  35.467   2.725
 9741W        W74968  13.631   9.034  12.813
 9742W        W74969  11.258  28.908   0.346
 9743W        W74970  23.051  42.423  10.739
 9744W        W74971  25.748  18.060   0.235
 9745W        W74972  26.837   6.451  12.462
 9746W        W74973  37.062  28.572   2.250
 9747W        W74974  12.687   6.652   1.326
 9748W        W74975  40.550  34.860   0.830
 9749W        W74976   4.385  17.194   0.293
 9750W        W74977   6.540  15.930  13.781
 9751W        W74978  39.024  13.310  10.245
 9752W        W74979   5.657  39.891   3.785
 9753W        W74980   7.226  39.288   1.176
 9754W        W74981  11.433  42.464   4.875
 9755W        W74982  42.936  44.187  13.328
 9756W        W74983   7.418  10.956   3.682
 9757W        W74984  31.088  44.380   0.328
 9758W        W74985  30.675  33.168  13.937
 9759W        W74986  34.635  18.506   1.393
 9760W        W74987  15.922  32.130  11.491
 9761W        W74988  41.363  10.587  12.812
 9762W        W74989  41.311  22.516   1.746
 9763W        W74990  12.512   0.133   3.528
 9764W        W74991  35.812  19.000   2.403
 9765W        W74992   4.317   9.092  10.212
 9766W        W74993  21.551  29.620   4.843
 9767W        W74994   7.397  41.386  11.575
 9768W        W74995   4.908   5.945  11.209
 9769W        W74996   2.037  41.400  11.150
 9770W        W74997  11.232  19.838   1.734
 9771W        W74998  15.566  12.353   0.456
 9772W        W74999  36.902  19.560   0.307
 9773W        W75000  11.097  32.629  11.997
 9774W        W75001  16.147  24.987   3.333
 9775W        W75002  38.382  43.310   2.795
 9776W        W75003  39.320   1.224   2.102
 9777W        W75004  36.078  40.779  14.998
 9778W        W75005  41.541   8.713   1.839
 9779W        W75006   8.152  35.553  12.954
 9780W        W75007  27.672  14.528   4.071
 9781W        W75008   4.174  13.648  12.038
 9782W        W75009  29.912  36.114   1.284
 9783W        W75010   9.183   1.307  12.061
 9784W        W75011  43.657  23.978   2.903
 9785W        W75012  17.038   3.273   1.820
 9786W        W75013  21.035  36.008   2.277
 9787W        W75014  37.807  37.551  11.941
 9788W        W75015  16.424  23.726   1.791
 9789W        W75016  33.094   8.261   3.440
 9790W        W75017  20.420  20.204   0.661
 9791W        W75018  40.429  29.626   2.219
 9792W        W75019  40.555  36.291  11.155
 9793W        W75020  14.379  35.820   1.640
 9794W        W75021   9.721  11.369  10.708
 9795W        W75022  43.335  28.482  10.619
 9796W        W75023  43.980   3.266  14.480
 9797W        W75024   2.354   0.040   1.113
 9798W        W75025  42.003  22.464  13.578
 9799W        W75026  14.846  33.054   0.788
 9800W        W75027   9.789  29.360  11.548
 9801W        W75028  10.325   0.550   1.484
 9802W        W75029  41.977  32.040  12.408
 9803W        W75030  36.018  19.536  11.550
 9804W        W75031  37.763  44.809   0.915
 9805W        W75032   7.476  15.230  12.844
 9806W        W75033  44.652  10.299   3.391
 9807W        W75034   3.787  12.120  12.437
 9808W        W75035  30.697  19.184  12.637
 9809W        W75036   3.837  44.843  11.847
 9810W        W75037  34.460  27.877   1.328
 9811W        W75038   9.045   6.272  14.440
 9812W        W75039  43.303   4.235  11.404
 9813W        W75040  12.623  25.568   2.304
 9814W        W75041  18.357   6.734   1.747
 9815W        W75042  16.064  29.817  13.141
 9816W        W75043  33.115  41.704  12.666
 9817W        W75044  21.977  36.547  14.538
 9818W        W75045  40.911  20.996  12.931
 9819W        W75046  20.958  17.585   2.297
 9820W        W75047  43.223  20.780  10.494
 9821W        W75048  25.102  22.136  12.743
 9822W        W75049  12.271  16.994   0.298
 9823W        W75050  25.994  34.879  10.812
 9824W        W75051  32.789  15.341  13.725
 9825W        W75052  14.638  32.125   4.047
 9826W        W75053   4.217   2.835   2.887
 9827W        W75054   3.024  33.507  12.939
 9828W        W75055  23.844  41.644   5.087
 9829W        W75056  30.440  29.133  13.330
 9830W        W75057   2.873  31.360  12.103
 9831W        W75058  44.229   3.992  12.353
 9832W        W75059  25.141  31.226   0.383
 9833W        W75060   3.472  30.739   4.587
 9834W        W75061  25.743  27.664  12.056
 9835W        W75062  42.290   2.354  12.464
 9836W        W75063  38.696  10.496   4.064
 9837W        W75064  42.888  28.861   4.197
 9838W        W75065  35.732   0.681   4.555
 9839W        W75066  38.312  16.858   0.320
 9840W        W75067  24.905   4.277  11.526
 9841W        W75068   9.392  13.735   3.690
 9842W        W75069  41.495  32.026  12.193
 9843W        W75070  22.073  11.776   3.873
 9844W        W75071   4.812   8.268  12.949
 9845W        W75072  15.958  32.181  10.181
 9846W        W75073  19.113  40.229   2.654
 9847W        W75074  34.435  38.434  12.671
 9848W        W75075  16.607   2.413   1.709
 9849W        W75076  33.708  26.513  13.442
 9850W        W75077  35.022  24.752   2.289
 9851W        W75078   7.447  41.389  14.725
 9852W        W75079  16.837  24.986  12.188
 9853W        W75080   5.358  10.835   4.082
 9854W        W75081   3.758  33.881   3.106
 9855W        W75082  23.581  28.708   2.149
 9856W        W75083  38.832  26.608   3.171
 9857W        W75084  20.282  16.241   2.765
 9858W        W75085  20.243  23.055  11.015
 9859W        W75086  38.522  38.532   0.370
 9860W        W75087   2.924  35.534   4.659
 9861W        W75088  35.485  44.096  12.027
 9862W        W75089  23.718  31.705  11.490
 9863W        W75090  36.152  16.068   2.740
 9864W        W75091  35.390  41.861  11.654
 9865W        W75092  15.568   1.697  12.402
 9866W        W75093  28.434  17.622  14.806
 9867W        W75094  21.034  18.483  11.539
 9868W        W75095  28.570  14.830   1.671
 9869W        W75096  42.430   4.321   0.339
 9870W        W75097  12.789  28.115  12.507
 9871W        W75098   8.604   0.814  14.616
 9872W        W75099  38.452   7.391  13.314
 9873W        W75100  39.602  29.148   1.797
 9874W        W75101  33.655   5.876   4.236
 9875W        W75102  22.114  24.334   5.162
 9876W        W75103  34.042   7.226  14.799
 9877W        W75104  34.054  20.090   2.752
 9878W        W75105  17.852   2.128   3.287
 9879W        W75106   1.338   5.458   3.142
 9880W        W75107  24.262  30.806  14.973
 9881W        W75108  44.279   6.500   4.555
 9882W        W75109   6.399  43.371  10.729
 9883W        W75110  44.164  42.806   4.648
 9884W        W75111  36.573  41.765  14.378
 9885W        W75112  21.981  17.511   1.408
 9886W        W75113  16.073  13.287  12.365
 9887W        W75114  36.863  11.884  12.044
 9888W        W75115  19.688  23.505  14.508
 9889W        W75116   8.922  17.762   2.166
 9890W        W75117   6.593   4.692   3.278
 9891W        W75118   6.420  24.959   9.833
 9892W        W75119  14.054  11.036  12.782
 9893W        W75120  30.659  32.906  10.778
 9894W        W75121  36.433   1.274   3.155
 9895W        W75122  23.149  21.789  12.052
 9896W        W75123  42.803  16.189   1.254
 9897W        W75124   4.297  12.815  14.408
 9898W        W75125  22.588  12.877  13.077
 9899W        W75126  22.791  22.374  10.749
 9900W        W75127  15.113  11.268   3.328
 9901W        W75128  29.773  39.502  14.992
 9902W        W75129  31.477  38.570  14.056
 9903W        W75130  21.776   9.617   2.766
 9904W        W75131   8.724  29.579   3.163
 9905W        W75132  12.146  41.178   3.128
 9906W        W75133   6.431  32.900  11.023
 9907W        W75134  24.295  15.316   1.437
 9908W        W75135  43.318   4.912   3.743
 9909W        W75136  37.440  17.337   1.412
 9910W        W75137   3.178  38.551  11.042
 9911W        W75138   0.665  36.825  12.006
 9912W        W75139  44.594   2.327   2.647
 9913W        W75140  38.565  35.809   2.268
 9914W        W75141  11.874   7.622  12.011
 9915W        W75142   9.956  15.088   1.971
 9916W        W75143  22.228   1.891   2.660
 9917W        W75144  25.116  39.955  14.302
 9918W        W75145   4.837   4.392   1.258
 9919W        W75146   6.779  18.845  11.541
 9920W        W75147  14.193   0.782   1.223
 9921W        W75148  39.808  26.806  14.284
 9922W        W75149  40.565  23.730  14.431
 9923W        W75150  20.180  41.100  12.590
 9924W        W75151  40.497  27.971   0.303
 9925W        W75152  15.946  33.694  12.084
 9926W        W75153  34.499   5.749  11.445
 9927W        W75154  12.606  27.830  14.763
 9928W        W75155   3.082  42.485  13.756
 9929W        W75156  36.142  11.580   4.920
 9930W        W75157  18.051  28.887   3.710
 9931W        W75158  39.991  38.142   3.636
 9932W        W75159  32.502  23.659   4.764
 9933W        W75160  26.630  15.162   0.088
 9934W        W75161   6.786  24.676   4.403
 9935W        W75162  11.094  30.057   5.020
 9936W        W75163  43.346   2.470   0.714
 9937W        W75164   0.353  41.824  10.705
 9938W        W75165  43.790  32.936  14.766
 9939W        W75166  21.345  29.310   4.082
 9940W        W75167  40.924  14.053  13.912
 9941W        W75168  43.026  30.378   4.716
 9942W        W75169  23.049  13.649  13.015
 9943W        W75170  12.561  11.201   3.241
 9944W        W75171  27.931  32.149  12.413
 9945W        W75172  40.575  43.491  13.570
 9946W        W75173  30.577  23.024  13.560
 9947W        W75174  40.343  20.114  13.867
 9948W        W75175  39.078  24.591  11.630
 9949W        W75176  33.372  39.483  12.890
 9950W        W75177  43.518  25.131   0.652
 9951W        W75178  23.753  29.742   0.804
 9952W        W75179  15.971  23.332  12.095
 9953W        W75180   5.778  12.197  11.523
 9954W        W75181   2.692  16.313   3.227
 9955W        W75182   8.271  13.597  10.278
 9956W        W75183  15.113  20.678   4.553
 9957W        W75184  16.543  41.318  13.510
 9958W        W75185  25.594  12.152  13.835
 9959W        W75186  21.716  27.156  12.762
 9960W        W75187  41.856  39.742  13.883
 9961W        W75188  33.124  16.827   4.235
 9962W        W75189  42.109  41.210  12.077
 9963W        W75190  18.593  10.558  10.305
 9964W        W75191  37.172  28.917  11.968
 9965W        W75192  28.165  31.105  12.515
 9966W        W75193  40.001  31.429   2.853
 9967W        W75194  19.445  27.168  13.666
 9968W        W75195  14.886  14.713   1.475
 9969W        W75196   9.196  17.576  13.714
 9970W        W75197   2.365   7.662   1.467
 9971W        W75198  22.068   5.008   0.021
 9972W        W75199  18.018  22.869   3.116
 9973W        W75200  22.300  23.611  14.480
 9974W        W75201  40.982  42.394  14.823
 9975W        W75202   6.766  14.214  14.930
 9976W        W75203  44.780   3.505  13.332
 9977W        W75204  17.306  30.395  13.794
 9978W        W75205  12.280   0.948   0.892
 9979W        W75206  42.534   3.580  14.419
 9980W        W75207   8.737  41.509   3.223
 9981W        W75208  27.128  21.977  10.712
 9982W        W75209  24.238   6.226  13.448
 9983W        W75210  22.261  15.643   4.419
 9984W        W75211  10.719  26.984   1.112
 9985W        W75212  15.016  35.431   0.294
 9986W        W75213  25.971  13.192   1.918
 9987W        W75214  13.877  13.043   1.436
 9988W        W75215  21.943  14.757  14.344
 9989W        W75216  33.456   8.415   0.048
 9990W        W75217   9.015   7.640  13.973
 9991W        W75218   7.861  43.827  12.387
 9992W        W75219  39.960  42.758   1.371
 9993W        W75220  35.616  14.645  14.341
 9994W        W75221  36.870   4.689  11.075
 9995W        W75222  38.094  30.458  12.916
 9996W        W75223  40.975   4.264  13.370
 9997W        W75224   0.803  28.646   1.135
 9998W        W75225   2.287  10.839   2.237
 9999W        W75226   7.974   6.933   4.931
10000W        W75227  34.452  30.573   0.911
10001W        W75228  27.978  19.531  13.022
10002W        W75229  43.928  11.073   2.704
10003W        W75230  38.422  14.817  12.123
10004W        W75231  33.272  18.848  14.782
10005W        W75232  30.423  33.996   0.145
10006W        W75233  30.694  25.647  13.402
10007W        W75234   6.741  21.283   1.284
10008W        W75235  14.750  15.002  12.819
10009W        W75236  34.675   8.171   2.165
10010W        W75237  17.712  17.056   4.309
10011W        W75238   2.427  42.311   2.280
10012W        W75239  36.832  18.243   4.262
10013W        W75240  15.455  24.885  13.917
10014W        W75241  42.479  44.724  14.417
10015W        W75242  18.353   3.316   3.658
10016W        W75243  35.444  21.249  13.909
10017W        W75244  42.720  36.598   1.677
10018W        W75245   2.831   4.032  14.520
10019W        W75246  19.154  29.298   3.875
10020W        W75247   8.604   9.382  12.690
10021W        W75248  36.164   3.154  13.835
10022W        W75249  12.032  30.896   4.582
10023W        W75250  32.885  15.855  13.435
10024W        W75251  29.036   6.510   4.987
10025W        W75252   3.262  23.067  14.756
10026W        W75253  34.550  26.634   1.719
10027W        W75254  38.840   0.529  10.727
10028W        W75255  16.085  31.824   3.953
10029W        W75256  35.938  44.096   2.567
10030W        W75257   2.728  33.391   3.446
10031W        W75258  16.153  25.592   4.349
10032W        W75259  26.493  24.481   1.568
10033W        W75260   6.823  32.192  13.990
10034W        W75261   7.648  28.280  12.023
10035W        W75262  26.124  35.393  14.769
10036W        W75263   2.453  33.308  12.503
10037W        W75264  42.463  17.194  12.509
10038W        W75265  28.645  24.655  12.134
10039W        W75266  44.218  33.013   2.411
10040W        W75267  38.015  26.170  12.553
10041W        W75268  42.395   2.091   3.664
10042W        W75269  19.627   8.634  14.974
10043W        W75270  44.755  35.626  14.589
10044W        W75271  10.178  42.795   2.248
10045W        W75272  11.250  12.425  10.840
10046W        W75273   9.529  30.041  12.095
10047W        W75274  40.549  21.030   0.910
10048W        W75275  11.616  19.294   0.384
10049W        W75276  36.437  33.590   4.261
10050W        W75277   7.881   7.761   4.862
10051W        W75278  42.267  22.258  13.982
10052W        W75279  15.627  10.228   1.994
10053W        W75280  27.702  29.397   1.377
10054W        W75281  13.301   9.782  12.184
10055W        W75282  41.407  26.186   0.361
10056W        W75283  42.550   4.921  11.571
10057W        W75284  34.188  43.288   1.838
10058W        W75285  36.603  36.976  12.943
10059W        W75286  42.893  33.101  10.646
10060W        W75287   0.125   2.551  13.066
10061W        W75288   0.789  12.093  12.007
10062W        W75289   9.675  16.116  12.582
10063W        W75290  23.166  15.093  11.971
10064W        W75291  32.487  37.425   2.120
10065W        W75292  27.544  35.441   3.461
10066W        W75293  10.422  30.882   0.774
10067W        W75294  14.872  39.956  10.794
10068W        W75295  17.522  14.757  11.113
10069W        W75296  31.375  25.061  14.000
10070W        W75297  24.462   4.215   4.633
10071W        W75298  17.821   5.378  13.213
10072W        W75299  24.933   1.909   0.902
10073W        W75300  16.156  40.784   0.967
10074W        W75301   1.276   0.833  12.614
10075W        W75302   8.233  37.547   1.136
10076W        W75303  41.082   3.576   2.059
10077W        W75304  42.004   7.053   4.541
10078W        W75305   7.875   8.816  12.614
10079W        W75306  38.786  16.774   4.349
10080W        W75307  40.722  36.973   4.658
10081W        W75308  39.271   6.121   3.586
10082W        W75309  21.822  26.633   4.131
10083W        W75310  33.993  31.228   0.919
10084W        W75311  28.475  26.977   9.764
10085W        W75312  21.263  28.878  12.616
10086W        W75313  36.886  39.052  13.329
10087W        W75314  41.477  31.088   4.988
10088W        W75315  34.053  23.812  12.022
10089W        W75316  19.896  28.964   2.288
10090W        W75317  26.428  10.904   3.783
10091W        W75318  12.743  17.154   1.595
10092W        W75319  16.882   5.313  12.539
10093W        W75320   9.105  18.176  12.710
10094W        W75321  22.059  22.953   2.158
10095W        W75322  32.261   1.197   2.250
10096W        W75323   4.367  39.352  14.491
10097W        W75324   8.759  30.123   1.316
10098W        W75325  24.721  19.227   3.604
10099W        W75326  42.210   2.612  11.109
10100W        W75327   8.699  40.580   3.676
10101W        W75328  31.463  22.735  12.986
10102W        W75329  17.091  11.176  14.292
10103W        W75330  42.450  41.514  14.831
10104W        W75331  13.928  18.767  13.998
10105W        W75332  21.050  29.417   3.566
10106W        W75333  16.245   0.715  12.644
10107W        W75334  15.131   3.996  14.264
10108W        W75335  32.886  32.766   1.626
10109W        W75336  25.643  30.942   4.571
10110W        W75337  12.964  42.164   1.872
10111W        W75338   4.371  35.473   3.246
10112W        W75339  17.717  24.120   1.942
10113W        W75340  40.896  43.791  14.706
10114W        W75341  20.771   1.506  12.829
10115W        W75342  26.317  16.257   1.195
10116W        W75343  27.067  37.853   3.862
10117W        W75344  12.204   5.939  11.615
10118W        W75345  32.602  22.735  11.286
10119W        W75346  22.005  32.431   1.205
10120W        W75347  37.366  39.093  13.521
10121W        W75348   9.605  44.153   1.689
10122W        W75349  43.810  22.558  11.957
10123W        W75350   9.001  15.696   1.169
10124W        W75351  11.854  27.685  14.300
10125W        W75352  29.239  36.360  10.307
10126W        W75353  24.548  29.425   1.317
10127W        W75354  38.022  12.713  13.284
10128W        W75355  41.501  10.261   4.225
10129W        W75356  44.329   1.263  10.708
10130W        W75357  35.039  21.011   1.377
10131W        W75358  10.605  43.658  12.081
10132W        W75359   7.104  29.975  14.970
10133W        W75360  33.306  23.240  13.545
10134W        W75361  36.442  30.007   0.474
10135W        W75362  31.761  20.308  14.067
10136W        W75363  22.243  27.252   0.399
10137W        W75364  32.934  34.553  13.289
10138W        W75365   2.781  14.560   4.244
10139W        W75366  44.736  37.426  14.162
10140W        W75367  25.738  40.582  11.061
10141W        W75368  15.853  19.737  12.927
10142W        W75369  34.006  25.693   3.021
10143W        W75370  36.482  11.712  11.247
10144W        W75371  17.662  33.162  11.546
10145W        W75372  37.396  30.917   1.332
10146W        W75373  36.862   9.837   3.268
10147W        W75374  25.996  22.963  12.878
10148W        W75375  24.280  10.158   4.996
10149W        W75376  14.426  15.306   0.086
10150W        W75377  14.947  22.304   0.571
10151W        W75378  37.101  12.694   1.850
10152W        W75379  15.324   0.422   0.338
10153W        W75380  27.952  23.805   1.753
10154W        W75381  40.458  11.278  10.697
10155W        W75382  38.004   1.958   2.622
10156W        W75383  27.278   9.972   2.480
10157W        W75384  31.769  19.757  10.776
10158W        W75385   8.101  27.993   3.105
10159W        W75386  18.005   1.026   1.326
10160W        W75387  29.061  24.568   3.082
10161W        W75388  27.035  31.965  13.947
10162W        W75389   9.586  42.351  14.823
10163W        W75390   8.570  27.414   3.336
10164W        W75391  40.378  34.351  11.888
10165W        W75392   0.258   3.676   2.771
10166W        W75393  10.875  10.645  11.161
10167W        W75394  24.659  23.006   3.601
10168W        W75395  25.764  20.525   0.490
10169W        W75396  43.235  35.582   1.060
10170W        W75397  26.237  23.634   0.034
10171W        W75398  35.100   4.618   1.290
10172W        W75399  40.439   2.291   3.776
10173W        W75400  29.185   2.449  11.938
10174W        W75401  34.097  38.838   0.753
10175W        W75402  14.566  17.318  14.325
10176W        W75403  38.014  32.990   0.392
10177W        W75404   8.198  33.663  13.492
10178W        W75405  24.515  36.045   3.286
10179W        W75406  35.164  25.032  12.650
10180W        W75407  24.683  14.872  12.644
10181W        W75408  44.764  14.046   0.935
10182W        W75409  19.628   9.579   4.873
10183W        W75410  30.534  16.182  10.604
10184W        W75411  16.212  39.462   0.338
10185W        W75412  14.219  36.047   3.044
10186W        W75413  43.096  34.435  13.941
10187W        W75414  16.534  18.555  10.592
10188W        W75415  26.713   5.945  13.550
10189W        W75416   0.185  18.569   0.399
10190W        W75417  43.782  44.332  14.998
10191W        W75418  37.577   8.075   4.156
10192W        W75419  43.596  39.846   0.266
10193W        W75420  34.953  38.815   2.572
10194W        W75421   5.730   4.317   4.106
10195W        W75422  19.771  18.788  14.255
10196W        W75423  11.841   3.720   4.849
10197W        W75424   4.644   2.319  11.175
10198W        W75425  29.518  37.493  12.132
10199W        W75426   3.495   6.418   1.704
10200W        W75427  44.817  30.844  10.711
10201W        W75428  28.584   1.851  11.314
10202W        W75429  20.744  34.369  14.266
10203W        W75430   7.014   7.364  10.746
10204W        W75431   4.266  28.102  14.585
10205W        W75432  14.715   1.465  11.126
10206W        W75433  23.590  21.721   1.371
10207W        W75434  28.973  15.060  13.238
10208W        W75435   7.707   9.913  12.620
10209W        W75436  25.046  26.376   2.225
10210W        W75437  32.043   9.237   1.805
10211W        W75438   6.119  27.673  14.321
10212W        W75439  44.821  43.063   2.939
10213W        W75440   3.701  15.224   0.011
10214W        W75441  28.660  31.667   2.253
10215W        W75442  16.051  26.440   0.949
10216W        W75443  37.346  35.992   2.020
10217W        W75444  30.327   8.333   2.059
10218W        W75445  38.915  34.124   3.065
10219W        W75446   8.141  37.560  14.353
10220W        W75447  44.792  27.356   0.045
10221W        W75448  28.187  42.048  13.829
10222W        W75449  20.765   0.908   3.548
10223W        W75450  17.158  36.877  13.035
10224W        W75451  19.004  31.936  10.720
10225W        W75452  33.555   4.609   4.655
10226W        W75453   1.761   9.715   0.020
10227W        W75454  11.245  17.749   2.631
10228W        W75455  44.670   1.335  11.903
10229W        W75456  24.487   0.334  13.861
10230W        W75457  33.427  15.118  12.972
10231W        W75458  30.093  10.604   4.154
10232W        W75459  15.654   9.337   2.366
10233W        W75460  17.271  14.724   1.880
10234W        W75461  18.505   4.697   2.333
10235W        W75462  26.490   5.983  11.783
10236W        W75463  43.877  23.811   1.014
10237W        W75464  39.051  12.827  11.220
10238W        W75465  24.651  31.416  13.563
10239W        W75466  15.154  22.522  14.331
10240W        W75467  10.083   3.828   0.002
10241W        W75468   1.401  28.211  13.930
10242W        W75469  43.457  35.353  13.464
10243W        W75470  23.088  41.978   4.089
10244W        W75471   2.417  29.307   4.084
10245W        W75472  16.815  30.178   3.039
10246W        W75473  34.879  18.530   5.246
10247W        W75474  34.447  10.350   1.260
10248W        W75475   5.794  36.847   2.365
10249W        W75476  15.674  36.054  11.181
10250W        W75477  19.615   6.656  13.023
10251W        W75478  21.185  17.836  11.056
10252W        W75479  38.060  14.372  11.565
10253W        W75480   3.408  18.792  11.262
10254W        W75481  14.636  10.456  14.646
10255W        W75482  38.427  23.575  13.103
10256W        W75483  18.264  35.840   0.154
10257W        W75484   4.174   5.861  12.574
10258W        W75485  22.544  18.782   2.793
10259W        W75486  10.276  35.117  11.667
10260W        W75487  29.294  10.855  11.013
10261W        W75488  20.128  15.338   4.674
10262W        W75489  41.449  32.097   0.700
10263W        W75490  25.908  14.890  14.639
10264W        W75491  27.658  43.393  12.935
10265W        W75492  26.481  23.153  13.957
10266W        W75493  44.680  18.737  13.491
10267W        W75494  38.044  37.670   1.736
10268W        W75495  44.672  14.677   5.157
10269W        W75496  26.239  25.538  13.391
10270W        W75497  24.397  41.416  13.239
10271W        W75498  29.601  23.381   1.180
10272W        W75499  14.139  44.927  12.937
10273W        W75500   0.236  34.991  10.776
10274W        W75501  29.496  41.004   0.894
10275W        W75502   7.992   0.295   3.159
10276W        W75503  32.099  19.172   2.362
10277W        W75504  35.026  18.852  12.556
10278W        W75505  31.016  42.106  14.673
10279W        W75506   8.856   9.665   2.151
10280W        W75507  25.236  39.999  12.808
10281W        W75508  42.437  16.537  12.886
10282W        W75509  26.410  17.867   0.739
10283W        W75510  41.693  35.102  14.288
10284W        W75511   1.229  28.621  13.180
10285W        W75512  42.970  26.075  11.913
10286W        W75513   1.234  27.102   0.089
10287W        W75514   7.918   4.201   3.991
10288W        W75515  33.699  32.878  13.954
10289W        W75516  21.541  21.062   2.460
10290W        W75517  20.448  35.479   3.077
10291W        W75518  31.343   6.734   0.879
10292W        W75519   2.000  15.776  12.544
10293W        W75520  36.072   8.148   2.344
10294W        W75521  39.003  34.582  13.902
10295W        W75522  21.193  21.297   0.254
10296W        W75523  19.174  25.395   1.160
10297W        W75524  36.417  40.397   0.946
10298W        W75525   2.400  39.560  12.455
10299W        W75526  28.985  38.107   0.759
10300W        W75527  29.662   6.564  14.746
10301W        W75528  38.939  16.194  14.252
10302W        W75529  34.111  18.460   1.334
10303W        W75530  32.117  25.018  14.781
10304W        W75531  24.048  13.680   5.035
10305W        W75532   5.603  29.166  12.627
10306W        W75533  34.271  40.055   5.092
10307W        W75534   7.905  44.935   0.835
10308W        W75535  10.101   8.389  11.592
10309W        W75536   8.831  10.081  10.565
10310W        W75537  44.743  24.638  12.195
10311W        W75538  33.585   6.227  10.693
10312W        W75539  22.923  28.711  11.732
10313W        W75540  38.457  18.282   4.291
10314W        W75541  34.946  17.306  14.336
10315W        W75542  33.009   2.888  13.412
10316W        W75543  40.487  42.218   0.467
10317W        W75544  16.540  18.677   4.025
10318W        W75545   3.934   6.812  14.932
10319W        W75546   0.290  22.641   4.925
10320W        W75547  29.388   3.828  12.908
10321W        W75548  38.009  15.591  11.122
10322W        W75549  35.099  18.736  12.034
10323W        W75550  44.936  10.318   2.920
10324W        W75551  43.587  39.425  14.929
10325W        W75552   8.286  12.522  11.783
10326W        W75553   2.231  36.033   2.148
10327W        W75554  23.407  14.396  11.248
10328W        W75555  17.733  13.737   3.369
10329W        W75556  36.099  42.575   3.762
10330W        W75557  35.264   0.815   3.687
10331W        W75558  10.402  43.981   0.802
10332W        W75559  43.899   7.218  14.055
10333W        W75560  29.940  23.982  11.361
10334W        W75561  38.453  26.886  11.757
10335W        W75562  27.119   2.453  11.378
10336W        W75563  13.985  40.564  14.562
10337W        W75564  24.415  10.160  12.095
10338W        W75565  12.631  36.015   2.737
10339W        W75566  43.001  37.471  13.889
10340W        W75567  27.612   9.376   1.720
10341W        W75568  10.175  41.872  12.609
10342W        W75569   7.232  31.661  13.070
10343W        W75570  38.939  36.520  13.422
10344W        W75571   0.470  42.711  13.210
10345W        W75572  14.507   3.917  13.576
10346W        W75573  37.014   6.160  14.366
10347W        W75574  18.101  14.197   4.580
10348W        W75575  20.774  19.954   0.344
10349W        W75576   2.958  10.385   1.796
10350W        W75577  20.553  20.662  11.653
10351W        W75578   1.273   3.327  14.263
10352W        W75579  17.828  12.716  11.456
10353W        W75580  31.237   7.153  10.839
10354W        W75581  21.482  21.040  14.357
10355W        W75582  26.375  12.778   4.147
10356W        W75583  19.481   5.566  14.648
10357W        W75584  30.116  18.003  13.986
10358W        W75585  27.850   2.905  12.882
10359W        W75586   7.187  32.685   1.829
10360W        W75587  32.114   4.697  14.308
10361W        W75588  19.262  39.843  11.741
10362W        W75589  38.560  33.495   3.593
10363W        W75590  40.007  12.262  10.610
10364W        W75591  27.123  15.340  10.847
10365W        W75592  37.193   5.935   1.018
10366W        W75593   9.638  41.982  13.550
10367W        W75594   9.449  19.075   2.544
10368W        W75595  25.615   1.417   2.508
10369W        W75596  13.383  23.931   0.299
10370W        W75597  18.340   8.628   1.640
10371W        W75598  10.950  34.300  14.724
10372W        W75599  44.989  40.823   1.653
10373W        W75600  32.603  18.175  10.999
10374W        W75601  37.507  14.275  10.495
10375W        W75602  31.867  40.785   0.453
10376W        W75603   2.900  29.662   3.275
10377W        W75604  17.802  31.021  13.497
10378W        W75605   8.474  43.421   2.316
10379W        W75606  25.014  35.726  13.937
10380W        W75607  41.439  26.026  14.844
10381W        W75608  31.326  34.917   4.803
10382W        W75609  11.874  28.099   0.170
10383W        W75610  26.114  39.760  13.269
10384W        W75611  10.594  12.982  14.673
10385W        W75612  39.560  12.600   0.026
10386W        W75613  34.178  19.688  11.236
10387W        W75614  36.162  41.462   1.343
10388W        W75615   2.517  26.230   0.659
10389W        W75616  25.361  32.728   4.065
10390W        W75617   8.337   5.153   0.092
10391W        W75618   6.288  21.520   0.499
10392W        W75619  37.444  18.346  13.333
10393W        W75620   8.372  15.553   3.507
10394W        W75621  37.342   7.432  12.296
10395W        W75622  14.161   0.709   2.576
10396W        W75623  23.758  44.907   4.500
10397W        W75624  43.209   5.477   2.237
10398W        W75625  32.383  15.572   2.756
10399W        W75626  30.870  39.989  11.526
10400W        W75627  31.129  42.000  12.456
10401W        W75628  33.388   6.896  11.597
10402W        W75629  44.751  26.097  12.000
10403W        W75630   6.435  22.262  13.428
10404W        W75631  22.100  44.759   4.993
10405W        W75632  43.056   8.917  12.958
10406W        W75633  25.623  42.782  13.095
10407W        W75634   5.895  40.797   1.322
10408W        W75635  17.557  35.031  11.986
10409W        W75636  17.572  24.963   1.352
10410W        W75637   0.286  44.068   1.447
10411W        W75638  25.152   9.889   3.121
10412W        W75639  37.456   7.648   2.929
10413W        W75640   7.119  35.489  10.733
10414W        W75641  11.157   6.407   0.208
10415W        W75642   8.675  21.246  11.079
10416W        W75643   7.430  43.831   3.355
10417W        W75644   7.572  18.269  11.017
10418W        W75645  32.766  11.183  11.408
10419W        W75646  42.456  37.816   3.734
10420W        W75647  20.247  29.225   1.392
10421W        W75648  28.254  24.020  12.807
10422W        W75649  10.793  23.025  11.243
10423W        W75650  43.669  12.260  11.105
10424W        W75651  23.950  28.737  11.555
10425W        W75652  34.930   8.140  13.286
10426W        W75653  41.958   8.118  11.662
10427W        W75654  22.757  14.910  12.202
10428W        W75655  28.639  31.837   3.569
10429W        W75656  22.177  23.990   3.201
10430W        W75657  38.328  24.662  13.918
10431W        W75658  29.993  14.803   1.577
10432W        W75659  16.413  15.753  14.540
10433W        W75660  15.154   3.859   0.293
10434W        W75661  15.649  32.364  13.558
10435W        W75662  24.212  34.267   0.730
10436W        W75663  33.146  14.280   1.719
10437W        W75664  12.219   8.212  14.699
10438W        W75665   5.797  44.234  13.453
10439W        W75666  29.337   5.024  10.253
10440W        W75667   8.538  22.662   3.620
10441W        W75668  31.332  40.191  13.814
10442W        W75669  21.918  38.871   0.882
10443W        W75670  25.063  21.715  11.061
10444W        W75671   3.698  30.357   4.067
10445W        W75672  24.289   9.750   0.215
10446W        W75673  25.601  22.668  11.381
10447W        W75674   0.984  37.903  11.136
10448W        W75675   2.093  20.957   1.988
10449W        W75676  24.284  37.524   2.862
10450W        W75677  36.021  25.997  12.518
10451W        W75678  18.009  36.838   4.058
10452W        W75679  10.484  15.146   2.074
10453W        W75680   5.269  15.279  14.050
10454W        W75681  29.566  35.055   0.185
10455W        W75682   1.699  20.169   0.416
10456W        W75683  15.610  39.121   4.101
10457W        W75684  13.534  40.837   1.766
10458W        W75685   7.229  14.171  13.525
10459W        W75686   7.619  43.401  12.526
10460W        W75687  12.216  26.088  14.221
10461W        W75688  30.560  36.755  12.179
10462W        W75689  44.314  41.516   5.114
10463W        W75690   6.824  22.487   4.707
10464W        W75691  23.523  35.518  12.105
10465W        W75692  34.855  24.546  13.457
10466W        W75693  37.416  36.477   2.266
10467W        W75694   7.048  20.696   3.721
10468W        W75695  34.578  13.160   4.188
10469W        W75696  15.682  10.079  12.010
10470W        W75697   8.880  10.106   3.447
10471W        W75698  44.143  28.352   1.823
10472W        W75699   7.365   1.044   2.721
10473W        W75700  18.150  40.810  12.372
10474W        W75701  14.855  26.130  14.803
10475W        W75702   7.990  16.574  11.575
10476W        W75703  37.994  37.364  14.763
10477W        W75704  40.753  21.870   0.405
10478W        W75705   9.261  22.828  12.954
10479W        W75706   0.754  25.163  12.152
10480W        W75707  43.478  21.387   0.512
10481W        W75708  27.967   4.885   0.846
10482W        W75709  31.150  28.571   4.550
10483W        W75710  39.332  41.840   3.462
10484W        W75711  13.759  41.733  14.478
10485W        W75712  23.937  22.383  12.020
10486W        W75713  39.906   8.863   0.615
10487W        W75714  38.423  28.187  13.130
10488W        W75715  42.136  37.917   1.938
10489W        W75716  25.306   9.742  13.726
10490W        W75717  27.929   1.681   1.764
10491W        W75718  43.782  13.735  11.059
10492W        W75719  22.471   5.617  11.653
10493W        W75720   0.228   6.800  13.671
10494W        W75721   0.257  16.752   5.181
10495W        W75722   2.328  14.062   1.704
10496W        W75723  38.582   3.295   3.082
10497W        W75724  43.599  37.273   4.639
10498W        W75725  34.290  32.195  14.044
10499W        W75726  38.123  34.359   3.699
10500W        W75727  22.499  29.127  11.711
10501W        W75728  13.279  14.586  13.784
10502W        W75729  21.399  12.094   2.416
10503W        W75730  42.932  43.945   4.061
10504W        W75731  13.213   5.128  10.022
10505W        W75732  32.659   4.690  14.353
10506W        W75733   7.014  25.438   3.216
10507W        W75734  44.762   0.844   0.263
10508W        W75735  23.146  40.329   3.443
10509W        W75736  37.012  35.027   0.220
10510W        W75737  12.723  19.148  11.155
10511W        W75738  23.733  18.226  12.734
10512W        W75739  30.709  24.189   2.949
10513W        W75740  28.445  33.915  11.161
10514W        W75741  44.275  34.554  12.649
10515W        W75742  26.470  19.832   2.611
10516W        W75743  20.590  41.740   2.267
10517W        W75744   7.155  14.034   3.543
10518W        W75745  34.965   2.842  12.889
10519W        W75746  40.073   3.721   1.947
10520W        W75747   8.800  24.981  11.580
10521W        W75748  13.613  15.120   1.416
10522W        W75749  37.302   6.965   1.911
10523W        W75750  39.039  43.302  13.163
10524W        W75751  31.170  25.468   3.921
10525W        W75752  20.441  27.070  12.273
10526W        W75753   4.198   3.036   3.363
10527W        W75754  33.684   8.501   3.164
10528W        W75755  44.236  24.112  14.793
10529W        W75756  43.704  42.652   3.742
10530W        W75757  40.712  39.410   1.165
10531W        W75758   7.076   3.109   0.652
10532W        W75759  36.384  29.773  10.434
10533W        W75760   7.406  23.960  11.641
10534W        W75761   6.049  14.773  14.069
10535W        W75762  33.732  35.073   0.801
10536W        W75763  20.694  34.367   1.837
10537W        W75764  41.432  44.791   4.639
10538W        W75765  16.248  42.358  12.585
10539W        W75766  10.174  31.461  10.573
10540W        W75767   7.615   2.156   1.850
10541W        W75768  21.910  26.511  13.522
10542W        W75769  33.636  23.774  14.954
10543W        W75770  36.878   5.835  12.407
10544W        W75771  11.943  19.949  12.999
10545W        W75772  38.993  11.259   0.202
10546W        W75773  18.041   0.199   3.602
10547W        W75774  35.696  37.557   1.724
10548W        W75775   5.038  14.809  13.898
10549W        W75776   2.839   7.297   1.915
10550W        W75777  14.752  12.757  10.711
10551W        W75778  44.887  26.717   0.394
10552W        W75779  20.658   1.994  12.966
10553W        W75780  18.110  11.738   0.450
10554W        W75781  29.299  30.658   1.680
10555W        W75782  25.097  10.412   3.123
10556W        W75783  21.626  23.762   1.170
10557W        W75784  20.758  22.767   2.686
10558W        W75785  34.875  30.943  14.012
10559W        W75786  40.272  22.519   4.111
10560W        W75787  18.029  30.865   3.711
10561W        W75788  22.098   4.517  11.227
10562W        W75789  14.729  39.707  13.600
10563W        W75790   1.552  30.696   1.930
10564W        W75791  33.457  30.408   0.797
10565W        W75792  16.049  33.463   1.613
10566W        W75793  40.077  33.255   2.190
10567W        W75794  23.911  19.066  14.913
10568W        W75795   6.265  24.920  11.030
10569W        W75796  24.539  20.462  12.982
10570W        W75797  42.585  42.464   3.626
10571W        W75798  18.992   0.440   0.369
10572W        W75799  14.643   8.105  14.422
10573W        W75800  32.059   7.855   4.617
10574W        W75801  27.403  15.623  14.909
10575W        W75802  34.357  42.874  12.009
10576W        W75803   9.328   5.950  12.584
10577W        W75804  13.682  31.361   1.331
10578W        W75805  21.494  21.948  12.489
10579W        W75806  25.715  19.613  12.336
10580W        W75807  35.107   5.281   5.000
10581W        W75808  18.754  27.179  12.617
10582W        W75809  44.022  37.601   4.580
10583W        W75810  31.610  27.896   2.458
10584W        W75811  39.541  37.037   3.511
10585W        W75812  38.189  12.203   3.287
10586W        W75813   1.384   4.114   4.087
10587W        W75814  32.720  19.549   3.735
10588W        W75815  22.748  35.220  14.823
10589W        W75816  12.561   3.470   0.426
10590W        W75817   3.374  34.955   2.802
10591W        W75818  28.639  16.810   4.121
10592W        W75819   3.482   5.302   2.705
10593W        W75820  35.222   7.609   0.359
10594W        W75821  16.731  27.906   0.051
10595W        W75822  44.398  41.438   2.782
10596W        W75823  18.633  44.947  13.791
10597W        W75824  37.432  41.488   2.226
10598W        W75825  38.222  10.259  14.560
10599W        W75826  18.806   9.317  11.228
10600W        W75827  35.929  37.422   3.683
10601W        W75828  20.801  40.972  14.265
10602W        W75829  18.389  32.021   1.436
10603W        W75830  29.650  16.593   2.782
10604W        W75831  42.180  37.051   4.824
10605W        W75832   4.880  30.582  10.698
10606W        W75833   8.443  23.704  14.429
10607W        W75834  27.415  12.434   3.269
10608W        W75835  42.396  11.605   3.327
10609W        W75836  25.835   3.645  12.241
10610W        W75837  10.825  31.626   1.469
10611W        W75838   7.770  19.188  12.000
10612W        W75839  24.099  32.034  10.165
10613W        W75840  22.634  42.485  12.945
10614W        W75841  11.852  12.306   3.305
10615W        W75842  19.132  13.371  13.434
10616W        W75843  12.856  40.086   1.855
10617W        W75844   3.331   7.312   4.227
10618W        W75845  25.802  28.002  13.531
10619W        W75846  35.427  23.284   4.086
10620W        W75847  25.659  42.821   4.636
10621W        W75848  24.177  12.225   1.283
10622W        W75849  19.212   9.714   4.107
10623W        W75850  11.641  33.575  11.475
10624W        W75851  17.499  39.286   2.345
10625W        W75852  18.134   6.727   4.125
10626W        W75853   5.469  31.626   3.476
10627W        W75854  14.505  32.952  13.061
10628W        W75855   4.364  22.840   4.656
10629W        W75856  27.640  37.725   4.384
10630W        W75857   7.789  39.316   2.367
10631W        W75858  27.275  27.151   5.491
10632W        W75859  27.218  37.179  11.564
10633W        W75860   7.417  25.105  10.525
10634W        W75861  19.130  22.132   1.360
10635W        W75862  27.874  37.233   1.527
10636W        W75863  43.362  31.778  14.450
10637W        W75864  12.117  11.673  11.486
10638W        W75865  27.946  43.894  11.073
10639W        W75866  20.564  14.553   0.005
10640W        W75867   6.702  40.573  14.418
10641W        W75868  36.464   6.122  10.401
10642W        W75869  43.202  10.359   1.725
10643W        W75870  19.644  23.231  12.806
10644W        W75871  42.425  13.475  10.782
10645W        W75872  33.578  30.409  12.061
10646W        W75873  39.816  10.114   0.387
10647W        W75874  37.573  25.284   1.436
10648W        W75875  43.988   0.946  14.908
10649W        W75876  31.939  16.848   0.094
10650W        W75877  37.534  15.660   0.217
10651W        W75878   5.627  24.311  13.368
10652W        W75879   4.464  41.915  13.367
10653W        W75880  31.901  36.790   3.279
10654W        W75881   9.410  23.148   3.066
10655W        W75882   4.703   7.151  13.927
10656W        W75883  12.152  42.300  12.073
10657W        W75884   0.701  39.840  10.650
10658W        W75885   1.868  13.521   2.825
10659W        W75886  44.437  22.978  14.480
10660W        W75887   2.724   7.878   4.209
10661W        W75888  37.123  23.297   1.481
10662W        W75889  42.775  11.339  12.706
10663W        W75890   4.435   8.769   1.710
10664W        W75891  37.839   4.324   3.132
10665W        W75892  24.836  11.445  11.181
10666W        W75893  41.444  36.420  11.892
10667W        W75894   9.086  14.313  11.704
10668W        W75895  13.401  21.521   0.397
10669W        W75896  38.887  15.695  12.621
10670W        W75897  18.748  13.650   1.864
10671W        W75898   2.575  25.899   4.379
10672W        W75899  38.533  35.594  12.095
10673W        W75900  12.837  18.064   0.662
10674W        W75901   9.217  41.258   1.404
10675W        W75902  37.847  31.464   1.727
10676W        W75903   0.556   1.472   4.401
10677W        W75904  11.925  28.180  14.291
10678W        W75905  22.522  27.977   3.261
10679W        W75906  15.115  21.250  14.811
10680W        W75907  39.974  19.508   1.464
10681W        W75908  10.305   4.170  11.048
10682W        W75909   7.107  36.638  13.025
10683W        W75910  18.319   4.352  12.291
10684W        W75911  38.299  39.851   2.234
10685W        W75912  44.511  37.086   4.645
10686W        W75913  14.799  19.739   2.680
10687W        W75914  12.016  34.545   2.637
10688W        W75915  29.068  19.047  14.972
10689W        W75916  36.426   8.701  11.957
10690W        W75917  24.339  12.478  10.397
10691W        W75918  16.848  22.262  13.007
10692W        W75919  30.487  26.579   0.732
10693W        W75920  42.015  17.416  11.712
10694W        W75921  24.374  11.379   3.653
10695W        W75922  39.993  43.024   2.303
10696W        W75923  25.211  26.751   1.839
10697W        W75924  12.138  20.571   2.623
10698W        W75925   7.253  19.916  14.546
10699W        W75926  29.532  12.286   1.257
10700W        W75927  15.890  25.896  11.449
10701W        W75928  31.489  12.743  12.618
10702W        W75929  37.910  30.842  11.154
10703W        W75930  25.038  12.822  14.333
10704W        W75931  30.009  20.605  13.752
10705W        W75932  24.508  34.499   1.150
10706W        W75933   5.971  37.095   3.744
10707W        W75934  34.126  22.858  14.683
10708W        W75935   2.264  16.824   1.843
10709W        W75936  20.589  35.157   0.447
10710W        W75937   9.634  35.575   2.438
10711W        W75938  26.008  11.887  13.045
10712W        W75939   0.076  31.117  10.327
10713W        W75940  11.679  30.582  13.397
10714W        W75941  13.059  11.870  14.184
10715W        W75942  25.559  27.147   3.706
10716W        W75943  19.041  26.018  13.341
10717W        W75944  31.504  12.331   2.222
10718W        W75945  16.575  25.556  13.883
10719W        W75946  12.162  26.310   2.362
10720W        W75947  39.243  22.745   3.006
10721W        W75948   8.139  26.732   1.918
10722W        W75949   2.828   5.517  14.235
10723W        W75950  16.125  36.367   1.117
10724W        W75951  32.185   1.866   0.881
10725W        W75952  21.489   7.505   1.185
10726W        W75953  44.042  18.996   0.911
10727W        W75954  36.492   5.080   3.748
10728W        W75955  34.311   4.915  13.767
10729W        W75956   1.433  42.907   0.153
10730W        W75957  11.596  41.306  14.375
10731W        W75958  37.383  29.045  11.527
10732W        W75959  43.399  42.547  11.657
10733W        W75960  29.520  17.552  10.543
10734W        W75961   0.208  32.126  13.032
10735W        W75962  35.943   1.676  14.348
10736W        W75963  28.897  19.802   3.516
10737W        W75964  40.068  29.385  14.810
10738W        W75965   7.449  11.855   1.290
10739W        W75966  13.667  11.182   1.238
10740W        W75967  40.490  31.965  14.617
10741W        W75968  29.791   7.786   4.141
10742W        W75969  41.747  42.466  14.454
10743W        W75970  28.840  25.905  12.524
10744W        W75971  28.248  41.096   2.687
10745W        W75972  40.689   7.717   1.583
10746W        W75973  40.125  36.090  13.146
10747W        W75974  33.531   3.139  12.060
10748W        W75975  38.815  36.404  12.557
10749W        W75976  28.937  29.232  12.518
10750W        W75977  11.165  12.170   4.893
10751W        W75978  40.330  12.875  11.148
10752W        W75979  37.589  33.447   2.286
10753W        W75980   5.529   2.169   1.962
10754W        W75981  30.978  34.000  13.772
10755W        W75982  23.027  37.820   1.881
10756W        W75983  44.703  24.020  10.018
10757W        W75984  10.206  13.815   4.127
10758W        W75985   8.200  34.756   5.107
10759W        W75986   3.155  39.269   4.113
10760W        W75987  12.752   3.153   0.769
10761W        W75988  12.864  33.892   2.201
10762W        W75989   1.339  19.559  14.684
10763W        W75990  26.612  43.007  11.549
10764W        W75991  39.925   0.522   2.084
10765W        W75992  11.345  31.952  14.265
10766W        W75993  34.731  25.846  14.003
10767W        W75994  42.116  29.460   1.828
10768W        W75995  38.314  11.697   3.211
10769W        W75996  15.121  30.371   4.192
10770W        W75997  28.561  25.001  10.354
10771W        W75998  27.736  23.168  11.972
10772W        W75999  30.023  22.658  11.095
10773W        W76000  42.006   2.574   2.858
10774W        W76001   3.476  37.790   3.339
10775W        W76002  29.032  10.718   3.295
10776W        W76003  35.600  24.742  13.501
10777W        W76004  41.229  26.060  10.858
10778W        W76005   3.354   9.497  12.370
10779W        W76006  23.148   8.844  13.929
10780W        W76007  14.100  12.102   0.030
10781W        W76008  19.071  43.802   4.189
10782W        W76009  43.019  29.195  13.449
10783W        W76010  19.273  28.905   2.950
10784W        W76011  29.241  25.255  11.575
10785W        W76012  42.527  33.694   0.661
10786W        W76013  13.446  15.367   0.424
10787W        W76014  14.252  10.870   3.630
10788W        W76015   1.247  33.531  12.006
10789W        W76016   7.805   1.375   2.369
10790W        W76017  15.493  40.566  13.305
10791W        W76018  41.954  34.947   4.972
10792W        W76019  22.389  18.956  12.691
10793W        W76020  25.299   5.357  14.188
10794W        W76021  15.782   2.141   0.278
10795W        W76022  40.379  21.164  12.113
10796W        W76023  19.590  31.525   1.496
10797W        W76024  37.114  38.091   0.528
10798W        W76025   4.721   3.468   4.098
10799W        W76026   2.824   4.015  11.141
10800W        W76027  29.926  17.244  10.352
10801W        W76028  29.914   9.209  12.553
10802W        W76029  33.447  12.168   2.243
10803W        W76030  43.205  23.737   2.663
10804W        W76031  34.283  44.081  12.672
10805W        W76032  13.754  42.466   2.441
10806W        W76033  12.736  44.471  12.569
10807W        W76034  11.334  19.328  13.037
10808W        W76035   9.737   6.981  12.946
10809W        W76036  29.094  37.167   0.877
10810W        W76037  42.878  12.682   2.006
10811W        W76038  42.725  22.286   4.098
10812W        W76039  22.736   9.667   1.235
10813W        W76040  41.562  28.063   4.487
10814W        W76041  13.028   7.076   3.084
10815W        W76042  25.538  37.006   0.285
10816W        W76043  17.381  17.509   4.820
10817W        W76044  29.481  42.929  11.116
10818W        W76045  22.496  25.697   2.304
10819W        W76046  15.600  31.000   3.606
10820W        W76047   0.658  23.245  14.214
10821W        W76048  11.326   0.734   4.312
10822W        W76049   3.599  36.466   4.564
10823W        W76050  29.538  28.167   4.577
10824W        W76051  11.227  31.466  14.298
10825W        W76052  15.469  25.006  12.157
10826W        W76053   0.887   7.311   0.719
10827W        W76054   7.779  38.421   1.872
10828W        W76055   7.593  19.645  10.548
10829W        W76056  40.361   6.783  10.805
10830W        W76057  20.727  11.429  13.826
10831W        W76058  25.031  37.903  13.406
10832W        W76059  43.751   7.753   0.877
10833W        W76060  30.142  21.765  10.695
10834W        W76061  42.233  16.902   4.475
10835W        W76062  20.748  36.389   0.703
10836W        W76063  32.795  34.189  12.182
10837W        W76064  26.501  25.518  13.828
10838W        W76065  15.867  20.155   2.775
10839W        W76066  10.684  16.993  11.562
10840W        W76067   7.251  29.130   4.160
10841W        W76068   9.621  36.216   4.103
10842W        W76069  15.214  16.858  11.574
10843W        W76070  10.904   1.183  10.976
10844W        W76071  24.691  43.863  13.891
10845W        W76072   1.851  18.051  13.550
10846W        W76073  28.794   5.865   0.950
10847W        W76074  11.564   3.491   1.254
10848W        W76075  34.494  19.217  10.776
10849W        W76076  31.976  14.098   0.268
10850W        W76077  15.305  42.360  11.628
10851W        W76078   2.322   0.506   1.727
10852W        W76079  11.296  30.403  10.704
10853W        W76080   3.479  26.584   5.587
10854W        W76081  40.269   8.805  10.282
10855W        W76082  20.508  16.261   3.220
10856W        W76083  30.550  43.991   3.966
10857W        W76084  20.139  33.459  10.269
10858W        W76085   8.791  34.448  13.250
10859W        W76086  34.350  32.314   1.863
10860W        W76087  28.957  40.961  11.026
10861W        W76088  41.298  44.072  10.691
10862W        W76089  42.842   5.518  10.959
10863W        W76090  28.859  11.893  14.874
10864W        W76091   5.862  23.783  12.067
10865W        W76092  26.907  40.916   2.023
10866W        W76093  41.336  11.712  13.393
10867W        W76094   7.621  44.539   0.120
10868W        W76095   6.280  42.030   1.291
10869W        W76096  24.659  23.246  13.996
10870W        W76097  42.721  14.105   0.076
10871W        W76098  18.797  23.576   2.882
10872W        W76099  33.546   2.471   4.951
10873W        W76100   2.691  36.432   0.791
10874W        W76101  43.036  27.078   3.159
10875W        W76102  10.981  29.345   0.365
10876W        W76103  30.082  31.687   3.953
10877W        W76104  37.048  42.387   4.857
10878W        W76105   8.266  34.131  11.091
10879W        W76106   9.373  33.685   1.421
10880W        W76107  35.373  20.794  13.023
10881W        W76108  18.565  24.666   4.634
10882W        W76109  41.367  43.296   3.691
10883W        W76110  26.403  10.692  12.971
10884W        W76111   6.963  37.913   3.322
10885W        W76112  32.949   0.279  10.762
10886W        W76113   6.825  29.366   1.141
10887W        W76114  24.507  41.408   1.776
10888W        W76115  32.387  23.246   3.138
10889W        W76116   9.318  27.540   2.743
10890W        W76117   7.435   3.120   4.984
10891W        W76118  15.155  37.076  10.724
10892W        W76119  13.213   4.202   3.427
10893W        W76120   0.766   1.634   2.027
10894W        W76121   1.494  32.520  13.609
10895W        W76122   8.970  40.577   0.310
10896W        W76123  18.745  35.379  13.494
10897W        W76124  33.847  26.696   1.238
10898W        W76125  39.185  38.560   4.114
10899W        W76126  41.019  22.377   3.638
10900W        W76127   9.030  30.801   2.837
10901W        W76128  12.714  15.044  12.534
10902W        W76129   7.161  15.297   2.433
10903W        W76130   8.454  24.083  13.855
10904W        W76131  42.513  22.249   0.837
10905W        W76132  44.746  28.030   0.768
10906W        W76133   9.275   2.444  14.063
10907W        W76134  41.772  25.945   4.925
10908W        W76135  42.780  38.342  10.207
10909W        W76136  35.816   2.766   4.774
10910W        W76137  23.165  11.699  12.055
10911W        W76138  41.351  22.154   4.005
10912W        W76139  33.932  15.625  11.419
10913W        W76140  44.937  40.304  14.369
10914W        W76141  25.084  33.220   9.784
10915W        W76142  32.016   6.075  11.173
10916W        W76143  44.700  43.058  11.424
10917W        W76144  12.257  34.156  13.846
10918W        W76145  11.751   7.718   0.947
10919W        W76146   8.200  13.571   4.242
10920W        W76147   3.513   2.072  12.825
10921W        W76148  28.563  14.845   0.347
10922W        W76149  13.302  22.150   3.241
10923W        W76150  14.189  14.985  13.433
10924W        W76151  29.791  11.423  14.301
10925W        W76152  36.962   4.919  11.536
10926W        W76153   7.832  16.643  14.254
10927W        W76154  22.446   2.254   0.961
10928W        W76155  15.156  40.338   4.802
10929W        W76156  30.664  43.148  11.626
10930W        W76157  36.552  13.046  12.968
10931W        W76158   2.209  43.952  12.997
10932W        W76159  35.489  32.356  11.973
10933W        W76160   7.575   0.740   5.243
10934W        W76161  29.981   6.982   4.570
10935W        W76162  39.209   0.287   3.959
10936W        W76163   2.955  30.220   2.092
10937W        W76164  21.128  33.893   2.280
10938W        W76165  18.688  30.530   1.633
10939W        W76166  22.639  25.017   4.073
10940W        W76167  25.190   0.543   2.135
10941W        W76168  11.416  12.738   4.471
10942W        W76169  38.884   5.712  12.193
10943W        W76170  29.963  18.664  12.333
10944W        W76171  29.612  11.326  14.825
10945W        W76172  35.365   6.319   2.437
10946W        W76173   0.268  14.602  11.970
10947W        W76174  14.649  27.066   1.368
10948W        W76175   2.707  31.934   3.157
10949W        W76176  10.302  24.998   3.191
10950W        W76177  37.040  28.028   3.220
10951W        W76178  41.926   8.165  12.515
10952W        W76179   9.596  42.114   3.643
10953W        W76180   6.952  14.525  12.569
10954W        W76181  22.655  20.186  12.048
10955W        W76182   2.278  15.881   0.880
10956W        W76183  39.988   0.781   3.876
10957W        W76184  44.259   8.863   2.360
10958W        W76185   4.890   4.201   2.577
10959W        W76186  27.744  27.481  14.947
10960W        W76187  18.192  42.336  10.948
10961W        W76188  39.811  23.067  13.039
10962W        W76189  39.329   7.384  11.146
10963W        W76190  19.789  24.782   1.773
10964W        W76191  23.513  40.771  13.829
10965W        W76192   2.302  40.948  10.273
10966W        W76193   5.410  27.312   2.708
10967W        W76194  38.775  38.018  10.645
10968W        W76195  30.070  36.317  11.548
10969W        W76196  42.757  36.276   1.178
10970W        W76197  24.413  18.120   3.072
10971W        W76198  39.910  43.474  13.184
10972W        W76199  39.316   2.153  11.532
10973W        W76200   8.736  19.605  14.258
10974W        W76201   8.312  14.521  12.867
10975W        W76202   4.855  23.734  13.033
10976W        W76203  32.461   1.798   4.812
10977W        W76204  38.276  42.585  11.107
10978W        W76205  37.090  13.908  13.223
10979W        W76206   0.060  32.474   2.239
10980W        W76207  36.484  29.900  11.057
10981W        W76208  13.107  41.289  12.472
10982W        W76209   2.267  38.322   0.406
10983W        W76210  13.349  20.209   4.298
10984W        W76211  20.140   1.808   4.512
10985W        W76212  24.526  22.750   4.137
10986W        W76213  12.731  28.459  13.459
10987W        W76214  35.524  36.372   5.101
10988W        W76215  33.648  21.580   1.634
10989W        W76216  19.209   6.323  10.708
10990W        W76217   5.434   4.468  11.189
10991W        W76218   2.912  29.559  12.951
10992W        W76219  23.932  39.573  14.872
10993W        W76220  41.628   5.155  10.322
10994W        W76221  33.003  32.522   3.644
10995W        W76222  12.676  22.185  10.521
10996W        W76223  24.415  22.439  12.948
10997W        W76224  20.606   4.971  14.874
10998W        W76225  44.461  42.277  13.049
10999W        W76226  25.851  21.674   5.083
11000W        W76227  12.679  25.423  11.660
11001W        W76228  22.782  39.684  13.068
11002W        W76229  18.656  31.207  11.109
11003W        W76230  39.341  21.796   2.615
11004W        W76231  34.484  12.659   5.132
11005W        W76232  29.465  14.034   3.034
11006W        W76233  25.255  27.197  11.578
11007W        W76234  18.200  35.435  10.860
11008W        W76235  35.386   6.795  11.617
11009W        W76236  21.267   7.260  12.071
11010W        W76237  16.855  32.595   1.366
11011W        W76238  24.160   6.795  14.493
11012W        W76239  31.766  16.349  13.794
11013W        W76240  21.500  15.291  14.052
11014W        W76241  40.765  42.053  11.379
11015W        W76242  22.123  40.967   3.278
11016W        W76243   9.857  38.867  13.933
11017W        W76244  37.472  35.489   0.898
11018W        W76245  38.044  18.584   4.406
11019W        W76246  37.146   4.032  13.988
11020W        W76247   5.311  42.636  14.014
11021W        W76248  36.985  36.119  10.505
11022W        W76249  40.464  26.285   4.554
11023W        W76250  41.950   8.945   3.472
11024W        W76251  34.522  17.234   2.915
11025W        W76252  11.411  32.035   1.890
11026W        W76253  23.324  34.120   3.851
11027W        W76254  33.338  41.783  14.906
11028W        W76255  16.832  32.927  11.113
11029W        W76256  29.388  38.597   4.378
11030W        W76257  21.270  35.544   2.137
11031W        W76258   6.899  17.095  11.069
11032W        W76259   1.736  15.809  14.809
11033W        W76260  21.939  34.916   2.590
11034W        W76261   3.135   5.459  11.164
11035W        W76262  16.195   4.613   3.676
11036W        W76263  12.345  14.498   2.500
11037W        W76264  38.875  19.665  13.312
11038W        W76265  13.264  12.550  10.024
11039W        W76266  40.497  12.200  14.934
11040W        W76267   7.847  26.767  10.700
11041W        W76268   0.401  35.377   2.973
11042W        W76269  14.951  34.040   3.209
11043W        W76270  39.045  24.129  11.412
11044W        W76271   5.668  28.078  12.875
11045W        W76272   6.606  30.658  12.939
11046W        W76273   0.007  12.755   2.063
11047W        W76274   6.308   9.590  13.798
11048W        W76275  32.360  15.163   1.054
11049W        W76276  28.059  36.027  12.906
11050W        W76277   1.040  38.521   1.274
11051W        W76278  25.409   9.623  10.723
11052W        W76279  44.951  28.177   0.322
11053W        W76280  37.300  10.200   0.490
11054W        W76281  23.247  30.883  14.598
11055W        W76282  24.451   3.429  13.984
11056W        W76283  37.773  29.974  13.999
11057W        W76284  10.020  20.048  13.000
11058W        W76285  42.833  18.915  14.863
11059W        W76286  23.357  33.439  10.661
11060W        W76287  17.675  15.541  11.531
11061W        W76288  26.021   6.499   4.096
11062W        W76289  17.691  34.278  12.601
11063W        W76290  36.399   6.032   4.070
11064W        W76291  41.620  30.054  14.933
11065W        W76292  39.701  22.806  13.491
11066W        W76293   2.652  13.577   3.921
11067W        W76294  44.880  44.007   1.142
11068W        W76295  19.584  25.222  12.135
11069W        W76296  42.902  27.054   4.533
11070W        W76297   6.770  43.958  11.273
11071W        W76298   8.666  19.512  11.986
11072W        W76299  22.663   2.438   2.634
11073W        W76300  34.204  17.184   0.008
11074W        W76301   3.855   8.322  13.121
11075W        W76302  16.643  26.079  10.767
11076W        W76303  20.520   2.329  11.269
11077W        W76304   2.238   3.493   3.244
11078W        W76305  40.506  43.939  14.357
11079W        W76306  42.468  24.177   3.703
11080W        W76307  28.853  31.818   2.751
11081W        W76308  32.432  43.928   1.061
11082W        W76309  31.655  41.663  11.586
11083W        W76310   6.864  43.598  14.950
11084W        W76311  12.880  36.748   4.558
11085W        W76312  13.466   1.745  11.173
11086W        W76313  15.503   0.344   3.179
11087W        W76314   1.073  14.612   1.919
11088W        W76315  25.600  12.673  12.931
11089W        W76316  15.512  27.652  14.007
11090W        W76317  15.164   4.372   2.141
11091W        W76318  25.241  37.400   2.631
11092W        W76319  30.352  43.290   0.600
11093W        W76320  42.496  15.756   1.199
11094W        W76321  24.754  24.810   1.370
11095W        W76322  40.539  13.630  13.563
11096W        W76323  25.476   4.223  13.340
11097W        W76324   3.832  12.566  14.389
11098W        W76325  11.040  41.222  13.570
11099W        W76326   7.327  44.665  12.769
11100W        W76327  20.009  17.314  10.755
11101W        W76328  17.566  15.809   1.274
11102W        W76329   2.461   2.386   3.492
11103W        W76330  17.070  40.194  10.986
11104W        W76331  18.599  25.714   1.824
11105W        W76332  17.738  42.077   4.099
11106W        W76333  40.046   3.313  14.574
11107W        W76334  32.582  15.608   1.764
11108W        W76335  14.596  18.541   4.399
11109W        W76336  16.752   6.606   3.764
11110W        W76337  29.276  36.102  12.478
11111W        W76338  22.698   2.958  12.572
11112W        W76339   3.161  30.608  13.078
11113W        W76340  33.121  19.092  11.955
11114W        W76341  10.223   5.385  13.856
11115W        W76342  31.279  11.478   1.874
11116W        W76343   6.309  14.200  13.901
11117W        W76344  24.221  44.700   4.483
11118W        W76345  30.029  39.561   1.262
11119W        W76346  41.037  10.242  12.065
11120W        W76347  10.407  13.962   2.729
11121W        W76348  38.547  12.762   4.823
11122W        W76349  29.733   0.845  13.558
11123W        W76350  18.079  29.426   3.708
11124W        W76351   0.774  28.179   1.335
11125W        W76352  27.226  38.438  10.391
11126W        W76353  31.950  42.040   3.508
11127W        W76354  19.830   9.302  12.038
11128W        W76355  23.618   4.211   0.406
11129W        W76356   8.269  44.947   2.591
11130W        W76357   3.837  24.943   0.298
11131W        W76358   1.649  26.100  14.048
11132W        W76359  24.033  31.474   0.758
11133W        W76360  24.984   9.889  10.551
11134W        W76361  44.679  43.878   2.117
11135W        W76362  40.291  18.638  13.031
11136W        W76363   0.986  15.536  11.483
11137W        W76364  24.153  21.981  14.037
11138W        W76365  29.927  43.546  13.016
11139W        W76366  19.733  19.098   0.977
11140W        W76367  40.400  40.304   0.022
11141W        W76368  44.918  10.310  12.519
11142W        W76369  38.652  21.032   4.069
11143W        W76370  11.396  11.320  13.604
11144W        W76371  10.127   7.721   2.677
11145W        W76372  10.014  36.852  11.975
11146W        W76373  40.926  37.876  11.578
11147W        W76374  20.521  20.030  11.203
11148W        W76375  18.175  24.412   1.963
11149W        W76376  37.746  34.688  14.844
11150W        W76377  22.951  41.218  14.913
11151W        W76378  42.041  38.791   3.622
11152W        W76379  22.725  38.687  12.458
11153W        W76380  29.598  21.067  10.503
11154W        W76381   3.561   9.349   4.729
11155W        W76382  36.329   3.788  12.005
11156W        W76383  30.394   6.940   4.245
11157W        W76384  43.438   8.445  14.368
11158W        W76385  18.789  32.129  10.275
11159W        W76386   5.149   0.450   1.777
11160W        W76387  30.039  12.729   3.102
11161W        W76388  28.480  31.400   1.842
11162W        W76389  27.614  31.085   3.387
11163W        W76390  42.872  31.102  10.708
11164W        W76391  28.954  25.508  11.212
11165W        W76392   3.378  13.280   3.945
11166W        W76393  36.953  36.802   0.491
11167W        W76394  31.153   9.658   1.270
11168W        W76395  44.906  25.076  12.397
11169W        W76396  39.738  36.030   0.468
11170W        W76397   4.889  26.072   5.040
11171W        W76398  31.785  11.290   1.805
11172W        W76399  10.882   2.637   2.949
11173W        W76400  17.854   7.061  10.937
11174W        W76401  28.075  13.290  14.840
11175W        W76402  24.530   6.295  13.029
11176W        W76403   1.978   4.484  13.021
11177W        W76404  32.423  15.801  14.342
11178W        W76405  12.689  27.420   2.765
11179W        W76406  39.327  43.009  13.528
11180W        W76407  15.732  13.574   4.096
11181W        W76408  25.917  14.004  13.401
11182W        W76409   1.548  23.161   1.730
11183W        W76410   2.508  36.958   4.338
11184W        W76411  22.337  17.694  12.119
11185W        W76412  27.276  30.028   1.306
11186W        W76413  16.257  44.570   4.062
11187W        W76414  25.199  19.644  10.104
11188W        W76415   1.061  39.835   1.717
11189W        W76416   7.734  20.060   3.289
11190W        W76417  26.952   5.309   2.121
11191W        W76418  37.667   9.276  11.125
11192W        W76419  36.579  39.456  13.418
11193W        W76420  37.414   7.892  13.116
11194W        W76421  10.720  44.873  11.854
11195W        W76422  30.099   4.449   1.883
11196W        W76423   4.893  18.531  14.486
11197W        W76424   9.263  28.664  14.365
11198W        W76425  35.610   8.406   2.321
11199W        W76426  38.033  17.643  11.244
11200W        W76427  28.724   2.389  13.938
11201W        W76428  31.690  35.268   4.920
11202W        W76429  40.498  32.132   0.547
11203W        W76430  37.669  26.532  12.037
11204W        W76431  14.767  19.075  14.374
11205W        W76432   6.448  12.238   0.825
11206W        W76433  35.470  26.737   3.725
11207W        W76434  22.126  27.273   2.492
11208W        W76435  24.796  36.881  12.551
11209W        W76436   8.257  38.825   3.735
11210W        W76437  13.294  17.667  11.209
11211W        W76438   3.032   0.433  12.614
11212W        W76439  40.119  18.115  11.714
11213W        W76440  26.487  24.489   1.036
11214W        W76441   4.757  16.916  10.554
11215W        W76442  25.764   9.015   3.969
11216W        W76443  16.856  23.612   4.645
11217W        W76444  44.369  33.595  13.968
11218W        W76445  26.859  22.814  10.404
11219W        W76446  10.595  36.505   4.560
11220W        W76447   3.976  22.110  14.368
11221W        W76448  17.751  29.983  14.888
11222W        W76449  19.359  15.594  13.985
11223W        W76450  16.788  25.872   1.437
11224W        W76451  14.179  12.440   2.245
11225W        W76452  26.948  24.212  13.528
11226W        W76453  36.567   8.042   3.269
11227W        W76454   0.412  18.755   2.247
11228W        W76455  10.897   8.328  12.115
11229W        W76456   5.136  39.845   0.488
11230W        W76457  30.939  44.860   4.038
11231W        W76458  34.889   9.352  14.826
11232W        W76459  20.911   2.718  11.588
11233W        W76460  12.589  33.480  14.191
11234W        W76461  17.867  38.049   3.698
11235W        W76462  27.067  22.797  11.676
11236W        W76463   7.378  27.651  13.079
11237W        W76464  41.269  19.765  14.782
11238W        W76465  44.020  39.618  11.095
11239W        W76466  42.113  35.915   1.623
11240W        W76467  29.059  13.104   0.325
11241W        W76468  10.623   6.819   3.705
11242W        W76469   8.881  14.726  13.703
11243W        W76470  31.611  23.966  13.514
11244W        W76471  41.835  33.509  11.105
11245W        W76472  36.810  15.947   4.848
11246W        W76473  32.616  14.792   4.375
11247W        W76474  34.913   2.984  10.631
11248W        W76475  38.746   5.744   1.875
11249W        W76476  28.151  44.554   4.739
11250W        W76477   5.503  33.366   4.215
11251W        W76478  13.678  19.062  14.354
11252W        W76479  25.935   4.781  11.340
11253W        W76480  18.321  38.584  14.801
11254W        W76481  40.530  19.086  12.068
11255W        W76482   8.614   1.936  12.287
11256W        W76483  30.878  22.972   3.184
11257W        W76484  21.808   7.824  13.496
11258W        W76485   7.497   1.788   0.730
11259W        W76486   4.676  16.221   3.343
11260W        W76487  19.560   3.020  14.087
11261W        W76488  40.001  40.618   2.682
11262W        W76489  27.847  19.172  10.879
11263W        W76490  34.565  42.888   3.124
11264W        W76491  31.609  24.625  13.832
11265W        W76492  39.582  30.562  11.762
11266W        W76493  44.836   3.170   4.241
11267W        W76494  31.618  41.938  13.540
11268W        W76495  17.861  34.543  12.060
11269W        W76496   6.584  11.674   1.442
11270W        W76497  40.879  42.041  11.879
11271W        W76498  36.085  23.637  10.609
11272W        W76499  17.815  22.277   2.283
11273W        W76500  27.668  33.701  13.448
11274W        W76501  18.535  12.849  11.269
11275W        W76502  39.278  31.950  10.474
11276W        W76503  21.532  23.192   0.007
11277W        W76504   0.808  26.434  14.467
11278W        W76505  25.591  11.443  14.318
11279W        W76506   6.920   9.904   0.776
11280W        W76507  16.740  33.266  12.024
11281W        W76508  13.419  34.248   4.129
11282W        W76509  16.203  25.877  10.473
11283W        W76510   2.008  19.306  13.138
11284W        W76511  27.514   0.870  11.577
11285W        W76512  27.703  29.854  10.231
11286W        W76513  43.851  42.382   4.178
11287W        W76514  21.595  27.506   1.954
11288W        W76515  42.981   4.401  12.257
11289W        W76516  18.365  21.505  12.572
11290W        W76517  26.043  26.713  10.768
11291W        W76518   1.503  35.162   4.681
11292W        W76519  13.791  34.565  13.891
11293W        W76520  33.738   0.898  12.052
11294W        W76521  12.568   3.353   2.064
11295W        W76522   2.729  10.063  10.714
11296W        W76523  29.873   1.455   1.894
11297W        W76524  25.057  36.564   0.347
11298W        W76525   8.751  16.603  12.610
11299W        W76526  17.953  44.272  12.105
11300W        W76527  36.494  20.676  12.474
11301W        W76528  33.479  35.108   2.803
11302W        W76529  35.159  25.510   4.740
11303W        W76530  36.610   9.930   4.137
11304W        W76531  14.674  44.264  13.270
11305W        W76532  40.430  30.062   3.617
11306W        W76533   1.952  16.227  15.000
11307W        W76534  25.673  11.415  11.244
11308W        W76535   3.255   7.747   3.411
11309W        W76536   4.159  18.818   4.137
11310W        W76537  23.491  26.946   3.598
11311W        W76538  18.156  37.600   0.075
11312W        W76539  29.200  25.266   2.748
11313W        W76540   8.122   0.241   4.606
11314W        W76541   5.464  12.477   1.905
11315W        W76542  41.739  23.643  13.929
11316W        W76543  18.635   7.919  13.393
11317W        W76544  19.648  30.654   0.413
11318W        W76545  23.085  26.994   1.477
11319W        W76546  23.039   1.965  14.925
11320W        W76547   5.975  25.460  10.647
11321W        W76548  41.909   4.501   3.936
11322W        W76549  19.136  38.572   0.936
11323W        W76550   5.822   0.480  13.911
11324W        W76551  34.078  37.466   1.767
11325W        W76552  20.595  16.759  12.491
11326W        W76553  43.380  41.572  12.978
11327W        W76554  42.197   3.008  13.165
11328W        W76555   8.316  25.872   3.257
11329W        W76556  40.141  12.679   0.897
11330W        W76557  21.581  39.169   1.197
11331W        W76558   1.271  10.042   2.684
11332W        W76559  40.020  18.552  13.487
11333W        W76560  21.625  13.868  10.420
11334W        W76561  25.037  27.315  14.331
11335W        W76562  21.145   4.309   1.337
11336W        W76563  20.827  26.282   2.171
11337W        W76564  16.094  24.200   1.808
11338W        W76565  32.436  22.922  12.021
11339W        W76566  38.787  25.965   0.378
11340W        W76567  36.903  31.584   1.471
11341W        W76568  25.507   2.841   0.425
11342W        W76569  20.013  36.096   1.322
11343W        W76570  41.206   3.475  12.054
11344W        W76571  34.143  32.997   4.524
11345W        W76572   4.895  44.717   2.102
11346W        W76573  24.690  26.276  10.749
11347W        W76574  17.403  18.682   0.121
11348W        W76575   9.182  31.469   3.457
11349W        W76576  42.392  13.163  10.353
11350W        W76577  32.905  23.978  11.604
11351W        W76578   7.311  28.424   3.698
11352W        W76579   8.365  17.687  13.840
11353W        W76580  14.826  30.936  11.143
11354W        W76581   6.678  13.200  12.328
11355W        W76582   9.474  13.195   3.299
11356W        W76583   8.769  10.760   3.646
11357W        W76584  36.465  19.854   0.354
11358W        W76585  39.497  38.793  14.567
11359W        W76586  30.090  10.881   4.609
11360W        W76587  32.121  13.461   2.160
11361W        W76588   5.396  32.844   0.841
11362W        W76589  29.685  39.377  14.496
11363W        W76590   5.292  32.569  12.139
11364W        W76591  19.719  39.989  11.528
11365W        W76592  14.680   8.645   1.344
11366W        W76593   3.644   7.946  10.905
11367W        W76594   0.967  35.201   2.967
11368W        W76595   6.496  44.492  14.119
11369W        W76596  24.936   7.931  13.318
11370W        W76597   6.400  20.185   0.779
11371W        W76598   0.928  21.755  11.851
11372W        W76599   1.790  23.011   4.908
11373W        W76600  10.627  30.516  14.868
11374W        W76601  41.984  22.390   3.807
11375W        W76602  10.436  14.114  11.174
11376W        W76603  11.593  39.050  10.661
11377W        W76604  17.734  20.303  11.073
11378W        W76605  10.378  14.070   3.683
11379W        W76606  37.890  15.913  10.196
11380W        W76607  20.107   1.212   0.102
11381W        W76608  15.324  33.987  14.051
11382W        W76609  41.053  29.834   4.926
11383W        W76610  40.981  36.733   3.303
11384W        W76611   4.360  30.415  14.114
11385W        W76612   3.726  41.721  12.026
11386W        W76613   5.938   9.162  12.463
11387W        W76614   2.211  41.511   3.633
11388W        W76615  35.069  16.542  13.878
11389W        W76616  38.247   5.057   2.970
11390W        W76617  22.905  43.320  11.127
11391W        W76618   3.069  16.785  12.784
11392W        W76619  16.640   7.228  11.720
11393W        W76620  37.568  29.582  10.085
11394W        W76621  41.520  27.380  11.152
11395W        W76622   3.383  15.030  13.005
11396W        W76623  29.134  18.237  13.137
11397W        W76624  18.115  17.566   3.769
11398W        W76625  17.570  31.138   0.843
11399W        W76626   0.843  19.406  14.796
11400W        W76627   3.280  13.378   3.093
11401W        W76628  39.555   6.379  11.936
11402W        W76629  32.415   8.426   2.740
11403W        W76630   8.932  29.939   3.628
11404W        W76631  43.354   5.903  13.362
11405W        W76632  14.164  40.547   0.047
11406W        W76633   5.752  12.128  14.379
11407W        W76634   3.913  40.329   4.802
11408W        W76635   4.946   1.741   2.601
11409W        W76636  26.595  28.995  13.866
11410W        W76637  30.463  36.562  12.960
11411W        W76638  31.030  11.806  14.151
11412W        W76639  23.580  44.655   9.789
11413W        W76640  34.233  28.008   2.959
11414W        W76641  43.152  43.370   1.272
11415W        W76642  22.569  31.421   1.966
11416W        W76643  21.653  29.754  12.447
11417W        W76644  34.989  23.258  10.985
11418W        W76645  22.676  20.994  13.443
11419W        W76646  20.796  10.445  10.116
11420W        W76647  26.604  44.016  10.642
11421W        W76648  23.490  39.696  14.595
11422W        W76649   1.384  30.591   0.973
11423W        W76650  35.822  18.129   4.752
11424W        W76651  15.141  44.818   2.686
11425W        W76652  38.538  11.911  12.700
11426W        W76653  33.558  30.990  13.342
11427W        W76654   8.246  41.838   0.397
11428W        W76655   5.410   2.993   0.838
11429W        W76656  18.562  36.600  14.395
11430W        W76657  13.761  27.061  14.201
11431W        W76658  27.403  35.414  11.527
11432W        W76659  37.109  32.061  10.243
11433W        W76660  26.694  10.756  12.527
11434W        W76661  14.181   3.153  14.807
11435W        W76662  35.077  35.940   2.188
11436W        W76663   0.862  13.697  10.972
11437W        W76664   4.051  44.564   2.727
11438W        W76665  28.024  30.553  11.087
11439W        W76666  42.612  30.032   0.058
11440W        W76667   4.213  29.418   0.897
11441W        W76668  24.330  24.951   3.908
11442W        W76669  10.393  44.368   4.149
11443W        W76670  14.897  14.253   3.680
11444W        W76671  16.321  28.431   3.865
11445W        W76672  39.096   0.655   2.134
11446W        W76673   2.223  18.085  13.943
11447W        W76674   3.884  15.579   2.625
11448W        W76675   5.921   7.136  12.508
11449W        W76676  19.581  41.303  13.264
11450W        W76677  37.431  15.103   4.215
11451W        W76678  25.442   0.759   1.732
11452W        W76679  24.786   6.431  11.641
11453W        W76680  18.090  10.705   2.551
11454W        W76681  38.844  13.412  13.860
11455W        W76682  19.304  22.105   0.854
11456W        W76683  35.370  12.197   1.652
11457W        W76684  17.150  43.604   1.209
11458W        W76685  32.958  22.316   0.148
11459W        W76686  30.962  10.267   2.941
11460W        W76687  26.661  34.618  14.313
11461W        W76688   9.582  37.394  12.795
11462W        W76689  25.653  23.342   3.733
11463W        W76690  37.745   4.796   5.146
11464W        W76691  31.128   2.030  11.133
11465W        W76692  16.548  41.421   2.671
11466W        W76693  19.496  17.677  13.431
11467W        W76694   5.779  14.967   4.414
11468W        W76695   6.710  41.787   0.199
11469W        W76696   6.122  32.525   2.613
11470W        W76697  10.803  35.301  13.738
11471W        W76698  23.259  43.000  12.284
11472W        W76699  42.306  22.337   3.229
11473W        W76700  19.990  20.356   2.318
11474W        W76701  41.381   7.314   3.787
11475W        W76702  14.561   8.689   0.278
11476W        W76703   7.182  13.692  12.957
11477W        W76704  30.187   8.218   4.115
11478W        W76705   8.726   5.308   0.923
11479W        W76706  24.527  19.314  12.231
11480W        W76707  27.821  23.010  14.995
11481W        W76708  28.250  38.072  13.072
11482W        W76709   8.682  15.776  10.614
11483W        W76710   3.782  24.291  11.475
11484W        W76711  24.044  20.570   1.950
11485W        W76712  21.738   0.390  14.446
11486W        W76713  26.727  35.420   2.778
11487W        W76714  34.674  21.419   4.102
11488W        W76715  16.098   3.897   0.776
11489W        W76716  19.226  12.698   1.075
11490W        W76717  27.772  20.528   3.191
11491W        W76718  44.414   5.177   2.692
11492W        W76719   2.498  21.085   0.063
11493W        W76720  24.534  14.236   4.334
11494W        W76721  21.130  25.865   2.112
11495W        W76722   7.455   7.825  13.870
11496W        W76723  31.677  36.058  14.982
11497W        W76724   3.029   1.194   3.778
11498W        W76725   8.871  28.010   1.707
11499W        W76726  13.308  21.539  14.884
11500W        W76727   8.974   8.898   2.670
11501W        W76728  25.998  27.603  12.483
11502W        W76729  34.567   4.021   4.622
11503W        W76730  20.302  44.816  11.946
11504W        W76731  17.949  36.814   3.120
11505W        W76732  32.622  34.965   0.373
11506W        W76733   6.739  24.653   3.894
11507W        W76734  24.031   3.398  12.919
11508W        W76735  11.646   3.999   1.252
11509W        W76736   3.276  36.961   2.247
11510W        W76737  40.390  19.087  10.394
11511W        W76738  13.005   5.834  12.338
11512W        W76739  21.292  11.342  10.726
11513W        W76740  19.304  13.085  11.632
11514W        W76741  36.234  35.120  13.481
11515W        W76742  24.480  17.696   0.233
11516W        W76743  11.775   4.180  14.980
11517W        W76744  21.735   3.896  12.339
11518W        W76745  40.916  13.354   0.863
11519W        W76746  38.568  19.654   4.573
11520W        W76747   2.802  36.109  10.677
11521W        W76748   7.198  42.458   0.750
11522W        W76749  42.029   4.153   3.570
11523W        W76750  37.785  33.629  14.019
11524W        W76751   3.252  15.714  14.354
11525W        W76752  14.095  34.846   1.283
11526W        W76753  37.038  22.209   2.976
11527W        W76754   9.561  27.973  12.419
11528W        W76755  43.301  12.374   1.391
11529W        W76756  35.329   7.781  14.894
11530W        W76757  17.909  24.255  11.626
11531W        W76758  11.677   7.269   1.849
11532W        W76759   7.227  11.192  12.381
11533W        W76760  41.369  32.209   1.277
11534W        W76761  10.209  33.162  12.977
11535W        W76762   4.691  19.501   0.794
11536W        W76763  39.384   9.702   3.337
11537W        W76764  18.626   8.545  11.706
11538W        W76765  27.633   6.796   4.013
11539W        W76766  18.702  40.032   0.882
11540W        W76767  22.240  16.807   4.463
11541W        W76768   4.823  37.318  11.644
11542W        W76769  41.243  19.147  10.248
11543W        W76770   7.161  22.153   4.278
11544W        W76771  12.677   9.610   1.329
11545W        W76772  22.022  18.118   4.543
11546W        W76773  22.848   7.247  10.518
11547W        W76774   1.741  41.987   2.811
11548W        W76775  42.759  31.110   2.212
11549W        W76776   8.085  12.446   0.837
11550W        W76777  33.072  20.103   3.036
11551W        W76778  26.172   0.409   4.269
11552W        W76779  38.897  29.715   5.164
11553W        W76780  14.388  32.845  10.066
11554W        W76781  24.971   7.302   0.822
11555W        W76782  27.188   3.198   4.562
11556W        W76783  38.971  23.853   3.960
11557W        W76784  20.689  27.015   4.485
11558W        W76785  31.743   3.712   0.806
11559W        W76786  21.390  31.368   3.751
11560W        W76787   6.351   1.693   1.599
11561W        W76788   4.846  32.047  14.913
11562W        W76789  21.421  37.097  12.544
11563W        W76790   3.502  37.008  11.444
11564W        W76791   4.918  38.556  12.741
11565W        W76792  40.666   1.978  13.915
11566W        W76793  28.222   1.512  13.001
11567W        W76794  40.626  37.379  11.873
11568W        W76795  14.533  24.704  12.004
11569W        W76796  29.852  10.402  13.714
11570W        W76797  12.994  26.856   2.061
11571W        W76798  19.104  42.465   2.175
11572W        W76799  16.025  27.218  14.373
11573W        W76800  42.854  39.975   0.860
11574W        W76801  32.040  33.163   3.823
11575W        W76802   1.769  12.435  14.887
11576W        W76803  39.405  41.027  11.159
11577W        W76804  31.028  13.373   0.217
11578W        W76805  15.593  38.325  14.884
11579W        W76806  17.842  22.094   2.776
11580W        W76807   5.292  13.866  13.782
11581W        W76808   3.642   1.919   1.746
11582W        W76809  29.289  30.447   1.221
11583W        W76810  20.999   3.251   0.303
11584W        W76811  16.673   6.522  10.666
11585W        W76812  29.711  42.414  12.888
11586W        W76813  36.648  29.392   2.741
11587W        W76814  43.280  26.150   3.680
11588W        W76815  44.991   5.746  14.922
11589W        W76816  29.514  44.347  10.009
11590W        W76817  37.421  32.161   0.457
11591W        W76818   7.319   9.959   3.691
11592W        W76819  18.753  44.248  13.497
11593W        W76820  17.833  38.578  10.681
11594W        W76821   8.254  41.085   1.292
11595W        W76822  36.805   2.804  12.146
11596W        W76823   8.622  44.662   1.292
11597W        W76824  44.012   0.703   2.380
11598W        W76825  30.584  16.213   0.165
11599W        W76826  38.215  18.378  11.148
11600W        W76827  29.441  18.874   2.756
11601W        W76828  15.768  11.639  13.764
11602W        W76829   3.257  28.696  10.752
11603W        W76830  24.701  29.519   2.305
11604W        W76831  33.102  34.532  11.964
11605W        W76832   3.338  35.776   0.734
11606W        W76833  31.135  42.899  10.682
11607W        W76834  38.968  40.414  12.024
11608W        W76835   4.187  24.930  14.883
11609W        W76836   2.127   8.134   1.840
11610W        W76837  19.536  35.833  11.482
11611W        W76838  26.281   1.106   5.356
11612W        W76839  28.702   0.646   2.233
11613W        W76840  29.672   9.725  10.499
11614W        W76841  29.980  33.462   3.178
11615W        W76842   5.839   7.315  10.644
11616W        W76843  38.715  14.285   1.195
11617W        W76844  31.482  15.862  11.116
11618W        W76845  30.974   9.963  11.704
11619W        W76846  21.589  18.203  10.700
11620W        W76847  35.247  26.551  14.460
11621W        W76848  15.178  31.560   2.478
11622W        W76849  12.254   2.664  13.417
11623W        W76850  43.293  43.575  13.279
11624W        W76851   9.746  22.894  14.696
11625W        W76852  38.997  39.730   4.596
11626W        W76853  22.671  10.510   2.900
11627W        W76854  10.121  33.398  10.282
11628W        W76855  16.208  11.578  14.503
11629W        W76856  13.276  11.215   1.888
11630W        W76857  33.940  24.094   2.309
11631W        W76858  23.834  30.851   3.244
11632W        W76859  14.814   4.928  14.752
11633W        W76860  33.284  42.434   3.308
11634W        W76861  37.816  22.328  11.867
11635W        W76862   7.300  35.709   4.647
11636W        W76863  22.769   1.318  14.000
11637W        W76864  39.384  31.106   2.218
11638W        W76865  25.549  24.610  13.599
11639W        W76866  31.522  28.517  11.957
11640W        W76867   0.948   4.750  14.747
11641W        W76868   8.461  12.827  13.292
11642W        W76869  26.083   1.899   5.081
11643W        W76870  35.401   5.378   4.588
11644W        W76871  32.461  25.259   2.363
11645W        W76872  33.641  41.441   2.573
11646W        W76873  21.741  19.409   2.221
11647W        W76874  29.491  13.318   3.524
11648W        W76875  33.788  10.296   3.314
11649W        W76876   1.871  11.127   2.375
11650W        W76877  40.009  26.027   4.365
11651W        W76878  16.638  26.784   0.383
11652W        W76879  40.786   5.781   0.879
11653W        W76880  34.083   3.899   4.451
11654W        W76881  30.434   5.085  10.439
11655W        W76882  13.825  22.934  12.920
11656W        W76883   9.228  33.287  12.856
11657W        W76884  35.814  23.539   2.658
11658W        W76885  14.232  12.221   4.096
11659W        W76886   8.248   3.230  11.105
11660W        W76887  26.263  18.290   2.757
11661W        W76888  11.193   2.377  12.157
11662W        W76889  20.623  14.153  14.020
11663W        W76890  18.537  16.242   4.179
11664W        W76891  20.295  13.312  12.380
11665W        W76892   2.328   7.686   0.525
11666W        W76893  39.419  39.949   4.411
11667W        W76894  18.723  44.774  10.689
11668W        W76895  37.251  27.446  13.361
11669W        W76896  12.787  43.118  13.947
11670W        W76897   5.663  28.174  14.308
11671W        W76898  31.607  29.087  12.511
11672W        W76899  14.182  10.119   2.732
11673W        W76900  32.068   2.996  11.539
11674W        W76901  19.047   3.420  14.641
11675W        W76902  42.935  11.590   1.688
11676W        W76903   2.297   3.762   0.711
11677W        W76904  44.438   7.908  12.508
11678W        W76905  20.146  27.767  11.678
11679W        W76906  33.075  29.047   0.467
11680W        W76907  14.267   0.765  12.344
11681W        W76908  34.172  29.685   0.972
11682W        W76909  26.667  31.210   2.321
11683W        W76910  19.857   2.914  12.595
11684W        W76911  19.097  18.167  14.246
11685W        W76912  27.912   8.375   3.088
11686W        W76913  40.745  25.679   4.041
11687W        W76914   3.419  42.901  14.362
11688W        W76915   4.668  39.852  10.066
11689W        W76916  37.836  14.699   3.766
11690W        W76917   9.096  11.635  14.404
11691W        W76918   9.677  22.616   1.831
11692W        W76919  36.493  28.462   3.771
11693W        W76920  44.529  39.921  11.033
11694W        W76921  23.728  24.680   2.268
11695W        W76922  41.751  43.940   2.976
11696W        W76923  13.039  10.829   4.634
11697W        W76924   8.799   4.762   3.890
11698W        W76925  24.205  44.889   2.581
11699W        W76926  40.781  15.052  14.968
11700W        W76927  42.401  35.627  10.761
11701W        W76928   9.917   0.996   4.303
11702W        W76929   3.917  21.720  12.544
11703W        W76930  28.437   3.549   1.883
11704W        W76931  14.047   5.127  11.256
11705W        W76932  11.281  27.788   2.295
11706W        W76933   9.559   0.448   1.985
11707W        W76934   2.768   1.960  14.941
11708W        W76935   3.830  20.774  12.867
11709W        W76936  42.885  42.901   5.002
11710W        W76937  31.023  34.550   2.371
11711W        W76938  23.617  14.501  13.945
11712W        W76939  43.072  39.456   0.878
11713W        W76940  22.262  34.472  11.182
11714W        W76941   7.853  39.658  11.933
11715W        W76942   9.110  43.996   1.718
11716W        W76943  35.177  34.932  10.222
11717W        W76944  31.361  36.443   0.182
11718W        W76945  43.991  39.055  11.702
11719W        W76946  19.305  15.734   3.225
11720W        W76947  27.926  26.603   3.648
11721W        W76948  28.805  10.894   3.714
11722W        W76949  30.289  24.230  11.665
11723W        W76950  32.779  31.168   0.925
11724W        W76951   6.197  44.365   3.724
11725W        W76952  39.708   1.372   3.298
11726W        W76953   8.357  39.561  14.383
11727W        W76954  42.777  12.303   3.238
11728W        W76955   3.907   6.727  14.416
11729W        W76956  29.139  39.807  12.896
11730W        W76957  22.062  44.701   2.367
11731W        W76958  19.334  21.194   0.359
11732W        W76959  15.617  33.408  12.543
11733W        W76960  10.142   3.806  12.013
11734W        W76961  15.529  34.096  11.046
11735W        W76962  35.638  24.197   1.794
11736W        W76963   4.181  24.592  12.605
11737W        W76964   1.034  33.690   4.183
11738W        W76965  28.097   0.703  10.103
11739W        W76966   6.744   4.357   4.389
11740W        W76967  13.113  25.271   5.002
11741W        W76968  15.108  11.870   0.778
11742W        W76969  10.593  28.928   2.442
11743W        W76970   2.020  40.939  11.600
11744W        W76971  39.312  17.009  11.491
11745W        W76972  22.187  27.681   0.745
11746W        W76973  20.969  19.857   1.339
11747W        W76974  25.786  33.593  13.373
11748W        W76975  23.176   2.246   2.596
11749W        W76976  18.632   3.847  12.980
11750W        W76977  38.455  32.941   0.705
11751W        W76978  35.855   9.258  10.651
11752W        W76979  31.906  10.256   1.704
11753W        W76980  39.097  19.284   1.738
11754W        W76981   2.835  20.029  14.240
11755W        W76982   6.914  44.272  13.885
11756W        W76983  33.382   5.212  13.048
11757W        W76984  43.287  16.766  12.200
11758W        W76985  19.704   3.317  10.276
11759W        W76986  23.464  35.488  11.590
11760W        W76987  35.060   5.644  11.998
11761W        W76988  23.561  43.071  13.430
11762W        W76989  23.436  10.332   2.308
11763W        W76990  29.336  43.893  10.824
11764W        W76991   3.581  16.573  14.271
11765W        W76992   8.161   1.852  11.315
11766W        W76993  37.575  14.322  11.005
11767W        W76994  30.842  18.042   0.140
11768W        W76995  44.071   9.554  11.903
11769W        W76996  32.488  31.196  11.096
11770W        W76997  36.550   4.696  13.378
11771W        W76998  11.752  37.835  14.902
11772W        W76999  16.614  29.554   1.706
11773W        W77000   3.892   3.084  11.232
11774W        W77001  20.503  34.333  12.950
11775W        W77002   9.656  40.567   2.641
11776W        W77003   0.750  26.074   2.315
11777W        W77004   5.669   0.863  11.546
11778W        W77005   9.659  30.184  11.199
11779W        W77006   2.741  22.023  11.945
11780W        W77007  35.894  14.323  13.478
11781W        W77008  16.343  33.429  11.346
11782W        W77009  11.705  26.046   4.377
11783W        W77010  27.459  27.993  11.937
11784W        W77011   7.511   1.492  14.479
11785W        W77012   5.743  35.833   3.208
11786W        W77013   1.106  36.527   2.800
11787W        W77014  34.588  19.267   2.615
11788W        W77015  15.881  39.893   4.391
11789W        W77016  34.768  29.655  13.979
11790W        W77017  16.552  27.987   4.741
11791W        W77018  29.865   3.914  10.817
11792W        W77019  22.609  25.590  13.015
11793W        W77020   5.826  25.190  11.839
11794W        W77021  21.329  11.152  13.629
11795W        W77022  19.035  26.855   4.102
11796W        W77023   4.144  44.228   1.352
11797W        W77024  25.693  36.103  14.397
11798W        W77025  31.065  14.861  14.764
11799W        W77026  18.127   5.936  12.128
11800W        W77027  17.927  23.670   1.695
11801W        W77028  41.860  19.480   5.085
11802W        W77029  40.450  36.157   4.653
11803W        W77030  30.947  11.142  11.706
11804W        W77031  34.421  32.059   3.178
11805W        W77032   1.955   8.632  11.355
11806W        W77033   4.245  30.983  13.458
11807W        W77034  14.789  35.930   0.290
11808W        W77035  15.476  44.833   4.588
11809W        W77036   9.712  29.013  12.366
11810W        W77037  43.461   3.346  14.481
11811W        W77038  30.672  11.386   3.325
11812W        W77039  26.180  16.150   1.910
11813W        W77040  24.528   2.906  13.961
11814W        W77041  36.612  38.174  11.561
11815W        W77042  15.756   4.038   0.014
11816W        W77043  43.335   6.390  13.119
11817W        W77044   6.831  27.153  10.725
11818W        W77045  35.985  41.046   4.546
11819W        W77046  19.801  33.999   3.437
11820W        W77047  43.475  32.093   1.707
11821W        W77048   3.681   9.575   3.268
11822W        W77049  26.706  27.395  11.862
11823W        W77050  28.539  26.308   3.678
11824W        W77051  12.226   9.916   1.262
11825W        W77052  12.240  37.589   2.608
11826W        W77053  14.799  34.362   4.711
11827W        W77054   7.250  16.396  12.889
11828W        W77055  19.231  37.376   2.773
11829W        W77056   6.841  37.561   2.253
11830W        W77057  41.261  42.972   2.670
11831W        W77058  11.623  28.373   4.007
11832W        W77059  43.299  34.457  10.780
11833W        W77060  19.512  32.548   3.727
11834W        W77061  41.430  44.957  14.808
11835W        W77062  25.725  32.613  14.431
11836W        W77063  39.244   4.275   9.844
11837W        W77064   6.203  20.947  13.029
11838W        W77065  25.180  13.687   4.899
11839W        W77066  22.699  24.672   1.397
11840W        W77067  14.088  31.890   2.216
11841W        W77068  37.938  13.419  12.523
11842W        W77069   5.830   7.411  14.451
11843W        W77070  39.815  10.450  11.626
11844W        W77071  18.482  34.846   0.884
11845W        W77072  26.451  22.729   2.894
11846W        W77073  42.489  29.650  13.983
11847W        W77074  42.884  23.865   1.247
11848W        W77075  28.163   5.796   2.705
11849W        W77076  34.619  42.951  11.557
11850W        W77077  11.526  20.123   3.652
11851W        W77078  44.414   8.546   3.735
11852W        W77079  15.143  32.598  14.851
11853W        W77080  39.540  25.772   4.592
11854W        W77081  10.901  29.327   1.367
11855W        W77082  43.079  26.921  14.514
11856W        W77083   5.465   5.698  14.709
11857W        W77084  12.744   0.967  11.256
11858W        W77085   6.929  34.959  11.585
11859W        W77086  11.817   4.762   5.027
11860W        W77087  29.634  16.615  13.976
11861W        W77088  27.530   9.099  11.334
11862W        W77089  12.633  33.710  11.620
11863W        W77090   9.410  41.798  14.972
11864W        W77091  11.618  22.808  11.152
11865W        W77092   6.918  20.125   0.824
11866W        W77093  37.626  13.282  14.806
11867W        W77094  41.220  36.917   1.719
11868W        W77095  38.591  16.196   1.967
11869W        W77096   4.586  27.003  14.541
11870W        W77097  43.003  21.180   0.357
11871W        W77098  26.920   1.689   3.361
11872W        W77099  10.422  19.139  12.989
11873W        W77100  12.652  38.818   1.234
11874W        W77101  43.162  39.814   4.119
11875W        W77102   2.861  25.471  14.640
11876W        W77103   6.674  25.842   3.051
11877W        W77104   3.711  20.477  14.371
11878W        W77105  10.379  30.484   2.100
11879W        W77106  31.952  33.795  10.747
11880W        W77107  16.150  37.873   0.312
11881W        W77108  21.094  36.841   1.373
11882W        W77109   9.673  16.522  14.765
11883W        W77110  26.967  44.657   2.364
11884W        W77111  35.560   9.092   4.298
11885W        W77112  42.346   1.134  14.326
11886W        W77113   6.315  10.781  12.968
11887W        W77114  38.686  24.100  12.880
11888W        W77115  10.873  18.449  14.843
11889W        W77116  34.938  27.770  11.520
11890W        W77117  38.278  31.818  12.110
11891W        W77118  34.462  36.180  14.964
11892W        W77119  31.562  39.839  13.073
11893W        W77120  33.774  13.915   2.800
11894W        W77121  19.036   7.162  14.486
11895W        W77122   2.358  42.228   4.996
11896W        W77123  40.787  12.356  14.518
11897W        W77124  32.265   9.743   0.874
11898W        W77125  22.081  36.345   0.432
11899W        W77126  41.547  32.026  10.225
11900W        W77127  22.065  22.129  10.740
11901W        W77128  30.271   4.804  12.975
11902W        W77129  34.564   5.610  13.325
11903W        W77130  18.102   0.477   2.610
11904W        W77131  12.778  31.555   4.584
11905W        W77132   7.321  25.933   4.709
11906W        W77133  44.033   2.501   1.695
11907W        W77134   7.184   8.714   1.980
11908W        W77135  22.726  19.949  12.519
11909W        W77136  40.520  38.393  10.794
11910W        W77137  35.067   9.219   4.146
11911W        W77138  17.427   3.426  14.800
11912W        W77139  39.373  33.934  11.468
11913W        W77140   8.449   8.247   2.206
11914W        W77141  32.817  38.083  13.792
11915W        W77142   7.200  23.289   4.446
11916W        W77143  38.409  28.821   3.269
11917W        W77144  37.121  43.298  14.803
11918W        W77145  39.489  29.206  14.787
11919W        W77146  18.993  41.721   1.566
11920W        W77147  43.330  40.273   4.562
11921W        W77148  43.727  26.035   3.429
11922W        W77149   9.854  28.761  14.956
11923W        W77150  22.307  37.595  14.759
11924W        W77151  18.154   4.793   1.931
11925W        W77152  28.143  32.783  10.560
11926W        W77153   5.073  42.869   1.854
11927W        W77154  34.794  28.524   9.710
11928W        W77155  21.685   6.218   3.191
11929W        W77156  16.323  26.675   1.319
11930W        W77157  11.689  16.092  13.340
11931W        W77158  40.070   5.912  14.700
11932W        W77159  34.047  36.127  12.518
11933W        W77160  22.965  21.725  10.958
11934W        W77161  27.355  35.890  10.794
11935W        W77162  20.852  24.711  14.486
11936W        W77163   0.299  19.921  13.049
11937W        W77164  24.408  37.924   0.695
11938W        W77165  34.135  38.078   0.384
11939W        W77166  31.300   1.777   2.785
11940W        W77167   6.655  10.911  13.879
11941W        W77168  16.614  26.153   4.860
11942W        W77169  30.133  25.276   1.361
11943W        W77170   5.045  18.548   2.195
11944W        W77171  16.349  28.566   1.009
11945W        W77172  13.211  24.395  11.899
11946W        W77173   1.538   4.696   0.714
11947W        W77174  34.681  27.552   2.281
11948W        W77175  23.285   2.760   1.180
11949W        W77176   6.402  16.462   4.045
11950W        W77177  40.770   1.681   1.811
11951W        W77178  27.225  35.815  11.285
11952W        W77179  23.879  11.531  10.362
11953W        W77180   5.660   3.276   3.612
11954W        W77181  21.688   8.596  10.577
11955W        W77182  19.172  33.633   2.932
11956W        W77183   7.747  13.173   3.512
11957W        W77184   7.123   4.061   2.669
11958W        W77185  42.243  31.583  12.511
11959W        W77186  33.237   5.655  13.432
11960W        W77187  24.395  20.146   4.511
11961W        W77188  23.145  44.244  12.867
11962W        W77189   8.981   3.316  12.958
11963W        W77190  14.174  21.044   3.436
11964W        W77191   2.409  15.790  14.345
11965W        W77192  31.265   8.747  14.789
11966W        W77193  14.673   2.292  14.490
11967W        W77194  18.252  23.655   0.267
11968W        W77195  18.257   6.783   3.152
11969W        W77196   3.263   1.857  14.794
11970W        W77197   8.336   2.790  12.484
11971W        W77198  26.228  13.890   2.488
11972W        W77199  25.997  44.047  11.193
11973W        W77200   7.195  25.453  12.878
11974W        W77201   2.480   9.622   4.180
11975W        W77202  17.635  39.064   2.809
11976W        W77203  41.429  40.969   0.743
11977W        W77204  18.962  31.870   2.887
11978W        W77205  20.025  29.006  13.668
11979W        W77206   5.922  22.328   1.400
11980W        W77207   2.420   1.054   2.917
11981W        W77208   6.239   1.416  12.660
11982W        W77209  32.350  32.654   3.070
11983W        W77210  22.165  31.580   2.251
11984W        W77211   8.898  25.098   2.169
11985W        W77212  36.185  37.023  10.059
11986W        W77213  39.113   1.283  14.949
11987W        W77214  14.783  26.376   5.026
11988W        W77215  21.824  39.138   3.206
11989W        W77216  33.942  33.917   2.656
11990W        W77217  31.919  16.326   0.028
11991W        W77218  16.686  25.674  10.442
11992W        W77219  35.578  40.958  14.350
11993W        W77220  21.642  13.883  10.923
11994W        W77221   9.381  25.640   0.417
11995W        W77222  20.289  11.728  14.783
11996W        W77223  15.392  41.199  11.125
11997W        W77224  30.926   3.119   1.739
11998W        W77225  37.962  38.526  14.375
11999W        W77226  11.695  31.803  13.087
12000W        W77227  10.746  22.971   1.403
12001W        W77228  29.920  12.123   0.329
12002W        W77229   4.245  41.619  14.009
12003W        W77230  36.789  40.394  12.455
12004W        W77231  30.112   9.767   3.825
12005W        W77232   4.427  32.463  13.025
12006W        W77233  21.470   0.666  11.529
12007W        W77234  29.373  24.691  14.372
12008W        W77235   3.615  39.463   1.213
12009W        W77236  19.047  39.727  13.916
12010W        W77237  43.507  16.216   2.322
12011W        W77238  19.222   5.321  11.052
12012W        W77239  16.587  20.595  12.275
12013W        W77240  10.854   1.700  14.416
12014W        W77241  43.265  38.315  11.636
12015W        W77242   2.872  17.704  11.660
12016W        W77243  38.053  35.633   2.306
12017W        W77244  17.291   8.117   2.303
12018W        W77245  38.302   1.892   1.339
12019W        W77246  37.326   7.288  10.879
12020W        W77247   7.687  44.817   3.804
12021W        W77248  10.410  25.095  13.162
12022W        W77249  35.221  37.796   4.160
12023W        W77250  11.146   0.361   4.623
12024W        W77251  26.697  16.146   1.804
12025W        W77252  17.339  34.272   1.322
12026W        W77253   2.319  21.213  10.843
12027W        W77254  20.639   9.421   4.495
12028W        W77255  20.271  15.682   0.196
12029W        W77256  20.563  19.315   4.671
12030W        W77257  28.198   4.296  10.830
12031W        W77258  23.314  10.480  12.806
12032W        W77259   0.349  29.036  13.780
12033W        W77260  39.040  15.127  14.378
12034W        W77261   7.588   1.027  14.274
12035W        W77262  10.398   9.490  14.493
12036W        W77263  19.676  29.530  12.164
12037W        W77264  13.443  22.235  14.270
12038W        W77265   2.246   6.840  13.002
12039W        W77266  13.316  36.447  12.091
12040W        W77267  12.577  20.337   3.639
12041W        W77268  34.905   2.639  14.895
12042W        W77269  21.593  31.101   3.192
12043W        W77270  29.230  23.655   0.869
12044W        W77271  33.012   7.521   0.986
12045W        W77272  20.847  22.504  14.776
12046W        W77273  37.595  13.267   1.200
12047W        W77274  40.961  23.973  11.488
12048W        W77275   9.235   3.043   4.811
12049W        W77276  30.594  11.783  14.415
12050W        W77277  27.619  35.602   1.408
12051W        W77278   0.331  11.764   0.359
12052W        W77279  16.707   2.991   4.916
12053W        W77280   7.703  39.490   1.247
12054W        W77281  33.434   4.864  14.094
12055W        W77282   8.142   7.923   1.280
12056W        W77283  42.460   4.657  13.382
12057W        W77284  43.548  13.369   1.502
12058W        W77285  39.370  39.395   3.155
12059W        W77286  12.016  26.761  12.224
12060W        W77287  10.261  17.619  12.096
12061W        W77288  30.984  24.405   5.124
12062W        W77289  32.547  16.594   2.126
12063W        W77290  44.206  38.616   3.690
12064W        W77291   0.060  32.567  13.607
12065W        W77292  36.955  21.461  12.554
12066W        W77293  22.240   8.145  12.479
12067W        W77294  44.020   0.984   1.375
12068W        W77295  13.159  11.243  12.392
12069W        W77296  21.593  16.637   0.888
12070W        W77297  27.899  35.535  11.454
12071W        W77298  11.402  27.483  11.147
12072W        W77299  23.462  24.597   2.693
12073W        W77300  36.934   9.200   2.233
12074W        W77301   0.887  24.656  10.216
12075W        W77302  27.742  33.861   1.337
12076W        W77303  29.335  41.535   4.769
12077W        W77304   2.650  24.135   2.773
12078W        W77305  43.086  37.328  14.647
12079W        W77306  41.488  36.349   2.732
12080W        W77307  22.045  37.595  12.065
12081W        W77308  25.963   7.758  10.534
12082W        W77309  17.925   5.510   4.675
12083W        W77310   7.909   3.959   1.249
12084W        W77311   4.425  25.098   3.888
12085W        W77312  22.364  44.269   2.352
12086W        W77313  36.353  20.225  13.337
12087W        W77314  40.251  33.958  11.580
12088W        W77315  32.070  17.782  10.942
12089W        W77316   5.366  26.612  10.702
12090W        W77317  41.339   5.617   1.626
12091W        W77318   3.942  39.510   0.793
12092W        W77319  36.522  16.622   4.552
12093W        W77320  34.989  15.891   3.492
12094W        W77321   6.901  38.656   1.838
12095W        W77322  27.176   6.479  10.628
12096W        W77323  13.042   1.851  13.322
12097W        W77324  24.241  39.441  14.032
12098W        W77325  35.548  37.721  12.440
12099W        W77326  11.070  37.087   1.677
12100W        W77327  44.336   9.243   4.575
12101W        W77328  31.612  29.297  11.128
12102W        W77329  28.952  13.320  11.297
12103W        W77330  35.059  25.758   2.350
12104W        W77331  16.989  44.505   4.641
12105W        W77332   9.749  14.909   0.259
12106W        W77333  10.153  37.227  11.656
12107W        W77334  12.638   3.446   5.047
12108W        W77335  39.329  41.383  12.580
12109W        W77336  24.990  13.294  12.544
12110W        W77337  13.839  26.647   1.771
12111W        W77338  36.500  40.032  11.348
12112W        W77339  22.727  13.096   2.898
12113W        W77340  43.350   5.974  11.924
12114W        W77341  44.217   0.615  13.860
12115W        W77342  25.504  23.405  12.280
12116W        W77343   8.008  37.606   5.065
12117W        W77344  17.492   5.731   2.293
12118W        W77345  16.246   8.640  14.970
12119W        W77346   5.487   9.263   3.485
12120W        W77347   2.651  12.924  12.891
12121W        W77348  13.402  15.687  14.021
12122W        W77349  30.327  25.014  14.042
12123W        W77350  31.071  19.069   1.019
12124W        W77351   6.388  18.966  11.149
12125W        W77352  21.743   2.989  12.075
12126W        W77353  21.970   6.638  13.155
12127W        W77354   2.680  36.459   4.206
12128W        W77355  37.896  10.813   2.830
12129W        W77356  28.525  17.753  13.414
12130W        W77357  39.449  30.710   3.373
12131W        W77358  34.659  35.739  14.783
12132W        W77359  33.658  41.309  11.195
12133W        W77360  34.775  43.962  12.558
12134W        W77361  16.010  18.545  14.255
12135W        W77362   2.467  23.610   3.411
12136W        W77363  23.570  14.337   3.719
12137W        W77364  39.409  20.651  12.028
12138W        W77365  38.531  14.598  11.679
12139W        W77366  18.142  32.958   1.420
12140W        W77367  27.841  31.943   5.003
12141W        W77368  33.584  40.837   1.223
12142W        W77369  11.359  44.314  12.531
12143W        W77370  35.013  19.626  14.985
12144W        W77371  27.737  41.431   2.713
12145W        W77372  32.288  41.489   2.161
12146W        W77373  18.547  21.621  13.408
12147W        W77374  37.152  13.211  14.590
12148W        W77375  18.667   2.730  12.161
12149W        W77376  18.315  17.867   1.256
12150W        W77377  13.327  39.927  11.367
12151W        W77378  43.887  27.429  13.557
12152W        W77379  37.532  24.556  14.442
12153W        W77380   9.880   9.769   4.171
12154W        W77381  42.764  11.974  10.898
12155W        W77382   0.604  21.956  11.030
12156W        W77383   0.754  25.105   4.929
12157W        W77384  20.887  12.965  12.488
12158W        W77385   8.651  18.084  13.604
12159W        W77386   2.811  39.505  13.916
12160W        W77387   2.014  19.272   9.756
12161W        W77388  15.013   8.425  12.026
12162W        W77389  25.560  26.776   4.070
12163W        W77390  39.560  33.064  11.007
12164W        W77391   0.747  14.154  10.756
12165W        W77392   2.562   3.600  13.778
12166W        W77393  20.169  41.340  10.335
12167W        W77394   9.014  28.267  12.973
12168W        W77395  21.709  22.911  11.670
12169W        W77396  30.155  11.523   3.350
12170W        W77397  27.028  30.075   2.704
12171W        W77398  30.664  43.557   4.251
12172W        W77399  34.513  16.536  12.047
12173W        W77400   2.490   6.196   4.248
12174W        W77401  43.359  17.622   1.161
12175W        W77402  42.826  14.366   3.321
12176W        W77403   0.864  37.571   0.294
12177W        W77404   9.168  10.390   4.674
12178W        W77405  14.352  30.034   1.367
12179W        W77406  22.734  34.287  11.176
12180W        W77407   4.516  16.562  12.680
12181W        W77408  30.504  39.557  13.922
12182W        W77409   7.704  13.309  14.721
12183W        W77410  19.466   3.921   3.317
12184W        W77411  28.631  23.994   3.899
12185W        W77412  33.546  42.243  14.767
12186W        W77413  37.055   6.693   0.223
12187W        W77414  24.466  37.704   0.229
12188W        W77415  12.584   7.806   4.617
12189W        W77416  23.787  20.979  12.031
12190W        W77417  29.591   1.448   0.855
12191W        W77418  38.303  29.145   4.886
12192W        W77419   0.536  31.094  10.573
12193W        W77420   6.974   7.811  14.573
12194W        W77421  27.023  43.869   0.376
12195W        W77422  30.571  34.480  12.237
12196W        W77423  35.800  39.778  13.054
12197W        W77424  39.326  14.865  12.319
12198W        W77425  13.927   9.590   3.275
12199W        W77426   7.671  40.978  14.431
12200W        W77427   1.851  38.385   2.605
12201W        W77428  34.149   7.349   2.444
12202W        W77429  26.249  18.819   1.832
12203W        W77430  17.825   2.926   4.375
12204W        W77431  27.944   5.487   4.879
12205W        W77432  36.831   5.141   0.297
12206W        W77433  16.668   6.281  11.133
12207W        W77434  44.247  14.281  11.598
12208W        W77435  18.800  19.848   1.198
12209W        W77436  38.521  10.186  12.007
12210W        W77437  26.521   4.768  13.264
12211W        W77438  22.649  34.446  13.582
12212W        W77439  32.985   0.660  13.112
12213W        W77440  16.193  33.353   4.612
12214W        W77441   4.093   4.105  11.247
12215W        W77442   5.085   4.833   0.072
12216W        W77443  20.794  12.746   0.992
12217W        W77444  21.411  36.915   4.759
12218W        W77445  38.088   3.238   2.791
12219W        W77446  39.621   5.734  14.495
12220W        W77447   9.924  25.280   2.266
12221W        W77448   4.450  28.883  11.060
12222W        W77449  28.446  31.639   3.108
12223W        W77450  29.431  16.102   1.830
12224W        W77451  37.674  27.614   2.337
12225W        W77452   7.610  35.036   3.299
12226W        W77453   9.929  14.112  11.292
12227W        W77454   8.818   6.096  11.981
12228W        W77455  37.832  32.259  13.977
12229W        W77456  29.151   0.166  14.504
12230W        W77457  31.414   7.194   3.168
12231W        W77458   7.903  22.999   4.071
12232W        W77459  21.959   1.949  10.701
12233W        W77460  15.177  26.094   0.797
12234W        W77461  44.736  41.053   2.770
12235W        W77462  43.543   7.274   0.941
12236W        W77463  33.726  17.695  11.977
12237W        W77464  43.413  39.318   4.331
12238W        W77465  20.981   1.753  10.705
12239W        W77466  39.394  14.485   2.862
12240W        W77467  31.838  18.100  12.530
12241W        W77468  27.020   3.193  11.923
12242W        W77469  14.650  37.703  14.762
12243W        W77470  28.010  10.636   4.876
12244W        W77471  12.366  31.846   3.979
12245W        W77472  38.927  38.034   0.727
12246W        W77473  23.677   5.364  11.188
12247W        W77474   6.146  31.852  12.594
12248W        W77475  33.337   6.137  11.128
12249W        W77476   1.803  12.748   1.431
12250W        W77477  18.103   9.127  10.504
12251W        W77478  32.460  21.024   0.509
12252W        W77479  37.565  44.427   4.583
12253W        W77480   2.371   2.871   0.857
12254W        W77481  29.471  26.964  12.485
12255W        W77482  36.901  14.328  14.265
12256W        W77483  14.158  40.055   2.422
12257W        W77484  33.422  13.044   3.116
12258W        W77485  33.068  35.560  12.038
12259W        W77486  30.265  18.197  10.681
12260W        W77487   5.244   9.938   1.746
12261W        W77488  22.326  11.902  13.341
12262W        W77489   8.057  24.973   1.146
12263W        W77490  25.463  39.791   0.905
12264W        W77491  28.224  30.971   0.028
12265W        W77492  39.370  32.711  14.384
12266W        W77493  31.209   2.357  10.701
12267W        W77494  43.564  14.094  12.613
12268W        W77495  40.295  31.293   3.250
12269W        W77496  41.720  19.412   5.579
12270W        W77497   5.211   3.884  14.780
12271W        W77498  32.641  21.632  11.624
12272W        W77499   3.642  26.464   3.681
12273W        W77500  15.855  36.139  12.065
12274W        W77501   9.119  30.610  13.119
12275W        W77502   5.372  16.306   2.603
12276W        W77503   5.695   9.947  10.512
12277W        W77504  16.886  24.094  11.602
12278W        W77505  22.509  13.291  13.502
12279W        W77506  31.392  30.337   2.279
12280W        W77507  10.862  27.856  14.654
12281W        W77508  30.002   0.524   0.336
12282W        W77509  11.882   6.265  10.561
12283W        W77510  16.246  28.096  14.945
12284W        W77511  17.779  28.574  13.378
12285W        W77512   7.395  35.915   3.652
12286W        W77513  34.167  24.733  11.201
12287W        W77514  40.896  42.031   0.743
12288W        W77515  15.164  35.988  10.974
12289W        W77516  37.655  14.143   1.887
12290W        W77517  14.373   1.355   0.473
12291W        W77518  29.866   5.558   0.243
12292W        W77519   7.213   5.600   2.713
12293W        W77520  17.015  10.730   0.808
12294W        W77521   6.532  44.458  13.526
12295W        W77522  42.261   6.580   4.547
12296W        W77523  15.229  20.184   4.687
12297W        W77524  39.932  19.642  14.765
12298W        W77525  18.524  44.152  11.580
12299W        W77526  30.451  31.282   4.644
12300W        W77527  18.751  38.674  13.845
12301W        W77528  35.482  37.481  10.662
12302W        W77529   8.719  26.111   4.743
12303W        W77530  34.020  15.742  10.920
12304W        W77531  14.828  26.217   1.193
12305W        W77532  39.994  12.429  14.036
12306W        W77533   8.778  37.191   4.994
12307W        W77534  36.381  13.579   3.696
12308W        W77535  35.270   9.680  11.104
12309W        W77536   9.749  42.755  14.541
12310W        W77537   8.574  17.626   1.208
12311W        W77538  44.119  29.884  10.220
12312W        W77539  40.103  22.115   1.366
12313W        W77540   5.864  41.085  14.448
12314W        W77541  31.932   3.959   3.282
12315W        W77542   1.147  31.413   0.385
12316W        W77543  22.097  20.932  11.510
12317W        W77544  13.288  39.204   0.256
12318W        W77545  36.169  19.641   3.690
12319W        W77546  41.939  41.597  14.971
12320W        W77547  18.842  36.486   3.812
12321W        W77548  23.667   5.257   0.669
12322W        W77549  24.733  30.125   0.857
12323W        W77550  40.587   5.785  13.000
12324W        W77551   6.006  22.550  13.407
12325W        W77552  11.723  15.836   1.602
12326W        W77553  44.019  26.533   3.783
12327W        W77554  16.082   2.135  12.572
12328W        W77555  12.556  37.799  11.363
12329W        W77556   0.446  33.414   3.037
12330W        W77557  26.488  37.057  14.938
12331W        W77558   5.707  33.609   0.807
12332W        W77559  32.306  26.457   0.797
12333W        W77560  17.508  34.833  14.279
12334W        W77561  11.723  34.378  12.590
12335W        W77562  12.818   5.181   2.856
12336W        W77563  12.473  37.401  10.765
12337W        W77564  23.111   0.478  14.844
12338W        W77565  41.003  19.031   3.631
12339W        W77566   6.916  14.272  11.169
12340W        W77567   3.961  39.455  14.789
12341W        W77568   6.137  32.488  11.070
12342W        W77569  19.119  28.040  13.541
12343W        W77570   5.830  20.618  14.264
12344W        W77571  19.674  31.485   3.395
12345W        W77572   1.941  25.281   0.776
12346W        W77573  16.367   4.334   2.234
12347W        W77574  22.732   4.933   4.497
12348W        W77575  34.608   3.295  12.532
12349W        W77576  29.473  41.484   2.610
12350W        W77577  40.932  22.623  14.926
12351W        W77578  40.184   0.440  11.214
12352W        W77579  27.193  36.653  11.865
12353W        W77580  40.739   1.418  11.221
12354W        W77581   8.078  42.540   1.508
12355W        W77582  11.664  30.698   1.830
12356W        W77583   5.316  37.282  14.715
12357W        W77584   6.027  37.970  12.410
12358W        W77585  22.202   3.540  11.590
12359W        W77586  15.499  23.529  12.112
12360W        W77587  42.557  32.881  10.958
12361W        W77588   0.506  10.042  13.593
12362W        W77589  38.344  31.718   4.145
12363W        W77590  37.414  33.499   4.140
12364W        W77591   1.822  19.575  13.534
12365W        W77592  23.831  24.168   2.303
12366W        W77593  33.097  20.600  11.186
12367W        W77594  22.467  29.441   0.536
12368W        W77595   4.757   7.859   0.230
12369W        W77596  27.884   6.688   3.577
12370W        W77597  16.115  36.385  14.935
12371W        W77598   8.788  35.622  10.718
12372W        W77599  44.422  21.174   3.744
12373W        W77600  39.248  17.919   3.638
12374W        W77601  19.520  19.435  15.000
12375W        W77602  23.410  32.562   2.601
12376W        W77603  25.059  15.245  12.616
12377W        W77604  34.056  34.852  14.851
12378W        W77605  16.767  38.391   0.770
12379W        W77606  27.868  34.584  11.496
12380W        W77607  22.659  41.422   1.678
12381W        W77608  25.114  34.817  14.471
12382W        W77609  44.846  41.060  14.771
12383W        W77610  15.342  32.108   4.322
12384W        W77611  21.282  20.581   4.440
12385W        W77612  27.717  14.132  12.479
12386W        W77613  43.915  34.526   0.389
12387W        W77614  41.329  33.513  13.968
12388W        W77615  36.742  12.997  11.266
12389W        W77616  28.425  24.307  13.199
12390W        W77617  18.009  43.238  10.750
12391W        W77618  10.824  13.622   3.485
12392W        W77619  34.160  12.693  14.757
12393W        W77620  38.086  37.172   2.162
12394W        W77621  22.840  21.889  13.534
12395W        W77622  36.996  23.636   3.816
12396W        W77623  14.593  16.627  13.824
12397W        W77624  26.055   0.239   0.778
12398W        W77625  18.108  17.599  13.826
12399W        W77626  28.322  30.498  10.650
12400W        W77627  16.755  16.792  10.667
12401W        W77628  33.020  19.324  10.684
12402W        W77629  20.429   1.043   4.984
12403W        W77630  32.403  13.608  12.898
12404W        W77631   4.984  27.442  12.135
12405W        W77632  16.651  31.211  10.620
12406W        W77633  38.568  40.337   1.610
12407W        W77634  37.204  21.970   3.636
12408W        W77635  26.908  19.285   0.499
12409W        W77636  24.513  34.188   2.450
12410W        W77637  32.875  22.680  12.154
12411W        W77638  10.062  35.897   3.217
12412W        W77639  10.430  43.119  11.410
12413W        W77640  20.776  43.808  14.436
12414W        W77641   7.813  30.078   4.389
12415W        W77642   0.824   2.063   3.703
12416W        W77643  42.750  42.141   0.551
12417W        W77644  23.659  35.043   4.705
12418W        W77645   0.999  28.216   2.249
12419W        W77646  10.433  28.591  12.100
12420W        W77647  32.652   1.636  11.717
12421W        W77648  43.394  41.893  12.529
12422W        W77649  27.660  27.001  11.457
12423W        W77650  10.308   2.775   3.673
12424W        W77651  18.465  35.407   1.898
12425W        W77652   6.668  22.621  12.248
12426W        W77653  29.499  30.942  11.570
12427W        W77654   7.827  31.653  10.838
12428W        W77655  44.864  26.974  14.338
12429W        W77656   7.210  16.916  10.710
12430W        W77657  21.205   7.997   2.319
12431W        W77658  16.100  39.835  12.606
12432W        W77659  31.942  39.540   4.746
12433W        W77660  23.478  22.745  14.058
12434W        W77661  41.525   9.150   3.267
12435W        W77662  12.063  25.198   4.425
12436W        W77663  15.837  23.522   2.715
12437W        W77664   9.763  36.870  13.424
12438W        W77665  10.353  40.714   2.889
12439W        W77666  40.880  36.692   1.006
12440W        W77667  10.161  38.337   2.771
12441W        W77668  10.342   3.942  11.550
12442W        W77669   3.568   7.214  10.865
12443W        W77670  14.372  12.778   3.868
12444W        W77671   2.686   4.114   3.748
12445W        W77672  40.741  36.027   5.068
12446W        W77673   6.676   1.384   3.127
12447W        W77674  28.154  42.912   2.151
12448W        W77675  20.323  14.168   0.314
12449W        W77676  22.609  13.883   0.268
12450W        W77677  20.589  30.713   3.214
12451W        W77678   4.789   8.432   2.822
12452W        W77679  15.843  44.939   1.217
12453W        W77680   2.772  23.830   0.316
12454W        W77681  44.648  10.274  11.156
12455W        W77682  33.567  15.523  10.791
12456W        W77683  32.532  43.262   4.354
12457W        W77684  21.611  20.812  11.627
12458W        W77685   3.854   5.319   3.668
12459W        W77686  34.378  33.924   2.930
12460W        W77687   8.741  18.022  10.493
12461W        W77688  16.650  40.350   1.177
12462W        W77689   4.417  30.371  10.705
12463W        W77690  36.149  17.264  14.273
12464W        W77691  22.577  30.876  11.502
12465W        W77692  41.487   2.546  14.836
12466W        W77693  43.891  44.513  14.110
12467W        W77694   9.245  37.100  10.708
12468W        W77695  29.666   9.914   1.382
12469W        W77696  32.199  39.087   1.540
12470W        W77697   8.541  30.961   5.139
12471W        W77698   5.929  28.612  14.544
12472W        W77699   6.322  44.512  12.044
12473W        W77700  11.942  17.289  10.318
12474W        W77701  27.166   0.498   4.699
12475W        W77702   1.580  23.487   4.877
12476W        W77703  42.987  35.325   1.472
12477W        W77704  42.814   6.500   0.718
12478W        W77705  33.665  19.522   4.577
12479W        W77706  18.483   3.440  13.278
12480W        W77707  32.396  35.903   1.260
12481W        W77708  31.553  35.856   4.549
12482W        W77709   5.345  26.409  11.448
12483W        W77710  13.689  26.127   1.490
12484W        W77711  40.373  17.781  12.636
12485W        W77712  40.253  29.876   1.380
12486W        W77713   0.158  14.111   3.126
12487W        W77714  36.292   4.748  10.450
12488W        W77715   7.613   7.215   3.227
12489W        W77716  17.610  43.480  13.008
12490W        W77717   7.282   4.912   1.068
12491W        W77718  17.192  26.946  14.828
12492W        W77719  24.675  39.855   3.324
12493W        W77720  10.278  17.616   2.844
12494W        W77721  34.463   7.737   0.879
12495W        W77722  17.225   4.927   0.780
12496W        W77723   9.520  12.173   4.972
12497W        W77724  23.942   6.637  10.797
12498W        W77725  37.539  22.257   4.486
12499W        W77726  32.870   5.087   4.810
12500W        W77727  15.748  11.915   2.210
12501W        W77728  43.862  35.050  12.154
12502W        W77729  22.498  37.885  10.612
12503W        W77730  23.478  24.215   0.982
12504W        W77731   1.105  15.217   5.044
12505W        W77732  35.852   3.346  14.265
12506W        W77733  37.040  19.058  10.548
12507W        W77734  12.727  44.766  10.851
12508W        W77735   1.758   3.145  13.412
12509W        W77736   0.410  32.480  12.371
12510W        W77737  38.422  34.298  14.486
12511W        W77738  14.068  22.795  11.967
12512W        W77739   3.001  10.340  14.968
12513W        W77740  14.763   6.924   1.943
12514W        W77741   2.361   6.627   2.549
12515W        W77742  44.298  11.819   0.203
12516W        W77743  23.621  17.784  11.927
12517W        W77744   2.286  14.618  12.903
12518W        W77745  17.081   8.242   4.583
12519W        W77746  35.280  21.742  11.121
12520W        W77747  21.780  26.903  13.198
12521W        W77748  38.928  30.514   1.799
12522W        W77749  32.623  32.815  14.842
12523W        W77750  32.744   9.935  11.454
12524W        W77751  35.822  44.427  14.862
12525W        W77752   0.750   7.310  14.241
12526W        W77753  43.199   4.466   1.457
12527W        W77754   5.310  32.064  12.247
12528W        W77755  27.026  42.893  13.314
12529W        W77756  21.610  23.463  13.818
12530W        W77757   4.523  35.817   2.856
12531W        W77758  14.461  43.264  13.484
12532W        W77759  20.983  35.376   1.731
12533W        W77760  34.118  37.520  10.343
12534W        W77761   1.031  17.124  11.527
12535W        W77762   5.397  39.619   2.228
12536W        W77763  34.999  37.524   4.545
12537W        W77764  30.905  22.182   4.042
12538W        W77765   9.690  17.192  14.088
12539W        W77766   9.615  36.589  12.639
12540W        W77767  23.716  34.264   3.552
12541W        W77768  37.299  11.302   4.142
12542W        W77769  30.941   3.807   2.759
12543W        W77770  32.940  20.328   1.962
12544W        W77771   6.384   1.407  11.651
12545W        W77772  25.102  13.189   0.280
12546W        W77773  15.021  44.400  10.654
12547W        W77774  12.156   3.927   3.846
12548W        W77775  11.677  22.657   0.198
12549W        W77776  29.052  34.349  13.393
12550W        W77777  13.380   7.487  11.843
12551W        W77778  27.230   2.171  12.855
12552W        W77779  25.925  25.853  11.190
12553W        W77780   2.537  44.300   2.732
12554W        W77781  24.510  43.851   2.766
12555W        W77782  29.705  19.179   0.300
12556W        W77783  41.381  28.124  10.719
12557W        W77784  41.047  19.188  12.903
12558W        W77785   7.314   2.254   4.967
12559W        W77786  23.351  15.098  14.556
12560W        W77787   5.829  23.980   4.109
12561W        W77788  32.043  16.281  13.360
12562W        W77789   3.123   4.423   2.800
12563W        W77790  18.833  41.930  12.072
12564W        W77791   0.267  14.888   2.955
12565W        W77792  29.941  11.777  10.013
12566W        W77793  41.302  29.155  11.739
12567W        W77794  25.083  29.940   2.192
12568W        W77795   2.962  28.658   3.121
12569W        W77796  37.512  12.642  11.617
12570W        W77797   8.925  35.475  12.596
12571W        W77798  23.012  15.034   4.321
12572W        W77799  15.741   9.827   1.198
12573W        W77800  38.041  29.935   0.899
12574W        W77801  19.482  17.041   3.643
12575W        W77802  10.378   8.808  11.708
12576W        W77803  19.804   7.308  14.962
12577W        W77804   7.408   7.121   4.528
12578W        W77805  31.688   0.891  13.097
12579W        W77806  44.340  14.003   2.264
12580W        W77807  18.764  36.282  12.483
12581W        W77808  13.356  14.662   1.454
12582W        W77809  31.849  44.541  11.090
12583W        W77810  41.438  37.387   1.783
12584W        W77811  20.801  15.769   3.200
12585W        W77812  43.006  18.808   2.070
12586W        W77813  24.171  39.967  11.566
12587W        W77814  28.419  26.191  12.424
12588W        W77815  17.939  42.731  10.731
12589W        W77816  34.861  33.832  11.126
12590W        W77817  27.550  29.750   4.666
12591W        W77818  42.839  12.786   3.014
12592W        W77819  20.595  27.717  14.896
12593W        W77820   2.891  21.838   2.756
12594W        W77821   0.191  34.953  11.508
12595W        W77822  36.415   9.918  14.462
12596W        W77823  37.678  15.189  12.002
12597W        W77824   4.489  22.431   3.354
12598W        W77825  21.572  33.395  11.468
12599W        W77826   0.249  23.479  14.028
12600W        W77827   3.371   1.941   3.313
12601W        W77828  42.454  39.062   3.856
12602W        W77829  29.117  23.916  11.935
12603W        W77830  23.500  12.448  12.214
12604W        W77831   9.358  12.791  13.830
12605W        W77832  10.352  29.406   2.075
12606W        W77833  33.603   5.293  12.588
12607W        W77834  20.698  12.621   3.697
12608W        W77835  40.993  19.084   4.133
12609W        W77836  32.933  43.273  10.682
12610W        W77837   5.774  44.896  11.701
12611W        W77838  42.183  38.085   4.100
12612W        W77839   6.271  23.226  14.983
12613W        W77840  42.690  31.058  12.073
12614W        W77841   5.413   7.238  11.936
12615W        W77842   0.832   3.021   5.075
12616W        W77843  32.287  30.302   2.204
12617W        W77844  16.688   0.786  10.751
12618W        W77845  32.403  34.340  13.120
12619W        W77846  28.065   2.451   5.068
12620W        W77847  22.433  33.490  11.628
12621W        W77848   4.249  12.093  10.741
12622W        W77849   9.840   8.133   2.919
12623W        W77850  20.096   9.624  11.208
12624W        W77851   4.388  24.406   2.275
12625W        W77852  38.596   4.149   2.792
12626W        W77853  11.412  15.667   4.428
12627W        W77854   8.684   8.179   0.051
12628W        W77855  34.257  34.996   1.476
12629W        W77856  23.461  43.851   3.708
12630W        W77857   4.427  36.330   4.704
12631W        W77858   2.280  43.278   1.976
12632W        W77859  26.929  24.219   3.617
12633W        W77860  25.177  16.812   1.438
12634W        W77861  37.088  42.393  12.956
12635W        W77862  12.122  35.974  12.987
12636W        W77863   0.767  22.759   1.885
12637W        W77864  26.536  13.859  10.743
12638W        W77865  19.214  29.650  11.955
12639W        W77866  19.967  17.607  11.966
12640W        W77867  26.623  13.167  11.679
12641W        W77868  13.883  18.613  12.848
12642W        W77869  23.596  38.626   2.472
12643W        W77870  33.614  32.784   4.231
12644W        W77871  19.516  24.779   4.613
12645W        W77872   6.369   8.369   1.095
12646W        W77873   3.632   3.477  12.094
12647W        W77874  32.101  10.214   0.809
12648W        W77875  31.639  28.246   0.821
12649W        W77876  29.755   6.179   4.344
12650W        W77877  10.377  36.099  10.671
12651W        W77878  43.396  13.998  11.552
12652W        W77879  12.715   2.721  11.597
12653W        W77880  19.700  34.430   1.329
12654W        W77881   8.199  41.798  12.900
12655W        W77882  30.524  25.069   0.273
12656W        W77883  35.057  23.775   3.725
12657W        W77884   1.869  21.168   2.404
12658W        W77885  25.263  40.455  10.918
12659W        W77886  10.823  40.798   3.671
12660W        W77887  34.007  18.637  14.572
12661W        W77888  33.982  22.849  10.263
12662W        W77889  23.980  44.573  12.385
12663W        W77890  33.828  20.682   0.990
12664W        W77891   0.978   7.375   4.638
12665W        W77892   4.192  20.307  14.414
12666W        W77893   2.312   8.660  11.718
12667W        W77894  23.817  24.998   2.730
12668W        W77895  16.862  27.168   2.709
12669W        W77896  22.170  44.950  10.317
12670W        W77897  23.897  18.594   1.718
12671W        W77898  28.417  34.384  14.842
12672W        W77899  20.996  44.356   4.585
12673W        W77900  26.491  41.594   2.893
12674W        W77901  18.317   2.893  12.521
12675W        W77902  19.207   4.421   3.060
12676W        W77903  23.158  41.017   0.376
12677W        W77904   4.608   8.256  14.901
12678W        W77905  13.365  26.681  11.668
12679W        W77906  17.618   3.145  11.204
12680W        W77907   3.825  28.994  12.984
12681W        W77908  12.671   2.592  13.125
12682W        W77909   9.487   7.111  11.234
12683W        W77910  22.166   4.472  14.249
12684W        W77911  16.752  37.112  13.263
12685W        W77912  13.829  44.307   4.187
12686W        W77913  15.865  35.522  11.057
12687W        W77914  27.660   3.858   4.198
12688W        W77915  28.619  33.411  14.810
12689W        W77916  19.505   2.757   1.717
12690W        W77917  40.129   9.128   3.019
12691W        W77918   7.812  44.428   0.989
12692W        W77919  17.299  10.734   3.627
12693W        W77920  20.527  30.623   3.765
12694W        W77921  28.023   0.823   4.597
12695W        W77922  38.830  15.031  11.476
12696W        W77923  15.633   1.450  14.215
12697W        W77924  27.730  24.252  11.956
12698W        W77925   5.470  44.890   3.304
12699W        W77926  30.737  34.161   3.285
12700W        W77927  15.605  41.213   4.750
12701W        W77928   5.207  25.444  11.150
12702W        W77929  35.949  28.124   0.036
12703W        W77930  25.626   9.101  13.708
12704W        W77931   8.155  18.768   2.036
12705W        W77932   7.821  38.768  11.621
12706W        W77933  14.197   2.674  13.759
12707W        W77934   4.000  44.834   2.293
12708W        W77935  42.956   7.415  11.193
12709W        W77936  10.897  23.255  14.846
12710W        W77937  23.087   0.477   2.696
12711W        W77938   1.936  12.435  13.300
12712W        W77939  34.487  37.290   3.144
12713W        W77940   6.721  19.652  14.678
12714W        W77941  13.875  26.033   1.029
12715W        W77942  43.081  32.514  12.831
12716W        W77943   1.774  32.470   2.726
12717W        W77944  11.133  43.288   4.985
12718W        W77945  44.423   8.428   4.854
12719W        W77946  33.095  20.619   4.780
12720W        W77947   4.148   7.694  12.475
12721W        W77948  21.036   9.903   2.429
12722W        W77949  11.213  17.854  12.011
12723W        W77950   5.997  24.187   0.877
12724W        W77951   7.435   9.876  11.115
12725W        W77952  13.071  11.664   3.656
12726W        W77953   8.700  16.489   4.182
12727W        W77954   3.988  41.245  11.153
12728W        W77955   8.539  23.712   1.611
12729W        W77956  29.135   6.723   4.519
12730W        W77957  20.765  17.113   4.116
12731W        W77958  38.531  26.410   2.164
12732W        W77959  20.627  44.087  13.374
12733W        W77960   4.657  34.663  14.458
12734W        W77961   6.365  38.588   4.158
12735W        W77962  21.018  43.288   4.620
12736W        W77963  30.493  16.404   2.226
12737W        W77964   2.892  19.611  12.991
12738W        W77965  30.278  43.217  10.803
12739W        W77966  20.188  41.050  10.769
12740W        W77967  10.849  19.635  14.090
12741W        W77968  33.143  14.806  14.933
12742W        W77969  27.390  35.931   5.228
12743W        W77970  26.960   8.450   2.145
12744W        W77971  19.582   8.958   9.811
12745W        W77972   1.760  34.961   1.836
12746W        W77973   6.847   2.577  11.491
12747W        W77974   2.973  43.858  14.653
12748W        W77975  30.187  16.124  13.453
12749W        W77976  40.050   3.891   3.590
12750W        W77977   3.765  25.538   2.155
12751W        W77978   0.077  24.989  12.868
12752W        W77979  22.007   5.214  12.436
12753W        W77980  26.488  44.758  10.961
12754W        W77981  32.879  28.889  13.398
12755W        W77982  29.429  17.730  11.651
12756W        W77983  31.666   2.732  13.749
12757W        W77984   9.840   2.370  14.413
12758W        W77985  25.585  13.544   1.364
12759W        W77986   4.030  39.332  12.395
12760W        W77987  44.776  32.020   3.139
12761W        W77988  28.951   2.765  14.872
12762W        W77989   1.826  35.964   4.223
12763W        W77990  12.854   4.692   0.792
12764W        W77991  12.773  38.916   4.069
12765W        W77992  18.294  18.777   2.166
12766W        W77993  14.959  18.737   1.725
12767W        W77994  39.649  27.567   1.936
12768W        W77995  11.298  35.391  11.116
12769W        W77996   2.587  10.301  14.367
12770W        W77997   9.820  21.321   4.666
12771W        W77998  20.932  14.876  14.370
12772W        W77999  34.373  18.900  13.855
12773W        W78000  25.038   6.379   5.151
12774W        W78001  23.024  35.300  13.293
12775W        W78002  34.032  16.654   4.776
12776W        W78003  24.267  20.195  13.732
12777W        W78004  20.733  14.741   0.462
12778W        W78005  15.674  39.103   3.217
12779W        W78006  15.895   6.379   0.599
12780W        W78007  30.895  19.513  14.796
12781W        W78008  17.327  27.422  12.416
12782W        W78009  29.644  36.571   1.380
12783W        W78010  10.804  39.987  10.973
12784W        W78011  43.952   7.745  12.522
12785W        W78012  33.467   6.416   0.279
12786W        W78013   9.706  36.044  10.293
12787W        W78014   9.763  30.968   3.195
12788W        W78015  13.295  42.255   2.695
12789W        W78016  29.544  15.099  13.970
12790W        W78017  17.263  14.696   0.789
12791W        W78018  37.519  22.117  10.961
12792W        W78019  36.839   0.979  13.870
12793W        W78020   3.563  38.452  13.861
12794W        W78021   8.570   6.177   2.743
12795W        W78022   2.758  31.308  11.201
12796W        W78023   5.670   8.548  13.714
12797W        W78024  17.598  21.955   4.528
12798W        W78025   0.809  32.595   0.907
12799W        W78026  15.598   6.962   3.097
12800W        W78027  32.121  10.763  13.567
12801W        W78028  30.462   9.987   4.569
12802W        W78029   4.441   9.716   2.629
12803W        W78030  36.063   8.140   1.426
12804W        W78031  15.248  23.880   1.174
12805W        W78032  38.746  23.440  12.566
12806W        W78033  27.939  10.756   2.380
12807W        W78034  33.958  41.368  14.245
12808W        W78035   0.172  32.476  11.903
12809W        W78036  10.685  10.071   2.391
12810W        W78037  25.053  22.718   2.889
12811W        W78038  14.540  43.778   4.202
12812W        W78039   1.727  43.921   1.288
12813W        W78040   3.591   4.081  11.199
12814W        W78041  27.625  17.360   3.560
12815W        W78042  44.078  33.145  11.127
12816W        W78043  38.311  30.022   2.514
12817W        W78044  10.010  31.893   4.925
12818W        W78045  32.970   9.424  13.830
12819W        W78046  13.140  17.326   1.257
12820W        W78047  32.660   7.258   5.191
12821W        W78048   8.219  19.664  10.743
12822W        W78049  27.728  34.988  12.597
12823W        W78050  40.508   1.449   0.012
12824W        W78051  29.123   9.116   3.276
12825W        W78052   4.754  19.492   0.279
12826W        W78053   1.425  11.607  10.441
12827W        W78054  12.830   5.225  10.418
12828W        W78055  33.271  35.892   0.682
12829W        W78056  35.303  16.358  11.585
12830W        W78057  10.366  20.835   3.162
12831W        W78058  20.307  31.167  12.999
12832W        W78059   7.593  23.925  12.530
12833W        W78060  29.987   8.877   3.046
12834W        W78061   1.672  31.681   0.406
12835W        W78062  12.293  36.843  14.259
12836W        W78063  33.132  37.844   1.854
12837W        W78064  24.874  40.495   2.837
12838W        W78065  20.788   7.642   2.416
12839W        W78066  24.393  19.716   2.403
12840W        W78067  19.166  15.307  12.097
12841W        W78068  34.267  13.840  10.608
12842W        W78069  12.859  32.452  13.322
12843W        W78070  41.784  40.680  14.992
12844W        W78071  26.466  27.595   3.170
12845W        W78072  20.110  43.852   1.630
12846W        W78073  37.031  22.112   2.461
12847W        W78074   3.461  30.653   3.707
12848W        W78075   7.830  41.459  13.430
12849W        W78076  44.730   3.901  14.923
12850W        W78077  14.143  37.033   4.395
12851W        W78078  40.698   8.173  12.645
12852W        W78079   0.342  43.677   9.597
12853W        W78080   2.458  43.380   2.937
12854W        W78081  36.533   4.283  11.894
12855W        W78082  14.393  32.116  12.411
12856W        W78083  26.382  40.276   2.382
12857W        W78084  42.362   4.455  11.558
12858W        W78085  32.531  36.464   3.219
12859W        W78086  31.431  13.115  11.297
12860W        W78087  12.090   8.405  12.429
12861W        W78088   7.768  27.189   4.751
12862W        W78089   9.341  26.708  10.411
12863W        W78090  38.162  13.867   0.267
12864W        W78091   5.313  35.099  13.438
12865W        W78092  18.647  37.240  10.612
12866W        W78093  28.167  33.145  11.477
12867W        W78094  20.408  41.213  13.458
12868W        W78095  17.201  19.697   2.951
12869W        W78096  24.218   6.062   0.334
12870W        W78097  25.723  25.879   4.394
12871W        W78098  18.273   0.262  14.243
12872W        W78099  17.856  41.964  11.074
12873W        W78100  40.877  29.802  14.303
12874W        W78101  21.059  30.096   2.196
12875W        W78102  22.897  20.088  10.672
12876W        W78103  33.346  15.057   4.078
12877W        W78104  33.273   7.199   4.089
12878W        W78105  41.350  20.283   4.129
12879W        W78106   9.789   6.757   2.117
12880W        W78107   2.470  31.097  10.663
12881W        W78108  10.402  22.108  11.447
12882W        W78109  21.429  25.545   0.345
12883W        W78110   1.112  38.072   2.699
12884W        W78111  35.951  26.362  13.856
12885W        W78112  26.189  32.828   4.106
12886W        W78113  13.712  28.648  11.659
12887W        W78114  25.579   5.699   4.152
12888W        W78115  40.083  20.511  12.936
12889W        W78116  37.382  40.798   0.834
12890W        W78117  32.850  36.048  12.846
12891W        W78118  42.408  28.254  12.503
12892W        W78119   0.856   5.286   3.793
12893W        W78120  24.255  44.199   4.511
12894W        W78121  16.385  16.233  11.821
12895W        W78122  28.203  29.693  14.313
12896W        W78123   1.559  28.655   1.798
12897W        W78124  28.211  22.036   3.072
12898W        W78125  35.908  22.667   1.406
12899W        W78126  11.728  34.955   2.188
12900W        W78127  12.283   6.301   2.382
12901W        W78128  32.234  30.135  13.500
12902W        W78129  20.991  35.945  14.813
12903W        W78130  32.675   0.940   0.908
12904W        W78131   1.829  25.845   3.645
12905W        W78132  37.904  25.102   4.706
12906W        W78133   5.605  29.081  13.345
12907W        W78134  43.781  10.368  11.125
12908W        W78135   5.947  24.072  10.330
12909W        W78136  35.563   5.431  12.546
12910W        W78137  21.475  29.177   3.354
12911W        W78138  26.120  26.706   1.439
12912W        W78139  20.234  41.217   1.787
12913W        W78140  42.907   0.246   4.637
12914W        W78141  19.051  38.815  13.449
12915W        W78142  13.316  28.012  10.740
12916W        W78143  36.973  41.120   0.956
12917W        W78144  35.494  18.762   4.618
12918W        W78145  22.178  21.546   4.266
12919W        W78146  25.557  31.423   2.728
12920W        W78147  28.512  33.544  14.315
12921W        W78148  37.425  18.664   2.636
12922W        W78149  28.964  35.831  14.493
12923W        W78150  44.620   3.520   0.689
12924W        W78151  21.763  15.055   2.685
12925W        W78152  32.694  44.823  10.650
12926W        W78153  11.817  26.274   2.850
12927W        W78154  21.073  44.775   0.343
12928W        W78155  35.061  26.214  14.109
12929W        W78156  17.903  43.753  12.100
12930W        W78157  11.012  30.032  13.380
12931W        W78158  21.059  36.960  10.679
12932W        W78159  38.025  40.128   4.917
12933W        W78160  29.222  17.240   0.897
12934W        W78161   6.553  10.352   3.521
12935W        W78162  42.668   4.448   0.798
12936W        W78163  26.633  17.001   1.620
12937W        W78164  32.859   3.262  14.910
12938W        W78165  14.866  14.168  14.595
12939W        W78166  43.083   5.280   1.364
12940W        W78167  33.411   4.959   0.042
12941W        W78168   8.418  17.728  13.314
12942W        W78169  18.527   4.178   2.771
12943W        W78170  39.838  42.292  13.654
12944W        W78171  33.385  29.407  14.763
12945W        W78172   4.293  27.806  13.755
12946W        W78173  20.443  19.149  10.785
12947W        W78174  13.623  17.753  12.464
12948W        W78175  13.091   8.788   1.297
12949W        W78176  19.214  19.703   0.928
12950W        W78177  36.071   4.767  14.449
12951W        W78178  18.538  19.794   2.413
12952W        W78179  36.538   0.469  12.545
12953W        W78180  19.504  37.409  11.528
12954W        W78181   2.729  21.044   0.851
12955W        W78182  30.381  27.959  13.946
12956W        W78183  29.453  26.008   1.737
12957W        W78184  18.762  41.424  12.055
12958W        W78185  12.198  44.813  12.202
12959W        W78186  37.567   5.679   2.906
12960W        W78187  40.529   0.223  12.861
12961W        W78188  28.940   8.936  11.204
12962W        W78189  20.730  36.514   1.195
12963W        W78190  27.641  32.567  14.098
12964W        W78191  24.279  26.284   1.090
12965W        W78192  15.757  30.624  14.840
12966W        W78193  12.182  30.194  14.864
12967W        W78194  35.068  41.328   1.207
12968W        W78195   4.917  12.015  13.504
12969W        W78196  33.859  21.498  11.023
12970W        W78197   1.978  23.101  13.535
12971W        W78198  29.214  27.151   0.927
12972W        W78199   6.869  22.199  14.651
12973W        W78200  39.825  17.307   3.658
12974W        W78201   9.446  40.298   3.331
12975W        W78202  10.627  20.528   2.802
12976W        W78203  24.421  40.279   0.878
12977W        W78204  40.338  27.722   4.277
12978W        W78205  38.330  17.847   1.552
12979W        W78206   4.897  15.128   3.922
12980W        W78207   7.888   2.699   0.690
12981W        W78208   9.927  12.168  14.260
12982W        W78209   8.276  14.189   1.693
12983W        W78210   0.258  18.840  11.679
12984W        W78211   4.258  11.608  10.961
12985W        W78212  28.709  14.613   3.021
12986W        W78213   1.899   4.409   0.502
12987W        W78214  29.901  12.273  11.668
12988W        W78215  18.739   1.272   4.087
12989W        W78216  23.639  41.152   1.205
12990W        W78217  36.934  17.262  12.953
12991W        W78218   2.542  31.525  14.031
12992W        W78219  28.579  39.346   1.328
12993W        W78220  27.549  36.503   0.229
12994W        W78221  12.729  24.554  12.052
12995W        W78222  42.404  14.988  13.920
12996W        W78223  44.706  29.097   1.663
12997W        W78224  37.039   9.819   2.751
12998W        W78225   7.596  40.003  13.499
12999W        W78226  17.243  33.797  12.400
13000W        W78227  37.296  14.782   4.980
13001W        W78228  29.294   2.462  13.036
13002W        W78229   7.452   7.148  14.274
13003W        W78230  31.910  25.562   5.220
13004W        W78231  43.459  26.135  13.136
13005W        W78232  38.882  23.744  14.507
13006W        W78233   0.125  32.378   0.404
13007W        W78234  35.546   9.653   4.314
13008W        W78235  35.086  20.794  13.454
13009W        W78236  20.595   6.650  12.014
13010W        W78237  21.078  22.601   3.073
13011W        W78238  27.182  16.046  13.818
13012W        W78239  31.479   4.922   1.684
13013W        W78240  20.148  28.469   3.594
13014W        W78241  42.420  20.296   1.417
13015W        W78242  40.348  25.274   3.247
13016W        W78243  36.881  25.633  13.483
13017W        W78244  27.091  37.539  13.905
13018W        W78245   1.426  41.953  12.132
13019W        W78246  10.270  16.303   3.290
13020W        W78247  23.958  37.887   4.812
13021W        W78248   8.824  43.019  11.980
13022W        W78249  12.663  19.783   1.931
13023W        W78250  39.247  41.086   2.705
13024W        W78251  43.829  36.096  14.420
13025W        W78252   6.420   8.438  14.841
13026W        W78253  23.700  24.715  12.479
13027W        W78254  44.848   9.685   0.177
13028W        W78255  31.276  33.404   1.801
13029W        W78256  16.245  37.390   2.230
13030W        W78257   0.996  19.447   3.508
13031W        W78258  10.261  21.823   1.650
13032W        W78259  27.920  37.507  12.400
13033W        W78260  44.511  26.187   1.896
13034W        W78261  25.469  39.004   2.680
13035W        W78262  44.784   7.025   4.194
13036W        W78263  42.881  34.109  10.919
13037W        W78264   2.354  25.936   2.526
13038W        W78265   1.801   0.629   0.669
13039W        W78266   6.147   0.145  13.048
13040W        W78267  21.279   0.863   1.803
13041W        W78268   9.669  39.076   2.606
13042W        W78269  33.939  38.382  10.634
13043W        W78270  39.403   9.418   0.837
13044W        W78271  36.110   0.730  11.215
13045W        W78272  18.724  11.866  12.913
13046W        W78273  22.085  44.357   2.784
13047W        W78274  21.182  15.071  10.397
13048W        W78275   6.863  19.469  13.403
13049W        W78276   5.949  10.397  13.469
13050W        W78277   6.445  39.422  11.437
13051W        W78278  31.123  35.284   0.530
13052W        W78279  33.992  40.262  10.603
13053W        W78280  23.319  25.174  13.595
13054W        W78281  17.594   5.337  11.957
13055W        W78282   4.758  25.384   3.025
13056W        W78283   5.364  27.131  10.748
13057W        W78284  10.919  21.438   4.112
13058W        W78285  21.359  34.891   5.070
13059W        W78286  37.315   6.663   3.610
13060W        W78287  42.931  21.401   3.638
13061W        W78288  24.903  15.305   4.461
13062W        W78289  12.721  42.546  11.721
13063W        W78290  12.566  22.164  12.605
13064W        W78291  36.623  44.346   1.758
13065W        W78292   2.406  37.342   4.666
13066W        W78293   5.055  31.270   1.732
13067W        W78294  11.643   2.889  11.984
13068W        W78295  17.780  11.242   0.710
13069W        W78296  42.182  18.696   5.402
13070W        W78297  11.551  38.647  12.091
13071W        W78298  18.305  25.335  13.573
13072W        W78299  41.912   0.765   2.754
13073W        W78300   7.301  35.924  11.573
13074W        W78301  38.866  39.867   5.080
13075W        W78302  26.473  19.284   2.637
13076W        W78303  12.100  41.380  14.365
13077W        W78304   8.505  34.358   2.647
13078W        W78305   5.887   6.671   3.582
13079W        W78306  30.004  43.750  13.912
13080W        W78307   9.128  40.704   3.401
13081W        W78308   4.271  15.251   1.744
13082W        W78309  43.372  43.511  11.991
13083W        W78310  24.222  23.846  13.719
13084W        W78311  40.977  40.430  10.705
13085W        W78312  21.562   2.494  11.923
13086W        W78313  41.790  42.983  11.560
13087W        W78314  12.756  29.068   3.672
13088W        W78315  22.665  34.807  11.178
13089W        W78316  23.280  20.852  12.072
13090W        W78317   2.768  33.044  10.622
13091W        W78318  11.890  32.965   0.557
13092W        W78319  24.638   8.799   4.695
13093W        W78320  38.590   2.312   1.875
13094W        W78321  21.187  21.962  10.573
13095W        W78322  41.481  19.708   2.502
13096W        W78323  30.387  10.151   2.306
13097W        W78324  40.701  11.071  12.573
13098W        W78325  43.033   6.458  13.672
13099W        W78326  23.479  18.113  11.538
13100W        W78327  42.405  18.587   4.567
13101W        W78328  43.955   1.064  10.379
13102W        W78329  34.590  27.110   3.313
13103W        W78330  27.419  28.771   0.786
13104W        W78331   0.018  12.811  11.610
13105W        W78332  35.454  38.259  13.079
13106W        W78333  29.639  38.923  11.049
13107W        W78334  24.252   3.960   2.173
13108W        W78335  19.228  19.652   1.439
13109W        W78336  39.495  33.497  10.670
13110W        W78337  44.124  16.525   3.225
13111W        W78338  16.296  20.676  14.044
13112W        W78339  24.548   7.264  14.862
13113W        W78340  36.470  17.076  13.889
13114W        W78341   4.172  19.548  13.982
13115W        W78342  24.979   8.799   3.675
13116W        W78343  27.932  25.429   4.615
13117W        W78344  25.975  42.257   3.182
13118W        W78345   1.398  14.931   4.234
13119W        W78346  23.812  44.802   2.238
13120W        W78347  21.443  15.615  11.036
13121W        W78348  31.354   0.493   0.802
13122W        W78349  43.562   8.244   3.200
13123W        W78350   2.890  13.893  11.580
13124W        W78351  27.042  26.039  12.991
13125W        W78352  20.018  25.560   2.732
13126W        W78353   5.583   1.360  10.812
13127W        W78354  24.230  32.944  14.432
13128W        W78355  16.975  42.288   2.654
13129W        W78356  18.149  15.884   1.779
13130W        W78357  41.418  14.422   3.056
13131W        W78358   7.709  12.632   0.496
13132W        W78359  40.615  26.576   1.279
13133W        W78360  15.117  37.422   3.566
13134W        W78361  20.510  30.573   0.078
13135W        W78362  29.399  18.765   4.479
13136W        W78363   9.593  27.375   2.340
13137W        W78364  27.693  44.991   1.313
13138W        W78365  11.132  41.742  13.460
13139W        W78366  26.612  35.260   4.653
13140W        W78367   2.636   8.847  12.643
13141W        W78368  32.657  13.847   1.363
13142W        W78369  18.938  23.649   4.232
13143W        W78370  31.932  43.004  13.946
13144W        W78371  40.005  40.785   3.238
13145W        W78372  23.769   0.315   0.393
13146W        W78373   4.675  31.606   2.628
13147W        W78374  34.030  25.715  10.501
13148W        W78375  28.733   7.166  13.976
13149W        W78376  27.050  27.030   4.626
13150W        W78377   7.779   3.680   4.059
13151W        W78378  43.368  32.671  11.655
13152W        W78379  22.678  34.653   1.403
13153W        W78380  10.372  40.973  12.934
13154W        W78381  38.090  10.767  13.969
13155W        W78382   9.469  28.087  11.440
13156W        W78383  31.908  17.067   0.573
13157W        W78384   2.937   9.352  12.639
13158W        W78385  10.390  43.014   0.962
13159W        W78386   1.260  43.797   2.291
13160W        W78387   0.828  13.901  12.038
13161W        W78388  34.614  39.920   3.878
13162W        W78389  36.525   6.417   2.153
13163W        W78390  40.769  13.110  11.133
13164W        W78391  13.514   6.806  11.675
13165W        W78392  34.891  11.645   1.241
13166W        W78393   3.182  43.777   3.156
13167W        W78394   4.877  14.314   2.321
13168W        W78395   8.235  11.546   1.223
13169W        W78396  20.830  26.899   0.444
13170W        W78397  26.908   7.662   0.759
13171W        W78398  23.114   1.893  12.859
13172W        W78399   7.880  34.673  13.811
13173W        W78400  27.011  25.316   1.236
13174W        W78401   2.019  12.667   2.805
13175W        W78402   1.645  17.806  12.089
13176W        W78403  23.066  13.788  14.039
13177W        W78404  41.750  40.920  14.538
13178W        W78405  40.282  17.983   0.228
13179W        W78406  15.321  41.796   1.817
13180W        W78407  34.870   7.864   1.799
13181W        W78408  10.692  10.554  14.920
13182W        W78409  28.161  39.554  12.191
13183W        W78410   4.419  18.546   0.403
13184W        W78411   7.399  28.938   0.514
13185W        W78412  29.459   6.674  14.247
13186W        W78413  34.142   3.430   4.171
13187W        W78414  39.544  21.604   4.504
13188W        W78415  22.489  18.269  13.758
13189W        W78416  13.265  31.329   1.667
13190W        W78417  16.860  10.023   4.218
13191W        W78418   2.962  35.567  13.973
13192W        W78419  11.644  40.390   1.102
13193W        W78420  13.186  42.864   0.713
13194W        W78421  31.635   5.783  11.500
13195W        W78422   6.347  13.613  10.891
13196W        W78423  12.657  20.050   4.090
13197W        W78424   7.398  33.651   3.504
13198W        W78425  41.994   4.801  11.598
13199W        W78426  32.705  10.757   2.628
13200W        W78427  20.509  21.497   3.257
13201W        W78428  27.083  11.154  14.752
13202W        W78429  14.101  44.218  11.151
13203W        W78430  16.196  20.574   1.514
13204W        W78431  32.622   9.216  11.593
13205W        W78432  22.060   2.285   0.231
13206W        W78433  35.542  24.654  12.151
13207W        W78434   1.413   0.511   1.012
13208W        W78435  35.984  35.938   4.047
13209W        W78436  15.149  35.223  14.289
13210W        W78437   3.424  43.333  12.700
13211W        W78438  28.967   9.266  14.515
13212W        W78439   1.911  24.964   3.227
13213W        W78440   8.712  17.872   4.605
13214W        W78441   3.293  23.147   4.277
13215W        W78442   2.425  36.558  14.779
13216W        W78443  23.066  28.552   1.370
13217W        W78444  21.436  23.581   3.903
13218W        W78445  35.475  38.339   1.401
13219W        W78446  33.337  44.477  14.443
13220W        W78447   9.188  25.386  13.986
13221W        W78448  29.842  43.795  14.865
13222W        W78449  16.359   6.135   1.925
13223W        W78450  22.243  21.281   3.754
13224W        W78451  25.442  38.703   3.745
13225W        W78452   8.882  44.526   3.225
13226W        W78453  17.822  27.938  11.877
13227W        W78454   1.941   4.306   1.904
13228W        W78455  27.392  22.828   0.232
13229W        W78456  32.408  39.284  13.739
13230W        W78457   4.383   2.796  10.398
13231W        W78458  15.223  11.675  11.682
13232W        W78459  30.038   9.436   3.455
13233W        W78460   5.390  32.916   4.429
13234W        W78461  14.682  13.253   2.410
13235W        W78462  16.987   7.570   4.610
13236W        W78463  41.962  15.769   2.387
13237W        W78464  34.324  27.134  13.348
13238W        W78465  26.941  16.667  10.515
13239W        W78466  17.245   2.984  12.078
13240W        W78467  39.217  30.185   4.495
13241W        W78468  31.016   5.644  14.533
13242W        W78469  17.895  33.048   0.731
13243W        W78470  42.310  38.539   3.208
13244W        W78471  34.516  25.049  10.973
13245W        W78472  28.451  21.795   2.668
13246W        W78473   3.251  35.363   3.180
13247W        W78474  13.852  25.709   1.906
13248W        W78475  28.444   7.333   3.908
13249W        W78476  16.515   4.252  12.933
13250W        W78477  42.014  28.055  11.612
13251W        W78478  14.517  28.661  14.503
13252W        W78479  19.100  10.254   2.811
13253W        W78480  37.306  37.572   3.266
13254W        W78481  44.089  30.361   2.678
13255W        W78482  44.000  20.449  11.459
13256W        W78483   0.327  11.258   0.233
13257W        W78484  41.685  33.140  13.850
13258W        W78485   6.412  34.066   2.427
13259W        W78486  44.319   6.218   4.963
13260W        W78487  12.644  19.323   0.296
13261W        W78488   0.062  36.115  11.203
13262W        W78489  21.523  13.250  12.990
13263W        W78490  42.728  31.597  11.032
13264W        W78491  29.256  37.668   0.821
13265W        W78492   3.762  23.613   0.530
13266W        W78493  30.749  14.946   4.935
13267W        W78494  11.396  27.177  12.905
13268W        W78495  21.790  24.742   1.744
13269W        W78496  33.206  20.125  13.117
13270W        W78497  14.254  16.750   4.461
13271W        W78498   7.419  39.915  12.040
13272W        W78499  41.361   3.206  11.176
13273W        W78500   4.942  16.585   0.100
13274W        W78501  43.857  23.243   4.699
13275W        W78502  21.436  17.647   2.405
13276W        W78503   0.448  38.654  14.367
13277W        W78504  32.721  25.871   1.322
13278W        W78505   9.720  36.072  12.434
13279W        W78506  32.025  33.323  13.693
13280W        W78507  14.786  18.780  13.920
13281W        W78508  24.433   6.740   4.499
13282W        W78509  16.075   4.809   2.241
13283W        W78510  41.389  11.732   2.155
13284W        W78511  31.075  29.444   3.139
13285W        W78512   6.915  23.459   2.690
13286W        W78513  18.003  42.006  13.339
13287W        W78514  14.083   9.058  13.621
13288W        W78515  11.315  40.343   4.473
13289W        W78516  32.960   6.707  10.394
13290W        W78517  40.611   7.656   3.993
13291W        W78518  15.120  39.450  10.687
13292W        W78519   0.445  13.670  14.341
13293W        W78520  32.562  33.975   2.378
13294W        W78521  18.679  39.793  12.434
13295W        W78522   7.701  11.892   3.638
13296W        W78523  37.562  12.678  13.820
13297W        W78524  11.377  34.510   0.442
13298W        W78525   1.304  38.105   0.660
13299W        W78526  11.400  37.689   4.202
13300W        W78527  33.522  24.501  13.941
13301W        W78528  36.816  10.218   1.938
13302W        W78529  16.549  29.953  11.136
13303W        W78530  41.769  16.815   0.798
13304W        W78531  29.643  20.242   0.368
13305W        W78532   7.337   9.317  14.488
13306W        W78533   0.871  18.843  12.952
13307W        W78534  34.454   4.836   0.200
13308W        W78535  23.559  35.555   4.859
13309W        W78536   6.303   8.962   3.808
13310W        W78537   1.850  30.262  13.485
13311W        W78538  33.889   0.777   2.682
13312W        W78539  25.669  35.549  11.995
13313W        W78540  31.395  29.022   3.195
13314W        W78541  31.444  29.646   2.856
13315W        W78542  28.237   7.790   1.239
13316W        W78543  36.406   1.018  11.533
13317W        W78544  23.467   9.285   2.139
13318W        W78545  16.288  28.941  12.158
13319W        W78546  11.035  20.585   4.063
13320W        W78547  27.637   3.094  14.904
13321W        W78548  18.115  18.254   0.957
13322W        W78549  33.556  14.638  14.706
13323W        W78550  33.927  15.196  14.470
13324W        W78551  38.482   1.432   1.020
13325W        W78552   5.303  17.240   3.207
13326W        W78553  12.783  10.527   1.887
13327W        W78554  28.369   3.994  11.233
13328W        W78555  25.671  44.194   2.344
13329W        W78556   5.416   6.040  11.223
13330W        W78557  30.976  30.419  13.822
13331W        W78558  38.774   4.816   5.096
13332W        W78559  22.379  39.467   4.960
13333W        W78560   0.107  18.645   2.654
13334W        W78561   9.617  28.712   0.434
13335W        W78562   9.785  35.232  10.741
13336W        W78563  37.998  35.134   1.296
13337W        W78564  36.571   1.012  13.407
13338W        W78565  11.380  12.285  13.406
13339W        W78566  38.614  10.528  14.824
13340W        W78567  10.389  37.495   0.961
13341W        W78568  38.148   3.688   4.387
13342W        W78569  33.310  32.361   4.062
13343W        W78570   1.752  18.272  10.744
13344W        W78571  22.023  23.201   2.809
13345W        W78572  32.431  39.832   0.700
13346W        W78573   5.303  25.788   5.148
13347W        W78574  44.500  15.118   3.326
13348W        W78575  43.436  41.284   1.328
13349W        W78576  40.901  22.821   1.898
13350W        W78577  42.302   4.913   4.698
13351W        W78578  24.149  36.876  14.790
13352W        W78579   9.484   7.207   4.277
13353W        W78580  17.707   1.839   2.379
13354W        W78581  14.773  30.600   2.147
13355W        W78582   6.662  11.433  14.004
13356W        W78583   1.996   5.830   0.252
13357W        W78584  20.018  35.688  12.174
13358W        W78585   5.722  25.146   3.356
13359W        W78586  36.936  20.768   3.707
13360W        W78587  42.704  25.250  13.202
13361W        W78588   7.950   9.804   0.961
13362W        W78589  32.031  13.394   3.360
13363W        W78590  34.998  29.822  11.007
13364W        W78591  17.281  34.581  13.903
13365W        W78592   4.335  25.069  14.395
13366W        W78593  22.823  26.437   4.106
13367W        W78594  27.125  11.250  10.993
13368W        W78595  37.106  23.827   2.207
13369W        W78596   7.076   8.494  12.505
13370W        W78597  32.289  31.404  10.649
13371W        W78598  26.695  32.964   3.198
13372W        W78599  26.945  33.486   1.275
13373W        W78600  15.332  33.149   3.171
13374W        W78601  13.672  37.864   0.302
13375W        W78602   8.214  32.716  10.999
13376W        W78603  43.550   7.726   5.205
13377W        W78604   9.765  38.410   4.908
13378W        W78605  16.421   2.785  14.416
13379W        W78606  43.296  26.182  14.893
13380W        W78607  42.784   5.424  11.486
13381W        W78608   7.296  11.386   2.228
13382W        W78609   5.729  19.136  13.823
13383W        W78610  28.564   2.717   4.494
13384W        W78611  42.791  39.154   1.234
13385W        W78612  14.131   2.508  10.610
13386W        W78613  34.308  39.329  13.831
13387W        W78614  10.955  21.706   0.809
13388W        W78615  32.982  29.973   0.460
13389W        W78616  12.244  19.184  11.422
13390W        W78617   8.921   5.593  10.575
13391W        W78618   3.605  39.284  10.971
13392W        W78619  10.346  14.119   2.036
13393W        W78620  16.278  10.733   0.017
13394W        W78621  31.512  24.993  11.425
13395W        W78622  27.467  26.104  12.193
13396W        W78623   0.006  34.038   2.460
13397W        W78624  11.870  44.976  12.808
13398W        W78625  32.680  25.642  12.680
13399W        W78626  36.512  30.302   2.827
13400W        W78627  14.833  28.310  11.159
13401W        W78628  15.968  38.438   2.621
13402W        W78629  11.741   9.730   1.231
13403W        W78630  30.648  28.703   1.281
13404W        W78631  44.284  10.681  13.782
13405W        W78632  19.708  35.426  13.295
13406W        W78633  23.853   1.752  11.717
13407W        W78634  14.732  40.277  10.386
13408W        W78635  17.801  27.163   0.742
13409W        W78636  12.248   9.550  14.786
13410W        W78637  38.402  38.640   3.718
13411W        W78638  25.493  39.884   1.420
13412W        W78639  14.355   7.363  12.912
13413W        W78640  10.943   3.859   3.181
13414W        W78641  23.367  18.350  11.080
13415W        W78642  42.518  33.589  14.774
13416W        W78643  33.466  36.857   2.841
13417W        W78644   1.937  21.103  10.515
13418W        W78645  43.365  24.218  14.833
13419W        W78646  21.732  32.207  14.901
13420W        W78647  43.431  43.743   4.217
13421W        W78648  32.492  14.519  13.862
13422W        W78649   0.146   4.429   3.695
13423W        W78650  21.192  37.921   3.090
13424W        W78651  23.071   7.199  13.828
13425W        W78652   9.176  24.839   3.797
13426W        W78653  26.570  31.772  13.795
13427W        W78654  16.791   9.385  13.134
13428W        W78655  21.354   1.405  10.837
13429W        W78656  31.863  33.507  11.165
13430W        W78657  23.030  29.830  13.000
13431W        W78658   1.635   5.125  11.627
13432W        W78659   3.517  36.436  11.862
13433W        W78660  26.074  16.281   3.249
13434W        W78661   9.977   2.717   0.882
13435W        W78662  23.495  15.285   0.783
13436W        W78663  36.093  33.006  10.572
13437W        W78664   3.473  30.869  11.522
13438W        W78665  33.642  39.070  13.074
13439W        W78666  28.700  10.646  11.991
13440W        W78667  22.213  14.383  14.575
13441W        W78668  44.364   0.665  12.120
13442W        W78669   4.336  35.759   3.663
13443W        W78670  40.433  16.096  14.473
13444W        W78671  11.212  22.575   4.505
13445W        W78672  22.333  42.386  14.767
13446W        W78673  26.178  28.494   4.468
13447W        W78674  33.982   9.068  11.523
13448W        W78675  24.458  31.145  14.341
13449W        W78676  18.726  32.715  13.913
13450W        W78677  28.688  17.761  12.107
13451W        W78678  29.598  43.486   4.672
13452W        W78679  17.701  26.477   3.917
13453W        W78680   3.221  17.340   4.154
13454W        W78681  35.285   0.447  12.673
13455W        W78682  38.646  22.466  11.628
13456W        W78683  12.846  21.315  10.483
13457W        W78684  13.846  19.259  13.848
13458W        W78685  14.690  31.939   5.074
13459W        W78686  29.585   7.479  11.182
13460W        W78687   8.124  17.785   9.925
13461W        W78688   1.386  33.230  14.960
13462W        W78689   2.477  17.464   2.690
13463W        W78690   4.216   0.932   2.829
13464W        W78691   0.584  15.747   0.471
13465W        W78692  11.780  16.938   4.479
13466W        W78693  14.122  34.634  13.027
13467W        W78694  31.310  38.383   2.895
13468W        W78695  35.463  14.440   2.704
13469W        W78696  27.204  39.847  10.605
13470W        W78697  35.942   8.775  12.848
13471W        W78698  33.093   8.416   3.951
13472W        W78699   4.712  17.615   0.505
13473W        W78700   4.515  20.707  14.458
13474W        W78701  30.845  26.129   0.741
13475W        W78702  13.076  43.168   2.698
13476W        W78703  25.218   4.847   2.997
13477W        W78704  20.549  17.290   2.350
13478W        W78705  44.331  39.474   3.845
13479W        W78706  12.330   6.456  14.851
13480W        W78707  21.916   8.323   3.976
13481W        W78708  22.580  34.545  10.743
13482W        W78709   3.721  38.947  13.962
13483W        W78710  44.839  25.569  14.495
13484W        W78711   7.858  38.988  10.267
13485W        W78712  32.007  38.032  13.588
13486W        W78713  31.382  43.515  10.672
13487W        W78714   1.778  10.211  10.448
13488W        W78715  18.404  19.209   2.460
13489W        W78716  41.214  27.958  11.990
13490W        W78717  24.155  19.816  11.509
13491W        W78718  32.932   9.501   3.693
13492W        W78719  44.913  40.721   0.178
13493W        W78720  18.419  19.813  14.000
13494W        W78721  30.500  18.683   2.780
13495W        W78722  33.870  16.790   2.475
13496W        W78723   0.319  36.814  11.604
13497W        W78724   2.922  15.469   3.614
13498W        W78725  14.349  22.104   2.308
13499W        W78726   0.852  14.136   3.939
13500W        W78727   6.715  37.584   3.607
13501W        W78728  18.028  16.147  14.607
13502W        W78729  36.332  44.990  13.722
13503W        W78730   0.082  44.993   0.841
13504W        W78731  16.815  21.417  12.991
13505W        W78732  35.370  16.173  12.837
13506W        W78733  41.844  40.240  12.133
13507W        W78734  33.728  38.833   1.269
13508W        W78735  28.398  13.500   5.421
13509W        W78736  44.840   3.330  14.385
13510W        W78737  25.849  41.431   4.164
13511W        W78738  14.804  34.733   1.910
13512W        W78739  40.216  23.974   1.900
13513W        W78740  14.796  40.571   1.307
13514W        W78741  38.746  24.316   1.340
13515W        W78742  32.002   9.508   2.257
13516W        W78743  30.222  31.571  14.499
13517W        W78744  31.839   3.214   4.501
13518W        W78745  37.991  44.708   4.772
13519W        W78746  29.636   9.707   3.215
13520W        W78747   2.263  21.030  12.458
13521W        W78748  17.799  21.271   3.775
13522W        W78749  17.902   0.100   4.941
13523W        W78750  40.848  22.302   1.930
13524W        W78751  23.937   1.919   1.830
13525W        W78752  35.416  16.306   0.493
13526W        W78753  16.600   5.129   4.268
13527W        W78754   6.921  30.083  10.746
13528W        W78755  38.901  20.231   4.504
13529W        W78756   6.741  31.801  14.342
13530W        W78757  42.432   4.832   2.393
13531W        W78758  14.646  15.829   4.218
13532W        W78759  24.919  13.795  11.441
13533W        W78760  42.919  23.216   1.875
13534W        W78761  15.764  41.268   1.341
13535W        W78762  41.450  34.596  11.214
13536W        W78763  24.426  19.513   2.886
13537W        W78764  23.161  16.711  11.151
13538W        W78765  28.107  38.305  11.691
13539W        W78766  29.609  29.058   4.052
13540W        W78767  42.024   5.402  12.035
13541W        W78768  22.090  39.817   4.562
13542W        W78769  42.364  25.521   1.931
13543W        W78770  32.902  41.361  12.343
13544W        W78771  26.182  33.316  13.617
13545W        W78772  35.358   6.766  13.353
13546W        W78773  10.250  40.546  13.209
13547W        W78774  24.784  18.342  11.116
13548W        W78775  35.214   6.238   0.247
13549W        W78776   1.694   0.681  14.752
13550W        W78777  43.479   7.443  11.315
13551W        W78778  36.472  26.675  11.503
13552W        W78779  37.107   2.960   0.770
13553W        W78780   7.422  11.589  11.091
13554W        W78781  36.046  20.057  11.623
13555W        W78782   6.145  15.314   2.014
13556W        W78783  11.794  39.879  12.882
13557W        W78784  39.755  12.675   1.321
13558W        W78785  15.834   3.880   4.174
13559W        W78786  19.392  14.301   1.184
13560W        W78787   3.484  43.983   9.810
13561W        W78788  22.713   9.233   2.665
13562W        W78789   0.710   3.362   1.903
13563W        W78790   2.777  31.204   9.844
13564W        W78791  44.968  16.549  13.153
13565W        W78792  36.047  11.143   4.586
13566W        W78793  15.221  15.059  12.027
13567W        W78794  37.542  30.644   4.600
13568W        W78795  35.316  40.585  11.151
13569W        W78796  12.213  36.535   2.371
13570W        W78797   4.952  36.994  13.550
13571W        W78798  38.823  11.707   0.410
13572W        W78799  10.076  34.597  12.360
13573W        W78800  29.590  33.501   2.801
13574W        W78801  19.697  40.365  14.881
13575W        W78802  22.677  30.140  14.420
13576W        W78803  27.923   0.152   0.833
13577W        W78804   4.342  15.031  13.780
13578W        W78805  35.294  16.735  14.489
13579W        W78806  12.277  15.235   4.714
13580W        W78807  20.149  44.272   1.289
13581W        W78808  31.568  37.759   0.244
13582W        W78809  29.727  10.711  11.233
13583W        W78810   9.839  18.502   4.583
13584W        W78811   2.275  25.690   0.938
13585W        W78812   7.890   2.278  14.053
13586W        W78813  12.677   4.898  10.037
13587W        W78814   0.556  23.477  11.453
13588W        W78815  41.373  31.724   2.738
13589W        W78816  33.936  10.900  14.417
13590W        W78817  12.958  41.969  14.937
13591W        W78818  43.713  21.063  10.388
13592W        W78819  42.367  32.411  10.878
13593W        W78820  27.369  43.411  13.918
13594W        W78821  12.318   1.729   0.458
13595W        W78822  39.471  15.339   1.147
13596W        W78823  40.359   5.658  13.478
13597W        W78824  10.755  34.266  12.632
13598W        W78825  15.377  33.583   0.023
13599W        W78826  31.823  25.256  13.077
13600W        W78827   6.995   7.789   0.996
13601W        W78828  30.068   9.648   0.394
13602W        W78829   2.837  35.104  11.599
13603W        W78830  18.353  14.631   3.247
13604W        W78831  13.083  13.130   1.677
13605W        W78832  29.084  44.733   2.974
13606W        W78833  13.756  18.790  12.379
13607W        W78834  28.097  34.322   3.012
13608W        W78835  27.769  18.035   2.313
13609W        W78836  20.086  26.399   3.718
13610W        W78837  11.869   4.221   0.844
13611W        W78838  36.656  36.369   0.349
13612W        W78839   1.419  12.090  10.680
13613W        W78840  25.813  30.378  14.946
13614W        W78841   2.523  33.412  11.366
13615W        W78842  41.457  37.534   2.271
13616W        W78843  33.844  30.656  10.275
13617W        W78844  25.689   9.966  11.641
13618W        W78845   6.767   2.297  13.364
13619W        W78846  18.574  22.635   3.684
13620W        W78847  37.865  16.793  13.952
13621W        W78848  32.191   0.066   3.023
13622W        W78849  38.903  42.396   4.615
13623W        W78850  11.633  33.882   3.178
13624W        W78851  14.349  23.181  11.474
13625W        W78852  32.660  42.975   3.923
13626W        W78853  33.154  26.195  11.711
13627W        W78854   4.724  30.734  12.835
13628W        W78855  34.421  11.872   1.256
13629W        W78856  20.266  25.656  11.208
13630W        W78857  36.214  43.482   1.683
13631W        W78858   1.351  19.559  11.936
13632W        W78859  23.048  22.619  14.399
13633W        W78860  26.954  27.856  12.065
13634W        W78861  34.057   7.338  11.203
13635W        W78862   7.492   9.811   4.442
13636W        W78863   7.902  24.281   0.109
13637W        W78864  36.868  44.915   1.382
13638W        W78865  28.473  30.905   3.832
13639W        W78866  10.886  26.950  13.786
13640W        W78867  36.464  35.197   3.344
13641W        W78868  42.217  12.460   4.074
13642W        W78869   6.337  11.527  11.086
13643W        W78870  41.485  14.160   4.625
13644W        W78871   1.417  44.675   0.237
13645W        W78872  32.049  44.972   4.478
13646W        W78873   5.614   3.846  11.433
13647W        W78874  42.342  14.310  12.105
13648W        W78875  31.201  31.539   5.590
13649W        W78876  33.057  42.314  11.804
13650W        W78877  27.815  42.886  12.902
13651W        W78878  37.070  30.514  13.917
13652W        W78879  36.877  23.937   0.521
13653W        W78880  38.751  37.385  11.798
13654W        W78881  18.305  41.989   2.233
13655W        W78882  26.560  17.542  13.415
13656W        W78883   2.555  20.952   4.062
13657W        W78884  39.423   2.481   1.173
13658W        W78885  28.352  29.426   4.061
13659W        W78886  30.460   8.771  11.846
13660W        W78887  24.761  32.902   3.987
13661W        W78888  16.373   4.304   1.305
13662W        W78889  42.583  30.083  11.243
13663W        W78890  36.427  33.063   1.800
13664W        W78891  25.117  20.771  13.456
13665W        W78892  18.663  18.557   0.250
13666W        W78893  26.030   0.672  13.082
13667W        W78894   1.854   8.367   0.190
13668W        W78895  14.235  36.003  10.808
13669W        W78896  24.296  27.604   1.153
13670W        W78897  10.739  30.417  12.464
13671W        W78898  37.800  36.192   3.126
13672W        W78899  15.235  11.665  12.507
13673W        W78900   0.688  25.405   5.372
13674W        W78901  15.546  17.055   3.306
13675W        W78902  39.993  16.209   3.276
13676W        W78903  38.624  11.068   3.663
13677W        W78904   0.346  19.794   0.689
13678W        W78905  42.417  12.749   1.796
13679W        W78906  41.884  26.135  14.491
13680W        W78907  12.708  34.331   0.477
13681W        W78908   7.388   0.405   0.434
13682W        W78909  24.420  24.698  11.664
13683W        W78910   8.998  27.014   1.832
13684W        W78911  32.572  25.479   3.929
13685W        W78912   7.476  20.556   4.006
13686W        W78913  39.071  23.579   3.082
13687W        W78914  22.521   5.445   2.596
13688W        W78915  18.837   7.391   2.277
13689W        W78916   6.259  16.797   4.425
13690W        W78917   1.261  44.963  12.902
13691W        W78918  22.233  26.173  13.842
13692W        W78919  39.572   8.212  10.783
13693W        W78920   9.833  20.684  12.478
13694W        W78921  30.618  10.662   2.904
13695W        W78922   2.541  28.420  13.261
13696W        W78923  28.868   9.306  13.397
13697W        W78924  36.414  24.639   2.392
13698W        W78925   9.875  43.938   2.907
13699W        W78926  21.141  27.045  11.121
13700W        W78927  23.635   2.214   2.872
13701W        W78928  18.104  19.641   5.043
13702W        W78929   7.759  12.735  10.660
13703W        W78930  44.925  14.061   3.805
13704W        W78931   0.793   4.748  10.788
13705W        W78932  20.190   7.220   0.873
13706W        W78933  24.036  18.179  12.021
13707W        W78934   5.190  12.702   2.705
13708W        W78935  37.113   8.074  11.174
13709W        W78936  21.664  13.636   1.854
13710W        W78937  21.584  18.332   9.943
13711W        W78938   8.178  29.433  11.253
13712W        W78939  17.763  17.387   2.771
13713W        W78940  13.098  41.285   2.873
13714W        W78941  11.278  15.164   4.483
13715W        W78942  32.099  21.111  12.488
13716W        W78943   0.756  13.239  11.183
13717W        W78944  14.772  39.693   4.367
13718W        W78945  25.203   3.739  12.201
13719W        W78946  43.898  20.741   5.001
13720W        W78947  18.778   5.918   4.620
13721W        W78948  44.205  38.767   1.202
13722W        W78949  15.412  25.620   0.763
13723W        W78950   1.029  10.029  12.548
13724W        W78951   3.306  44.932   0.184
13725W        W78952  22.696  18.587  13.361
13726W        W78953  44.929  26.690  13.912
13727W        W78954  34.661  25.947  12.483
13728W        W78955  23.957  35.590  11.462
13729W        W78956  26.770  32.079   4.094
13730W        W78957  34.033  30.401   0.618
13731W        W78958  24.420  20.126   2.711
13732W        W78959  36.489  29.607   2.303
13733W        W78960  17.669  41.906  14.373
13734W        W78961  23.146  34.625  11.180
13735W        W78962  42.373  37.408  13.431
13736W        W78963   4.451  10.824   4.217
13737W        W78964   3.333  29.879   2.162
13738W        W78965  12.072  23.681   3.302
13739W        W78966   6.887  21.231  12.525
13740W        W78967  20.546  29.993  12.976
13741W        W78968   6.063   5.055   0.458
13742W        W78969  42.318  34.518   1.165
13743W        W78970  29.098  24.421  12.040
13744W        W78971  26.421  38.236   4.510
13745W        W78972  14.725  10.292  14.161
13746W        W78973  41.085  44.798  11.922
13747W        W78974  20.940   1.635  14.672
13748W        W78975  40.861  11.750   0.322
13749W        W78976   1.715  11.564   2.699
13750W        W78977  28.583   8.283   1.980
13751W        W78978  28.132  35.699   0.232
13752W        W78979  17.406  19.622   0.973
13753W        W78980  35.899   9.741   3.402
13754W        W78981   4.327  10.847   1.865
13755W        W78982  20.876   6.634   3.234
13756W        W78983  25.455   3.558  14.072
13757W        W78984   7.700  43.549  11.042
13758W        W78985   7.837  19.835  14.359
13759W        W78986  40.621  16.111  10.037
13760W        W78987  25.263  19.160   0.330
13761W        W78988  33.440  44.465   1.680
13762W        W78989  14.573  20.223  12.482
13763W        W78990  37.950  22.644   0.837
13764W        W78991  18.833  15.157   3.694
13765W        W78992  24.729  31.826  12.592
13766W        W78993  16.253  34.036   3.424
13767W        W78994  41.532  39.627   0.805
13768W        W78995  43.279  13.231  12.939
13769W        W78996   4.862  30.889  11.120
13770W        W78997  23.568  44.654   3.110
13771W        W78998  37.760   2.647  14.501
13772W        W78999  18.018   4.501  11.892
13773W        W79000  13.160  26.149  14.902
13774W        W79001  41.826  35.273  12.874
13775W        W79002  15.784   4.413  13.390
13776W        W79003  17.580  27.012  12.220
13777W        W79004  22.450  33.997   2.303
13778W        W79005  30.966  24.267  13.096
13779W        W79006  34.674   4.461  11.677
13780W        W79007  24.938  15.651   2.150
13781W        W79008  41.351   1.788   2.460
13782W        W79009   8.353  14.661   2.835
13783W        W79010   3.278  36.626  14.611
13784W        W79011  19.293  41.039  11.223
13785W        W79012  34.138  38.822  13.922
13786W        W79013   9.030  26.863  12.994
13787W        W79014  14.903  18.962  14.908
13788W        W79015  42.241  26.477  12.987
13789W        W79016  28.570  32.124  13.562
13790W        W79017  44.464   8.145  12.977
13791W        W79018  26.031  18.114   1.637
13792W        W79019  44.862   6.245  13.119
13793W        W79020  19.163  29.350  12.391
13794W        W79021  41.745  18.195  12.121
13795W        W79022  37.767  13.604  12.985
13796W        W79023  14.055  14.607   3.763
13797W        W79024  40.544  16.885  10.739
13798W        W79025  17.320  15.651   4.164
13799W        W79026  12.157  23.751   0.887
13800W        W79027  44.978  15.703   1.488
13801W        W79028  20.273   0.313   1.157
13802W        W79029  24.052  44.766   5.352
13803W        W79030  22.439  34.588   0.400
13804W        W79031  38.351  39.361   0.869
13805W        W79032  11.334  31.712  14.765
13806W        W79033  39.488  16.046  14.344
13807W        W79034  20.154  44.669  12.424
13808W        W79035  13.753   4.482  13.757
13809W        W79036  15.266  32.907  11.958
13810W        W79037  23.042  17.711   4.171
13811W        W79038  44.117  31.466   4.591
13812W        W79039  30.195  44.072  11.092
13813W        W79040  11.752  22.314   1.668
13814W        W79041  33.652  33.029   4.682
13815W        W79042   2.718   6.698   0.776
13816W        W79043  16.074  29.325   3.640
13817W        W79044  32.694  22.474   1.884
13818W        W79045  28.700  42.665   1.264
13819W        W79046  21.450  37.902   2.440
13820W        W79047  41.498  22.437  10.892
13821W        W79048  23.891  14.018  13.857
13822W        W79049   3.537  40.931  14.389
13823W        W79050  19.042  15.551   0.370
13824W        W79051  31.199  27.221   3.503
13825W        W79052  36.144  40.937  11.086
13826W        W79053  24.506  29.796   2.724
13827W        W79054   5.600   7.282   4.159
13828W        W79055  35.407  24.258   2.274
13829W        W79056  24.122   5.709  13.492
13830W        W79057   3.412  18.998   3.789
13831W        W79058  30.560   9.243   4.143
13832W        W79059  38.957  21.068  11.612
13833W        W79060  18.724  44.735  14.800
13834W        W79061  38.505  44.817   2.232
13835W        W79062  36.612  12.860   4.194
13836W        W79063  31.732  34.304  14.513
13837W        W79064  30.098  14.814   2.618
13838W        W79065   8.878  32.601  12.232
13839W        W79066  12.837  44.938  14.363
13840W        W79067   7.944  13.670  12.429
13841W        W79068   3.959  44.770   3.187
13842W        W79069   9.747  25.748  12.003
13843W        W79070  11.271  27.415  13.480
13844W        W79071  19.806   6.378  11.603
13845W        W79072   5.392  27.262  12.416
13846W        W79073  39.516  16.661  10.469
13847W        W79074   6.444  23.812  11.429
13848W        W79075  35.327  15.686  12.983
13849W        W79076  40.277  12.893  12.788
13850W        W79077   4.555  44.702  12.383
13851W        W79078  30.178  34.643  11.949
13852W        W79079  32.011  39.486   0.700
13853W        W79080  20.146  15.840   1.363
13854W        W79081  37.631  43.094  10.402
13855W        W79082  24.078  19.199  11.988
13856W        W79083  13.334  43.773   4.955
13857W        W79084  34.810  19.666   1.390
13858W        W79085  40.259  12.747  13.721
13859W        W79086   9.602  29.160   2.248
13860W        W79087  41.511  15.772   4.499
13861W        W79088  17.100  12.418   1.399
13862W        W79089  32.184   6.923  12.102
13863W        W79090  38.558   7.822  13.594
13864W        W79091   3.659   7.810   1.133
13865W        W79092  10.686  36.460  10.390
13866W        W79093   3.646  15.208   0.941
13867W        W79094  38.583  10.317   1.016
13868W        W79095  30.564  29.681  14.491
13869W        W79096  44.282  42.430  11.630
13870W        W79097  20.523   9.494   0.062
13871W        W79098  26.727  22.520   3.275
13872W        W79099  42.320   2.134   1.383
13873W        W79100  43.831   8.740   0.794
13874W        W79101  37.130  23.003   0.505
13875W        W79102  41.996  39.277   2.653
13876W        W79103  41.786  24.654   3.248
13877W        W79104  31.373   3.704  12.567
13878W        W79105  32.334  22.598  14.518
13879W        W79106  22.903  31.509   1.584
13880W        W79107   8.056  41.520  11.084
13881W        W79108  33.484   2.695   4.501
13882W        W79109  10.000  21.123   2.937
13883W        W79110  34.274   7.706  13.976
13884W        W79111  21.137   2.327   0.295
13885W        W79112  40.299  32.120  13.821
13886W        W79113  29.769  17.616  13.882
13887W        W79114   0.305  15.575  11.899
13888W        W79115  28.827  30.404  10.736
13889W        W79116  27.888  43.305   3.387
13890W        W79117  40.477  17.722  11.686
13891W        W79118   1.047  42.202  11.918
13892W        W79119  18.617   1.459   1.725
13893W        W79120  18.242  13.597  10.715
13894W        W79121  20.001  29.525  13.559
13895W        W79122  44.406  24.481  11.040
13896W        W79123  41.242  14.872   1.759
13897W        W79124  18.805  22.571  13.634
13898W        W79125   5.649  26.049  10.419
13899W        W79126  19.771  16.642  13.933
13900W        W79127  17.694  14.708  13.056
13901W        W79128  18.366  17.782   2.135
13902W        W79129  22.684  13.652   1.249
13903W        W79130  25.662  10.796   4.138
13904W        W79131  39.764  36.247  12.812
13905W        W79132  21.481  33.963   2.679
13906W        W79133  19.080  30.870   1.711
13907W        W79134   8.131  29.482   0.637
13908W        W79135  36.582  34.096   0.555
13909W        W79136  36.098  15.890  10.824
13910W        W79137  42.325  44.412  14.838
13911W        W79138  19.121  15.538  11.649
13912W        W79139  25.585  39.664  10.251
13913W        W79140   0.471  36.096   4.390
13914W        W79141   2.893  23.859  13.072
13915W        W79142   7.338   8.556  14.906
13916W        W79143  37.713  16.864   4.053
13917W        W79144  19.685  21.593  14.067
13918W        W79145   0.417  35.129   2.446
13919W        W79146   8.260  14.362  14.452
13920W        W79147  28.605  29.159   1.393
13921W        W79148  39.481  24.537   4.543
13922W        W79149  12.254  34.149  11.618
13923W        W79150  33.120   3.447  12.576
13924W        W79151  39.403  41.793  12.003
13925W        W79152  28.978  38.518   3.387
13926W        W79153  23.663  12.643  11.222
13927W        W79154  24.843  13.876  13.499
13928W        W79155   2.204  13.921  13.995
13929W        W79156  34.592   8.859   4.604
13930W        W79157  21.405   1.719  12.429
13931W        W79158  14.288  34.444   1.031
13932W        W79159   4.814  11.486   2.887
13933W        W79160  36.378  28.517  13.911
13934W        W79161  38.229  35.851   1.858
13935W        W79162  32.491  22.176   0.297
13936W        W79163   1.909  26.511  14.307
13937W        W79164  21.102  31.339  12.828
13938W        W79165   6.747  12.558  14.451
13939W        W79166   0.381   0.559   4.136
13940W        W79167  10.440   0.823   5.174
13941W        W79168  36.438  20.954  10.735
13942W        W79169   9.851   6.406   0.093
13943W        W79170   2.496  15.552   1.243
13944W        W79171  36.181  32.347  14.075
13945W        W79172  26.559  15.094   3.794
13946W        W79173  10.274  17.538   0.757
13947W        W79174  18.576  32.721  11.111
13948W        W79175  44.781  24.305  14.919
13949W        W79176  22.711  37.626  11.062
13950W        W79177  28.936  28.717  12.439
13951W        W79178   3.211  40.489  12.177
13952W        W79179  20.525   8.612  11.173
13953W        W79180  38.828  23.512   2.627
13954W        W79181   0.515   4.378   3.104
13955W        W79182  30.300  10.407  14.023
13956W        W79183  22.957  21.643  14.494
13957W        W79184  24.008  14.644   0.342
13958W        W79185  19.628  34.876  12.914
13959W        W79186  27.240  17.601   1.773
13960W        W79187   1.845  11.202   1.876
13961W        W79188  40.882  20.069   3.289
13962W        W79189  22.274   3.676   0.267
13963W        W79190   0.730  19.281  14.007
13964W        W79191   6.661  26.631   3.723
13965W        W79192  44.568  16.819  14.924
13966W        W79193  34.089  34.951  11.905
13967W        W79194  17.474   6.784   4.885
13968W        W79195  13.105  30.045   0.150
13969W        W79196   0.978  23.742   0.716
13970W        W79197  42.833  22.326   1.321
13971W        W79198   4.936   4.700   3.737
13972W        W79199  16.552   8.823   1.502
13973W        W79200   8.394  13.342   9.819
13974W        W79201  20.966  33.064   2.774
13975W        W79202   8.662  24.843   3.662
13976W        W79203  31.129  25.538  12.469
13977W        W79204   4.435  25.743  12.513
13978W        W79205  26.491  43.536   1.225
13979W        W79206  36.483   1.863  12.985
13980W        W79207  31.047  41.357  12.986
13981W        W79208  17.441  17.465   0.209
13982W        W79209  21.356  42.243   4.367
13983W        W79210  35.551  31.938   3.728
13984W        W79211  26.625  39.025   4.928
13985W        W79212   9.327  38.418   3.112
13986W        W79213   9.791  40.117  11.717
13987W        W79214   5.897  36.627   0.858
13988W        W79215   6.474  24.095  14.461
13989W        W79216  15.263  39.908  11.445
13990W        W79217  40.730  40.055  10.962
13991W        W79218  34.820  19.771  12.902
13992W        W79219  27.131  29.560   2.462
13993W        W79220  31.394  28.703   2.772
13994W        W79221  17.504  18.900   3.719
13995W        W79222  25.069   3.012  13.377
13996W        W79223  25.521  43.574   0.825
13997W        W79224  35.045  43.652  11.247
13998W        W79225  38.410   4.005  12.406
13999W        W79226  16.212  22.691   2.875
14000W        W79227  16.769   8.836  10.802
14001W        W79228  34.004  23.189   3.917
14002W        W79229  36.578  40.503  11.527
14003W        W79230  44.907  34.276  14.131
14004W        W79231  19.282  37.079  13.258
14005W        W79232  23.255  38.560   1.329
14006W        W79233  18.106  35.031   1.841
14007W        W79234  23.717   6.671   4.814
14008W        W79235  29.517  41.848   1.833
14009W        W79236  24.962  34.242   0.264
14010W        W79237   1.357   7.331   2.248
14011W        W79238  28.851  20.662  11.090
14012W        W79239  22.783  24.029  13.103
14013W        W79240  28.629  14.928   2.186
14014W        W79241  19.812  40.879  14.537
14015W        W79242  15.847  13.389  13.960
14016W        W79243  41.775  31.754   4.469
14017W        W79244   8.455  31.163  12.774
14018W        W79245  21.678  17.653  11.596
14019W        W79246  17.360   6.417   1.860
14020W        W79247   6.279  34.984   3.155
14021W        W79248  15.336   4.344  10.751
14022W        W79249  40.992  13.910   2.771
14023W        W79250  16.834  38.901  11.170
14024W        W79251  15.236  29.397   3.149
14025W        W79252  11.871   0.035   4.276
14026W        W79253  39.032  20.049   0.964
14027W        W79254  16.726  42.582   1.153
14028W        W79255  30.093  40.464   4.027
14029W        W79256   6.619  27.630   2.105
14030W        W79257  29.119  14.393   0.902
14031W        W79258  39.839  14.339   1.803
14032W        W79259  44.509   7.391  13.318
14033W        W79260  32.972   7.411  12.366
14034W        W79261  25.926  25.567   4.030
14035W        W79262   0.531  20.573  14.391
14036W        W79263  24.989  27.259   1.887
14037W        W79264  13.764  41.331   4.706
14038W        W79265  30.633  21.694  11.477
14039W        W79266  31.588  29.935  10.533
14040W        W79267   2.424  21.354   2.302
14041W        W79268   5.855  20.046  10.625
14042W        W79269   4.394  42.317   3.559
14043W        W79270  11.342   2.996   0.780
14044W        W79271  13.631  29.952   3.312
14045W        W79272  35.340  25.170   3.643
14046W        W79273  28.484  25.759  14.486
14047W        W79274  24.038  28.606   0.343
14048W        W79275   0.364  16.749   4.084
14049W        W79276  44.822  28.518   3.717
14050W        W79277   4.829  41.136  11.250
14051W        W79278   9.584  28.431   4.548
14052W        W79279  30.077   7.666  14.330
14053W        W79280  24.437   8.856  13.361
14054W        W79281  39.882  13.833   1.806
14055W        W79282  21.476  30.402   0.561
14056W        W79283  40.318  24.467   4.202
14057W        W79284  33.138  20.994   3.206
14058W        W79285  43.322  31.479  14.003
14059W        W79286  39.688  23.154   1.217
14060W        W79287   9.715  27.598  10.709
14061W        W79288   3.181  19.266  13.907
14062W        W79289  31.257   3.133   3.637
14063W        W79290  13.329  12.152   3.675
14064W        W79291  13.108  39.351   2.743
14065W        W79292   8.746  15.522   9.778
14066W        W79293  21.715  32.888   2.306
14067W        W79294   7.422   3.781   2.359
14068W        W79295   3.774  21.576  13.156
14069W        W79296  30.543   1.414  14.758
14070W        W79297  38.041  30.653   3.637
14071W        W79298  33.475  29.141  14.295
14072W        W79299  22.492  33.152   0.375
14073W        W79300  13.247  41.289  11.354
14074W        W79301  14.697  19.194   1.811
14075W        W79302  11.610  17.345  14.384
14076W        W79303   0.424  14.099   3.605
14077W        W79304  11.889  29.447  11.686
14078W        W79305  42.504  22.658  11.150
14079W        W79306  34.156  29.807  13.160
14080W        W79307  16.177  31.401  11.048
14081W        W79308  22.642  32.435  12.572
14082W        W79309  25.791   8.886   2.398
14083W        W79310  29.821   9.387   0.780
14084W        W79311  32.542  41.147   5.407
14085W        W79312   7.711  24.610   1.080
14086W        W79313  40.048  10.624   4.132
14087W        W79314   0.276  24.501  14.882
14088W        W79315  31.573   8.558   0.190
14089W        W79316  28.456   3.687  14.790
14090W        W79317  32.985   1.356  11.437
14091W        W79318  31.616  22.044  12.233
14092W        W79319  31.373  29.202  13.520
14093W        W79320  33.519  12.190   3.649
14094W        W79321  37.013  40.231  11.504
14095W        W79322  15.232  34.950   1.752
14096W        W79323  29.996   5.465   0.744
14097W        W79324  26.486  28.524  12.460
14098W        W79325  41.062  11.762   0.796
14099W        W79326  37.601   5.329  14.846
14100W        W79327  31.046   1.796   1.403
14101W        W79328  15.602  38.065  11.203
14102W        W79329  37.694  10.520  10.787
14103W        W79330  31.831  22.469  14.592
14104W        W79331  20.737  22.580   2.185
14105W        W79332  20.468   2.913  13.357
14106W        W79333   5.158   1.384   3.353
14107W        W79334  36.350  22.982  11.730
14108W        W79335  43.292  29.424   0.143
14109W        W79336   6.588  44.826  11.096
14110W        W79337  41.779  29.961   1.718
14111W        W79338  35.013  10.643   4.190
14112W        W79339   6.313  26.400  10.099
14113W        W79340  23.508   2.670   2.050
14114W        W79341  13.334  30.076  11.140
14115W        W79342  32.911   9.816   3.287
14116W        W79343   9.627  24.591   3.999
14117W        W79344  43.843  23.580   1.492
14118W        W79345  16.829  30.705   3.116
14119W        W79346  39.027  35.971   0.949
14120W        W79347  42.486  12.955   0.791
14121W        W79348  38.969  13.760   3.083
14122W        W79349  34.283  34.508   0.260
14123W        W79350  12.930  28.697  13.041
14124W        W79351  23.048  42.899  13.610
14125W        W79352  11.716  26.938  11.617
14126W        W79353   5.897  24.537  14.720
14127W        W79354  42.220  19.538   3.646
14128W        W79355  17.222  43.165  12.953
14129W        W79356  32.924   1.144  10.979
14130W        W79357   2.887  23.191  14.363
14131W        W79358  27.039  18.607  12.060
14132W        W79359  34.104  27.432   9.606
14133W        W79360  30.785  21.050  13.588
14134W        W79361  16.592  24.656  12.502
14135W        W79362  19.312   1.460  11.937
14136W        W79363   8.353  27.814   4.163
14137W        W79364  29.045  44.116  11.610
14138W        W79365  24.267  36.371  14.737
14139W        W79366  43.537   7.954   1.722
14140W        W79367  19.502  14.709  11.147
14141W        W79368  35.982  29.704   1.606
14142W        W79369  26.931   2.127   4.181
14143W        W79370  12.243   6.197   4.789
14144W        W79371  10.891  14.084   3.696
14145W        W79372  24.579  11.271   4.606
14146W        W79373  29.339  31.501   3.563
14147W        W79374   1.367  19.983  14.312
14148W        W79375  22.988  32.056  10.607
14149W        W79376  41.019  22.540  12.988
14150W        W79377  14.783  15.631  13.885
14151W        W79378  30.144  25.221  10.261
14152W        W79379  25.645  32.309   0.006
14153W        W79380   3.439   9.116   1.400
14154W        W79381  37.280  37.961   1.276
14155W        W79382  24.542   2.311   1.727
14156W        W79383  19.773   7.801  11.724
14157W        W79384   7.586  19.539  14.732
14158W        W79385  23.732  36.089   3.650
14159W        W79386  14.391  15.906   3.370
14160W        W79387  18.565   4.694  14.575
14161W        W79388   7.729   7.126   1.245
14162W        W79389  23.591  29.036   3.130
14163W        W79390  32.059  33.523  14.844
14164W        W79391  38.638  39.435  14.478
14165W        W79392  17.093  23.683  12.065
14166W        W79393  29.462  43.933   3.198
14167W        W79394  27.586  26.204   1.979
14168W        W79395  34.449  12.726  11.113
14169W        W79396   4.144   0.799   3.852
14170W        W79397  27.033  35.021   3.893
14171W        W79398  42.136  14.751   2.642
14172W        W79399   6.580   5.266  11.355
14173W        W79400  12.949  40.646  14.158
14174W        W79401  31.880  40.576   1.839
14175W        W79402   6.750  11.258  11.437
14176W        W79403  32.386  37.133  13.068
14177W        W79404  26.635   7.740   3.568
14178W        W79405  15.811   5.267   2.168
14179W        W79406  25.302   9.203   3.825
14180W        W79407  26.437  22.958  14.450
14181W        W79408  35.005  29.660  13.506
14182W        W79409  16.497  42.907  10.992
14183W        W79410  12.616  23.130   3.684
14184W        W79411  37.424  38.836   4.033
14185W        W79412  36.648  43.830  11.208
14186W        W79413   5.745  29.149   0.695
14187W        W79414  18.471  32.340  12.902
14188W        W79415  15.503   8.683  13.484
14189W        W79416  15.873  41.794   1.251
14190W        W79417  29.638  43.077   0.056
14191W        W79418  20.832  14.667   4.669
14192W        W79419  37.896  30.865   4.168
14193W        W79420  16.707  36.486   2.676
14194W        W79421  10.875   4.287  12.166
14195W        W79422   9.344  21.345  11.899
14196W        W79423  30.847  12.965   4.879
14197W        W79424  35.664   0.069   0.449
14198W        W79425   9.726  19.537   3.202
14199W        W79426  30.770  28.711  14.481
14200W        W79427  32.739   9.592  14.511
14201W        W79428  18.086  35.444   2.303
14202W        W79429  25.003  31.411   1.940
14203W        W79430  40.580  29.075   1.882
14204W        W79431   8.812  10.222  12.007
14205W        W79432  15.242  17.990  13.808
14206W        W79433   3.468  19.694   4.187
14207W        W79434  13.230  13.804  12.483
14208W        W79435  25.620  22.246  14.034
14209W        W79436   2.007   1.296  12.515
14210W        W79437   6.615   3.960   2.747
14211W        W79438   2.183  36.557   4.236
14212W        W79439  19.286   2.695  12.154
14213W        W79440   4.700  15.690   4.597
14214W        W79441  13.979   1.699  11.694
14215W        W79442  11.123  19.061   1.252
14216W        W79443  19.843  31.072  11.491
14217W        W79444  35.342  42.366   0.443
14218W        W79445  39.605  24.080  13.586
14219W        W79446  16.086   0.359   2.376
14220W        W79447  30.403  24.582   2.853
14221W        W79448  39.459  23.020   3.673
14222W        W79449   2.926  28.075  10.236
14223W        W79450  24.035  23.678   3.980
14224W        W79451  27.651  10.407  12.658
14225W        W79452   5.595  21.268   4.159
14226W        W79453   2.815  33.058   0.732
14227W        W79454  40.453  10.885  12.158
14228W        W79455   3.654  26.770  10.274
14229W        W79456  35.935  24.479   2.260
14230W        W79457  39.798   1.353  12.515
14231W        W79458  20.126  44.211  14.418
14232W        W79459  30.563  25.407  14.891
14233W        W79460  27.561  33.987  11.663
14234W        W79461  36.543  22.190   1.667
14235W        W79462   9.717  12.089   0.947
14236W        W79463  31.076   9.656  10.964
14237W        W79464  36.699   0.362   2.200
14238W        W79465  31.923   1.328  14.607
14239W        W79466  22.079  23.140  14.507
14240W        W79467  41.704  26.685   4.038
14241W        W79468  33.139  31.869  10.174
14242W        W79469  35.580  27.089   2.875
14243W        W79470   4.865   2.727   2.113
14244W        W79471  22.229  30.292  13.151
14245W        W79472   9.070  33.897   1.873
14246W        W79473  17.296  35.866   2.424
14247W        W79474  31.531   9.557   0.356
14248W        W79475  12.219  14.321   4.986
14249W        W79476  10.285  39.253  11.059
14250W        W79477  24.172  29.490   2.427
14251W        W79478  31.030   6.689  10.671
14252W        W79479  35.034  24.936  12.169
14253W        W79480  16.103   9.088   2.258
14254W        W79481  30.166  44.251  13.977
14255W        W79482   4.910   5.285   1.352
14256W        W79483   6.476  37.633  11.005
14257W        W79484  35.228  11.592  10.958
14258W        W79485  36.000  14.569   0.800
14259W        W79486  29.668  34.928   1.584
14260W        W79487   3.052  37.727   1.001
14261W        W79488  38.442   8.996   2.159
14262W        W79489  42.930  18.380   1.267
14263W        W79490  15.318  16.362  11.590
14264W        W79491  34.958  41.816  12.556
14265W        W79492  13.564  29.045   4.860
14266W        W79493  24.742   3.789  11.487
14267W        W79494  26.856  39.411  12.637
14268W        W79495  37.481   7.885  12.110
14269W        W79496  26.681  10.550   2.688
14270W        W79497  38.418  27.572  11.101
14271W        W79498  24.903  30.967  13.431
14272W        W79499   7.144  42.974   2.308
14273W        W79500  16.875  41.246   4.503
14274W        W79501  36.915  30.130   1.694
14275W        W79502  40.420  34.860  11.698
14276W        W79503  21.612  34.451   2.688
14277W        W79504  29.885  37.884   2.717
14278W        W79505   3.006  11.643  13.871
14279W        W79506  22.452  11.961   0.915
14280W        W79507  15.019  43.057  14.344
14281W        W79508   7.389  32.620   3.563
14282W        W79509  27.345   2.771   4.822
14283W        W79510  18.422   8.690  12.168
14284W        W79511  28.885  26.263  10.747
14285W        W79512  34.099  34.026  11.633
14286W        W79513  30.187   2.373   4.697
14287W        W79514  22.201   8.199  14.446
14288W        W79515  11.940   1.394   0.218
14289W        W79516   6.460   3.232   4.159
14290W        W79517  15.839  13.265   4.490
14291W        W79518   4.176  14.294   1.746
14292W        W79519  32.009  11.810   0.211
14293W        W79520   3.066  30.755   9.854
14294W        W79521  39.850   1.564   1.230
14295W        W79522  21.210  34.115  14.829
14296W        W79523  39.010   5.899   1.445
14297W        W79524   1.191   4.560   1.417
14298W        W79525   0.447  26.940   1.169
14299W        W79526  28.080  24.613   1.354
14300W        W79527  26.461  26.345  12.993
14301W        W79528   6.424  23.609   2.680
14302W        W79529  14.239  41.793  12.806
14303W        W79530   6.728  29.162   0.632
14304W        W79531  37.502  26.663  13.051
14305W        W79532   8.164  19.156   4.563
14306W        W79533  37.277  42.554  11.176
14307W        W79534  12.712  22.369   1.171
14308W        W79535  44.216  31.977  12.782
14309W        W79536   0.891  43.270  13.269
14310W        W79537   3.750  41.804   0.868
14311W        W79538  11.089  40.823  14.365
14312W        W79539   1.705  43.346   3.075
14313W        W79540  35.337  27.581  12.166
14314W        W79541  25.007  21.668   3.723
14315W        W79542  36.666   0.970  14.371
14316W        W79543   0.730  42.374   3.118
14317W        W79544  23.634   1.819  14.254
14318W        W79545  31.565  18.259  11.640
14319W        W79546  29.496  30.636   4.609
14320W        W79547   3.188  14.354  14.111
14321W        W79548  27.426  22.423  10.678
14322W        W79549   6.791  20.128  14.408
14323W        W79550  37.797  44.526   3.080
14324W        W79551  34.463  21.880   2.816
14325W        W79552  22.550  26.945   4.890
14326W        W79553  13.382  19.248   0.649
14327W        W79554  41.042   3.327  14.136
14328W        W79555  31.955  31.877   4.149
14329W        W79556  43.400   7.824  11.954
14330W        W79557  38.801  23.967   2.887
14331W        W79558  25.994  25.829   2.244
14332W        W79559  12.476  43.320   1.408
14333W        W79560   8.020  34.023   1.729
14334W        W79561  14.319  16.663  12.001
14335W        W79562   1.246  34.524  14.926
14336W        W79563  23.315  18.995  13.822
14337W        W79564  31.029  20.619  13.424
14338W        W79565  26.551   6.318  14.447
14339W        W79566   6.279  32.557   4.041
14340W        W79567  32.346  34.576  10.616
14341W        W79568  29.956  33.665  11.628
14342W        W79569  10.546  35.511   1.463
14343W        W79570  16.032  28.976  12.631
14344W        W79571  25.370   6.844  10.640
14345W        W79572  20.665   3.334  12.712
14346W        W79573  41.609  20.325   0.977
14347W        W79574  19.067  18.085  10.405
14348W        W79575   7.924   7.290   4.556
14349W        W79576  33.814  24.056  13.689
14350W        W79577  25.509   2.754   0.934
14351W        W79578   1.334  30.432  10.071
14352W        W79579  43.262   8.818   2.381
14353W        W79580   7.887  15.501  11.627
14354W        W79581  30.269  29.967   4.872
14355W        W79582  14.882  38.020  14.417
14356W        W79583  23.520  18.642  14.148
14357W        W79584  22.576  21.649   3.953
14358W        W79585  26.954  26.934  11.965
14359W        W79586  15.873   2.863   2.107
14360W        W79587  14.148  40.079   3.296
14361W        W79588  18.470  35.381  13.038
14362W        W79589  41.277  28.252   3.504
14363W        W79590  10.029   9.598   2.663
14364W        W79591  26.058  25.778   1.233
14365W        W79592  26.048  26.513  14.444
14366W        W79593   8.795   0.084  10.554
14367W        W79594   1.370   7.392   1.320
14368W        W79595  11.723  18.050  13.385
14369W        W79596   1.253   9.528   2.649
14370W        W79597  24.806  20.902   1.797
14371W        W79598  17.715  23.486  14.589
14372W        W79599  21.102  35.568  13.572
14373W        W79600  36.816  15.839  14.327
14374W        W79601  35.442  32.504   1.310
14375W        W79602  28.039  31.332   3.235
14376W        W79603  26.049  41.704   4.588
14377W        W79604  23.427   7.603  14.577
14378W        W79605  17.250  34.615   2.630
14379W        W79606  15.829  19.308   2.649
14380W        W79607  35.304   5.614   0.939
14381W        W79608  29.127  31.952   3.733
14382W        W79609  38.389  18.775   1.949
14383W        W79610  26.509  44.261   4.634
14384W        W79611   4.406   1.246  14.044
14385W        W79612  44.538   7.115   1.867
14386W        W79613  15.851  27.978  13.755
14387W        W79614   4.138  41.455   0.746
14388W        W79615  11.722  20.103   3.197
14389W        W79616  38.866   1.060   1.907
14390W        W79617  26.885   9.256  10.729
14391W        W79618  26.209  10.597  11.213
14392W        W79619  29.565   0.209   0.240
14393W        W79620  33.023  15.421  11.347
14394W        W79621   3.933  22.378   0.183
14395W        W79622  12.430  20.140  12.907
14396W        W79623  35.142   0.439   2.372
14397W        W79624  24.240   1.398   3.560
14398W        W79625   5.164   0.044   2.420
14399W        W79626   5.223  16.994   5.320
14400W        W79627  22.196  43.890   3.668
14401W        W79628  38.511  14.044  12.952
14402W        W79629  21.834  19.020   4.579
14403W        W79630   9.248  31.933   3.722
14404W        W79631  38.091  44.331  11.172
14405W        W79632   1.126  21.563   0.536
14406W        W79633  30.102   0.535  14.436
14407W        W79634  34.054  42.013   2.095
14408W        W79635  12.587   4.901   4.128
14409W        W79636  40.728  23.266   3.852
14410W        W79637  37.382  42.863   3.621
14411W        W79638  34.436  12.234   0.728
14412W        W79639  16.775  34.123   5.123
14413W        W79640  13.717  18.283  11.548
14414W        W79641   3.802  34.327   0.004
14415W        W79642  19.585  20.894   3.630
14416W        W79643  33.553  21.173  10.791
14417W        W79644  12.864  13.045   0.327
14418W        W79645  38.141  28.585   1.435
14419W        W79646  13.549  15.857   1.729
14420W        W79647  22.618  25.615  14.368
14421W        W79648  11.247   5.959  13.454
14422W        W79649  42.382   0.407   0.862
14423W        W79650   0.275   1.468  13.595
14424W        W79651  14.248  38.150  12.573
14425W        W79652  34.087  11.272   3.237
14426W        W79653  31.588  18.003   2.326
14427W        W79654  32.512  11.691  13.079
14428W        W79655  29.686  43.450   1.916
14429W        W79656  12.186   5.841   4.402
14430W        W79657  32.921  40.396  14.456
14431W        W79658  32.006  28.747  14.282
14432W        W79659  15.319  38.107   0.886
14433W        W79660  35.048  16.035  13.893
14434W        W79661   3.510   9.053   3.855
14435W        W79662  21.357  21.012  12.521
14436W        W79663  28.946  20.182   1.693
14437W        W79664  44.513  44.625  11.467
14438W        W79665   8.925   1.708   3.758
14439W        W79666   0.816  20.657   0.386
14440W        W79667  15.604  19.635  11.237
14441W        W79668  41.203  15.612   0.751
14442W        W79669  24.214  29.682  11.412
14443W        W79670  15.135   6.596  14.954
14444W        W79671  23.245   5.706   4.673
14445W        W79672  39.164  26.618   2.782
14446W        W79673   0.381  19.519  13.451
14447W        W79674  27.068  17.624   4.158
14448W        W79675  19.224  26.855  13.300
14449W        W79676  35.725  44.337  12.480
14450W        W79677   2.876   2.758   0.868
14451W        W79678  28.480  16.331  13.267
14452W        W79679   1.307  13.943   4.348
14453W        W79680   6.191  18.108  12.049
14454W        W79681  10.288  20.151   2.824
14455W        W79682  13.538  19.877   1.736
14456W        W79683  13.701  16.313   0.771
14457W        W79684  25.498   3.978   2.748
14458W        W79685  23.477   1.256  13.348
14459W        W79686  40.182  19.674   4.857
14460W        W79687   5.402  41.486   4.205
14461W        W79688  26.188  14.331  14.760
14462W        W79689  32.156   5.684   2.537
14463W        W79690  13.459  31.681  11.331
14464W        W79691   2.422   4.945   0.526
14465W        W79692   8.201  35.790  14.032
14466W        W79693   9.604  27.494   3.729
14467W        W79694  25.247  24.081   4.206
14468W        W79695   3.250  43.012   2.792
14469W        W79696  41.754  34.584   0.353
14470W        W79697  14.712  24.039  12.937
14471W        W79698  36.072  21.286   3.252
14472W        W79699   3.132  35.080   1.853
14473W        W79700  36.902   2.544   2.071
14474W        W79701  21.937  30.497   1.820
14475W        W79702   7.353  25.406   0.205
14476W        W79703  12.346   2.928  13.865
14477W        W79704  10.361  34.580  13.912
14478W        W79705   6.660  43.679   9.938
14479W        W79706  20.968   9.730   0.165
14480W        W79707  16.008  31.121   0.728
14481W        W79708  20.889  16.105   0.658
14482W        W79709  44.231   0.887  12.967
14483W        W79710  25.077  31.590  13.849
14484W        W79711  42.878   3.578  12.422
14485W        W79712  23.600   1.876  14.840
14486W        W79713   7.248  39.744   4.493
14487W        W79714  12.869  38.347   1.208
14488W        W79715  20.171  27.038  12.856
14489W        W79716  11.667   1.185   2.215
14490W        W79717  33.934  44.465   0.779
14491W        W79718   3.414  11.775  10.466
14492W        W79719   2.764  11.890   4.645
14493W        W79720  13.062  27.718   4.995
14494W        W79721  15.993  40.948   5.037
14495W        W79722  43.739  19.782   2.707
14496W        W79723  43.547  39.073  10.771
14497W        W79724  24.615   1.895   0.496
14498W        W79725  22.403  17.522   3.271
14499W        W79726  16.602  15.559  13.892
14500W        W79727  32.470  33.872   3.886
14501W        W79728   9.358  12.770   3.597
14502W        W79729  37.512  25.620   1.009
14503W        W79730  33.922  11.832  13.513
14504W        W79731  29.263   2.278   3.673
14505W        W79732  36.623  13.653   4.585
14506W        W79733  25.760   9.147  11.978
14507W        W79734   4.053  26.145  12.416
14508W        W79735  30.413  43.438  12.007
14509W        W79736  32.406  35.583   0.830
14510W        W79737  18.336  22.520  13.370
14511W        W79738  16.799  10.649  12.600
14512W        W79739  41.119   4.473   0.809
14513W        W79740  22.381  17.071   2.314
14514W        W79741  32.772  15.174  11.835
14515W        W79742  21.793   1.911  13.569
14516W        W79743  15.672  34.886   4.661
14517W        W79744  15.894  27.210   0.824
14518W        W79745   9.824  37.281  13.769
14519W        W79746  23.716  38.326  11.567
14520W        W79747  17.236  43.870  10.839
14521W        W79748   5.165   7.647   2.772
14522W        W79749   3.861  10.202  13.862
14523W        W79750  38.340  29.340  14.426
14524W        W79751   6.683   3.891  13.191
14525W        W79752  34.192  27.448  11.052
14526W        W79753  14.676  32.562   4.569
14527W        W79754  35.415  15.103   3.810
14528W        W79755  28.817  28.498  13.224
14529W        W79756   8.003   1.859   0.890
14530W        W79757  33.332  12.528   3.209
14531W        W79758   5.439   3.421   2.969
14532W        W79759  15.164  29.065  11.107
14533W        W79760  39.852  19.351   4.566
14534W        W79761  41.122  32.374   3.235
14535W        W79762  39.611  19.200  13.220
14536W        W79763  34.936  41.490  14.488
14537W        W79764  11.356  18.862   0.294
14538W        W79765  30.396  24.131   1.903
14539W        W79766  29.390  37.575  12.681
14540W        W79767   4.357  22.722   3.772
14541W        W79768  25.478  13.275  11.028
14542W        W79769  18.058  15.553   3.746
14543W        W79770  37.530  25.960  14.416
14544W        W79771  40.314  37.550  13.972
14545W        W79772  24.449  19.626   1.895
14546W        W79773  11.487  30.249  12.966
14547W        W79774  22.532  30.635  14.401
14548W        W79775  19.831  14.856   2.452
14549W        W79776  13.753  16.859   4.283
14550W        W79777  43.500  32.976  13.921
14551W        W79778  22.279   4.193  13.811
14552W        W79779   0.768   8.803   3.639
14553W        W79780  11.689  12.353   2.814
14554W        W79781   2.774  18.722   2.618
14555W        W79782  11.248   1.319  14.852
14556W        W79783  42.957  30.016  11.627
14557W        W79784  38.301  28.184  13.984
14558W        W79785   7.454   9.120   2.153
14559W        W79786  28.803   4.900   4.206
14560W        W79787  37.831  31.340   3.290
14561W        W79788  33.274  31.454  14.896
14562W        W79789  31.712  24.280   4.721
14563W        W79790   4.614  17.346   0.967
14564W        W79791  38.526  10.427  13.022
14565W        W79792  35.347  38.096  11.067
14566W        W79793  16.589   6.181   1.444
14567W        W79794  11.018  30.882   3.211
14568W        W79795   9.706  36.948   2.408
14569W        W79796   9.791  14.131   1.430
14570W        W79797  41.736  34.431  11.638
14571W        W79798   0.268   7.183  14.426
14572W        W79799   0.371   1.331  14.097
14573W        W79800   3.872   5.137  10.158
14574W        W79801   8.888  29.699   2.270
14575W        W79802  36.907  30.282   4.110
14576W        W79803   0.437   1.838   2.439
14577W        W79804  10.649  30.561   3.049
14578W        W79805  17.951  33.906   4.241
14579W        W79806  10.842   9.744  14.488
14580W        W79807   4.697  18.009   2.722
14581W        W79808   0.221  17.355  12.394
14582W        W79809  14.828   7.726  14.111
14583W        W79810  33.376  37.911  14.621
14584W        W79811  20.558  37.829   0.780
14585W        W79812  18.672  14.197   5.427
14586W        W79813  12.401  44.232   0.462
14587W        W79814  40.343  21.187  13.434
14588W        W79815  28.740   4.782   2.787
14589W        W79816  27.841  28.154  13.434
14590W        W79817  21.078  34.622  10.768
14591W        W79818  11.087   1.255  13.082
14592W        W79819  36.607  11.337  13.397
14593W        W79820  14.258   0.856   0.329
14594W        W79821  20.293  42.185  12.108
14595W        W79822   3.019  20.127  11.111
14596W        W79823  14.306  32.950   1.796
14597W        W79824  26.641   7.640  12.091
14598W        W79825  30.485  35.121   3.359
14599W        W79826  22.597   2.375  14.953
14600W        W79827  44.431  32.738   4.306
14601W        W79828  28.200   1.678  13.471
14602W        W79829  12.262  40.041  12.606
14603W        W79830  35.871  36.099  14.349
14604W        W79831  26.146   7.377  10.853
14605W        W79832  37.382  27.564  14.290
14606W        W79833   3.748  32.594  13.344
14607W        W79834  21.175  27.221   4.563
14608W        W79835  20.745  37.801   3.341
14609W        W79836  35.973  24.393   3.685
14610W        W79837  43.523  44.154  14.029
14611W        W79838  44.754   8.803  14.374
14612W        W79839  14.340   0.237  11.627
14613W        W79840  26.011   0.717   5.593
14614W        W79841  15.409  34.589  11.090
14615W        W79842  10.957   5.395   2.856
14616W        W79843   9.907   1.726  12.575
14617W        W79844  34.676  38.671   2.150
14618W        W79845  10.903  30.593  11.102
14619W        W79846  34.310   3.309  13.856
14620W        W79847  10.810  43.339  11.694
14621W        W79848  35.085  38.350  10.689
14622W        W79849  13.295  31.610  10.825
14623W        W79850  14.591  19.975  11.188
14624W        W79851  39.849  25.834   3.081
14625W        W79852  34.587  11.678   0.805
14626W        W79853  13.215  36.502   1.354
14627W        W79854  42.288  25.639  12.837
14628W        W79855  37.826   7.554  10.910
14629W        W79856  21.989   5.363   0.862
14630W        W79857  40.474  28.159  12.608
14631W        W79858  29.429  43.862   1.725
14632W        W79859   4.893  14.531   0.238
14633W        W79860  24.073  22.988  10.619
14634W        W79861  38.920  41.709   3.175
14635W        W79862  20.901  26.762  14.187
14636W        W79863  43.890   8.651  14.458
14637W        W79864  25.673  10.595   1.791
14638W        W79865   7.224  29.045  12.459
14639W        W79866   3.417   8.659  13.038
14640W        W79867  39.096   8.732  14.345
14641W        W79868   2.974  29.740  12.031
14642W        W79869  10.667   1.897  14.889
14643W        W79870  39.661  17.845  12.992
14644W        W79871  35.162  38.690  13.148
14645W        W79872   4.344  12.679   0.403
14646W        W79873  37.771  23.047  12.549
14647W        W79874   2.058  22.983  11.947
14648W        W79875  12.649  19.338  10.682
14649W        W79876  12.929  31.126   2.021
14650W        W79877  12.974  35.929   1.688
14651W        W79878  26.106   0.968  12.680
14652W        W79879  10.670  33.267  11.299
14653W        W79880  19.811  30.637   4.895
14654W        W79881  15.686  38.823  14.114
14655W        W79882   0.362  35.069  14.070
14656W        W79883   7.451  22.909  14.714
14657W        W79884  17.405   6.728  13.702
14658W        W79885   0.467  38.077  12.156
14659W        W79886  32.581  26.754   3.262
14660W        W79887  22.995  14.661  10.650
14661W        W79888  31.021  39.804   0.414
14662W        W79889   1.500  14.408  11.295
14663W        W79890  37.320  13.183   0.215
14664W        W79891   4.661  40.395  14.707
14665W        W79892   5.849  34.788  12.932
14666W        W79893  20.826  38.070  14.001
14667W        W79894  37.047  28.644   4.658
14668W        W79895  13.236   7.736   3.773
14669W        W79896  38.887  22.676  10.524
14670W        W79897  29.127  41.463  11.902
14671W        W79898  28.650  30.009   3.721
14672W        W79899   0.061   1.342   4.549
14673W        W79900  19.236  14.476   3.834
14674W        W79901  32.400  28.111   2.739
14675W        W79902  13.622  17.790   0.849
14676W        W79903   9.592  31.712   2.272
14677W        W79904  18.160  33.990   0.343
14678W        W79905   5.674   6.308   3.274
14679W        W79906  42.835  20.877   5.017
14680W        W79907  39.431  37.459  13.975
14681W        W79908   1.244  14.328   2.336
14682W        W79909  18.511  40.024  12.870
14683W        W79910  41.262  42.167  14.457
14684W        W79911   5.232   6.060   5.029
14685W        W79912  20.573  22.712  10.788
14686W        W79913  38.164  13.994   1.823
14687W        W79914  35.927  32.164  13.661
14688W        W79915  29.099  30.385   2.377
14689W        W79916  30.559  31.892  13.200
14690W        W79917  36.435  14.169   4.466
14691W        W79918  23.738  28.722  11.083
14692W        W79919   9.391  30.614   2.253
14693W        W79920  33.636  21.961   2.492
14694W        W79921  41.466  38.347  12.415
14695W        W79922  38.826   3.768  14.620
14696W        W79923  15.294  24.289   4.059
14697W        W79924  20.595  43.216  10.414
14698W        W79925  10.313  17.339   1.235
14699W        W79926  13.158  21.864   4.666
14700W        W79927  28.981  32.554   0.352
14701W        W79928  19.467  25.672   1.476
14702W        W79929   2.620  18.242   3.288
14703W        W79930  22.119  26.082   2.192
14704W        W79931  42.000  30.816   4.816
14705W        W79932  24.990  39.008   2.446
14706W        W79933  22.486  36.812  12.387
14707W        W79934  40.012  13.657   0.514
14708W        W79935   7.535   5.338   4.178
14709W        W79936   3.618  40.009  12.664
14710W        W79937  38.887  30.246   0.099
14711W        W79938  27.109  37.372  13.433
14712W        W79939   3.429  32.845  12.572
14713W        W79940   9.095  40.932  13.911
14714W        W79941  19.076  13.041  12.960
14715W        W79942  25.464   4.469   1.413
14716W        W79943   6.756  32.911  11.452
14717W        W79944  35.273  27.357   4.780
14718W        W79945  17.524   9.934  12.950
14719W        W79946  14.310  33.409  12.488
14720W        W79947  33.832  35.242  13.925
14721W        W79948  17.079  39.062  12.508
14722W        W79949  34.523  37.831   1.377
14723W        W79950  34.142  23.593   3.453
14724W        W79951  12.234  39.137  11.272
14725W        W79952  30.802  17.399  10.277
14726W        W79953  25.407  38.897  13.566
14727W        W79954  15.575  24.652  12.499
14728W        W79955   7.846  41.273  10.668
14729W        W79956  30.097  24.377   0.312
14730W        W79957  19.332  22.537  11.183
14731W        W79958  31.211  31.190  13.260
14732W        W79959  32.437   6.565  11.791
14733W        W79960  22.245   5.288  11.991
14734W        W79961  36.111  24.215  12.877
14735W        W79962  43.507  30.908   1.877
14736W        W79963  27.693   0.951  12.610
14737W        W79964  30.962  42.452   2.446
14738W        W79965  24.582  28.070   2.758
14739W        W79966   5.317  38.460  13.091
14740W        W79967   0.759  39.302  10.567
14741W        W79968  25.117  25.727   3.421
14742W        W79969  22.735   4.374   0.243
14743W        W79970  30.213  28.156  13.486
14744W        W79971  38.438  16.303   3.438
14745W        W79972  40.864  26.125  14.216
14746W        W79973   0.496  17.026   4.662
14747W        W79974  23.768  13.345   3.674
14748W        W79975  40.389  11.069  11.161
14749W        W79976  11.486   2.687  14.959
14750W        W79977   6.727  33.422   1.824
14751W        W79978  22.603  28.763   1.286
14752W        W79979  14.004  13.900  13.934
14753W        W79980  18.778  34.308   3.840
14754W        W79981  42.916  27.897  10.401
14755W        W79982   0.183   6.878   2.669
14756W        W79983  31.573   7.194   2.188
14757W        W79984   1.885  22.738   1.195
14758W        W79985  40.067  39.224  13.786
14759W        W79986   6.972  15.771   2.292
14760W        W79987  30.152  25.629   0.978
14761W        W79988  12.749   0.931   0.262
14762W        W79989  39.646  35.416  12.177
14763W        W79990   0.695  43.352   1.334
14764W        W79991  30.410  24.455   1.469
14765W        W79992  26.949  31.214  10.647
14766W        W79993  10.560  24.493   3.855
14767W        W79994  30.190  22.753  13.259
14768W        W79995  38.360  25.655   0.374
14769W        W79996  44.294  39.324   2.234
14770W        W79997  14.215  43.009  13.994
14771W        W79998  11.825  18.170   0.732
14772W        W79999  44.828  14.548   0.844
14773W        W80000  25.552   6.219   0.281
14774W        W80001  34.868   0.744   1.669
14775W        W80002  34.125  44.553   0.228
14776W        W80003  23.192  24.203   3.763
14777W        W80004   6.669  43.630  11.664
14778W        W80005  16.566  19.598  12.480
14779W        W80006  15.051  44.919   1.745
14780W        W80007  14.365  18.822  11.474
14781W        W80008  11.882  17.153  13.532
14782W        W80009  42.647  34.602   4.728
14783W        W80010  31.747   5.832   4.569
14784W        W80011  30.985  32.627  12.032
14785W        W80012  24.296   4.685  13.401
14786W        W80013  21.702  27.157  11.079
14787W        W80014  36.575  27.708   2.429
14788W        W80015  30.416  32.642  12.550
14789W        W80016  39.423  30.600  10.899
14790W        W80017  17.167  26.740   1.675
14791W        W80018  22.137  28.149   2.341
14792W        W80019  13.661  22.161  12.418
14793W        W80020  40.858  23.553   4.459
14794W        W80021  21.534  17.539  12.712
14795W        W80022  34.200  22.284   0.229
14796W        W80023  26.457  38.129   2.904
14797W        W80024  21.134  39.379  14.887
14798W        W80025   4.808  42.854   2.771
14799W        W80026  38.614  13.205  12.952
14800W        W80027  11.913   4.814   0.801
14801W        W80028  11.735  23.875  11.500
14802W        W80029   2.621  37.670   1.293
14803W        W80030  37.867   3.305   0.390
14804W        W80031  18.770  19.698   1.692
14805W        W80032  17.547   1.824  10.468
14806W        W80033   4.245  29.863   2.702
14807W        W80034  36.149  27.882   0.969
14808W        W80035  42.889  41.737  14.627
14809W        W80036   9.668  17.276   4.158
14810W        W80037  35.870  34.505   2.156
14811W        W80038  35.663  29.645   0.232
14812W        W80039   4.420   3.464   1.131
14813W        W80040  18.766  24.110   3.362
14814W        W80041   4.774   6.698   9.735
14815W        W80042  43.177  10.758   0.914
14816W        W80043  23.079  38.437   1.817
14817W        W80044  31.957  30.690   2.996
14818W        W80045  36.479  23.688   0.754
14819W        W80046   5.814  11.205   1.033
14820W        W80047  30.955  28.976   2.931
14821W        W80048  32.158  41.365  11.969
14822W        W80049  17.539   3.301   4.113
14823W        W80050   3.475  37.479   3.759
14824W        W80051  33.106  13.566   1.355
14825W        W80052  33.036   9.416   4.194
14826W        W80053   0.883  40.199  11.492
14827W        W80054  24.649  17.780  11.216
14828W        W80055   4.757  34.936   4.600
14829W        W80056  41.672   4.025  11.164
14830W        W80057  21.107  37.453  12.367
14831W        W80058  36.555  39.584  12.531
14832W        W80059  23.076   8.696  13.391
14833W        W80060  31.894  44.830   1.261
14834W        W80061  40.944  39.694  14.494
14835W        W80062  12.332  23.277  14.052
14836W        W80063   1.381  19.072  11.176
14837W        W80064  26.098  25.826  14.972
14838W        W80065  38.870  32.994   2.163
14839W        W80066  15.147   4.653  13.854
14840W        W80067  10.529   9.726   2.751
14841W        W80068  10.240  33.889  14.790
14842W        W80069  18.603  31.099   4.147
14843W        W80070   6.022  28.207   4.623
14844W        W80071  13.276  30.263  12.510
14845W        W80072  17.234  15.716   1.778
14846W        W80073   4.474   4.674   4.509
14847W        W80074  36.273  44.363   0.792
14848W        W80075   3.025  26.687   2.327
14849W        W80076   1.902  28.676   2.213
14850W        W80077  31.511  13.531  12.159
14851W        W80078  23.267   3.254   3.039
14852W        W80079   6.236  18.068  14.082
14853W        W80080  43.345  33.167  11.474
14854W        W80081  16.113  34.034   2.910
14855W        W80082  30.918  33.038  11.199
14856W        W80083  26.004   2.074  14.014
14857W        W80084   6.221   0.854   1.361
14858W        W80085   9.800  19.901   4.917
14859W        W80086  37.970  33.510   0.340
14860W        W80087  27.074  41.964   3.698
14861W        W80088  17.140  40.572   1.811
14862W        W80089  12.291  12.040   3.388
14863W        W80090  17.014  42.690  14.348
14864W        W80091   0.535  25.167   3.117
14865W        W80092  43.454  22.153   1.191
14866W        W80093   4.231  11.954   4.179
14867W        W80094  37.328  38.551  11.996
14868W        W80095   4.975   6.161   3.840
14869W        W80096   4.324  38.903  13.564
14870W        W80097  32.582  18.306   3.168
14871W        W80098  17.072  42.864  12.505
14872W        W80099  17.260  31.711   4.389
14873W        W80100  31.029  44.257  11.075
14874W        W80101  19.703  13.775  13.922
14875W        W80102  11.829  14.659  12.154
14876W        W80103  34.597  12.809   0.037
14877W        W80104  44.917   0.034  14.249
14878W        W80105  29.656  36.844   1.861
14879W        W80106   2.308   4.969  12.161
14880W        W80107  41.776  44.453  10.726
14881W        W80108  21.774   3.679  10.738
14882W        W80109  31.760  35.333   1.626
14883W        W80110  17.176  37.012   2.778
14884W        W80111   0.153  18.653  13.314
14885W        W80112  34.972  37.387  10.801
14886W        W80113  13.667  19.855  13.363
14887W        W80114  30.934  31.413   0.897
14888W        W80115  22.059  18.080  14.556
14889W        W80116  34.461  10.370  10.755
14890W        W80117  33.049  20.040  14.140
14891W        W80118  20.968   3.555  11.960
14892W        W80119  14.359  37.414  12.946
14893W        W80120  30.464  29.265   4.719
14894W        W80121   5.163  42.311  12.146
14895W        W80122  42.078   1.735   3.019
14896W        W80123  11.438   7.714   3.910
14897W        W80124  17.135  36.008  14.024
14898W        W80125   3.325  19.497   3.727
14899W        W80126  39.661   6.702   1.543
14900W        W80127   3.936  13.701  10.722
14901W        W80128  29.618  34.557   4.258
14902W        W80129  16.133  33.588   3.661
14903W        W80130  42.826  15.717  11.501
14904W        W80131   0.164  26.634   1.441
14905W        W80132   6.880  31.658   4.934
14906W        W80133  43.009   7.835   3.812
14907W        W80134  40.577  22.891  12.049
14908W        W80135  43.972   9.580  14.299
14909W        W80136  35.577   8.840  11.614
14910W        W80137  20.113   7.126   4.186
14911W        W80138  26.271   8.837   2.626
14912W        W80139  36.900  40.614   0.909
14913W        W80140  34.846  27.571   3.377
14914W        W80141  24.572  19.711  13.997
14915W        W80142   7.125   9.440   0.725
14916W        W80143  20.094  39.119   3.594
14917W        W80144  25.622   8.245  10.987
14918W        W80145  16.070  20.773  12.678
14919W        W80146  11.528  30.889   3.259
14920W        W80147  21.763   5.271  12.878
14921W        W80148  13.124   5.697   4.229
14922W        W80149  25.723   5.965  11.635
14923W        W80150   0.816  33.658  11.228
14924W        W80151  24.003  19.918  14.760
14925W        W80152  37.429  43.879   3.634
14926W        W80153  29.943  42.692  14.773
14927W        W80154  21.221  35.578  10.636
14928W        W80155   9.844  17.125   3.694
14929W        W80156  35.433   6.613  14.974
14930W        W80157  37.630  23.600  11.523
14931W        W80158   4.353  20.103   4.561
14932W        W80159  40.029  26.661  10.392
14933W        W80160  12.733   6.507  11.091
14934W        W80161  34.615  39.348  13.412
14935W        W80162  44.400   7.947  14.555
14936W        W80163  40.522  41.996   1.511
14937W        W80164  21.550  26.611  10.144
14938W        W80165   4.206  31.563   1.691
14939W        W80166  25.509  37.658  12.030
14940W        W80167  23.201  14.912   1.285
14941W        W80168   5.274  18.282   4.635
14942W        W80169   5.111  15.924   2.853
14943W        W80170  10.433  28.082  13.008
14944W        W80171   5.001  24.901   4.538
14945W        W80172   9.904  44.414  10.598
14946W        W80173  12.904  25.671   1.874
14947W        W80174   7.135  39.875  10.690
14948W        W80175  41.553  21.900  10.820
14949W        W80176   6.160  32.153   3.097
14950W        W80177  11.078  28.733   2.523
14951W        W80178  15.769  32.870  11.128
14952W        W80179   4.010  21.645  10.671
14953W        W80180  31.174   3.739   2.288
14954W        W80181  33.928  32.592   0.682
14955W        W80182  17.800  30.529  10.986
14956W        W80183  28.586  13.387  12.111
14957W        W80184  20.102   4.919  12.572
14958W        W80185  36.478  30.511   2.353
14959W        W80186  11.794   4.565  12.579
14960W        W80187  11.320  25.425   0.032
14961W        W80188  19.692  27.671   0.822
14962W        W80189  36.853  12.691   2.312
14963W        W80190   4.070   6.739  13.891
14964W        W80191  16.723  33.031   3.099
14965W        W80192  35.311  36.404   0.053
14966W        W80193  10.938  12.105  14.315
14967W        W80194  28.289  28.994   1.784
14968W        W80195  18.417  39.951  10.769
14969W        W80196  42.314   0.984  11.585
14970W        W80197  34.149  32.911  14.875
14971W        W80198   3.643  28.441   1.125
14972W        W80199   6.112  23.309   1.256
14973W        W80200  13.172  15.566  10.620
14974W        W80201  21.040  13.750   0.169
14975W        W80202  23.012  37.596   4.050
14976W        W80203  15.222  18.775   2.190
14977W        W80204   6.843  31.810  14.897
14978W        W80205  44.283  29.357   2.829
14979W        W80206   0.334  34.352  11.045
14980W        W80207  20.382   5.002   2.730
14981W        W80208  25.095  17.085   3.114
14982W        W80209  39.837  35.948   2.870
14983W        W80210  22.547   9.798   0.221
14984W        W80211  39.506  16.402   2.860
14985W        W80212  12.323  26.476   1.891
14986W        W80213  19.189  10.727   1.715
14987W        W80214  29.046  36.693   5.806
14988W        W80215  39.867  44.367  12.900
14989W        W80216  10.822  36.609   1.739
14990W        W80217  27.616  27.191   5.875
14991W        W80218  10.602  21.154  13.019
14992W        W80219  28.888   4.939  11.497
14993W        W80220  35.918  32.400  12.277
14994W        W80221   5.288   2.730  11.860
14995W        W80222  41.940  36.829  10.850
14996W        W80223   5.175  21.853  12.825
14997W        W80224   0.737  12.860   0.453
14998W        W80225   5.438  26.188  11.013
14999W        W80226   0.280   7.482  14.893
15000W        W80227  35.391  16.737  13.510
15001W        W80228   8.221   9.386  12.011
15002W        W80229  44.037  11.419   2.320
15003W        W80230  20.256   5.680   3.636
15004W        W80231  18.368  15.841  14.369
15005W        W80232  24.605  16.305   0.568
15006W        W80233  41.545  41.464  10.670
15007W        W80234   8.596  10.273   0.273
15008W        W80235  29.201  27.593   0.129
15009W        W80236  38.592  14.794   1.255
15010W        W80237   3.986   1.236  13.749
15011W        W80238   2.816   3.378  13.386
15012W        W80239  26.050  31.257  10.787
15013W        W80240  14.516   8.587  12.020
15014W        W80241  41.581  10.385   0.940
15015W        W80242  27.859  23.096  10.674
15016W        W80243   8.853  43.828  11.107
15017W        W80244  15.589  15.270  14.777
15018W        W80245  37.344  26.034  10.700
15019W        W80246  14.320  34.270  10.673
15020W        W80247  15.184  33.776   5.236
15021W        W80248  20.308  38.202   3.746
15022W        W80249  31.200   7.321   4.074
15023W        W80250   1.075  14.627  14.042
15024W        W80251   5.660  25.442   0.524
15025W        W80252  28.127   3.875   0.789
15026W        W80253  31.819  34.111  11.608
15027W        W80254  35.864   7.470  10.765
15028W        W80255  23.697  11.099   4.078
15029W        W80256  14.797   4.558  12.537
15030W        W80257  28.544  32.827  14.927
15031W        W80258   7.888  11.274  14.423
15032W        W80259  15.814  28.231  11.099
15033W        W80260  41.825  27.209   1.457
15034W        W80261   1.204  25.956  10.915
15035W        W80262  26.127  33.296   0.937
15036W        W80263  44.736  30.895   1.299
15037W        W80264   0.710   9.321   1.747
15038W        W80265   8.884  42.466   4.265
15039W        W80266  28.414   8.429  14.300
15040W        W80267  42.756  26.113   4.945
15041W        W80268   1.917  25.496   3.197
15042W        W80269  25.067  41.276  12.492
15043W        W80270  32.459  25.683   4.797
15044W        W80271  10.665  13.721   1.672
15045W        W80272   0.288   2.334   2.246
15046W        W80273   4.630  30.603  14.786
15047W        W80274  42.759  41.766   4.044
15048W        W80275  31.192  28.408  11.533
15049W        W80276   2.740  16.733   1.606
15050W        W80277  31.017  44.999   2.234
15051W        W80278   9.714  20.390   2.920
15052W        W80279  24.680  21.663   3.163
15053W        W80280  38.618  34.925  10.819
15054W        W80281  17.769  27.513  10.577
15055W        W80282  40.951  41.058  11.616
15056W        W80283   7.710  10.070  10.699
15057W        W80284  38.374  34.618  12.016
15058W        W80285  24.416  17.261  11.210
15059W        W80286  41.029  33.900   2.814
15060W        W80287  30.833  10.303   4.800
15061W        W80288  38.579   5.843   0.572
15062W        W80289  15.127  17.552  14.462
15063W        W80290  29.364  20.057  10.684
15064W        W80291  26.386   4.694   2.016
15065W        W80292  18.049   2.450   2.757
15066W        W80293   6.205  30.464   2.058
15067W        W80294  27.216  41.530  13.252
15068W        W80295  22.085   6.914  14.041
15069W        W80296  19.659  28.141  14.508
15070W        W80297  42.035  39.048   1.310
15071W        W80298  33.419  19.742  13.447
15072W        W80299  35.198  27.531  11.116
15073W        W80300  13.544  20.103   1.000
15074W        W80301   1.954  30.899   2.726
15075W        W80302  42.903  12.513  10.827
15076W        W80303  16.818  13.276  12.933
15077W        W80304  32.436  19.805  11.422
15078W        W80305  11.654   6.962   2.267
15079W        W80306  14.002  16.107   1.919
15080W        W80307  38.098   8.710   2.956
15081W        W80308  44.680  20.227   0.545
15082W        W80309  17.168  12.752   0.503
15083W        W80310  29.119  33.858  13.530
15084W        W80311   5.923  44.751  14.860
15085W        W80312  27.594  41.349  11.944
15086W        W80313  23.929   5.338   4.094
15087W        W80314  32.181  11.644   2.798
15088W        W80315  10.728   6.804  13.064
15089W        W80316   3.711  20.092   3.402
15090W        W80317  33.072  29.204  10.758
15091W        W80318  29.096  16.224  13.403
15092W        W80319   7.452  28.003   1.817
15093W        W80320   2.079  22.563  12.253
15094W        W80321  28.607  36.871   0.955
15095W        W80322  10.910   2.180   0.885
15096W        W80323  19.664  43.576   4.460
15097W        W80324   7.721  30.967   0.518
15098W        W80325  37.939   3.971  13.039
15099W        W80326  31.233  26.139   1.565
15100W        W80327  13.094  23.104   0.759
15101W        W80328  42.489  18.588  13.138
15102W        W80329  29.989  43.919   3.052
15103W        W80330  32.927  19.255  11.517
15104W        W80331  18.559  24.856  14.291
15105W        W80332  37.340   9.107   3.167
15106W        W80333   5.119   7.763   4.532
15107W        W80334  37.025  27.472   2.211
15108W        W80335   3.884  20.888   4.589
15109W        W80336  13.678  32.095   5.004
15110W        W80337   7.719   6.619   1.473
15111W        W80338  34.590   1.790  13.327
15112W        W80339  37.976  31.606  10.729
15113W        W80340  21.072   1.342   1.996
15114W        W80341  28.576  38.296  11.958
15115W        W80342   2.224  13.645   0.473
15116W        W80343  27.920  28.999   2.602
15117W        W80344  20.791  16.167   1.924
15118W        W80345  19.535   1.895   0.711
15119W        W80346  41.868  25.768  12.543
15120W        W80347  21.961  17.580  14.361
15121W        W80348  44.417  42.369   2.882
15122W        W80349  19.117   4.271  14.065
15123W        W80350  13.179  37.059  12.947
15124W        W80351  30.578  38.519   0.513
15125W        W80352  29.035  32.849   4.164
15126W        W80353  16.763   0.322   0.459
15127W        W80354  25.480  27.571   1.581
15128W        W80355  29.944  15.791  12.740
15129W        W80356  13.596  35.358   3.696
15130W        W80357  28.967  31.833  14.371
15131W        W80358  25.260   4.497  13.725
15132W        W80359   0.165  42.588  11.085
15133W        W80360  23.110   4.891  10.711
15134W        W80361  14.577  35.882  12.603
15135W        W80362   1.908  41.845   0.444
15136W        W80363  24.254   5.424   1.302
15137W        W80364   6.399  25.024   4.540
15138W        W80365  33.591   4.978  11.185
15139W        W80366  20.763  30.334  10.737
15140W        W80367  38.036   2.996  13.888
15141W        W80368  43.475  41.180   2.824
15142W        W80369   1.680  11.688  11.283
15143W        W80370  22.678  18.047   1.468
15144W        W80371  43.989  18.095  12.671
15145W        W80372  13.817   2.682  12.567
15146W        W80373  39.511  18.543  14.343
15147W        W80374  24.621  25.409   3.782
15148W        W80375   3.505   0.550  10.699
15149W        W80376  18.464  42.413   2.996
15150W        W80377  32.465  28.532  13.460
15151W        W80378  25.117  40.812   3.204
15152W        W80379  41.482  26.726  12.624
15153W        W80380   1.239  21.201   3.104
15154W        W80381  37.637   6.523  11.983
15155W        W80382  10.752   9.155  12.699
15156W        W80383  39.338  15.300  14.785
15157W        W80384   4.357  39.559  14.006
15158W        W80385  36.418  35.970  14.469
15159W        W80386  22.961  36.358  11.532
15160W        W80387  10.065  36.550   4.565
15161W        W80388  26.218  31.040   3.859
15162W        W80389  25.658   1.172  14.348
15163W        W80390   0.133  28.573   2.650
15164W        W80391  26.499  43.192  12.163
15165W        W80392   7.341   3.764  12.481
15166W        W80393   5.031  28.727   2.730
15167W        W80394  12.476  17.282   9.936
15168W        W80395  18.637   9.018  12.486
15169W        W80396  44.987  19.027   1.233
15170W        W80397  41.024  16.774   2.107
15171W        W80398  30.647  17.954  11.339
15172W        W80399   5.621  13.210  12.350
15173W        W80400   0.979  41.812   4.242
15174W        W80401  12.876  29.993  12.314
15175W        W80402  33.944  15.685   4.797
15176W        W80403  12.835  13.526  12.273
15177W        W80404  18.805   5.210   1.341
15178W        W80405  29.626  39.352  11.338
15179W        W80406  20.414  10.582   1.132
15180W        W80407  37.907  12.275   2.877
15181W        W80408  41.325  39.915  12.526
15182W        W80409  15.037   9.950  13.923
15183W        W80410   2.779  17.571  11.141
15184W        W80411  37.662  21.291   0.359
15185W        W80412   8.066   2.819  10.516
15186W        W80413  19.246   8.641  13.575
15187W        W80414  42.474  25.971   1.647
15188W        W80415  38.482  34.571  13.344
15189W        W80416   3.407  24.447   3.295
15190W        W80417  18.849   4.273   4.488
15191W        W80418  41.971  27.968  13.856
15192W        W80419  17.076  24.169  14.265
15193W        W80420  31.130   4.413  10.457
15194W        W80421  28.860   5.224  14.660
15195W        W80422   4.302  44.520  13.431
15196W        W80423   7.068   8.002  11.663
15197W        W80424  40.770   1.421  11.727
15198W        W80425  28.925   2.425   0.338
15199W        W80426   5.420  21.040   3.258
15200W        W80427  11.811  13.877  10.315
15201W        W80428  36.936  18.069   1.182
15202W        W80429   4.286  15.560   3.818
15203W        W80430  21.769  15.737  13.983
15204W        W80431  43.756  10.233  14.864
15205W        W80432  26.679  40.809   3.201
15206W        W80433   1.896  41.321  14.760
15207W        W80434   9.568  22.176  11.715
15208W        W80435  25.141  16.844  13.980
15209W        W80436  24.983  29.120   1.230
15210W        W80437  14.735  14.009   0.314
15211W        W80438  19.104  15.537  12.545
15212W        W80439  29.509  29.886  11.521
15213W        W80440  32.922   5.382   2.752
15214W        W80441  14.479  16.219   1.289
15215W        W80442  18.393  22.340  13.850
15216W        W80443  31.950  25.599   1.223
15217W        W80444  23.522  35.399   4.360
15218W        W80445  13.751   1.205  12.885
15219W        W80446  33.390  44.546   3.743
15220W        W80447  43.294  43.051   3.687
15221W        W80448  43.403  41.169   0.812
15222W        W80449   9.048  11.293   2.085
15223W        W80450  21.075  13.171  11.051
15224W        W80451  27.671  39.827  11.498
15225W        W80452  41.868   0.958  14.274
15226W        W80453  44.696  10.804   2.231
15227W        W80454   6.806  15.405  12.971
15228W        W80455  35.064  38.842  10.540
15229W        W80456  29.173  25.728   2.968
15230W        W80457  36.719  39.010   1.865
15231W        W80458  24.095  25.679   0.452
15232W        W80459  37.928  43.953  13.957
15233W        W80460  41.397  33.771   2.205
15234W        W80461  26.082  30.124  13.978
15235W        W80462  30.524  26.381  11.154
15236W        W80463  22.313  38.898   0.518
15237W        W80464  25.613  31.006   0.486
15238W        W80465  12.029   3.605  11.207
15239W        W80466   6.573  35.398   1.863
15240W        W80467   7.701  31.365  11.261
15241W        W80468  39.671  12.913   3.906
15242W        W80469  31.143  44.003  13.101
15243W        W80470   2.024  22.599   2.062
15244W        W80471  33.162  24.661   2.780
15245W        W80472  32.177   1.013  11.986
15246W        W80473  32.127  22.308   0.907
15247W        W80474  13.808   8.334   1.935
15248W        W80475  12.130  25.496  11.663
15249W        W80476  26.140  32.868  12.949
15250W        W80477   7.881   8.595  10.818
15251W        W80478   5.666  39.920   2.755
15252W        W80479  34.035  26.092  10.150
15253W        W80480   1.167   0.040  14.949
15254W        W80481  16.601  25.469  11.457
15255W        W80482  18.003   8.877  11.404
15256W        W80483  20.598  30.487   1.629
15257W        W80484  42.222  12.706  10.506
15258W        W80485   1.666  32.774   4.166
15259W        W80486  14.556  10.870  14.350
15260W        W80487  34.614  38.200   2.843
15261W        W80488   6.878   4.765  14.898
15262W        W80489   9.287   4.816   4.089
15263W        W80490  35.418  43.642   1.333
15264W        W80491  39.875  14.679   1.395
15265W        W80492   0.263   9.387  14.922
15266W        W80493  28.669   6.423   3.757
15267W        W80494  30.957  35.590   4.677
15268W        W80495   5.437   6.815   4.459
15269W        W80496   8.273   3.539   2.900
15270W        W80497  33.921  29.245  12.515
15271W        W80498  42.710  19.467   3.443
15272W        W80499  22.472  18.182   1.931
15273W        W80500  32.083  26.527   1.279
15274W        W80501  16.178  43.753  12.316
15275W        W80502  23.756   2.128   0.362
15276W        W80503  30.423  20.481  12.748
15277W        W80504  15.922  34.381   2.264
15278W        W80505  16.267  13.818   4.650
15279W        W80506   4.731   9.740   1.779
15280W        W80507  29.988  38.060   1.352
15281W        W80508  31.889   4.056   4.343
15282W        W80509  29.895   3.444   3.167
15283W        W80510  32.539  44.784   4.808
15284W        W80511   8.350  36.139   1.056
15285W        W80512  16.495  13.801   3.311
15286W        W80513  21.536   8.136  13.940
15287W        W80514  11.359  39.417  13.934
15288W        W80515  35.346  10.154   1.770
15289W        W80516   6.738  19.725  12.584
15290W        W80517   9.156  12.312  13.812
15291W        W80518  41.935  44.790   1.883
15292W        W80519   5.901  39.945   2.298
15293W        W80520  29.591  24.196   0.863
15294W        W80521  19.753  11.369  11.916
15295W        W80522  21.019   7.703   1.941
15296W        W80523  10.411  18.649  10.861
15297W        W80524   1.434  20.052  14.822
15298W        W80525  30.639   2.153  13.773
15299W        W80526   8.927  23.112  14.971
15300W        W80527  11.221  20.617  13.767
15301W        W80528  10.776  21.105   1.877
15302W        W80529  26.919  19.191  10.762
15303W        W80530   0.204  41.559   0.219
15304W        W80531   3.564  25.911  12.427
15305W        W80532  42.634  41.361  12.418
15306W        W80533  16.961  16.294  14.414
15307W        W80534   1.413   4.231  11.253
15308W        W80535  41.695   8.893   4.946
15309W        W80536   9.663  11.632   4.146
15310W        W80537   9.626  24.254  14.369
15311W        W80538  13.610  39.916  12.704
15312W        W80539  43.903  13.360   3.200
15313W        W80540   5.081  17.295   1.254
15314W        W80541   7.357  32.105  11.265
15315W        W80542  27.455  29.525  14.924
15316W        W80543  36.767  25.334  10.208
15317W        W80544   6.696  24.256  11.422
15318W        W80545  26.329  44.822   0.103
15319W        W80546  13.760   4.108  12.797
15320W        W80547  38.077  10.328  12.298
15321W        W80548  36.479  23.764  14.664
15322W        W80549   7.764  20.848   3.089
15323W        W80550  13.712  18.126   1.227
15324W        W80551  21.594  23.637  12.184
15325W        W80552  40.275  21.681  12.829
15326W        W80553  25.398  44.711   2.177
15327W        W80554  38.582  30.471  12.011
15328W        W80555  12.619  17.210   1.118
15329W        W80556  39.837   4.356   3.675
15330W        W80557  10.754  24.626  14.366
15331W        W80558  19.842  30.050   0.688
15332W        W80559  19.371  15.164   0.265
15333W        W80560  23.251  34.201   4.673
15334W        W80561  10.537  20.120  12.920
15335W        W80562  34.888   2.238  13.362
15336W        W80563  29.641  44.702  10.846
15337W        W80564   9.764  30.115   5.031
15338W        W80565  26.107  38.330  11.449
15339W        W80566  32.758  32.508   4.100
15340W        W80567  36.045   9.799  10.674
15341W        W80568   3.134  40.834  13.031
15342W        W80569   7.720  17.078  14.002
15343W        W80570  36.900  19.825   2.603
15344W        W80571   0.494   9.193   0.401
15345W        W80572  28.060  20.189   2.190
15346W        W80573  26.502  19.319  11.063
15347W        W80574  19.410   3.954   3.840
15348W        W80575  37.849  35.712  10.550
15349W        W80576  17.682  17.315   1.085
15350W        W80577  26.395   5.628   0.528
15351W        W80578  38.412   8.183  11.455
15352W        W80579  12.080  18.543  12.718
15353W        W80580  12.925   6.042   3.024
15354W        W80581  37.162  33.063  14.962
15355W        W80582  27.997  31.502  13.359
15356W        W80583   5.365  21.622   1.635
15357W        W80584  42.716  24.782  12.404
15358W        W80585  27.871  36.598   4.876
15359W        W80586  19.031  36.418  14.303
15360W        W80587  40.112   6.914  11.647
15361W        W80588  28.223  33.901  10.396
15362W        W80589   2.300  18.270   1.362
15363W        W80590  27.576  13.116  10.633
15364W        W80591  23.634  30.049  13.506
15365W        W80592   4.913   0.365   4.504
15366W        W80593  41.774  12.243   0.502
15367W        W80594  43.124  40.912  14.700
15368W        W80595  11.416  30.617  11.143
15369W        W80596  34.666   6.696   2.170
15370W        W80597   0.684   7.690   2.686
15371W        W80598   2.012   3.631   4.849
15372W        W80599  31.898  16.856  11.914
15373W        W80600   7.807  12.715   2.413
15374W        W80601  28.900  10.395  14.914
15375W        W80602   0.129  43.858   3.374
15376W        W80603  26.028  24.685   0.827
15377W        W80604  14.345  39.064   0.859
15378W        W80605  33.384  29.646  10.798
15379W        W80606  27.071  39.137  14.801
15380W        W80607  18.608   1.506  13.977
15381W        W80608  41.363  20.705   0.742
15382W        W80609  33.789   1.347   0.775
15383W        W80610  25.138   8.674   1.738
15384W        W80611  32.083  34.828   2.635
15385W        W80612  14.100  30.904  11.497
15386W        W80613  20.820  32.208   4.994
15387W        W80614  16.386  42.822   4.164
15388W        W80615  33.098   3.910  11.935
15389W        W80616  20.039  15.778   2.801
15390W        W80617   4.013  40.483   0.734
15391W        W80618  39.758  31.461   2.358
15392W        W80619   3.100  24.669   4.526
15393W        W80620   3.371  12.195   1.865
15394W        W80621  30.963   2.890  12.684
15395W        W80622  13.197  43.992   0.918
15396W        W80623  34.889  15.990  13.027
15397W        W80624   3.938  43.546  12.702
15398W        W80625  34.605  31.875  13.676
15399W        W80626  39.762  37.836   0.171
15400W        W80627  43.843   3.003  13.971
15401W        W80628  25.717  12.310  12.076
15402W        W80629  11.242  34.389  12.370
15403W        W80630  36.941  42.050   4.081
15404W        W80631  22.077  34.596  12.193
15405W        W80632   0.980  22.866  12.924
15406W        W80633   0.677  41.900   3.291
15407W        W80634   4.542  37.304   5.001
15408W        W80635  34.042  18.121  12.021
15409W        W80636  26.366  20.311  11.220
15410W        W80637   8.419   4.491  12.104
15411W        W80638  10.119  23.017  10.649
15412W        W80639   1.370  12.432   2.137
15413W        W80640  18.504   6.029  13.210
15414W        W80641  17.952  26.181   2.960
15415W        W80642  19.931   5.829  14.001
15416W        W80643   6.308   8.156  11.555
15417W        W80644  36.022   0.239   2.671
15418W        W80645  22.597  42.173  12.492
15419W        W80646   8.060  38.331   3.659
15420W        W80647  35.835  16.410  13.750
15421W        W80648  33.819  17.499  11.478
15422W        W80649  32.548  43.438  14.447
15423W        W80650  23.717  22.595   3.320
15424W        W80651  30.358  33.633   1.901
15425W        W80652   6.194  17.155  14.555
15426W        W80653  19.133  42.571  13.361
15427W        W80654  23.396  36.009  11.977
15428W        W80655  20.193  18.387   4.534
15429W        W80656  27.500  15.125   4.791
15430W        W80657  18.248  19.670  13.066
15431W        W80658  12.648  29.744  10.191
15432W        W80659  44.953  10.790   0.366
15433W        W80660   7.930  25.331  11.245
15434W        W80661  20.809   4.036  11.930
15435W        W80662   8.081  11.099   3.210
15436W        W80663  23.118  27.535  11.150
15437W        W80664  31.887   9.238  11.002
15438W        W80665  28.848  24.027  14.965
15439W        W80666   1.006  40.768  12.472
15440W        W80667  26.585  40.587   0.441
15441W        W80668  34.443  33.383  13.409
15442W        W80669  17.193  39.375   0.323
15443W        W80670   3.334  20.941   3.706
15444W        W80671  21.968  43.367   4.827
15445W        W80672  26.158  11.143   1.493
15446W        W80673  36.971  32.688   2.380
15447W        W80674   8.194  21.543   3.047
15448W        W80675  43.820  34.525   3.391
15449W        W80676   7.370  25.359  14.392
15450W        W80677  11.086  34.778  13.062
15451W        W80678  26.848  15.546  13.619
15452W        W80679  26.076  31.962  12.480
15453W        W80680  33.292  27.188   9.961
15454W        W80681  44.592  17.278  12.827
15455W        W80682  22.545  42.740  10.635
15456W        W80683  12.547  43.389   2.199
15457W        W80684   6.914  34.023  10.683
15458W        W80685  11.052  24.562   3.961
15459W        W80686   8.182  18.397   4.112
15460W        W80687   1.235  15.770  14.709
15461W        W80688   9.380   2.155   1.295
15462W        W80689  15.468  44.517   2.412
15463W        W80690  18.341   2.491  10.601
15464W        W80691  43.577  31.655   1.322
15465W        W80692  14.050  18.971   2.461
15466W        W80693  22.508  20.804   2.715
15467W        W80694  12.923  34.633  11.420
15468W        W80695  40.484  36.408   2.250
15469W        W80696  35.513  20.422  11.546
15470W        W80697  32.770  44.440  12.366
15471W        W80698  21.162  11.620  13.495
15472W        W80699  42.548  10.999   4.100
15473W        W80700   3.211   4.846  13.876
15474W        W80701  19.712  34.734   1.824
15475W        W80702  25.484   0.980   3.349
15476W        W80703  26.958  37.927  11.579
15477W        W80704  15.094  38.529   2.766
15478W        W80705  19.345  23.372  11.014
15479W        W80706  24.301  42.088   3.140
15480W        W80707  30.955  30.922   0.193
15481W        W80708  13.337  40.781  11.402
15482W        W80709  12.168  26.528  14.973
15483W        W80710  21.725   7.939   3.627
15484W        W80711  32.357   1.345   3.135
15485W        W80712  20.051   5.888   2.661
15486W        W80713  36.830   6.123  11.977
15487W        W80714  35.895  41.719   1.716
15488W        W80715  18.280  10.804  10.656
15489W        W80716  20.618   4.874  10.129
15490W        W80717  15.886   4.894   0.013
15491W        W80718  18.393  40.391  12.540
15492W        W80719  25.704  28.191   0.327
15493W        W80720  23.602  22.923  12.561
15494W        W80721   1.318  14.274   3.752
15495W        W80722  18.993  13.253  14.867
15496W        W80723  27.602   3.712  13.472
15497W        W80724  30.010  32.958   1.209
15498W        W80725  26.677  18.675   1.216
15499W        W80726  16.727  11.410   4.264
15500W        W80727   4.465   5.235  13.497
15501W        W80728  23.771   7.178  14.353
15502W        W80729  13.207   0.907   0.503
15503W        W80730   3.212  26.441  11.343
15504W        W80731  44.940  31.724   3.593
15505W        W80732   3.001  32.426  11.195
15506W        W80733  17.224  11.379  12.963
15507W        W80734  13.323   7.182   0.292
15508W        W80735  23.477  24.432  14.734
15509W        W80736  14.930  26.692  12.695
15510W        W80737   1.556  40.339   3.336
15511W        W80738  34.978  26.498  14.888
15512W        W80739  19.247   4.363   3.558
15513W        W80740   1.051  12.401   4.117
15514W        W80741   0.802  10.272   0.795
15515W        W80742  44.840  20.408   1.422
15516W        W80743   6.878  27.852   1.246
15517W        W80744  19.300  14.212  13.025
15518W        W80745  17.271   1.190  10.787
15519W        W80746  28.667  18.210  14.732
15520W        W80747  25.420  38.268   0.786
15521W        W80748  12.360  33.566  13.725
15522W        W80749  36.539   9.243   3.666
15523W        W80750  21.558  29.201   0.486
15524W        W80751  20.764   6.494  10.674
15525W        W80752  40.024  40.308   0.397
15526W        W80753  27.914   5.300   4.401
15527W        W80754  26.045  43.337  10.486
15528W        W80755  29.748  30.578   3.127
15529W        W80756   1.059  23.888   1.354
15530W        W80757  40.590  23.223   0.300
15531W        W80758  19.724  13.275   2.370
15532W        W80759  28.649   8.629  11.950
15533W        W80760  43.389  23.022  11.329
15534W        W80761  22.304   2.768  12.286
15535W        W80762  20.515  42.747  12.905
15536W        W80763  27.905  40.856   0.493
15537W        W80764   8.777  43.490  13.871
15538W        W80765  25.931  12.606   4.693
15539W        W80766  30.657   0.280   2.780
15540W        W80767   5.428  31.344  11.509
15541W        W80768   0.306   8.863   1.533
15542W        W80769  28.009  44.325  14.341
15543W        W80770  36.849   1.887   4.012
15544W        W80771  26.380   4.664  11.588
15545W        W80772   1.144  15.884  11.133
15546W        W80773  27.814  44.972  12.615
15547W        W80774  18.230   1.621  14.851
15548W        W80775  26.699  21.006   2.403
15549W        W80776  40.035  43.915   0.831
15550W        W80777  31.730  30.036  12.252
15551W        W80778  41.493   7.269   4.433
15552W        W80779  26.675  30.643  12.815
15553W        W80780  26.919   3.691   4.025
15554W        W80781  44.935   6.122   1.021
15555W        W80782   9.702  28.479  14.562
15556W        W80783  14.519  27.540  14.226
15557W        W80784   0.578  34.939  11.142
15558W        W80785   0.226  13.471   0.469
15559W        W80786  40.486  10.583  13.884
15560W        W80787  41.443  37.850   1.424
15561W        W80788  36.317  11.803  13.383
15562W        W80789  21.764  32.162  13.965
15563W        W80790  30.800  32.612  13.801
15564W        W80791  13.200  16.695  14.558
15565W        W80792  11.173  33.945  13.351
15566W        W80793  40.200  26.217  12.583
15567W        W80794   9.745  26.297  11.109
15568W        W80795  35.433   9.132  14.003
15569W        W80796  34.075  13.898   4.050
15570W        W80797   2.436  15.233   3.672
15571W        W80798  38.797  31.530  13.333
15572W        W80799   3.563  13.135  13.501
15573W        W80800  17.828   5.774  14.590
15574W        W80801  14.702  23.144  12.716
15575W        W80802  26.119  19.583  13.531
15576W        W80803  35.952   1.213  14.588
15577W        W80804  43.234  32.320   5.010
15578W        W80805   7.841  40.495  13.371
15579W        W80806   4.633  29.240   4.248
15580W        W80807  37.861   9.394   4.510
15581W        W80808  29.563  23.629  11.988
15582W        W80809  22.675   0.260   0.034
15583W        W80810   5.113   1.515   4.429
15584W        W80811  28.071   0.080  11.478
15585W        W80812   1.390  38.494  10.399
15586W        W80813  32.075  14.701   2.811
15587W        W80814  34.428   2.552   0.073
15588W        W80815  31.326   5.768  12.001
15589W        W80816  44.717  44.278  11.811
15590W        W80817   7.621  10.736   0.574
15591W        W80818  13.186  39.529   1.352
15592W        W80819  14.797  10.702   4.485
15593W        W80820  44.844   9.244   0.932
15594W        W80821  18.523  38.038  14.393
15595W        W80822  25.117   1.486   2.667
15596W        W80823  44.333  23.509  11.397
15597W        W80824  30.535   8.278  11.678
15598W        W80825  29.153  32.647   0.837
15599W        W80826  28.702  41.014  14.858
15600W        W80827  28.016  17.521   1.223
15601W        W80828  43.858   6.467   0.462
15602W        W80829  15.805  17.893  12.269
15603W        W80830  39.884  19.040   4.144
15604W        W80831  33.603  23.055   1.892
15605W        W80832  23.343  44.589   4.521
15606W        W80833   1.355  21.524  11.631
15607W        W80834  22.133  12.082  14.819
15608W        W80835  35.477   4.414  12.024
15609W        W80836  40.889   1.843  14.942
15610W        W80837   2.430   2.876   4.497
15611W        W80838  32.531  22.068   3.743
15612W        W80839  29.473  22.681   3.205
15613W        W80840  43.955  17.394   0.425
15614W        W80841  34.957  40.866   1.429
15615W        W80842  37.307  30.437  13.459
15616W        W80843  39.464  11.092   0.020
15617W        W80844  21.925  16.866   0.498
15618W        W80845  22.130  44.634  10.726
15619W        W80846  22.242  11.731   2.175
15620W        W80847  18.628   4.749  12.501
15621W        W80848   0.126   0.964   1.731
15622W        W80849  41.852   5.713  14.384
15623W        W80850  23.366  39.021  12.781
15624W        W80851  35.125  42.885   4.181
15625W        W80852  32.292  23.345  11.077
15626W        W80853  39.529  35.532   0.490
15627W        W80854  28.381   6.751  11.007
15628W        W80855  26.327   2.484  13.971
15629W        W80856  14.871  24.093   2.228
15630W        W80857  32.516  23.593  11.462
15631W        W80858  29.148  32.932  13.243
15632W        W80859  24.138  18.753  10.681
15633W        W80860  10.439   3.850   4.557
15634W        W80861  28.086   3.137  13.355
15635W        W80862  17.199  22.698  14.201
15636W        W80863  33.449  17.119   4.541
15637W        W80864  36.926  42.537   2.821
15638W        W80865   3.172  11.100   0.457
15639W        W80866  15.153   5.655  12.905
15640W        W80867  10.108  25.667  13.666
15641W        W80868  17.801   6.307   4.072
15642W        W80869  18.171  43.929   2.074
15643W        W80870   5.171  19.666  11.827
15644W        W80871  29.530  11.892   2.318
15645W        W80872   7.934   8.183   2.204
15646W        W80873  43.755  12.448   0.696
15647W        W80874  31.516  29.156  13.021
15648W        W80875  42.573  31.153   2.684
15649W        W80876  20.147  34.099   2.419
15650W        W80877  42.970  32.642  13.315
15651W        W80878  28.546  12.944   0.321
15652W        W80879  34.471  44.993  13.455
15653W        W80880  20.661  34.119   2.305
15654W        W80881  17.539   1.887   1.107
15655W        W80882  28.014  28.450   9.733
15656W        W80883   9.139  44.565   3.750
15657W        W80884   0.555  30.041  11.894
15658W        W80885  23.209  35.183  13.967
15659W        W80886   6.193  40.599   0.679
15660W        W80887  14.841  28.711  13.130
15661W        W80888   6.322  23.293   0.753
15662W        W80889  38.389  16.133  13.475
15663W        W80890   5.483  35.131  11.120
15664W        W80891  28.445  41.739   1.213
15665W        W80892  33.450  15.763   0.935
15666W        W80893  35.433   4.656   2.862
15667W        W80894  12.149   4.185   0.391
15668W        W80895   6.473  30.656  10.518
15669W        W80896  14.122   4.979   4.472
15670W        W80897  24.983  27.657  11.599
15671W        W80898  44.981   1.416   0.827
15672W        W80899  10.170  31.870  11.922
15673W        W80900  23.769  23.190  14.094
15674W        W80901   2.336  37.423   4.141
15675W        W80902  23.248  22.720   3.600
15676W        W80903   2.398  31.459  13.539
15677W        W80904  28.704   3.956  14.433
15678W        W80905  41.028  38.817   0.416
15679W        W80906  21.248   1.808   0.289
15680W        W80907  28.964  43.936  11.150
15681W        W80908  34.569  20.229  10.747
15682W        W80909  11.969  38.470  13.552
15683W        W80910  43.832  42.462   2.103
15684W        W80911  30.915  41.875   5.009
15685W        W80912  34.475  23.169  10.877
15686W        W80913   4.719  35.977  14.805
15687W        W80914  19.486  21.311  13.120
15688W        W80915  41.801   6.964  12.165
15689W        W80916  28.017  40.408   3.306
15690W        W80917  31.453   6.816  12.485
15691W        W80918   3.929  20.463  11.141
15692W        W80919  17.715  16.311  14.966
15693W        W80920  35.018   4.627  12.038
15694W        W80921  38.884  44.402   1.706
15695W        W80922   0.609  31.088  13.180
15696W        W80923   6.154  39.361   3.544
15697W        W80924  20.272  43.766   1.162
15698W        W80925  15.119  20.855   3.089
15699W        W80926  16.569  33.443   1.766
15700W        W80927  37.617  42.410   3.659
15701W        W80928  32.036  35.677   5.495
15702W        W80929  25.593  35.980   5.189
15703W        W80930   9.871   0.941  12.942
15704W        W80931  22.628  30.414   0.770
15705W        W80932  16.174  32.366   4.592
15706W        W80933   9.269  23.810   3.699
15707W        W80934   8.394   6.217  14.853
15708W        W80935  42.000  27.254   2.327
15709W        W80936  25.218   9.870   2.615
15710W        W80937  17.633  38.549  14.583
15711W        W80938  16.592  13.626   2.372
15712W        W80939  32.461  19.857   3.391
15713W        W80940   0.363  18.046   4.634
15714W        W80941  29.274  27.946  12.509
15715W        W80942  40.372  18.263  14.362
15716W        W80943  43.583  21.611   1.502
15717W        W80944  37.105  44.919   3.223
15718W        W80945  38.043  34.299   0.781
15719W        W80946  44.303  18.240  13.992
15720W        W80947  26.591  30.666  11.328
15721W        W80948  16.834  35.487   0.078
15722W        W80949  28.245  23.930  12.076
15723W        W80950  21.214  44.001   3.592
15724W        W80951  32.180  43.517  11.138
15725W        W80952   4.756  15.701  12.324
15726W        W80953  15.487  43.389  12.065
15727W        W80954  43.821  37.733  10.661
15728W        W80955  19.551  20.370  11.095
15729W        W80956  20.235  10.616  11.185
15730W        W80957   3.772  33.779  13.844
15731W        W80958   0.334  23.781   3.353
15732W        W80959   5.454  11.316  12.026
15733W        W80960   5.973  25.811  12.441
15734W        W80961  10.873   4.708   3.385
15735W        W80962  31.940  22.776   0.852
15736W        W80963   0.165  20.029   3.192
15737W        W80964  36.627  32.953   2.752
15738W        W80965   0.679  28.832   0.686
15739W        W80966   2.670   3.474  11.274
15740W        W80967  35.999  26.469  14.948
15741W        W80968   5.337  10.307  12.625
15742W        W80969   6.752  10.666   3.174
15743W        W80970  42.863  11.691  13.983
15744W        W80971   8.944  30.125  14.889
15745W        W80972  42.067  38.549   2.264
15746W        W80973   9.359  30.594   0.524
15747W        W80974  41.297  16.285  13.830
15748W        W80975  21.735   6.565   2.799
15749W        W80976  27.489  40.893  12.155
15750W        W80977  17.727   3.007  14.673
15751W        W80978  33.033  16.654   0.290
15752W        W80979   4.885  10.689   4.898
15753W        W80980   6.618  30.614  14.356
15754W        W80981  37.646   3.025  12.449
15755W        W80982  17.713   7.880   4.127
15756W        W80983   9.532  14.151  13.944
15757W        W80984  33.441   8.286   4.314
15758W        W80985  41.591  27.551  12.470
15759W        W80986  12.321  35.989   3.266
15760W        W80987  28.727  24.971   0.757
15761W        W80988   6.320  12.847  14.327
15762W        W80989   8.892  30.454   3.672
15763W        W80990  14.620  12.647   1.669
15764W        W80991  43.390  29.776  11.397
15765W        W80992  18.057  42.570   3.400
15766W        W80993  27.882   2.465   4.126
15767W        W80994  37.377  42.288   1.848
15768W        W80995  19.507  37.888  11.255
15769W        W80996   7.805   6.312  10.733
15770W        W80997  22.853  22.745  11.109
15771W        W80998  31.060  36.828   3.117
15772W        W80999  31.587   0.781   3.581
15773W        W81000  16.276  37.089  10.941
15774W        W81001  32.051  28.265   1.179
15775W        W81002   7.330  36.123  14.279
15776W        W81003  41.916  43.387  10.709
15777W        W81004  41.967  19.036   3.997
15778W        W81005  21.018  25.957   3.721
15779W        W81006  39.103  11.131  12.334
15780W        W81007  36.831   7.443  10.786
15781W        W81008  39.098   6.205  13.770
15782W        W81009  31.579  19.023  12.104
15783W        W81010  20.991  20.601   2.219
15784W        W81011  22.663  15.101  12.665
15785W        W81012  15.047   2.353   2.176
15786W        W81013   1.559  32.609  11.483
15787W        W81014  44.517  39.447   3.173
15788W        W81015  34.621  30.539   1.423
15789W        W81016  25.067  17.365   3.612
15790W        W81017  22.474  22.154   4.687
15791W        W81018   2.414   8.226  11.378
15792W        W81019  40.090  30.213   1.022
15793W        W81020  13.300  20.618  10.700
15794W        W81021   1.556   0.131   4.112
15795W        W81022  15.239   9.936   0.291
15796W        W81023  12.202  39.512   2.648
15797W        W81024  33.667   7.786  13.351
15798W        W81025   7.427  31.982   4.197
15799W        W81026  28.027  33.659   3.209
15800W        W81027  28.560  21.784   4.050
15801W        W81028   9.864  18.727   3.669
15802W        W81029  26.190  22.310   2.725
15803W        W81030   9.436  43.731  13.164
15804W        W81031  18.822   0.617  12.492
15805W        W81032  24.083  40.908   1.308
15806W        W81033  34.604  24.669  12.999
15807W        W81034  10.344  20.810  14.156
15808W        W81035  11.685  37.188   3.331
15809W        W81036  34.369  18.746  13.086
15810W        W81037  34.326   5.769  12.356
15811W        W81038  37.709   7.140  12.497
15812W        W81039  37.278   7.845  12.602
15813W        W81040  16.313  21.210   4.330
15814W        W81041  24.374  41.352  11.892
15815W        W81042  23.244  39.469  13.757
15816W        W81043  39.076  21.708   4.715
15817W        W81044   7.652  33.040  12.953
15818W        W81045  28.596  15.376   0.403
15819W        W81046  17.553  37.250   3.383
15820W        W81047  31.591  18.898  14.455
15821W        W81048   5.877  25.167  13.251
15822W        W81049  16.596  16.019  14.127
15823W        W81050   1.870   3.282   1.726
15824W        W81051  32.917   6.363  12.616
15825W        W81052  15.502  33.877  13.478
15826W        W81053  41.152  31.139  14.832
15827W        W81054  20.248  34.502  13.358
15828W        W81055  16.653   2.114   4.575
15829W        W81056   7.782  17.069   1.729
15830W        W81057  37.262   3.383   1.287
15831W        W81058  32.842  41.581   0.692
15832W        W81059  16.735  18.594  11.698
15833W        W81060  43.562  14.261  13.981
15834W        W81061  43.492   2.325   2.770
15835W        W81062  37.266  27.557   0.493
15836W        W81063  30.241  19.585  10.993
15837W        W81064   7.267   8.786  13.735
15838W        W81065   5.380  27.927   4.151
15839W        W81066   2.373  39.589   0.885
15840W        W81067  26.045  27.991   4.568
15841W        W81068  27.918  10.402  13.473
15842W        W81069  25.134   4.156  12.484
15843W        W81070   8.277  30.989   3.175
15844W        W81071  33.483   6.826   4.376
15845W        W81072  38.284  17.561   2.004
15846W        W81073  25.492   8.277  14.013
15847W        W81074  28.485  20.260  12.149
15848W        W81075  13.671   3.696   3.642
15849W        W81076  37.973  21.960   2.665
15850W        W81077  34.323   9.228   0.696
15851W        W81078  30.380  15.443  13.044
15852W        W81079  19.646   5.971   4.440
15853W        W81080  27.594  30.474  12.383
15854W        W81081  15.357  30.902  11.724
15855W        W81082  34.650  13.669   2.605
15856W        W81083  21.211  21.494  12.435
15857W        W81084  34.064   3.833  14.471
15858W        W81085  21.266   7.236   1.860
15859W        W81086  24.201  15.778   3.309
15860W        W81087  38.344  40.424  14.374
15861W        W81088  38.027  27.139  11.581
15862W        W81089  30.679  25.710   0.472
15863W        W81090  28.004  10.183   0.738
15864W        W81091  43.555  30.922   4.022
15865W        W81092  41.056  38.458   2.305
15866W        W81093  42.055  35.598  11.210
15867W        W81094  24.652  44.767   2.837
15868W        W81095  30.135  44.262   4.160
15869W        W81096  43.773   4.125   3.874
15870W        W81097  14.308  18.963  10.982
15871W        W81098  44.536  20.131   1.068
15872W        W81099   2.073  32.958   1.868
15873W        W81100  27.468  30.710  12.818
15874W        W81101  17.646  13.269   0.093
15875W        W81102  10.528  26.432  12.065
15876W        W81103  19.013   1.527   4.839
15877W        W81104   1.998  33.582  12.552
15878W        W81105  24.569  29.970  12.886
15879W        W81106  43.172   5.374   0.429
15880W        W81107  33.677  40.038  12.230
15881W        W81108  44.302  28.464  10.721
15882W        W81109  16.091  38.981  14.427
15883W        W81110  26.261  25.529  14.290
15884W        W81111  43.056  41.474  11.869
15885W        W81112   4.641  11.309   3.373
15886W        W81113  32.908  36.042  11.973
15887W        W81114   2.952  38.013  12.847
15888W        W81115  33.592  14.238   1.333
15889W        W81116  42.934  25.473   3.210
15890W        W81117  14.624   8.952   1.750
15891W        W81118   0.827  20.523   1.864
15892W        W81119  38.146  40.904  14.413
15893W        W81120  27.851   9.928   2.606
15894W        W81121   9.283  10.786  13.214
15895W        W81122   7.903   0.852   2.353
15896W        W81123  39.040   3.483  10.355
15897W        W81124   7.951  37.349   0.720
15898W        W81125  14.817  39.951   2.661
15899W        W81126  39.776  22.606   3.278
15900W        W81127  23.760  13.880  12.537
15901W        W81128  18.958  26.373  14.530
15902W        W81129   8.970   1.760  11.910
15903W        W81130  39.422  41.555  13.055
15904W        W81131   3.727  20.607   2.270
15905W        W81132  10.058  39.966  10.618
15906W        W81133  38.183   8.837  11.434
15907W        W81134  11.598  37.452   3.772
15908W        W81135   0.615   6.414   5.037
15909W        W81136  12.421   7.182  13.790
15910W        W81137  34.323  11.196   0.733
15911W        W81138  13.792  27.894  12.507
15912W        W81139   5.518  33.566   4.721
15913W        W81140  44.954  16.219  10.614
15914W        W81141  42.765  44.017   2.725
15915W        W81142  30.578  28.221  14.436
15916W        W81143  17.817  37.518   0.492
15917W        W81144   5.427  35.519  14.392
15918W        W81145  44.824   8.328   0.476
15919W        W81146   1.447  19.600   1.857
15920W        W81147  12.705  21.316  11.082
15921W        W81148  36.508  20.267  11.805
15922W        W81149  20.780  15.250   2.807
15923W        W81150   9.218  33.400   1.840
15924W        W81151  18.043   7.532  14.967
15925W        W81152  27.670  42.325   2.865
15926W        W81153  15.201  42.128   3.931
15927W        W81154   7.741  41.497   4.182
15928W        W81155  41.752  31.183  12.092
15929W        W81156  24.901  14.222   1.840
15930W        W81157  22.462  35.386  11.661
15931W        W81158  25.728  38.832  14.513
15932W        W81159  29.593  44.354  11.574
15933W        W81160   2.674  29.399   0.424
15934W        W81161  35.908  36.892  13.414
15935W        W81162  33.520   5.419   0.392
15936W        W81163  21.261   8.072  13.520
15937W        W81164  27.698  18.711  12.518
15938W        W81165  43.208  29.067  14.343
15939W        W81166  42.295  20.746   3.195
15940W        W81167   5.137   0.864   2.248
15941W        W81168  29.726  34.485  10.178
15942W        W81169  27.435  12.775   4.136
15943W        W81170  12.771   3.146   3.723
15944W        W81171  19.055  35.385   2.589
15945W        W81172  29.489  16.435   1.405
15946W        W81173   3.282  36.109  12.331
15947W        W81174  32.133  10.837  14.431
15948W        W81175  16.106   5.189   4.515
15949W        W81176  44.047  23.802  12.905
15950W        W81177   6.724  19.798   1.822
15951W        W81178  42.495   1.451   2.876
15952W        W81179  32.029   5.491   4.129
15953W        W81180  29.983  12.533   1.110
15954W        W81181  28.071  20.725  10.410
15955W        W81182  14.200  28.254  12.428
15956W        W81183   5.321  15.045   4.592
15957W        W81184   6.333  42.432   2.283
15958W        W81185  41.985  32.796   1.550
15959W        W81186  42.509  23.249   3.193
15960W        W81187  39.833   0.526  13.121
15961W        W81188  20.582  10.097  10.475
15962W        W81189  35.942  19.741  12.022
15963W        W81190  33.508   2.889   2.694
15964W        W81191  41.755  15.510  12.682
15965W        W81192  13.385   1.537  13.062
15966W        W81193  38.017   1.298   2.408
15967W        W81194  35.505  17.686   2.048
15968W        W81195  43.393   3.775   0.818
15969W        W81196  30.924  21.563  11.881
15970W        W81197  32.457   9.205   2.166
15971W        W81198  18.558  24.841  11.918
15972W        W81199  26.083   7.541  13.867
15973W        W81200  19.593  27.012   1.097
15974W        W81201  22.164   2.406   1.684
15975W        W81202  19.568  19.923  14.850
15976W        W81203  17.084   7.295  11.949
15977W        W81204   0.241  17.846   0.991
15978W        W81205  16.100  30.054   4.771
15979W        W81206  44.222  34.906  10.626
15980W        W81207  12.838  30.294  11.926
15981W        W81208   2.258   2.190  14.020
15982W        W81209  44.189   4.796  11.943
15983W        W81210  22.749  13.745  14.433
15984W        W81211   8.641  20.765  12.081
15985W        W81212  44.332  42.712   1.120
15986W        W81213  22.090  29.484  14.841
15987W        W81214  33.833  38.494   0.489
15988W        W81215  39.792  14.536  12.041
15989W        W81216   1.069  20.341   0.036
15990W        W81217   5.882   4.466   4.587
15991W        W81218  41.302  10.861   1.833
15992W        W81219  43.806  25.758  11.116
15993W        W81220  28.050  25.580  11.537
15994W        W81221  21.807  41.306   1.273
15995W        W81222  17.851   3.377   2.817
15996W        W81223  24.138  29.277  11.713
15997W        W81224  40.429  43.277   2.863
15998W        W81225   0.432  11.937   4.564
15999W        W81226  13.215   3.148   4.297
16000W        W81227  36.440  31.931   4.828
16001W        W81228  19.503  30.979   4.651
16002W        W81229  27.214  21.722   1.124
16003W        W81230   0.508  27.511  13.400
16004W        W81231  32.402  34.460   4.059
16005W        W81232   3.937  35.465   0.847
16006W        W81233  11.592   4.837  13.905
16007W        W81234  20.566  38.997   3.916
16008W        W81235   6.238  34.799  12.093
16009W        W81236  38.618   4.937   3.296
16010W        W81237  41.902  14.589  13.882
16011W        W81238  28.576  20.607  11.572
16012W        W81239  38.300  39.911  12.423
16013W        W81240  33.912   3.465   2.191
16014W        W81241   5.230   6.307   2.098
16015W        W81242  24.710  29.578  10.738
16016W        W81243  37.972  34.294  13.180
16017W        W81244   4.020  38.542  14.794
16018W        W81245   6.712  35.468   0.032
16019W        W81246   4.581  18.441   2.474
16020W        W81247   0.547  23.115  13.152
16021W        W81248  33.038  26.940   2.205
16022W        W81249  39.853   1.862   3.100
16023W        W81250  15.577  37.939  10.705
16024W        W81251  40.067  10.124   3.365
16025W        W81252  33.848  36.978   1.784
16026W        W81253  17.623  17.632   0.673
16027W        W81254  25.231  35.018  11.523
16028W        W81255  10.102  18.166   1.517
16029W        W81256   6.290  44.349  14.974
16030W        W81257  44.454  37.796  12.871
16031W        W81258  14.631  44.538   0.887
16032W        W81259  20.751   1.148   0.254
16033W        W81260  15.868  31.123  13.300
16034W        W81261  20.028  37.033   0.138
16035W        W81262   0.831  37.373  13.356
16036W        W81263  38.132   0.217  11.157
16037W        W81264  14.616  41.914  11.081
16038W        W81265   4.248  22.070   0.770
16039W        W81266  10.162   6.469  12.629
16040W        W81267  28.050  20.001  11.214
16041W        W81268   0.552  22.226   5.095
16042W        W81269  20.258   0.253  11.180
16043W        W81270  22.551  22.902  11.966
16044W        W81271  44.954   5.731   2.323
16045W        W81272  21.028   4.436  12.897
16046W        W81273  32.439  42.427   1.296
16047W        W81274  22.619  44.867  13.413
16048W        W81275   9.319  26.014  11.189
16049W        W81276  25.288  22.191   2.152
16050W        W81277  42.979   0.841  14.872
16051W        W81278   9.791  28.870   4.315
16052W        W81279  14.651  40.777  13.355
16053W        W81280  23.690  29.286  12.547
16054W        W81281  12.968  10.049   3.326
16055W        W81282   9.202  11.901   0.900
16056W        W81283  32.785  30.657   3.593
16057W        W81284  15.373  27.564   4.277
16058W        W81285  10.834  40.826  13.898
16059W        W81286  32.712  18.702   4.531
16060W        W81287  19.102  14.660  10.816
16061W        W81288  15.002   5.545   1.827
16062W        W81289   0.075  21.222   2.191
16063W        W81290  28.147  11.304  13.357
16064W        W81291  33.828  34.770   4.455
16065W        W81292   4.624  14.023   1.721
16066W        W81293  30.312   9.530   0.820
16067W        W81294  19.167  39.053   0.740
16068W        W81295  44.399  21.213  12.596
16069W        W81296  36.900  36.697  13.450
16070W        W81297  31.028  16.863   2.798
16071W        W81298   2.308  21.036   0.558
16072W        W81299  19.603  40.331   0.908
16073W        W81300  19.481  17.592  11.183
16074W        W81301  41.175  17.587   2.062
16075W        W81302   8.176  43.408  12.441
16076W        W81303   7.107  13.737   3.109
16077W        W81304  31.533  30.834   2.290
16078W        W81305  44.378  24.331  12.355
16079W        W81306  15.738  29.594  13.465
16080W        W81307   8.029   5.496   4.141
16081W        W81308  15.320  31.183   4.986
16082W        W81309  20.640  27.885  11.594
16083W        W81310  15.369  38.136  13.259
16084W        W81311  23.110  36.059   1.268
16085W        W81312  26.271  28.070  12.461
16086W        W81313  28.081  31.479   0.219
16087W        W81314  26.265  22.210   3.645
16088W        W81315   8.814  43.427  13.310
16089W        W81316   4.537  22.088   2.699
16090W        W81317  32.102  34.873   4.150
16091W        W81318   5.087  14.306   1.834
16092W        W81319  38.893  26.042  12.416
16093W        W81320  36.517   7.614  11.943
16094W        W81321   2.172  12.085  10.655
16095W        W81322  37.505  32.874   1.761
16096W        W81323  13.040   5.930  11.796
16097W        W81324   4.875  42.836  10.783
16098W        W81325  28.624  40.870  13.375
16099W        W81326  10.718  38.570   3.351
16100W        W81327  28.339  18.936   0.189
16101W        W81328  28.624  42.061  12.473
16102W        W81329  11.653   5.231   2.047
16103W        W81330  29.869  18.682   0.347
16104W        W81331  34.870  19.345   4.165
16105W        W81332   7.969   9.684   4.867
16106W        W81333  30.095  25.611   5.425
16107W        W81334  37.530   8.732  13.858
16108W        W81335  29.190   8.854   0.399
16109W        W81336  27.069   0.748  11.223
16110W        W81337  13.231   8.415   2.210
16111W        W81338  36.010  37.538   4.562
16112W        W81339   8.190  12.785   4.627
16113W        W81340  12.225   4.441   4.062
16114W        W81341  13.558  14.294  14.766
16115W        W81342  21.426  10.367  11.878
16116W        W81343   8.684  26.342   3.310
16117W        W81344   5.383  22.608   9.677
16118W        W81345  24.015   9.039  12.073
16119W        W81346  34.416  26.061  14.326
16120W        W81347  31.360  12.244   5.559
16121W        W81348  43.283  37.159  14.192
16122W        W81349   2.753  40.510  13.930
16123W        W81350  28.221  14.305   0.800
16124W        W81351   5.023  38.563  12.196
16125W        W81352   1.790  33.655   3.162
16126W        W81353  22.708  33.010   2.125
16127W        W81354  14.910   9.728  13.443
16128W        W81355  17.206  31.920   0.455
16129W        W81356  35.586  10.374   2.675
16130W        W81357   9.181  38.486   0.837
16131W        W81358  33.882   3.791   1.721
16132W        W81359  14.645  41.791  14.588
16133W        W81360  41.236   2.331  11.296
16134W        W81361  20.625   6.959   3.596
16135W        W81362  31.035  25.691   0.105
16136W        W81363   5.169  30.634   1.247
16137W        W81364  33.518  27.328   2.707
16138W        W81365  11.101  44.497  11.202
16139W        W81366   3.759  22.592   1.149
16140W        W81367   2.380  21.564   4.523
16141W        W81368  42.370  41.778   0.291
16142W        W81369  34.296  30.222  10.567
16143W        W81370  38.244  27.645   0.199
16144W        W81371  30.116  35.111  12.155
16145W        W81372  44.848   7.226   4.665
16146W        W81373  44.777   1.826  11.945
16147W        W81374  23.896  40.295   0.917
16148W        W81375   3.181  29.973  11.049
16149W        W81376  23.048  30.283  10.414
16150W        W81377  16.581  21.587   0.973
16151W        W81378  34.874   1.771   2.789
16152W        W81379  37.731   0.265  12.096
16153W        W81380   0.331   7.814   4.576
16154W        W81381   1.326  40.285  13.038
16155W        W81382   1.736  15.285  14.854
16156W        W81383  36.499  27.746  13.422
16157W        W81384  37.769  11.881  12.174
16158W        W81385  33.479  33.379   1.194
16159W        W81386   6.910   3.668  14.779
16160W        W81387  28.413   8.737   3.736
16161W        W81388  10.246  19.182  10.627
16162W        W81389  24.575  34.829  11.251
16163W        W81390   1.821  12.201   2.891
16164W        W81391   5.731  34.679  14.829
16165W        W81392  37.112  42.478   3.841
16166W        W81393  21.530   4.239   2.728
16167W        W81394  32.952  25.497   0.243
16168W        W81395   9.449  27.605  13.461
16169W        W81396  33.017  44.689  11.055
16170W        W81397  37.497  13.612  11.584
16171W        W81398  16.763  19.826   2.668
16172W        W81399  11.110  31.662  11.647
16173W        W81400  14.292  37.928   3.884
16174W        W81401  34.122  37.093  12.487
16175W        W81402  16.309  32.875  14.902
16176W        W81403  31.603   1.940  14.836
16177W        W81404  18.237   1.480  10.714
16178W        W81405  27.567  25.979  10.699
16179W        W81406  34.831   9.279  11.450
16180W        W81407  38.258  37.421  14.282
16181W        W81408  37.880  10.266  11.325
16182W        W81409  13.408  29.985   4.920
16183W        W81410  31.810   1.795   0.283
16184W        W81411  23.232  39.819   4.720
16185W        W81412  39.573   0.290  14.859
16186W        W81413   6.931   3.671   1.322
16187W        W81414  14.512  14.104   4.655
16188W        W81415  33.196  20.361  10.753
16189W        W81416   0.164  14.560  11.140
16190W        W81417  24.270  12.752   1.202
16191W        W81418   1.510   5.176  14.536
16192W        W81419  36.879  26.454   4.360
16193W        W81420  42.872  11.798   3.514
16194W        W81421  40.487  22.713   0.257
16195W        W81422   8.329  34.256  12.232
16196W        W81423   2.669  20.393   5.552
16197W        W81424   9.243  24.578   1.489
16198W        W81425   5.506  24.065  11.839
16199W        W81426   3.242   3.734   1.802
16200W        W81427  43.225  40.746   2.715
16201W        W81428  22.272  12.740   4.133
16202W        W81429  36.850  40.925   2.751
16203W        W81430  14.261   6.943   0.211
16204W        W81431  18.951  31.996  12.582
16205W        W81432  19.969  42.425   0.262
16206W        W81433  20.764   3.701  11.525
16207W        W81434  24.725   4.801   2.795
16208W        W81435  19.255  34.572   0.953
16209W        W81436  22.986   4.126   2.797
16210W        W81437  20.711  30.447   0.555
16211W        W81438  36.470  20.134   3.332
16212W        W81439   1.846  16.529   3.671
16213W        W81440  12.882  39.369  12.359
16214W        W81441  11.162  18.619  11.404
16215W        W81442   4.825  19.991   1.197
16216W        W81443   9.143   4.327  12.908
16217W        W81444  29.000  29.431  11.726
16218W        W81445  37.194  18.549  13.771
16219W        W81446   7.932   3.633  13.578
16220W        W81447  34.960  37.863  14.214
16221W        W81448  22.779  19.308   4.259
16222W        W81449  33.955  26.408  12.036
16223W        W81450  24.905  34.136   4.417
16224W        W81451  35.024  41.337  10.729
16225W        W81452  24.130  22.513  10.397
16226W        W81453   1.007   3.922  11.423
16227W        W81454  44.043   5.399  12.139
16228W        W81455   6.855  33.515  14.153
16229W        W81456  32.015  36.635  13.854
16230W        W81457  18.802   8.507  10.361
16231W        W81458  21.103  33.172  11.633
16232W        W81459   5.334  28.511   1.974
16233W        W81460   3.011  31.841  11.966
16234W        W81461   7.845  41.925   0.918
16235W        W81462  30.164   4.638   3.872
16236W        W81463  36.653  35.924   2.269
16237W        W81464   4.396  28.755   3.679
16238W        W81465  26.794   4.513  12.925
16239W        W81466  38.010  37.150   1.641
16240W        W81467  24.015  30.708   1.195
16241W        W81468  27.556  16.860   3.737
16242W        W81469  44.911   8.767   1.200
16243W        W81470  24.133  12.405   4.125
16244W        W81471  30.682  36.443   1.229
16245W        W81472  21.104  34.423   0.220
16246W        W81473  23.794  39.100  11.842
16247W        W81474  10.727  24.688   4.333
16248W        W81475  27.069  30.702  14.449
16249W        W81476   0.688  41.661   1.936
16250W        W81477  10.926  16.509   3.113
16251W        W81478  22.304  12.324   2.332
16252W        W81479  11.903  18.328  11.637
16253W        W81480  40.887  16.593  13.793
16254W        W81481  26.077  41.332   3.074
16255W        W81482   8.029  24.164   4.527
16256W        W81483  42.615   9.475  12.251
16257W        W81484  24.939   0.444   2.747
16258W        W81485  17.684  12.668  10.967
16259W        W81486  35.193   8.986  14.554
16260W        W81487  13.351   0.382   0.464
16261W        W81488  34.069  21.167  12.730
16262W        W81489  35.680  19.652   3.446
16263W        W81490   4.324  34.095   2.895
16264W        W81491  25.291  37.116   2.200
16265W        W81492  14.063  29.946  14.991
16266W        W81493  16.126  33.377  13.785
16267W        W81494  24.157  25.134   3.454
16268W        W81495   9.425  35.906   5.021
16269W        W81496   4.644   6.429   5.063
16270W        W81497  33.148  19.191   3.261
16271W        W81498   3.672  20.636   1.747
16272W        W81499  41.499  40.621   4.202
16273W        W81500  42.987  11.106  11.759
16274W        W81501  17.213  32.480   3.651
16275W        W81502  26.411  34.224  13.995
16276W        W81503  37.040  43.994  12.082
16277W        W81504   4.549  25.555  14.336
16278W        W81505   1.145  41.598   0.810
16279W        W81506  36.104  17.486   0.343
16280W        W81507  20.987  44.022   2.606
16281W        W81508   4.963  10.196   1.022
16282W        W81509  17.034  39.515  10.998
16283W        W81510  26.160  35.812  12.902
16284W        W81511   8.229   6.567   2.825
16285W        W81512  13.298  16.179  13.875
16286W        W81513  10.767  28.225   1.734
16287W        W81514   2.169  15.089   3.022
16288W        W81515  40.356  26.625   3.162
16289W        W81516  26.648  43.874  14.296
16290W        W81517   3.297  12.839   2.201
16291W        W81518  40.432   8.135   1.679
16292W        W81519  22.791  41.438   1.168
16293W        W81520  23.279  28.087  12.873
16294W        W81521  31.000   4.674   4.571
16295W        W81522   4.482   7.155  11.378
16296W        W81523  44.814   5.237   2.379
16297W        W81524  29.003  36.848  12.079
16298W        W81525  15.185  43.578   2.159
16299W        W81526  23.629  36.275   2.663
16300W        W81527   0.440   2.455  10.842
16301W        W81528  11.614  39.836   0.232
16302W        W81529  27.111  11.379  13.248
16303W        W81530  19.904  22.693  11.201
16304W        W81531  33.353   9.220   1.307
16305W        W81532  42.884  41.865  12.642
16306W        W81533  31.643  44.835   3.626
16307W        W81534  15.444  37.030  13.989
16308W        W81535   8.651  34.615   0.161
16309W        W81536  27.364  20.572   3.545
16310W        W81537  33.103  24.461  11.668
16311W        W81538  23.845   6.740   0.655
16312W        W81539   2.589  30.199   2.817
16313W        W81540   8.309  25.535   0.285
16314W        W81541  22.204   3.433   1.282
16315W        W81542  18.181  14.775  13.837
16316W        W81543   2.034  44.548   1.852
16317W        W81544  37.334   4.258   3.098
16318W        W81545  32.370  15.062  13.946
16319W        W81546  32.315  38.915   4.942
16320W        W81547  15.622   9.288  14.037
16321W        W81548  22.815  33.942   4.739
16322W        W81549  38.840   8.117   1.826
16323W        W81550  25.701  15.559  11.884
16324W        W81551  32.179   9.697  10.416
16325W        W81552  15.729   8.204   2.957
16326W        W81553  16.266  23.448  11.668
16327W        W81554  38.090  34.502  12.428
16328W        W81555  22.215   1.753   0.400
16329W        W81556  17.764  10.586   4.159
16330W        W81557  10.599  22.019  10.982
16331W        W81558  16.841  29.460  14.080
16332W        W81559   4.816  19.570  14.362
16333W        W81560  12.417  40.055   0.824
16334W        W81561  31.032  11.650  12.001
16335W        W81562  20.575  35.891   0.721
16336W        W81563   8.757   7.120  10.759
16337W        W81564   2.563  31.905  10.388
16338W        W81565  31.018   6.235  11.186
16339W        W81566   3.784   1.304   2.228
16340W        W81567  20.536  11.406   0.341
16341W        W81568  29.090  39.004   0.182
16342W        W81569  18.390   8.083  11.666
16343W        W81570  29.384  27.063   0.194
16344W        W81571  14.273   8.877  11.046
16345W        W81572  10.180  26.091  13.347
16346W        W81573  20.878  12.758  10.674
16347W        W81574  16.696  11.483  12.822
16348W        W81575  11.684  29.660   3.728
16349W        W81576  39.534  37.580   3.160
16350W        W81577  14.719   5.029   0.899
16351W        W81578   3.957  31.176  11.179
16352W        W81579  29.489  19.820  14.830
16353W        W81580   3.850  19.000  12.967
16354W        W81581  31.133  24.188  12.239
16355W        W81582  15.729  26.615  14.906
16356W        W81583  19.336   3.013  11.500
16357W        W81584  27.139  39.862  14.114
16358W        W81585  37.890   1.865   4.158
16359W        W81586   7.571   9.789  14.527
16360W        W81587   1.994   0.750   3.056
16361W        W81588   6.349  44.982  11.788
16362W        W81589  34.989  26.265   1.631
16363W        W81590  43.318  21.884   2.736
16364W        W81591  42.739   2.313   2.207
16365W        W81592   7.473  14.852   1.618
16366W        W81593  28.105  10.719  13.934
16367W        W81594  38.083  44.919  11.863
16368W        W81595  25.910  36.536   4.451
16369W        W81596   1.904   9.119  11.057
16370W        W81597  35.456  30.161   2.852
16371W        W81598  14.376  44.451  12.896
16372W        W81599  25.753  20.640  14.658
16373W        W81600  41.406  25.062   1.381
16374W        W81601  43.491  24.704   1.773
16375W        W81602  26.931  17.847  13.214
16376W        W81603  19.219  27.957  11.666
16377W        W81604   1.267  29.583   3.648
16378W        W81605  26.850  10.228  13.291
16379W        W81606  15.759  19.262   1.806
16380W        W81607   2.831   5.001  14.210
16381W        W81608  28.565   6.711   4.208
16382W        W81609  38.843  36.127  13.002
16383W        W81610   4.362   2.203  14.889
16384W        W81611  30.560  32.150   5.081
16385W        W81612  31.070   7.887  13.889
16386W        W81613  15.764   4.638   2.711
16387W        W81614  27.542  39.458   3.320
16388W        W81615  41.315  20.775   2.446
16389W        W81616   9.150   8.892  10.381
16390W        W81617   0.395  43.593   1.698
16391W        W81618   2.478  38.025  13.033
16392W        W81619  35.383  31.036  13.506
16393W        W81620   0.906  19.613   1.916
16394W        W81621  12.528  33.466   0.993
16395W        W81622  14.994  43.918   3.271
16396W        W81623  25.577   6.835  11.118
16397W        W81624  27.006  43.898   2.646
16398W        W81625  32.429   6.215   1.992
16399W        W81626  38.720   9.911  12.925
16400W        W81627   0.811  28.440   0.361
16401W        W81628  33.144  17.465   1.334
16402W        W81629  41.372  23.935   0.910
16403W        W81630  15.025  26.645   2.661
16404W        W81631  43.079  41.311  14.364
16405W        W81632  23.917   2.319   4.527
16406W        W81633   4.600  41.641  12.102
16407W        W81634  39.040  37.331  12.323
16408W        W81635  27.523  33.597  14.366
16409W        W81636  23.102  21.642   3.903
16410W        W81637   8.427  14.137  11.158
16411W        W81638   2.866  14.942   3.568
16412W        W81639  42.430   3.910   4.368
16413W        W81640  27.717  42.585  10.725
16414W        W81641   3.738  17.654   1.738
16415W        W81642  29.536  15.297  13.489
16416W        W81643  34.335  20.270   0.297
16417W        W81644   2.071  14.413  10.398
16418W        W81645  25.422  23.546   5.040
16419W        W81646  15.346   7.358  11.605
16420W        W81647  12.347  44.005   3.969
16421W        W81648   0.201   2.287   3.249
16422W        W81649   5.437  32.966  14.927
16423W        W81650   8.073  18.805  12.140
16424W        W81651  28.360  10.219   4.930
16425W        W81652  16.596  12.715   2.289
16426W        W81653   8.884  13.683   3.718
16427W        W81654   3.823  41.977   2.822
16428W        W81655  34.692  43.853  13.052
16429W        W81656  31.403   2.883  10.458
16430W        W81657  11.260   9.802  12.890
16431W        W81658  27.932  15.764   0.827
16432W        W81659   8.721  28.154   3.060
16433W        W81660  35.051  26.663   0.815
16434W        W81661  24.159  25.136   0.463
16435W        W81662  13.456  43.899  12.499
16436W        W81663  37.584   4.214   2.646
16437W        W81664   3.072  12.651  12.945
16438W        W81665   5.268   4.300   4.374
16439W        W81666  29.360   2.153  13.494
16440W        W81667  15.686   2.704   2.848
16441W        W81668   0.360  28.020  14.925
16442W        W81669  26.740   0.510   0.234
16443W        W81670  21.071   9.264  12.966
16444W        W81671  16.578   2.944  12.961
16445W        W81672  15.379  37.685  12.951
16446W        W81673  14.701   2.226  13.193
16447W        W81674  44.043  31.122  11.200
16448W        W81675  15.898   0.317  14.684
16449W        W81676  10.802   2.035  11.997
16450W        W81677  20.042  15.015   0.027
16451W        W81678  15.201  34.887  10.711
16452W        W81679  26.591  12.533  14.854
16453W        W81680   6.827  10.831  12.124
16454W        W81681   6.680   9.804  10.819
16455W        W81682  19.045  20.489   2.311
16456W        W81683  28.957  14.455  10.203
16457W        W81684  30.437  13.906  12.864
16458W        W81685   8.881  41.932   5.054
16459W        W81686  21.670  18.799  13.422
16460W        W81687  33.444  33.940  12.437
16461W        W81688  19.912  16.097   0.204
16462W        W81689  44.905  27.642   1.455
16463W        W81690  24.458  40.163   2.265
16464W        W81691  30.118  39.607  14.296
16465W        W81692  27.431  32.612   2.361
16466W        W81693  32.208  19.516   3.714
16467W        W81694  24.042  32.599   3.449
16468W        W81695  44.975  17.816  14.266
16469W        W81696  33.609  13.130  11.682
16470W        W81697  25.165  25.021  12.011
16471W        W81698  37.550  39.207  12.568
16472W        W81699  31.086  31.519   1.841
16473W        W81700  12.322  44.934   1.706
16474W        W81701  29.964   0.891  10.912
16475W        W81702  24.603  14.605   1.186
16476W        W81703  15.107   4.810   3.290
16477W        W81704   2.240  44.867   3.590
16478W        W81705  32.939  43.175   2.056
16479W        W81706  38.818  17.202  11.610
16480W        W81707   8.938  18.649  12.066
16481W        W81708  21.064  33.338  10.692
16482W        W81709  10.826  42.964   2.833
16483W        W81710  29.100   3.213   0.846
16484W        W81711  24.553  19.959   5.006
16485W        W81712  18.202  10.419  14.648
16486W        W81713  10.809  13.607   4.001
16487W        W81714  43.484   5.256   1.751
16488W        W81715  31.431  44.307   3.446
16489W        W81716  24.205   9.152   2.861
16490W        W81717  23.588  11.802   2.354
16491W        W81718  18.183  23.457  11.603
16492W        W81719   0.099   6.789  12.799
16493W        W81720  43.279  38.138   2.247
16494W        W81721  27.571  30.513  14.600
16495W        W81722  32.145  21.958   2.789
16496W        W81723  13.038   7.799  10.515
16497W        W81724   8.400  15.511  13.149
16498W        W81725  23.781  34.074  11.994
16499W        W81726  21.451  16.991  13.896
16500W        W81727   0.261  44.342   2.617
16501W        W81728   7.765  13.506   3.890
16502W        W81729  12.408  18.747  11.745
16503W        W81730  11.176  20.129  11.560
16504W        W81731  12.491  15.318  12.118
16505W        W81732  41.302  29.885  12.462
16506W        W81733  31.693  12.642  13.568
16507W        W81734  28.362  37.107   2.855
16508W        W81735  20.768  40.465  14.154
16509W        W81736  21.402  39.981  11.191
16510W        W81737   5.980   1.533   3.815
16511W        W81738  31.420  33.986  14.090
16512W        W81739  41.963   7.441  12.016
16513W        W81740  38.092  41.956  12.857
16514W        W81741  13.083  22.342   1.544
16515W        W81742  35.583   7.240  12.640
16516W        W81743  12.905   9.261   3.777
16517W        W81744   1.261   8.126  10.751
16518W        W81745  32.838   6.026  14.587
16519W        W81746  31.961  22.578  13.099
16520W        W81747  43.350  32.937   2.460
16521W        W81748  36.597  41.864   0.268
16522W        W81749  21.056   3.178  11.335
16523W        W81750  26.478  21.008  11.203
16524W        W81751  23.606  40.748   0.352
16525W        W81752  21.580  33.109  13.874
16526W        W81753  41.712  16.229  13.491
16527W        W81754  28.167  18.590  12.333
16528W        W81755  16.960   8.707   3.265
16529W        W81756  39.762  24.565   0.299
16530W        W81757   0.255   8.734   0.261
16531W        W81758  38.461  41.856  12.498
16532W        W81759  44.842  16.913   4.180
16533W        W81760  41.442  13.250   1.538
16534W        W81761  21.536  39.986  13.060
16535W        W81762  44.957  17.153  14.849
16536W        W81763  42.672  33.154  12.599
16537W        W81764  36.961  43.448   2.322
16538W        W81765  10.327   8.609  13.693
16539W        W81766  25.608  21.039   4.071
16540W        W81767  37.670  27.091  14.344
16541W        W81768  27.483  22.200  12.996
16542W        W81769   1.335  11.718  12.304
16543W        W81770  25.952  11.626   2.581
16544W        W81771   0.744  40.877   4.840
16545W        W81772  27.214  20.993   0.318
16546W        W81773  38.243  43.611  14.195
16547W        W81774   2.111  36.907   4.676
16548W        W81775  30.991  19.704   0.300
16549W        W81776   8.951  40.788   2.924
16550W        W81777  43.819  21.228   5.180
16551W        W81778  12.155  31.184  11.602
16552W        W81779  43.513  29.994  14.233
16553W        W81780  38.070  10.752   3.324
16554W        W81781  16.283  38.185   0.692
16555W        W81782  31.920  38.949  11.706
16556W        W81783  40.067   8.250  14.490
16557W        W81784   5.965   0.873   4.989
16558W        W81785  29.106   2.698   0.880
16559W        W81786  18.699  21.146   3.527
16560W        W81787  10.323  43.054   1.826
16561W        W81788   8.884   0.966   4.184
16562W        W81789  28.536  18.801  12.024
16563W        W81790  37.158   9.199  11.045
16564W        W81791  31.533  34.155   3.245
16565W        W81792  35.767   6.734   1.842
16566W        W81793   5.665  28.605  13.026
16567W        W81794  34.669  14.943   0.133
16568W        W81795  12.572   3.717   2.852
16569W        W81796   1.666   7.728  11.419
16570W        W81797  18.492  33.817   4.310
16571W        W81798  34.266  17.271  14.133
16572W        W81799  23.366  26.036  11.321
16573W        W81800  20.566  24.072  12.475
16574W        W81801  41.978   8.191   3.196
16575W        W81802   9.916  44.450   2.756
16576W        W81803  25.603  24.580  14.498
16577W        W81804  35.586  18.136  14.488
16578W        W81805  26.681   7.298   5.131
16579W        W81806  43.499  32.644   3.324
16580W        W81807  44.457  11.125  14.022
16581W        W81808  12.331   4.194   4.512
16582W        W81809  24.207  40.108   1.794
16583W        W81810  20.538  41.577  11.569
16584W        W81811  25.967  28.142  14.845
16585W        W81812   2.291   0.912  12.673
16586W        W81813  19.664   7.761   0.316
16587W        W81814   7.619  32.150  14.209
16588W        W81815  21.540  15.929   3.868
16589W        W81816  41.620   9.601  14.293
16590W        W81817  16.844   9.810  13.829
16591W        W81818  43.419  22.000  10.973
16592W        W81819  26.519   9.633  10.661
16593W        W81820  12.911  20.558  12.020
16594W        W81821   2.677  19.119   4.279
16595W        W81822   7.429  13.714  13.431
16596W        W81823  18.697  28.213   1.872
16597W        W81824  36.612   7.299  12.411
16598W        W81825  11.325  42.053  10.725
16599W        W81826  44.835   1.718   4.879
16600W        W81827   7.433  42.885   0.968
16601W        W81828  31.315  40.811  14.940
16602W        W81829  43.718  44.407   0.876
16603W        W81830  31.722  18.634  13.396
16604W        W81831  25.428  12.600   4.034
16605W        W81832  32.681  31.003  11.948
16606W        W81833   0.303  35.972   0.635
16607W        W81834  21.489   8.676   3.112
16608W        W81835  10.499  28.493   3.384
16609W        W81836  20.341   3.611   2.436
16610W        W81837   5.785  37.997   0.777
16611W        W81838  21.602  22.824  12.612
16612W        W81839  36.624   7.331  14.505
16613W        W81840  37.892  20.807  11.710
16614W        W81841   3.506  18.169   0.512
16615W        W81842   7.378   3.713   1.845
16616W        W81843  26.995  28.634  10.207
16617W        W81844   0.704  25.905  11.072
16618W        W81845  23.752  27.756   2.309
16619W        W81846  25.012  22.620   3.393
16620W        W81847  37.107  27.383  10.871
16621W        W81848   5.683  43.231   1.229
16622W        W81849  12.623  44.002  14.319
16623W        W81850  43.493   0.844  13.488
16624W        W81851   0.719   3.263  13.484
16625W        W81852   5.653   3.420   4.137
16626W        W81853  29.178  31.923  13.893
16627W        W81854   5.760  24.153   0.396
16628W        W81855  24.841  30.492  13.641
16629W        W81856   3.108  10.208  11.522
16630W        W81857  20.100  31.512   0.684
16631W        W81858   7.462  26.211   1.720
16632W        W81859  37.095  20.727   0.915
16633W        W81860  15.542  13.662   2.394
16634W        W81861  37.581  21.594   2.751
16635W        W81862  38.953  15.214  12.330
16636W        W81863  24.647  10.642   0.911
16637W        W81864  41.521  41.611   0.294
16638W        W81865  23.026  23.596  14.014
16639W        W81866   5.261  14.814   4.126
16640W        W81867   9.115   1.765   2.003
16641W        W81868  41.346  33.606  12.567
16642W        W81869  35.598  16.983   3.665
16643W        W81870  31.392  23.251   1.330
16644W        W81871  10.904  31.944  13.474
16645W        W81872  38.313  10.672  12.615
16646W        W81873  31.918  37.875   2.318
16647W        W81874   0.010  12.556  12.056
16648W        W81875   5.984  14.509   4.545
16649W        W81876   9.213  34.439   0.402
16650W        W81877  10.102  43.923  14.467
16651W        W81878  28.821   2.189   2.794
16652W        W81879   6.093  37.665  11.340
16653W        W81880  19.438  28.037   3.248
16654W        W81881  25.131  12.724   3.288
16655W        W81882   7.425  43.363   3.150
16656W        W81883  42.647   2.947   3.519
16657W        W81884   9.525  16.239   0.809
16658W        W81885  12.089   8.622   0.710
16659W        W81886  27.511  29.154   3.316
16660W        W81887  16.731  21.760  14.382
16661W        W81888   9.761   9.834  10.654
16662W        W81889  15.694  29.504   0.392
16663W        W81890  44.481  39.394  10.894
16664W        W81891  22.216   4.315   1.298
16665W        W81892  24.942  25.192   2.153
16666W        W81893  39.117  44.796   3.225
16667W        W81894  38.358   3.537   0.456
16668W        W81895  38.438  44.524   4.585
16669W        W81896  31.717  21.115   0.788
16670W        W81897  40.772   3.735  11.501
16671W        W81898  23.122  39.295  13.285
16672W        W81899  29.644  25.180   1.223
16673W        W81900  14.976  35.855   1.537
16674W        W81901  41.835  24.002   4.502
16675W        W81902  28.542  22.540  13.518
16676W        W81903  36.641  39.226   4.970
16677W        W81904  31.654   7.968   3.724
16678W        W81905  25.094  27.151  14.860
16679W        W81906  12.048  41.342  13.498
16680W        W81907  21.507  12.422  11.551
16681W        W81908  44.975  22.146   1.719
16682W        W81909  34.387  16.481   3.885
16683W        W81910  32.641  25.656  14.191
16684W        W81911  44.352  25.682   4.269
16685W        W81912   1.498   6.311  13.422
16686W        W81913  35.285  19.747  13.535
16687W        W81914  19.403  19.167  13.347
16688W        W81915  15.617  32.104  13.104
16689W        W81916  43.196   1.849  13.451
16690W        W81917  30.107  23.145  10.391
16691W        W81918  21.536  26.603   1.504
16692W        W81919  22.870   5.861  11.145
16693W        W81920   4.281   7.257   2.233
16694W        W81921  37.472  36.680  11.865
16695W        W81922  35.465  13.311  14.866
16696W        W81923  39.276  29.770  13.381
16697W        W81924   8.798  33.133  10.563
16698W        W81925  18.271  43.985  12.411
16699W        W81926  38.038  41.958   4.133
16700W        W81927   3.336  18.358  14.116
16701W        W81928  12.392  44.452  11.883
16702W        W81929  40.598   7.443   3.112
16703W        W81930  15.846  38.472  13.747
16704W        W81931  31.858  13.147  14.899
16705W        W81932  42.068  30.960  11.315
16706W        W81933  38.440   3.530  11.502
16707W        W81934   8.808  22.517  11.758
16708W        W81935  12.787  30.378   4.284
16709W        W81936  37.813  41.902   1.408
16710W        W81937  18.568  37.592   1.791
16711W        W81938  40.004   3.045  10.122
16712W        W81939  26.250   4.392  11.186
16713W        W81940  21.593  12.506   2.671
16714W        W81941  36.391  13.868  14.967
16715W        W81942  40.194   8.276  12.793
16716W        W81943  20.179  34.008  13.828
16717W        W81944  16.193  14.106  11.381
16718W        W81945  31.259  16.118  14.453
16719W        W81946  18.811   3.341   2.183
16720W        W81947  43.951   8.125   4.101
16721W        W81948  32.156  10.986  12.032
16722W        W81949  22.616  30.995   2.762
16723W        W81950  14.608  34.284   2.862
16724W        W81951   0.867  29.992  13.867
16725W        W81952  38.338  22.311  12.537
16726W        W81953   9.222   4.767   3.573
16727W        W81954  30.065  34.172   1.525
16728W        W81955  17.763  25.446  12.994
16729W        W81956  12.684   3.874   2.234
16730W        W81957   4.732  16.619  14.046
16731W        W81958  19.552  14.796   0.941
16732W        W81959  40.284  28.237   4.308
16733W        W81960  13.347   4.490   1.589
16734W        W81961   9.587   7.787  11.825
16735W        W81962  42.416  43.090  13.974
16736W        W81963   5.520   6.554  11.273
16737W        W81964  29.160   6.220  12.049
16738W        W81965  25.210  22.718  13.375
16739W        W81966  13.079  12.235   1.147
16740W        W81967  17.249   3.511  12.065
16741W        W81968  34.965  18.247  13.459
16742W        W81969  33.029   7.816  12.722
16743W        W81970  25.088   2.229  12.995
16744W        W81971  36.345   8.100   2.797
16745W        W81972  15.902  33.660   4.145
16746W        W81973   6.135  40.292   3.159
16747W        W81974  30.726  25.118  13.441
16748W        W81975  32.311  39.434  12.855
16749W        W81976  19.746  29.699   0.276
16750W        W81977  35.320   9.215  11.840
16751W        W81978  36.553  22.643   3.657
16752W        W81979   8.171   9.181  12.944
16753W        W81980  38.104  13.060  12.878
16754W        W81981   2.978  15.689  10.480
16755W        W81982  30.660  24.899  14.796
16756W        W81983  29.935  35.983   0.393
16757W        W81984   3.512  40.323   3.083
16758W        W81985  38.263  13.774  10.742
16759W        W81986  14.865  30.358   3.472
16760W        W81987  18.553   5.471   0.895
16761W        W81988  18.973  22.731  10.346
16762W        W81989  27.983  24.093  13.356
16763W        W81990  34.720  25.352   1.428
16764W        W81991  39.916   2.364  12.270
16765W        W81992   9.240   2.474   0.919
16766W        W81993  13.419   8.371   0.047
16767W        W81994  31.362   9.193   3.229
16768W        W81995   0.874   7.191  11.609
16769W        W81996  11.237  10.271   0.731
16770W        W81997  33.811  16.260   1.850
16771W        W81998   7.826  34.975  10.684
16772W        W81999  25.094   4.953  13.921
16773W        W82000  17.675  11.286  11.211
16774W        W82001  38.123   7.816   0.321
16775W        W82002  44.927  26.525   3.547
16776W        W82003  10.477  14.917   3.380
16777W        W82004  32.394  38.067   2.305
16778W        W82005  23.823  10.015   3.196
16779W        W82006   9.847  30.490  14.301
16780W        W82007  37.744  39.824  11.631
16781W        W82008   4.826   2.276   0.684
16782W        W82009  42.414  36.637  10.464
16783W        W82010   0.793  33.629   1.766
16784W        W82011  20.146  40.698   1.749
16785W        W82012  26.232   8.697   0.272
16786W        W82013  18.318  29.453  12.820
16787W        W82014  28.494  44.454   3.214
16788W        W82015   9.900  31.638  12.287
16789W        W82016   9.656  23.683  14.040
16790W        W82017  25.158  22.900  11.592
16791W        W82018  20.534  16.504  12.035
16792W        W82019  35.629   0.417   0.062
16793W        W82020  24.759  19.287  10.484
16794W        W82021  34.343  44.899   4.597
16795W        W82022  20.230  40.268   0.358
16796W        W82023   6.185  26.984  13.013
16797W        W82024  40.594  29.049   3.734
16798W        W82025  42.850  22.694  13.020
16799W        W82026  21.527  34.220   2.192
16800W        W82027  15.650  10.281   2.883
16801W        W82028  43.251  31.299   3.257
16802W        W82029  17.082   1.994   3.661
16803W        W82030  15.182   1.965  12.145
16804W        W82031  11.597   0.045   0.262
16805W        W82032  24.960  34.632   1.375
16806W        W82033  33.077  25.147  10.644
16807W        W82034  37.041  24.128   1.782
16808W        W82035  33.643   0.691   1.307
16809W        W82036   6.392  33.503  12.419
16810W        W82037  25.159  35.110  12.669
16811W        W82038  13.912   7.346   2.296
16812W        W82039  22.356   9.984   3.884
16813W        W82040  30.372  11.208   3.699
16814W        W82041  19.052  27.581  13.895
16815W        W82042  14.036  38.943  11.640
16816W        W82043  26.059  39.260  11.417
16817W        W82044  35.859  39.824   0.747
16818W        W82045  37.231  38.283  10.280
16819W        W82046  23.614  32.117   4.040
16820W        W82047  14.194   9.863  14.025
16821W        W82048  16.836   9.692   4.606
16822W        W82049  25.463  26.664   1.381
16823W        W82050  25.502  18.116  13.294
16824W        W82051   6.454  28.850  12.821
16825W        W82052  37.559  17.140  14.535
16826W        W82053  38.363  32.839  14.166
16827W        W82054   8.191  31.448  14.002
16828W        W82055   8.919  23.712   1.244
16829W        W82056  10.126  32.738  11.648
16830W        W82057  36.408  23.109  12.268
16831W        W82058   7.184  18.004  11.908
16832W        W82059  30.552  42.087   3.334
16833W        W82060  35.600   0.829  12.441
16834W        W82061  13.341  26.733   4.791
16835W        W82062  21.889   8.841   4.196
16836W        W82063   1.738   6.778  12.957
16837W        W82064  10.198  20.500  11.546
16838W        W82065   0.033  35.986   3.387
16839W        W82066  35.288  29.447  12.406
16840W        W82067   2.069  27.525  10.314
16841W        W82068  33.253  16.624   1.303
16842W        W82069  10.203   3.494   3.362
16843W        W82070  35.902  36.377  13.342
16844W        W82071  42.535   8.400  14.792
16845W        W82072   1.379   9.869   1.369
16846W        W82073  25.151   7.408   3.480
16847W        W82074  43.637  25.773  10.625
16848W        W82075  31.785  10.919   2.254
16849W        W82076  35.516  13.566   1.721
16850W        W82077  25.697  25.227   4.453
16851W        W82078  20.080  21.543   1.744
16852W        W82079  24.002  20.629   4.612
16853W        W82080  40.809   5.364   0.240
16854W        W82081  36.245   5.838   0.832
16855W        W82082  43.458  12.323  14.489
16856W        W82083  38.558   3.410   1.761
16857W        W82084  17.277  33.634   0.025
16858W        W82085  29.528  14.602  13.871
16859W        W82086  26.546  24.247   2.256
16860W        W82087   3.673   5.575   4.104
16861W        W82088  11.348  32.486  14.259
16862W        W82089  43.248  33.327  10.966
16863W        W82090  35.917  19.665  13.776
16864W        W82091   3.279  35.589   1.724
16865W        W82092  27.436  24.665  11.570
16866W        W82093  27.722  36.383  14.772
16867W        W82094   3.304  42.053   0.739
16868W        W82095  10.319  22.383  12.433
16869W        W82096  27.927  38.483  14.531
16870W        W82097  16.783  41.186   3.620
16871W        W82098   1.751  12.946  14.828
16872W        W82099  41.361  20.285  14.932
16873W        W82100  14.106   4.647   3.195
16874W        W82101  12.596   9.924   3.657
16875W        W82102  18.790  19.797  14.370
16876W        W82103   8.845  21.113   1.299
16877W        W82104  16.955   9.653   0.261
16878W        W82105  10.711  24.569  12.988
16879W        W82106  12.060  40.616  14.426
16880W        W82107  44.756  44.561   0.984
16881W        W82108  30.708  41.024   2.307
16882W        W82109  31.887  34.272  14.029
16883W        W82110  37.152  23.454  13.923
16884W        W82111  34.937  25.967   3.679
16885W        W82112  20.773   9.673   2.829
16886W        W82113  40.528  16.055  14.979
16887W        W82114  30.510   1.101   3.327
16888W        W82115  31.588  37.466   2.341
16889W        W82116  37.939  16.845   1.719
16890W        W82117  11.801  26.224  11.072
16891W        W82118  11.893  40.411  12.044
16892W        W82119  15.234  39.971   0.381
16893W        W82120  28.492  10.854   0.462
16894W        W82121  11.226  37.789   0.075
16895W        W82122   7.662  21.154  10.670
16896W        W82123  16.355  21.197   3.806
16897W        W82124  24.025  12.462   4.615
16898W        W82125   4.094  16.493  12.997
16899W        W82126  39.884  11.285  12.072
16900W        W82127  42.321   7.086  14.268
16901W        W82128  29.898  44.565  10.401
16902W        W82129  43.782  12.863   1.780
16903W        W82130  21.382  34.277  11.085
16904W        W82131  36.252   6.149  11.218
16905W        W82132  35.384  44.547  12.788
16906W        W82133  30.859   0.962   1.269
16907W        W82134  33.788  44.117   3.158
16908W        W82135  17.018   0.858   1.741
16909W        W82136  40.993   6.865   9.743
16910W        W82137  10.218   7.776  11.040
16911W        W82138  16.256   4.753  12.952
16912W        W82139  13.179  31.764   2.920
16913W        W82140   2.317  29.346   5.350
16914W        W82141  12.126  30.426   2.683
16915W        W82142   5.483  40.210  14.574
16916W        W82143   8.860  17.520  14.445
16917W        W82144  34.923  28.663  12.398
16918W        W82145  37.486  18.621   0.025
16919W        W82146  44.722  42.847   1.904
16920W        W82147  17.553  14.357  14.056
16921W        W82148  33.437  32.154  14.341
16922W        W82149   0.211  22.738   3.943
16923W        W82150  35.824   0.459  10.869
16924W        W82151  13.549  31.030  12.004
16925W        W82152  30.944  15.609  11.686
16926W        W82153  19.057  16.498  10.735
16927W        W82154  38.834  22.421   3.163
16928W        W82155  21.400   6.639   3.201
16929W        W82156   7.112  17.394   2.298
16930W        W82157  38.572  26.929  13.402
16931W        W82158  32.382   9.116   0.414
16932W        W82159   3.028   9.525  13.121
16933W        W82160  39.984  35.676   0.772
16934W        W82161  15.179  31.044   2.722
16935W        W82162  13.787  17.634   1.394
16936W        W82163   7.790  11.734  10.772
16937W        W82164  35.442  42.478  10.554
16938W        W82165   7.409   9.442  11.387
16939W        W82166   9.638   6.064  11.157
16940W        W82167   9.663  26.721  10.826
16941W        W82168  43.814  34.460   3.899
16942W        W82169  11.881  31.625   3.686
16943W        W82170   6.109  25.417  14.540
16944W        W82171  40.327  43.336  12.924
16945W        W82172  13.222  42.018   1.364
16946W        W82173   2.989  33.906  13.293
16947W        W82174  17.951  41.191   3.215
16948W        W82175  38.898  33.383   4.335
16949W        W82176  44.827   9.120  11.614
16950W        W82177  21.336  20.595   2.654
16951W        W82178  30.406  33.132   1.925
16952W        W82179   1.288  22.075   0.451
16953W        W82180  22.930  16.112   1.007
16954W        W82181  43.018   5.246   2.696
16955W        W82182  28.456   4.906  14.459
16956W        W82183  29.293  22.709  11.493
16957W        W82184   0.527  35.844  14.842
16958W        W82185  33.244  40.322   3.770
16959W        W82186  12.632   2.670  12.110
16960W        W82187   4.646   5.043  10.193
16961W        W82188  22.941  29.265   0.407
16962W        W82189  26.319   4.516   3.322
16963W        W82190   9.281  34.391  13.474
16964W        W82191   8.685  27.581  12.379
16965W        W82192  23.453   4.847   0.927
16966W        W82193   2.199  18.680  11.626
16967W        W82194  15.264  15.637   1.432
16968W        W82195  31.020  28.831  14.005
16969W        W82196   8.884   3.207  14.976
16970W        W82197  16.672  30.206  10.721
16971W        W82198  38.820  37.947   4.591
16972W        W82199  33.322   2.776   0.673
16973W        W82200  29.372  11.763   0.727
16974W        W82201  19.743  35.551   0.438
16975W        W82202   8.945  38.659  14.102
16976W        W82203   6.763  37.522  13.408
16977W        W82204   8.970  27.075  13.453
16978W        W82205   4.891   0.015   1.176
16979W        W82206  41.172  24.798  11.228
16980W        W82207  33.391   6.231   0.924
16981W        W82208  39.276  12.688   0.451
16982W        W82209  42.903  39.314  10.592
16983W        W82210  44.566  33.903   3.323
16984W        W82211   1.046  18.383  12.679
16985W        W82212  39.747   5.775  12.338
16986W        W82213  20.728  37.784   4.720
16987W        W82214  20.969  39.525   3.849
16988W        W82215   4.522   6.300  11.370
16989W        W82216   9.692  41.035  11.598
16990W        W82217  13.721  37.011   1.701
16991W        W82218  28.532  12.011   2.603
16992W        W82219  22.994  21.684   3.412
16993W        W82220  20.999  42.319   0.208
16994W        W82221  35.419  11.218  14.230
16995W        W82222  20.050  21.615  14.424
16996W        W82223  39.050  11.133  13.296
16997W        W82224  25.738  38.993   0.339
16998W        W82225  41.454   2.747  11.519
16999W        W82226  27.040   9.677  13.964
17000W        W82227  19.668  34.563   3.624
17001W        W82228   0.902  21.302  14.289
17002W        W82229  34.055  34.043  14.496
17003W        W82230  21.564  10.402  10.748
17004W        W82231   1.751  25.074  10.739
17005W        W82232  23.637   9.250   4.664
17006W        W82233  19.986  34.968  13.342
17007W        W82234  13.635  35.478   0.587
17008W        W82235  18.187  17.130  14.609
17009W        W82236  35.385  18.232   3.159
17010W        W82237  25.267  29.876  12.077
17011W        W82238  36.679  34.459   3.726
17012W        W82239  17.738  33.663  12.450
17013W        W82240  19.651   6.684   0.385
17014W        W82241  12.225  26.395  11.308
17015W        W82242  30.041  35.743  12.999
17016W        W82243  26.275  16.244   2.776
17017W        W82244  23.919  18.654   3.605
17018W        W82245  19.250   4.718  11.837
17019W        W82246  43.531  22.755   2.898
17020W        W82247  28.884  19.100  10.734
17021W        W82248  15.449  22.221   3.126
17022W        W82249  17.101  23.910   3.718
17023W        W82250  15.072  42.844   2.746
17024W        W82251  36.933  10.643   1.159
17025W        W82252  22.511  33.633   0.544
17026W        W82253  20.467  10.279   1.627
17027W        W82254  17.669   4.904   0.488
17028W        W82255  28.740  36.502  10.310
17029W        W82256  23.650  35.019  12.188
17030W        W82257  31.812  13.727   3.007
17031W        W82258  28.011  26.099   3.051
17032W        W82259  39.323  24.342   2.767
17033W        W82260  21.353  28.039   0.214
17034W        W82261  17.868  32.486   1.532
17035W        W82262  14.689  27.365   4.679
17036W        W82263  24.211  22.689   0.284
17037W        W82264  36.938  35.625  14.486
17038W        W82265  41.490  15.120  14.446
17039W        W82266  34.160  19.965  11.677
17040W        W82267  24.039  21.605  11.890
17041W        W82268  15.214  43.132  11.014
17042W        W82269  32.143   6.903  13.871
17043W        W82270   5.032  23.002   4.184
17044W        W82271  42.766   5.116   0.262
17045W        W82272  31.288  31.762   4.632
17046W        W82273  22.037  22.967   4.733
17047W        W82274  42.705  28.368  14.026
17048W        W82275  38.576  34.102  11.176
17049W        W82276  23.574  43.187   2.231
17050W        W82277  18.639  29.229  12.248
17051W        W82278  20.492  38.997   0.345
17052W        W82279  11.214   2.300   4.042
17053W        W82280  44.195  12.509   3.120
17054W        W82281  43.373   1.824   2.852
17055W        W82282  44.679   6.786   2.747
17056W        W82283   0.259  12.549  11.222
17057W        W82284  26.688  22.975  11.956
17058W        W82285  30.482   2.771  10.427
17059W        W82286  43.362  37.624   3.239
17060W        W82287   7.143  24.368   2.665
17061W        W82288  25.974  44.779   0.479
17062W        W82289  30.445  10.086  11.636
17063W        W82290  13.220  17.041  10.700
17064W        W82291   0.271  22.091   4.675
17065W        W82292  35.142   4.617  12.947
17066W        W82293   4.129  39.438   1.339
17067W        W82294   5.980  23.336  13.289
17068W        W82295  32.244   7.523  10.863
17069W        W82296  19.708  11.742   2.723
17070W        W82297  38.876  42.129   0.782
17071W        W82298  30.300  16.680   0.455
17072W        W82299  26.042  21.479   1.597
17073W        W82300  36.807  15.692   3.579
17074W        W82301   3.274  12.692  13.423
17075W        W82302   8.124  23.248   2.251
17076W        W82303  36.791  37.162  14.285
17077W        W82304  14.604  24.007   2.670
17078W        W82305  14.441  33.878  13.876
17079W        W82306  32.090   5.375   1.239
17080W        W82307  32.836  39.283  12.011
17081W        W82308  11.784  14.647  11.107
17082W        W82309   8.978   9.737   1.513
17083W        W82310  10.198   3.776  12.936
17084W        W82311  25.312  42.383  11.857
17085W        W82312   0.699  40.221   0.862
17086W        W82313  17.325  23.041   0.892
17087W        W82314  38.890  25.705   2.054
17088W        W82315  33.100  35.038  12.031
17089W        W82316  43.467   9.188   4.546
17090W        W82317   7.792   3.567  11.737
17091W        W82318   4.830   4.276   4.659
17092W        W82319  26.330  22.614   1.087
17093W        W82320  25.302  27.101  13.462
17094W        W82321  34.855  17.887  11.021
17095W        W82322  36.498  38.548   1.891
17096W        W82323  43.193  13.802   0.867
17097W        W82324  40.481  12.137  10.440
17098W        W82325   3.108   9.882  12.636
17099W        W82326  19.528  14.398   5.108
17100W        W82327  26.886  18.173   4.459
17101W        W82328   6.717  23.498  14.864
17102W        W82329   2.034  23.576   3.101
17103W        W82330  16.066   7.623   0.800
17104W        W82331  31.661  32.589   1.200
17105W        W82332   1.228  30.667  11.039
17106W        W82333  12.131  19.111   2.134
17107W        W82334   8.677  33.958  12.937
17108W        W82335  43.551   7.376   3.194
17109W        W82336  13.367  13.615   2.218
17110W        W82337  18.491   4.210   3.708
17111W        W82338  44.650  32.783   2.300
17112W        W82339  11.683  26.937   4.384
17113W        W82340  41.171  43.193  10.943
17114W        W82341  20.298   6.770  12.426
17115W        W82342  26.162  19.771   4.256
17116W        W82343   7.583  18.763  12.969
17117W        W82344  12.901  44.545  12.042
17118W        W82345  30.646  35.049  14.006
17119W        W82346  31.314  14.221  12.584
17120W        W82347  18.764  26.905   2.239
17121W        W82348  35.629  21.647   3.179
17122W        W82349  40.998  27.729   1.009
17123W        W82350  36.791  20.537  12.912
17124W        W82351  31.520  25.177   5.146
17125W        W82352  44.405  44.992  11.122
17126W        W82353   6.555  26.423   5.019
17127W        W82354  37.448  20.080   1.863
17128W        W82355  28.650  15.627  12.453
17129W        W82356   1.820  27.576  12.970
17130W        W82357  34.071  22.773   1.704
17131W        W82358   1.618  37.597   1.866
17132W        W82359  27.810  30.964  13.295
17133W        W82360  38.037  13.172   0.911
17134W        W82361  38.317  17.928  12.884
17135W        W82362  11.026  28.992  10.115
17136W        W82363  27.958  26.850   9.706
17137W        W82364   7.368  18.475  11.737
17138W        W82365  19.769  36.350   3.469
17139W        W82366  41.498  40.841   2.261
17140W        W82367   0.180  28.370  10.744
17141W        W82368  16.595  24.197   1.996
17142W        W82369  35.480  11.024  12.430
17143W        W82370  11.398   3.372  11.938
17144W        W82371   8.277  10.151   2.646
17145W        W82372  24.654  33.438   1.734
17146W        W82373  18.872  26.682  10.404
17147W        W82374   1.922  34.124   2.215
17148W        W82375  36.587  21.030   2.385
17149W        W82376  13.803  20.625   3.886
17150W        W82377  39.268  18.837  14.846
17151W        W82378  17.221   9.427   2.726
17152W        W82379  27.966  36.313  13.339
17153W        W82380  26.395   7.719   5.028
17154W        W82381  29.030  26.328  11.649
17155W        W82382  16.381  19.225  12.137
17156W        W82383   8.390  37.174  14.055
17157W        W82384  43.385  12.270  12.425
17158W        W82385  37.018  26.063  14.932
17159W        W82386   6.904  39.878  11.155
17160W        W82387  23.611  22.944   1.941
17161W        W82388  34.483  22.273  11.851
17162W        W82389  35.541  27.093  13.856
17163W        W82390  13.129  44.856   1.256
17164W        W82391  21.739  12.097   0.289
17165W        W82392   0.740   5.141  13.370
17166W        W82393  26.929   5.673   0.468
17167W        W82394  19.049   6.911   3.708
17168W        W82395  33.880  18.920   4.101
17169W        W82396  23.741   5.752  13.837
17170W        W82397  27.629   7.656   4.596
17171W        W82398  44.824  37.483   0.538
17172W        W82399  42.940   5.178   9.969
17173W        W82400  12.576  34.551  12.882
17174W        W82401   5.548  27.574   0.529
17175W        W82402   7.098  17.407   1.216
17176W        W82403  13.871  19.814  13.824
17177W        W82404  16.149  36.469   2.592
17178W        W82405  28.704  28.835   2.808
17179W        W82406   6.985   1.674   0.868
17180W        W82407  41.315  13.578  10.588
17181W        W82408  34.018  29.599   4.838
17182W        W82409   1.076  20.156  13.355
17183W        W82410   4.861   2.086  10.660
17184W        W82411  33.873  41.016  13.872
17185W        W82412  18.136  18.686   4.543
17186W        W82413  27.606  28.154   1.909
17187W        W82414   7.454  22.532  10.765
17188W        W82415  42.984   7.814   1.357
17189W        W82416  14.447  40.020   4.077
17190W        W82417  39.428   6.818  12.192
17191W        W82418  20.122   9.928  13.772
17192W        W82419  10.457  26.972  11.997
17193W        W82420  32.038  22.413   1.479
17194W        W82421  26.994   7.131   0.775
17195W        W82422   7.189  20.031   0.358
17196W        W82423  18.681  22.028  11.625
17197W        W82424  33.117   3.050  10.694
17198W        W82425  21.150  11.624  12.052
17199W        W82426  21.008  41.103  13.817
17200W        W82427  22.636  38.424   2.843
17201W        W82428  19.739  23.049  14.234
17202W        W82429  11.161   9.846  14.869
17203W        W82430  10.999   8.808   2.869
17204W        W82431  14.846  38.266   3.753
17205W        W82432  24.995   4.759  11.721
17206W        W82433  13.620  31.222  10.705
17207W        W82434  34.531  13.651  12.498
17208W        W82435  38.515   1.444   1.558
17209W        W82436  22.722  33.103   3.994
17210W        W82437  28.174  33.803  13.434
17211W        W82438  10.865  37.910  12.916
17212W        W82439  40.802  29.856   1.914
17213W        W82440   3.183  36.369   4.149
17214W        W82441  35.654   7.340   1.003
17215W        W82442   9.299  38.851   3.881
17216W        W82443  15.825  29.455   0.891
17217W        W82444  38.521  39.440   3.699
17218W        W82445   3.517  14.301  11.191
17219W        W82446  40.708  34.217  14.494
17220W        W82447  35.082  37.072  12.420
17221W        W82448  28.295  42.347   1.399
17222W        W82449  38.204   2.531  10.681
17223W        W82450   0.033   6.695  14.387
17224W        W82451  23.702  25.196   2.265
17225W        W82452  33.294   8.945  10.909
17226W        W82453  40.504  35.071  14.986
17227W        W82454  10.375  13.288   1.814
17228W        W82455  41.001   4.985   4.552
17229W        W82456  15.325   2.775   0.712
17230W        W82457  32.315   9.904  14.642
17231W        W82458  37.111  42.156   0.822
17232W        W82459  23.169  44.403  12.354
17233W        W82460   3.743   3.225   3.156
17234W        W82461   5.776   6.229   1.930
17235W        W82462  19.496  17.540   1.881
17236W        W82463   0.699   0.442   4.535
17237W        W82464   2.806  15.810   0.873
17238W        W82465  27.480  36.600   2.714
17239W        W82466   3.611  16.557   0.533
17240W        W82467   1.793  43.779  14.895
17241W        W82468  25.489  30.198  14.576
17242W        W82469  11.483   8.801  14.826
17243W        W82470  11.973   9.257  10.797
17244W        W82471   8.792  39.501   2.359
17245W        W82472  12.645   2.159  12.044
17246W        W82473  21.238  24.433   4.135
17247W        W82474   1.482  14.431   2.843
17248W        W82475   6.941  28.791   4.436
17249W        W82476  34.529  28.444   1.185
17250W        W82477  27.042  40.028  11.065
17251W        W82478  41.374  18.158   1.863
17252W        W82479   0.348  16.273   4.965
17253W        W82480  39.788  42.369   1.081
17254W        W82481  15.230   4.668   4.119
17255W        W82482  27.331  38.884  10.630
17256W        W82483  28.900  25.853   4.811
17257W        W82484   0.630  32.410   0.447
17258W        W82485  44.015  30.392  10.313
17259W        W82486  41.070   4.664   4.139
17260W        W82487  13.626  22.703   2.258
17261W        W82488  29.660   4.232   0.262
17262W        W82489   4.812  29.138  13.858
17263W        W82490  43.189  28.459  11.510
17264W        W82491  12.648  27.559   3.688
17265W        W82492   1.836  10.435  11.441
17266W        W82493  38.265  18.185  12.048
17267W        W82494   1.962  15.190   4.511
17268W        W82495  39.538   1.764  11.779
17269W        W82496   3.493   8.286   0.987
17270W        W82497  40.532   3.879   1.225
17271W        W82498  12.498   3.469  11.010
17272W        W82499  13.846  40.807   2.848
17273W        W82500  14.571  22.176   0.887
17274W        W82501  41.341  44.451  13.979
17275W        W82502  23.180  18.173  11.948
17276W        W82503   3.235  40.900   4.710
17277W        W82504  36.008  16.214  13.288
17278W        W82505  23.681  32.829   0.732
17279W        W82506  22.814  21.110   1.890
17280W        W82507  21.729  11.131   1.860
17281W        W82508  42.365  12.203   1.923
17282W        W82509   3.537  19.619   3.268
17283W        W82510  37.219  43.057  11.088
17284W        W82511   8.439  44.278  11.575
17285W        W82512   9.242  22.418  11.216
17286W        W82513  13.078   0.857  14.011
17287W        W82514   0.508  43.556  13.467
17288W        W82515   4.938  41.724  11.197
17289W        W82516  38.558  22.588   3.791
17290W        W82517  38.342   2.483  11.569
17291W        W82518  28.995  41.173  13.573
17292W        W82519  16.471  12.366   4.566
17293W        W82520   0.761  29.631  14.258
17294W        W82521   4.080  29.060  10.739
17295W        W82522  36.982  44.344   1.320
17296W        W82523  44.201   2.335   3.158
17297W        W82524  21.137  15.060   0.461
17298W        W82525   6.738  22.701   1.328
17299W        W82526  26.842  27.106  10.645
17300W        W82527  19.785  43.938   4.877
17301W        W82528  37.493  38.377   2.778
17302W        W82529  19.135  10.654   4.838
17303W        W82530   2.852  12.278   3.597
17304W        W82531  15.065  14.559  11.233
17305W        W82532  36.409   2.885  14.815
17306W        W82533  21.000   6.881   0.465
17307W        W82534   4.900  25.658  11.591
17308W        W82535  18.047  44.736  12.942
17309W        W82536  38.523  31.506   4.581
17310W        W82537  31.893  35.461   4.477
17311W        W82538   6.214  35.181   2.677
17312W        W82539  41.972   3.970  12.072
17313W        W82540  44.753  20.711  13.353
17314W        W82541   6.811  13.375   0.678
17315W        W82542  31.601  22.699   1.355
17316W        W82543  42.847  43.361  13.076
17317W        W82544   9.799  33.305   0.756
17318W        W82545   6.735  26.105  10.804
17319W        W82546  36.022   2.037  12.249
17320W        W82547  12.381  12.175  13.616
17321W        W82548  11.146   3.819   1.280
17322W        W82549  16.327  36.682   0.766
17323W        W82550  13.958  39.805  13.103
17324W        W82551   6.920  16.490  12.480
17325W        W82552  35.069  38.812   1.841
17326W        W82553  34.874  14.120  14.040
17327W        W82554  36.930   2.484   0.637
17328W        W82555  19.204  19.030  11.853
17329W        W82556  34.113  14.298  14.504
17330W        W82557  25.234  35.791   2.102
17331W        W82558  31.149  40.623   2.430
17332W        W82559  40.984  22.811  11.689
17333W        W82560  12.703  42.216   2.874
17334W        W82561  15.454  39.058  11.280
17335W        W82562  23.826   5.238  12.975
17336W        W82563  37.029  32.614  11.970
17337W        W82564   1.739  27.012   2.228
17338W        W82565  40.532  31.169   4.431
17339W        W82566  20.599  13.829   2.339
17340W        W82567  22.393  14.296   5.196
17341W        W82568  27.144  12.631  11.951
17342W        W82569  19.233  28.002   2.764
17343W        W82570  43.650  27.549  10.127
17344W        W82571   8.855  40.810   1.920
17345W        W82572  21.939   9.255   0.929
17346W        W82573  33.453  15.533   3.130
17347W        W82574  12.142  14.168   1.698
17348W        W82575  33.676  33.589   3.071
17349W        W82576  35.510  38.827   1.572
17350W        W82577  41.869   4.202  13.855
17351W        W82578  22.339  44.693   4.541
17352W        W82579   3.297  33.643   0.014
17353W        W82580  42.207  14.819  11.999
17354W        W82581  41.713   5.830   0.336
17355W        W82582  38.828  25.014  12.518
17356W        W82583  41.075  13.655  14.978
17357W        W82584  43.815  42.183   1.665
17358W        W82585  35.481   2.383   2.974
17359W        W82586  44.537  43.485   4.175
17360W        W82587  21.697   0.371  11.902
17361W        W82588  44.458  34.809  14.347
17362W        W82589  42.794   9.908   3.667
17363W        W82590  13.148  24.779   2.602
17364W        W82591  24.581  29.370   0.399
17365W        W82592  43.066  33.506  13.602
17366W        W82593   1.986  34.231  11.109
17367W        W82594  42.731   0.306  13.589
17368W        W82595  43.794  35.143  13.861
17369W        W82596  24.083  10.308  13.830
17370W        W82597  38.567  25.649   4.813
17371W        W82598  29.984   2.610  14.437
17372W        W82599   2.575  22.291  14.678
17373W        W82600  44.507   6.895  10.551
17374W        W82601  20.661   7.346   4.874
17375W        W82602  15.097   1.488  12.504
17376W        W82603  43.998  28.707   2.203
17377W        W82604  23.263  39.223  11.388
17378W        W82605   3.865  41.474  11.583
17379W        W82606  32.159  30.849   4.185
17380W        W82607  18.887  40.299  12.525
17381W        W82608  35.640  38.422   0.781
17382W        W82609  10.872  34.953   1.412
17383W        W82610  18.873   8.802   1.573
17384W        W82611   7.246  31.393   3.179
17385W        W82612  18.607  41.757  11.608
17386W        W82613  32.572  30.749   4.495
17387W        W82614  11.149  23.929  12.512
17388W        W82615  26.542  42.026   4.560
17389W        W82616  35.570   2.817   1.650
17390W        W82617  15.331  21.304  13.378
17391W        W82618  31.928  31.767  10.624
17392W        W82619   8.989   5.283   4.074
17393W        W82620   4.286  15.711   1.399
17394W        W82621  34.870  40.458  12.727
17395W        W82622  41.092  19.047   1.914
17396W        W82623   6.857  11.751  14.868
17397W        W82624  39.676  28.503  12.519
17398W        W82625   3.528  36.778   4.154
17399W        W82626   3.548  17.281   3.757
17400W        W82627  37.285  19.853  10.609
17401W        W82628  44.121  28.449  10.232
17402W        W82629  26.009   0.478  14.860
17403W        W82630  28.222  28.422   3.425
17404W        W82631  26.164   6.682  14.538
17405W        W82632  11.556  31.072   4.553
17406W        W82633  25.991   1.218   1.191
17407W        W82634   3.758  11.428   3.146
17408W        W82635  34.099  41.350   4.478
17409W        W82636   8.802   7.961   4.265
17410W        W82637   3.844  13.216  13.077
17411W        W82638  43.710   0.537  11.167
17412W        W82639  27.037  31.980  12.111
17413W        W82640  15.353  31.650   4.095
17414W        W82641  26.573  21.391  13.558
17415W        W82642   2.977  23.048   0.795
17416W        W82643  37.314   5.210  12.887
17417W        W82644  38.078   2.747  12.447
17418W        W82645  10.332  30.021  13.756
17419W        W82646  36.348  39.032  10.797
17420W        W82647  38.975  14.090  11.708
17421W        W82648   8.237  27.300   4.140
17422W        W82649  40.336   1.941  14.852
17423W        W82650   3.940   9.356  10.898
17424W        W82651  26.630  13.066   2.131
17425W        W82652   3.606   8.111  14.750
17426W        W82653  25.491   1.401   1.181
17427W        W82654   5.836  41.277  11.526
17428W        W82655  18.802  36.552  12.014
17429W        W82656  34.424  32.469  14.477
17430W        W82657  38.780  42.023  10.741
17431W        W82658  11.605  30.145  11.168
17432W        W82659  20.636  39.066   2.763
17433W        W82660   4.844  27.704   4.732
17434W        W82661  21.769  30.605  13.972
17435W        W82662  38.130   4.332  14.926
17436W        W82663   8.821  18.682   3.676
17437W        W82664   9.396   8.943   2.177
17438W        W82665   4.919  24.453   3.960
17439W        W82666  10.457  11.301   0.385
17440W        W82667  16.845   9.073  12.195
17441W        W82668  10.189  39.121   4.073
17442W        W82669  18.386   8.370  12.588
17443W        W82670  21.611   8.260   4.846
17444W        W82671   0.019  27.167  13.019
17445W        W82672  14.420   7.995   4.069
17446W        W82673  23.088  16.977  10.706
17447W        W82674  20.257   7.468   2.741
17448W        W82675  40.414  41.786   4.621
17449W        W82676  20.568   0.532   1.872
17450W        W82677  24.087  39.485   4.577
17451W        W82678  24.635  18.703  12.425
17452W        W82679   8.103  37.525   1.638
17453W        W82680  13.690   0.774  10.668
17454W        W82681  33.731  41.033   4.189
17455W        W82682  23.279  41.000   2.277
17456W        W82683  33.785  44.930   3.670
17457W        W82684  34.220  26.508  14.469
17458W        W82685  22.924  11.511  11.119
17459W        W82686  25.829  21.276  14.006
17460W        W82687  32.773  43.500  12.951
17461W        W82688  18.836  39.025  11.797
17462W        W82689  41.716  41.055   4.971
17463W        W82690   3.391  18.334  11.039
17464W        W82691  29.048  23.590  12.360
17465W        W82692  44.151  22.997  10.716
17466W        W82693  36.964   6.395   0.883
17467W        W82694  43.045  34.134  10.444
17468W        W82695  19.507  11.240   0.461
17469W        W82696   7.539  22.845   1.006
17470W        W82697  41.321  23.020  14.427
17471W        W82698  21.250   8.888  10.627
17472W        W82699  36.435  37.882   0.466
17473W        W82700  12.276   9.242   2.632
17474W        W82701   4.371  37.882  11.414
17475W        W82702  32.645  14.325  13.370
17476W        W82703  10.842   1.505  11.985
17477W        W82704  42.603  14.203  12.518
17478W        W82705  42.546   4.275   1.780
17479W        W82706  35.383  22.013   4.495
17480W        W82707  36.055  37.772   4.057
17481W        W82708   0.329  31.547   4.027
17482W        W82709  35.336  22.579  14.266
17483W        W82710  14.373  10.303  11.854
17484W        W82711  43.341   6.191  12.384
17485W        W82712   8.403  29.801  11.643
17486W        W82713   1.247  11.775  12.797
17487W        W82714  35.317  18.370  11.607
17488W        W82715  26.445  36.048   4.988
17489W        W82716  43.980   6.320   1.326
17490W        W82717  30.345  29.488  14.926
17491W        W82718  13.386  24.124   5.102
17492W        W82719  38.009   9.183   2.756
17493W        W82720  36.829  34.309   1.811
17494W        W82721  33.103  28.619   1.378
17495W        W82722  23.251  12.783  13.763
17496W        W82723  12.448  24.613  10.730
17497W        W82724  19.746  15.090   3.660
17498W        W82725   5.311   1.806  12.331
17499W        W82726  23.099   8.656   3.677
17500W        W82727  12.165  37.080   2.391
17501W        W82728  35.608  44.744  10.664
17502W        W82729   5.744   9.636  11.184
17503W        W82730  16.062  19.998   0.264
17504W        W82731   7.913  18.065   2.232
17505W        W82732   6.637  20.707  10.796
17506W        W82733  22.665   2.266   1.730
17507W        W82734  33.362  12.670   4.519
17508W        W82735   8.713  30.181   2.334
17509W        W82736  24.649  34.090  10.673
17510W        W82737  40.068   7.639  12.094
17511W        W82738  43.374   5.350   4.051
17512W        W82739   5.411  36.286   3.600
17513W        W82740  14.117  43.800  11.528
17514W        W82741  44.893  33.938  11.820
17515W        W82742  19.820   6.193  13.005
17516W        W82743   3.856   6.137  11.090
17517W        W82744  24.658  42.615  10.942
17518W        W82745  22.822   2.095  10.532
17519W        W82746  23.256  29.094  14.516
17520W        W82747  27.969  19.388  10.419
17521W        W82748  41.639  15.449   2.115
17522W        W82749   1.607  22.095  14.837
17523W        W82750  29.543  22.281   2.421
17524W        W82751  44.353  36.397  11.548
17525W        W82752  40.233  10.155  13.590
17526W        W82753   5.681  18.125  11.958
17527W        W82754   9.280  24.921   1.882
17528W        W82755   8.835   3.511  10.390
17529W        W82756   4.570   9.630   4.159
17530W        W82757  21.228  15.172  10.887
17531W        W82758  38.288  34.174   1.546
17532W        W82759   6.242  18.863  12.355
17533W        W82760  16.367   9.974   2.570
17534W        W82761  34.850  33.978  12.033
17535W        W82762  21.139  40.986   3.209
17536W        W82763  22.487  41.452  14.773
17537W        W82764   0.875  24.598  14.966
17538W        W82765  13.899   9.145   2.824
17539W        W82766   7.878  11.410  13.085
17540W        W82767  11.870  25.757   2.804
17541W        W82768  27.516  39.336   3.898
17542W        W82769  40.044  11.886   0.759
17543W        W82770  36.987  31.976  13.580
17544W        W82771  37.469  25.026  11.570
17545W        W82772  41.479  27.917   1.215
17546W        W82773  18.752   2.468  13.898
17547W        W82774  15.097  20.220  14.967
17548W        W82775  29.706  14.084  12.653
17549W        W82776  15.566  31.351   1.783
17550W        W82777  43.011  19.487  13.648
17551W        W82778  39.080  40.070   1.039
17552W        W82779  40.542  40.563   2.874
17553W        W82780  17.160  44.438   5.144
17554W        W82781  27.499  43.600   0.290
17555W        W82782  34.004  37.109   1.288
17556W        W82783  15.083  33.056  10.569
17557W        W82784   9.833  23.793  14.501
17558W        W82785  40.709  38.104  11.180
17559W        W82786  29.346  40.725  10.163
17560W        W82787  16.278   7.785   3.070
17561W        W82788  21.672  27.038   1.197
17562W        W82789  11.788  35.208  10.833
17563W        W82790  27.727  15.700   1.329
17564W        W82791  20.059  13.975  14.868
17565W        W82792  14.589   4.408   4.188
17566W        W82793   1.921   7.145  12.657
17567W        W82794  13.271   3.941   3.859
17568W        W82795  34.470  19.251  12.943
17569W        W82796  17.628   1.441  12.065
17570W        W82797  15.347   6.820   4.538
17571W        W82798  25.978   7.880  13.382
17572W        W82799  10.828  36.858   1.254
17573W        W82800   2.863  32.320  12.009
17574W        W82801  39.996  39.271  10.963
17575W        W82802  33.392  18.219   4.936
17576W        W82803  32.851  28.088  12.962
17577W        W82804   4.151   1.748  14.893
17578W        W82805  12.343  36.018  14.826
17579W        W82806  16.107  31.422  12.909
17580W        W82807  19.252  40.705  12.459
17581W        W82808  32.139   8.314  11.061
17582W        W82809   0.524  17.612   0.462
17583W        W82810  13.287  36.965  14.386
17584W        W82811   9.228  10.138  11.500
17585W        W82812   9.367   3.056  14.788
17586W        W82813   7.936  41.474   4.653
17587W        W82814   1.189  18.130   0.009
17588W        W82815   9.935  24.271   2.677
17589W        W82816   5.774  20.040   3.821
17590W        W82817  16.970   5.877  11.203
17591W        W82818  34.513  37.326   1.264
17592W        W82819  21.965  39.382   4.309
17593W        W82820  18.010  35.477   0.440
17594W        W82821  20.599  21.983  12.118
17595W        W82822  13.302  25.189  11.712
17596W        W82823  32.054   7.613   3.575
17597W        W82824   8.929   0.024   3.195
17598W        W82825   3.835  22.066   1.058
17599W        W82826  16.741  41.953   2.344
17600W        W82827  38.009  42.065   0.958
17601W        W82828  13.729   2.547   4.427
17602W        W82829  30.385  36.095  14.812
17603W        W82830  33.781  39.422   3.153
17604W        W82831   8.924  43.376   1.913
17605W        W82832   4.890   8.870   3.757
17606W        W82833  32.744  32.520   2.722
17607W        W82834   8.877  43.320  11.572
17608W        W82835  35.392  37.415  13.727
17609W        W82836  21.161  11.738  14.848
17610W        W82837  17.275  14.726   1.343
17611W        W82838  25.292   6.205  11.718
17612W        W82839  33.745  38.385   1.003
17613W        W82840   1.862  32.501  13.998
17614W        W82841  38.323  13.212   0.349
17615W        W82842  35.765  12.272  10.763
17616W        W82843  35.902  39.019  11.069
17617W        W82844  19.407  13.411  11.236
17618W        W82845  15.233  24.424   2.088
17619W        W82846  28.507  11.890  11.037
17620W        W82847   3.462   0.657  11.888
17621W        W82848  18.506  26.317  14.289
17622W        W82849  33.138   5.828   1.644
17623W        W82850  34.461   6.199   3.542
17624W        W82851  38.018  31.098  13.460
17625W        W82852  21.260  16.843   2.815
17626W        W82853  25.144  36.986   0.643
17627W        W82854  32.359   4.916  14.720
17628W        W82855  39.651  38.773   4.340
17629W        W82856  21.254  28.955   1.339
17630W        W82857  26.178  23.765  12.617
17631W        W82858  19.330  11.688  12.484
17632W        W82859  31.379  10.617  14.047
17633W        W82860  33.925  23.769   0.399
17634W        W82861  41.028  20.287   1.758
17635W        W82862  17.526  20.728   1.782
17636W        W82863  34.615  39.813   1.396
17637W        W82864  31.332  41.775  12.892
17638W        W82865  38.263   9.714   3.998
17639W        W82866  28.222   5.708   4.291
17640W        W82867  29.290  18.988  14.354
17641W        W82868  19.051  32.491  11.187
17642W        W82869   6.207  39.855  11.692
17643W        W82870  31.646  42.812  12.437
17644W        W82871   8.027   8.606   4.237
17645W        W82872  33.553   8.947  14.991
17646W        W82873   8.597  15.613  12.673
17647W        W82874   1.389   6.819  14.795
17648W        W82875  31.538   6.252  11.199
17649W        W82876   6.642   0.439  13.197
17650W        W82877   6.128  28.967  13.492
17651W        W82878  31.258   3.814   1.008
17652W        W82879  22.593   0.964  14.349
17653W        W82880  11.943  13.482   0.468
17654W        W82881   8.856   1.088   0.022
17655W        W82882   4.270  16.378   4.592
17656W        W82883   2.754   5.823   2.624
17657W        W82884   5.371  26.909  11.561
17658W        W82885  15.589   2.257  10.487
17659W        W82886  22.522   9.275   0.875
17660W        W82887  44.306  39.354   0.163
17661W        W82888  18.373  23.936  10.762
17662W        W82889  42.990  22.318  11.820
17663W        W82890  35.323  26.695   3.215
17664W        W82891  37.804  10.649  12.658
17665W        W82892  38.898  28.635   3.237
17666W        W82893  24.470  31.896   3.656
17667W        W82894  38.800  27.838   2.316
17668W        W82895   1.748  16.393   2.247
17669W        W82896  28.203  19.142  14.093
17670W        W82897  36.080   3.832   0.399
17671W        W82898  25.742   8.626  11.991
17672W        W82899  19.066  43.049  14.400
17673W        W82900  40.788  34.664  14.253
17674W        W82901  28.113  16.080  13.969
17675W        W82902  10.697  43.774  13.804
17676W        W82903  37.575  41.692   0.320
17677W        W82904   8.420  35.180  12.161
17678W        W82905   4.134  39.960  12.656
17679W        W82906  20.617  31.571  12.906
17680W        W82907   4.901  26.561  14.495
17681W        W82908  31.956  40.731  13.622
17682W        W82909  26.551  11.124  13.300
17683W        W82910   5.251  32.452   1.202
17684W        W82911   6.215  33.555  14.485
17685W        W82912  22.565  11.273  13.307
17686W        W82913  18.713  32.913   1.340
17687W        W82914  30.008  21.409   3.321
17688W        W82915  24.705  39.347  14.240
17689W        W82916   5.006  25.033  11.386
17690W        W82917  31.919   7.123   1.803
17691W        W82918  12.591  31.483   2.181
17692W        W82919  21.076  13.863   2.734
17693W        W82920  42.428  30.499   3.398
17694W        W82921   4.336  33.950  11.589
17695W        W82922   8.303  11.612  13.994
17696W        W82923  27.591   7.123  11.978
17697W        W82924  14.959  13.287   2.854
17698W        W82925  24.125  35.008   2.402
17699W        W82926  28.949   7.750   0.831
17700W        W82927  14.549  38.455  13.398
17701W        W82928  42.490  40.136  14.925
17702W        W82929  44.464  39.944   0.330
17703W        W82930  22.817  35.857  10.373
17704W        W82931  23.654  42.548  14.348
17705W        W82932  29.582  33.566   1.446
17706W        W82933  25.516  34.981   2.803
17707W        W82934  23.213  21.076  13.084
17708W        W82935   6.740  10.137   0.326
17709W        W82936   5.142  38.135   2.375
17710W        W82937  11.246   3.684   4.091
17711W        W82938   6.028  36.949  11.159
17712W        W82939  31.066  20.287   2.367
17713W        W82940  19.118   8.588   0.582
17714W        W82941  29.984  19.031  13.856
17715W        W82942  28.617  32.546   2.785
17716W        W82943  24.075  17.127  14.816
17717W        W82944  15.360  33.093  13.203
17718W        W82945  17.649   0.520   2.882
17719W        W82946  13.165  38.437  14.325
17720W        W82947  12.728  33.223   0.036
17721W        W82948   1.925  37.596   3.296
17722W        W82949   6.668  24.002  13.483
17723W        W82950  21.931  16.053   0.986
17724W        W82951  36.916  22.656   2.764
17725W        W82952  44.264  33.544   0.166
17726W        W82953  10.944  35.416   0.301
17727W        W82954   9.228   5.209   2.313
17728W        W82955  17.290  37.151   0.463
17729W        W82956  21.790  10.640  11.671
17730W        W82957  42.130  40.101   2.062
17731W        W82958   9.529  38.497   1.824
17732W        W82959  18.780  29.995  10.469
17733W        W82960  23.312   5.251  12.963
17734W        W82961  15.721  44.042  13.976
17735W        W82962  31.094  34.306  10.169
17736W        W82963  42.527  37.945  10.707
17737W        W82964  27.485  39.404   1.797
17738W        W82965  40.926  12.265  13.095
17739W        W82966  26.113  12.594   1.300
17740W        W82967   6.874  44.344   1.540
17741W        W82968  37.343  35.573   0.290
17742W        W82969   5.799  26.682   0.928
17743W        W82970  15.911   6.914  13.991
17744W        W82971  18.354  29.606   4.141
17745W        W82972  17.915  22.153  11.198
17746W        W82973  39.354   7.847   0.813
17747W        W82974   7.473  16.122   2.980
17748W        W82975  37.349   7.362  11.611
17749W        W82976  15.144  29.477   3.664
17750W        W82977  14.040  39.491   0.863
17751W        W82978   3.842  27.074   3.778
17752W        W82979   7.519  43.286   4.076
17753W        W82980  35.331  44.984  13.886
17754W        W82981  35.096  19.264  13.514
17755W        W82982   7.849  38.284   2.828
17756W        W82983   4.648  26.929  11.981
17757W        W82984  31.980  10.565  13.095
17758W        W82985  25.652  20.228  11.579
17759W        W82986   4.866  35.495   0.528
17760W        W82987  29.551   0.218  12.460
17761W        W82988  40.459   9.538   4.348
17762W        W82989   9.464   4.407  12.461
17763W        W82990  37.402  29.122  14.301
17764W        W82991   1.573  24.090  13.418
17765W        W82992  22.998  27.027  14.792
17766W        W82993  23.273   2.396  12.895
17767W        W82994   8.605  42.867  11.530
17768W        W82995  33.042  26.166  12.505
17769W        W82996  13.465  36.370   3.505
17770W        W82997  30.746  33.650   3.278
17771W        W82998  42.504  28.538   3.462
17772W        W82999  43.730  21.295  11.237
17773W        W83000   7.739  36.925   1.878
17774W        W83001  28.141  32.456   3.975
17775W        W83002   9.716   8.623  11.056
17776W        W83003  27.890  38.961  10.578
17777W        W83004  44.387   0.624  14.933
17778W        W83005  19.619  41.395  14.500
17779W        W83006  10.664  23.762  13.229
17780W        W83007  31.901  11.211   2.711
17781W        W83008  34.954   1.749  12.059
17782W        W83009  34.397  27.544  12.138
17783W        W83010  26.492   9.962   3.702
17784W        W83011  18.494   3.377  11.623
17785W        W83012  21.623  40.512   0.685
17786W        W83013  41.926  32.157  11.900
17787W        W83014  42.987  37.819   2.596
17788W        W83015   3.982  18.275   0.339
17789W        W83016   6.643   1.255  12.365
17790W        W83017  43.217   6.959   3.173
17791W        W83018  40.391  14.851   1.360
17792W        W83019  21.736  26.055   4.865
17793W        W83020   8.792  34.029  10.469
17794W        W83021  42.219  17.651  12.827
17795W        W83022   8.844   9.380  11.207
17796W        W83023  25.092   9.963   4.479
17797W        W83024  40.322  35.050  10.221
17798W        W83025   9.769  26.248   1.283
17799W        W83026  30.252  33.061   3.384
17800W        W83027   2.519   5.827   0.180
17801W        W83028  15.412  17.730   0.933
17802W        W83029  21.064  42.706  13.020
17803W        W83030   0.957   3.502   3.348
17804W        W83031  20.552  26.569  13.851
17805W        W83032   7.977  31.150  13.029
17806W        W83033  26.528  42.446   4.887
17807W        W83034   2.960  40.505  14.980
17808W        W83035   8.391  40.120  12.259
17809W        W83036  17.851  24.166   3.449
17810W        W83037  20.243  30.601   2.025
17811W        W83038  44.861  24.259   4.937
17812W        W83039  31.345   2.258   2.268
17813W        W83040   6.109   7.891  11.973
17814W        W83041  21.647  24.204   4.355
17815W        W83042   9.783   8.123  14.042
17816W        W83043  11.120   0.811  13.500
17817W        W83044  37.272  38.062   0.010
17818W        W83045  25.811   3.008  11.522
17819W        W83046   5.817  39.598  11.512
17820W        W83047  31.175  16.709  13.095
17821W        W83048  27.430   7.699  13.753
17822W        W83049  10.305  39.744   0.312
17823W        W83050  10.676  29.585   3.036
17824W        W83051  10.735  35.901   0.347
17825W        W83052   4.156  41.357   1.470
17826W        W83053  37.103  15.032  11.171
17827W        W83054  11.689  23.613  12.248
17828W        W83055   6.891  17.337  11.521
17829W        W83056  29.206  18.086  14.481
17830W        W83057   9.739  32.189   2.237
17831W        W83058  11.628   5.695  14.846
17832W        W83059  16.776  14.652   2.101
17833W        W83060  43.372  11.438   1.006
17834W        W83061  19.217  13.147   3.786
17835W        W83062  17.034  40.340  11.458
17836W        W83063   8.755   2.401   2.397
17837W        W83064   4.475  37.145   4.139
17838W        W83065  13.163  33.802  13.769
17839W        W83066  19.691   9.324   2.775
17840W        W83067  19.381  28.950  13.994
17841W        W83068  34.717  28.112   2.774
17842W        W83069  39.452  10.404  12.018
17843W        W83070   6.785  42.333   4.852
17844W        W83071  10.740  35.020  12.127
17845W        W83072   0.857  19.680  13.373
17846W        W83073  33.171  26.956   2.698
17847W        W83074   0.520  12.207   4.131
17848W        W83075   5.009  33.413   2.241
17849W        W83076   2.110  37.412   1.909
17850W        W83077  41.267  11.694  14.327
17851W        W83078  14.701  15.072   0.459
17852W        W83079   3.659  42.308  12.449
17853W        W83080  42.887  13.118   1.230
17854W        W83081  27.115  30.975   2.122
17855W        W83082   9.421   4.793   3.094
17856W        W83083  35.800  15.291  12.500
17857W        W83084  17.364  36.887   0.027
17858W        W83085  13.785  29.724   0.709
17859W        W83086   6.526  21.036   4.419
17860W        W83087   2.387   9.795  12.041
17861W        W83088  21.573   0.167  11.423
17862W        W83089  23.773  29.628  14.246
17863W        W83090  16.379  16.383  12.858
17864W        W83091  35.419  37.784   4.801
17865W        W83092  21.677  12.960  11.807
17866W        W83093  33.072  12.343   1.426
17867W        W83094   6.633   2.406  12.048
17868W        W83095  10.661  17.193   0.702
17869W        W83096   3.714   7.117  13.944
17870W        W83097   3.898  23.561   4.751
17871W        W83098  27.017  43.723  10.572
17872W        W83099  39.451  21.301  14.095
17873W        W83100  16.281  29.687   3.310
17874W        W83101   5.376   2.223  11.621
17875W        W83102  11.686  17.839   0.285
17876W        W83103  28.607  42.997  14.051
17877W        W83104  29.965  22.526  14.744
17878W        W83105  22.947   7.070  11.505
17879W        W83106  43.681   9.455  13.872
17880W        W83107  20.975  16.773   3.217
17881W        W83108  44.200  37.850  12.417
17882W        W83109  34.497   1.849  14.747
17883W        W83110   5.342  37.529  13.825
17884W        W83111  18.670  35.524   4.883
17885W        W83112  18.086  10.393  10.345
17886W        W83113  27.962  22.585   0.283
17887W        W83114   8.772  36.532   3.215
17888W        W83115   7.760  24.777   1.556
17889W        W83116  19.224  21.812   4.776
17890W        W83117  25.490  36.048  11.997
17891W        W83118  36.283  28.880  11.539
17892W        W83119  38.161   4.891   0.248
17893W        W83120   9.255  31.069   2.432
17894W        W83121  33.076   2.825  14.713
17895W        W83122  37.630  40.469   3.762
17896W        W83123  36.182  29.577   0.182
17897W        W83124  38.928  21.407   3.281
17898W        W83125  42.442  25.118   2.734
17899W        W83126  36.046  31.438   0.892
17900W        W83127  28.125  25.717  10.674
17901W        W83128  39.239  36.056   4.345
17902W        W83129  38.861   6.900   3.122
17903W        W83130  42.371   6.889   0.751
17904W        W83131  28.905   3.303   1.761
17905W        W83132  18.798  44.789  14.255
17906W        W83133  30.536  25.913   3.807
17907W        W83134  13.146  13.313   0.831
17908W        W83135   3.078  20.059   4.196
17909W        W83136   4.751  11.720   2.357
17910W        W83137   4.022  23.061   4.020
17911W        W83138  25.025   3.971   1.816
17912W        W83139   5.258  28.059   0.191
17913W        W83140   2.442  13.063  10.769
17914W        W83141  29.633  10.821   0.445
17915W        W83142  35.901  29.863   3.207
17916W        W83143  14.251  40.507  12.435
17917W        W83144  18.402  13.210  12.449
17918W        W83145  33.339  35.347   2.385
17919W        W83146  23.223  34.446  13.843
17920W        W83147  38.232  16.809   4.137
17921W        W83148  31.068  43.238   4.261
17922W        W83149  15.444   4.666  11.134
17923W        W83150  18.382  22.456  11.627
17924W        W83151  36.216  13.085   0.791
17925W        W83152  21.927  12.696  11.441
17926W        W83153   4.716  40.717   2.075
17927W        W83154  16.539  33.350   0.726
17928W        W83155  13.948  41.060   0.240
17929W        W83156  37.958   5.435   0.821
17930W        W83157  25.552  20.693  12.064
17931W        W83158  24.255  39.444  12.388
17932W        W83159  36.522  10.087   3.597
17933W        W83160  30.530  23.748   2.769
17934W        W83161  12.714  43.949  13.295
17935W        W83162  32.912  44.671   3.969
17936W        W83163  11.347   0.004  12.874
17937W        W83164  40.499   6.463  11.487
17938W        W83165   6.366  12.707  14.822
17939W        W83166  18.685  26.085   4.523
17940W        W83167   8.382   3.762   1.268
17941W        W83168  29.166  17.195  10.963
17942W        W83169  35.391  33.846   2.793
17943W        W83170   5.129   2.214  11.078
17944W        W83171   3.178  10.192   0.800
17945W        W83172   9.126  35.196   3.590
17946W        W83173   0.367  36.087   3.797
17947W        W83174   4.815  20.773  13.128
17948W        W83175  44.579  27.129  13.909
17949W        W83176  35.697  32.824  14.941
17950W        W83177  10.677   9.350  10.797
17951W        W83178  33.492   3.632  12.175
17952W        W83179  32.944  15.839   0.942
17953W        W83180   3.428  11.280  13.107
17954W        W83181  25.350   2.816   3.253
17955W        W83182  30.369  27.296   2.890
17956W        W83183  27.432   8.659   2.125
17957W        W83184  11.225  17.563  13.061
17958W        W83185  39.063  43.795  11.747
17959W        W83186  38.757  19.645  11.340
17960W        W83187   0.870  15.597  13.839
17961W        W83188  41.720  14.635  11.902
17962W        W83189   0.885   9.814   3.032
17963W        W83190   1.689   9.565  13.125
17964W        W83191  12.408  16.344  14.535
17965W        W83192  23.165  13.849   1.337
17966W        W83193  14.007  43.956  14.249
17967W        W83194  12.557  43.827   1.322
17968W        W83195  33.121  33.057   3.575
17969W        W83196  30.334  38.154  13.958
17970W        W83197  43.947   6.691   2.172
17971W        W83198  38.813  38.983   2.621
17972W        W83199  12.130   4.443  14.109
17973W        W83200  36.687   6.572  13.042
17974W        W83201  20.676  43.036   3.661
17975W        W83202  36.124  35.014   0.827
17976W        W83203   7.187  27.909  12.111
17977W        W83204  32.924  41.160  13.920
17978W        W83205  10.654  12.175   2.823
17979W        W83206  36.519  34.539   0.213
17980W        W83207   9.159  24.974  11.139
17981W        W83208  22.625   6.090  11.609
17982W        W83209  35.004  21.136   1.900
17983W        W83210  31.398  14.501   4.544
17984W        W83211  18.502   9.738  12.963
17985W        W83212  36.794   3.458  11.158
17986W        W83213  41.457  19.830  13.921
17987W        W83214   5.444  31.126   3.700
17988W        W83215  34.392   6.723   3.686
17989W        W83216  39.792  17.244   1.796
17990W        W83217  41.542   3.297  14.320
17991W        W83218  24.566  39.841  10.793
17992W        W83219  21.312  32.962  11.193
17993W        W83220  41.498  39.597   2.756
17994W        W83221  40.794  10.847   1.162
17995W        W83222  35.112  44.916  12.563
17996W        W83223  10.428   4.411  14.796
17997W        W83224  11.849  26.033   0.354
17998W        W83225   9.167   0.328   4.651
17999W        W83226  38.433  39.034   4.658
18000W        W83227  28.538   5.861  11.008
18001W        W83228  30.666   1.975   4.066
18002W        W83229  11.277  15.231   3.722
18003W        W83230   3.569   0.507   4.951
18004W        W83231  16.147  44.815  12.908
18005W        W83232  22.084  35.358   0.323
18006W        W83233  12.717   0.914  14.735
18007W        W83234  39.559  37.522   3.684
18008W        W83235   2.337   5.444   4.726
18009W        W83236   4.239   4.921   4.120
18010W        W83237   7.133  32.005   4.614
18011W        W83238  29.368  36.080   3.660
18012W        W83239  14.288  38.226   4.804
18013W        W83240  14.633  14.537   0.527
18014W        W83241  40.030  39.532   0.916
18015W        W83242  27.677  29.573  13.538
18016W        W83243   2.749  15.031  14.258
18017W        W83244  40.646   7.386   1.219
18018W        W83245  11.866  14.043   1.266
18019W        W83246  36.881   3.323   4.398
18020W        W83247  29.703   8.954   2.325
18021W        W83248  39.734   6.902  13.396
18022W        W83249  36.429  39.940  10.853
18023W        W83250  27.743  34.387  12.962
18024W        W83251   8.822  40.352   2.152
18025W        W83252  11.061  11.903  14.798
18026W        W83253  13.599  39.637   1.056
18027W        W83254  41.185  24.638  10.620
18028W        W83255  17.274  30.153   1.671
18029W        W83256  31.549  13.198   0.325
18030W        W83257  26.795  15.340  10.448
18031W        W83258  30.042  16.619  11.018
18032W        W83259  11.802   7.153   4.206
18033W        W83260  12.118  41.063  11.560
18034W        W83261  10.139  42.279   2.303
18035W        W83262  23.235  15.550  10.669
18036W        W83263  17.649  24.416  12.070
18037W        W83264   3.694  19.055   4.205
18038W        W83265  14.606  12.262  10.738
18039W        W83266   5.926  15.269  12.012
18040W        W83267   5.437  17.221   1.665
18041W        W83268  36.614  18.161   0.792
18042W        W83269  15.573   4.818  13.623
18043W        W83270  27.549  37.024  11.987
18044W        W83271  20.462   1.270   3.181
18045W        W83272   7.396  10.297  14.416
18046W        W83273   5.769   4.136  11.036
18047W        W83274  13.185  32.395  14.544
18048W        W83275   2.318  18.107  12.319
18049W        W83276  25.712  36.074  10.043
18050W        W83277  39.610  33.486   2.248
18051W        W83278  12.559   8.269   3.387
18052W        W83279  28.416  38.767   2.735
18053W        W83280   0.060  33.056   2.139
18054W        W83281  24.988  34.693  13.878
18055W        W83282  27.654  29.569   2.362
18056W        W83283  17.547   7.938  11.209
18057W        W83284  38.347  31.540   2.456
18058W        W83285   5.981   7.764   0.747
18059W        W83286  31.078  10.670   3.834
18060W        W83287  20.800  13.066   1.761
18061W        W83288  27.637  13.327  13.766
18062W        W83289   0.994  33.945   3.708
18063W        W83290   1.630  28.890   3.485
18064W        W83291  15.700  12.759  10.337
18065W        W83292  39.914  26.584   3.747
18066W        W83293   8.287   1.954  13.918
18067W        W83294  44.684   3.497   3.873
18068W        W83295  30.459  26.180   0.362
18069W        W83296   6.939  13.632  12.461
18070W        W83297  31.806  37.871  10.722
18071W        W83298  18.721  15.578  11.998
18072W        W83299  38.722  17.693   1.205
18073W        W83300  26.149  32.605   1.944
18074W        W83301  39.778   7.900   4.790
18075W        W83302  29.458  38.943  14.745
18076W        W83303  32.797  17.241   5.570
18077W        W83304  15.449   6.729  11.292
18078W        W83305  44.778  14.276   4.798
18079W        W83306   4.774  34.539  13.942
18080W        W83307  35.875  44.699   3.797
18081W        W83308  43.196  25.025   0.261
18082W        W83309  19.507  42.229   3.120
18083W        W83310  31.900  25.272  11.213
18084W        W83311  41.416  31.605  11.613
18085W        W83312  35.409   3.044  14.395
18086W        W83313  33.721   8.266  13.538
18087W        W83314  43.760  43.983   1.810
18088W        W83315  11.581  12.707   1.831
18089W        W83316  36.534  30.995   0.245
18090W        W83317  12.458   2.672   2.825
18091W        W83318  27.143  22.045   3.572
18092W        W83319  42.836   4.809  14.852
18093W        W83320   8.692  16.709  13.498
18094W        W83321  41.320  14.802   4.765
18095W        W83322  33.143  34.230  14.763
18096W        W83323  44.436  15.822   2.636
18097W        W83324  14.080  24.020   0.622
18098W        W83325  18.009   8.714   1.169
18099W        W83326  33.015   9.100   3.375
18100W        W83327  32.892  25.111   2.672
18101W        W83328   6.536  40.195   0.396
18102W        W83329  41.496  32.189  13.044
18103W        W83330  10.423   3.986  12.449
18104W        W83331  23.288   8.385   2.713
18105W        W83332  42.668  13.592  14.944
18106W        W83333  25.261  13.982   1.553
18107W        W83334  44.814  41.223   0.270
18108W        W83335   2.918  37.172  12.510
18109W        W83336  41.867   8.900   2.958
18110W        W83337  20.779  20.227   1.662
18111W        W83338   1.981   2.537   0.770
18112W        W83339  22.799  24.687  14.263
18113W        W83340  18.052  42.525  11.928
18114W        W83341   0.715  35.094  10.553
18115W        W83342  19.160  17.492   2.274
18116W        W83343  25.707  20.756  11.581
18117W        W83344   6.317   4.214   2.339
18118W        W83345  11.755  14.166  12.898
18119W        W83346   9.863  24.743  12.002
18120W        W83347   9.747  38.525  13.550
18121W        W83348  40.555  22.168   1.102
18122W        W83349   2.303  34.538   0.012
18123W        W83350  21.746  17.721  10.760
18124W        W83351   8.651  26.023  13.087
18125W        W83352  14.784  43.201   2.183
18126W        W83353  42.786  37.475  10.741
18127W        W83354  40.755  35.024   1.783
18128W        W83355  39.036  35.036  12.037
18129W        W83356   1.213  20.981  13.993
18130W        W83357  35.636   2.506   0.780
18131W        W83358  24.976  20.743   0.957
18132W        W83359  11.750  33.018  12.109
18133W        W83360  40.803  44.162  10.757
18134W        W83361   7.463  33.794   0.318
18135W        W83362   7.543   8.142   3.039
18136W        W83363  24.638   6.760  12.190
18137W        W83364   1.277  32.886   3.276
18138W        W83365  15.072  13.208  10.697
18139W        W83366  33.085  39.341  14.289
18140W        W83367  25.865  17.301   1.410
18141W        W83368  28.671  23.154  12.002
18142W        W83369  33.412   9.291  12.910
18143W        W83370  12.193   8.689  11.445
18144W        W83371  35.891  25.957   3.705
18145W        W83372  29.939  12.588   0.589
18146W        W83373   4.042   5.819   3.788
18147W        W83374  28.383  37.302   1.622
18148W        W83375  44.346  33.871   2.825
18149W        W83376   4.235  11.333  14.530
18150W        W83377  15.618  32.430   1.836
18151W        W83378  12.992   4.249  10.698
18152W        W83379  19.801  25.684  11.970
18153W        W83380  37.279   9.288   0.867
18154W        W83381  34.783   9.770   3.689
18155W        W83382  19.424  13.624   3.751
18156W        W83383   2.622   4.385  12.332
18157W        W83384  18.242  22.576   2.281
18158W        W83385   5.968  30.451  10.682
18159W        W83386  36.131  42.849  14.573
18160W        W83387  24.996  15.884  13.405
18161W        W83388  17.266  23.522   3.396
18162W        W83389  16.213  13.378   0.772
18163W        W83390  28.580  15.893   0.475
18164W        W83391  26.797  27.560   0.995
18165W        W83392  29.598   2.793   2.102
18166W        W83393  32.047  20.051  14.400
18167W        W83394  15.076  17.801  12.501
18168W        W83395  34.941  27.075  11.070
18169W        W83396  29.226  43.085  14.092
18170W        W83397  31.922  11.860   2.368
18171W        W83398   8.993  16.790   4.516
18172W        W83399  36.502  14.249   2.370
18173W        W83400  43.761  26.668  11.122
18174W        W83401  31.686  11.795   1.923
18175W        W83402  37.879  24.556   1.424
18176W        W83403  44.970  31.779  14.489
18177W        W83404  34.232  10.905   1.917
18178W        W83405   7.387  28.694   1.378
18179W        W83406  23.297  26.522   3.328
18180W        W83407  40.522   3.011  12.455
18181W        W83408  22.648   3.708  14.439
18182W        W83409  18.074  13.803   4.200
18183W        W83410   1.044  12.693  12.963
18184W        W83411  17.516   9.248   0.978
18185W        W83412  11.470  19.884  11.217
18186W        W83413  33.609  43.085  10.839
18187W        W83414   8.600   8.498   0.465
18188W        W83415  29.895   4.502   1.420
18189W        W83416  31.035  16.298  10.522
18190W        W83417  33.897  43.064  12.983
18191W        W83418  39.661  24.753   2.761
18192W        W83419  21.242  17.071   0.334
18193W        W83420  43.632  44.533   3.580
18194W        W83421  37.304  38.605   1.278
18195W        W83422   2.317   6.797   3.569
18196W        W83423  41.812   9.923   1.701
18197W        W83424  33.498  35.992  10.657
18198W        W83425  19.554  12.644  12.356
18199W        W83426  26.296   8.155   1.339
18200W        W83427  21.714  11.297  14.914
18201W        W83428   7.371  11.250   1.096
18202W        W83429  28.934  39.957  13.833
18203W        W83430  13.084  17.567   2.335
18204W        W83431  39.406  20.278  13.820
18205W        W83432  39.030   4.326   5.010
18206W        W83433  28.633   4.919   0.510
18207W        W83434  38.024  33.769   1.718
18208W        W83435  31.990  35.798  10.856
18209W        W83436  13.174  12.109  12.882
18210W        W83437   1.246   6.357   0.475
18211W        W83438  10.146   7.825   5.028
18212W        W83439  14.168  32.082   1.164
18213W        W83440  21.043  32.552   4.672
18214W        W83441  10.722   9.763   4.660
18215W        W83442  10.228   5.694  12.079
18216W        W83443  30.567  39.010  12.887
18217W        W83444   1.722  10.163   1.635
18218W        W83445  38.789  40.981  12.255
18219W        W83446  26.974   3.529  12.981
18220W        W83447  24.846  16.179  12.914
18221W        W83448  36.061  10.471  14.808
18222W        W83449  41.985  11.481  14.895
18223W        W83450  21.669  26.659  12.329
18224W        W83451  42.497  13.201   4.116
18225W        W83452  24.714   1.292  13.346
18226W        W83453  19.330  30.978  11.662
18227W        W83454  40.442  33.907   2.546
18228W        W83455  44.393  20.343   4.437
18229W        W83456  14.705  20.585   1.875
18230W        W83457  27.779  15.353  10.156
18231W        W83458  27.674  15.699  14.260
18232W        W83459  22.991   3.870   1.784
18233W        W83460  14.972   3.207   1.791
18234W        W83461  17.712  21.040   4.361
18235W        W83462  24.203   1.783  13.637
18236W        W83463  12.827  22.067   3.505
18237W        W83464  32.424  24.267  10.737
18238W        W83465  24.825  20.200   3.625
18239W        W83466   6.622  42.654  11.754
18240W        W83467   7.149  16.659  11.173
18241W        W83468  39.544  13.585   2.178
18242W        W83469  22.059  12.220   0.685
18243W        W83470   9.431  24.658   4.706
18244W        W83471   2.584  27.642  10.256
18245W        W83472   5.603   9.117   1.677
18246W        W83473  42.368  38.391  12.430
18247W        W83474  10.905   7.268  13.955
18248W        W83475  38.334  29.988  11.919
18249W        W83476  14.072  24.107  14.264
18250W        W83477  10.634  39.019  14.441
18251W        W83478  37.363   6.057   5.181
18252W        W83479  37.493  22.486  14.082
18253W        W83480  27.945  39.810   2.372
18254W        W83481   0.838  31.874   4.701
18255W        W83482  22.540  19.825   3.616
18256W        W83483   8.394  21.469  13.935
18257W        W83484  44.842   2.952  13.282
18258W        W83485   6.340   3.508   0.939
18259W        W83486   3.970  43.294   1.838
18260W        W83487  35.933  26.896   4.633
18261W        W83488  23.855  15.112   3.399
18262W        W83489  11.633   7.214   0.877
18263W        W83490   3.184  39.111  14.844
18264W        W83491  10.410  42.010   0.881
18265W        W83492  20.759  41.229   4.490
18266W        W83493   8.246  35.320   2.314
18267W        W83494  11.882   0.335  11.883
18268W        W83495  22.710  29.084   4.433
18269W        W83496  42.832  16.661  13.414
18270W        W83497  17.164  25.936  10.711
18271W        W83498   7.353  10.327  10.370
18272W        W83499  35.536  28.602   2.619
18273W        W83500   6.397  41.732   1.715
18274W        W83501  44.342   5.849  12.616
18275W        W83502  30.664  12.092   2.814
18276W        W83503  10.237  36.038  12.478
18277W        W83504  21.694  16.860   1.898
18278W        W83505   0.407   8.783   1.004
18279W        W83506   2.700  43.185   1.245
18280W        W83507  11.863  37.880  11.955
18281W        W83508  26.573  37.345   2.353
18282W        W83509  37.062  11.669   0.075
18283W        W83510  32.104  19.123  12.565
18284W        W83511  23.996  30.064  10.708
18285W        W83512   2.966  38.946   3.623
18286W        W83513  16.600   8.005  11.058
18287W        W83514  28.885  42.922   4.013
18288W        W83515  44.699  42.095  13.579
18289W        W83516  22.462   9.061  12.082
18290W        W83517  38.046  10.267   3.599
18291W        W83518   4.976  23.234  13.051
18292W        W83519  42.070   2.022   0.324
18293W        W83520  32.573  17.987  12.924
18294W        W83521  29.223  21.232  14.767
18295W        W83522  41.557   1.856  10.445
18296W        W83523  11.853  39.318  13.825
18297W        W83524  43.611   8.627   1.290
18298W        W83525  18.674  38.903   1.920
18299W        W83526   2.232  22.524   0.289
18300W        W83527  12.749  18.086  12.338
18301W        W83528  26.914   2.857   2.807
18302W        W83529  39.782  36.418   3.659
18303W        W83530  39.448  40.037   0.096
18304W        W83531  15.550  26.083  11.124
18305W        W83532  22.530  15.197  11.252
18306W        W83533  39.807  44.997  13.176
18307W        W83534  31.266  36.191   2.462
18308W        W83535  18.370  13.246  13.849
18309W        W83536  26.968  17.044  11.165
18310W        W83537   1.203   6.739  12.032
18311W        W83538  17.169  27.261  12.888
18312W        W83539  20.041  18.583  13.605
18313W        W83540   5.747  43.951   1.963
18314W        W83541  35.619   6.299   4.250
18315W        W83542  28.719  39.305   4.023
18316W        W83543  23.586   6.925   2.734
18317W        W83544   5.313  17.997   0.009
18318W        W83545  29.867  34.061   4.839
18319W        W83546   2.020   4.482   2.390
18320W        W83547  42.246  36.530  12.316
18321W        W83548   1.980   8.880   2.890
18322W        W83549  36.567   8.383   4.206
18323W        W83550   9.430   8.864   3.819
18324W        W83551  39.827  15.554  10.731
18325W        W83552  25.070  19.860  12.922
18326W        W83553  37.940  39.962   0.870
18327W        W83554  13.211   3.420   3.847
18328W        W83555  34.821  37.418  13.996
18329W        W83556  16.667  37.916  12.076
18330W        W83557  31.589   5.375  11.803
18331W        W83558  10.819   2.981  10.843
18332W        W83559  44.847  38.099  13.866
18333W        W83560   2.512  39.640  11.011
18334W        W83561  12.736  23.174  13.471
18335W        W83562  10.866   8.716  11.783
18336W        W83563  43.447   8.180   0.802
18337W        W83564  20.590  32.341   2.097
18338W        W83565  23.600  31.165  12.358
18339W        W83566  15.178  42.545   3.559
18340W        W83567  24.258  16.397  13.613
18341W        W83568  44.930  15.646   1.980
18342W        W83569  21.570  38.884  10.638
18343W        W83570   1.259  25.841   0.794
18344W        W83571  27.034   1.394   2.004
18345W        W83572  23.936  21.681   0.968
18346W        W83573  14.476   3.654   1.319
18347W        W83574  24.798  31.393  11.645
18348W        W83575   7.772  10.710  13.957
18349W        W83576  38.954  28.179   4.586
18350W        W83577  25.488  17.068   3.453
18351W        W83578  42.888   2.883  14.028
18352W        W83579  10.377  21.859  13.858
18353W        W83580  32.587  27.335   3.154
18354W        W83581  13.101  18.565   3.178
18355W        W83582  18.037  32.153   0.388
18356W        W83583  24.665  44.245   1.481
18357W        W83584  17.568  29.189  12.862
18358W        W83585  37.988   6.901  12.141
18359W        W83586  15.612  28.972  14.845
18360W        W83587  39.032  18.656   4.522
18361W        W83588  10.423   7.319  11.252
18362W        W83589   4.105  35.932   4.089
18363W        W83590   6.729  16.375  12.934
18364W        W83591   8.881  20.998  14.328
18365W        W83592  33.024  31.859   2.728
18366W        W83593  32.904   8.926   2.165
18367W        W83594  27.174  34.358  12.896
18368W        W83595   0.163  34.626  13.844
18369W        W83596   6.214  42.207   2.782
18370W        W83597  15.274  39.599   1.791
18371W        W83598  15.719  21.106   0.922
18372W        W83599  23.531  31.087  10.664
18373W        W83600  12.674  41.747  10.675
18374W        W83601   9.720   1.814   4.930
18375W        W83602  10.803   5.023   0.496
18376W        W83603  41.540  29.101  12.209
18377W        W83604   4.831  34.959   3.717
18378W        W83605  40.997   8.798   2.881
18379W        W83606   7.141   5.929  11.675
18380W        W83607  12.099  30.447   3.551
18381W        W83608   7.189  40.998   2.863
18382W        W83609  22.778  44.796  10.073
18383W        W83610  30.829  14.740  12.865
18384W        W83611  20.525  38.467   1.429
18385W        W83612  31.916  14.638   0.303
18386W        W83613   8.255  24.950   1.621
18387W        W83614   2.171   8.813   3.841
18388W        W83615  41.855   2.648  13.991
18389W        W83616  30.821  31.918  14.976
18390W        W83617  41.961  19.628   2.212
18391W        W83618  40.342  35.881  13.568
18392W        W83619  31.285  41.524  13.402
18393W        W83620  37.406  11.349   4.648
18394W        W83621  33.600  36.270   0.407
18395W        W83622  23.195   3.005  10.937
18396W        W83623   2.813  38.530   3.308
18397W        W83624   2.534  20.054  12.087
18398W        W83625  24.076  34.163  14.011
18399W        W83626  27.521   2.676  12.193
18400W        W83627   6.957   9.785  11.259
18401W        W83628   4.143  11.185   1.321
18402W        W83629   7.422   7.688  14.367
18403W        W83630  17.570  35.454   2.164
18404W        W83631  17.022   6.333  13.612
18405W        W83632  43.080  27.083  14.042
18406W        W83633  36.742  44.934  12.015
18407W        W83634  37.535  42.748   0.495
18408W        W83635  21.931   0.108  12.381
18409W        W83636  42.001  34.958  12.498
18410W        W83637  28.098   7.918   4.560
18411W        W83638  10.762  28.650   2.936
18412W        W83639  13.832  44.716   3.367
18413W        W83640  36.016  31.142   0.322
18414W        W83641  32.136  42.211   2.592
18415W        W83642  28.758  43.015   4.492
18416W        W83643  39.435   1.653  14.741
18417W        W83644   4.385  32.915   1.364
18418W        W83645  37.663  13.843  10.772
18419W        W83646  38.328  24.671  11.235
18420W        W83647  35.616  22.256   1.259
18421W        W83648   1.944   4.189  12.603
18422W        W83649  15.001  36.366   3.368
18423W        W83650   7.914  39.618  13.627
18424W        W83651  35.506  14.115   4.569
18425W        W83652  21.865  29.193   4.706
18426W        W83653  23.217  33.084  12.634
18427W        W83654  37.307  30.969  13.941
18428W        W83655  29.904   4.843  11.613
18429W        W83656  17.258  25.176   3.679
18430W        W83657   1.807  38.876   1.608
18431W        W83658   8.746  10.913   2.734
18432W        W83659  36.215  26.039   1.086
18433W        W83660  28.231  14.062  12.539
18434W        W83661  37.098  14.181  10.799
18435W        W83662  12.097  24.425  12.544
18436W        W83663  44.879  25.908  13.246
18437W        W83664  33.309  35.436  14.955
18438W        W83665  38.350  23.748  11.030
18439W        W83666   5.953  40.878   4.500
18440W        W83667  11.793  15.871  10.299
18441W        W83668   5.260  32.445  12.629
18442W        W83669  11.773  20.784  14.914
18443W        W83670  18.616   6.639  11.957
18444W        W83671  41.987  23.737  13.053
18445W        W83672  15.393  20.113  14.060
18446W        W83673   6.334  38.989   3.232
18447W        W83674  11.809   3.665  14.993
18448W        W83675  14.186  27.264  13.962
18449W        W83676  27.516  43.286   2.750
18450W        W83677   8.456  13.713   1.680
18451W        W83678  25.767  29.557   3.610
18452W        W83679  31.645  11.337  12.555
18453W        W83680   4.095  17.582  11.274
18454W        W83681  16.674  13.217   2.813
18455W        W83682  21.246  44.372  13.530
18456W        W83683  26.006  20.988  14.394
18457W        W83684  23.442  18.250   2.768
18458W        W83685  32.474  39.455   2.787
18459W        W83686  38.613   8.846  14.508
18460W        W83687  23.756  40.372   1.777
18461W        W83688  12.582  21.687   2.517
18462W        W83689  20.095  40.956  13.921
18463W        W83690  22.487  15.273   4.711
18464W        W83691  29.886  41.784  13.623
18465W        W83692  11.160  44.540  13.037
18466W        W83693  33.686  43.576  11.067
18467W        W83694  36.370  22.292  12.992
18468W        W83695  44.419  14.387   1.159
18469W        W83696  41.788  17.798  14.459
18470W        W83697  40.345  10.773   2.823
18471W        W83698  39.046   8.813  11.615
18472W        W83699   3.708   3.004  14.320
18473W        W83700  34.310  32.564   4.295
18474W        W83701  20.433  39.451  12.542
18475W        W83702  33.505  43.305   4.286
18476W        W83703  16.850  32.998   4.125
18477W        W83704   6.237  10.152  13.890
18478W        W83705  16.861  36.199   4.129
18479W        W83706  38.808  40.275   0.647
18480W        W83707  14.829  12.399  11.666
18481W        W83708   3.963  42.234  13.291
18482W        W83709   6.932   3.205   0.158
18483W        W83710   5.652  41.234  13.072
18484W        W83711  22.032  17.310  11.420
18485W        W83712  22.898  44.848   3.658
18486W        W83713  36.419  14.306  13.530
18487W        W83714   9.197  40.275   4.311
18488W        W83715   3.015  20.618  11.277
18489W        W83716   2.448   4.788   2.301
18490W        W83717  15.257  14.560   3.284
18491W        W83718  23.587   9.243   4.125
18492W        W83719  43.117  18.487  13.231
18493W        W83720  28.116  39.427  10.598
18494W        W83721  31.623  32.206  11.510
18495W        W83722   1.304  12.657  14.813
18496W        W83723  34.608  24.633  12.039
18497W        W83724  19.616  31.434   0.904
18498W        W83725  26.648  20.030   0.842
18499W        W83726  34.438  41.530   3.166
18500W        W83727  35.329  11.275  10.544
18501W        W83728   8.925   8.629  12.987
18502W        W83729  25.468   8.087   0.885
18503W        W83730  30.957  34.177  12.401
18504W        W83731  34.985  21.648   1.728
18505W        W83732  25.918   7.854   1.644
18506W        W83733  30.630  10.626   2.036
18507W        W83734  14.526  24.622  14.928
18508W        W83735  26.805  19.761   1.249
18509W        W83736  17.822  38.047  11.519
18510W        W83737  12.942  35.347   3.300
18511W        W83738  44.733  28.267   9.986
18512W        W83739  19.752   2.912  12.091
18513W        W83740  42.323   4.734  14.983
18514W        W83741  32.899  31.020   2.151
18515W        W83742  43.046  38.510   4.552
18516W        W83743  21.221   2.694  14.949
18517W        W83744   9.808  37.933   2.172
18518W        W83745  12.278  18.878  14.981
18519W        W83746   2.285   5.757   2.807
18520W        W83747  26.432  38.216   2.377
18521W        W83748  35.302  15.503  11.221
18522W        W83749  41.464  23.809   3.679
18523W        W83750  25.667  30.643  12.592
18524W        W83751   7.178  42.884   3.923
18525W        W83752   5.509   6.678   1.797
18526W        W83753  14.806  26.225  12.058
18527W        W83754   3.528  13.628   2.732
18528W        W83755  12.202   6.161   3.382
18529W        W83756  19.581   3.076   5.126
18530W        W83757  13.435  17.328   0.687
18531W        W83758  19.722  19.918   4.554
18532W        W83759  11.406  10.552   2.745
18533W        W83760   9.208  29.175   4.525
18534W        W83761  39.106   0.007  10.792
18535W        W83762  16.733   8.580  12.119
18536W        W83763  38.939  18.166  11.717
18537W        W83764  10.118  38.857  14.760
18538W        W83765   9.625   4.471   2.316
18539W        W83766  15.418  10.168  11.592
18540W        W83767  26.990   7.290   4.165
18541W        W83768  22.290   6.752  13.576
18542W        W83769   4.191   2.257   2.254
18543W        W83770  18.502  36.653   4.139
18544W        W83771  31.214  33.704  10.378
18545W        W83772  29.086   8.866  12.961
18546W        W83773  16.822   3.339   2.331
18547W        W83774  12.397  38.889   3.719
18548W        W83775  36.133   5.890   2.197
18549W        W83776  32.900  19.329  13.061
18550W        W83777   5.470  29.920   2.308
18551W        W83778   5.643  43.336   4.963
18552W        W83779  31.511  20.696  11.150
18553W        W83780  32.204  44.034  11.909
18554W        W83781  28.542  10.858   3.226
18555W        W83782  11.818  23.227  13.844
18556W        W83783  16.237   4.454   2.738
18557W        W83784  26.528  10.214  11.355
18558W        W83785  14.589   1.492  12.555
18559W        W83786  13.612  36.325  11.529
18560W        W83787  12.617  43.734   0.388
18561W        W83788  17.845   0.459  12.952
18562W        W83789  12.483  18.317   4.799
18563W        W83790  10.860   2.791  11.326
18564W        W83791  36.374  29.643   4.416
18565W        W83792   9.193  34.500  12.456
18566W        W83793  28.869  26.461   1.866
18567W        W83794  22.472  35.187  14.342
18568W        W83795   1.456  23.676  10.444
18569W        W83796  40.080   3.625  13.996
18570W        W83797   8.619   6.700  12.940
18571W        W83798   9.130  33.509   2.840
18572W        W83799   8.665  12.322  13.991
18573W        W83800  13.652  13.280  14.900
18574W        W83801   4.687   8.628   3.351
18575W        W83802  27.091  13.355  14.855
18576W        W83803  20.628  28.908  12.985
18577W        W83804  15.793  17.691   3.732
18578W        W83805  27.666  43.469  11.202
18579W        W83806   8.435   5.335   1.373
18580W        W83807  31.767  33.613  10.308
18581W        W83808  32.476  11.953  14.675
18582W        W83809  36.483  28.776   4.691
18583W        W83810   7.731   6.701   0.957
18584W        W83811  28.544  35.764   4.894
18585W        W83812  21.762  34.927   1.447
18586W        W83813  32.375  25.015   1.929
18587W        W83814  10.616   6.964  10.673
18588W        W83815   7.896  23.517  12.449
18589W        W83816  14.943  19.474  14.752
18590W        W83817  22.165  18.990   1.680
18591W        W83818  23.197  41.225   3.244
18592W        W83819   8.377  21.278   2.364
18593W        W83820  38.831  16.161   1.499
18594W        W83821  28.818  21.235  13.018
18595W        W83822  33.779  42.061  14.340
18596W        W83823   6.751  42.970   4.190
18597W        W83824  15.835  18.846  14.682
18598W        W83825  41.087  26.083   1.717
18599W        W83826   3.472  39.343   3.721
18600W        W83827  40.938   5.380   1.876
18601W        W83828   2.149   3.426   0.337
18602W        W83829  36.872  30.340  12.876
18603W        W83830  43.035  19.510  12.486
18604W        W83831   8.792  18.662  10.980
18605W        W83832  25.921  35.002   0.269
18606W        W83833   2.171  27.588   0.783
18607W        W83834  39.864  29.042   4.318
18608W        W83835  42.245   4.306   3.109
18609W        W83836   2.022  21.157  14.331
18610W        W83837  41.683   7.710   3.171
18611W        W83838   8.299  30.366  13.498
18612W        W83839  31.425  28.598  12.477
18613W        W83840  11.406  26.447   4.217
18614W        W83841   1.326  27.737  12.975
18615W        W83842  26.862  26.662   4.297
18616W        W83843   1.032   8.616  11.459
18617W        W83844   8.821   8.194  12.163
18618W        W83845   1.716   1.023  13.926
18619W        W83846  18.997  40.084  12.988
18620W        W83847  41.866  20.099   3.377
18621W        W83848  18.266   4.445   3.180
18622W        W83849  23.045  40.951  12.361
18623W        W83850   9.717  37.332  10.701
18624W        W83851  10.323  40.374  10.382
18625W        W83852   1.813  33.919   0.315
18626W        W83853  12.791  36.321  14.799
18627W        W83854  28.547   7.200   4.391
18628W        W83855   6.239  27.667  11.944
18629W        W83856  16.798  15.220  11.722
18630W        W83857  43.892   1.800   0.537
18631W        W83858  34.819  11.706   4.348
18632W        W83859  40.335  11.820   1.226
18633W        W83860  10.432  27.512  12.739
18634W        W83861   7.620  20.558   1.152
18635W        W83862  16.405  34.751  11.136
18636W        W83863   0.908  21.808  14.709
18637W        W83864  40.435   3.325  10.248
18638W        W83865  13.265  32.690   0.429
18639W        W83866  34.862  17.322   9.957
18640W        W83867  41.557   4.971  12.888
18641W        W83868  20.649  29.485   3.215
18642W        W83869  31.472  21.504   4.644
18643W        W83870  40.314  42.914  11.928
18644W        W83871   6.687  14.416   4.228
18645W        W83872  17.646  29.173   4.587
18646W        W83873  38.394   4.410   2.379
18647W        W83874  18.508  30.905   5.021
18648W        W83875  33.821  43.876   4.954
18649W        W83876  13.688  14.243   3.244
18650W        W83877  32.035  31.359   4.195
18651W        W83878  11.646   9.156   1.876
18652W        W83879  43.590  22.557   3.783
18653W        W83880   8.169  22.709   2.291
18654W        W83881  40.839   2.891   1.473
18655W        W83882  43.771  28.192  10.706
18656W        W83883   2.183  24.716   1.880
18657W        W83884  27.301  38.787  12.033
18658W        W83885  36.906  32.215   2.164
18659W        W83886  22.982  27.965  13.828
18660W        W83887  31.360  35.333  13.536
18661W        W83888  10.459  11.284  12.473
18662W        W83889  34.371  21.682   2.355
18663W        W83890  27.251   4.962  11.728
18664W        W83891  29.422  18.467  13.534
18665W        W83892  12.554  33.125   1.383
18666W        W83893  20.475   5.269  12.396
18667W        W83894   5.584   9.308   2.208
18668W        W83895  20.166  43.312   0.928
18669W        W83896  44.272  23.959  12.030
18670W        W83897  19.745   7.424   2.631
18671W        W83898  41.087  25.956   3.301
18672W        W83899  13.157  30.930  10.741
18673W        W83900  12.243   5.432  11.711
18674W        W83901   2.487   4.694  11.782
18675W        W83902  35.278  15.926  11.866
18676W        W83903  17.992  36.264  12.981
18677W        W83904  36.668   2.395  14.766
18678W        W83905  23.216  37.828  14.342
18679W        W83906   1.241  32.080  13.774
18680W        W83907  43.920  27.098  10.143
18681W        W83908  28.136  39.817  14.401
18682W        W83909   7.742  26.446   0.724
18683W        W83910  44.655  38.077  12.448
18684W        W83911   6.127   2.713  12.453
18685W        W83912  38.521  12.264  11.629
18686W        W83913  19.155  40.933  13.390
18687W        W83914  25.241  29.867   0.803
18688W        W83915  28.565  21.293   0.393
18689W        W83916  26.259  37.637  13.975
18690W        W83917  31.074  17.708  12.964
18691W        W83918  10.837  41.221  12.146
18692W        W83919  42.509  38.591  11.974
18693W        W83920  17.900  23.687   0.666
18694W        W83921  42.919  34.967  12.834
18695W        W83922  16.590  44.282  13.457
18696W        W83923   1.831  31.057  11.391
18697W        W83924  25.973  30.000   2.384
18698W        W83925  27.669  23.852  10.452
18699W        W83926  18.716  43.673  12.357
18700W        W83927  22.211  20.279   3.625
18701W        W83928   0.895  30.807  10.171
18702W        W83929  10.389  43.481  10.654
18703W        W83930  17.379  39.504  12.579
18704W        W83931  18.279   4.062  10.595
18705W        W83932  41.591   7.720   1.347
18706W        W83933   2.750  19.796  11.657
18707W        W83934   2.873   9.714   3.230
18708W        W83935  15.214  31.015  10.823
18709W        W83936  23.289  36.180  11.173
18710W        W83937  30.383  35.399  10.488
18711W        W83938  39.852  15.177  11.122
18712W        W83939  22.978  37.321   4.525
18713W        W83940  32.951  11.078  12.580
18714W        W83941  16.968  42.055   1.894
18715W        W83942  21.772  44.996  13.847
18716W        W83943  44.745  36.727   0.757
18717W        W83944  36.354  37.550   0.942
18718W        W83945   5.779   3.470   2.207
18719W        W83946  42.282   7.708  10.749
18720W        W83947  10.840  36.915  11.128
18721W        W83948  15.573   5.233   0.787
18722W        W83949   3.408  36.643  12.345
18723W        W83950  14.865  16.055  11.619
18724W        W83951  14.649  15.987   0.802
18725W        W83952  19.604  12.667  13.790
18726W        W83953  39.801  19.626  14.265
18727W        W83954   5.802   1.922   4.184
18728W        W83955   6.642   9.565  14.455
18729W        W83956   4.914  15.583  10.984
18730W        W83957  33.685  13.147   1.230
18731W        W83958  31.823   9.461   1.327
18732W        W83959   3.891   1.533  13.332
18733W        W83960  29.767   4.726   5.212
18734W        W83961   4.384  29.404  11.015
18735W        W83962  43.109   7.464  11.687
18736W        W83963  14.069  30.139  10.765
18737W        W83964   0.914   2.573  11.557
18738W        W83965   7.882   4.318  13.433
18739W        W83966   7.285  41.551  12.423
18740W        W83967   3.944  37.429   5.021
18741W        W83968  18.148  13.264  11.932
18742W        W83969  19.306   2.045  12.485
18743W        W83970  36.292   7.557   4.834
18744W        W83971  25.189  22.229  12.246
18745W        W83972  43.503  20.490  12.958
18746W        W83973  15.251  23.295  11.064
18747W        W83974  42.939  42.326  13.885
18748W        W83975  20.086  31.616  12.896
18749W        W83976  15.938  14.506   1.418
18750W        W83977  23.772  35.781   2.775
18751W        W83978  12.432  27.429  12.140
18752W        W83979   6.261  14.822   4.250
18753W        W83980  31.206  36.437   1.155
18754W        W83981  36.090  12.655   0.502
18755W        W83982  37.128  14.780   4.496
18756W        W83983  25.083  22.431  13.812
18757W        W83984  44.035  25.101   3.327
18758W        W83985  16.382  33.654   0.344
18759W        W83986  13.493  12.627  14.089
18760W        W83987  29.998  33.380  14.602
18761W        W83988  12.577  21.932   0.940
18762W        W83989  18.511  27.396   0.291
18763W        W83990  14.813  30.530   0.369
18764W        W83991  13.577  19.178   3.652
18765W        W83992  38.177  33.660   3.219
18766W        W83993   1.269  29.398  11.552
18767W        W83994  33.358  40.504   2.783
18768W        W83995   4.414   5.812  11.221
18769W        W83996  19.799  19.617  13.399
18770W        W83997  39.897  23.114  13.977
18771W        W83998  17.253  19.614   0.482
18772W        W83999  21.136  17.048  11.847
18773W        W84000  35.582  44.900  13.418
18774W        W84001  22.591  41.740   0.187
18775W        W84002  42.118  27.551  12.941
18776W        W84003  11.429  42.554  13.079
18777W        W84004  20.949  33.663   1.146
18778W        W84005  44.482  14.598  14.375
18779W        W84006  41.593  17.098   2.827
18780W        W84007  13.612  20.537  14.277
18781W        W84008  41.158   9.373   0.894
18782W        W84009  19.777  19.330   3.687
18783W        W84010  20.251  13.124  10.744
18784W        W84011  33.326  35.644   1.956
18785W        W84012  34.116  38.575   4.530
18786W        W84013   5.051  22.087   2.625
18787W        W84014  42.513  12.616  14.810
18788W        W84015  36.008  28.362   0.652
18789W        W84016  27.169  37.519   3.198
18790W        W84017  23.042   0.700  13.010
18791W        W84018  31.000  15.832   2.710
18792W        W84019  16.972  26.462   5.039
18793W        W84020  33.809  34.336   0.389
18794W        W84021  42.667  12.728   4.039
18795W        W84022  23.903  11.010   2.759
18796W        W84023  21.876  34.107  12.034
18797W        W84024  38.550  30.627   1.431
18798W        W84025  17.595  34.514  10.901
18799W        W84026  14.382  15.324   4.157
18800W        W84027  12.774   7.965   0.931
18801W        W84028  38.607  21.421  10.170
18802W        W84029  17.580   9.365  14.398
18803W        W84030   3.183  16.748   2.814
18804W        W84031  24.675   3.950  12.945
18805W        W84032  38.058  33.891  14.423
18806W        W84033  25.641  44.774  11.533
18807W        W84034  10.217  40.804  14.495
18808W        W84035  24.677   7.950  14.290
18809W        W84036  11.381   4.184  13.362
18810W        W84037   7.325  37.055  13.885
18811W        W84038  37.969  40.070   2.560
18812W        W84039  15.684   2.488  13.802
18813W        W84040  44.457  19.593  13.782
18814W        W84041  19.689   3.769   1.890
18815W        W84042   1.803   0.873  11.338
18816W        W84043  22.786   6.576  11.596
18817W        W84044  12.303  16.581   9.783
18818W        W84045  42.250  40.013   3.654
18819W        W84046  15.241  35.834   0.045
18820W        W84047  30.129  24.302  13.569
18821W        W84048   2.824  14.848   1.736
18822W        W84049  43.690  44.977   3.962
18823W        W84050   2.211  34.874   3.175
18824W        W84051  14.342  19.962   1.440
18825W        W84052  30.894  18.243   4.298
18826W        W84053  31.637  40.870  11.459
18827W        W84054  15.164  38.894   4.089
18828W        W84055  30.107   4.049   0.486
18829W        W84056  43.940  22.917  14.026
18830W        W84057  17.244  29.491   0.551
18831W        W84058  44.568  27.619   3.682
18832W        W84059   0.186  24.139   3.995
18833W        W84060  36.470   1.731   0.446
18834W        W84061  31.894  13.272   1.376
18835W        W84062  30.742  18.358  13.264
18836W        W84063  42.038   6.049  11.159
18837W        W84064  23.448  25.244  12.581
18838W        W84065  25.381   9.414  14.573
18839W        W84066   8.222  25.076  13.753
18840W        W84067  32.532  41.817   1.851
18841W        W84068  28.209  12.445  14.644
18842W        W84069  43.795  27.690   2.332
18843W        W84070  37.269  35.335  13.407
18844W        W84071  37.799  19.430   4.176
18845W        W84072  10.670   6.803   4.585
18846W        W84073  38.621  38.139   3.562
18847W        W84074  13.998  22.483   0.154
18848W        W84075   5.304  35.099   2.919
18849W        W84076   3.194  21.149  13.503
18850W        W84077  30.369  42.448  12.047
18851W        W84078  33.003  43.444   3.029
18852W        W84079   8.458   2.088  14.388
18853W        W84080  16.230  31.478  11.992
18854W        W84081  17.982  19.240  13.263
18855W        W84082  21.017  21.854   2.446
18856W        W84083  22.119  13.047   1.584
18857W        W84084  37.936  34.336  11.439
18858W        W84085   3.066  21.645  12.553
18859W        W84086  12.750  43.702   4.135
18860W        W84087  11.212  12.236   0.656
18861W        W84088   2.794  29.610   1.440
18862W        W84089  34.471  27.077  11.336
18863W        W84090  25.059  13.672   1.172
18864W        W84091  30.532  22.958   1.404
18865W        W84092   5.387  14.150   2.272
18866W        W84093   2.882  35.056   2.907
18867W        W84094  32.692  20.986   2.286
18868W        W84095  23.065  23.246   2.294
18869W        W84096  25.477  10.911   1.430
18870W        W84097  14.830  35.275  13.272
18871W        W84098  38.571  40.562  13.916
18872W        W84099  23.515  18.520  13.630
18873W        W84100   0.004  10.098  13.527
18874W        W84101  16.799  12.698   2.765
18875W        W84102   2.645  44.689  11.089
18876W        W84103  17.214   5.330   2.080
18877W        W84104   5.859   3.472  14.354
18878W        W84105  37.367  35.553  14.763
18879W        W84106  16.041  27.078   3.127
18880W        W84107  37.351   3.271   0.353
18881W        W84108  11.336  12.310  11.364
18882W        W84109  21.102   7.192  14.332
18883W        W84110  11.170  10.384  14.820
18884W        W84111   4.747  13.089   4.594
18885W        W84112  15.682   9.749   0.101
18886W        W84113  34.147  30.212   1.123
18887W        W84114   4.610   0.000  14.462
18888W        W84115  39.867  39.248  11.937
18889W        W84116  10.391   4.783  10.016
18890W        W84117  32.109   2.979   4.117
18891W        W84118  32.089  40.348  11.669
18892W        W84119  17.593   4.930   4.148
18893W        W84120  15.762  31.521   0.286
18894W        W84121  26.754  28.504  13.941
18895W        W84122  40.003  16.289   1.794
18896W        W84123  13.311  11.869   3.228
18897W        W84124   4.746  31.561  10.717
18898W        W84125  41.007  24.066   1.319
18899W        W84126  18.023  19.552   2.320
18900W        W84127  35.609  29.134   0.803
18901W        W84128  13.782   5.203   3.642
18902W        W84129  43.030  42.416  14.789
18903W        W84130  34.848  35.099  13.278
18904W        W84131  29.306  21.243   2.706
18905W        W84132  34.285  27.622  13.590
18906W        W84133  44.904   2.391  13.506
18907W        W84134  14.080  11.274  10.975
18908W        W84135   2.757   2.474   4.555
18909W        W84136  32.396   2.843  14.278
18910W        W84137  39.259  36.203   1.822
18911W        W84138  39.008  44.778  11.588
18912W        W84139  24.995  32.987   2.473
18913W        W84140  25.282  22.207   3.246
18914W        W84141  35.511  27.133   1.310
18915W        W84142  31.610  12.260   1.708
18916W        W84143  19.695  26.131  13.413
18917W        W84144  44.375  17.560  12.018
18918W        W84145  38.311  24.752  12.631
18919W        W84146   6.028  16.602  14.748
18920W        W84147  41.106  34.479  12.537
18921W        W84148   2.326  38.565   2.747
18922W        W84149  32.889  32.873  14.379
18923W        W84150  13.774   7.622  11.153
18924W        W84151  34.342  12.916   4.588
18925W        W84152  26.742  11.333   3.906
18926W        W84153  43.777  11.570   3.730
18927W        W84154  40.479   2.110   2.760
18928W        W84155  10.801  23.581   0.559
18929W        W84156  21.985  34.521   3.643
18930W        W84157   5.767   0.859   3.606
18931W        W84158  22.880   5.344   4.813
18932W        W84159  30.625  42.863  10.750
18933W        W84160  39.436  26.270  12.583
18934W        W84161  38.150  11.779   1.744
18935W        W84162  15.428   1.509   3.299
18936W        W84163  40.172   7.584   5.020
18937W        W84164  12.592  38.280  11.142
18938W        W84165  10.190  11.169  11.599
18939W        W84166  34.447   2.836  12.734
18940W        W84167   4.793  13.333  10.693
18941W        W84168  14.552  41.961  11.583
18942W        W84169  18.470  44.496   1.301
18943W        W84170   5.826  41.860   2.554
18944W        W84171  27.415   9.835   2.986
18945W        W84172  44.835   4.467   2.914
18946W        W84173  27.977  17.099   1.923
18947W        W84174  13.314  19.293   3.070
18948W        W84175  22.106  26.992  13.613
18949W        W84176  28.521  38.358  10.629
18950W        W84177   6.640  16.059   3.189
18951W        W84178  39.839  10.236  10.336
18952W        W84179  19.712  12.598   0.008
18953W        W84180  35.713  42.586   3.063
18954W        W84181  35.169  18.205   2.697
18955W        W84182  27.208  18.598  12.560
18956W        W84183  18.902   3.623  12.038
18957W        W84184   0.926  22.066   1.745
18958W        W84185  42.062   8.735  14.227
18959W        W84186   4.016   5.746   1.405
18960W        W84187  27.988   8.234   0.230
18961W        W84188  41.411  36.427   1.648
18962W        W84189  44.961  44.277   5.300
18963W        W84190  41.799  26.612   9.485
18964W        W84191  23.744  21.540   1.850
18965W        W84192  11.166  21.673   0.323
18966W        W84193  37.950  18.296  13.053
18967W        W84194  23.173  43.691   0.502
18968W        W84195  21.080  20.668   1.673
18969W        W84196  38.302  41.735   1.313
18970W        W84197   6.880  42.869  13.778
18971W        W84198  20.929  38.050   0.456
18972W        W84199  15.498  19.948   4.277
18973W        W84200   2.191  19.077   1.635
18974W        W84201  16.771   0.424   3.825
18975W        W84202   0.468   6.404   4.084
18976W        W84203  13.606  23.431  14.833
18977W        W84204  39.655  33.515   3.213
18978W        W84205  44.898  39.846   3.324
18979W        W84206  35.029  34.084  11.551
18980W        W84207  27.344  32.096  14.819
18981W        W84208  12.800  11.187   3.692
18982W        W84209   9.690  34.487  13.170
18983W        W84210  41.790  12.326  14.547
18984W        W84211  13.408  27.436  12.164
18985W        W84212  40.059  29.328  12.032
18986W        W84213  14.105  41.478  14.075
18987W        W84214  29.909  28.718   1.717
18988W        W84215   5.796  14.136   1.117
18989W        W84216  37.477  27.607  12.070
18990W        W84217   9.094  24.193   1.175
18991W        W84218  13.174  25.695  11.638
18992W        W84219   8.714   8.483   4.133
18993W        W84220  37.115   6.930  13.979
18994W        W84221  35.068  18.254   1.467
18995W        W84222  30.878   6.624   0.465
18996W        W84223  21.471  11.858  13.878
18997W        W84224  26.054  35.327  13.033
18998W        W84225  23.482  30.574  12.862
18999W        W84226  27.358   3.821   0.425
19000W        W84227   3.210  15.204  14.466
19001W        W84228  31.356  21.609  10.924
19002W        W84229  37.039  11.194   3.428
19003W        W84230   5.976   1.078  11.204
19004W        W84231  11.589  26.190  12.911
19005W        W84232  19.244  30.989   0.364
19006W        W84233  17.138  23.713  13.401
19007W        W84234  32.012  41.075   0.912
19008W        W84235  31.626   2.301   0.724
19009W        W84236  26.763   5.769  10.870
19010W        W84237  41.378   1.260   0.304
19011W        W84238  25.004  20.756  12.388
19012W        W84239  40.961  43.407   2.774
19013W        W84240  33.143  28.974  12.023
19014W        W84241  40.900   9.952  11.651
19015W        W84242  40.473   5.139   1.780
19016W        W84243   0.234  38.465   3.740
19017W        W84244  37.509  29.551   4.862
19018W        W84245  39.069  11.169  11.177
19019W        W84246  26.753  13.548   2.223
19020W        W84247  32.318  23.749  10.697
19021W        W84248   0.562  22.637  12.698
19022W        W84249  37.975  42.958   0.777
19023W        W84250  17.216  38.029   3.099
19024W        W84251  21.925  29.017   2.001
19025W        W84252  23.892   5.755  12.997
19026W        W84253  15.622  13.452  12.522
19027W        W84254  26.903  40.214  11.960
19028W        W84255  42.814   4.845  12.017
19029W        W84256  12.104  44.915  11.699
19030W        W84257  19.093  39.474   4.530
19031W        W84258  33.997  36.074   0.168
19032W        W84259   8.677  34.569   3.181
19033W        W84260  18.698  28.568  11.516
19034W        W84261  43.100  25.619  13.240
19035W        W84262  24.604  26.241  11.573
19036W        W84263  24.178   2.876  11.611
19037W        W84264  44.408  15.696   4.136
19038W        W84265   5.947  18.950   4.621
19039W        W84266  12.487  15.788  10.731
19040W        W84267  41.247  14.584  10.668
19041W        W84268  30.500  25.262   0.759
19042W        W84269  32.679  42.639  14.207
19043W        W84270   1.835  29.761  13.549
19044W        W84271  27.705   7.946  13.407
19045W        W84272  16.627  22.740   2.495
19046W        W84273   5.308   8.578  11.886
19047W        W84274  15.329  24.113  12.192
19048W        W84275  13.743  34.791  13.410
19049W        W84276  17.878  20.041  10.660
19050W        W84277   8.623   8.784  14.520
19051W        W84278  10.712   1.902   0.467
19052W        W84279  12.193  39.583   3.185
19053W        W84280  12.844  28.206  13.005
19054W        W84281   0.479  41.614   0.685
19055W        W84282   2.210  19.143   3.575
19056W        W84283  17.163   3.117  14.409
19057W        W84284  38.835  36.109   2.686
19058W        W84285   7.619   4.484  11.570
19059W        W84286   6.600  23.375  13.938
19060W        W84287  32.640   2.914   0.254
19061W        W84288   0.359  19.310  14.872
19062W        W84289  34.721  16.755   3.561
19063W        W84290  37.336  26.044   3.779
19064W        W84291  38.521  43.030   3.200
19065W        W84292  20.150  41.969   2.428
19066W        W84293  44.331  20.085  13.739
19067W        W84294  22.655  16.587  11.138
19068W        W84295  18.183  28.583  14.332
19069W        W84296  17.687  16.185  12.334
19070W        W84297   9.829  42.855  13.558
19071W        W84298  18.787  17.207  13.297
19072W        W84299  28.639  42.930   2.284
19073W        W84300  42.081  44.734  10.398
19074W        W84301  40.012  42.850   0.335
19075W        W84302  37.508  12.825  13.321
19076W        W84303  15.794   0.234   4.494
19077W        W84304  26.167  28.012   3.195
19078W        W84305  27.959  29.708  14.886
19079W        W84306  37.114   5.287   5.389
19080W        W84307  11.407   6.308   3.750
19081W        W84308  30.389  34.166  11.873
19082W        W84309  32.436  25.230  12.477
19083W        W84310  22.452  15.567   2.176
19084W        W84311   4.882  28.384  12.554
19085W        W84312  15.970  34.200   4.257
19086W        W84313   7.224   2.187   0.901
19087W        W84314  24.425  20.116  12.505
19088W        W84315  13.270  36.561  11.163
19089W        W84316  15.349  44.022  12.866
19090W        W84317  14.896  30.414   4.974
19091W        W84318  17.652  44.739   1.082
19092W        W84319  25.920   4.255  13.572
19093W        W84320  29.964  21.630  12.829
19094W        W84321  14.817  31.624   3.937
19095W        W84322   5.111  13.938  11.998
19096W        W84323   2.085  33.492   0.447
19097W        W84324   7.109  30.509  14.911
19098W        W84325  41.840  36.279  13.020
19099W        W84326  39.979  24.149  10.918
19100W        W84327   1.177  44.678  10.895
19101W        W84328  31.227  17.784   1.618
19102W        W84329  42.124  25.554  10.671
19103W        W84330  13.944  40.786   3.739
19104W        W84331  13.409  38.470  14.787
19105W        W84332  33.557  24.564  12.957
19106W        W84333  39.928  27.568  14.229
19107W        W84334   5.265   4.164  12.420
19108W        W84335   9.593  12.307  10.066
19109W        W84336  29.523  20.699   5.018
19110W        W84337  37.094   2.247   1.652
19111W        W84338  12.816  26.992  11.557
19112W        W84339   8.015   8.670  12.129
19113W        W84340  28.481  27.959   3.573
19114W        W84341  10.892   3.221   0.921
19115W        W84342  17.260  23.745   1.371
19116W        W84343  30.539   4.407   0.464
19117W        W84344  29.497  15.607  13.955
19118W        W84345  39.313  21.496  12.139
19119W        W84346   3.642   2.710   0.263
19120W        W84347  38.401  28.830  14.466
19121W        W84348  32.700  38.752   1.874
19122W        W84349  11.538  33.700   0.959
19123W        W84350  13.169   8.797  13.511
19124W        W84351  40.716   0.010   0.339
19125W        W84352  30.741  28.185   1.310
19126W        W84353  41.083  34.622   0.403
19127W        W84354  40.770   8.652  11.143
19128W        W84355  15.537   4.044   3.334
19129W        W84356  37.955  17.545  14.439
19130W        W84357  22.147  43.441  13.929
19131W        W84358  24.914   4.924   1.959
19132W        W84359  15.187  37.592  10.658
19133W        W84360  33.836   9.190  11.037
19134W        W84361  43.969  42.437  14.856
19135W        W84362  11.165  34.720  11.977
19136W        W84363  34.605  11.066   4.864
19137W        W84364  17.407   9.913   1.850
19138W        W84365  23.014  27.042   3.413
19139W        W84366  27.079  44.214  10.722
19140W        W84367  41.250   5.857  13.398
19141W        W84368  27.636  25.515   1.298
19142W        W84369   9.135   6.762  12.935
19143W        W84370  16.304  32.249   0.142
19144W        W84371  15.157  38.076  10.412
19145W        W84372  23.728   3.544   3.518
19146W        W84373   7.460   9.842   2.346
19147W        W84374  32.002  24.790   1.635
19148W        W84375   4.421  40.366   2.824
19149W        W84376  40.969  32.331   0.475
19150W        W84377   0.501  21.593   2.977
19151W        W84378  26.094  33.439   2.762
19152W        W84379   9.488  32.841  10.940
19153W        W84380  18.789  20.109   2.012
19154W        W84381  35.191  25.908   0.612
19155W        W84382  12.637  42.565   1.877
19156W        W84383  24.237  39.300   4.052
19157W        W84384  39.996  10.337  14.001
19158W        W84385  13.128  16.082   1.980
19159W        W84386   9.669  37.964   4.678
19160W        W84387  28.425   1.809   0.184
19161W        W84388  27.600  24.175   1.944
19162W        W84389  12.419   2.400  13.844
19163W        W84390  35.559   6.617  10.739
19164W        W84391   2.861  17.210  14.377
19165W        W84392  12.168   7.213   3.426
19166W        W84393   5.262  25.922   4.661
19167W        W84394  26.054  43.821  13.211
19168W        W84395  23.139  42.959  11.789
19169W        W84396  36.526   4.327   2.395
19170W        W84397  21.148  32.126   9.782
19171W        W84398  38.239  33.541  12.398
19172W        W84399  14.760  13.956  10.736
19173W        W84400   1.564  19.190  12.888
19174W        W84401  38.515   4.846   9.951
19175W        W84402  29.325  20.217  11.601
19176W        W84403  42.940  36.528  11.708
19177W        W84404   4.162  39.801   4.421
19178W        W84405  44.069  26.478   0.173
19179W        W84406  44.325   4.669   2.817
19180W        W84407  25.303  11.392   3.370
19181W        W84408  20.860  14.359  12.427
19182W        W84409  34.591  35.942  13.413
19183W        W84410  44.358  42.859  12.215
19184W        W84411   6.863  25.392   0.657
19185W        W84412  27.507  37.836  12.503
19186W        W84413  43.499  14.908   2.689
19187W        W84414  31.805  25.936   4.382
19188W        W84415   9.260   9.584   0.680
19189W        W84416  37.247   7.302   4.279
19190W        W84417   9.174   5.124  13.533
19191W        W84418  13.213  25.169   2.248
19192W        W84419  37.321   1.221   3.450
19193W        W84420  39.446  41.574  14.396
19194W        W84421  29.020  24.040   3.110
19195W        W84422   7.666   1.133   4.778
19196W        W84423  29.368   7.472   4.219
19197W        W84424  41.736  43.956  11.486
19198W        W84425   3.037  25.917   4.139
19199W        W84426  42.941  18.581  14.119
19200W        W84427  30.381   9.734   5.035
19201W        W84428  11.050  29.509  12.700
19202W        W84429  18.695  14.738   4.621
19203W        W84430  44.035  20.232   2.522
19204W        W84431   8.197   3.298   2.443
19205W        W84432   5.480  30.672   2.808
19206W        W84433  31.630  13.399  11.677
19207W        W84434  39.406   0.875  11.178
19208W        W84435   1.830  39.987   3.584
19209W        W84436  20.724  42.113   0.650
19210W        W84437  18.946  42.410   0.312
19211W        W84438   5.751  17.053  14.813
19212W        W84439  42.265   0.873   3.188
19213W        W84440  24.068  19.243   1.867
19214W        W84441  19.589  13.616  13.431
19215W        W84442  38.170  26.191   1.851
19216W        W84443  44.141   5.204   0.332
19217W        W84444  20.023  41.737   4.630
19218W        W84445  42.996   6.852   0.359
19219W        W84446  21.037  31.530  11.092
19220W        W84447  16.864  24.216  12.459
19221W        W84448   6.789  30.830  13.415
19222W        W84449  21.294  23.696   2.908
19223W        W84450  33.932  40.597   3.942
19224W        W84451   6.451   1.766  10.984
19225W        W84452  30.870  28.002   5.357
19226W        W84453  16.313  33.818   4.443
19227W        W84454  35.099  37.532  10.286
19228W        W84455  32.172   8.875  12.607
19229W        W84456   4.859   8.934   2.905
19230W        W84457  31.540  33.394  12.051
19231W        W84458  36.466  16.233  10.597
19232W        W84459  12.893  15.700   5.179
19233W        W84460   7.245  19.834  12.066
19234W        W84461  15.537  33.567  13.044
19235W        W84462  43.929  24.436  11.595
19236W        W84463   8.266  15.777  13.572
19237W        W84464  37.584  13.235   0.672
19238W        W84465  30.713  19.191  13.177
19239W        W84466   6.752  21.436   0.283
19240W        W84467   4.006  35.573  12.073
19241W        W84468  37.072   7.293   3.780
19242W        W84469  33.953  15.239  10.975
19243W        W84470   5.574  38.498   0.022
19244W        W84471  21.439   3.456  11.070
19245W        W84472  13.963  24.525   1.422
19246W        W84473  28.229  20.815  13.366
19247W        W84474  11.848  37.576   9.993
19248W        W84475  29.213  12.385   4.345
19249W        W84476   8.457  41.372   4.628
19250W        W84477   4.200   4.099   1.006
19251W        W84478  20.839   0.347   2.892
19252W        W84479  31.641   0.072  14.996
19253W        W84480   2.469  14.874   0.899
19254W        W84481  35.631  41.824  12.104
19255W        W84482  21.826  36.040   4.493
19256W        W84483  19.220  31.054  14.093
19257W        W84484  44.087   8.371   3.199
19258W        W84485   2.049   8.865   0.223
19259W        W84486   6.011  40.799   3.767
19260W        W84487  22.599  40.213  13.963
19261W        W84488   0.873  26.190   2.802
19262W        W84489  12.610  23.151  11.657
19263W        W84490  26.193  31.848  11.609
19264W        W84491  24.720   7.219   3.179
19265W        W84492   6.159   3.007  10.683
19266W        W84493  43.571  10.255   2.759
19267W        W84494  17.491  18.743  11.116
19268W        W84495  42.399   3.422  13.944
19269W        W84496   7.525  41.982   1.899
19270W        W84497  25.659  27.716  13.982
19271W        W84498  21.061  40.273  11.956
19272W        W84499  26.589   1.249   2.236
19273W        W84500  22.931  30.587  13.532
19274W        W84501  28.588  41.479   2.644
19275W        W84502  43.395  41.517   0.398
19276W        W84503  33.375  25.925   1.404
19277W        W84504  21.242  15.731  14.171
19278W        W84505  10.744   0.309  11.530
19279W        W84506  38.036  34.326   5.010
19280W        W84507  35.907  39.758  13.956
19281W        W84508  41.924  18.080   2.594
19282W        W84509  35.909   7.676   2.253
19283W        W84510  28.076  16.100   1.525
19284W        W84511  12.577  24.197  12.390
19285W        W84512  16.435   2.513  12.680
19286W        W84513  20.798  14.291  11.259
19287W        W84514  20.729  24.681   0.872
19288W        W84515   4.371  26.914   4.263
19289W        W84516  30.578  17.213   0.187
19290W        W84517  42.292  11.714   0.288
19291W        W84518  12.638   8.604  14.545
19292W        W84519  17.995  44.784  12.063
19293W        W84520  39.120  10.926  13.778
19294W        W84521   4.592  44.340  12.956
19295W        W84522  17.767  10.845   1.668
19296W        W84523  43.256  15.190  13.621
19297W        W84524  28.549  41.257  11.062
19298W        W84525   2.228  18.229   0.841
19299W        W84526  21.772  40.394   0.184
19300W        W84527  15.305  12.659  12.590
19301W        W84528  18.752  27.250   3.623
19302W        W84529  19.513  19.141  11.071
19303W        W84530  20.379  24.029   1.616
19304W        W84531  27.933  11.531   1.681
19305W        W84532  22.786  31.310  10.741
19306W        W84533  29.515   2.956  13.084
19307W        W84534  35.625  37.992   3.866
19308W        W84535   9.357  32.310  10.277
19309W        W84536  28.477   8.338   2.472
19310W        W84537  10.331  43.760   3.157
19311W        W84538  21.567  43.997   4.335
19312W        W84539   5.212  26.465   4.642
19313W        W84540   0.855  34.600   0.801
19314W        W84541   8.360  41.701   4.129
19315W        W84542  33.101  33.731   1.296
19316W        W84543  36.516  14.733  14.348
19317W        W84544   0.313  25.591  10.961
19318W        W84545  34.340  35.295  12.494
19319W        W84546  23.162  11.661  10.668
19320W        W84547  41.522  30.737   4.613
19321W        W84548  31.365  29.381   1.785
19322W        W84549  38.431  25.450  14.380
19323W        W84550   5.834  22.471  11.592
19324W        W84551   8.732  14.170  13.541
19325W        W84552  29.716  30.455  13.007
19326W        W84553  11.714  31.385  11.449
19327W        W84554  31.608  28.003   1.300
19328W        W84555  27.542  41.856  13.505
19329W        W84556   4.283  27.904   4.099
19330W        W84557  35.991  34.013  10.640
19331W        W84558  16.198  25.981   0.221
19332W        W84559  42.479  21.053   0.369
19333W        W84560  29.541   9.454   2.267
19334W        W84561  10.113  20.381   3.232
19335W        W84562  39.804  25.707  14.839
19336W        W84563   1.342  40.478  14.966
19337W        W84564  23.686  39.766   2.583
19338W        W84565  21.531  27.117   3.708
19339W        W84566  31.225  22.438  11.459
19340W        W84567  15.954  16.291  12.599
19341W        W84568   9.834  28.111   0.600
19342W        W84569  17.684  25.221   1.818
19343W        W84570  40.205  11.941  14.062
19344W        W84571  11.838  29.741   1.972
19345W        W84572  41.284  26.664   2.667
19346W        W84573   0.471  10.389   4.576
19347W        W84574   6.600  40.455   3.337
19348W        W84575  41.770   5.912  13.437
19349W        W84576  32.995  40.842   0.654
19350W        W84577  32.403   2.428  13.938
19351W        W84578  36.833  16.800  14.282
19352W        W84579  27.247  11.446  12.747
19353W        W84580  12.155   9.409  12.167
19354W        W84581  37.254  12.881  11.248
19355W        W84582  31.234  33.463   0.276
19356W        W84583  38.308  22.712  13.763
19357W        W84584  37.355  17.603   1.843
19358W        W84585  24.271   5.948   4.049
19359W        W84586  11.220  17.670  14.897
19360W        W84587  17.305  31.051  13.628
19361W        W84588   0.122  38.549  13.933
19362W        W84589  22.310  30.420  14.841
19363W        W84590   3.023  38.458   4.842
19364W        W84591  23.511  33.612   0.869
19365W        W84592  21.482   0.741  14.734
19366W        W84593  29.049  28.983  13.423
19367W        W84594  23.598  15.645   1.864
19368W        W84595   5.314  29.535   1.930
19369W        W84596  42.943   1.444  14.216
19370W        W84597  20.830   6.719   4.203
19371W        W84598  32.375  42.096  12.124
19372W        W84599   7.899  44.307  13.985
19373W        W84600  44.920   3.859   0.951
19374W        W84601   8.527  37.884   0.867
19375W        W84602   6.863   8.778  14.891
19376W        W84603  34.561   3.774   4.137
19377W        W84604  18.749  12.928  10.826
19378W        W84605  11.579   0.878   0.914
19379W        W84606  42.931  16.420  12.886
19380W        W84607   1.298  29.745  10.692
19381W        W84608  38.561  44.517   3.604
19382W        W84609   7.610  30.005   3.876
19383W        W84610   7.064  33.982  12.757
19384W        W84611  15.527  29.750   2.875
19385W        W84612   3.908  18.808   0.341
19386W        W84613  42.397   3.903   3.859
19387W        W84614  27.544  25.200   2.328
19388W        W84615  38.398  13.517  14.165
19389W        W84616  22.635  19.202  10.706
19390W        W84617  36.565  35.917  12.042
19391W        W84618  31.164  13.562  11.163
19392W        W84619  41.772  44.750   1.383
19393W        W84620   9.341  36.564  11.560
19394W        W84621   7.892  18.941   2.752
19395W        W84622  37.095  22.662   3.798
19396W        W84623  36.802  20.017  13.507
19397W        W84624  12.264  42.673  11.568
19398W        W84625   3.324  32.060   3.902
19399W        W84626  27.270  32.653   1.869
19400W        W84627   2.337  33.628   2.691
19401W        W84628  32.655  39.025   0.469
19402W        W84629  11.725   1.827  14.523
19403W        W84630  38.947  41.882   4.884
19404W        W84631  25.174  31.009  13.000
19405W        W84632  19.183   4.425  12.607
19406W        W84633  24.728   8.744  13.776
19407W        W84634  22.686  14.107   3.712
19408W        W84635  40.286  10.265  11.660
19409W        W84636   3.232  35.463  11.609
19410W        W84637  15.268  18.797   3.082
19411W        W84638  14.266   2.160  13.915
19412W        W84639   1.962  12.183   4.914
19413W        W84640  44.293  30.611   1.398
19414W        W84641   9.727  25.139   4.733
19415W        W84642  17.907  13.539  11.099
19416W        W84643  26.455  27.314   2.723
19417W        W84644   4.655  27.892   3.597
19418W        W84645   5.959  41.546   2.167
19419W        W84646   2.866  32.998   2.809
19420W        W84647   8.249  24.643   3.885
19421W        W84648  27.853  42.748   0.869
19422W        W84649  29.915   7.180   2.505
19423W        W84650   8.613  34.914  11.050
19424W        W84651   3.914  33.780  11.912
19425W        W84652  10.778   2.477  12.948
19426W        W84653   9.181  37.532  12.456
19427W        W84654  17.020  34.896  12.053
19428W        W84655  19.415  30.634  12.225
19429W        W84656  27.456  18.574   3.562
19430W        W84657  16.665  25.053   4.861
19431W        W84658  20.574  11.637  10.542
19432W        W84659  16.051  16.560  14.330
19433W        W84660  32.700  11.745  11.537
19434W        W84661  20.319  32.905  13.098
19435W        W84662  10.577   6.522   4.133
19436W        W84663  33.909  14.181  13.396
19437W        W84664  41.432  13.810   4.237
19438W        W84665  37.798  12.797   3.608
19439W        W84666  11.053  39.462  13.517
19440W        W84667  40.087  35.958   2.337
19441W        W84668  16.048   2.730   3.788
19442W        W84669  18.072  35.096   2.713
19443W        W84670  15.702  36.486  13.441
19444W        W84671  20.725   8.674   0.954
19445W        W84672  24.641  11.216  10.770
19446W        W84673  28.055   7.579  10.667
19447W        W84674  30.674  22.437   3.645
19448W        W84675   2.312   0.975  11.184
19449W        W84676   5.643   0.668   2.769
19450W        W84677  26.829  44.488  14.273
19451W        W84678  29.156  21.096   1.795
19452W        W84679   1.966  15.437   2.155
19453W        W84680  12.252   6.944  14.976
19454W        W84681  14.600  16.035   4.692
19455W        W84682  18.735  43.836   1.931
19456W        W84683   8.130  26.806   4.082
19457W        W84684  21.157  10.124  11.035
19458W        W84685  15.846  34.073   3.763
19459W        W84686  13.268  20.591   2.155
19460W        W84687  10.821  26.973   4.852
19461W        W84688  27.033  27.104   0.877
19462W        W84689  11.375  30.513   0.727
19463W        W84690  25.695   8.819   0.363
19464W        W84691  41.722  13.627   3.530
19465W        W84692  14.754  15.268   2.434
19466W        W84693  12.221  30.070   2.127
19467W        W84694  19.087   3.041   2.847
19468W        W84695  25.486  33.194  10.452
19469W        W84696  10.287   0.195  14.964
19470W        W84697  14.621  20.409  14.915
19471W        W84698  28.378   8.221   3.819
19472W        W84699  30.186  42.948  12.689
19473W        W84700  23.227   9.122   0.470
19474W        W84701  13.271  14.285   2.548
19475W        W84702  36.196   3.351   2.393
19476W        W84703  25.928   2.064   4.200
19477W        W84704  42.981  29.629  13.755
19478W        W84705  26.948  36.218   1.755
19479W        W84706   7.852  38.287  13.458
19480W        W84707  40.160  27.248  10.743
19481W        W84708  21.369   2.972   4.231
19482W        W84709   0.547   0.879   5.679
19483W        W84710  34.858  41.507   0.777
19484W        W84711  42.027  33.954  11.723
19485W        W84712  34.968  29.939  14.386
19486W        W84713  40.912  24.633   2.303
19487W        W84714  34.566  10.241   0.774
19488W        W84715  43.283  38.309   1.219
19489W        W84716   6.013  18.917   1.273
19490W        W84717  29.969  29.725   1.617
19491W        W84718  14.534   2.103   4.390
19492W        W84719  14.350  24.191  11.876
19493W        W84720   8.653  37.796  11.285
19494W        W84721   3.316  36.902   4.644
19495W        W84722  10.760  23.092   2.913
19496W        W84723  10.471  12.755  12.432
19497W        W84724  17.715  21.823  13.285
19498W        W84725  10.640  28.589  12.966
19499W        W84726  18.568  24.453  11.548
19500W        W84727   0.313  16.428   0.956
19501W        W84728  11.670  33.139  11.204
19502W        W84729  40.545   8.873   2.673
19503W        W84730   4.240   9.288   1.727
19504W        W84731  11.235  17.955  10.967
19505W        W84732  15.115  19.755  13.763
19506W        W84733   6.932   1.897  14.968
19507W        W84734  30.653   3.820  11.474
19508W        W84735  13.214  31.073   1.188
19509W        W84736  43.176   7.112   5.357
19510W        W84737  11.404  28.199  12.909
19511W        W84738  38.688  20.025   1.385
19512W        W84739  21.104  18.363   2.832
19513W        W84740  43.777   2.410  13.503
19514W        W84741   6.963  29.480  14.799
19515W        W84742   4.905   9.419   3.789
19516W        W84743  18.949  43.210   4.987
19517W        W84744  22.714  30.029   4.224
19518W        W84745   7.203  25.506  13.907
19519W        W84746  29.755   3.370   1.368
19520W        W84747  36.933  12.942   0.534
19521W        W84748  29.514  36.725  13.317
19522W        W84749  31.945  19.616  12.728
19523W        W84750   6.482   3.749   3.994
19524W        W84751  15.860  35.455   3.001
19525W        W84752  29.404  11.755   3.915
19526W        W84753  40.223  25.467  14.064
19527W        W84754   4.364  17.979  11.515
19528W        W84755  15.192  12.837  10.258
19529W        W84756  24.790  15.178  10.768
19530W        W84757   0.468  40.413  13.925
19531W        W84758   1.896   0.788  10.840
19532W        W84759  24.116  43.258  14.660
19533W        W84760  10.679  18.197  12.413
19534W        W84761  20.742   8.163   0.323
19535W        W84762   0.901  32.332  12.494
19536W        W84763   4.992  15.123   1.348
19537W        W84764   3.821  28.652  12.011
19538W        W84765   7.898  14.849  14.912
19539W        W84766  19.799  11.202  13.514
19540W        W84767  10.368  32.373   2.253
19541W        W84768  34.427  13.616  10.152
19542W        W84769  31.795  10.374   1.200
19543W        W84770  19.643  10.899  12.815
19544W        W84771  28.483  26.157   3.204
19545W        W84772  41.334  17.693   3.011
19546W        W84773  43.570   5.352   3.562
19547W        W84774  35.309  11.947   1.209
19548W        W84775  18.503  36.629   3.000
19549W        W84776  29.511  38.558   3.525
19550W        W84777  10.653  19.668   3.176
19551W        W84778  12.382   2.394  10.586
19552W        W84779   1.494  10.154   3.709
19553W        W84780  43.285   2.355  12.844
19554W        W84781   6.171  23.012   1.677
19555W        W84782  15.770  10.619  12.825
19556W        W84783  13.626   3.761  12.447
19557W        W84784   9.323  12.357   0.655
19558W        W84785  30.328  24.061  14.853
19559W        W84786  22.964  11.852   1.807
19560W        W84787  31.277  12.696  13.126
19561W        W84788  29.087  12.261  12.025
19562W        W84789  16.239  40.569  14.013
19563W        W84790  24.179  31.546  12.798
19564W        W84791   2.921  16.550  11.050
19565W        W84792  42.304  35.365   0.013
19566W        W84793   9.176  41.547  14.540
19567W        W84794  25.584  25.564   3.630
19568W        W84795   8.651   3.816  11.165
19569W        W84796  22.008  23.414  10.913
19570W        W84797  36.511  42.515  14.820
19571W        W84798  11.845   9.057  11.256
19572W        W84799  23.302   0.439  13.359
19573W        W84800  21.353  32.349   5.059
19574W        W84801  19.196  25.510   4.138
19575W        W84802   5.181  44.545   2.550
19576W        W84803  10.179  14.153  12.474
19577W        W84804  38.895  22.256   1.610
19578W        W84805  13.612  19.439   4.263
19579W        W84806   5.512  11.574   0.314
19580W        W84807  43.524  42.389  12.658
19581W        W84808   5.838   8.117   4.646
19582W        W84809  18.142  20.223   4.275
19583W        W84810  16.282   2.942   2.730
19584W        W84811  29.166  18.591   3.594
19585W        W84812  21.015   4.391   4.857
19586W        W84813  11.961   5.452   3.842
19587W        W84814   1.005  43.799  12.496
19588W        W84815  42.795  29.728   3.661
19589W        W84816   4.183  12.443  12.479
19590W        W84817  33.032  35.406   1.622
19591W        W84818  14.289  33.803   4.363
19592W        W84819  15.984  28.577   2.882
19593W        W84820   6.228  25.518  11.732
19594W        W84821   9.670   7.215   3.358
19595W        W84822  37.787   5.363  12.789
19596W        W84823   9.716   6.868   4.653
19597W        W84824   6.786   7.109  12.097
19598W        W84825  27.211  43.684   4.101
19599W        W84826  18.133  21.255   4.171
19600W        W84827  27.444  18.990   2.228
19601W        W84828   7.267  32.422  13.838
19602W        W84829  26.947  24.453  10.748
19603W        W84830  27.831  38.799  13.606
19604W        W84831  10.088   6.757  13.911
19605W        W84832  34.464   5.665   0.747
19606W        W84833  38.527  17.375   2.833
19607W        W84834  41.776  26.483   2.711
19608W        W84835  39.170  20.949   4.165
19609W        W84836  27.608  12.214   2.833
19610W        W84837  15.608  13.680   5.129
19611W        W84838   3.739  42.201   0.499
19612W        W84839  30.085  23.882  12.621
19613W        W84840  11.246   0.932   4.770
19614W        W84841  10.649  31.659   2.314
19615W        W84842  36.307  16.802   4.132
19616W        W84843  16.649   4.144   2.671
19617W        W84844   2.353  18.813   1.113
19618W        W84845   3.370  21.000   2.227
19619W        W84846  34.569  23.194  11.937
19620W        W84847   0.329  34.401   1.926
19621W        W84848  38.825  42.342  14.010
19622W        W84849   1.943  39.165  10.611
19623W        W84850   3.911  18.132   1.941
19624W        W84851   2.300  13.130   3.219
19625W        W84852   1.463   8.258   3.695
19626W        W84853  18.597   4.425  14.136
19627W        W84854  19.647  40.821   0.818
19628W        W84855  42.943  39.441   2.218
19629W        W84856  11.685  17.265  13.062
19630W        W84857  16.308  40.679  11.103
19631W        W84858  23.585  34.267  14.194
19632W        W84859  27.212   9.910  13.451
19633W        W84860  19.522  14.716  12.954
19634W        W84861   6.954  11.256  10.581
19635W        W84862  10.365   0.926   1.842
19636W        W84863  16.984  28.152   9.974
19637W        W84864  40.456  36.589   4.343
19638W        W84865  18.766   7.339   5.090
19639W        W84866  22.917   4.411  10.805
19640W        W84867  32.979  31.538  13.931
19641W        W84868   7.244   3.750  13.138
19642W        W84869   3.939   5.824  12.084
19643W        W84870  14.794  23.833  14.527
19644W        W84871  42.018  23.857  11.615
19645W        W84872  44.381  15.398   2.923
19646W        W84873  35.261  18.817  11.331
19647W        W84874   9.845  38.835   0.422
19648W        W84875  20.494  17.403   0.248
19649W        W84876  36.157  20.662  13.555
19650W        W84877  18.319   8.872  14.306
19651W        W84878  21.355  14.374  12.536
19652W        W84879  28.090  27.181  10.088
19653W        W84880   2.930  11.837   3.293
19654W        W84881  38.311  41.782  10.852
19655W        W84882   9.184  21.726   2.194
19656W        W84883  19.050  39.697   2.669
19657W        W84884  25.662   6.996  11.611
19658W        W84885   5.936  34.669  11.603
19659W        W84886  16.496  34.333   1.592
19660W        W84887  42.258  24.527   1.162
19661W        W84888   1.782  11.918  14.986
19662W        W84889  30.471   3.976  13.336
19663W        W84890  35.110  10.355  11.944
19664W        W84891  21.070  33.403  12.902
19665W        W84892  17.129  12.756   2.129
19666W        W84893  37.698   0.371   0.311
19667W        W84894  12.268   4.077   2.501
19668W        W84895  13.285  20.069  13.631
19669W        W84896  41.439  20.080   0.432
19670W        W84897   4.862  17.775   3.752
19671W        W84898  41.232  14.125  14.824
19672W        W84899  16.745  12.582  12.473
19673W        W84900   9.329  34.027  10.406
19674W        W84901  42.102  34.861   0.707
19675W        W84902  35.223  44.761  14.621
19676W        W84903  14.232  16.146   2.942
19677W        W84904  31.545  29.594   4.827
19678W        W84905   4.925  21.051   3.145
19679W        W84906  34.627  39.952  11.145
19680W        W84907  31.831   3.166  11.133
19681W        W84908  20.736  34.667   0.467
19682W        W84909  15.764   7.072  11.520
19683W        W84910  17.817  44.453  10.449
19684W        W84911  34.653  41.341   1.532
19685W        W84912  24.212  43.134  14.041
19686W        W84913  16.224   1.136  13.809
19687W        W84914  39.928   3.036   4.531
19688W        W84915  33.889  11.498   3.748
19689W        W84916  11.331   6.432  12.397
19690W        W84917  18.114  26.522   4.729
19691W        W84918  30.676  26.644  14.396
19692W        W84919  23.146  14.164  12.816
19693W        W84920  10.914  14.865  14.431
19694W        W84921   8.814  12.191  14.839
19695W        W84922  15.383   4.442   3.050
19696W        W84923   3.465  26.281   1.832
19697W        W84924   1.302  13.194  14.789
19698W        W84925   3.388  33.905  14.560
19699W        W84926  10.646  17.644  12.448
19700W        W84927  19.710   6.453   0.866
19701W        W84928  30.513  25.686  14.325
19702W        W84929  38.589   1.953   0.913
19703W        W84930  42.929  33.533  13.099
19704W        W84931  25.551  36.242   2.027
19705W        W84932   3.875  17.821  13.914
19706W        W84933  42.391  22.607  11.802
19707W        W84934   1.666  19.077   4.061
19708W        W84935  29.653  24.272   4.138
19709W        W84936  24.247  42.159  11.140
19710W        W84937  11.745  14.315   0.840
19711W        W84938  35.371  33.014   1.213
19712W        W84939  23.004   1.281   2.151
19713W        W84940  19.784  14.781  11.566
19714W        W84941   6.914   6.199  13.092
19715W        W84942  29.964   9.822   2.269
19716W        W84943   1.245  37.532   4.317
19717W        W84944  14.735  38.581  11.461
19718W        W84945   8.663   4.256   3.894
19719W        W84946  43.534  13.507  11.660
19720W        W84947  27.485   2.784   0.334
19721W        W84948  23.219  20.457  14.815
19722W        W84949  27.229   8.259   1.727
19723W        W84950  29.735  25.096  13.031
19724W        W84951   5.929  42.131  14.455
19725W        W84952  15.225  13.071  14.760
19726W        W84953  44.988   1.005  13.452
19727W        W84954   0.204  40.969   2.584
19728W        W84955  38.586  34.543   3.637
19729W        W84956  42.910  27.551  13.916
19730W        W84957  43.055   9.189   4.068
19731W        W84958   5.417   2.563   4.292
19732W        W84959  37.635  42.279  12.895
19733W        W84960  43.048  42.305  10.905
19734W        W84961   1.747  34.186   3.165
19735W        W84962   0.698  17.225   3.248
19736W        W84963   7.933  26.337   4.090
19737W        W84964  34.792   4.254  14.123
19738W        W84965  19.226   4.279  14.966
19739W        W84966  10.666  38.774   4.750
19740W        W84967  42.996  23.264  12.177
19741W        W84968   3.763  14.129   4.257
19742W        W84969  33.616   8.285   1.528
19743W        W84970  30.681  16.526  11.096
19744W        W84971  25.686  10.927   3.248
19745W        W84972  24.016  12.850  11.611
19746W        W84973  34.502  26.781  14.127
19747W        W84974  26.417  31.812   0.101
19748W        W84975   9.932  35.318  13.727
19749W        W84976   8.207  25.191  14.244
19750W        W84977  12.623  41.853  14.548
19751W        W84978  41.560  37.206  11.576
19752W        W84979  26.619  11.383  11.120
19753W        W84980  37.959  14.790  14.947
19754W        W84981  38.406  34.853  12.623
19755W        W84982   2.456  38.949   3.778
19756W        W84983  43.083  14.489  12.737
19757W        W84984  30.276  10.283   2.805
19758W        W84985  42.342  37.461  11.940
19759W        W84986  20.758   7.669   4.270
19760W        W84987  23.023  43.434  11.600
19761W        W84988  27.271   5.278   0.662
19762W        W84989  16.374   6.248   0.497
19763W        W84990  17.076  41.988  11.601
19764W        W84991  33.074  43.319   0.362
19765W        W84992   5.697  42.247  11.512
19766W        W84993  40.944  26.943   1.471
19767W        W84994  30.024   8.985  13.835
19768W        W84995  18.933  38.404   0.196
19769W        W84996   6.472  28.482   4.551
19770W        W84997  19.635   1.010   1.287
19771W        W84998  24.187  27.001   4.187
19772W        W84999  20.131  40.261  12.112
19773W        W85000  41.435  26.120   2.615
19774W        W85001  44.928  40.553  11.543
19775W        W85002  41.319  41.021   2.724
19776W        W85003   7.343  11.182   2.739
19777W        W85004  18.456  36.523  12.823
19778W        W85005  42.464  14.887   0.252
19779W        W85006  41.621  37.867   1.900
19780W        W85007  28.091  32.220   1.689
19781W        W85008  12.205  37.402  11.192
19782W        W85009   9.547   3.471   4.137
19783W        W85010  14.079   5.629  13.357
19784W        W85011  39.291   7.346   3.760
19785W        W85012  36.025  11.854  13.995
19786W        W85013  34.591   8.640   3.176
19787W        W85014   5.831  12.818  10.720
19788W        W85015   9.274  32.779  11.945
19789W        W85016  27.991  32.899  13.345
19790W        W85017  42.947  38.984  14.495
19791W        W85018  33.297  27.421  13.353
19792W        W85019   9.705  30.995  14.349
19793W        W85020  15.801  41.478  11.265
19794W        W85021  29.505  41.251  12.614
19795W        W85022  18.709  10.361  13.798
19796W        W85023  16.035  34.073   0.394
19797W        W85024  19.130   5.003  10.285
19798W        W85025  10.099  33.985  13.406
19799W        W85026  43.500  24.216   1.233
19800W        W85027  18.090  41.256  10.605
19801W        W85028  38.959  30.106  13.034
19802W        W85029  36.574   7.562   3.050
19803W        W85030  36.019   0.261  13.418
19804W        W85031   8.909  10.076  13.300
19805W        W85032  25.865  22.676  14.217
19806W        W85033  42.987   2.273  10.538
19807W        W85034  43.303  20.964  13.045
19808W        W85035  12.964  25.573  12.909
19809W        W85036   5.376   5.416   2.744
19810W        W85037  15.082  27.715   4.664
19811W        W85038  23.622  38.262  10.760
19812W        W85039  28.544  35.568   3.695
19813W        W85040   5.829  39.784  14.970
19814W        W85041   9.346   5.711   3.163
19815W        W85042   8.241  37.102   1.931
19816W        W85043  16.013  13.443   1.290
19817W        W85044   8.688  38.035   2.320
19818W        W85045  15.615  13.164  12.085
19819W        W85046  14.254  40.995  14.812
19820W        W85047  20.493  23.614   4.791
19821W        W85048  18.592  37.849  11.324
19822W        W85049  22.252  23.448   4.507
19823W        W85050  21.369   9.830  11.591
19824W        W85051   3.864  20.081  14.029
19825W        W85052  14.895  15.028  11.617
19826W        W85053  34.129  26.182   3.187
19827W        W85054  12.602  20.756  14.516
19828W        W85055  15.057  13.668  12.479
19829W        W85056  22.192  34.162  11.624
19830W        W85057  28.310  36.776   4.571
19831W        W85058  15.104   4.526  11.476
19832W        W85059   1.472  21.674   3.051
19833W        W85060  10.058  12.077  10.166
19834W        W85061  16.688  25.052   1.997
19835W        W85062  35.725  37.016  14.470
19836W        W85063  27.540   7.575   3.634
19837W        W85064  21.227  39.896  11.656
19838W        W85065  32.086   9.046  14.691
19839W        W85066  32.954  37.359  14.999
19840W        W85067  21.570  26.104  13.468
19841W        W85068   8.833  22.758  11.314
19842W        W85069  20.406  38.767   1.865
19843W        W85070   3.246  11.669   1.781
19844W        W85071  38.036  39.078   1.206
19845W        W85072   0.657  42.724   4.121
19846W        W85073  15.198   1.431   2.835
19847W        W85074   1.395  40.769  13.633
19848W        W85075  43.137  38.656   5.062
19849W        W85076  30.657  22.317   2.754
19850W        W85077   7.080   4.086   1.639
19851W        W85078  27.835  30.819  12.081
19852W        W85079  23.963   8.877  14.955
19853W        W85080  27.962  19.940  14.414
19854W        W85081  32.339  25.752   2.294
19855W        W85082  41.481  41.215  12.146
19856W        W85083  37.406  34.398  10.684
19857W        W85084  22.215  23.658  10.494
19858W        W85085   3.202  13.088   2.668
19859W        W85086  23.930  38.404  14.735
19860W        W85087  42.081  40.352  11.634
19861W        W85088   1.581  10.087  14.731
19862W        W85089   6.302  33.969   4.778
19863W        W85090  39.675  25.039  12.464
19864W        W85091  22.265  17.627  14.777
19865W        W85092  14.002  25.497   5.055
19866W        W85093  20.581  22.023  12.961
19867W        W85094  17.075   7.671  12.371
19868W        W85095   2.471  27.052   1.787
19869W        W85096  20.363  33.716   3.216
19870W        W85097  19.598  10.840   0.783
19871W        W85098  27.196  13.792   2.124
19872W        W85099  14.734  10.079  11.125
19873W        W85100   9.837  28.528  12.546
19874W        W85101  27.196   6.188  13.733
19875W        W85102  32.069  13.859   0.748
19876W        W85103   7.917  29.929   0.246
19877W        W85104  21.505  24.118   3.824
19878W        W85105   6.195  33.636   2.706
19879W        W85106  44.507  13.842   2.748
19880W        W85107  33.354  18.970   0.271
19881W        W85108  13.394  29.631   4.512
19882W        W85109   7.391  12.113  11.587
19883W        W85110   3.371  22.818  10.460
19884W        W85111  16.332   1.987  10.766
19885W        W85112  33.647  11.158  11.945
19886W        W85113   8.310  30.459  14.453
19887W        W85114  40.412  34.477  10.879
19888W        W85115  38.381  24.277   2.113
19889W        W85116  16.770  38.288   2.402
19890W        W85117   6.986   7.272   0.231
19891W        W85118  15.074  39.442   1.337
19892W        W85119  27.039   4.447  11.617
19893W        W85120  18.180   0.004   1.113
19894W        W85121  40.722  28.071   0.753
19895W        W85122  17.762  26.050   0.788
19896W        W85123  10.831  40.322   2.122
19897W        W85124  20.968  42.032  12.683
19898W        W85125  28.104  38.753  11.380
19899W        W85126  37.143   1.776  13.451
19900W        W85127  22.767  30.291  13.918
19901W        W85128   4.970  13.340   0.935
19902W        W85129   9.146  19.705  12.869
19903W        W85130  22.783  37.582  14.545
19904W        W85131  15.650  16.730   2.182
19905W        W85132  43.167  29.331  11.583
19906W        W85133  17.276  13.373  14.150
19907W        W85134  17.821  29.112   3.223
19908W        W85135   3.873  28.022   3.722
19909W        W85136   0.518  22.077   4.233
19910W        W85137  41.949   3.173  14.009
19911W        W85138  19.913  17.091   4.966
19912W        W85139   7.658  17.332  12.973
19913W        W85140  25.986   5.471   1.802
19914W        W85141   4.363  20.096  13.964
19915W        W85142  43.843  26.623   2.222
19916W        W85143  39.856   8.103  12.021
19917W        W85144   5.108  41.252  13.030
19918W        W85145  27.728   8.948  10.869
19919W        W85146  20.373  28.462  14.220
19920W        W85147  18.414  30.136   9.920
19921W        W85148  35.784   9.316  11.575
19922W        W85149  10.599   9.145  13.740
19923W        W85150  23.228  34.262   3.369
19924W        W85151  32.014   8.938  12.118
19925W        W85152  41.320  43.440  13.064
19926W        W85153  24.615  37.951   2.123
19927W        W85154   2.610  44.310  12.568
19928W        W85155  35.491  13.052   0.314
19929W        W85156  34.463  42.739   3.606
19930W        W85157  25.216  33.535   0.772
19931W        W85158  16.194  39.408  13.532
19932W        W85159  26.926   0.970  10.191
19933W        W85160  39.427  31.034  13.043
19934W        W85161   4.983  28.393   1.350
19935W        W85162  14.254  36.866  11.122
19936W        W85163  35.454  26.456  12.389
19937W        W85164  29.556   0.492  14.799
19938W        W85165   6.520  21.101   1.736
19939W        W85166   2.737  40.001   0.788
19940W        W85167  24.741  16.584  12.550
19941W        W85168  27.929  12.819  11.526
19942W        W85169  31.164  28.056   0.982
19943W        W85170  29.096  38.585   0.962
19944W        W85171  32.992   8.249  14.854
19945W        W85172  18.794   5.590  11.055
19946W        W85173  11.176  43.338   4.468
19947W        W85174  14.725  21.305  11.727
19948W        W85175  29.575  31.031   0.250
19949W        W85176  31.604  41.641   2.784
19950W        W85177  41.009  28.529   4.274
19951W        W85178  21.506   6.924  14.539
19952W        W85179   7.463  32.187   1.038
19953W        W85180  37.323  13.882  11.156
19954W        W85181   1.861  30.176   3.229
19955W        W85182   4.833  30.501  13.841
19956W        W85183  36.899  20.490   4.177
19957W        W85184  38.327   7.605  14.003
19958W        W85185   8.568  34.056  14.381
19959W        W85186  17.202  15.964  12.070
19960W        W85187  12.636  15.254  10.705
19961W        W85188  25.810  13.333  12.084
19962W        W85189  42.009  19.224  12.919
19963W        W85190  38.105  27.856  13.365
19964W        W85191  11.381  36.883   3.640
19965W        W85192  24.256   6.989   3.199
19966W        W85193   7.863  37.608   4.193
19967W        W85194  15.179  43.948  12.378
19968W        W85195  39.900  13.141  11.221
19969W        W85196   2.380  12.245   1.683
19970W        W85197   8.349  17.246  11.991
19971W        W85198  35.620  32.529   0.383
19972W        W85199  30.496   5.034   3.718
19973W        W85200  12.237  35.587  11.118
19974W        W85201   8.823  33.588   0.694
19975W        W85202  12.795  14.736   2.320
19976W        W85203   8.807  43.392   0.397
19977W        W85204   4.332  34.015   1.865
19978W        W85205  34.847  14.641  10.308
19979W        W85206  16.606  19.304  11.145
19980W        W85207   8.176  13.837  11.655
19981W        W85208  23.818  35.808  13.377
19982W        W85209   7.188   5.613  14.990
19983W        W85210   3.047  44.373   2.790
19984W        W85211  40.575  33.905   3.033
19985W        W85212  37.670  41.305   4.112
19986W        W85213  33.861   2.452   1.327
19987W        W85214  33.410  42.951  12.795
19988W        W85215  40.999  40.818  13.807
19989W        W85216   1.464  27.544   3.750
19990W        W85217  14.465  10.430   0.880
19991W        W85218  28.224   2.008  12.096
19992W        W85219  25.660  26.019   0.926
19993W        W85220  24.445  40.280   3.077
19994W        W85221  35.895  21.251   1.871
19995W        W85222  39.065  37.524  10.475
19996W        W85223  21.247  19.928  13.606
19997W        W85224  38.903  36.073   4.740
19998W        W85225  12.273   1.318  14.796
19999W        W85226   8.229   9.772  11.676
20000W        W85227  30.366  29.712   1.226
20001W        W85228  16.202  20.756  11.462
20002W        W85229  34.979  13.475   4.311
20003W        W85230  15.629  39.524  11.451
20004W        W85231  14.527  24.092  11.389
20005W        W85232  36.810  37.251   0.964
20006W        W85233  19.775   2.388   1.476
20007W        W85234   8.903  36.280  11.638
20008W        W85235  36.132  30.642   0.213
20009W        W85236   8.285  23.258  14.133
20010W        W85237  13.769   4.420   1.216
20011W        W85238  18.716  25.571   2.809
20012W        W85239  33.071  17.881   2.298
20013W        W85240   3.473  19.920  11.075
20014W        W85241  12.585  20.290  13.758
20015W        W85242  21.603  18.306  14.697
20016W        W85243  41.768  16.634  10.379
20017W        W85244  13.150  32.817  12.474
20018W        W85245  36.545  44.542  11.608
20019W        W85246  28.537  10.134  11.070
20020W        W85247  23.970  43.320  12.079
20021W        W85248  13.554  24.178   0.711
20022W        W85249  27.667  15.198   0.460
20023W        W85250   3.468  37.448   2.391
20024W        W85251  17.823  17.996  12.779
20025W        W85252  14.302  14.814   0.218
20026W        W85253   9.718  24.770  13.094
20027W        W85254  32.846  38.912   0.956
20028W        W85255   8.843  33.114   4.301
20029W        W85256  17.194  42.130   1.430
20030W        W85257  15.731  29.504   2.429
20031W        W85258  15.432  28.736  13.367
20032W        W85259  17.825   3.858  14.870
20033W        W85260  21.194  21.162   3.737
20034W        W85261  43.249  27.994   9.973
20035W        W85262  19.553  25.781   4.887
20036W        W85263  39.931  41.799  11.225
20037W        W85264   3.515  34.438   0.857
20038W        W85265  35.435  27.121  10.914
20039W        W85266  35.874  40.624   1.817
20040W        W85267   4.691  30.510   1.327
20041W        W85268   7.820   5.084  10.772
20042W        W85269  34.995  36.600   3.447
20043W        W85270  39.908   1.030  13.003
20044W        W85271   3.703  22.043  12.933
20045W        W85272  22.508   7.607  10.758
20046W        W85273  33.679  14.527  10.582
20047W        W85274  23.102   5.529   1.704
20048W        W85275  26.767  29.459  13.655
20049W        W85276  39.771  15.195  13.990
20050W        W85277  25.971  14.240   0.222
20051W        W85278  36.565  33.629   3.366
20052W        W85279  39.308   5.118   1.160
20053W        W85280   1.715  13.560  11.270
20054W        W85281  10.887  12.184  11.169
20055W        W85282  34.581  32.526   3.301
20056W        W85283  41.884  43.346   4.372
20057W        W85284  13.881   9.551  13.516
20058W        W85285  27.481   6.426   0.482
20059W        W85286  16.030  41.543  14.054
20060W        W85287  34.113  13.082  10.992
20061W        W85288   0.169   6.221   3.252
20062W        W85289  40.877   0.607   2.369
20063W        W85290   3.673  16.859  12.935
20064W        W85291  21.607  32.389  13.507
20065W        W85292  20.211  18.568   0.751
20066W        W85293   8.740  20.524  12.990
20067W        W85294  33.924  44.758  12.775
20068W        W85295  25.527  27.631  10.737
20069W        W85296  14.794   6.415  11.616
20070W        W85297  31.030  43.752  11.987
20071W        W85298  27.259  39.600  14.954
20072W        W85299  22.905  11.631   4.457
20073W        W85300  26.469   6.149  11.038
20074W        W85301  44.857  33.479  12.080
20075W        W85302  31.891  42.222  14.330
20076W        W85303  23.599  36.964  11.484
20077W        W85304  34.756  14.717   2.271
20078W        W85305  40.299  36.372  10.689
20079W        W85306  13.234  20.238  14.495
20080W        W85307  19.648   3.218   4.606
20081W        W85308  14.211  15.088   3.747
20082W        W85309   1.551  12.110  11.526
20083W        W85310  29.480  17.239   1.913
20084W        W85311  25.256  26.560  11.174
20085W        W85312  36.493  37.806   3.763
20086W        W85313   8.935  20.098   2.751
20087W        W85314  44.103  43.871  10.490
20088W        W85315  16.203   4.718   0.446
20089W        W85316  29.536  23.885   1.302
20090W        W85317   7.856   0.887  13.349
20091W        W85318   7.772  32.586  13.956
20092W        W85319  26.267  40.766  11.210
20093W        W85320   7.186  21.179  13.010
20094W        W85321  19.616  28.555  12.424
20095W        W85322  11.428  37.640   3.304
20096W        W85323  34.599  12.827  13.103
20097W        W85324  28.458  27.189   0.370
20098W        W85325  14.953  22.133  11.167
20099W        W85326   5.943  21.314  12.034
20100W        W85327  20.237  18.065   3.547
20101W        W85328  11.950  26.837   0.738
20102W        W85329  31.674  40.428   3.787
20103W        W85330  37.149  13.666  10.713
20104W        W85331  44.017   4.511  14.939
20105W        W85332  37.608  35.599  13.091
20106W        W85333  24.137   5.924   1.326
20107W        W85334  31.919  17.171  11.042
20108W        W85335   8.183   5.959   1.064
20109W        W85336  43.430  22.360   2.557
20110W        W85337  30.184  21.254  14.018
20111W        W85338  17.890  39.978  13.945
20112W        W85339  16.885  24.559   0.011
20113W        W85340  33.098   2.913  11.584
20114W        W85341  24.717  38.165  13.041
20115W        W85342   5.237  43.106  11.576
20116W        W85343  43.732  26.217  10.878
20117W        W85344  14.334  44.297   0.483
20118W        W85345  21.259  17.054   1.227
20119W        W85346  42.270  10.598   3.137
20120W        W85347  14.756  42.321   3.757
20121W        W85348  32.392  24.147  14.969
20122W        W85349   0.786  23.979  11.052
20123W        W85350  13.819  23.999   2.234
20124W        W85351  32.596  13.195   0.334
20125W        W85352  34.371  28.985  12.462
20126W        W85353   2.243  42.063   0.043
20127W        W85354  19.601  36.281  13.261
20128W        W85355   5.517  29.310   2.327
20129W        W85356   6.683   1.288   1.764
20130W        W85357  32.437   0.550  10.275
20131W        W85358  10.409  32.856  14.476
20132W        W85359  43.837   0.417   0.880
20133W        W85360  41.030  18.482  12.438
20134W        W85361  28.925  42.806  12.336
20135W        W85362  30.709  40.914  13.138
20136W        W85363  39.913  38.118  14.771
20137W        W85364  12.428  42.260  12.631
20138W        W85365  37.513   6.711   0.464
20139W        W85366  16.258  14.345  12.404
20140W        W85367   5.108  30.967  12.554
20141W        W85368  25.149   8.886   4.591
20142W        W85369  15.843   3.837  13.797
20143W        W85370  43.510  16.263  12.118
20144W        W85371   1.302  17.136  13.551
20145W        W85372   4.022  30.011   1.353
20146W        W85373  36.311  20.791  11.984
20147W        W85374  39.542  29.185  11.957
20148W        W85375  42.552  34.158  12.573
20149W        W85376  44.920  26.757  11.317
20150W        W85377  32.798   2.198  14.684
20151W        W85378  24.047  35.921   9.997
20152W        W85379   6.295   5.394   3.177
20153W        W85380  27.567  31.389   1.735
20154W        W85381  32.698  11.756   1.861
20155W        W85382  11.525  16.700  12.433
20156W        W85383  42.081  29.144   1.262
20157W        W85384  22.422   3.908   1.006
20158W        W85385  23.526  19.765  14.034
20159W        W85386  24.106  25.425   2.492
20160W        W85387  30.722  34.571  12.713
20161W        W85388  15.710  15.670   3.694
20162W        W85389  18.102   7.641   1.855
20163W        W85390   3.014   6.353   1.904
20164W        W85391   7.292   7.243  12.039
20165W        W85392  44.650  41.912   2.080
20166W        W85393  37.553   5.589   5.394
20167W        W85394  25.044  32.113  13.891
20168W        W85395  11.197  35.990   1.795
20169W        W85396  31.378  29.217   0.968
20170W        W85397  38.353  36.429  14.072
20171W        W85398  11.353   4.823   3.212
20172W        W85399  40.796  10.671   0.660
20173W        W85400  30.992  28.299  10.055
20174W        W85401  20.557  31.669  11.034
20175W        W85402  32.929  38.513   1.480
20176W        W85403   8.269  21.149   0.180
20177W        W85404  38.471   8.198   1.157
20178W        W85405  13.177  10.960   0.063
20179W        W85406  37.317  39.908   0.308
20180W        W85407  25.885  38.350  14.778
20181W        W85408  42.019  15.063   4.825
20182W        W85409  16.235  36.440  13.584
20183W        W85410  31.012  18.189   3.404
20184W        W85411  31.962  32.361   3.208
20185W        W85412  43.940   6.774   3.369
20186W        W85413  41.383  16.807  13.844
20187W        W85414  36.410  22.058  11.554
20188W        W85415  42.019   3.542  14.435
20189W        W85416  30.139  44.212   0.018
20190W        W85417  39.167  35.286   3.488
20191W        W85418  18.369  20.176  10.629
20192W        W85419  19.572  40.459   2.720
20193W        W85420   4.876  11.192  11.569
20194W        W85421  11.967  39.308   1.320
20195W        W85422   4.403  25.554   3.607
20196W        W85423  39.317  19.463   0.452
20197W        W85424  21.638  18.135   3.595
20198W        W85425  14.064  44.119   1.879
20199W        W85426  35.675  34.499   0.367
20200W        W85427   6.540  20.576   3.820
20201W        W85428  39.469  29.411   1.342
20202W        W85429  37.348  24.494  12.052
20203W        W85430  10.919  14.049   2.721
20204W        W85431  38.489  34.444  10.637
20205W        W85432  21.312  26.188  13.019
20206W        W85433  34.566  22.158  12.924
20207W        W85434  41.963  18.566  13.974
20208W        W85435  38.457  36.920  14.281
20209W        W85436  41.998  33.473  11.586
20210W        W85437  23.152   2.341   4.980
20211W        W85438  29.495  23.213   3.266
20212W        W85439  32.639  22.488  11.744
20213W        W85440  30.644   4.367  14.557
20214W        W85441   4.436  35.932   0.325
20215W        W85442  44.257  43.329   4.609
20216W        W85443   8.518  38.580  10.719
20217W        W85444  41.011  39.027   4.117
20218W        W85445  30.918  28.486   2.722
20219W        W85446  33.207  15.663   1.397
20220W        W85447   5.417  21.948   3.189
20221W        W85448  27.267  34.405   2.621
20222W        W85449  13.660  13.154   3.643
20223W        W85450   6.241  22.745   2.541
20224W        W85451  12.688   9.402  13.910
20225W        W85452  29.423  43.996   4.056
20226W        W85453  16.130  43.461   0.242
20227W        W85454  30.710   2.846   4.154
20228W        W85455  42.004  38.549   1.412
20229W        W85456   1.730   9.159   1.822
20230W        W85457   7.232  39.002  10.701
20231W        W85458  39.628  17.808  13.864
20232W        W85459  12.475  43.004  12.978
20233W        W85460  13.121  20.733  14.465
20234W        W85461   6.867  27.716   4.638
20235W        W85462  19.383  12.094   4.191
20236W        W85463  18.094   3.112   1.865
20237W        W85464  35.167  38.133  12.413
20238W        W85465  26.076  35.746  10.688
20239W        W85466  21.059  30.708   1.751
20240W        W85467  30.576  16.107   2.629
20241W        W85468  34.154  23.057   2.997
20242W        W85469  37.351   8.641  11.022
20243W        W85470  31.160  33.955   4.006
20244W        W85471  16.551  28.127   4.243
20245W        W85472   7.648   8.134   0.401
20246W        W85473  24.537  33.142   2.171
20247W        W85474  42.263   5.268   2.579
20248W        W85475  29.667  29.232   2.750
20249W        W85476  33.016  28.195  12.475
20250W        W85477   4.669  19.194  10.988
20251W        W85478  18.554  12.396   2.711
20252W        W85479  10.851  14.861  10.619
20253W        W85480   8.216  34.215   0.829
20254W        W85481  17.687   1.399  12.978
20255W        W85482  25.102  24.288  14.310
20256W        W85483  12.666  11.505   0.444
20257W        W85484  23.208  30.986  14.099
20258W        W85485  31.991  24.023   1.286
20259W        W85486  40.292  13.582   3.822
20260W        W85487  27.300  20.499   0.211
20261W        W85488  10.337  35.830   1.847
20262W        W85489  15.990  11.068  14.252
20263W        W85490  30.936  25.924   4.151
20264W        W85491  20.285  43.256  12.042
20265W        W85492  28.986  13.693  12.360
20266W        W85493  30.879  24.092   1.687
20267W        W85494  15.757  38.091   3.314
20268W        W85495  42.319  17.179  14.928
20269W        W85496  18.814  41.347  13.870
20270W        W85497  35.556   2.268   3.874
20271W        W85498  39.416  11.984  11.919
20272W        W85499  15.258  12.385  14.107
20273W        W85500   5.035  28.429   9.951
20274W        W85501  15.422  28.024   5.144
20275W        W85502  31.577  38.909  13.021
20276W        W85503  24.397   5.804   1.927
20277W        W85504  14.366  30.439   1.812
20278W        W85505  26.279  31.994  13.416
20279W        W85506  13.270  22.036   3.773
20280W        W85507  22.632  25.189   0.817
20281W        W85508  38.923  44.165   3.469
20282W        W85509  44.302  28.862  12.353
20283W        W85510   2.343   4.382  11.407
20284W        W85511  30.520  38.856   1.319
20285W        W85512   6.793  20.676   2.943
20286W        W85513  18.798   4.683   3.754
20287W        W85514  16.794  10.265   0.919
20288W        W85515  23.382  34.560   0.339
20289W        W85516  34.576   5.356  10.652
20290W        W85517  25.683  44.860  13.924
20291W        W85518  12.447  11.818   2.185
20292W        W85519   5.955   0.493   2.327
20293W        W85520  37.716   9.840  12.945
20294W        W85521   3.896  26.572   0.451
20295W        W85522  30.427  33.464   1.079
20296W        W85523   6.396  32.566   4.603
20297W        W85524   5.336  23.514   3.253
20298W        W85525  42.577  38.300   2.810
20299W        W85526  12.414  14.302   4.507
20300W        W85527  31.936  16.641  14.609
20301W        W85528  19.323  30.498   4.652
20302W        W85529  40.770   9.620   1.715
20303W        W85530  21.129  29.998  13.491
20304W        W85531  23.029  29.456  11.017
20305W        W85532  29.392  31.035   3.797
20306W        W85533   8.379  39.839  11.132
20307W        W85534  12.239  31.843  14.389
20308W        W85535  36.270  15.179  13.931
20309W        W85536  27.740  20.775   2.708
20310W        W85537   1.778   6.810   4.484
20311W        W85538  14.628  35.882  13.114
20312W        W85539   5.223  37.416   0.268
20313W        W85540  16.125  44.319  12.114
20314W        W85541  12.006  21.604   1.962
20315W        W85542   2.533  20.513  10.109
20316W        W85543   8.519  43.420   3.660
20317W        W85544   1.136  20.600  10.675
20318W        W85545  39.801  16.811  13.127
20319W        W85546  30.131  16.323   2.806
20320W        W85547  44.045  40.761  10.495
20321W        W85548  35.593  44.528  13.990
20322W        W85549  31.575  20.955   4.091
20323W        W85550   0.293  24.879  13.304
20324W        W85551  33.406   4.523  11.071
20325W        W85552  33.674  32.183   3.708
20326W        W85553  20.440  24.932  12.218
20327W        W85554  15.185  44.413   4.369
20328W        W85555   1.222  36.694  11.192
20329W        W85556  25.445   4.267   1.881
20330W        W85557  36.179  16.241   4.046
20331W        W85558  35.183  25.239   2.388
20332W        W85559   5.693  21.064  14.008
20333W        W85560  42.264  13.509  13.100
20334W        W85561   4.366  40.277   4.537
20335W        W85562  27.212   4.473   3.543
20336W        W85563  44.441   1.035  10.220
20337W        W85564  18.191   3.711   4.426
20338W        W85565  40.122  38.695   1.347
20339W        W85566  24.550   6.072  11.217
20340W        W85567  39.468  30.403   1.275
20341W        W85568  42.538  23.695   4.712
20342W        W85569   1.962  14.209  14.381
20343W        W85570  33.743  27.242   3.858
20344W        W85571  35.742  16.492   3.676
20345W        W85572  44.610  43.478  13.521
20346W        W85573  44.492   3.541   2.550
20347W        W85574   5.750  33.995   3.416
20348W        W85575  19.199  24.923   2.772
20349W        W85576  26.562  23.074   0.262
20350W        W85577   2.146   8.462   3.154
20351W        W85578   2.292   1.158  14.077
20352W        W85579   8.083  21.318  14.339
20353W        W85580  34.961  22.967   1.518
20354W        W85581  36.133  24.982  11.434
20355W        W85582   0.036  33.506  13.414
20356W        W85583   4.697  43.250   2.202
20357W        W85584   5.884  37.860   1.683
20358W        W85585  14.997  10.769   3.230
20359W        W85586  42.528  26.430   1.256
20360W        W85587  19.046  20.833  11.476
20361W        W85588  30.025  10.290  11.851
20362W        W85589  35.527  38.497   5.489
20363W        W85590  21.071  26.241  13.499
20364W        W85591  11.206  29.521   3.136
20365W        W85592   4.035   0.278  14.441
20366W        W85593   8.235   3.294   1.401
20367W        W85594  19.346  35.126  11.933
20368W        W85595   9.734  23.049  14.174
20369W        W85596   1.228   6.093  10.681
20370W        W85597  25.224   1.998  14.387
20371W        W85598  26.173  14.601   4.537
20372W        W85599  11.634  20.049   0.901
20373W        W85600  35.631   3.196  12.438
20374W        W85601  42.119   4.805   2.929
20375W        W85602  21.446  18.786  13.912
20376W        W85603  44.370   5.431   3.138
20377W        W85604  31.069  33.001  13.025
20378W        W85605   2.321   4.504  10.593
20379W        W85606  41.940  11.355   3.294
20380W        W85607   7.155  32.848  12.179
20381W        W85608  43.492  43.629  13.897
20382W        W85609   7.917  37.933   1.885
20383W        W85610   4.915  28.242  13.333
20384W        W85611  24.600  27.116   2.586
20385W        W85612  10.386  22.791  13.933
20386W        W85613  19.889  26.478  12.115
20387W        W85614  43.035  25.496   5.175
20388W        W85615  29.182  12.587  11.186
20389W        W85616  44.042  25.563  13.576
20390W        W85617  15.802  28.337   3.734
20391W        W85618  25.826  19.901   1.818
20392W        W85619  36.397  15.835  12.083
20393W        W85620  24.000  40.449  11.628
20394W        W85621  25.053  10.934   0.811
20395W        W85622  22.611  37.047  13.311
20396W        W85623  25.371  36.982  10.640
20397W        W85624   9.407  21.185   5.037
20398W        W85625  22.014  36.421  13.772
20399W        W85626  39.400  16.808  12.356
20400W        W85627  20.626  26.082  12.216
20401W        W85628  13.318  44.521   0.434
20402W        W85629   9.652  13.110  13.350
20403W        W85630  28.436   3.258  14.309
20404W        W85631  31.404   8.276  12.368
20405W        W85632   4.324  14.828  13.315
20406W        W85633  26.978  44.921   1.850
20407W        W85634  44.818  20.866   4.967
20408W        W85635  27.167  33.435   0.809
20409W        W85636   9.043  37.986   0.934
20410W        W85637   2.165   5.728  14.775
20411W        W85638   5.708  33.438  10.871
20412W        W85639  39.446  33.125   0.374
20413W        W85640   4.488  15.687  13.107
20414W        W85641  38.432  32.517   0.988
20415W        W85642  28.077  36.024  14.813
20416W        W85643  19.363  15.097  11.509
20417W        W85644  31.878  42.096  12.155
20418W        W85645   3.553  27.911   5.326
20419W        W85646  44.501  38.144  10.288
20420W        W85647  20.187  41.757   2.904
20421W        W85648   7.653  12.153   0.906
20422W        W85649  37.588  23.604  10.683
20423W        W85650   5.518  34.902  12.559
20424W        W85651   8.870   0.947  12.778
20425W        W85652  24.467  29.592   4.188
20426W        W85653  25.257  13.622  14.778
20427W        W85654  23.931   1.800  12.320
20428W        W85655  15.251  24.419  13.994
20429W        W85656  20.844  36.049   4.453
20430W        W85657  36.208   2.945   0.328
20431W        W85658  22.572  40.512  14.396
20432W        W85659  18.770  37.649  12.312
20433W        W85660   8.683  23.088  10.966
20434W        W85661  26.197  28.598  14.824
20435W        W85662  17.545  19.790   5.019
20436W        W85663  12.043  20.168   0.587
20437W        W85664  29.130  13.558   1.762
20438W        W85665   3.866  35.078   1.183
20439W        W85666  41.914  30.398   4.519
20440W        W85667  41.712   6.761  13.495
20441W        W85668   3.430  39.780   3.223
20442W        W85669  25.147  36.773   1.836
20443W        W85670  33.980  38.652  11.633
20444W        W85671   2.831  41.258  12.902
20445W        W85672  26.717  39.275   3.601
20446W        W85673  21.133  23.108   3.160
20447W        W85674  13.924   8.860  11.422
20448W        W85675   0.885   2.117  10.658
20449W        W85676   0.920  18.271   1.189
20450W        W85677   3.757  10.850   1.308
20451W        W85678   7.044  40.516  14.042
20452W        W85679   9.679  44.839   2.472
20453W        W85680  35.614  44.906  14.934
20454W        W85681  21.620  38.163  12.078
20455W        W85682  20.656  10.903  14.874
20456W        W85683  29.437   9.547  12.495
20457W        W85684   5.773  25.005   3.863
20458W        W85685   0.751  27.034  13.383
20459W        W85686  18.489  25.416   1.396
20460W        W85687  43.348   3.696  14.854
20461W        W85688   2.655  22.830   2.918
20462W        W85689  42.715   8.585  11.708
20463W        W85690  40.353  15.659  10.671
20464W        W85691  15.259   0.957   0.305
20465W        W85692   3.034  43.400   0.917
20466W        W85693  24.143  10.055  10.227
20467W        W85694  21.018   5.956  13.881
20468W        W85695   8.783  33.902   2.693
20469W        W85696  33.025  22.725  11.004
20470W        W85697  22.108  15.174   0.455
20471W        W85698  29.392   2.862  12.225
20472W        W85699  32.340  43.385   3.806
20473W        W85700  38.829  14.552   2.815
20474W        W85701  38.792   6.290  14.799
20475W        W85702  23.225  38.165   4.030
20476W        W85703   2.960  35.390   0.841
20477W        W85704   6.711  12.308  11.180
20478W        W85705  21.989  36.551   1.605
20479W        W85706  38.009  25.726  14.300
20480W        W85707  35.588  18.092   1.009
20481W        W85708   9.307  19.195   4.445
20482W        W85709  23.907  17.571  12.926
20483W        W85710   4.883  12.222  13.035
20484W        W85711  22.035  37.432  13.335
20485W        W85712   5.864  31.156   4.224
20486W        W85713  26.456  17.360   4.915
20487W        W85714  39.983  17.778  14.266
20488W        W85715  34.306  25.663   1.357
20489W        W85716  22.425  20.638  13.138
20490W        W85717  28.695  35.549  13.286
20491W        W85718  38.626  18.050  13.853
20492W        W85719  27.539   6.816   3.201
20493W        W85720  13.764  30.920  11.105
20494W        W85721   0.903   0.729  11.776
20495W        W85722  25.485  43.514  13.787
20496W        W85723  43.913  21.807  11.172
20497W        W85724  16.742  10.375  10.800
20498W        W85725  20.175  40.134   3.677
20499W        W85726   2.678  28.720  14.796
20500W        W85727  12.270  41.838   3.725
20501W        W85728   4.231  16.170  11.952
20502W        W85729   5.675  43.127   2.566
20503W        W85730   9.781  12.664  14.117
20504W        W85731   6.261  20.699   2.994
20505W        W85732  33.626  28.180   4.021
20506W        W85733  15.775  30.741  12.972
20507W        W85734   2.405  16.591  11.092
20508W        W85735  15.169  26.253   4.661
20509W        W85736   9.780   7.184   3.863
20510W        W85737  25.774  41.514  11.744
20511W        W85738   2.178   2.659  11.151
20512W        W85739  32.027  34.065   3.721
20513W        W85740  40.235   4.752  11.967
20514W        W85741  10.322  22.623  11.509
20515W        W85742  27.184   0.381   5.579
20516W        W85743  19.370  35.071  11.062
20517W        W85744  31.622  31.041   0.387
20518W        W85745  28.207  19.757  14.900
20519W        W85746  10.800   5.386   1.466
20520W        W85747  10.419  13.304  13.423
20521W        W85748  16.280  19.892  10.780
20522W        W85749  42.408  19.187   0.805
20523W        W85750  43.780  33.784   1.481
20524W        W85751  41.966  21.589   4.149
20525W        W85752  17.988   7.776  12.070
20526W        W85753  41.760  40.316  11.236
20527W        W85754  30.109  34.560   4.027
20528W        W85755  20.647   8.434   3.112
20529W        W85756  30.243   0.715  14.910
20530W        W85757  11.341  25.543   0.943
20531W        W85758  30.634  38.700   4.505
20532W        W85759   7.471  30.181  12.954
20533W        W85760  33.733  26.690  10.735
20534W        W85761  38.614  30.895   2.719
20535W        W85762  23.545   8.368   3.583
20536W        W85763   0.301  16.075   1.379
20537W        W85764  41.035   0.363  11.491
20538W        W85765   4.531  31.306  11.151
20539W        W85766  30.034  17.980   4.419
20540W        W85767   5.930  30.666  13.710
20541W        W85768  16.507   3.945  12.445
20542W        W85769  25.354   7.053  13.790
20543W        W85770  13.314  20.537   2.661
20544W        W85771  36.087  14.601   4.396
20545W        W85772   8.279  19.233   4.062
20546W        W85773  24.524  17.323  12.100
20547W        W85774  17.289   2.383   3.926
20548W        W85775  17.518  18.146  14.454
20549W        W85776  34.396  21.670  13.062
20550W        W85777  21.589  41.737   3.262
20551W        W85778  32.942  42.029   0.914
20552W        W85779  34.189   9.837   1.272
20553W        W85780  13.285   7.896   2.294
20554W        W85781   3.020  30.917   3.815
20555W        W85782   7.940   1.210  12.680
20556W        W85783  10.168   7.312   5.191
20557W        W85784  43.334  22.606  12.127
20558W        W85785  26.998  22.900  12.552
20559W        W85786  19.747   5.383  13.844
20560W        W85787   8.720  23.059   0.479
20561W        W85788  39.797  37.427   4.142
20562W        W85789   0.803   5.989   9.958
20563W        W85790  42.853  11.595  11.861
20564W        W85791  37.654  26.894   4.077
20565W        W85792  34.000   9.178  10.456
20566W        W85793  27.628  40.805   3.351
20567W        W85794  10.142  39.221   2.788
20568W        W85795  38.094  36.384  11.143
20569W        W85796  43.780  30.027  12.080
20570W        W85797  26.755   6.954   1.279
20571W        W85798  32.823  38.297   2.463
20572W        W85799   5.175  34.312   1.614
20573W        W85800   8.350  42.542   2.872
20574W        W85801   4.768  30.684   0.848
20575W        W85802  32.790  21.432   1.966
20576W        W85803  12.752  17.069  11.464
20577W        W85804   0.486   6.205   2.723
20578W        W85805  43.956  20.313  13.461
20579W        W85806   7.332   3.908  10.690
20580W        W85807   0.207   4.577  11.637
20581W        W85808   2.182  28.060  10.989
20582W        W85809   8.620  40.005   2.903
20583W        W85810  12.777  10.719   2.387
20584W        W85811  44.927  12.979   3.865
20585W        W85812  44.035  23.911  10.689
20586W        W85813  13.631  24.663   0.479
20587W        W85814  30.888   3.903  12.604
20588W        W85815   7.599  11.199  14.007
20589W        W85816  22.569  15.155  11.770
20590W        W85817  35.634   6.350  12.563
20591W        W85818  35.339  31.442   4.637
20592W        W85819  20.514  19.661  12.569
20593W        W85820  32.511  41.356   4.927
20594W        W85821  24.672  12.258  13.807
20595W        W85822  40.695  13.004   5.079
20596W        W85823  33.641  36.019  14.799
20597W        W85824   8.485  17.083  10.425
20598W        W85825  13.167   1.219   4.521
20599W        W85826  18.863  24.562  14.623
20600W        W85827  25.508   1.880   1.800
20601W        W85828  19.007  12.611  11.206
20602W        W85829  30.428  15.656  12.562
20603W        W85830  32.484   8.521  14.121
20604W        W85831  40.328  33.523  11.047
20605W        W85832   9.712  18.638  13.180
20606W        W85833  35.817   2.526  11.579
20607W        W85834  40.316  38.052   4.925
20608W        W85835  24.831  24.105   2.712
20609W        W85836  43.925  22.595  12.520
20610W        W85837  27.178  31.409  11.470
20611W        W85838  30.155   7.940   1.218
20612W        W85839  43.305  33.503   0.312
20613W        W85840  23.391   5.158  14.194
20614W        W85841  42.789  37.575  12.169
20615W        W85842   6.645  28.969  13.294
20616W        W85843  30.569  23.268   2.451
20617W        W85844  18.701  25.794  14.600
20618W        W85845  40.779  12.762  13.753
20619W        W85846   6.080   2.284   0.256
20620W        W85847   4.872  10.851   0.769
20621W        W85848  21.725  16.875   4.366
20622W        W85849  34.703  40.402  14.818
20623W        W85850   5.542   1.336  11.347
20624W        W85851  37.601   9.281   3.625
20625W        W85852  16.595  13.529   3.756
20626W        W85853  15.826  23.738  12.443
20627W        W85854  39.017  31.544   1.255
20628W        W85855  31.781  29.503  12.256
20629W        W85856  43.424  13.602   0.457
20630W        W85857  15.796  34.680   1.172
20631W        W85858   5.932  30.132   1.324
20632W        W85859  39.266  18.300   2.783
20633W        W85860  44.787  10.656   4.678
20634W        W85861   7.750  39.828   1.639
20635W        W85862   8.218  22.710  14.527
20636W        W85863  30.742  39.671  13.448
20637W        W85864  15.877   2.786   3.307
20638W        W85865  17.377  20.294   3.758
20639W        W85866  33.542  15.749   3.584
20640W        W85867  40.344   1.457   2.221
20641W        W85868  29.424  42.908  11.988
20642W        W85869  11.745  27.406  14.715
20643W        W85870  22.503  15.170  13.948
20644W        W85871  36.944  23.635  14.811
20645W        W85872   3.712  36.316   0.674
20646W        W85873  27.280  25.454   1.678
20647W        W85874  39.420   1.737   4.880
20648W        W85875  36.128  20.579   4.535
20649W        W85876  40.738  32.607  14.631
20650W        W85877  12.700  16.699   3.425
20651W        W85878   4.901   1.742  13.446
20652W        W85879  12.629  18.111  12.907
20653W        W85880   8.223   3.652   4.291
20654W        W85881  21.410   3.833  13.865
20655W        W85882  21.706   2.305   1.935
20656W        W85883  34.816   3.281   2.702
20657W        W85884   4.616  22.949   2.661
20658W        W85885  10.156  18.452   2.351
20659W        W85886  23.941  33.866  11.096
20660W        W85887  15.863  23.817  10.855
20661W        W85888   1.848  42.857   1.944
20662W        W85889   5.537  42.880  13.356
20663W        W85890   4.680   2.759   3.366
20664W        W85891  37.006  28.899   0.727
20665W        W85892  24.785   0.067   3.244
20666W        W85893  25.933  31.929  12.998
20667W        W85894  29.039  35.098   0.836
20668W        W85895   3.815  38.100   0.803
20669W        W85896  20.786  24.212   4.141
20670W        W85897  26.844  26.631  11.125
20671W        W85898   3.363  15.551   3.312
20672W        W85899  24.553  22.776  10.594
20673W        W85900   5.777  32.608  12.801
20674W        W85901  12.156  44.171   1.913
20675W        W85902  43.863  34.085  12.500
20676W        W85903   5.414  23.041   1.047
20677W        W85904  21.795  35.587   2.034
20678W        W85905  12.497   2.680  14.310
20679W        W85906  32.489  38.371   3.684
20680W        W85907   4.322  15.725  10.777
20681W        W85908  23.734   4.326   1.757
20682W        W85909  31.899  24.732  11.220
20683W        W85910  12.996  37.558   3.596
20684W        W85911  10.047  36.032  12.007
20685W        W85912  22.993  34.513  11.675
20686W        W85913  38.987  41.446   4.567
20687W        W85914  32.211  42.801   4.113
20688W        W85915  17.829   2.779  10.722
20689W        W85916  21.191  31.081   2.675
20690W        W85917  24.390  27.137   3.639
20691W        W85918  36.491  32.882  12.090
20692W        W85919  44.016  24.314   1.000
20693W        W85920  21.112   4.653  14.286
20694W        W85921  43.309  26.323  10.637
20695W        W85922  28.506   5.645  12.593
20696W        W85923   9.910   7.688   2.112
20697W        W85924  41.147   4.939  10.309
20698W        W85925  30.060  24.696  10.354
20699W        W85926   2.997  36.110  13.976
20700W        W85927   5.705  28.209  11.092
20701W        W85928   6.626  19.134   3.680
20702W        W85929  33.534  39.583  14.327
20703W        W85930   8.438  14.624   3.356
20704W        W85931  21.075  38.887  11.830
20705W        W85932  11.480  34.801   4.443
20706W        W85933   6.083  26.854   1.904
20707W        W85934  13.947  21.970  11.373
20708W        W85935  13.430  23.503  12.218
20709W        W85936  23.243  42.168   3.642
20710W        W85937  36.971  31.594  10.995
20711W        W85938  19.135  27.923   1.873
20712W        W85939  31.226  32.277  12.511
20713W        W85940  10.461  13.709  12.383
20714W        W85941  35.150   0.671  14.316
20715W        W85942   5.318   0.290   1.329
20716W        W85943  36.129  20.111   0.047
20717W        W85944  35.545   7.239   4.563
20718W        W85945  34.968  40.973   4.792
20719W        W85946  26.791  23.043   5.173
20720W        W85947  17.939  23.068  14.329
20721W        W85948  30.630   5.228   4.181
20722W        W85949  28.238  33.064   2.335
20723W        W85950  10.509  20.970   0.448
20724W        W85951  29.491  34.492  11.628
20725W        W85952  38.970  14.056  13.581
20726W        W85953   4.185  23.509  11.915
20727W        W85954   2.881  28.597   4.372
20728W        W85955  23.540  26.736  12.875
20729W        W85956  18.399   8.697   4.490
20730W        W85957   3.807   1.793   5.757
20731W        W85958   6.933  26.533  11.995
20732W        W85959   7.923  34.942   0.659
20733W        W85960  22.016   2.364  13.482
20734W        W85961  43.115  32.937   0.794
20735W        W85962   0.234  42.354   3.198
20736W        W85963  16.254  12.714   1.893
20737W        W85964  21.040  41.925  10.429
20738W        W85965  26.522   4.629   4.995
20739W        W85966   1.749  12.971  13.403
20740W        W85967  28.931  37.130  14.978
20741W        W85968  32.206  18.509  11.671
20742W        W85969   0.978  30.851  13.478
20743W        W85970  39.969  29.141   4.830
20744W        W85971  20.972   2.827  13.466
20745W        W85972   9.758  27.472  11.597
20746W        W85973  31.595   7.393  12.076
20747W        W85974  44.751  35.413   2.631
20748W        W85975  13.298  12.252   1.904
20749W        W85976   8.545  21.538  14.928
20750W        W85977  42.788  30.081  13.599
20751W        W85978  34.945  37.051   1.136
20752W        W85979  32.695   2.224   3.236
20753W        W85980  16.758  21.201   1.944
20754W        W85981   6.981  41.554   0.598
20755W        W85982  32.648  17.208  11.439
20756W        W85983   0.330   5.396  13.547
20757W        W85984  19.463  30.976   2.371
20758W        W85985  29.564  26.461  12.508
20759W        W85986   5.764   5.291   0.852
20760W        W85987  20.809  17.832   1.854
20761W        W85988  25.968  25.123   3.154
20762W        W85989  17.304  31.137   1.322
20763W        W85990  19.567  32.510  13.763
20764W        W85991  41.032  18.411  13.552
20765W        W85992  32.411  24.238   4.214
20766W        W85993  24.201  13.117  14.031
20767W        W85994   8.899  34.633   2.290
20768W        W85995  28.564   8.149   1.495
20769W        W85996  44.307   6.898  14.743
20770W        W85997  21.170  44.459  14.852
20771W        W85998  14.779  36.326  12.877
20772W        W85999   8.657  13.261  11.169
20773W        W86000   3.743   0.010   2.753
20774W        W86001  38.049  17.364   0.840
20775W        W86002  14.850   2.373  11.246
20776W        W86003  43.405   8.363  10.994
20777W        W86004   9.886  17.050   1.276
20778W        W86005  10.896  32.519  12.457
20779W        W86006  21.633  39.961   4.819
20780W        W86007  33.924  19.854   3.213
20781W        W86008  33.728  33.030  11.912
20782W        W86009  40.023  35.122   4.573
20783W        W86010   4.496   8.766  14.998
20784W        W86011   9.588  33.141  14.865
20785W        W86012   0.613  40.407   4.601
20786W        W86013  41.392  35.847   4.898
20787W        W86014  35.909   0.013   1.260
20788W        W86015  31.501  27.515  14.430
20789W        W86016  36.777   7.889  11.565
20790W        W86017  27.433  44.883  12.989
20791W        W86018  44.292  42.326   1.482
20792W        W86019  28.719  18.993  14.273
20793W        W86020  35.589  39.257   2.801
20794W        W86021  14.981  25.608  11.813
20795W        W86022  22.933  30.368  10.921
20796W        W86023  30.864  26.643   2.142
20797W        W86024  40.187  28.568  14.295
20798W        W86025  41.752   2.221   4.681
20799W        W86026  25.981  29.085  13.836
20800W        W86027   2.889  10.760  14.395
20801W        W86028  17.433   1.459   0.006
20802W        W86029   4.673  30.130   4.065
20803W        W86030  44.192  25.956   3.716
20804W        W86031  38.438  42.962  11.596
20805W        W86032   9.086  32.632  13.636
20806W        W86033  31.792  40.556  14.928
20807W        W86034  24.104  34.131  14.896
20808W        W86035  26.313  41.547   2.102
20809W        W86036  44.010   6.278   3.165
20810W        W86037  22.165  12.853  14.365
20811W        W86038  16.726  28.346  14.049
20812W        W86039  19.841  27.090   0.173
20813W        W86040  14.365   4.266   0.397
20814W        W86041  10.106   1.376   1.728
20815W        W86042  23.171  11.440  14.085
20816W        W86043  14.110  22.059  13.487
20817W        W86044  30.102  28.414  13.923
20818W        W86045  19.016  24.607  11.830
20819W        W86046  13.139   5.972   3.792
20820W        W86047  16.059  41.265  12.056
20821W        W86048  14.398  23.759   3.932
20822W        W86049  33.482   3.481   1.875
20823W        W86050  16.580  39.499   2.273
20824W        W86051   8.227   2.157   4.591
20825W        W86052  33.158   6.175  14.961
20826W        W86053  11.845  21.233   5.185
20827W        W86054  32.375  35.871  12.994
20828W        W86055  24.518   0.482   3.396
20829W        W86056  14.845   3.871  10.753
20830W        W86057  44.382  18.688   4.464
20831W        W86058  34.373  36.395   2.188
20832W        W86059  10.755  42.588   4.342
20833W        W86060  25.568  15.456  13.449
20834W        W86061   3.781   3.396   4.564
20835W        W86062   2.299  18.846   2.475
20836W        W86063   1.075  25.901  14.467
20837W        W86064  36.188  44.892  14.192
20838W        W86065  37.780  41.945  13.256
20839W        W86066  39.034  33.910   2.141
20840W        W86067  26.961  32.034   4.609
20841W        W86068  35.396  29.926  12.587
20842W        W86069  20.942  18.912   0.533
20843W        W86070   2.399  44.868  13.335
20844W        W86071  30.581  44.924   1.716
20845W        W86072  30.530  20.656   4.202
20846W        W86073  34.640  29.621  13.060
20847W        W86074  17.289  20.900  10.676
20848W        W86075  34.862   9.391  10.973
20849W        W86076  32.818   2.138  11.878
20850W        W86077  24.731  26.579  11.177
20851W        W86078   3.794  22.034   3.301
20852W        W86079  34.336  19.562   3.427
20853W        W86080  23.082  32.362   0.431
20854W        W86081  22.123  27.390  12.551
20855W        W86082   9.072  12.466  12.003
20856W        W86083  39.313   1.360   0.441
20857W        W86084  27.636  20.285  11.112
20858W        W86085  15.968  19.741   1.717
20859W        W86086  35.110  31.401   1.674
20860W        W86087  19.951  32.237  13.980
20861W        W86088  17.240   7.587   2.322
20862W        W86089   2.886  20.220   3.692
20863W        W86090   9.890  43.713   0.836
20864W        W86091  22.139  35.399   0.833
20865W        W86092  17.739  28.623   3.389
20866W        W86093  20.174  36.346   3.145
20867W        W86094  34.873  22.277  14.897
20868W        W86095  10.426  26.354   0.524
20869W        W86096   8.144   2.801   1.470
20870W        W86097  25.422  40.103  11.891
20871W        W86098  17.533  15.865  11.151
20872W        W86099  33.887   4.329   2.262
20873W        W86100  28.783   6.155  13.998
20874W        W86101  18.765  43.404  13.325
20875W        W86102   1.253  29.524  12.078
20876W        W86103  38.413  39.489  12.720
20877W        W86104  10.015  41.370   4.765
20878W        W86105  13.632   9.307  13.927
20879W        W86106  42.837  22.017  14.935
20880W        W86107  16.798  44.983   4.500
20881W        W86108  43.026  24.296   1.453
20882W        W86109   0.294   9.094   2.838
20883W        W86110   0.759  36.865  11.026
20884W        W86111   5.148  44.972   3.723
20885W        W86112  10.187  10.087   2.597
20886W        W86113   9.715  35.942   1.376
20887W        W86114  13.621  22.202   4.643
20888W        W86115  43.521  27.169  10.480
20889W        W86116  29.063   9.643  13.817
20890W        W86117  15.747  31.941  11.049
20891W        W86118  12.764  37.317   0.312
20892W        W86119  18.669  24.755   4.142
20893W        W86120   1.502   4.598  11.687
20894W        W86121  10.626   2.286   1.821
20895W        W86122  32.709   6.821   4.868
20896W        W86123  17.121  31.644  11.751
20897W        W86124   3.277  20.036  10.624
20898W        W86125  28.336  22.620  11.608
20899W        W86126  12.365  26.526  14.482
20900W        W86127   3.607  22.388   2.011
20901W        W86128  42.646  33.693  12.128
20902W        W86129  19.643  37.246  12.902
20903W        W86130  33.554  21.246  13.000
20904W        W86131  33.965  41.478   2.974
20905W        W86132  39.688  31.628   1.806
20906W        W86133  27.613  21.714   1.452
20907W        W86134   2.365  24.659  10.712
20908W        W86135  16.172  44.335  13.115
20909W        W86136  27.582  13.076   3.733
20910W        W86137  13.012   1.358  12.119
20911W        W86138  43.344  40.555  13.172
20912W        W86139  16.764  40.558  13.937
20913W        W86140  10.928   7.297  13.052
20914W        W86141  16.856  37.448   0.337
20915W        W86142  32.410  44.509   0.871
20916W        W86143  44.022  21.209   2.817
20917W        W86144  12.133  27.670  14.991
20918W        W86145  44.446  32.501   3.835
20919W        W86146  38.541   9.505  10.605
20920W        W86147  39.920  27.507   4.055
20921W        W86148  16.572  16.899   2.282
20922W        W86149  16.732  28.452   3.544
20923W        W86150  42.861  17.530   0.920
20924W        W86151  22.474   6.407  11.987
20925W        W86152  37.845  34.376  10.940
20926W        W86153  21.268   1.783  11.689
20927W        W86154  25.466  32.314   3.765
20928W        W86155  35.556  27.116  12.438
20929W        W86156  42.804   5.840   3.607
20930W        W86157  23.708  44.330  14.535
20931W        W86158  16.886  38.943   4.562
20932W        W86159   1.996  44.835  12.048
20933W        W86160  18.700   9.610   4.238
20934W        W86161  13.715  29.491   1.592
20935W        W86162  14.608  25.735  12.166
20936W        W86163  35.277  27.903  10.729
20937W        W86164  44.370  24.456  11.870
20938W        W86165  22.457  37.816   3.703
20939W        W86166   4.081  27.949   9.933
20940W        W86167  43.760  41.863  13.181
20941W        W86168  39.885  25.704   0.733
20942W        W86169  23.568   6.968  13.885
20943W        W86170  29.032  26.588  14.268
20944W        W86171  13.577  19.358  13.419
20945W        W86172   7.892  10.310  14.256
20946W        W86173  22.815  23.871   0.469
20947W        W86174   9.588  40.031  10.825
20948W        W86175  18.468  14.784  14.275
20949W        W86176  14.762  22.305  11.622
20950W        W86177  28.893  40.431  11.069
20951W        W86178   7.029  25.085   1.035
20952W        W86179  36.297  12.709  11.225
20953W        W86180  34.394  19.729  12.067
20954W        W86181  30.520  17.777  10.485
20955W        W86182  30.392  15.379  12.102
20956W        W86183  11.146  40.027  11.884
20957W        W86184  43.600  32.069  12.048
20958W        W86185  20.840  18.597  12.010
20959W        W86186  43.747   1.409  14.809
20960W        W86187  22.004   0.680   0.386
20961W        W86188  34.879  10.938   3.796
20962W        W86189  16.995  20.213  13.451
20963W        W86190  38.013   9.516  10.109
20964W        W86191  31.055   4.461   3.294
20965W        W86192   8.830  44.432  13.050
20966W        W86193  33.518  24.897  10.685
20967W        W86194  39.606  11.334  11.284
20968W        W86195  17.687  36.331  13.389
20969W        W86196   3.021   4.197  13.024
20970W        W86197   4.423  22.236   0.316
20971W        W86198  44.748   7.901  11.447
20972W        W86199  29.252   2.419  13.934
20973W        W86200   8.690   7.041  11.540
20974W        W86201  40.028  28.304   2.729
20975W        W86202   7.138  14.492   0.916
20976W        W86203  38.499   9.733  13.779
20977W        W86204  43.283  20.069   1.871
20978W        W86205  11.490  33.909   0.487
20979W        W86206   0.361  24.118   4.952
20980W        W86207  39.478   3.769  11.060
20981W        W86208  11.144   7.870  11.387
20982W        W86209  42.392   5.817  12.719
20983W        W86210  37.830  36.491  14.009
20984W        W86211  12.913  36.412  12.428
20985W        W86212  13.929   9.744   0.269
20986W        W86213  22.007   9.403  14.037
20987W        W86214   2.431  37.759   3.140
20988W        W86215   7.457  37.955   3.350
20989W        W86216  38.296   7.009  10.538
20990W        W86217  14.526  14.208  13.119
20991W        W86218  20.448  42.381  14.396
20992W        W86219  12.463  25.561  12.095
20993W        W86220  33.562  29.626   2.157
20994W        W86221  30.890   5.227  10.642
20995W        W86222  32.530  38.057   3.265
20996W        W86223   5.896  29.590  12.579
20997W        W86224   6.606  19.770  13.084
20998W        W86225  20.117  37.067   1.126
20999W        W86226  25.655  33.127  13.632
21000W        W86227  29.529  22.773   2.276
21001W        W86228  37.642  13.871   4.622
21002W        W86229  19.318   9.319  11.171
21003W        W86230   4.728  27.387   3.664
21004W        W86231   3.403  10.424  13.984
21005W        W86232   1.215  26.989   3.104
21006W        W86233  35.078  36.195   5.245
21007W        W86234  44.423  15.962   4.577
21008W        W86235  21.549  41.986  13.864
21009W        W86236   4.973  26.776   2.231
21010W        W86237  38.947  15.833   0.988
21011W        W86238  32.850   2.394   1.413
21012W        W86239   3.800  15.833  13.852
21013W        W86240  23.819  17.415  14.460
21014W        W86241   4.583  36.124   4.231
21015W        W86242  21.909   2.230  13.971
21016W        W86243   4.137  20.080  12.629
21017W        W86244   7.189   7.842  10.700
21018W        W86245   9.247   0.518  13.350
21019W        W86246  10.703  38.084  13.400
21020W        W86247  39.710  22.167  14.407
21021W        W86248  11.366  26.660  12.985
21022W        W86249  39.842  40.763  11.201
21023W        W86250  36.945  19.980   4.185
21024W        W86251   2.913   1.695   3.625
21025W        W86252  39.758  18.673  14.823
21026W        W86253  39.615   8.718  14.309
21027W        W86254  13.638  11.785   2.697
21028W        W86255  14.955   8.530  14.876
21029W        W86256  34.296  23.226  13.908
21030W        W86257  18.686  10.080  14.245
21031W        W86258   5.835  30.976  12.027
21032W        W86259  35.929  22.289  10.673
21033W        W86260  44.261   7.807   0.891
21034W        W86261  39.099   2.701   0.279
21035W        W86262  31.289  18.235  13.320
21036W        W86263   7.715  31.079   3.264
21037W        W86264  14.495  12.562  11.219
21038W        W86265  37.994  31.966   2.487
21039W        W86266  19.709  20.600   1.631
21040W        W86267   3.947  14.936  12.925
21041W        W86268  42.801   4.911   3.784
21042W        W86269  30.874  32.901  14.338
21043W        W86270  32.191  42.337  11.691
21044W        W86271  28.449  36.034  14.457
21045W        W86272  43.442  28.411  12.410
21046W        W86273  41.841   3.776  11.618
21047W        W86274  29.015   5.786  10.841
21048W        W86275  13.237  28.502   3.369
21049W        W86276  41.037  12.886  11.506
21050W        W86277  44.895  14.771   3.280
21051W        W86278   3.251  20.300   0.828
21052W        W86279  10.078   9.691   3.523
21053W        W86280  20.702  17.559   1.001
21054W        W86281  38.076  22.405   3.727
21055W        W86282   8.375  33.107  14.381
21056W        W86283   9.161  42.075   0.861
21057W        W86284  29.035   1.356   0.189
21058W        W86285  26.123  36.265   0.359
21059W        W86286  23.645  42.293   3.315
21060W        W86287  32.194  15.254   3.673
21061W        W86288  27.272  12.179   9.919
21062W        W86289  14.167  43.264   3.742
21063W        W86290  11.421   2.783  12.447
21064W        W86291  23.717   1.416   1.823
21065W        W86292   7.002  36.352  12.592
21066W        W86293  14.879  13.835   4.417
21067W        W86294  42.120  41.908   3.139
21068W        W86295  27.804  18.263   5.000
21069W        W86296   9.028   7.371  10.371
21070W        W86297  21.028  34.976   0.146
21071W        W86298   7.186  39.372   4.071
21072W        W86299   3.960   8.072   3.862
21073W        W86300  21.773  40.776   1.206
21074W        W86301   8.284  42.091   1.354
21075W        W86302   8.208  26.198   2.685
21076W        W86303  33.381  25.203  14.451
21077W        W86304  30.245  30.389   3.179
21078W        W86305  31.314  26.460   1.152
21079W        W86306  43.264   8.948  14.365
21080W        W86307   9.962  31.932  10.676
21081W        W86308   8.772  21.821   3.782
21082W        W86309  37.858  34.456   2.409
21083W        W86310   6.488  14.548   3.221
21084W        W86311  31.898  22.241   4.049
21085W        W86312  37.979  21.136  13.070
21086W        W86313   8.897  25.715   1.499
21087W        W86314  31.411  32.978   1.451
21088W        W86315   7.311  15.830   1.835
21089W        W86316  28.606  39.785   3.869
21090W        W86317  17.584   7.848  13.103
21091W        W86318  22.757  29.130  14.363
21092W        W86319   3.918  23.104  11.743
21093W        W86320  24.760   3.303   0.810
21094W        W86321  33.021  15.777   2.916
21095W        W86322   7.988  25.908  11.237
21096W        W86323  22.185  24.925  14.609
21097W        W86324  18.835  18.318  13.083
21098W        W86325   2.547  38.607   1.383
21099W        W86326  27.282  29.188  14.515
21100W        W86327  40.117  32.520   2.900
21101W        W86328  12.083  44.809   2.551
21102W        W86329  44.467  20.257  13.274
21103W        W86330  39.828  35.335   2.243
21104W        W86331   5.750   4.964   1.263
21105W        W86332   3.905  19.056  14.316
21106W        W86333   7.413  12.542  13.773
21107W        W86334  40.010  18.287   0.566
21108W        W86335  25.047   3.490   0.383
21109W        W86336  31.175  25.064  14.503
21110W        W86337  14.462  23.713   0.852
21111W        W86338   1.705  30.601  11.225
21112W        W86339   6.275  42.653   9.824
21113W        W86340  29.123  23.159  10.516
21114W        W86341  29.553  39.764   1.207
21115W        W86342   4.115   2.333  11.103
21116W        W86343   4.885  39.399  10.607
21117W        W86344  22.433  30.531   3.035
21118W        W86345  19.316  15.327   4.894
21119W        W86346  17.923  15.261  11.903
21120W        W86347  34.535  42.883  14.011
21121W        W86348  12.698  35.059  11.595
21122W        W86349  27.638  19.438   2.382
21123W        W86350  11.568   2.266  11.199
21124W        W86351  22.743   1.885   0.387
21125W        W86352  44.530  32.377  11.188
21126W        W86353  43.134  34.500   4.574
21127W        W86354  24.620   6.312   0.072
21128W        W86355  33.437  11.668   1.214
21129W        W86356  19.622  26.656   3.731
21130W        W86357  17.597   0.859   0.205
21131W        W86358  21.510  29.672   0.230
21132W        W86359  35.383  40.006  13.314
21133W        W86360   2.427  36.901  13.650
21134W        W86361  16.605  42.662   4.595
21135W        W86362  28.528   6.791   0.614
21136W        W86363  27.632  30.675   3.025
21137W        W86364  16.235  29.743   2.381
21138W        W86365  27.341  14.075   1.174
21139W        W86366   9.438  24.659   3.362
21140W        W86367  33.933   4.649   0.030
21141W        W86368   7.372  28.419   0.424
21142W        W86369  22.640   1.096  12.638
21143W        W86370  23.350  42.080  13.188
21144W        W86371  29.016  43.237   0.721
21145W        W86372  28.150   4.545   1.267
21146W        W86373   4.981   3.551  13.947
21147W        W86374   4.175  19.703  11.995
21148W        W86375   1.011  14.405   4.801
21149W        W86376   2.976  13.274  11.456
21150W        W86377  15.849  11.251   2.660
21151W        W86378   0.497  30.654   3.561
21152W        W86379   5.250  26.568  14.954
21153W        W86380  17.627  30.025  12.132
21154W        W86381   7.351  17.558  11.647
21155W        W86382  22.457   5.059   3.251
21156W        W86383   0.599   8.472   2.354
21157W        W86384   3.856  37.756   1.949
21158W        W86385  40.136  37.499  11.793
21159W        W86386   3.328  41.339   3.368
21160W        W86387  40.768   2.405   2.455
21161W        W86388  25.437  11.276   0.773
21162W        W86389   9.765  35.066   2.249
21163W        W86390  33.495  35.412  14.259
21164W        W86391  31.013  33.107   4.238
21165W        W86392  16.709  27.010  12.929
21166W        W86393  39.872  35.968  14.079
21167W        W86394  27.558  28.735  13.754
21168W        W86395  31.206  42.929  14.330
21169W        W86396  13.733  34.243   4.567
21170W        W86397  29.447  39.168  13.446
21171W        W86398  16.572   7.836  13.517
21172W        W86399  11.154  10.749   3.180
21173W        W86400  31.049   8.304  14.970
21174W        W86401  43.557   8.241  14.837
21175W        W86402  11.791  19.781   2.270
21176W        W86403   3.020  14.273   3.212
21177W        W86404  27.547   0.501  10.735
21178W        W86405  35.344  29.766  14.740
21179W        W86406  12.124  14.643   5.411
21180W        W86407  25.946  17.654   4.160
21181W        W86408  22.018  25.618   2.497
21182W        W86409  14.221   8.913   1.425
21183W        W86410  16.652  36.978  14.489
21184W        W86411   9.655   0.441  12.060
21185W        W86412   0.409  22.868  10.224
21186W        W86413   9.494  36.409  14.047
21187W        W86414  20.654  16.048   3.653
21188W        W86415  26.904  12.242  13.666
21189W        W86416   4.900  34.883   2.712
21190W        W86417  35.398   7.575   2.815
21191W        W86418  28.034  26.320   4.063
21192W        W86419  37.148  18.078  10.473
21193W        W86420  16.525  41.677  10.783
21194W        W86421   0.526  23.618   5.648
21195W        W86422  11.335  39.806   4.622
21196W        W86423  13.997  27.950  12.053
21197W        W86424  17.130   3.868  13.246
21198W        W86425  29.183  29.486  13.347
21199W        W86426  14.524  13.861  14.847
21200W        W86427  32.468   3.774  13.775
21201W        W86428  12.667  14.296   0.810
21202W        W86429  32.140  11.247   4.009
21203W        W86430  28.276  41.989   3.227
21204W        W86431  42.453   7.273   2.880
21205W        W86432  41.241  10.743  13.295
21206W        W86433  18.560  24.960   1.638
21207W        W86434  13.602  24.881   0.948
21208W        W86435  39.860  36.287   1.882
21209W        W86436   5.365  39.609  11.728
21210W        W86437  31.578   2.874   4.820
21211W        W86438  33.921   1.644   4.984
21212W        W86439  11.832   4.925   3.081
21213W        W86440  33.699  36.741  12.529
21214W        W86441  35.999  12.950  14.117
21215W        W86442  13.654  24.052  11.058
21216W        W86443  25.096  18.611   5.146
21217W        W86444  14.664  16.108   2.601
21218W        W86445  44.014  15.283   0.418
21219W        W86446   9.745  18.961  10.679
21220W        W86447   1.721   1.865   1.441
21221W        W86448  14.802  33.530  11.449
21222W        W86449  27.640  43.329   1.654
21223W        W86450  16.883  41.938  14.853
21224W        W86451  11.580  23.502  10.695
21225W        W86452   9.436  35.375   1.981
21226W        W86453   6.591   9.404   0.774
21227W        W86454  27.007  16.595   1.880
21228W        W86455  28.791  33.580   3.879
21229W        W86456  13.726  41.865  13.973
21230W        W86457  26.978  38.379  11.336
21231W        W86458   8.760  22.048  12.981
21232W        W86459  18.235  24.428  12.543
21233W        W86460  29.720  40.982  14.967
21234W        W86461  37.967   8.477  11.118
21235W        W86462  14.634   3.029  13.882
21236W        W86463   9.637   4.504   3.857
21237W        W86464  12.366  29.041   2.678
21238W        W86465  31.688   2.642   2.372
21239W        W86466  30.264  14.111  12.411
21240W        W86467  31.367  43.621  12.838
21241W        W86468   1.356  30.920   3.365
21242W        W86469  42.010  35.512  12.456
21243W        W86470  31.754  23.817   5.494
21244W        W86471   2.401  35.988   0.658
21245W        W86472  30.674  44.189  14.023
21246W        W86473  32.098  36.029   0.368
21247W        W86474  15.166  44.540   3.880
21248W        W86475   2.453  14.205   4.518
21249W        W86476  31.432  24.586   2.838
21250W        W86477   8.339  13.807   2.799
21251W        W86478  10.259  33.695  12.097
21252W        W86479  39.421  14.798   1.142
21253W        W86480   5.340  14.197  11.540
21254W        W86481  23.544  27.200  13.156
21255W        W86482   0.550  24.269   3.636
21256W        W86483  43.886  41.999   3.843
21257W        W86484  31.358  19.756  11.595
21258W        W86485  19.185  11.657   2.744
21259W        W86486  39.032  19.065   0.246
21260W        W86487  44.124  22.486   1.486
21261W        W86488  11.426   2.181  13.664
21262W        W86489  22.515  13.380  12.085
21263W        W86490  38.632  32.966   4.498
21264W        W86491  15.722  41.251   0.181
21265W        W86492  26.103  28.005   1.750
21266W        W86493   3.838  34.505  14.503
21267W        W86494  16.009  23.402  12.892
21268W        W86495  41.332  13.536   2.823
21269W        W86496  36.483  44.397   1.256
21270W        W86497   9.048  12.878   4.038
21271W        W86498   4.415  20.193  11.778
21272W        W86499  35.751  22.054  14.913
21273W        W86500  35.329  12.867  12.523
21274W        W86501  20.634   0.978  10.682
21275W        W86502  41.909  25.855   0.391
21276W        W86503  14.792  44.467   1.731
21277W        W86504  18.926  43.712   0.041
21278W        W86505  25.212  30.073   4.371
21279W        W86506   0.846   2.950   0.729
21280W        W86507  29.354  35.280   3.148
21281W        W86508  16.670  16.175   1.725
21282W        W86509  26.820  20.711   2.885
21283W        W86510  15.645  28.106   0.684
21284W        W86511   3.639  39.904   3.689
21285W        W86512  26.726   0.954   1.838
21286W        W86513  11.840  27.216   3.636
21287W        W86514  30.198  36.095   0.819
21288W        W86515  13.254  13.842  14.348
21289W        W86516  24.016  16.580   4.846
21290W        W86517   1.269  10.220  10.743
21291W        W86518  29.535  18.276  14.805
21292W        W86519  27.447  38.292  11.565
21293W        W86520   5.369  20.560   1.298
21294W        W86521  36.474   7.558  12.847
21295W        W86522  25.558  12.159  12.916
21296W        W86523   2.824  44.458  13.839
21297W        W86524  12.293  35.146  10.775
21298W        W86525  11.076  25.470  12.547
21299W        W86526  13.213  14.941  14.286
21300W        W86527   2.627  26.276   1.442
21301W        W86528  31.537  37.954   2.668
21302W        W86529  24.790  10.111   4.881
21303W        W86530  16.010  17.803   4.233
21304W        W86531  10.615  43.990   1.483
21305W        W86532  23.135  36.859   4.302
21306W        W86533  20.580  31.575   3.387
21307W        W86534  39.875  33.509  11.969
21308W        W86535   7.114  38.791   1.310
21309W        W86536  40.244  35.975  12.643
21310W        W86537  39.574  18.410  12.295
21311W        W86538   6.722  18.784   4.515
21312W        W86539  21.415  40.957   4.081
21313W        W86540  28.194   0.302   2.224
21314W        W86541  17.762  17.226  11.964
21315W        W86542  19.911  27.011   0.684
21316W        W86543  15.991   0.692  13.634
21317W        W86544  37.344  19.981   4.591
21318W        W86545  30.278   5.308   4.552
21319W        W86546  40.557  42.891  12.986
21320W        W86547  32.793  40.401   1.873
21321W        W86548  26.659  13.626   2.980
21322W        W86549  27.566  31.554  13.072
21323W        W86550  11.029   8.278   1.423
21324W        W86551  38.060  27.165   3.741
21325W        W86552  32.460  13.979  10.909
21326W        W86553  18.794  40.997  11.016
21327W        W86554  31.927  20.708   4.496
21328W        W86555  28.491   1.942   3.514
21329W        W86556   9.626  29.435   0.712
21330W        W86557  32.654   3.018   4.145
21331W        W86558   9.819  23.757   1.418
21332W        W86559   5.974  41.331  10.586
21333W        W86560  16.197   6.634  12.118
21334W        W86561  36.835  12.184   3.097
21335W        W86562  28.721  17.385   0.208
21336W        W86563  22.313  22.063   4.177
21337W        W86564  31.165  41.783  11.619
21338W        W86565  43.034   7.170   4.515
21339W        W86566  19.633  20.729  14.386
21340W        W86567  13.591  44.504   3.777
21341W        W86568   9.064  13.799   4.883
21342W        W86569  16.358   2.812   0.255
21343W        W86570  24.283  43.083   1.710
21344W        W86571   2.902  43.046  14.404
21345W        W86572  22.177  31.413   4.730
21346W        W86573  18.612  20.556  12.596
21347W        W86574   6.328  32.912  11.932
21348W        W86575  16.632  20.070  11.603
21349W        W86576   4.736  15.608   4.077
21350W        W86577  14.868  35.550  12.326
21351W        W86578   3.680  43.802   2.307
21352W        W86579  30.379  18.316   4.198
21353W        W86580   4.727  24.621   3.509
21354W        W86581  19.990  14.605  12.002
21355W        W86582  40.700   8.741  12.050
21356W        W86583  11.769  27.929  12.566
21357W        W86584  21.772  31.508   2.889
21358W        W86585  26.094  33.157  11.076
21359W        W86586  16.123   1.807  12.091
21360W        W86587  25.932  43.028   4.228
21361W        W86588   8.142   3.183  11.609
21362W        W86589   3.836  21.918   1.963
21363W        W86590  36.866  40.519  11.077
21364W        W86591  39.357  36.839  13.308
21365W        W86592  29.845  19.735   4.108
21366W        W86593  41.393  27.237  12.840
21367W        W86594  44.855   1.519  12.832
21368W        W86595  28.741   4.800   3.681
21369W        W86596   4.377  15.530  14.011
21370W        W86597  35.451  15.600  14.240
21371W        W86598  11.031  17.547  10.727
21372W        W86599  38.840  12.109   4.154
21373W        W86600  40.590   4.261  14.445
21374W        W86601   1.372  31.176  11.118
21375W        W86602   3.248  14.774   2.015
21376W        W86603  29.930  19.861  14.578
21377W        W86604  43.759  38.561  14.453
21378W        W86605  16.134  38.968  10.090
21379W        W86606  17.486  42.011   1.845
21380W        W86607  31.541  20.068  14.519
21381W        W86608   7.901  12.938   2.874
21382W        W86609  30.899   6.442   0.951
21383W        W86610  16.340  40.833  12.043
21384W        W86611  32.910   1.301   1.212
21385W        W86612  23.753   6.074  13.422
21386W        W86613   0.999  29.663   4.098
21387W        W86614  38.171  15.865   3.334
21388W        W86615   5.452  30.000  10.731
21389W        W86616  13.246  19.640   2.675
21390W        W86617   5.178  26.142  10.599
21391W        W86618  11.289  36.505  14.087
21392W        W86619  22.707   9.769   0.707
21393W        W86620  35.188  33.954   1.866
21394W        W86621  15.997   6.766   0.912
21395W        W86622  32.485   2.826  13.365
21396W        W86623  20.822   6.688  14.694
21397W        W86624  19.479   0.300  10.777
21398W        W86625  24.694  34.428   0.671
21399W        W86626  33.426  42.551  12.463
21400W        W86627  38.773  23.003   4.053
21401W        W86628  10.135   1.477   3.137
21402W        W86629  32.176  24.134  14.297
21403W        W86630  38.793  24.284   0.411
21404W        W86631  28.889   2.424   4.020
21405W        W86632  32.352  17.516  13.155
21406W        W86633  43.567  23.748   0.420
21407W        W86634  31.048  35.122  10.724
21408W        W86635  24.657  38.304   0.942
21409W        W86636  38.744  21.099   1.333
21410W        W86637   9.762   4.088  10.761
21411W        W86638  32.166  38.080  12.542
21412W        W86639  23.784  34.035   0.876
21413W        W86640  41.672  27.048  13.716
21414W        W86641  41.938   5.773  10.677
21415W        W86642  14.472  38.650  10.808
21416W        W86643  21.944  16.800  11.435
21417W        W86644  27.027   8.417  14.470
21418W        W86645  38.523  43.808   0.748
21419W        W86646  17.075  15.657   1.246
21420W        W86647  34.962  14.085   5.186
21421W        W86648   0.472  17.711  12.662
21422W        W86649  18.355  43.368  12.577
21423W        W86650  15.659  30.154  10.762
21424W        W86651   1.336  31.165   4.843
21425W        W86652  18.548  31.553   2.759
21426W        W86653  35.461   1.835  14.964
21427W        W86654  10.573   0.355  13.017
21428W        W86655  14.413  43.814  11.104
21429W        W86656   8.685  39.699   0.585
21430W        W86657  33.915  22.934   4.929
21431W        W86658  11.620  23.823   4.356
21432W        W86659   8.230   8.155  13.861
21433W        W86660  22.942  18.847   4.031
21434W        W86661  29.235   9.162  11.571
21435W        W86662  41.275  26.649  12.133
21436W        W86663  40.835  40.014  13.823
21437W        W86664   2.696  43.450  12.116
21438W        W86665  30.617  18.263   3.749
21439W        W86666  14.332  23.662   0.322
21440W        W86667  40.363  19.351  12.487
21441W        W86668  36.439  35.538  13.700
21442W        W86669   2.100   2.687   4.880
21443W        W86670  30.820  20.231  13.069
21444W        W86671   3.527  18.583   4.072
21445W        W86672  25.159  15.781   4.488
21446W        W86673  44.897  34.613  14.540
21447W        W86674  35.491  41.711  12.577
21448W        W86675  13.824   4.161  14.507
21449W        W86676   3.437   5.911  12.058
21450W        W86677  15.636  15.093   2.396
21451W        W86678  29.542  12.184  11.212
21452W        W86679  19.640  43.785   1.924
21453W        W86680  11.168  16.573   3.603
21454W        W86681  23.513  29.527  14.682
21455W        W86682  19.967  17.491  13.051
21456W        W86683  35.558  44.476   4.665
21457W        W86684  23.035  11.027  14.909
21458W        W86685  18.858   1.209   3.579
21459W        W86686  24.582  20.386  12.040
21460W        W86687  22.351   9.419   4.642
21461W        W86688  20.747  38.261  14.956
21462W        W86689  23.202  43.460  10.733
21463W        W86690  37.095  23.253  13.456
21464W        W86691  43.038  33.377   1.254
21465W        W86692  28.804  35.013  10.318
21466W        W86693  41.108  13.737  11.877
21467W        W86694  27.932  40.063  13.906
21468W        W86695  31.637   6.792  10.748
21469W        W86696  12.423   9.460   3.740
21470W        W86697  36.573  15.751   0.755
21471W        W86698  41.194  15.370   1.768
21472W        W86699  15.358  32.931   1.703
21473W        W86700  40.081  13.108   3.625
21474W        W86701   1.444  30.478  14.542
21475W        W86702   7.586  30.601  14.727
21476W        W86703  13.923  39.454  11.685
21477W        W86704  13.486  18.070  14.348
21478W        W86705  38.112  44.887  12.350
21479W        W86706  44.185  36.788  13.119
21480W        W86707  14.543  15.853  12.512
21481W        W86708   9.950  20.880  13.821
21482W        W86709  24.145  33.355   5.045
21483W        W86710   5.239  11.813   4.756
21484W        W86711  27.511  26.593  12.481
21485W        W86712  10.595  26.847   0.624
21486W        W86713   2.948  17.131  10.503
21487W        W86714  19.338  36.503   0.806
21488W        W86715   8.405   6.298   3.214
21489W        W86716  43.769   0.327   4.332
21490W        W86717   1.686   7.271  10.684
21491W        W86718  36.095   6.238   0.077
21492W        W86719  26.227  13.382  13.999
21493W        W86720  38.322  26.574   3.012
21494W        W86721  39.952  44.524   2.406
21495W        W86722   5.122  44.923   2.914
21496W        W86723   5.891  22.481  13.972
21497W        W86724   4.417   1.922  10.950
21498W        W86725  41.394   6.800  11.898
21499W        W86726  41.832  25.362   0.195
21500W        W86727  36.971  29.895  13.470
21501W        W86728   1.977  23.895  11.182
21502W        W86729  22.147  30.101   3.165
21503W        W86730  11.477  12.844  12.537
21504W        W86731  16.549  16.213   3.999
21505W        W86732  34.340   0.898  13.101
21506W        W86733  39.338   8.124  13.801
21507W        W86734  32.154  15.326   1.872
21508W        W86735  41.292   8.912   4.110
21509W        W86736  23.954  20.993   0.506
21510W        W86737  44.091  18.167   4.947
21511W        W86738  41.362  23.383   4.505
21512W        W86739  18.961   5.886  12.978
21513W        W86740  14.143   3.395   4.594
21514W        W86741  13.744  28.021   3.908
21515W        W86742   3.042  16.059  11.154
21516W        W86743  15.266   3.317   3.198
21517W        W86744  10.947   6.877   4.140
21518W        W86745  42.762  22.679   0.920
21519W        W86746  31.623   2.812   4.310
21520W        W86747  23.213  19.614  14.462
21521W        W86748  27.613   6.308   3.320
21522W        W86749  21.798  31.345   4.075
21523W        W86750  29.060  18.175   3.302
21524W        W86751  44.243  27.058  13.523
21525W        W86752   4.748  42.001  11.601
21526W        W86753  12.347  30.023   3.735
21527W        W86754  26.450  44.734   2.378
21528W        W86755  15.078  44.522  12.104
21529W        W86756  11.831  40.013   4.655
21530W        W86757  17.693  10.280  13.781
21531W        W86758  37.364  20.243  11.170
21532W        W86759  41.277  10.836  11.615
21533W        W86760   6.946  38.704  14.358
21534W        W86761  20.236  13.312   2.777
21535W        W86762   3.230  39.054   1.798
21536W        W86763  23.515  29.576   1.775
21537W        W86764  40.443  37.977   1.749
21538W        W86765   0.039  43.787  13.461
21539W        W86766   7.710  19.411   2.900
21540W        W86767  15.300  20.767  13.478
21541W        W86768  17.586  26.723   2.138
21542W        W86769   3.616   8.660   4.205
21543W        W86770   0.494   9.251   1.262
21544W        W86771   3.332   2.460   3.212
21545W        W86772   0.021   9.442  13.908
21546W        W86773  41.375  10.081  14.109
21547W        W86774  29.823   7.328   3.871
21548W        W86775  24.654  40.405   1.793
21549W        W86776  41.591  25.102  13.001
21550W        W86777  32.019   7.641   2.695
21551W        W86778   6.793  30.320  13.527
21552W        W86779  26.479   2.506   0.185
21553W        W86780  13.764  20.060   0.540
21554W        W86781  36.894  16.070   3.230
21555W        W86782  33.870  37.951  11.139
21556W        W86783  41.988  37.174  14.953
21557W        W86784  14.899  44.960  13.575
21558W        W86785  33.403  17.782   4.094
21559W        W86786  28.720  29.695  10.983
21560W        W86787  23.609  11.067   1.880
21561W        W86788   1.096  21.255   4.010
21562W        W86789  15.741  29.649  10.811
21563W        W86790   6.831  39.558   3.382
21564W        W86791  42.302  37.534  10.951
21565W        W86792   7.653   8.175   1.289
21566W        W86793  31.155  35.299   4.060
21567W        W86794  29.203  41.977   0.376
21568W        W86795  18.198  18.284   1.995
21569W        W86796  13.890  30.054  12.004
21570W        W86797  13.538  23.991   2.774
21571W        W86798  28.455  20.842   2.817
21572W        W86799   1.772  28.401  12.585
21573W        W86800  42.010  36.022   2.102
21574W        W86801  33.799  17.730   2.818
21575W        W86802  26.019  22.967   3.453
21576W        W86803  19.293  11.489  11.678
21577W        W86804  39.284  35.059   4.083
21578W        W86805  38.435  21.958   1.705
21579W        W86806  41.505   2.011   4.237
21580W        W86807   2.006  44.897  11.039
21581W        W86808   6.507  44.339   0.884
21582W        W86809   7.540   1.333   0.326
21583W        W86810  34.634  16.184   4.248
21584W        W86811  20.551  31.295  12.071
21585W        W86812  21.512  10.178   1.849
21586W        W86813   2.175  31.680   4.611
21587W        W86814  28.608   3.205   4.308
21588W        W86815  34.750  40.608  10.028
21589W        W86816  36.391  24.616   0.323
21590W        W86817  21.050  42.791   4.454
21591W        W86818   8.615   7.382   3.363
21592W        W86819  42.040  37.104  11.689
21593W        W86820   4.811  23.533   5.363
21594W        W86821   4.054  16.718   9.671
21595W        W86822  35.877   2.854  14.435
21596W        W86823  15.158  36.502   2.509
21597W        W86824  16.895  42.954   1.494
21598W        W86825   4.391  35.590   1.074
21599W        W86826  29.460  10.721  13.083
21600W        W86827  10.630  23.873  13.748
21601W        W86828  43.878  40.469   0.795
21602W        W86829  19.720  39.621   0.443
21603W        W86830  27.454  28.499  11.048
21604W        W86831  21.668  27.558   2.473
21605W        W86832  13.650  12.467   0.453
21606W        W86833  16.076  18.209  13.839
21607W        W86834  12.072   6.776  14.469
21608W        W86835   9.861  37.177   3.357
21609W        W86836   9.107  44.355   4.646
21610W        W86837  25.253  36.510  10.867
21611W        W86838   8.860   2.416   1.307
21612W        W86839   0.175  38.599  13.009
21613W        W86840   0.412   7.309   1.485
21614W        W86841  43.762   5.750   3.824
21615W        W86842  41.724  12.373   4.177
21616W        W86843   7.321  20.294  13.634
21617W        W86844   3.217  27.342  11.943
21618W        W86845  39.801  41.926   3.696
21619W        W86846  20.812  32.046   4.520
21620W        W86847  23.005  38.119   0.451
21621W        W86848   3.408  27.908  13.835
21622W        W86849  13.178   0.742  14.497
21623W        W86850  11.450  36.773  14.508
21624W        W86851  30.811  17.716   2.548
21625W        W86852  39.747  28.137   0.866
21626W        W86853   3.664  21.265  11.465
21627W        W86854  34.337   8.382   4.506
21628W        W86855  16.097  41.367  12.564
21629W        W86856  24.305   5.701   2.733
21630W        W86857  31.113  17.177   1.409
21631W        W86858  37.486   8.938   1.196
21632W        W86859  26.462  14.431  12.814
21633W        W86860  30.230  20.063  10.790
21634W        W86861  21.689  27.245   0.221
21635W        W86862   8.161   3.474  14.072
21636W        W86863  22.310  28.732   4.348
21637W        W86864  17.399  23.558   0.906
21638W        W86865  29.213  10.189   1.239
21639W        W86866  15.137  40.518   4.113
21640W        W86867   1.064  30.682   2.678
21641W        W86868  44.986  13.535  14.884
21642W        W86869   7.990   0.398   9.792
21643W        W86870   8.772   2.918  13.619
21644W        W86871  39.385  28.765   3.982
21645W        W86872  12.341  44.291   3.224
21646W        W86873  38.400  38.741  14.918
21647W        W86874  33.704   9.616   1.282
21648W        W86875  23.209  43.751  12.971
21649W        W86876  37.866   2.667   1.894
21650W        W86877  36.786   1.346  14.769
21651W        W86878  43.163  16.682   0.802
21652W        W86879  22.848   6.632  10.817
21653W        W86880  29.205   9.444  12.014
21654W        W86881  25.608  29.727   2.595
21655W        W86882   3.311  13.051  10.657
21656W        W86883  20.040  34.939   3.864
21657W        W86884  18.822  43.886   3.725
21658W        W86885  10.833  33.457   1.437
21659W        W86886  18.462  24.210   2.367
21660W        W86887  18.346  15.356  13.100
21661W        W86888   1.183  40.294   2.963
21662W        W86889  42.496   2.224   0.510
21663W        W86890  15.214  40.746   0.976
21664W        W86891  41.710  44.739  12.909
21665W        W86892  27.690  22.978   2.739
21666W        W86893   0.220   5.845  13.964
21667W        W86894  20.267   1.235  10.967
21668W        W86895  12.117   0.844   2.695
21669W        W86896   2.807  13.847  14.902
21670W        W86897  27.119   6.829   3.947
21671W        W86898  25.162  23.475   1.158
21672W        W86899  41.857  29.602   0.045
21673W        W86900   9.845  34.961   1.296
21674W        W86901   3.729  36.709  14.872
21675W        W86902   5.883  18.486   3.577
21676W        W86903  14.378  42.759  13.565
21677W        W86904  18.031  31.146  10.691
21678W        W86905  39.957  38.196   1.433
21679W        W86906  18.277  28.914  14.867
21680W        W86907  14.806  23.557   2.381
21681W        W86908  10.721  34.972   4.160
21682W        W86909  37.447  34.387  13.225
21683W        W86910  37.892  29.863  10.594
21684W        W86911  31.406  17.741  13.385
21685W        W86912  26.589  37.114   2.809
21686W        W86913  21.555  31.001  10.661
21687W        W86914   9.013  31.559  14.380
21688W        W86915   8.795   5.645  12.861
21689W        W86916  25.977   7.269   2.252
21690W        W86917  43.167  15.921  14.370
21691W        W86918   2.934  18.218   4.711
21692W        W86919  12.277  32.355  14.447
21693W        W86920  23.191   6.302   4.379
21694W        W86921  11.571  40.575   0.625
21695W        W86922   0.873   2.692  10.640
21696W        W86923  28.039  43.400   1.973
21697W        W86924  22.243  18.788   3.257
21698W        W86925   3.229   4.669  13.356
21699W        W86926  30.133  33.590  13.383
21700W        W86927  12.723   7.737   3.681
21701W        W86928   6.458  43.423  12.094
21702W        W86929  38.569  13.268  11.440
21703W        W86930  26.509  31.595  11.949
21704W        W86931  22.116  25.049   4.059
21705W        W86932  12.334  36.505  15.000
21706W        W86933  32.900  12.837   3.172
21707W        W86934  19.122  42.778  13.859
21708W        W86935  11.236  39.843   0.807
21709W        W86936   8.416   1.194  14.017
21710W        W86937   6.684   1.148  10.009
21711W        W86938  28.211  44.477   2.762
21712W        W86939  41.473  18.892   2.740
21713W        W86940   3.969  14.044  12.932
21714W        W86941   4.711  44.465  10.705
21715W        W86942  27.011  32.556   4.600
21716W        W86943  27.909  40.535   4.256
21717W        W86944  10.279  23.183   1.382
21718W        W86945  25.093  13.594  10.658
21719W        W86946  11.887   5.424   4.344
21720W        W86947   3.471  21.537  12.205
21721W        W86948  33.579  11.250   0.305
21722W        W86949   3.405  30.162   3.544
21723W        W86950  39.536   8.667   3.135
21724W        W86951  29.508   9.192   2.761
21725W        W86952  21.157   8.500   2.258
21726W        W86953  25.559  18.211   3.671
21727W        W86954  18.777  38.935   4.691
21728W        W86955  14.154  17.105   4.075
21729W        W86956   5.426  15.317  12.882
21730W        W86957  26.332  23.783  11.599
21731W        W86958  35.481   1.861  12.040
21732W        W86959  11.440   4.529  10.605
21733W        W86960  32.483   7.682  14.315
21734W        W86961  14.324  29.387  10.626
21735W        W86962   0.785  11.011   0.226
21736W        W86963   0.889  35.912   2.165
21737W        W86964  12.048  25.934  12.952
21738W        W86965  41.339  33.337  12.092
21739W        W86966  32.479  19.324  14.405
21740W        W86967   7.092  35.219  11.166
21741W        W86968   4.833  39.418  13.856
21742W        W86969   1.692  30.368  12.274
21743W        W86970   1.331  26.290   4.548
21744W        W86971  24.967   1.922   1.770
21745W        W86972   6.763  23.649  13.078
21746W        W86973  37.095  39.362   1.806
21747W        W86974  13.928  13.777   0.739
21748W        W86975   2.905  36.867  14.865
21749W        W86976  30.914  26.454  13.927
21750W        W86977  18.259  18.066  13.574
21751W        W86978  28.644  36.001  13.979
21752W        W86979  22.824  11.686  13.413
21753W        W86980  38.304  15.350   1.793
21754W        W86981  15.330  17.090   1.895
21755W        W86982  41.035  33.966   1.376
21756W        W86983  15.188  12.454  13.591
21757W        W86984  11.298  18.956  11.040
21758W        W86985  39.643  19.742  11.103
21759W        W86986  29.524   6.831  12.872
21760W        W86987   7.419   8.664  12.850
21761W        W86988  33.406  34.457  13.883
21762W        W86989  36.848  17.812   1.786
21763W        W86990   9.089  21.097   4.094
21764W        W86991  13.808  36.564  11.966
21765W        W86992   6.805   8.598   1.205
21766W        W86993  29.176   7.921   1.311
21767W        W86994  19.269  31.944   3.313
21768W        W86995  44.420  36.728   2.429
21769W        W86996   3.281  26.438   0.964
21770W        W86997  28.612  23.201   1.304
21771W        W86998  17.276  19.960   3.382
21772W        W86999  17.742  43.246   2.267
21773W        W87000  38.984  22.582  11.043
21774W        W87001  35.778   7.255   1.977
21775W        W87002  30.972  24.796   0.337
21776W        W87003  28.682   9.743   1.682
21777W        W87004  23.633  24.593   4.276
21778W        W87005  29.222   5.013   3.204
21779W        W87006  10.112  23.268   2.235
21780W        W87007  36.202   0.853   4.514
21781W        W87008  25.123  34.632  14.972
21782W        W87009  15.788  34.146  13.851
21783W        W87010  27.119  17.243  14.628
21784W        W87011  41.499  30.111   4.749
21785W        W87012  15.225  36.268  13.172
21786W        W87013  28.913  31.180  13.597
21787W        W87014   2.996  38.441   0.940
21788W        W87015   7.870   6.364   3.667
21789W        W87016  32.673  26.522  12.550
21790W        W87017  35.417  17.085  12.802
21791W        W87018   6.548  30.350   0.347
21792W        W87019  25.643   0.395   9.873
21793W        W87020  31.484  10.952  14.903
21794W        W87021  32.933   3.953   3.262
21795W        W87022  27.191  21.071   4.805
21796W        W87023  42.765  44.804   2.303
21797W        W87024  31.815   7.885   5.096
21798W        W87025  16.484  16.355   0.241
21799W        W87026  27.485   7.344   1.468
21800W        W87027  44.231  40.277  10.719
21801W        W87028   7.484   0.958   3.215
21802W        W87029  23.942  30.498  11.253
21803W        W87030  13.750  14.000  14.374
21804W        W87031  32.404  16.071   0.042
21805W        W87032   9.679   1.580  14.814
21806W        W87033  30.578  29.014   2.580
21807W        W87034   3.818  14.168   3.734
21808W        W87035  26.907  22.714   0.409
21809W        W87036  27.903  34.101  12.055
21810W        W87037  40.896   8.053   2.370
21811W        W87038   7.254  13.816  11.528
21812W        W87039  23.811  16.621  13.769
21813W        W87040  39.891  39.015   2.605
21814W        W87041  30.695   8.362  12.156
21815W        W87042  36.421  27.064  14.257
21816W        W87043  27.958  13.366   9.376
21817W        W87044   0.302   2.794  12.651
21818W        W87045  18.113  19.772  12.060
21819W        W87046  14.383  14.184   3.796
21820W        W87047  19.704  19.077  11.569
21821W        W87048   7.648  15.421   2.739
21822W        W87049  31.003   2.944  13.186
21823W        W87050   7.267  29.615  11.597
21824W        W87051   2.325  21.182  13.567
21825W        W87052  12.753  21.789  12.899
21826W        W87053  14.294  28.899  12.066
21827W        W87054  44.032  29.212   0.327
21828W        W87055   7.484   2.001   1.327
21829W        W87056   2.537  43.816   0.339
21830W        W87057  13.063  21.797  11.674
21831W        W87058  30.426  22.094   4.187
21832W        W87059  30.653  10.707  13.417
21833W        W87060  32.418  23.715   0.380
21834W        W87061   6.478   7.926  14.716
21835W        W87062  21.485  23.682  13.001
21836W        W87063   2.934  33.270   1.243
21837W        W87064  19.988   3.202  14.308
21838W        W87065  35.213  29.085   3.806
21839W        W87066   0.257  31.955   1.776
21840W        W87067  44.366   1.886   4.647
21841W        W87068   5.787  41.819   1.192
21842W        W87069   0.826  15.598   0.891
21843W        W87070  36.129  18.953   3.689
21844W        W87071  14.683   2.414   3.437
21845W        W87072  13.746  41.492   2.414
21846W        W87073  26.043  37.466  12.846
21847W        W87074  19.563  19.661  14.041
21848W        W87075   7.224  40.503  12.786
21849W        W87076  11.900  25.260   1.255
21850W        W87077  22.545   6.873  11.248
21851W        W87078  18.562  17.205   0.522
21852W        W87079  23.732   0.282  12.419
21853W        W87080  40.806  43.352   0.825
21854W        W87081  18.228  44.400   0.409
21855W        W87082  28.265   1.532   3.251
21856W        W87083  35.659  10.900   2.021
21857W        W87084  29.157  10.630   0.317
21858W        W87085  17.413  27.586  11.282
21859W        W87086   7.411  42.545  12.057
21860W        W87087   3.089  28.208   5.422
21861W        W87088  32.010  36.209  12.776
21862W        W87089  43.059  41.603   3.646
21863W        W87090  35.841   6.856   0.777
21864W        W87091  25.722  32.296  10.807
21865W        W87092  13.820   7.328  13.006
21866W        W87093  10.157   1.194  10.251
21867W        W87094  24.586  12.871   2.860
21868W        W87095  23.017  18.563  13.775
21869W        W87096  30.474  31.706   0.885
21870W        W87097  44.274  29.521  11.558
21871W        W87098   8.860  41.945  11.155
21872W        W87099   6.247  25.165  12.133
21873W        W87100  39.015  12.596   4.110
21874W        W87101  23.787  12.594   1.156
21875W        W87102  23.946   9.625  14.410
21876W        W87103  43.828   2.270  12.013
21877W        W87104  33.975  42.892   3.821
21878W        W87105  41.806  17.549  13.963
21879W        W87106  28.386  12.250  14.175
21880W        W87107  44.273  43.377   3.765
21881W        W87108  21.201  37.599  11.361
21882W        W87109  33.801  11.114   4.095
21883W        W87110  35.010  15.392   3.665
21884W        W87111  38.647  12.424   3.179
21885W        W87112  31.585   5.223  14.032
21886W        W87113   1.598  20.510   0.043
21887W        W87114  38.958  27.294  13.458
21888W        W87115  32.459  25.152   2.944
21889W        W87116   6.970  28.243   2.580
21890W        W87117  30.148  15.037  14.652
21891W        W87118   4.956   3.221   9.892
21892W        W87119   6.992  44.385   1.035
21893W        W87120  14.715  40.015   1.030
21894W        W87121  40.850  18.841  10.389
21895W        W87122   5.192   4.049  13.916
21896W        W87123  29.508  14.081   0.935
21897W        W87124   5.686   9.170   2.966
21898W        W87125  12.049   1.423   0.772
21899W        W87126  24.293   3.422   2.872
21900W        W87127   2.410  21.932  13.790
21901W        W87128  15.026  17.977   1.296
21902W        W87129  11.161  14.621  13.967
21903W        W87130   2.155  32.645  10.828
21904W        W87131  33.673  24.480  14.894
21905W        W87132  39.971  43.851  11.836
21906W        W87133  16.688  21.748   1.973
21907W        W87134  27.493   3.889  11.131
21908W        W87135  23.708   8.828  14.030
21909W        W87136  13.085  25.431  13.836
21910W        W87137  39.299   8.390   1.751
21911W        W87138  13.632  28.462   1.848
21912W        W87139   5.308  22.433   3.083
21913W        W87140  31.543  37.797  14.334
21914W        W87141  19.046   7.130  12.593
21915W        W87142  25.265  26.584  12.000
21916W        W87143  13.888  14.117   3.704
21917W        W87144  34.612  24.053  11.429
21918W        W87145   2.838  33.645   4.446
21919W        W87146  24.110  20.308  13.241
21920W        W87147   1.886  34.155  13.346
21921W        W87148  30.374  33.328  10.683
21922W        W87149  35.517  21.942   1.728
21923W        W87150  38.282  19.590  13.153
21924W        W87151  44.700  12.374   1.817
21925W        W87152  38.324   8.391  14.462
21926W        W87153  27.880  39.281  12.566
21927W        W87154  32.448  43.938  13.778
21928W        W87155  10.193  35.879  14.277
21929W        W87156  21.737  11.831   2.117
21930W        W87157  33.532  30.059   2.839
21931W        W87158  39.602  26.369   2.893
21932W        W87159   8.001  40.727   3.906
21933W        W87160  23.342  43.596  13.857
21934W        W87161   2.662  23.643  12.670
21935W        W87162  39.403  32.096   3.426
21936W        W87163  38.786   3.796   3.123
21937W        W87164  19.514  24.676   1.299
21938W        W87165  39.564  32.985  12.550
21939W        W87166  17.791  35.504   1.317
21940W        W87167  41.553  23.176   1.216
21941W        W87168  14.710  32.124  14.232
21942W        W87169  20.783  32.345  11.567
21943W        W87170  37.814   4.403  13.284
21944W        W87171  36.082  43.833   5.069
21945W        W87172  21.195  11.905  14.338
21946W        W87173  44.334  11.766  13.669
21947W        W87174   3.333  40.442  12.686
21948W        W87175  41.135  42.334  12.460
21949W        W87176  39.494  42.859   2.120
21950W        W87177  10.182  12.425  13.881
21951W        W87178   2.931   7.326   3.446
21952W        W87179  33.975  26.202  10.691
21953W        W87180   0.020  30.221   0.717
21954W        W87181  21.767  39.638  11.085
21955W        W87182   5.727  29.752  11.104
21956W        W87183  26.191   0.089  11.192
21957W        W87184  37.265  28.533   0.486
21958W        W87185   6.752  11.517   0.384
21959W        W87186  34.370  40.155   1.065
21960W        W87187   1.888  26.680   1.090
21961W        W87188   7.423  38.964  12.159
21962W        W87189   8.750  41.514   3.794
21963W        W87190   8.775  27.497   0.214
21964W        W87191   0.140  30.229   2.746
21965W        W87192  13.140  18.577   0.064
21966W        W87193   0.532  21.609   3.996
21967W        W87194  17.550   0.060  12.072
21968W        W87195   9.908  13.271   4.211
21969W        W87196  33.509  25.677  12.948
21970W        W87197   6.147  14.430   2.815
21971W        W87198  23.513  35.753  12.577
21972W        W87199  14.258  42.377   2.625
21973W        W87200   1.745  16.225  12.615
21974W        W87201  23.883  17.688   3.079
21975W        W87202  35.448  22.285   0.300
21976W        W87203  31.343  34.609   0.384
21977W        W87204  21.839  22.446   3.291
21978W        W87205  25.146  44.732  12.800
21979W        W87206  12.491   3.216   2.831
21980W        W87207  26.610  16.119   4.914
21981W        W87208  11.142  15.307  10.983
21982W        W87209  37.820  43.352   0.480
21983W        W87210  41.550  32.360   3.868
21984W        W87211   7.856  38.349  12.541
21985W        W87212  27.397  26.704   3.620
21986W        W87213  11.475   1.990   0.935
21987W        W87214  29.632  42.758  13.321
21988W        W87215  22.893  36.092  11.978
21989W        W87216  14.396   9.327  12.741
21990W        W87217  42.439   8.404   4.939
21991W        W87218  11.232  14.122   1.703
21992W        W87219  22.718  24.412   0.420
21993W        W87220  44.950  39.714  11.832
21994W        W87221   2.962  24.660   3.581
21995W        W87222   6.959  40.295   2.336
21996W        W87223  20.269  11.044   1.276
21997W        W87224  19.223  39.463   0.410
21998W        W87225  10.887   5.244   4.575
21999W        W87226  42.002  36.722   1.252
22000W        W87227  42.227  33.400   4.228
22001W        W87228  37.297  32.126   1.385
22002W        W87229   5.044  30.529   4.129
22003W        W87230  24.680  25.043   0.440
22004W        W87231   8.204  36.193  14.384
22005W        W87232   7.623  10.928   1.898
22006W        W87233  43.978  36.839   3.924
22007W        W87234   0.877  39.243   4.904
22008W        W87235   4.229   5.659  11.666
22009W        W87236   7.165  21.677   3.241
22010W        W87237   8.306  16.367   5.685
22011W        W87238  20.543  24.817   2.540
22012W        W87239  29.856   6.246  13.810
22013W        W87240  10.570  14.450   2.849
22014W        W87241   1.799  17.257   4.099
22015W        W87242  32.737  26.478   0.269
22016W        W87243  27.947  28.579  11.012
22017W        W87244  16.307   6.314   1.014
22018W        W87245  12.753  11.150  11.043
22019W        W87246  23.529   6.478  13.702
22020W        W87247  12.648  14.805   0.441
22021W        W87248   8.933   8.636  14.937
22022W        W87249   7.796  19.835   5.119
22023W        W87250   1.766   2.647  13.351
22024W        W87251  20.740  44.964   3.686
22025W        W87252  34.450  38.786  14.909
22026W        W87253  17.100   8.341   0.897
22027W        W87254  30.575  34.539   5.107
22028W        W87255  41.077  30.071   3.014
22029W        W87256  20.639  30.234   3.408
22030W        W87257   9.374  32.544   5.499
22031W        W87258  30.137   1.820   0.003
22032W        W87259  43.206  29.352  12.954
22033W        W87260  21.861  42.895   5.024
22034W        W87261  31.427  18.764  12.547
22035W        W87262  21.263  23.459  13.428
22036W        W87263  37.903  43.293  13.983
22037W        W87264  38.777   4.324   3.263
22038W        W87265  41.942  43.795   4.651
22039W        W87266   9.073   5.597  11.329
22040W        W87267  14.073  22.486   4.450
22041W        W87268   0.756   4.122   2.710
22042W        W87269  39.400  26.010  13.085
22043W        W87270  40.486  11.388   3.539
22044W        W87271  18.162   1.750  13.851
22045W        W87272   3.196  28.671   2.621
22046W        W87273   1.212  42.326  14.003
22047W        W87274  40.612  30.435  11.552
22048W        W87275  21.329  36.073   4.558
22049W        W87276  21.481  18.178   0.720
22050W        W87277   5.209   9.449   1.849
22051W        W87278  28.618   5.394   4.076
22052W        W87279  26.993  16.598  11.475
22053W        W87280   4.353  14.103   3.541
22054W        W87281  21.278  40.733  13.591
22055W        W87282  32.055  37.496  13.473
22056W        W87283  10.161   0.513  12.756
22057W        W87284  36.871  18.038  11.923
22058W        W87285  26.523  11.105  10.700
22059W        W87286   2.819  15.144   4.022
22060W        W87287  10.069   2.335  11.628
22061W        W87288  31.000  17.236   2.386
22062W        W87289  25.040  38.824   4.050
22063W        W87290   3.684  11.609  11.606
22064W        W87291  23.701  42.815  12.473
22065W        W87292   4.759  27.672  11.648
22066W        W87293  25.544  15.361   0.760
22067W        W87294  27.989  32.499  12.943
22068W        W87295  20.883  18.584   1.467
22069W        W87296  23.564  32.685  12.743
22070W        W87297  13.241  42.122   0.810
22071W        W87298  30.126  14.983  12.425
22072W        W87299  26.924  16.744  13.319
22073W        W87300  38.627   5.045   9.492
22074W        W87301  26.607  31.075   4.288
22075W        W87302  12.062  29.206  12.391
22076W        W87303  14.106  15.817  11.653
22077W        W87304  44.236  42.806  11.251
22078W        W87305   5.832  37.904   4.325
22079W        W87306  24.734   9.899  11.308
22080W        W87307  32.124  25.749   1.833
22081W        W87308   7.886  27.598  13.220
22082W        W87309  10.266  29.155   2.855
22083W        W87310  44.286  30.059  13.836
22084W        W87311  31.423  15.905   1.772
22085W        W87312  21.657  38.319  14.378
22086W        W87313   3.498   9.697  10.973
22087W        W87314  24.418  12.189  14.262
22088W        W87315  16.338   9.197  12.270
22089W        W87316   8.662   4.216  14.082
22090W        W87317   9.107  11.893   5.059
22091W        W87318   4.385  20.683   4.554
22092W        W87319  28.819  16.716  14.450
22093W        W87320  33.960  36.385   5.905
22094W        W87321  30.365  10.965   3.238
22095W        W87322  26.634  18.835   3.554
22096W        W87323   4.324  29.015  14.715
22097W        W87324  14.742  20.777   4.214
22098W        W87325  14.311  32.647   2.366
22099W        W87326  30.752  17.915   5.168
22100W        W87327  44.731  34.423   0.031
22101W        W87328  11.158  42.905   4.168
22102W        W87329  17.775  39.610  14.574
22103W        W87330  19.768  12.338   2.800
22104W        W87331  30.652   7.722   4.585
22105W        W87332  41.591   7.165  11.560
22106W        W87333  14.341  26.557   4.135
22107W        W87334  33.711  15.564   1.338
22108W        W87335  16.459  28.008  12.111
22109W        W87336  43.473   0.975  14.856
22110W        W87337  28.000  28.122  11.225
22111W        W87338  41.096  22.919   3.764
22112W        W87339  35.540  16.706   3.227
22113W        W87340  33.563   4.131  12.101
22114W        W87341  21.952  13.175  11.218
22115W        W87342  21.704  14.755  11.451
22116W        W87343  26.504  42.740  11.112
22117W        W87344  39.608  17.675   3.337
22118W        W87345   0.333  17.995  11.996
22119W        W87346  14.169   2.320  14.385
22120W        W87347  35.865   8.345   1.860
22121W        W87348  42.067  32.462   4.737
22122W        W87349  27.501  37.570  13.114
22123W        W87350  30.707  12.111   1.886
22124W        W87351  25.352  42.230   4.210
22125W        W87352  20.215  13.830  14.010
22126W        W87353   1.258  39.448   2.227
22127W        W87354  35.864   8.360   2.773
22128W        W87355  19.666  28.670   0.399
22129W        W87356  26.491  30.001  13.382
22130W        W87357  15.585   8.057   0.374
22131W        W87358  38.752   3.974   5.412
22132W        W87359  17.237  16.716   0.531
22133W        W87360  38.248  19.871   0.332
22134W        W87361  38.304  36.587  12.532
22135W        W87362  21.284  21.580  11.098
22136W        W87363  32.347  13.321   0.789
22137W        W87364  13.502   8.737   4.712
22138W        W87365  16.255  13.972   3.717
22139W        W87366  32.909  41.925  11.187
22140W        W87367  28.211  27.963   0.505
22141W        W87368   1.284  34.948   2.145
22142W        W87369   4.347  17.119   4.970
22143W        W87370  30.776  15.787  12.969
22144W        W87371  23.590  14.612   2.640
22145W        W87372  21.270   5.334  12.919
22146W        W87373  14.784  15.523   4.765
22147W        W87374  26.054  14.140   1.899
22148W        W87375  34.703  40.746  13.792
22149W        W87376  41.184  14.712   0.877
22150W        W87377  10.281  19.671   1.875
22151W        W87378  42.811  13.402  11.990
22152W        W87379  30.085  44.739   4.326
22153W        W87380   2.552  11.342   1.362
22154W        W87381   4.858   5.385  13.184
22155W        W87382  33.679   6.387  12.063
22156W        W87383  25.242  29.482  10.708
22157W        W87384  42.383  36.359  14.909
22158W        W87385   9.378  17.260  12.027
22159W        W87386   2.136  14.499   4.802
22160W        W87387  28.053  10.283   4.520
22161W        W87388  44.320  24.324   1.886
22162W        W87389  27.108   8.361  12.033
22163W        W87390  36.297  15.082   1.438
22164W        W87391  23.433  20.551   2.479
22165W        W87392  11.411  31.374   5.437
22166W        W87393   7.721  10.058   3.999
22167W        W87394  31.965  19.910  11.243
22168W        W87395  20.793  29.188   1.281
22169W        W87396  18.683   0.279  13.412
22170W        W87397  11.604  28.908   3.185
22171W        W87398  35.412  30.898  14.456
22172W        W87399  23.581  28.095   3.104
22173W        W87400  22.814  24.249   2.407
22174W        W87401  28.986  26.020   1.520
22175W        W87402   8.310   3.909   3.857
22176W        W87403  23.571  24.543   0.235
22177W        W87404  19.649   7.402   1.740
22178W        W87405  37.002  14.832   1.811
22179W        W87406  28.970   2.041  13.127
22180W        W87407  37.827  39.544   1.464
22181W        W87408   3.007  22.215   3.701
22182W        W87409  15.022  40.488  13.111
22183W        W87410   4.448  33.180   2.834
22184W        W87411   3.875  27.489   5.518
22185W        W87412  34.498  31.062  14.684
22186W        W87413  11.265  24.149   3.162
22187W        W87414  34.594  24.453  13.884
22188W        W87415  18.085  35.008  12.003
22189W        W87416   9.415  23.983   4.147
22190W        W87417  23.488  42.520   0.758
22191W        W87418  12.575  28.620   0.295
22192W        W87419  22.092  40.773  11.919
22193W        W87420  37.734  38.851  13.230
22194W        W87421  40.429  18.356   3.334
22195W        W87422  25.084  11.733   4.148
22196W        W87423  19.076  10.196   3.943
22197W        W87424   1.979  28.218  14.481
22198W        W87425  26.473  34.447   2.143
22199W        W87426  25.040  12.853   3.772
22200W        W87427  18.081  11.001   1.025
22201W        W87428  17.055  41.998   3.590
22202W        W87429  41.472  11.189  11.993
22203W        W87430  16.350   8.806  13.954
22204W        W87431  35.327   9.201  11.323
22205W        W87432   6.465  24.463  10.410
22206W        W87433  17.256  18.704  12.977
22207W        W87434  33.662  29.230   3.672
22208W        W87435  25.225  41.537  13.158
22209W        W87436  37.632   0.217  12.988
22210W        W87437  26.237   4.902   1.521
22211W        W87438  36.378  34.115  12.787
22212W        W87439  30.732  27.153  11.685
22213W        W87440  17.315  18.085  13.583
22214W        W87441  27.218   2.920   3.686
22215W        W87442  10.440   6.463  10.770
22216W        W87443  19.144   4.863  10.799
22217W        W87444  26.431  18.322   3.617
22218W        W87445  34.628  11.249   9.547
22219W        W87446  35.581  37.183  12.368
22220W        W87447   1.130  28.658  11.648
22221W        W87448   6.976  44.306  11.715
22222W        W87449  37.471   2.018  12.417
22223W        W87450  15.071   1.584   3.718
22224W        W87451  21.374   8.727   4.160
22225W        W87452   4.265  33.933  13.069
22226W        W87453  34.886   2.264   4.720
22227W        W87454  34.791  28.045  12.967
22228W        W87455  24.669   8.344   3.675
22229W        W87456  10.102   7.878  11.571
22230W        W87457  21.931   2.090   4.046
22231W        W87458  26.091  40.818   0.304
22232W        W87459  30.548   1.923   1.376
22233W        W87460   6.817  39.133  13.055
22234W        W87461  34.200  28.006   0.289
22235W        W87462  42.380  23.496  11.717
22236W        W87463  16.983  43.001  14.769
22237W        W87464  43.474  43.397  11.500
22238W        W87465  18.114   5.362   1.220
22239W        W87466  24.541  16.541   4.213
22240W        W87467   4.897  37.328  14.042
22241W        W87468  44.776  42.391   1.298
22242W        W87469  28.952  28.120   2.242
22243W        W87470  24.428   4.882  14.965
22244W        W87471   6.248   0.214  11.130
22245W        W87472  43.265  19.747  14.314
22246W        W87473  20.339  11.399   0.817
22247W        W87474  38.885  39.740  12.966
22248W        W87475  31.247  35.247   2.827
22249W        W87476   0.438  13.758   1.802
22250W        W87477  34.590  24.454   0.245
22251W        W87478  32.825  39.110   4.044
22252W        W87479  44.276  14.211   3.644
22253W        W87480   7.460  14.122  13.046
22254W        W87481   1.818  23.252   1.299
22255W        W87482  44.295  14.019  12.060
22256W        W87483  31.423  19.976   2.156
22257W        W87484  40.246  18.447  14.869
22258W        W87485  43.224  21.043   0.809
22259W        W87486   7.299  23.085  11.034
22260W        W87487  27.620  31.262   2.274
22261W        W87488   3.867   3.848  10.803
22262W        W87489  11.269  30.090  10.309
22263W        W87490  21.675  12.374  14.815
22264W        W87491  25.623  39.573   3.785
22265W        W87492  14.648  13.535   1.449
22266W        W87493  29.072   9.153  13.998
22267W        W87494   6.770   5.277   0.019
22268W        W87495  21.583   3.450   2.219
22269W        W87496   7.857  12.273  12.654
22270W        W87497  29.506  12.205   3.609
22271W        W87498  42.459  31.113  12.528
22272W        W87499  29.429  30.857  12.928
22273W        W87500   2.268  11.101   3.282
22274W        W87501   6.947  33.489   3.711
22275W        W87502   5.473  15.690  14.831
22276W        W87503  27.944   7.711   0.790
22277W        W87504  20.962  11.886  13.879
22278W        W87505  14.989  44.208  14.992
22279W        W87506   1.555  30.996  10.676
22280W        W87507  14.906  15.745   2.241
22281W        W87508  29.138   1.313   3.668
22282W        W87509  36.585  44.953  14.497
22283W        W87510  32.258  14.151   1.565
22284W        W87511  31.883   7.151  13.439
22285W        W87512  22.567  23.028   3.405
22286W        W87513  15.709  44.784  14.762
22287W        W87514   4.978  10.467   2.962
22288W        W87515  27.067  24.075   3.067
22289W        W87516  14.083  35.103   2.140
22290W        W87517  10.860  13.905  12.089
22291W        W87518   3.137   5.471  12.039
22292W        W87519  35.633  39.994   1.208
22293W        W87520  17.055  35.823  11.553
22294W        W87521  12.695  14.070   1.299
22295W        W87522  20.504  16.570   1.762
22296W        W87523  31.863  29.075  13.431
22297W        W87524  43.532  16.735  13.069
22298W        W87525  18.055   9.218   4.790
22299W        W87526  34.359  27.274  14.928
22300W        W87527  39.260  34.528   0.566
22301W        W87528  32.244  12.141  12.374
22302W        W87529  18.928  38.717   2.354
22303W        W87530  30.961  44.001  11.522
22304W        W87531  36.388  43.542   0.227
22305W        W87532  11.156  44.789  13.922
22306W        W87533  32.668  12.366  10.938
22307W        W87534  22.628  14.296   4.718
22308W        W87535  41.009   5.256  14.278
22309W        W87536  11.759  15.849  14.763
22310W        W87537  32.296  18.158   9.971
22311W        W87538  12.696  16.700   1.221
22312W        W87539  18.499  29.119   3.567
22313W        W87540  30.918  40.746   0.311
22314W        W87541   6.199  16.302  11.136
22315W        W87542  18.747  42.301  13.588
22316W        W87543  35.283  41.774   1.057
22317W        W87544  24.731  15.179  13.100
22318W        W87545  27.656   0.661   5.579
22319W        W87546  32.431   6.906  14.965
22320W        W87547  28.067   0.215   2.743
22321W        W87548  42.467  25.043  14.449
22322W        W87549  38.474   2.665   3.716
22323W        W87550  14.108  22.921   4.742
22324W        W87551  30.164  17.969   3.887
22325W        W87552  36.962   9.798  13.224
22326W        W87553  38.711  22.637  13.468
22327W        W87554  22.567  31.278  13.942
22328W        W87555   7.834  30.287   2.339
22329W        W87556  43.254  31.242   2.201
22330W        W87557  42.707   6.673  14.015
22331W        W87558  16.151  26.026  10.967
22332W        W87559  42.489  25.183   3.247
22333W        W87560  40.508  10.569  11.191
22334W        W87561  10.976  16.269   5.019
22335W        W87562  19.313  10.488   2.332
22336W        W87563  44.766  29.622   3.737
22337W        W87564  28.618  43.774   3.787
22338W        W87565  24.311  22.058   2.151
22339W        W87566  35.459  40.055  13.847
22340W        W87567  38.351  37.508   1.347
22341W        W87568  21.076  18.852   1.982
22342W        W87569   6.697  42.050   2.057
22343W        W87570  25.855   2.913   4.282
22344W        W87571  16.046  26.172   3.211
22345W        W87572  36.405  25.378   1.929
22346W        W87573   0.924   0.882   0.156
22347W        W87574   6.161  24.124  11.152
22348W        W87575  15.420  28.813   3.059
22349W        W87576  25.139  33.682  13.793
22350W        W87577   2.279  19.649  11.829
22351W        W87578  25.568  28.851   1.001
22352W        W87579  27.157  33.600  13.481
22353W        W87580  19.087  15.127  14.058
22354W        W87581  38.874   2.194   0.177
22355W        W87582  13.874  27.488   2.598
22356W        W87583  39.883  34.763   3.320
22357W        W87584  24.216  23.266   3.711
22358W        W87585  23.554  31.043   4.700
22359W        W87586  23.718  24.659   3.161
22360W        W87587  29.644  11.270  11.164
22361W        W87588  16.496  20.336   1.182
22362W        W87589  40.329   0.064  11.543
22363W        W87590  19.830  11.945  14.548
22364W        W87591   8.711  37.365  11.586
22365W        W87592   1.947   6.705   1.233
22366W        W87593  34.125  20.506  10.985
22367W        W87594  15.905  35.547  13.947
22368W        W87595  28.873  40.080  11.972
22369W        W87596  36.363  12.410   2.342
22370W        W87597  24.080  36.059   0.938
22371W        W87598   3.498  43.952   0.338
22372W        W87599  43.388  15.804   3.817
22373W        W87600   4.100  34.578   2.970
22374W        W87601  38.833  44.414  13.890
22375W        W87602  33.373  42.757  11.139
22376W        W87603  13.561   6.501  13.499
22377W        W87604   4.696  42.490  11.670
22378W        W87605  22.072  15.220  14.556
22379W        W87606   7.157   6.207  14.364
22380W        W87607  13.389  37.317  11.639
22381W        W87608  20.295   3.230   1.580
22382W        W87609  28.645  42.295  11.171
22383W        W87610  43.877  44.540   3.121
22384W        W87611   8.674  38.311   2.804
22385W        W87612  42.743  42.216  14.397
22386W        W87613  29.976  40.295   3.034
22387W        W87614   7.492   3.078   0.321
22388W        W87615  21.170  39.783   0.250
22389W        W87616  31.190   7.688  11.510
22390W        W87617  19.240  12.778  14.691
22391W        W87618   7.148  28.120  14.962
22392W        W87619  20.910  32.185  12.453
22393W        W87620  11.536   9.633  12.471
22394W        W87621   6.523   8.799   0.790
22395W        W87622   4.024  44.047  12.592
22396W        W87623  37.326  26.180  12.324
22397W        W87624   2.893  33.901  14.785
22398W        W87625  41.346  11.380   1.773
22399W        W87626  27.577   3.060  10.768
22400W        W87627  29.190  42.938  13.562
22401W        W87628  24.257  28.510   3.189
22402W        W87629  32.627  24.822   3.326
22403W        W87630  37.951  20.312   4.100
22404W        W87631  42.175   8.140   0.214
22405W        W87632  44.309  37.533  14.828
22406W        W87633  12.400  13.669  11.605
22407W        W87634  31.837  37.649   3.691
22408W        W87635  43.994  29.693  10.716
22409W        W87636  14.961   0.567  14.416
22410W        W87637  19.863  31.083   3.696
22411W        W87638  18.226  14.459  14.605
22412W        W87639  29.089  41.916   4.518
22413W        W87640   0.390  12.988   1.352
22414W        W87641  19.189  30.083  11.189
22415W        W87642  38.766  37.105  10.537
22416W        W87643  28.478  32.625  12.784
22417W        W87644  34.210   5.473  14.879
22418W        W87645  35.459   1.586   3.657
22419W        W87646  19.344  19.757  13.592
22420W        W87647   3.307  36.043  10.427
22421W        W87648   0.675  13.731   0.375
22422W        W87649  24.169  19.112   3.790
22423W        W87650   4.670  27.012  12.912
22424W        W87651  14.317  38.380  11.225
22425W        W87652  12.313  34.185  12.453
22426W        W87653  21.006  21.256  14.334
22427W        W87654  27.009  35.122  13.007
22428W        W87655  14.083  41.223   1.556
22429W        W87656   5.184   6.865  11.025
22430W        W87657   5.464  18.325  14.110
22431W        W87658  38.840  32.787   1.245
22432W        W87659  10.122  34.855  13.514
22433W        W87660  17.297  42.929  10.290
22434W        W87661  16.620  34.543  14.456
22435W        W87662   8.383  24.336   4.930
22436W        W87663   0.315   7.025  12.373
22437W        W87664   3.248  40.953  14.838
22438W        W87665   3.355   3.255  13.490
22439W        W87666   8.746  15.854  12.213
22440W        W87667  44.019   6.276  14.543
22441W        W87668   8.204   8.733   2.932
22442W        W87669  32.394  24.073  11.603
22443W        W87670  14.392  36.402  14.402
22444W        W87671  18.722  27.436   3.133
22445W        W87672  13.209  34.584   1.881
22446W        W87673   1.834  39.322   0.807
22447W        W87674  34.656  38.205   9.857
22448W        W87675  42.042  10.380   1.888
22449W        W87676  40.500  32.433   4.696
22450W        W87677  34.569   4.320   2.831
22451W        W87678  17.440   0.972   4.083
22452W        W87679   1.753  25.336   3.664
22453W        W87680  17.589   0.095   3.195
22454W        W87681  35.924  13.056  14.876
22455W        W87682  28.392  28.740  11.295
22456W        W87683   1.886  11.816   4.183
22457W        W87684  43.583   9.902  14.475
22458W        W87685  11.198  20.799  14.744
22459W        W87686  13.437  16.133  10.532
22460W        W87687  36.599  14.035   3.648
22461W        W87688  41.167   1.967  13.931
22462W        W87689   0.883  33.093  14.929
22463W        W87690  25.801  32.872  10.712
22464W        W87691  32.313   2.337  14.459
22465W        W87692  14.480  29.474   2.800
22466W        W87693  11.630  38.113   4.963
22467W        W87694  15.092  10.328   2.969
22468W        W87695  11.299  18.173  14.967
22469W        W87696   2.777  11.147   3.324
22470W        W87697  13.594  21.974   1.871
22471W        W87698  30.148  38.855   1.789
22472W        W87699   4.149   1.843   0.411
22473W        W87700  44.476  16.322  14.941
22474W        W87701  31.046  32.734  10.502
22475W        W87702  43.249   8.259   0.292
22476W        W87703  20.518   4.661   0.327
22477W        W87704  23.704  21.755  10.653
22478W        W87705  29.467   6.852  11.495
22479W        W87706  22.230  41.772  13.401
22480W        W87707  28.544  30.576   2.159
22481W        W87708  37.127  31.604  10.493
22482W        W87709   3.162  21.156  11.565
22483W        W87710  23.429  21.988   1.816
22484W        W87711  26.019  12.171   3.217
22485W        W87712   3.451  39.527  14.425
22486W        W87713  15.626  27.149   0.325
22487W        W87714  34.491  37.450  13.525
22488W        W87715   8.579   6.801  11.120
22489W        W87716  18.195  20.800   4.472
22490W        W87717  39.875  43.312  12.679
22491W        W87718  35.382  27.124  11.950
22492W        W87719  15.515  39.396   3.610
22493W        W87720  37.577  19.135   2.861
22494W        W87721  26.038  23.013   3.960
22495W        W87722  42.446  25.190   0.615
22496W        W87723  27.120  30.827   3.600
22497W        W87724   0.376  23.165   5.442
22498W        W87725  41.390  34.357   1.357
22499W        W87726  25.489  30.243  13.353
22500W        W87727  24.632  39.334   2.757
22501W        W87728  38.169  24.072  11.992
22502W        W87729  25.364  25.733   0.063
22503W        W87730  27.524   9.844  10.719
22504W        W87731   2.070  42.999   2.819
22505W        W87732  18.558  10.255  12.912
22506W        W87733   1.504  14.762   3.704
22507W        W87734  22.524  32.852   1.635
22508W        W87735  29.990  33.036   0.693
22509W        W87736  38.057  13.220   2.382
22510W        W87737  39.499   9.646  12.497
22511W        W87738  29.237   8.535   4.021
22512W        W87739  25.484   6.879   1.848
22513W        W87740   7.715  26.487  13.367
22514W        W87741  12.943  44.870   2.170
22515W        W87742  20.435  41.447   1.018
22516W        W87743  25.178   3.879  11.714
22517W        W87744  37.086   5.499   2.726
22518W        W87745  11.711  33.530  11.986
22519W        W87746  10.673  32.665   3.138
22520W        W87747  43.938  29.060   3.751
22521W        W87748  31.861  20.655  11.574
22522W        W87749   8.366  41.958  10.988
22523W        W87750  31.952  21.080   2.678
22524W        W87751  35.590  24.260   1.253
22525W        W87752  32.845  23.468  14.438
22526W        W87753  26.072   2.534  13.516
22527W        W87754  26.843  15.199   0.568
22528W        W87755  42.357  29.828   0.492
22529W        W87756  13.009  30.860   0.257
22530W        W87757  27.791  40.284  13.424
22531W        W87758  28.701  36.588  11.754
22532W        W87759   2.817  15.716  13.510
22533W        W87760  19.269   6.364   3.706
22534W        W87761  21.285  15.727  12.895
22535W        W87762   0.731  23.219  10.624
22536W        W87763  33.023  12.078   3.741
22537W        W87764   5.319   5.310   0.057
22538W        W87765  20.650  10.119   2.092
22539W        W87766  38.068  33.665  14.872
22540W        W87767  29.206   6.982  11.925
22541W        W87768  24.472  27.032  11.169
22542W        W87769  42.982  21.327  13.300
22543W        W87770  22.681  35.980   0.443
22544W        W87771  21.259   0.895  13.764
22545W        W87772  39.986  10.714  12.893
22546W        W87773   7.287  34.632   3.310
22547W        W87774  19.823  41.739   3.316
22548W        W87775   0.895  24.923   5.378
22549W        W87776  44.981  24.122   0.758
22550W        W87777  41.772  16.762   4.204
22551W        W87778  23.481  34.493  11.536
22552W        W87779  16.997  40.846   0.473
22553W        W87780  31.324  15.248   3.177
22554W        W87781  20.204  19.588   2.647
22555W        W87782  19.567  25.031  14.358
22556W        W87783   4.834  22.517   2.818
22557W        W87784  43.818  24.710   3.647
22558W        W87785  41.833   7.248  14.363
22559W        W87786  31.552  25.954   3.510
22560W        W87787   2.309  21.726   1.905
22561W        W87788  15.740  15.168  13.858
22562W        W87789  31.006  11.119   5.186
22563W        W87790   9.899  44.784  12.482
22564W        W87791  29.741  17.304  11.557
22565W        W87792   9.176   6.292   4.192
22566W        W87793  39.343   2.118  12.589
22567W        W87794  15.767   9.747   5.108
22568W        W87795  17.072  38.030   4.130
22569W        W87796  21.409  17.819  12.284
22570W        W87797  37.862  16.994  10.525
22571W        W87798  21.818  15.419   2.188
22572W        W87799  21.640  33.821  14.974
22573W        W87800  25.786  41.111  13.539
22574W        W87801  24.181  13.641  14.109
22575W        W87802  15.212   9.465   3.263
22576W        W87803  19.448  34.473  13.800
22577W        W87804  27.978  19.372   4.162
22578W        W87805  38.200   8.586   3.488
22579W        W87806   5.046  27.039  14.304
22580W        W87807  33.110  43.072   2.679
22581W        W87808   5.526   1.405   0.455
22582W        W87809   2.138   1.470   0.928
22583W        W87810  25.050  42.861   0.401
22584W        W87811  39.523  26.164   4.248
22585W        W87812  33.556  36.266   4.547
22586W        W87813  32.011  25.706  10.949
22587W        W87814  33.088  29.489  11.197
22588W        W87815  21.037  30.628  11.588
22589W        W87816  13.814   0.318  11.579
22590W        W87817  22.965   7.745   3.189
22591W        W87818  10.695  43.752  12.942
22592W        W87819  17.748   6.740  11.752
22593W        W87820  25.549   9.674   4.890
22594W        W87821   5.206  26.529  13.112
22595W        W87822  43.627  35.649  13.892
22596W        W87823  21.587  41.544  14.897
22597W        W87824  17.926   6.747   1.410
22598W        W87825  44.094  14.160  12.719
22599W        W87826  21.265  35.605  14.452
22600W        W87827  36.537   9.452  12.334
22601W        W87828  16.746  21.878   1.449
22602W        W87829  43.836  28.180  14.538
22603W        W87830  19.563   0.496  11.669
22604W        W87831   8.171  14.830  14.194
22605W        W87832  40.358  41.873  14.511
22606W        W87833  14.231  24.125  13.741
22607W        W87834  26.834  30.370  14.951
22608W        W87835  41.596  27.673   1.685
22609W        W87836   8.730  36.980   0.765
22610W        W87837  44.239  13.603   0.464
22611W        W87838   1.537   3.436   2.610
22612W        W87839   5.690  32.890  14.475
22613W        W87840  39.819  33.537   4.450
22614W        W87841  11.308   3.519   0.799
22615W        W87842  42.008  21.532   2.257
22616W        W87843  42.846  29.126   3.750
22617W        W87844   4.473  15.739   0.019
22618W        W87845  29.121  13.871  13.922
22619W        W87846  42.758  26.913   2.747
22620W        W87847  13.430  41.026  10.958
22621W        W87848  29.614  38.794   0.761
22622W        W87849  28.652  15.537  11.552
22623W        W87850  40.736  23.524  14.894
22624W        W87851  11.666   2.214  12.043
22625W        W87852  42.986  37.508   1.090
22626W        W87853  18.153  12.190   2.012
22627W        W87854   5.381  21.360   0.346
22628W        W87855  15.338  22.765  12.463
22629W        W87856  15.620   1.745  13.305
22630W        W87857  10.699  10.395  11.610
22631W        W87858  34.447  37.962  11.265
22632W        W87859  28.814  15.176  11.247
22633W        W87860  43.079  15.650  13.297
22634W        W87861  30.474   3.766   3.694
22635W        W87862  40.775  43.714  12.424
22636W        W87863  13.759   8.908  14.655
22637W        W87864  20.197  14.347   5.001
22638W        W87865  10.904  28.162   4.701
22639W        W87866  28.251   0.678   5.064
22640W        W87867  17.031  33.945  11.304
22641W        W87868  38.016  24.611   0.932
22642W        W87869   6.940  29.379  13.386
22643W        W87870  24.782   8.475  14.980
22644W        W87871  28.143  31.277  14.191
22645W        W87872  28.053  12.824   1.078
22646W        W87873  25.224  30.792   3.777
22647W        W87874  31.581   3.910  14.481
22648W        W87875  44.253  20.954  11.996
22649W        W87876  40.072  11.693   5.173
22650W        W87877  14.585  42.823  14.506
22651W        W87878   5.294   3.951   1.680
22652W        W87879  23.514   9.405   0.803
22653W        W87880  13.598  43.037  11.628
22654W        W87881  13.300  16.764  13.950
22655W        W87882  31.425  22.740   2.347
22656W        W87883   2.814  40.547   3.879
22657W        W87884  37.593  43.059   3.211
22658W        W87885  43.769   6.731  14.756
22659W        W87886  14.226   3.672  13.951
22660W        W87887  28.949  18.629  13.436
22661W        W87888   6.815  14.511   1.926
22662W        W87889  25.684  10.500   5.107
22663W        W87890  22.708   0.073   2.800
22664W        W87891  33.016  15.787   2.411
22665W        W87892  41.955  35.343  10.771
22666W        W87893  40.364  40.274   2.491
22667W        W87894  24.485  25.104  12.526
22668W        W87895   9.737  24.250   0.300
22669W        W87896  41.646  29.015  13.472
22670W        W87897  44.421  36.333  10.604
22671W        W87898  25.605  31.409   4.241
22672W        W87899  10.376  37.555  14.496
22673W        W87900  39.386   7.591   4.644
22674W        W87901   1.722  24.596  11.619
22675W        W87902   5.224  16.930  12.009
22676W        W87903  29.725   5.911   0.644
22677W        W87904  26.064   7.461   3.305
22678W        W87905   2.015  18.305  14.363
22679W        W87906  38.161  12.783   2.651
22680W        W87907  19.183  36.561  12.385
22681W        W87908   4.765  23.128   1.704
22682W        W87909  30.172   9.800   2.747
22683W        W87910  21.964  35.108  14.354
22684W        W87911  11.899  12.819  12.873
22685W        W87912  21.552  11.596   0.316
22686W        W87913  14.303  39.229  10.834
22687W        W87914  31.311   8.951  12.983
22688W        W87915  28.311   4.495   0.789
22689W        W87916  44.320  28.624   3.709
22690W        W87917  24.632  39.324  11.575
22691W        W87918  22.146   7.559   2.254
22692W        W87919  42.347  36.612   4.594
22693W        W87920   3.759  17.599   4.553
22694W        W87921  36.010   7.782  12.908
22695W        W87922  10.790   8.738  13.986
22696W        W87923  41.819  28.407  14.064
22697W        W87924  32.686  28.410   3.173
22698W        W87925  33.553  14.744   1.057
22699W        W87926  31.008  33.018   2.696
22700W        W87927  32.991  44.955   4.376
22701W        W87928  11.581  25.500   4.517
22702W        W87929  14.663  37.964  13.952
22703W        W87930   1.706  18.757  11.515
22704W        W87931  21.939   8.351   0.841
22705W        W87932  25.774   2.496  11.663
22706W        W87933  20.638  32.512  14.297
22707W        W87934   8.817  25.880  14.677
22708W        W87935  36.817   0.774   0.461
22709W        W87936  32.013  10.477  12.083
22710W        W87937  42.226  41.462  11.543
22711W        W87938  34.905  26.952  14.483
22712W        W87939   9.494  42.368  14.283
22713W        W87940  11.175  29.628   3.637
22714W        W87941  40.526  33.112  11.384
22715W        W87942  29.022  11.675  14.422
22716W        W87943  39.279  15.988   0.228
22717W        W87944   6.750   3.242   1.069
22718W        W87945  23.147  31.307   4.160
22719W        W87946  40.928  22.806  13.514
22720W        W87947  37.024  27.219   0.140
22721W        W87948  30.373  42.386  10.621
22722W        W87949  10.109  41.765   1.256
22723W        W87950  44.251  35.875  10.833
22724W        W87951   1.750  40.376   2.851
22725W        W87952  22.946  19.536   3.811
22726W        W87953  28.191   8.929   4.919
22727W        W87954  41.457  20.597  11.164
22728W        W87955  44.925   7.680  13.333
22729W        W87956   0.106  32.235   1.355
22730W        W87957  32.819  43.819   3.328
22731W        W87958   1.284  13.359  13.044
22732W        W87959  32.968  26.256   1.565
22733W        W87960  39.300  18.764  12.510
22734W        W87961  28.436  16.736   3.671
22735W        W87962  41.426  23.638   2.693
22736W        W87963  33.694  42.046   0.239
22737W        W87964  15.778  17.340   1.766
22738W        W87965  37.643  33.702   5.027
22739W        W87966  41.494  16.914  14.565
22740W        W87967   8.378  14.746  11.519
22741W        W87968  17.805  34.612   0.440
22742W        W87969  36.673   2.296  12.035
22743W        W87970   9.814  27.683   1.972
22744W        W87971  19.694  29.699   1.761
22745W        W87972  10.723  17.613   1.455
22746W        W87973  10.858  27.383  14.437
22747W        W87974  27.810  15.214  14.383
22748W        W87975  32.363  10.906  13.141
22749W        W87976  13.514   2.526  11.688
22750W        W87977  13.504  29.168  11.581
22751W        W87978  31.452  25.576   1.326
22752W        W87979  35.109  18.794   1.495
22753W        W87980  11.157  42.734   1.267
22754W        W87981  14.692  30.243  13.086
22755W        W87982  27.173  41.644  11.895
22756W        W87983  26.547  20.735   1.621
22757W        W87984  33.435  17.331   1.798
22758W        W87985  27.018  28.223  11.716
22759W        W87986  42.269  43.905   2.875
22760W        W87987  26.393  31.720   2.227
22761W        W87988  44.399  42.222   0.976
22762W        W87989  24.210  38.028   2.690
22763W        W87990  38.488  31.469  10.733
22764W        W87991  38.817  10.704  12.482
22765W        W87992  21.526  23.102   4.093
22766W        W87993  27.902  22.042   1.083
22767W        W87994  12.530  36.270   3.639
22768W        W87995  24.112  24.237   1.794
22769W        W87996  42.408  29.391   3.797
22770W        W87997  43.559  10.861  12.371
22771W        W87998   9.313  31.967  14.402
22772W        W87999  16.063   0.911   2.420
22773W        W88000   4.373  17.029  12.486
22774W        W88001  22.805  23.662  14.720
22775W        W88002   1.825  31.198   4.082
22776W        W88003  29.607  25.032   0.197
22777W        W88004  22.083  37.989  14.434
22778W        W88005  23.671   1.002  12.114
22779W        W88006  29.512  15.794  11.392
22780W        W88007  43.417  35.120   1.179
22781W        W88008  28.103  44.526  11.638
22782W        W88009  23.148   6.671  11.248
22783W        W88010  31.331  29.185  10.255
22784W        W88011  42.379   9.243  11.847
22785W        W88012  33.923   3.424   1.144
22786W        W88013  10.320  18.000  13.315
22787W        W88014  26.226   8.229   0.039
22788W        W88015   0.468  19.193   1.198
22789W        W88016   6.696  19.595   2.793
22790W        W88017  41.048   4.302  12.852
22791W        W88018  35.580   8.069  13.889
22792W        W88019  21.969  37.835   2.348
22793W        W88020  41.188  24.482  14.909
22794W        W88021  28.836  26.115  10.262
22795W        W88022  38.470   0.325  12.510
22796W        W88023  11.666  21.098   3.391
22797W        W88024  18.304  11.865   1.651
22798W        W88025  38.345  33.014   1.233
22799W        W88026  41.857  28.708   3.348
22800W        W88027  23.542   7.368  13.581
22801W        W88028  34.311   3.957   3.695
22802W        W88029  22.218  23.193   0.506
22803W        W88030  41.512  39.003  13.593
22804W        W88031   7.820  21.171   0.536
22805W        W88032   1.263  40.513   3.772
22806W        W88033  19.750   0.315  11.223
22807W        W88034  23.939  29.766  12.488
22808W        W88035  44.786  19.993  14.411
22809W        W88036  16.752   8.846  13.090
22810W        W88037  34.325  41.893   4.701
22811W        W88038  35.025  26.481   3.678
22812W        W88039  22.139   7.295  11.920
22813W        W88040  21.150  40.626   0.888
22814W        W88041   9.441  13.673  12.573
22815W        W88042   2.511  30.971   1.317
22816W        W88043  20.639   1.954   0.038
22817W        W88044  19.407   1.367   2.802
22818W        W88045  27.827  21.174   1.343
22819W        W88046  19.186  44.408   2.287
22820W        W88047   7.698   4.221  14.868
22821W        W88048  43.353  12.022  11.547
22822W        W88049  27.541  27.520  10.752
22823W        W88050  25.157  42.845  11.147
22824W        W88051   6.974   7.321   0.750
22825W        W88052  43.347   6.329  10.952
22826W        W88053  21.156  15.290  12.534
22827W        W88054  33.881  42.038   4.096
22828W        W88055  43.303  31.785  12.510
22829W        W88056  41.425  14.615   0.387
22830W        W88057  34.194  38.954   2.912
22831W        W88058  37.166  44.221   3.960
22832W        W88059   2.457  37.362  10.387
22833W        W88060  18.550  18.630  12.488
22834W        W88061  33.671  28.540  12.806
22835W        W88062  38.727  20.530   4.133
22836W        W88063  33.051  15.293  14.763
22837W        W88064  17.375  33.149  13.018
22838W        W88065  41.276  39.424  10.993
22839W        W88066  42.495  34.884  13.103
22840W        W88067  29.680  43.055   4.457
22841W        W88068  23.141  30.927   1.926
22842W        W88069  38.054  19.222  12.857
22843W        W88070   6.648  10.339   1.675
22844W        W88071  40.749  36.817   1.962
22845W        W88072  10.105  20.610  12.040
22846W        W88073  25.598  20.403   2.742
22847W        W88074  11.087  25.313   0.492
22848W        W88075   1.852  23.963   3.408
22849W        W88076  44.837  12.310   1.306
22850W        W88077  16.764  29.608  13.582
22851W        W88078  43.694  23.709  12.553
22852W        W88079  38.505  16.775   3.694
22853W        W88080  10.620  12.906  10.520
22854W        W88081  18.139  19.360  12.376
22855W        W88082  33.359   2.331  12.453
22856W        W88083   7.218  36.561   4.082
22857W        W88084   5.455   4.862   1.971
22858W        W88085  14.279  22.254  14.767
22859W        W88086  13.360  32.121  13.380
22860W        W88087   0.946  30.408   3.661
22861W        W88088  25.053  19.261   0.812
22862W        W88089   9.349  27.948   3.657
22863W        W88090  16.802  21.538  12.502
22864W        W88091  33.678  26.403  12.478
22865W        W88092  34.545  40.055   1.859
22866W        W88093  16.555  10.207   1.957
22867W        W88094   9.632  25.963  14.753
22868W        W88095  10.734  18.258   4.491
22869W        W88096  31.663  21.033   3.114
22870W        W88097  18.745  29.170  14.824
22871W        W88098   7.683  19.255   0.336
22872W        W88099   5.025   3.646   3.173
22873W        W88100  36.257   4.360   4.752
22874W        W88101   3.200  10.800  14.840
22875W        W88102   3.602  17.129  10.635
22876W        W88103  24.697  24.294  12.197
22877W        W88104   4.409   6.712   3.359
22878W        W88105  40.319   3.454  10.733
22879W        W88106  22.124  15.089  10.953
22880W        W88107  43.839  21.966  12.658
22881W        W88108   7.232  40.263   4.490
22882W        W88109  14.613  28.151   4.023
22883W        W88110  32.799  22.162  14.306
22884W        W88111   9.576  33.668   4.453
22885W        W88112  18.561  32.388   3.627
22886W        W88113  28.522  10.396  14.012
22887W        W88114  43.117  33.640  14.860
22888W        W88115  34.650  38.284   5.601
22889W        W88116  30.040  34.649  11.454
22890W        W88117  14.140   4.493  11.496
22891W        W88118  31.654  22.207   3.566
22892W        W88119   0.092  28.335   4.390
22893W        W88120  39.405  31.914  14.700
22894W        W88121  39.649   9.276   4.350
22895W        W88122  25.983  17.605   2.498
22896W        W88123   9.879  20.154   1.300
22897W        W88124  23.378   5.270   4.970
22898W        W88125   9.804  28.184   2.129
22899W        W88126   1.100  28.687   2.035
22900W        W88127   3.967  37.591  14.027
22901W        W88128  39.008   0.728   3.710
22902W        W88129   0.901  13.647  11.479
22903W        W88130  28.538  29.434   1.868
22904W        W88131   4.086  28.071   1.767
22905W        W88132   1.777  14.684   4.499
22906W        W88133  21.880  28.912   3.079
22907W        W88134  24.734  19.427  14.474
22908W        W88135  13.156   2.359  13.129
22909W        W88136  41.975  34.618   4.019
22910W        W88137  27.576  37.379  10.709
22911W        W88138  30.200  32.188  12.462
22912W        W88139  25.946  22.577  10.550
22913W        W88140   0.813  36.639  11.534
22914W        W88141  30.275  20.990  13.569
22915W        W88142   7.515   2.181  11.053
22916W        W88143  40.325  13.514  13.003
22917W        W88144  35.998  34.593  12.105
22918W        W88145   5.311  18.692   3.186
22919W        W88146  17.204  14.573   2.395
22920W        W88147  25.942   4.921   0.501
22921W        W88148   9.827  32.651   1.449
22922W        W88149  24.404   5.812  13.082
22923W        W88150  14.274  25.743  12.610
22924W        W88151   1.235  30.630  10.529
22925W        W88152  13.699  16.014  12.030
22926W        W88153   2.887  20.848   0.378
22927W        W88154  15.326  13.884   4.148
22928W        W88155   9.174  20.009   0.255
22929W        W88156  35.374  38.567  11.649
22930W        W88157   7.654  42.498  12.505
22931W        W88158   8.865  36.344   0.982
22932W        W88159  36.045  26.550   0.969
22933W        W88160   7.359  40.482   1.098
22934W        W88161  42.749  37.751   9.830
22935W        W88162  27.948   7.293   0.462
22936W        W88163   0.804  43.409  14.249
22937W        W88164   6.899  35.927  14.542
22938W        W88165  22.582  24.716  11.078
22939W        W88166   9.181  24.518   4.256
22940W        W88167   1.897  22.217  10.676
22941W        W88168  23.513  13.126  13.445
22942W        W88169   1.932  42.804  12.939
22943W        W88170   1.288   2.816   0.485
22944W        W88171  34.540   5.875  14.188
22945W        W88172   7.827  43.994   1.833
22946W        W88173   9.282  28.178  12.008
22947W        W88174  15.090   0.590  11.154
22948W        W88175  16.496  10.954   4.158
22949W        W88176  28.734  42.201   3.084
22950W        W88177   6.388  13.062   0.819
22951W        W88178  19.451  12.902  11.158
22952W        W88179  26.997   0.612   1.558
22953W        W88180  34.150  13.174  12.411
22954W        W88181  24.269  21.143  12.098
22955W        W88182  16.187  35.888   3.162
22956W        W88183  41.655  27.240   3.191
22957W        W88184  11.266  29.621  13.534
22958W        W88185  31.839  19.129  14.068
22959W        W88186  38.093   8.834  14.524
22960W        W88187  43.549  36.373  11.169
22961W        W88188  13.114   7.009   4.704
22962W        W88189   5.436   1.390  13.158
22963W        W88190  22.808  16.419  14.334
22964W        W88191  38.832   1.068   4.515
22965W        W88192  31.635  16.669   4.499
22966W        W88193   1.497  44.041   3.503
22967W        W88194   0.645  21.098   1.744
22968W        W88195  15.706  11.824   4.996
22969W        W88196   7.700  11.568  10.289
22970W        W88197   0.538  34.122  12.970
22971W        W88198  39.930  13.968  14.057
22972W        W88199   0.842  15.883  10.702
22973W        W88200  25.950  27.548   3.281
22974W        W88201  24.861   9.752  14.678
22975W        W88202  33.910  42.703  11.131
22976W        W88203  15.365  33.602  11.525
22977W        W88204   5.420  39.785   3.190
22978W        W88205  35.010  17.522   2.154
22979W        W88206  14.360  24.941  12.428
22980W        W88207  41.820  40.043   0.933
22981W        W88208  16.597  20.313  10.763
22982W        W88209  42.801  16.551  11.051
22983W        W88210  25.425   1.036   0.751
22984W        W88211  24.592   3.472   3.471
22985W        W88212  25.097   5.508   0.676
22986W        W88213   3.864  27.016   9.841
22987W        W88214  31.861   7.635   1.850
22988W        W88215   5.856  27.146   0.490
22989W        W88216  11.901  28.521   5.018
22990W        W88217   6.206  39.558   2.090
22991W        W88218  34.538  16.455   1.797
22992W        W88219   9.816  41.893   4.172
22993W        W88220  21.094   8.441  13.934
22994W        W88221  13.644  35.817   2.868
22995W        W88222  43.123   9.795   1.298
22996W        W88223  11.649   7.637  10.099
22997W        W88224  28.959  14.065   0.521
22998W        W88225  41.002   5.223  10.734
22999W        W88226  44.771  33.718  14.276
23000W        W88227   4.495  21.242  11.093
23001W        W88228  23.819  26.585   5.051
23002W        W88229  20.664  20.489   3.111
23003W        W88230  32.378  16.957   0.403
23004W        W88231   2.343  20.149   2.746
23005W        W88232  42.582  20.903  11.123
23006W        W88233  44.042   7.629  10.890
23007W        W88234  44.052  38.578  11.889
23008W        W88235  41.991  32.945  12.972
23009W        W88236  27.184  39.709  11.431
23010W        W88237  26.302  27.550   1.902
23011W        W88238  10.730   2.363  12.421
23012W        W88239  11.203  22.059   4.379
23013W        W88240  25.512  35.748   4.041
23014W        W88241  21.659  40.970  11.726
23015W        W88242  17.351  39.435  14.795
23016W        W88243  43.551  22.571  13.940
23017W        W88244  14.704   2.396   3.966
23018W        W88245  42.573  16.958  10.791
23019W        W88246  44.462  13.318   2.713
23020W        W88247  27.550  31.333  13.551
23021W        W88248  18.035  16.686  14.386
23022W        W88249  15.076   7.241   4.698
23023W        W88250  24.596  31.307  12.497
23024W        W88251  20.122  13.832   2.673
23025W        W88252  33.712  43.901   2.699
23026W        W88253  42.959  37.009   0.360
23027W        W88254   7.537  24.169   0.924
23028W        W88255  39.602  16.238  11.623
23029W        W88256  15.522   1.172  12.456
23030W        W88257  42.002  10.417  11.215
23031W        W88258  10.387  31.547  14.064
23032W        W88259   8.986  24.030  11.743
23033W        W88260  41.356  13.351   3.300
23034W        W88261  16.132  16.640   2.370
23035W        W88262  34.923  41.779   1.448
23036W        W88263   4.783  29.544  10.720
23037W        W88264  13.710  33.312   1.416
23038W        W88265  21.563   6.803   1.714
23039W        W88266  30.582  32.636  11.224
23040W        W88267   0.070  24.362  10.167
23041W        W88268  25.737  28.381   4.846
23042W        W88269  38.532  15.318   1.295
23043W        W88270  29.011  30.798   2.073
23044W        W88271  30.184   6.187  13.085
23045W        W88272  44.053  15.793   1.219
23046W        W88273  20.124  42.405  11.255
23047W        W88274   8.733  25.611   1.985
23048W        W88275  42.998  12.240   3.787
23049W        W88276  28.433  30.380   1.646
23050W        W88277   7.908  31.893  11.990
23051W        W88278  29.367  40.586   2.289
23052W        W88279  30.915  35.984  14.215
23053W        W88280  22.756  33.495  12.031
23054W        W88281  28.390  26.131   0.355
23055W        W88282  22.977  33.670  11.565
23056W        W88283   8.724  32.076   4.560
23057W        W88284   6.154  19.447  13.990
23058W        W88285   2.222  42.418  13.192
23059W        W88286   2.428  35.564  12.071
23060W        W88287   6.644   9.410   2.790
23061W        W88288  32.009  41.592   1.741
23062W        W88289  35.494   0.350  12.191
23063W        W88290  42.879  14.577  12.268
23064W        W88291  37.841  16.706   4.525
23065W        W88292   8.764   7.304   0.374
23066W        W88293  41.076  19.628   0.439
23067W        W88294  34.847  39.908   0.832
23068W        W88295  14.331  40.608  10.504
23069W        W88296  15.214   8.170   0.818
23070W        W88297  22.970   5.005   3.173
23071W        W88298  39.584  27.018  14.702
23072W        W88299   3.882  27.271   0.910
23073W        W88300  18.813  20.992   0.399
23074W        W88301  25.111  41.477  10.773
23075W        W88302   7.154  10.820   0.832
23076W        W88303  35.408  14.316   0.782
23077W        W88304  38.771  40.789   0.912
23078W        W88305  17.614  13.309  10.728
23079W        W88306  24.355  35.563   3.215
23080W        W88307   8.604  31.890   5.025
23081W        W88308  40.944   8.605  12.485
23082W        W88309  37.751  33.954  13.517
23083W        W88310  44.904  20.295  10.196
23084W        W88311   2.318  39.314  14.044
23085W        W88312  11.563  44.352  12.054
23086W        W88313   0.754   2.133   2.145
23087W        W88314   5.100  38.375   1.869
23088W        W88315  44.742  28.504   1.009
23089W        W88316   8.821  18.571  12.585
23090W        W88317  12.348   2.344  12.425
23091W        W88318  44.505  30.833   1.845
23092W        W88319  20.214  19.283  14.346
23093W        W88320  12.840  22.890  14.876
23094W        W88321  14.330  28.528  11.002
23095W        W88322   5.291  25.802   3.766
23096W        W88323  15.581  23.666   4.996
23097W        W88324  22.321  26.570   3.220
23098W        W88325  43.703   2.331   1.305
23099W        W88326  21.380   2.178   2.353
23100W        W88327  32.599  41.452   1.242
23101W        W88328   7.011  13.582  10.672
23102W        W88329   1.446   5.610  11.554
23103W        W88330   8.238  23.923  11.157
23104W        W88331  41.896  37.591  12.530
23105W        W88332  18.491   7.179  11.459
23106W        W88333   6.726   1.763   0.416
23107W        W88334  14.806  19.797   1.245
23108W        W88335  22.652  30.062   2.253
23109W        W88336  27.697  32.655  12.100
23110W        W88337  24.459  19.265  11.197
23111W        W88338  23.541  14.917  13.634
23112W        W88339  31.540  33.922   1.111
23113W        W88340  37.332  25.251   3.278
23114W        W88341  44.443  23.105   0.519
23115W        W88342  17.074   9.474   1.182
23116W        W88343  11.985  18.384  12.215
23117W        W88344  44.179  10.020  11.127
23118W        W88345  14.806  43.950   9.934
23119W        W88346   4.369  18.848  11.989
23120W        W88347   7.677  33.113  11.522
23121W        W88348  24.734   7.474  13.452
23122W        W88349  14.022  15.004   4.784
23123W        W88350  23.539  41.850   4.286
23124W        W88351  10.598   2.818  12.203
23125W        W88352  22.821  14.146  13.734
23126W        W88353  28.317  15.128   3.774
23127W        W88354   5.304  20.672  11.897
23128W        W88355  24.513  44.231  10.153
23129W        W88356   8.312  13.262   5.062
23130W        W88357  41.188  43.497  12.232
23131W        W88358  27.238  10.160   3.851
23132W        W88359  11.015  18.015  11.529
23133W        W88360  18.786   1.990  12.678
23134W        W88361  10.113  15.059   0.986
23135W        W88362  27.255  25.157  11.663
23136W        W88363  29.725  28.023  13.332
23137W        W88364  40.396  28.462   5.337
23138W        W88365  37.006   2.503  11.229
23139W        W88366  17.908  16.031  10.490
23140W        W88367  32.391  34.534   1.205
23141W        W88368   1.405  32.567  10.992
23142W        W88369  35.198  19.049   0.683
23143W        W88370  19.792  13.676   1.855
23144W        W88371  37.132  39.038   3.659
23145W        W88372  13.273  25.906  14.468
23146W        W88373   5.233   6.822   2.230
23147W        W88374  10.613   8.786   4.260
23148W        W88375  16.934  37.658   1.778
23149W        W88376  43.926  41.334   2.634
23150W        W88377  40.105  33.020   1.731
23151W        W88378   7.448  10.671   2.774
23152W        W88379   0.358   1.020  12.167
23153W        W88380  23.549  14.225   4.247
23154W        W88381  34.893  38.713  11.503
23155W        W88382   8.375   1.461  10.560
23156W        W88383  26.612   0.702  11.503
23157W        W88384  14.373  23.867  14.829
23158W        W88385  24.727  21.457   0.368
23159W        W88386  31.030  27.030  14.596
23160W        W88387  14.289  18.204  10.787
23161W        W88388   9.945  11.259  12.526
23162W        W88389  17.509  20.778   3.101
23163W        W88390  29.969  15.109  11.947
23164W        W88391  38.356   3.134   3.517
23165W        W88392  36.924  28.025   1.346
23166W        W88393  25.826  38.110   4.115
23167W        W88394  36.826  42.414  13.796
23168W        W88395   3.695   8.766   0.312
23169W        W88396   9.372  13.775   1.285
23170W        W88397   0.865  33.145  14.414
23171W        W88398   9.300  19.970  12.446
23172W        W88399   2.294  41.226  13.560
23173W        W88400  28.418   0.240   1.708
23174W        W88401   4.803  12.041  14.414
23175W        W88402  28.488  25.709  10.304
23176W        W88403  15.694   4.456  12.538
23177W        W88404   9.705  38.968   4.212
23178W        W88405   4.585  13.836   4.197
23179W        W88406   8.571   5.739   3.624
23180W        W88407  14.132   2.986  12.831
23181W        W88408  24.610  20.031   4.059
23182W        W88409  14.727   0.240   4.327
23183W        W88410   4.424  16.183  10.970
23184W        W88411  21.212  19.378   3.713
23185W        W88412  15.199   3.474   2.713
23186W        W88413  19.175  26.905  14.930
23187W        W88414  42.441  29.010   4.690
23188W        W88415  33.566   0.493  11.137
23189W        W88416   6.195  12.856   3.749
23190W        W88417  35.062   4.921   3.519
23191W        W88418  26.453  43.160  12.682
23192W        W88419   8.153   6.895   2.442
23193W        W88420  21.556  40.481   2.702
23194W        W88421  18.123   4.576  14.337
23195W        W88422  14.645  14.331   4.204
23196W        W88423  13.074  24.997   1.760
23197W        W88424  15.956  28.937  10.313
23198W        W88425  19.126  28.939  13.528
23199W        W88426  33.610  18.310   2.837
23200W        W88427  23.558  38.102   4.431
23201W        W88428   7.324  14.826   2.612
23202W        W88429   3.011  10.739  13.845
23203W        W88430  18.119  33.536   2.271
23204W        W88431   9.904  42.330   3.252
23205W        W88432  10.365  28.125  11.877
23206W        W88433   9.357  38.273  14.845
23207W        W88434  41.023  23.402  12.790
23208W        W88435  26.628  37.694   5.143
23209W        W88436  44.585   8.338  11.637
23210W        W88437  22.958  24.679   2.672
23211W        W88438   8.448  30.971  10.995
23212W        W88439  23.064  11.433  14.582
23213W        W88440  44.467  17.129   4.553
23214W        W88441   8.075  17.075  14.473
23215W        W88442   0.752  31.099   2.655
23216W        W88443  32.988  38.769   2.351
23217W        W88444  10.449   6.791  11.171
23218W        W88445  27.620  38.740   4.969
23219W        W88446  21.573   9.426  12.781
23220W        W88447  28.403   6.566  12.451
23221W        W88448  31.136  34.038   0.796
23222W        W88449  20.236  44.302  13.078
23223W        W88450  40.828  30.868   0.974
23224W        W88451  22.520  19.058  13.192
23225W        W88452  26.103  12.729   3.709
23226W        W88453  10.192  28.651  13.839
23227W        W88454  25.713  22.215  14.909
23228W        W88455  25.918  29.444  11.385
23229W        W88456  12.759  41.030  12.159
23230W        W88457  13.056  11.356   3.213
23231W        W88458  33.532  17.108   1.322
23232W        W88459  19.660   6.450   4.643
23233W        W88460  33.875  10.271  14.684
23234W        W88461  41.543  33.473  10.660
23235W        W88462  37.853  17.508   2.832
23236W        W88463   7.806  14.631   2.762
23237W        W88464  41.589   9.500   2.864
23238W        W88465  22.461   1.194  14.935
23239W        W88466  37.961  32.549   3.873
23240W        W88467  42.875   3.239  10.585
23241W        W88468  40.845  10.649   4.628
23242W        W88469   5.321  42.194  13.134
23243W        W88470  18.495  32.016  10.725
23244W        W88471   9.410  11.355   3.765
23245W        W88472   9.577  19.924  14.032
23246W        W88473  43.394  35.550  14.723
23247W        W88474   6.234  23.496   3.681
23248W        W88475   1.701  34.111  14.246
23249W        W88476  37.426  11.944   2.213
23250W        W88477   5.244  34.825  13.894
23251W        W88478  37.948   1.602   3.700
23252W        W88479   1.884  39.821   0.991
23253W        W88480  32.764  41.801  14.490
23254W        W88481  39.631  21.141   4.317
23255W        W88482  27.916  36.466  11.502
23256W        W88483  15.159  41.405   3.635
23257W        W88484  44.475  36.844   1.427
23258W        W88485   8.311   6.418  10.605
23259W        W88486  33.113  33.804   0.433
23260W        W88487  10.022  35.035  11.218
23261W        W88488  22.013  40.447   2.387
23262W        W88489   7.740  18.433   1.901
23263W        W88490   9.729  15.090  12.501
23264W        W88491  27.134   0.222   3.015
23265W        W88492  31.397  19.624  13.543
23266W        W88493   6.495  40.047  14.503
23267W        W88494  24.244  22.591  14.731
23268W        W88495  13.245  11.228  13.492
23269W        W88496  26.123  32.854  11.493
23270W        W88497   3.492  37.176  12.379
23271W        W88498  31.663   5.268   2.265
23272W        W88499  34.669  13.171  12.384
23273W        W88500  29.415  34.944  11.881
23274W        W88501   9.050  12.488  12.980
23275W        W88502  36.662   1.229   1.695
23276W        W88503  43.916  36.574   2.311
23277W        W88504  12.125  27.185   4.528
23278W        W88505  13.670   2.985   2.211
23279W        W88506  17.622  26.687   4.930
23280W        W88507   6.333  10.671   4.330
23281W        W88508  38.423  19.971   2.344
23282W        W88509  20.751   7.455   2.912
23283W        W88510  38.412  35.057   0.971
23284W        W88511  42.294  32.518   0.738
23285W        W88512  24.609  33.876   0.487
23286W        W88513  27.211  10.628  12.442
23287W        W88514  21.591  17.487  14.015
23288W        W88515  28.040   8.861  12.130
23289W        W88516  21.779  28.520   3.415
23290W        W88517  22.185  38.328  13.446
23291W        W88518   2.402   3.479  14.882
23292W        W88519  28.720   1.731   3.114
23293W        W88520  43.196  16.830  12.692
23294W        W88521  27.238  15.419   2.240
23295W        W88522  17.035   8.446  12.927
23296W        W88523  23.768  39.834   1.745
23297W        W88524  37.911   3.643   2.549
23298W        W88525   1.663  28.113  11.012
23299W        W88526   2.459  13.373  14.420
23300W        W88527   2.342  44.675  13.809
23301W        W88528  42.277  23.506  13.425
23302W        W88529  41.075  24.621   3.668
23303W        W88530  21.663  23.237  13.204
23304W        W88531   6.577  32.176  11.650
23305W        W88532  42.825   6.402  13.215
23306W        W88533   8.687  24.621   4.158
23307W        W88534  21.203  43.721  14.139
23308W        W88535  17.596  32.072   2.927
23309W        W88536  35.475  29.697   4.365
23310W        W88537  38.354   8.949  14.957
23311W        W88538  16.788  44.410   1.603
23312W        W88539  37.222  30.452  10.718
23313W        W88540  39.194  26.068   1.725
23314W        W88541  32.263  12.333  10.169
23315W        W88542  38.468  29.832   1.598
23316W        W88543  33.482  20.348  14.866
23317W        W88544   3.368  34.556  11.920
23318W        W88545  19.377   1.539  13.741
23319W        W88546   4.141  35.880  14.342
23320W        W88547   2.922  25.780   3.187
23321W        W88548  32.134  42.764  12.603
23322W        W88549  14.334   4.683  11.966
23323W        W88550  31.293  25.502   3.432
23324W        W88551  33.455  26.404  14.775
23325W        W88552  17.775  18.941  12.882
23326W        W88553  22.136  35.817  11.802
23327W        W88554   5.375  44.604   4.068
23328W        W88555  30.183  41.860   4.558
23329W        W88556   6.507  30.640  11.498
23330W        W88557  13.165  14.680  10.458
23331W        W88558  31.106  21.756  13.979
23332W        W88559  42.151  20.635  11.156
23333W        W88560  16.299  16.572   1.847
23334W        W88561   5.553  18.767  11.130
23335W        W88562  26.316  21.937  11.124
23336W        W88563  17.076  16.432   2.855
23337W        W88564  42.421  36.807  14.064
23338W        W88565  43.091  19.729   0.395
23339W        W88566   3.120   2.367  14.879
23340W        W88567  20.637  14.144   1.923
23341W        W88568  23.465   3.393  11.696
23342W        W88569  44.479  14.683   3.584
23343W        W88570  41.747  12.643  10.711
23344W        W88571  14.476  12.736  14.405
23345W        W88572  27.158   4.688   1.333
23346W        W88573  42.040  15.150   4.325
23347W        W88574  17.586  17.734  12.024
23348W        W88575   5.732  20.948   3.756
23349W        W88576   1.724  20.100  13.452
23350W        W88577  30.031  35.956  11.033
23351W        W88578   0.361   3.368  10.924
23352W        W88579  26.071  22.144   0.977
23353W        W88580  44.730  28.995  12.014
23354W        W88581  27.239  35.489  12.013
23355W        W88582  10.612  18.074   1.651
23356W        W88583  43.832   1.998   2.987
23357W        W88584  21.293  34.918  11.919
23358W        W88585  36.336  21.703  11.921
23359W        W88586  40.784  43.277   3.273
23360W        W88587  11.829  24.127  13.697
23361W        W88588  38.530  16.781  12.398
23362W        W88589   1.766  14.298   2.411
23363W        W88590  25.665  16.166  11.491
23364W        W88591   2.469  44.404   3.674
23365W        W88592  42.617  14.607  11.804
23366W        W88593  24.628  23.740   0.439
23367W        W88594  24.575  11.186  12.940
23368W        W88595   9.605  34.893  13.504
23369W        W88596   5.417  18.845   4.531
23370W        W88597   3.003  44.335   1.910
23371W        W88598  38.801  39.061  14.796
23372W        W88599  15.718  24.006  14.962
23373W        W88600  35.612  14.123  14.437
23374W        W88601   7.666  39.718   3.703
23375W        W88602   1.186   6.736  13.405
23376W        W88603   3.245  17.063   3.257
23377W        W88604  27.984  36.292  14.338
23378W        W88605  14.315  20.112   4.827
23379W        W88606  13.510  31.654  13.080
23380W        W88607  29.048  32.881  14.280
23381W        W88608  14.599  21.670   2.197
23382W        W88609   1.418   4.152   1.789
23383W        W88610  30.901  23.497  10.617
23384W        W88611  32.975   5.339   3.260
23385W        W88612  11.600  27.675   3.744
23386W        W88613  18.121  42.082   3.204
23387W        W88614  44.103  19.798  14.880
23388W        W88615   9.855  17.587   0.439
23389W        W88616  36.434  22.720  12.665
23390W        W88617   0.298   9.453   0.821
23391W        W88618  19.646  19.507  10.704
23392W        W88619  30.260  22.548   0.632
23393W        W88620   4.105  34.784   3.470
23394W        W88621  22.723  37.133   5.009
23395W        W88622  39.856  25.295   3.121
23396W        W88623  41.917  18.161   3.589
23397W        W88624  13.817  41.980   3.694
23398W        W88625   0.309  44.519   4.971
23399W        W88626  20.253  16.207  12.419
23400W        W88627   8.404  29.245   3.534
23401W        W88628  36.382  41.941   4.806
23402W        W88629  44.232  35.298  11.456
23403W        W88630  20.233  38.326   0.587
23404W        W88631   1.471  32.085   5.082
23405W        W88632  31.483  25.586  12.875
23406W        W88633  19.227  37.204   2.237
23407W        W88634  18.368  38.054   1.780
23408W        W88635   6.199  29.654   4.554
23409W        W88636   1.351  12.138  14.789
23410W        W88637  35.591  36.313   4.089
23411W        W88638   2.481  12.869  14.400
23412W        W88639  20.595   3.054   2.696
23413W        W88640   2.834  28.916   0.261
23414W        W88641  12.066  10.035   3.113
23415W        W88642   2.153  20.647  14.271
23416W        W88643  35.631  22.150  11.086
23417W        W88644  43.299  16.455  13.546
23418W        W88645  30.585   3.766  11.989
23419W        W88646  21.698  22.700   4.360
23420W        W88647  25.796   5.684  13.697
23421W        W88648  35.186   3.378  13.462
23422W        W88649  30.874  31.835   3.187
23423W        W88650   8.131  35.795  12.132
23424W        W88651   7.720  35.345   0.214
23425W        W88652  27.766   2.088  13.933
23426W        W88653   0.010  14.788   4.710
23427W        W88654  38.295  37.503   9.962
23428W        W88655   1.344  23.633  11.950
23429W        W88656  42.273  41.478   3.354
23430W        W88657  44.582  21.959   4.060
23431W        W88658  27.705  14.743  13.573
23432W        W88659  26.274  27.471   4.547
23433W        W88660  30.677   2.853   2.160
23434W        W88661  11.691   6.347  12.802
23435W        W88662  22.305  32.385   1.663
23436W        W88663  15.349   6.625  14.070
23437W        W88664  41.882  30.208  13.046
23438W        W88665   0.734  35.089   0.918
23439W        W88666   7.726  22.042   2.209
23440W        W88667  39.874  13.098  12.177
23441W        W88668  34.922  28.952   3.384
23442W        W88669   3.455  43.084   0.905
23443W        W88670  26.909  36.273  11.552
23444W        W88671   5.525  24.882   4.712
23445W        W88672  37.518  44.899   4.801
23446W        W88673  17.579  41.875   0.292
23447W        W88674  15.721  24.539  14.939
23448W        W88675   2.133  12.331  14.053
23449W        W88676  16.137  28.898  13.136
23450W        W88677  31.921   4.017   1.633
23451W        W88678  34.169  11.027   9.645
23452W        W88679  21.532   0.479  10.626
23453W        W88680  34.961  38.974   3.284
23454W        W88681  26.888  40.277   4.105
23455W        W88682  21.951   9.651  14.521
23456W        W88683  41.779  41.524  13.877
23457W        W88684  11.035   0.248   1.097
23458W        W88685  30.879  34.411   0.225
23459W        W88686   0.446  31.873   3.648
23460W        W88687  42.546  23.728   0.435
23461W        W88688   1.358   7.935   1.399
23462W        W88689  42.216  41.123   1.236
23463W        W88690  25.973  20.337  10.479
23464W        W88691   0.834  39.919  13.429
23465W        W88692  38.810  19.516   0.397
23466W        W88693  42.288  39.115   0.822
23467W        W88694  28.507  44.445   3.731
23468W        W88695  16.598  38.267  11.714
23469W        W88696  14.786  21.114   0.507
23470W        W88697  30.575  24.476   0.078
23471W        W88698  43.657   5.618  13.015
23472W        W88699  43.340  23.266   4.644
23473W        W88700  18.983  23.293   2.300
23474W        W88701   2.926   8.507   2.862
23475W        W88702  28.122  39.189   2.793
23476W        W88703  10.867  24.909   2.210
23477W        W88704  42.947  15.010   0.424
23478W        W88705  17.214  12.600  12.237
23479W        W88706  24.999  33.368   2.122
23480W        W88707  34.201  30.401  11.121
23481W        W88708  27.561   9.708  14.067
23482W        W88709  42.244  10.192  13.751
23483W        W88710   4.657   3.782   2.795
23484W        W88711  18.265  35.544  13.479
23485W        W88712  15.667  18.661  12.291
23486W        W88713  20.540  30.856   0.848
23487W        W88714  34.478  14.367   1.360
23488W        W88715  19.013  24.938  13.481
23489W        W88716  15.752  34.518   0.297
23490W        W88717  37.530   1.669  11.155
23491W        W88718  40.828  28.983  14.665
23492W        W88719  36.726   7.404   2.359
23493W        W88720   8.842  28.590  12.577
23494W        W88721  10.366  43.774  13.378
23495W        W88722  35.067  25.984  13.637
23496W        W88723   3.319  12.661   0.383
23497W        W88724  13.546  16.783  12.426
23498W        W88725  36.086  20.811  14.507
23499W        W88726  26.822   4.926  10.862
23500W        W88727  18.066  34.561  11.098
23501W        W88728  35.882  23.772  12.515
23502W        W88729  27.536  25.043   1.831
23503W        W88730  22.177  35.840   0.437
23504W        W88731  11.843  19.729   0.485
23505W        W88732  14.778  30.534  14.070
23506W        W88733  10.342   8.211   4.539
23507W        W88734  44.016  35.116  14.349
23508W        W88735  34.081  20.195   1.858
23509W        W88736  37.310  42.260  12.495
23510W        W88737  17.134   7.156   9.897
23511W        W88738  10.096  27.524   2.370
23512W        W88739  16.392   5.470  12.523
23513W        W88740  28.775   0.474   0.837
23514W        W88741  44.682  42.954  13.522
23515W        W88742  13.120  22.262   2.756
23516W        W88743  37.972  25.061  12.341
23517W        W88744  30.763  35.909  12.438
23518W        W88745  35.184  15.833   0.341
23519W        W88746  11.649  27.911  14.737
23520W        W88747  30.498  41.106  11.241
23521W        W88748   7.457  16.330  12.152
23522W        W88749  37.824  44.418  13.759
23523W        W88750  22.373  29.205   2.196
23524W        W88751  34.333  14.126  12.558
23525W        W88752  42.504  11.593  11.120
23526W        W88753  39.776  32.043  12.929
23527W        W88754  11.863  30.862   2.864
23528W        W88755  11.347  29.767  14.859
23529W        W88756  29.495  24.080   2.881
23530W        W88757  30.271  28.807  12.941
23531W        W88758   3.873  10.355   1.204
23532W        W88759  39.273  42.394   0.980
23533W        W88760   0.901   2.896   1.728
23534W        W88761   9.348  12.917  12.963
23535W        W88762  38.988  43.012   0.221
23536W        W88763  40.453  18.579   4.664
23537W        W88764   2.714  30.558  14.002
23538W        W88765  22.142  27.125   1.995
23539W        W88766  29.436   1.209   4.284
23540W        W88767  19.864  27.461   2.840
23541W        W88768   2.734  44.828   2.786
23542W        W88769  17.511  26.797  14.449
23543W        W88770  31.621  15.652   3.238
23544W        W88771  13.694  44.530  11.202
23545W        W88772  22.912   8.666   1.517
23546W        W88773  33.905  40.907   4.683
23547W        W88774  19.397  13.451  12.977
23548W        W88775  41.248  24.315  11.221
23549W        W88776  15.239  38.790   3.196
23550W        W88777  25.017  39.526  14.616
23551W        W88778  25.902  44.916   1.712
23552W        W88779  44.029  30.991   1.908
23553W        W88780  27.320   5.020  12.548
23554W        W88781  24.966   0.229  13.986
23555W        W88782  10.942  35.426   4.084
23556W        W88783   4.797  28.899  12.606
23557W        W88784  14.345  14.676  12.972
23558W        W88785  21.785  36.027   2.763
23559W        W88786  26.680  23.999  10.688
23560W        W88787  17.262  33.235  11.104
23561W        W88788  26.085  24.287   3.690
23562W        W88789   2.668  34.443   2.824
23563W        W88790  34.419   2.964   2.813
23564W        W88791  10.669  15.980   4.723
23565W        W88792  15.512  37.456  14.854
23566W        W88793  11.696  26.574   2.460
23567W        W88794  20.285  35.970  11.144
23568W        W88795  41.827   8.905   2.443
23569W        W88796  30.505  12.922  11.577
23570W        W88797  37.299  10.393   0.010
23571W        W88798   0.857  34.950   3.833
23572W        W88799  39.547  27.446  11.547
23573W        W88800   2.138  17.595  12.365
23574W        W88801  20.986  37.526  14.386
23575W        W88802  12.261  39.118  12.608
23576W        W88803  21.260  44.308   2.131
23577W        W88804  22.061  23.256  11.403
23578W        W88805  10.182  17.020   0.838
23579W        W88806  32.491  28.314   3.645
23580W        W88807  40.647  19.528  14.014
23581W        W88808  24.573  11.548  12.042
23582W        W88809  22.136  26.983   1.487
23583W        W88810   9.444  44.915  12.192
23584W        W88811   2.439  22.527  13.260
23585W        W88812  28.950  22.120   4.085
23586W        W88813   0.818  10.271   2.762
23587W        W88814  37.577  29.651  13.031
23588W        W88815  24.341  39.942   3.689
23589W        W88816  31.651  21.590  11.340
23590W        W88817  30.482   5.164   3.208
23591W        W88818  41.405  36.567  14.325
23592W        W88819   7.229   9.799   1.487
23593W        W88820  32.427   1.406   1.050
23594W        W88821   1.378  40.418  11.732
23595W        W88822  37.369  12.228  13.945
23596W        W88823  24.499  35.538   0.762
23597W        W88824   2.358  19.045  12.863
23598W        W88825  22.606   0.200  12.571
23599W        W88826   5.098  24.588   2.654
23600W        W88827  36.394  25.949   3.648
23601W        W88828  15.416  14.292   3.708
23602W        W88829   6.265  39.616   0.880
23603W        W88830  37.296   7.838  14.808
23604W        W88831  29.434  33.363  13.158
23605W        W88832  44.526  21.329  11.690
23606W        W88833  18.184  28.080  14.484
23607W        W88834  37.351  16.570   4.492
23608W        W88835   7.240  15.745  14.543
23609W        W88836  16.181  11.183  10.742
23610W        W88837  33.957  15.113  11.460
23611W        W88838   5.113  38.011   1.483
23612W        W88839  35.985  25.805  12.993
23613W        W88840  12.606  16.862   0.734
23614W        W88841  34.527  44.351  13.045
23615W        W88842   4.666  24.683  13.016
23616W        W88843  19.160  37.373  10.574
23617W        W88844   7.831  43.766  13.892
23618W        W88845  14.329  20.270   2.760
23619W        W88846  21.165  22.946  10.925
23620W        W88847   0.109   0.127   4.189
23621W        W88848  29.898  29.570  11.713
23622W        W88849  10.360  29.452  11.112
23623W        W88850  30.471  16.609  14.537
23624W        W88851  32.988   2.733   4.389
23625W        W88852  38.356  40.704  14.850
23626W        W88853  38.454  21.555   3.071
23627W        W88854  23.152  13.728   3.096
23628W        W88855   4.869   3.857   2.174
23629W        W88856   8.003   1.868   1.414
23630W        W88857  13.422  44.675  12.032
23631W        W88858  33.236  24.948  13.034
23632W        W88859  32.633  16.033   2.671
23633W        W88860  41.142  34.576   1.892
23634W        W88861  39.443  43.486  12.925
23635W        W88862  39.816   8.826   3.810
23636W        W88863  26.491  22.618   2.401
23637W        W88864  19.910   3.279   5.474
23638W        W88865  22.698  27.958  10.032
23639W        W88866   0.799  30.457  12.187
23640W        W88867  19.700  29.454   3.931
23641W        W88868   2.745  34.624   1.855
23642W        W88869  21.000  23.817   3.716
23643W        W88870  14.600  32.896   2.754
23644W        W88871  17.689  10.575   3.318
23645W        W88872  34.393  11.394  10.961
23646W        W88873  31.920  19.249   1.870
23647W        W88874  40.765  34.097  11.603
23648W        W88875   6.720   1.458   4.264
23649W        W88876  15.105  25.261   4.374
23650W        W88877  44.920  13.213   1.339
23651W        W88878  10.934  17.269  14.743
23652W        W88879  27.787  20.765  11.932
23653W        W88880  32.828   4.952  10.486
23654W        W88881  15.776  38.108   3.815
23655W        W88882  43.753  29.670   0.253
23656W        W88883  34.144  12.771   3.548
23657W        W88884   9.053  29.610  13.041
23658W        W88885  16.083  22.187   4.629
23659W        W88886   3.805   7.370   2.375
23660W        W88887   9.391  21.298   3.134
23661W        W88888  44.869  27.743   2.005
23662W        W88889   2.245  10.356   2.739
23663W        W88890  30.915   6.916   4.225
23664W        W88891   5.733  27.770  13.298
23665W        W88892   0.626  36.694   1.642
23666W        W88893   1.332   1.409  13.346
23667W        W88894  27.815  18.106   4.453
23668W        W88895  12.035  25.030  11.366
23669W        W88896  30.047  34.419   4.516
23670W        W88897  11.725  29.476  10.713
23671W        W88898   4.082  15.765  11.663
23672W        W88899  15.744   7.432  14.536
23673W        W88900  22.315  42.552   4.379
23674W        W88901  30.818  29.106  10.369
23675W        W88902  24.642  16.116  11.615
23676W        W88903  11.348  36.938  11.132
23677W        W88904   0.944   0.466   0.811
23678W        W88905  28.557  32.947   1.752
23679W        W88906  16.987  35.129   4.450
23680W        W88907  25.712  36.374   3.321
23681W        W88908  28.169  19.317  13.607
23682W        W88909  23.423   8.802   2.321
23683W        W88910  42.858  38.000   1.240
23684W        W88911  18.772  24.015   3.890
23685W        W88912   4.454   7.918  12.828
23686W        W88913   9.147   0.466  10.627
23687W        W88914  20.274  14.102  13.126
23688W        W88915   4.151  11.213  10.637
23689W        W88916  40.510   9.782  13.371
23690W        W88917  11.452  20.600  11.609
23691W        W88918  11.353  24.850   3.671
23692W        W88919  33.287  26.106   2.423
23693W        W88920   1.767  17.331  11.998
23694W        W88921  24.453  19.508   0.261
23695W        W88922  15.552  38.306   2.897
23696W        W88923  41.600  37.329  13.335
23697W        W88924  32.572   0.859  13.434
23698W        W88925  30.081   0.005  10.704
23699W        W88926  18.687  31.385  13.629
23700W        W88927  35.918  13.544   0.776
23701W        W88928   1.258  12.643   4.518
23702W        W88929  43.488  19.004   3.094
23703W        W88930  27.430  21.706   3.120
23704W        W88931  15.839   6.275  14.923
23705W        W88932  14.232  17.174   4.990
23706W        W88933  11.823  25.129   2.684
23707W        W88934  27.977   6.006   4.805
23708W        W88935   4.773  10.160  14.106
23709W        W88936  39.483  10.732   3.406
23710W        W88937   2.418  29.036  14.482
23711W        W88938  41.819   7.422   2.659
23712W        W88939  42.059  42.287  11.162
23713W        W88940  28.633  24.500   3.782
23714W        W88941  33.376  35.891  14.377
23715W        W88942  24.906  32.753  11.205
23716W        W88943   6.330  44.517   4.506
23717W        W88944  29.895  12.125  13.017
23718W        W88945  38.961  39.139   1.617
23719W        W88946  17.775  42.740   2.997
23720W        W88947  21.981  25.171  13.566
23721W        W88948  31.216  38.977   3.202
23722W        W88949  34.611  31.194  10.811
23723W        W88950  26.226  19.516   0.459
23724W        W88951  23.542  40.060   2.153
23725W        W88952  24.651   1.439   0.237
23726W        W88953  40.013   2.364   4.500
23727W        W88954   7.967   0.384  14.044
23728W        W88955  43.325  29.903   2.742
23729W        W88956  21.851  33.495  12.015
23730W        W88957  17.371  19.701  12.763
23731W        W88958  32.426  33.664   0.845
23732W        W88959  27.708  32.041   3.520
23733W        W88960  11.681  33.497  13.843
23734W        W88961  16.207  43.822  11.790
23735W        W88962  20.010  39.256  12.057
23736W        W88963  39.882  20.441  12.066
23737W        W88964  33.503  27.050   4.936
23738W        W88965  43.269  11.058   3.288
23739W        W88966  26.994  30.608   0.389
23740W        W88967  17.502   7.765   0.667
23741W        W88968  43.726  29.533   3.622
23742W        W88969  29.661  34.476  11.151
23743W        W88970   3.433  12.638   2.673
23744W        W88971  20.772  12.612  11.511
23745W        W88972  24.562  20.986  12.991
23746W        W88973  33.585  44.965  10.951
23747W        W88974  27.123   1.721   9.958
23748W        W88975  15.860  29.575   4.813
23749W        W88976  18.391   4.721  12.981
23750W        W88977  38.406  17.236  13.879
23751W        W88978  44.885   6.265   0.131
23752W        W88979   1.405  36.706   1.250
23753W        W88980  35.523  10.318  13.542
23754W        W88981  37.107   3.023  14.043
23755W        W88982  11.881   0.378  14.405
23756W        W88983  26.237  17.333  14.709
23757W        W88984  28.073  17.225  14.834
23758W        W88985  21.778  26.570  10.640
23759W        W88986   5.478  37.842  13.264
23760W        W88987  34.456   4.882  10.406
23761W        W88988   5.439  16.734   1.836
23762W        W88989  16.777  31.223  14.356
23763W        W88990  20.033   3.638  11.135
23764W        W88991  27.999  22.785   0.836
23765W        W88992  15.071  14.083  12.102
23766W        W88993  44.448  43.006   0.336
23767W        W88994  32.931  28.954   2.281
23768W        W88995  19.135  16.810  11.128
23769W        W88996   2.920  25.266   3.191
23770W        W88997  12.669  25.182  13.099
23771W        W88998   9.788  18.762  11.684
23772W        W88999  32.412   0.323   4.575
23773W        W89000   6.930  44.812   2.726
23774W        W89001  37.644  11.712  11.402
23775W        W89002  29.789  21.491   2.176
23776W        W89003  15.279  44.009   4.691
23777W        W89004  11.972  14.033   9.789
23778W        W89005  23.479   3.648   0.400
23779W        W89006  24.913   5.427  10.695
23780W        W89007   4.586  10.258  13.088
23781W        W89008  16.641   1.120  14.866
23782W        W89009   4.662  12.715  11.208
23783W        W89010  27.628   3.974   2.906
23784W        W89011  23.434   5.309   3.991
23785W        W89012  33.958   8.382  14.909
23786W        W89013  33.644  33.302  10.290
23787W        W89014  38.438  11.434  12.830
23788W        W89015  13.300  19.732  14.445
23789W        W89016  38.471  37.170   0.938
23790W        W89017  30.005   3.347   0.027
23791W        W89018  28.401  15.974   3.246
23792W        W89019  29.372  21.819  11.179
23793W        W89020   2.590  29.926   2.379
23794W        W89021  30.226  30.952   4.307
23795W        W89022  35.178  22.339   2.348
23796W        W89023  14.383   7.303  11.557
23797W        W89024  31.182  18.634  11.645
23798W        W89025   9.817  43.877  11.221
23799W        W89026   8.277  41.603  10.610
23800W        W89027  30.924  33.905  14.303
23801W        W89028  42.448  13.061   2.250
23802W        W89029  10.919  42.954  14.888
23803W        W89030   4.314  39.337   2.740
23804W        W89031  36.976   0.494   4.517
23805W        W89032  22.959  20.599  13.059
23806W        W89033  18.750  32.840   3.931
23807W        W89034   5.917  21.464  13.792
23808W        W89035  10.112  20.157   2.012
23809W        W89036  44.306  30.089  10.662
23810W        W89037   2.563  10.104   5.037
23811W        W89038  29.440  16.206  12.225
23812W        W89039  11.543  17.879  14.398
23813W        W89040  37.629  15.778  12.567
23814W        W89041   8.814   2.176   0.846
23815W        W89042  44.502   8.416  13.428
23816W        W89043  19.775  21.076  11.652
23817W        W89044   7.512  29.031  13.728
23818W        W89045  20.100  40.021  10.890
23819W        W89046  12.184  31.138   0.189
23820W        W89047  33.838  10.354  12.541
23821W        W89048  36.542   0.528   3.738
23822W        W89049  15.734  31.047  10.790
23823W        W89050  31.138   1.982  13.505
23824W        W89051   4.569  18.972  12.930
23825W        W89052  11.393  33.377   2.239
23826W        W89053  31.646  26.958   0.292
23827W        W89054   0.814  28.337  13.257
23828W        W89055  23.686  27.681   3.377
23829W        W89056  39.714   7.377   5.004
23830W        W89057  12.777   4.962   0.306
23831W        W89058  11.640  12.063   3.714
23832W        W89059  41.297  39.883  14.124
23833W        W89060  31.093  18.517   0.961
23834W        W89061  16.728   4.614  14.351
23835W        W89062   8.386  29.685   0.248
23836W        W89063   3.269  18.922   2.501
23837W        W89064   7.887  43.818   3.706
23838W        W89065  27.623   6.467  14.499
23839W        W89066   8.162  17.776   0.891
23840W        W89067  16.616   8.119  12.933
23841W        W89068  15.155  41.020  13.340
23842W        W89069  29.995  20.336  14.359
23843W        W89070  15.023   9.262  11.651
23844W        W89071   4.018  16.462  11.107
23845W        W89072  32.618  19.229   3.262
23846W        W89073  43.127  39.799   0.471
23847W        W89074  24.876  34.874   1.902
23848W        W89075  24.505  12.852   0.323
23849W        W89076   3.820  22.640  11.540
23850W        W89077   9.682  41.495   1.379
23851W        W89078  18.151  16.267   3.199
23852W        W89079   1.548  16.292  14.660
23853W        W89080  18.212  40.045   4.961
23854W        W89081  27.526  28.202   3.928
23855W        W89082  29.248  37.651  11.717
23856W        W89083   6.778  10.121   4.363
23857W        W89084  24.197   8.769  13.840
23858W        W89085   6.471  25.068   4.023
23859W        W89086  10.839  39.954   3.298
23860W        W89087  16.953  29.741   2.758
23861W        W89088  35.519  11.473  11.417
23862W        W89089  41.917   8.703  10.802
23863W        W89090   9.114   3.247   1.843
23864W        W89091  34.949  22.428   1.464
23865W        W89092  39.032  41.520  13.435
23866W        W89093  15.011  32.487   4.135
23867W        W89094   7.823  15.693  14.576
23868W        W89095  38.227  11.219  12.003
23869W        W89096  13.257  36.790   1.786
23870W        W89097  32.811  10.266  14.770
23871W        W89098  27.709  41.033  10.679
23872W        W89099   4.391  10.268   0.391
23873W        W89100   1.190  24.063  10.242
23874W        W89101  11.568  24.998  11.121
23875W        W89102  19.620  42.956   3.190
23876W        W89103  23.556  11.601  13.778
23877W        W89104   8.690  38.063   4.200
23878W        W89105  17.888   1.478   3.759
23879W        W89106  36.562  36.834  13.944
23880W        W89107  20.252  35.968  12.541
23881W        W89108   6.995  24.091  14.302
23882W        W89109   1.797  13.905   4.083
23883W        W89110  16.062   0.344  12.937
23884W        W89111  34.547  26.193  12.910
23885W        W89112  32.200  38.038  11.663
23886W        W89113  34.903  10.565   5.033
23887W        W89114   9.624  21.284   0.712
23888W        W89115  25.700  12.838  12.037
23889W        W89116  40.600  33.168   1.819
23890W        W89117   3.937  40.747   3.870
23891W        W89118  27.606  26.150   4.311
23892W        W89119  44.800   5.974  10.451
23893W        W89120  19.565  23.830  11.092
23894W        W89121  41.695  19.015   0.264
23895W        W89122  21.149  43.270  13.915
23896W        W89123  31.876   5.349  13.082
23897W        W89124  13.663   2.281  10.489
23898W        W89125  29.854  10.973   3.242
23899W        W89126   5.826   9.772  13.906
23900W        W89127  18.362  32.502   2.304
23901W        W89128  44.956   0.839   4.179
23902W        W89129  36.291   9.402  10.898
23903W        W89130  12.113  42.937   4.428
23904W        W89131  10.437  15.182  13.775
23905W        W89132  23.987  32.546  12.491
23906W        W89133  15.794  17.621   2.204
23907W        W89134  14.200   0.905   3.040
23908W        W89135   4.428   6.772   1.131
23909W        W89136  14.344  36.918  14.521
23910W        W89137  29.339  31.383   1.485
23911W        W89138  39.294  39.072  14.939
23912W        W89139  25.035   9.084  12.403
23913W        W89140   1.173  38.013   4.528
23914W        W89141   6.818  17.605  11.068
23915W        W89142  30.952  25.676   1.434
23916W        W89143  12.112  26.260   3.261
23917W        W89144  43.459  41.992   2.245
23918W        W89145  37.359  38.548  12.867
23919W        W89146  17.774  37.002   0.335
23920W        W89147  18.619  14.278  14.917
23921W        W89148  18.717  10.865  13.862
23922W        W89149  25.317  31.911   1.269
23923W        W89150  21.668  17.163   2.818
23924W        W89151  18.874  31.902   3.733
23925W        W89152  30.407   1.029   4.169
23926W        W89153  39.782  42.551   2.841
23927W        W89154  38.789  33.327   2.729
23928W        W89155  44.699   9.712  11.278
23929W        W89156  33.480   8.774  12.350
23930W        W89157  27.823   4.660  10.819
23931W        W89158  30.365  23.758  10.638
23932W        W89159  37.522  32.120  13.532
23933W        W89160  35.458  32.290   1.811
23934W        W89161  10.681  36.106  14.326
23935W        W89162  18.315  35.877  13.057
23936W        W89163  31.978  24.210   3.175
23937W        W89164  12.408  10.183   1.786
23938W        W89165  30.429  41.862   2.835
23939W        W89166   3.870   4.201   1.405
23940W        W89167  29.045   5.015   1.426
23941W        W89168   9.680   2.535  13.661
23942W        W89169   2.520  24.925   2.281
23943W        W89170  27.870  26.601   1.827
23944W        W89171  25.025  34.375   1.827
23945W        W89172   4.654   1.235   0.772
23946W        W89173  36.155  11.315  13.153
23947W        W89174  22.487  37.443   4.673
23948W        W89175  29.392  29.045   1.823
23949W        W89176  23.150  44.764   1.248
23950W        W89177  35.477  14.152  12.098
23951W        W89178  37.304  10.533   4.537
23952W        W89179   3.255  38.781  10.172
23953W        W89180  30.063  24.892   3.703
23954W        W89181  13.614   8.250  13.899
23955W        W89182   8.479  20.159  11.621
23956W        W89183  36.335   4.771  11.936
23957W        W89184  25.639  18.788  11.236
23958W        W89185   2.265  17.088  12.503
23959W        W89186  24.983  33.065   0.800
23960W        W89187  20.090  14.322   0.767
23961W        W89188  14.141   3.151  13.976
23962W        W89189   9.705  24.975   3.663
23963W        W89190  12.618  42.629  13.779
23964W        W89191  38.036  23.058  12.075
23965W        W89192  34.400  12.148   4.154
23966W        W89193   6.362  14.565  11.230
23967W        W89194   3.710   6.156  12.432
23968W        W89195  43.898  41.822  14.196
23969W        W89196  26.493  39.867  12.871
23970W        W89197  17.055  27.437   3.272
23971W        W89198  39.115  30.173  10.635
23972W        W89199  22.107  27.931  12.529
23973W        W89200  15.831  43.551   3.245
23974W        W89201   7.351   4.388  10.479
23975W        W89202  36.974  19.278  11.001
23976W        W89203  29.569  31.480   4.029
23977W        W89204  34.109  26.701   4.551
23978W        W89205  13.284  21.577   5.102
23979W        W89206  19.929  31.212   2.357
23980W        W89207   8.689  32.080   1.022
23981W        W89208  10.117  29.085   4.662
23982W        W89209  17.120   2.174  11.684
23983W        W89210  40.151   4.511   2.520
23984W        W89211  40.299  15.797  13.453
23985W        W89212  32.027  39.464  10.117
23986W        W89213   8.256  24.626  12.492
23987W        W89214   0.609  37.705   1.645
23988W        W89215  35.268   2.884   0.750
23989W        W89216   1.895  39.317   4.173
23990W        W89217  17.296  27.401   0.813
23991W        W89218  24.564  41.787   0.440
23992W        W89219   0.959  20.828  11.714
23993W        W89220  27.242  20.806   4.367
23994W        W89221   6.169  34.945  13.787
23995W        W89222  31.469   6.639  11.580
23996W        W89223  24.553  37.920   4.132
23997W        W89224  17.401  32.000  14.651
23998W        W89225  16.708  22.524   3.610
23999W        W89226  20.593  36.922   3.597
24000W        W89227  36.844  38.151  14.250
24001W        W89228  32.925  30.901   4.087
24002W        W89229  10.166  13.180  12.577
24003W        W89230  24.438  27.100  11.992
24004W        W89231   7.415  30.403  13.863
24005W        W89232  13.888  33.991  12.373
24006W        W89233  39.117  38.034   4.181
24007W        W89234  39.044   2.987  10.483
24008W        W89235  18.306   8.926   0.718
24009W        W89236  38.820  29.695   3.281
24010W        W89237  10.869  10.158  12.886
24011W        W89238  19.158  26.450  13.601
24012W        W89239  42.520  11.589  14.859
24013W        W89240  43.837  17.062   4.100
24014W        W89241   1.420  31.026   4.365
24015W        W89242  34.340  36.950  14.390
24016W        W89243  12.908  13.114   2.992
24017W        W89244  44.730  38.454  11.166
24018W        W89245   5.164   5.554   3.176
24019W        W89246  27.671  11.648  14.287
24020W        W89247   2.815   1.572   2.349
24021W        W89248  22.213  38.935   2.244
24022W        W89249   4.737  20.657   3.422
24023W        W89250  15.613  24.787  11.587
24024W        W89251   4.053  42.581   2.732
24025W        W89252   1.316  13.832   2.167
24026W        W89253  29.461  16.191  12.739
24027W        W89254  17.721  22.248   3.669
24028W        W89255   3.378  20.472  10.893
24029W        W89256  10.007  40.306  12.502
24030W        W89257  36.438   9.076   3.149
24031W        W89258   4.908   4.147  12.030
24032W        W89259  14.581  29.891  14.934
24033W        W89260  38.294   1.043   4.769
24034W        W89261   5.716  40.214  12.320
24035W        W89262   8.718  14.228   4.922
24036W        W89263  22.561  13.347   0.325
24037W        W89264  14.164  41.528  10.988
24038W        W89265   4.356  19.591  13.480
24039W        W89266  10.031   6.717   1.398
24040W        W89267  43.556  16.808  13.959
24041W        W89268  30.599  24.877  10.950
24042W        W89269  10.744  44.035  12.509
24043W        W89270  22.202  35.582   3.654
24044W        W89271   0.333   1.718  11.219
24045W        W89272   1.344   3.791   3.642
24046W        W89273  41.596   3.254  12.450
24047W        W89274  43.004  15.658   1.194
24048W        W89275  12.663   5.690   4.660
24049W        W89276  30.900   4.706  11.757
24050W        W89277  20.260  36.826   4.044
24051W        W89278  10.648  34.009   1.716
24052W        W89279  25.950  39.440   3.208
24053W        W89280  43.433  44.500   4.639
24054W        W89281   2.137  35.523   4.204
24055W        W89282  12.205  28.194  11.813
24056W        W89283  11.725  24.140   1.356
24057W        W89284  40.965   7.442   4.732
24058W        W89285   5.204   5.316   1.917
24059W        W89286  20.295  20.107  10.723
24060W        W89287  15.405  42.001   1.266
24061W        W89288  30.241  36.029   1.715
24062W        W89289   9.419   4.432  14.844
24063W        W89290  43.527  14.400   2.660
24064W        W89291  10.903   2.332   2.272
24065W        W89292  10.999   2.547  10.553
24066W        W89293  42.663  13.272   2.715
24067W        W89294   4.404  14.711  10.313
24068W        W89295   9.002  19.398   4.811
24069W        W89296  19.620   5.480   4.268
24070W        W89297  21.787   0.916  13.835
24071W        W89298   0.461  17.216  14.959
24072W        W89299   5.900  21.572   0.885
24073W        W89300  26.640  15.266   2.092
24074W        W89301  15.754  34.015  11.520
24075W        W89302  44.908   3.843   0.420
24076W        W89303  22.211  24.718  13.456
24077W        W89304  19.915   0.807  14.787
24078W        W89305  37.996  14.111  14.458
24079W        W89306  16.269  40.829  13.548
24080W        W89307  20.176  40.850  11.241
24081W        W89308  40.981  20.814   1.651
24082W        W89309  39.308  34.674  14.360
24083W        W89310  39.148  14.782  13.905
24084W        W89311   5.109   6.182  12.542
24085W        W89312  21.882  41.802   2.021
24086W        W89313  17.221  44.395   4.203
24087W        W89314   7.290  19.576   1.280
24088W        W89315  14.101   2.783  11.059
24089W        W89316  24.492  25.496  11.049
24090W        W89317   6.212  40.006  13.404
24091W        W89318   5.487  24.540  12.089
24092W        W89319  38.094  23.954  14.845
24093W        W89320  43.794  20.928   3.226
24094W        W89321  18.486  38.989   1.433
24095W        W89322  40.763  10.430  11.601
24096W        W89323  44.024  15.627  13.729
24097W        W89324   1.646  15.704  11.106
24098W        W89325  33.305  16.236   1.757
24099W        W89326  32.615  23.100   3.579
24100W        W89327  18.319  13.254   1.914
24101W        W89328  40.503  13.861   2.356
24102W        W89329  44.688  30.325  13.571
24103W        W89330   5.801  33.931  11.044
24104W        W89331  19.853  43.932  11.551
24105W        W89332  41.433   5.723  11.603
24106W        W89333  33.578   7.439  14.930
24107W        W89334  30.533   5.153  12.010
24108W        W89335  40.324  28.930   1.383
24109W        W89336  17.287  33.882   1.670
24110W        W89337   9.631  37.352  13.295
24111W        W89338  25.023  30.490   2.980
24112W        W89339  17.606  36.925  12.505
24113W        W89340  41.518   2.409   3.408
24114W        W89341  18.126  31.805   1.879
24115W        W89342  35.748  35.078  13.766
24116W        W89343  22.034  27.499   1.660
24117W        W89344  28.235   7.322  10.247
24118W        W89345   1.093  28.639  10.895
24119W        W89346  14.231  36.846  12.092
24120W        W89347  19.608  27.191  13.178
24121W        W89348  43.171  42.937  14.711
24122W        W89349  10.051  10.911   3.139
24123W        W89350  19.956  29.064  11.881
24124W        W89351   1.100  18.617   3.590
24125W        W89352   8.358   1.214  11.569
24126W        W89353  30.363   7.251  10.552
24127W        W89354  36.915   6.091   4.819
24128W        W89355  11.359  43.349   3.336
24129W        W89356  39.458  15.719   2.250
24130W        W89357  27.003  34.955   4.428
24131W        W89358  14.879  40.378  14.223
24132W        W89359  31.032  43.879   0.998
24133W        W89360  16.766  31.721  13.997
24134W        W89361   2.509  22.987  14.054
24135W        W89362   7.621   4.773  13.323
24136W        W89363  31.365   5.259  14.502
24137W        W89364  44.880  42.380  14.780
24138W        W89365   3.424  43.314   3.194
24139W        W89366   9.575  31.988   0.874
24140W        W89367  21.775  41.002   3.659
24141W        W89368  14.287   2.844   0.656
24142W        W89369  37.681  30.807   5.086
24143W        W89370  38.346  44.328  11.626
24144W        W89371  16.701  35.051  11.549
24145W        W89372  17.237  12.694  10.678
24146W        W89373   6.299  21.242   2.215
24147W        W89374  36.876  12.205   2.089
24148W        W89375  23.188  14.536  13.616
24149W        W89376  37.002  21.187  14.697
24150W        W89377  34.134  12.834   9.814
24151W        W89378  11.222  11.703   1.796
24152W        W89379  28.771   0.981  14.883
24153W        W89380  20.982  33.949   2.762
24154W        W89381  19.085  12.514   4.090
24155W        W89382  30.720  33.373   0.286
24156W        W89383  13.656  12.592   1.287
24157W        W89384  29.601  38.922  13.854
24158W        W89385  43.756   8.940   2.204
24159W        W89386  16.250   6.902  11.556
24160W        W89387   3.190  31.800  14.572
24161W        W89388   0.320  32.655  10.623
24162W        W89389  40.005  28.578   0.811
24163W        W89390   7.834  37.470  11.205
24164W        W89391  21.720  13.366  10.770
24165W        W89392  20.880  33.171   5.084
24166W        W89393  30.962  38.693  11.251
24167W        W89394   2.902  38.303  13.341
24168W        W89395  13.268   1.265  11.184
24169W        W89396  36.781   6.637  14.308
24170W        W89397  20.018  31.272   4.152
24171W        W89398  26.562  23.303  14.802
24172W        W89399   2.963   0.690   3.228
24173W        W89400  13.598  39.072   2.698
24174W        W89401  33.409  21.916   1.292
24175W        W89402  30.893  44.525  11.516
24176W        W89403  31.816   6.519   0.968
24177W        W89404  22.428   6.793   0.370
24178W        W89405  36.377   9.569  13.089
24179W        W89406   0.523   3.414   1.431
24180W        W89407  11.210  16.269   4.102
24181W        W89408   9.755  18.815   1.689
24182W        W89409   1.724  13.813   1.388
24183W        W89410  20.566   1.772  11.929
24184W        W89411  23.999  32.545  11.974
24185W        W89412  27.185  41.349   0.931
24186W        W89413   6.812  33.410  13.251
24187W        W89414   9.787  25.065   3.153
24188W        W89415  44.213  39.919  12.388
24189W        W89416  29.347  27.754   2.172
24190W        W89417  41.386  37.395   3.270
24191W        W89418  15.918  44.683  12.459
24192W        W89419  33.934  12.611   5.419
24193W        W89420  40.365  18.814   4.205
24194W        W89421   8.115  22.214   4.322
24195W        W89422  18.101  28.620   1.837
24196W        W89423  31.343  41.056  13.995
24197W        W89424  30.974  43.740  13.936
24198W        W89425  42.503  21.637   2.411
24199W        W89426  43.301  23.097  10.821
24200W        W89427  13.483  36.420  10.721
24201W        W89428   5.479   2.978  13.105
24202W        W89429   3.411  19.118  10.476
24203W        W89430  35.078  11.765  11.933
24204W        W89431   7.535  31.544   1.696
24205W        W89432  42.509   4.418   2.681
24206W        W89433   1.671   0.028  14.940
24207W        W89434  37.647  33.805   3.189
24208W        W89435  33.319  18.216   1.470
24209W        W89436  38.460  20.196  14.977
24210W        W89437  39.066  35.345  11.647
24211W        W89438  32.142  20.584  12.483
24212W        W89439  23.896  13.968  10.108
24213W        W89440  40.378  25.199  13.506
24214W        W89441  38.460  26.007   0.823
24215W        W89442   1.840   8.889  11.814
24216W        W89443  37.121  22.059  12.064
24217W        W89444  15.745  18.643  13.786
24218W        W89445  11.255  18.487  13.302
24219W        W89446  15.219  44.188  14.073
24220W        W89447  34.878   3.677  11.203
24221W        W89448  17.171  15.726   2.341
24222W        W89449  25.071  30.003  14.833
24223W        W89450   8.250  39.296   1.704
24224W        W89451  11.716   5.676  13.388
24225W        W89452  13.837  39.336   4.041
24226W        W89453  15.865   3.214  12.202
24227W        W89454  34.862   1.724   4.683
24228W        W89455   7.593  11.395  13.528
24229W        W89456  33.549  20.468  12.554
24230W        W89457  38.944  41.947   0.292
24231W        W89458  15.489  41.279  12.547
24232W        W89459  19.348   3.832   0.198
24233W        W89460  40.549  12.383  14.047
24234W        W89461  39.147   4.230   0.629
24235W        W89462  13.747  33.641  11.608
24236W        W89463  43.428  32.546   2.787
24237W        W89464  43.012  11.295  13.637
24238W        W89465  10.883  20.276   2.385
24239W        W89466  40.838  33.717  14.375
24240W        W89467   6.874  25.674   4.727
24241W        W89468  18.606  17.552  11.946
24242W        W89469  29.665  26.072   3.281
24243W        W89470  13.759  24.052   1.565
24244W        W89471  41.856  42.442  10.710
24245W        W89472  11.299  19.122  11.528
24246W        W89473  19.999   3.277   0.186
24247W        W89474  14.538  30.638  11.422
24248W        W89475  43.877  17.899   4.558
24249W        W89476   0.782  28.861  13.346
24250W        W89477   3.126  29.970  13.250
24251W        W89478  23.154   4.780   2.338
24252W        W89479   4.360  11.056  12.092
24253W        W89480  22.624  44.364  14.571
24254W        W89481  16.978  38.525  11.502
24255W        W89482  18.824  16.771   1.328
24256W        W89483   8.705  39.591   0.080
24257W        W89484  12.289   9.355  11.266
24258W        W89485  32.589   3.385   2.984
24259W        W89486   9.878   1.927   0.324
24260W        W89487  12.309  24.075   3.057
24261W        W89488   2.995  14.966   4.474
24262W        W89489   9.520  36.183   0.940
24263W        W89490  33.892  22.237   3.838
24264W        W89491  22.362  36.629   2.345
24265W        W89492  15.803  16.123  11.688
24266W        W89493   8.389  28.006  12.435
24267W        W89494   6.863  34.982  13.424
24268W        W89495  10.165  43.543  11.115
24269W        W89496  11.754   3.332  13.549
24270W        W89497  20.349  41.645   1.521
24271W        W89498  38.321  38.774   4.208
24272W        W89499  29.018  36.298  12.891
24273W        W89500  14.240  29.536   1.664
24274W        W89501  33.447  24.249  13.384
24275W        W89502  43.362  17.248   4.107
24276W        W89503  43.948  38.538  12.401
24277W        W89504  24.045  11.809   2.929
24278W        W89505   8.722  41.499   2.288
24279W        W89506   1.742  14.824   1.307
24280W        W89507  38.611  27.922  13.547
24281W        W89508   2.792  23.698  13.899
24282W        W89509  34.457  19.779  14.081
24283W        W89510  27.651   6.781  10.536
24284W        W89511   4.311   9.316   0.662
24285W        W89512  25.997  28.930  12.951
24286W        W89513  32.485   6.476  12.882
24287W        W89514  34.526  18.127   3.635
24288W        W89515  37.807  10.849  13.510
24289W        W89516   7.360  43.784  14.913
24290W        W89517   1.303   3.118   3.358
24291W        W89518  35.684   3.569  13.224
24292W        W89519   8.141   6.607  14.024
24293W        W89520   0.931  32.499  13.901
24294W        W89521  12.037  32.182  12.958
24295W        W89522  32.385  19.068   2.801
24296W        W89523  13.438  27.600   3.232
24297W        W89524  34.838   1.891  10.700
24298W        W89525  37.340  12.869   1.004
24299W        W89526  25.289  12.477  10.385
24300W        W89527  18.226  26.375   1.632
24301W        W89528  43.488  15.730   2.135
24302W        W89529   2.070  19.174  11.487
24303W        W89530  14.305  33.365  10.215
24304W        W89531  16.297  17.881  12.418
24305W        W89532  41.737   2.780   4.612
24306W        W89533  44.258  22.512  14.690
24307W        W89534   4.119   8.137  14.789
24308W        W89535  36.029   9.769  11.652
24309W        W89536  42.220   0.737   5.041
24310W        W89537  39.413  32.422  11.773
24311W        W89538  32.138  20.872  14.867
24312W        W89539  36.875  29.902   1.148
24313W        W89540  14.351   0.864   3.652
24314W        W89541  14.745   7.185  14.417
24315W        W89542  15.723  18.289   3.049
24316W        W89543  27.498  24.275  14.430
24317W        W89544  39.346  20.176   3.079
24318W        W89545  10.383  19.911   2.382
24319W        W89546  40.828  41.270  14.003
24320W        W89547  28.610  31.224  11.056
24321W        W89548  41.814  28.710  13.100
24322W        W89549  29.950  29.842  13.855
24323W        W89550  17.796  22.678   4.481
24324W        W89551  18.324  13.034   0.235
24325W        W89552   6.531   9.848  11.539
24326W        W89553  40.565  13.647   0.088
24327W        W89554  19.764   6.915  11.574
24328W        W89555  44.477  39.770  12.824
24329W        W89556  32.661  31.013  13.861
24330W        W89557   9.155  21.925  11.082
24331W        W89558  40.082   6.586  13.067
24332W        W89559  21.084   3.364   9.822
24333W        W89560   1.894   0.273  10.696
24334W        W89561  12.078  28.085   2.531
24335W        W89562  32.696  41.504  10.975
24336W        W89563  29.678   9.821   4.113
24337W        W89564  35.942  39.590   2.568
24338W        W89565  26.956   3.532   0.257
24339W        W89566   5.177  10.733   2.468
24340W        W89567  18.876  40.643   3.518
24341W        W89568  29.978  15.635  13.307
24342W        W89569  37.107  33.013  13.547
24343W        W89570   7.333   4.345   1.223
24344W        W89571  37.273   0.924   2.257
24345W        W89572  14.628  11.609   2.707
24346W        W89573   5.273  43.708  13.051
24347W        W89574   0.536  38.842  13.712
24348W        W89575  23.736  28.570  12.992
24349W        W89576  11.971  16.581   4.146
24350W        W89577  41.230  26.210   5.062
24351W        W89578   9.868  43.792   1.959
24352W        W89579  35.880  18.684   5.083
24353W        W89580  34.847  36.508  14.889
24354W        W89581  24.654  36.822  11.640
24355W        W89582  20.939   4.947  12.932
24356W        W89583  30.300  18.826   4.156
24357W        W89584  38.997  27.635   3.653
24358W        W89585   4.305   1.261  14.860
24359W        W89586  43.983  42.018   1.189
24360W        W89587  26.085  44.768  14.307
24361W        W89588  18.695  34.412  12.626
24362W        W89589  36.366  29.593   3.371
24363W        W89590  15.841  37.436   0.322
24364W        W89591  34.942  38.364   3.853
24365W        W89592  33.838  13.675   5.008
24366W        W89593   4.963   2.728  14.951
24367W        W89594  21.232  13.344   1.808
24368W        W89595   2.427  28.774   4.098
24369W        W89596  37.012   7.892  13.957
24370W        W89597   8.063   4.815   4.826
24371W        W89598  36.533   2.583   5.033
24372W        W89599  26.980  42.731   2.553
24373W        W89600  19.900  23.436  11.158
24374W        W89601   1.341  34.500   1.887
24375W        W89602  16.719  41.684   1.380
24376W        W89603  31.912  33.719  11.945
24377W        W89604   0.798   8.808   1.969
24378W        W89605  33.073  11.213   0.464
24379W        W89606   7.567  12.757   3.748
24380W        W89607  44.891  20.513   2.725
24381W        W89608   8.714  32.361   0.485
24382W        W89609  34.508  30.072   0.767
24383W        W89610  30.820  12.664   4.439
24384W        W89611  12.134   6.941   2.961
24385W        W89612  34.926  17.157  10.537
24386W        W89613   5.121  43.863   1.215
24387W        W89614  15.896  27.119  14.874
24388W        W89615  38.362  15.189   4.583
24389W        W89616  35.951  11.846  14.920
24390W        W89617  38.911  20.679   9.908
24391W        W89618  35.060  25.690   3.249
24392W        W89619   8.873  36.835  14.226
24393W        W89620  28.862  13.312   0.742
24394W        W89621  38.821  41.016   1.827
24395W        W89622  33.386   8.265   1.063
24396W        W89623  43.494  36.041   1.140
24397W        W89624  40.777  27.591   0.522
24398W        W89625   5.890  25.862  10.978
24399W        W89626  44.478  30.738   2.622
24400W        W89627  21.517  40.326   1.159
24401W        W89628  13.002  10.563  14.784
24402W        W89629  10.950  11.508   4.308
24403W        W89630  18.066  17.822   1.718
24404W        W89631  40.869  34.608  11.621
24405W        W89632  12.649  34.326   3.792
24406W        W89633  28.305  12.764   3.224
24407W        W89634   8.314  25.651  13.410
24408W        W89635   8.584  29.632   1.300
24409W        W89636  30.603  30.927  12.178
24410W        W89637  29.395  23.179  12.176
24411W        W89638  14.165  21.859   0.711
24412W        W89639  21.148  18.350   3.722
24413W        W89640  14.558  12.717  12.075
24414W        W89641  22.533  33.445   3.201
24415W        W89642  31.124   6.474   4.388
24416W        W89643  37.730   4.902   4.274
24417W        W89644  34.898  16.332  12.628
24418W        W89645  19.142  30.403   1.933
24419W        W89646   8.409  38.464   4.063
24420W        W89647  43.373   3.385   1.337
24421W        W89648  15.908  22.089   4.013
24422W        W89649  21.849  18.620  11.885
24423W        W89650  26.435  21.597  14.789
24424W        W89651  36.488   4.739   1.330
24425W        W89652  21.244  44.243   1.629
24426W        W89653  33.348  12.083  13.061
24427W        W89654  44.502  44.743  14.134
24428W        W89655  26.879  23.365   3.900
24429W        W89656   6.226   8.239   1.879
24430W        W89657  21.782  36.297  12.504
24431W        W89658  12.114   3.672   0.416
24432W        W89659  11.919  29.879  14.506
24433W        W89660  44.729  34.989   3.258
24434W        W89661   0.968  31.373  13.460
24435W        W89662  27.298   8.638   4.440
24436W        W89663  40.483  36.534   3.381
24437W        W89664  39.293  14.063  14.839
24438W        W89665  16.780  44.465   3.188
24439W        W89666   4.150  30.107   4.035
24440W        W89667  29.782  29.265  14.998
24441W        W89668  27.177  36.405   0.967
24442W        W89669   7.783  16.417   2.672
24443W        W89670  22.626  39.073   1.498
24444W        W89671  39.518  35.828   0.914
24445W        W89672  35.855  35.857  11.608
24446W        W89673  13.671  17.322  13.297
24447W        W89674  10.235  12.359   0.237
24448W        W89675  44.615  16.894  14.005
24449W        W89676  10.958  15.112   3.329
24450W        W89677  14.305   6.312   4.130
24451W        W89678  22.537  38.846  10.784
24452W        W89679   4.687  34.020  13.787
24453W        W89680  28.520   7.155   1.317
24454W        W89681  15.433   8.118   2.553
24455W        W89682  42.673  23.249   4.960
24456W        W89683  39.932  41.024  10.768
24457W        W89684  23.303  22.304   0.059
24458W        W89685  13.344  42.840  10.733
24459W        W89686  23.118  37.917  13.405
24460W        W89687   5.137  25.386   0.480
24461W        W89688  32.113   5.849  10.142
24462W        W89689  17.266   2.594   2.175
24463W        W89690  27.498  28.356  11.542
24464W        W89691  19.708  39.336  10.901
24465W        W89692  38.656  15.256  11.918
24466W        W89693  10.924  42.297  11.639
24467W        W89694  19.086  10.351   0.979
24468W        W89695  28.263  37.906  12.045
24469W        W89696  17.537  11.742   4.080
24470W        W89697  10.149  13.381  12.093
24471W        W89698  29.130  32.365   1.308
24472W        W89699  35.390   5.653  14.784
24473W        W89700  44.501   5.871   3.420
24474W        W89701  29.738   5.741   2.198
24475W        W89702   0.888  23.065  11.584
24476W        W89703   1.931  38.582   3.077
24477W        W89704  35.161  14.382  14.411
24478W        W89705  23.225  39.528  12.451
24479W        W89706  12.898  30.026  12.812
24480W        W89707  27.915  31.608  13.858
24481W        W89708  14.035  26.164   3.314
24482W        W89709  19.174  40.073   0.703
24483W        W89710  25.990  40.842   1.733
24484W        W89711   8.780   2.910  11.651
24485W        W89712  33.020  32.065  13.263
24486W        W89713  17.715  12.132  12.029
24487W        W89714  31.343   9.824   4.190
24488W        W89715  41.260  42.007   2.751
24489W        W89716  17.824  23.673   1.183
24490W        W89717  26.807  10.230  12.327
24491W        W89718   1.668  41.538   0.799
24492W        W89719  26.041  14.855   4.979
24493W        W89720  14.144  10.665   2.804
24494W        W89721  16.530  11.836  13.180
24495W        W89722  40.813   7.036   0.260
24496W        W89723   0.302  21.109   4.660
24497W        W89724  23.474  41.953   2.971
24498W        W89725  40.263  34.907  11.170
24499W        W89726  34.854  10.623   3.255
24500W        W89727  43.799  37.422  13.468
24501W        W89728  44.902  27.284  12.542
24502W        W89729  19.232  17.206  13.561
24503W        W89730  24.574  26.605   2.912
24504W        W89731  15.130  17.486  13.929
24505W        W89732  29.535  16.848   3.223
24506W        W89733  18.525  42.124   0.273
24507W        W89734  35.718   8.908   3.520
24508W        W89735  16.885  19.963   2.134
24509W        W89736   0.217  34.440  14.908
24510W        W89737  25.234  34.483   4.238
24511W        W89738  32.947  39.625   2.740
24512W        W89739   4.215  17.536  11.769
24513W        W89740  37.540  31.358   0.156
24514W        W89741   3.827  17.412  13.012
24515W        W89742  11.885   8.755   2.096
24516W        W89743   1.867  37.326   0.494
24517W        W89744  35.863  37.543  12.078
24518W        W89745  19.269   8.913   3.650
24519W        W89746  44.720  14.232  11.451
24520W        W89747  25.995  18.691  14.489
24521W        W89748  44.237   0.406  12.546
24522W        W89749  26.509  31.204   1.419
24523W        W89750  14.057  24.796   3.415
24524W        W89751   5.340  22.064   4.469
24525W        W89752  27.974  44.290   3.167
24526W        W89753  40.616  13.662  12.037
24527W        W89754  27.197   9.243   2.830
24528W        W89755  20.377  21.304  12.594
24529W        W89756  16.774  27.051  13.801
24530W        W89757  15.786  20.862   1.397
24531W        W89758  15.663  42.032   3.144
24532W        W89759  43.087   8.264  14.053
24533W        W89760  42.241   4.097   1.298
24534W        W89761  41.424  28.570   2.861
24535W        W89762  11.749  21.277  14.022
24536W        W89763  15.746  32.180   2.715
24537W        W89764   0.817  14.828  14.425
24538W        W89765   2.802  44.163   3.212
24539W        W89766  13.785  39.526  10.807
24540W        W89767  43.377  20.669   3.387
24541W        W89768   8.151  24.160   2.741
24542W        W89769  11.269  21.555  13.898
24543W        W89770   9.166  41.201   2.244
24544W        W89771   3.862  28.428  14.354
24545W        W89772  34.490  25.213   3.991
24546W        W89773   7.997  13.218   5.481
24547W        W89774  14.601  16.685   1.436
24548W        W89775  35.674  32.857   2.528
24549W        W89776  38.314  37.323   5.156
24550W        W89777  43.588   7.241   0.022
24551W        W89778  43.421  14.519   3.925
24552W        W89779  32.867  12.338   3.308
24553W        W89780  40.456  10.089  14.055
24554W        W89781  40.490  39.868  14.759
24555W        W89782  33.913  44.863   1.109
24556W        W89783  23.315   4.982  13.434
24557W        W89784  24.980   3.854   4.088
24558W        W89785  25.103  26.148   0.748
24559W        W89786  34.372  31.527   2.411
24560W        W89787  36.011   2.876   1.966
24561W        W89788   7.499   6.416  12.162
24562W        W89789  19.950  28.283   4.121
24563W        W89790  29.629  37.435  14.067
24564W        W89791  44.991  36.938   4.866
24565W        W89792  19.216  29.536   0.334
24566W        W89793  15.543  23.306  13.038
24567W        W89794  39.421  19.243   3.044
24568W        W89795  33.645  42.008  10.706
24569W        W89796  43.237  19.892   2.765
24570W        W89797  40.279   0.673  12.922
24571W        W89798  33.428   9.377   1.817
24572W        W89799  35.414   8.092   2.894
24573W        W89800   8.646  38.778  12.790
24574W        W89801  23.073   6.041  13.959
24575W        W89802  10.122   3.433  14.217
24576W        W89803  22.653  35.655  12.963
24577W        W89804  42.873   9.408   3.160
24578W        W89805  12.669  34.558  12.370
24579W        W89806  24.028  34.203   4.576
24580W        W89807   2.890  22.626  14.052
24581W        W89808  34.148   0.416   0.807
24582W        W89809  23.146  28.221   2.875
24583W        W89810  34.912  11.238   2.514
24584W        W89811  16.378  41.461   3.292
24585W        W89812   5.734  41.756  11.513
24586W        W89813  12.742  29.318   4.962
24587W        W89814  31.568  28.224   4.851
24588W        W89815   4.998  34.290   3.824
24589W        W89816  24.529   9.203  11.994
24590W        W89817  36.365  41.378  12.122
24591W        W89818  32.499  10.279   3.189
24592W        W89819  37.138  14.606   2.772
24593W        W89820  27.393  32.448   3.320
24594W        W89821  34.154   4.283   4.086
24595W        W89822   3.434  25.969  14.888
24596W        W89823  14.712  11.452   4.056
24597W        W89824  41.155  31.421   1.909
24598W        W89825  41.058  11.672   3.756
24599W        W89826  11.765  19.519  12.615
24600W        W89827  21.194  37.041  14.369
24601W        W89828  44.925  24.582  11.184
24602W        W89829  15.773  31.581   0.819
24603W        W89830  15.587   9.984  14.658
24604W        W89831  28.464   5.797   4.754
24605W        W89832  20.318  27.914   0.334
24606W        W89833  31.165   2.831  13.666
24607W        W89834   0.231  29.465   0.499
24608W        W89835   5.669  10.800  12.685
24609W        W89836  43.330  40.724   4.299
24610W        W89837  28.632  24.732  12.912
24611W        W89838   4.216   4.911  13.833
24612W        W89839  11.046  17.123   3.157
24613W        W89840  43.696  32.388  10.831
24614W        W89841  19.335   1.101   2.271
24615W        W89842   8.597  13.873   4.080
24616W        W89843   4.162  25.581   4.658
24617W        W89844  20.950  29.433  12.201
24618W        W89845  30.232  38.605  10.756
24619W        W89846   3.414   6.954  12.130
24620W        W89847  38.123   4.472   0.865
24621W        W89848   3.573  42.818   3.167
24622W        W89849  19.145   2.231   1.672
24623W        W89850   2.367  34.859  11.663
24624W        W89851  17.773  44.624   0.568
24625W        W89852   1.535  26.830  10.848
24626W        W89853  44.461  36.117  12.009
24627W        W89854   5.765  19.390   0.330
24628W        W89855  33.492   7.283   0.976
24629W        W89856  13.387  33.572  10.299
24630W        W89857  38.776  17.569  14.061
24631W        W89858   2.381  37.353   0.432
24632W        W89859  18.527  44.489   2.743
24633W        W89860  30.731  23.520  12.894
24634W        W89861  42.085  11.674  12.904
24635W        W89862  14.481   3.680   3.233
24636W        W89863  37.639  27.179   2.620
24637W        W89864  30.573  26.584  11.635
24638W        W89865  26.035  22.359   1.454
24639W        W89866  41.774  38.468  14.569
24640W        W89867  15.637  26.614  11.130
24641W        W89868   2.585   6.615  12.677
24642W        W89869  24.213   5.913  12.595
24643W        W89870  43.876  19.493  13.117
24644W        W89871   2.910  24.281   3.205
24645W        W89872  33.925  42.454   1.854
24646W        W89873  32.566   2.458   0.487
24647W        W89874  26.862  12.187   3.652
24648W        W89875  35.970  34.145   3.345
24649W        W89876  31.193  28.034   4.521
24650W        W89877  32.542  24.324   2.346
24651W        W89878  32.465  39.245   4.477
24652W        W89879   5.879  12.803  12.580
24653W        W89880  43.502  42.523   0.961
24654W        W89881  26.599  14.446  13.948
24655W        W89882   1.833  34.065  12.420
24656W        W89883   5.293  36.538   1.381
24657W        W89884  10.979   4.381   0.778
24658W        W89885  28.556   1.338  12.301
24659W        W89886  31.976  11.161   4.507
24660W        W89887  35.999  17.563   1.258
24661W        W89888   5.330  29.031  11.158
24662W        W89889   5.664  22.201  13.585
24663W        W89890  27.458   4.120  11.589
24664W        W89891   6.784  29.889   1.121
24665W        W89892  15.099   8.999   1.270
24666W        W89893  37.801  27.613  12.509
24667W        W89894  27.824   8.821   1.809
24668W        W89895  30.230   5.624   2.306
24669W        W89896  27.409  42.564   3.254
24670W        W89897   7.420  33.282  12.060
24671W        W89898  25.567  37.346   4.302
24672W        W89899   6.380   1.917  11.470
24673W        W89900  29.418  12.231   3.117
24674W        W89901  38.605   2.615  11.991
24675W        W89902   9.663  12.139   2.324
24676W        W89903   7.328  16.158   2.458
24677W        W89904  38.947   0.662   1.589
24678W        W89905   5.897   8.432  11.443
24679W        W89906   8.231  40.342  11.164
24680W        W89907  42.951  37.870  10.416
24681W        W89908   3.328  31.082   1.732
24682W        W89909  22.191  42.233  12.788
24683W        W89910  40.297  25.965  13.010
24684W        W89911  38.268  44.346   2.402
24685W        W89912  23.004  35.998  12.765
24686W        W89913  30.008  26.095  14.960
24687W        W89914  32.339  38.808  13.553
24688W        W89915  12.778  29.413   0.731
24689W        W89916  17.186  18.270   0.629
24690W        W89917  33.817  36.406   0.868
24691W        W89918  27.943   6.340   0.923
24692W        W89919  39.514  31.092   1.705
24693W        W89920  11.685   8.824   5.015
24694W        W89921  44.189  27.790  14.366
24695W        W89922  12.680  39.403  11.113
24696W        W89923  39.345  21.304  14.934
24697W        W89924  27.057  30.620  11.106
24698W        W89925  25.460  14.447   1.371
24699W        W89926  11.319  15.980  10.441
24700W        W89927  38.585   8.614  11.692
24701W        W89928  12.011  44.082  11.938
24702W        W89929   4.296  13.637   2.372
24703W        W89930   0.497  34.135   2.387
24704W        W89931  13.109  23.573   3.336
24705W        W89932  19.506  35.112   4.721
24706W        W89933  44.747   1.732   4.343
24707W        W89934  10.849   1.008  12.116
24708W        W89935  41.695  13.616   1.864
24709W        W89936   4.265  42.743  11.548
24710W        W89937  31.001   9.888  14.454
24711W        W89938  40.302  24.944   4.012
24712W        W89939  24.093  42.734  14.609
24713W        W89940  31.316  40.356   0.183
24714W        W89941  35.870   7.048  11.612
24715W        W89942  39.216  38.521   1.555
24716W        W89943  33.335   8.697   1.346
24717W        W89944  30.499  14.071  13.858
24718W        W89945  44.397  23.188   2.867
24719W        W89946  29.243  22.439  12.891
24720W        W89947  29.569   6.231   3.344
24721W        W89948  43.032  23.813   1.747
24722W        W89949   1.307  21.506  13.975
24723W        W89950  23.631  37.422  14.690
24724W        W89951   1.015  14.894   0.199
24725W        W89952  14.136  23.412  14.780
24726W        W89953  21.097  20.787   0.290
24727W        W89954  41.031   3.382  13.341
24728W        W89955   4.600  30.450  11.176
24729W        W89956   3.366  33.920  12.476
24730W        W89957  10.647  25.757  12.412
24731W        W89958  11.163  28.744  11.461
24732W        W89959  14.750  27.165  11.730
24733W        W89960  30.477  27.155  13.449
24734W        W89961   0.870  23.010   3.299
24735W        W89962  29.326  24.203  14.855
24736W        W89963   8.610   8.413  13.540
24737W        W89964   7.787   8.901   0.149
24738W        W89965  25.602  29.971   4.766
24739W        W89966   6.938  10.157  12.419
24740W        W89967   6.634  13.321  11.187
24741W        W89968  38.581  13.039   1.489
24742W        W89969   8.358   7.394  14.259
24743W        W89970  33.785  29.134   0.773
24744W        W89971  23.995   9.673  13.488
24745W        W89972  24.286  24.143   3.691
24746W        W89973  27.651  37.533   0.536
24747W        W89974  31.442  43.805  12.329
24748W        W89975  39.588  26.164   3.374
24749W        W89976  23.486  10.245  13.722
24750W        W89977  25.435  17.271  12.025
24751W        W89978  30.356   9.758  14.450
24752W        W89979  19.724  12.754   2.466
24753W        W89980  28.259  19.211   4.601
24754W        W89981  29.512  15.563   1.879
24755W        W89982  11.579  41.758   0.299
24756W        W89983  23.049  26.811   4.745
24757W        W89984  34.212   6.085   0.506
24758W        W89985  14.052  21.137  10.986
24759W        W89986   7.314  34.967  10.747
24760W        W89987  13.746  12.776   0.027
24761W        W89988  33.557   4.907   0.525
24762W        W89989  40.337  18.839  12.517
24763W        W89990  34.733  28.656   1.624
24764W        W89991  21.600  36.141   3.222
24765W        W89992  20.933  16.134  11.954
24766W        W89993   2.489  39.286   2.018
24767W        W89994  32.840  21.262   0.242
24768W        W89995  31.978  35.473   3.759
24769W        W89996  12.707  20.676   2.303
24770W        W89997  41.052  21.750  10.786
24771W        W89998  39.419  34.096   3.693
24772W        W89999   2.011   4.755  11.569
24773W        W90000  21.560  44.361  12.899
24774W        W90001  21.444  20.185  11.090
24775W        W90002  44.389  36.765   4.250
24776W        W90003   0.962  30.307   4.601
24777W        W90004  13.000  36.989  13.924
24778W        W90005  41.275  37.789   4.235
24779W        W90006  36.096  18.149  14.391
24780W        W90007  36.362   0.986   3.551
24781W        W90008   7.848  10.878   1.432
24782W        W90009  25.451  20.958   0.375
24783W        W90010   0.426  10.633   3.089
24784W        W90011  36.003  18.531  10.581
24785W        W90012  18.537  16.054   2.911
24786W        W90013   8.236  14.482  11.957
24787W        W90014  42.214  14.817  10.456
24788W        W90015  32.329  14.832  13.470
24789W        W90016   9.273   3.235   3.185
24790W        W90017  11.591  32.060   3.671
24791W        W90018  34.256  34.988   0.917
24792W        W90019  29.680  32.740  14.824
24793W        W90020   4.629  42.422   0.308
24794W        W90021  19.682  24.539  10.736
24795W        W90022  27.996   4.791  11.854
24796W        W90023  22.238  40.228   1.946
24797W        W90024  40.038  24.052   2.373
24798W        W90025   6.616  19.265  13.812
24799W        W90026  33.378   9.457  14.994
24800W        W90027   2.348   0.433   3.544
24801W        W90028  29.225   9.605   4.150
24802W        W90029  34.931  35.339   1.886
24803W        W90030  35.058   5.390  12.508
24804W        W90031  16.046  42.324   3.347
24805W        W90032  28.589  40.784  12.853
24806W        W90033  10.654  11.949  11.588
24807W        W90034  40.567  40.854   3.295
24808W        W90035   1.302  43.922  14.824
24809W        W90036  32.013  18.284  12.082
24810W        W90037  24.683   7.876  13.775
24811W        W90038  27.087  30.585  13.132
24812W        W90039  41.358   8.930  12.524
24813W        W90040  43.540  17.775  13.909
24814W        W90041  19.219  22.616   1.550
24815W        W90042  32.806   6.219  14.108
24816W        W90043   0.616  14.339   1.845
24817W        W90044  22.651  23.905   1.873
24818W        W90045  11.247   7.609   4.938
24819W        W90046   7.887   3.699   1.699
24820W        W90047  44.529   4.790   4.436
24821W        W90048  24.670  23.429   0.889
24822W        W90049   6.236  18.532  13.828
24823W        W90050   0.948  33.993  13.856
24824W        W90051  34.782   4.409   0.185
24825W        W90052   8.582  36.557  10.697
24826W        W90053  28.076   2.020  11.409
24827W        W90054   8.900  16.266  11.666
24828W        W90055  20.277   0.456  14.916
24829W        W90056  39.319   4.352   4.513
24830W        W90057  32.409  15.271   4.496
24831W        W90058  32.386  40.857   0.480
24832W        W90059  39.856  43.942  13.559
24833W        W90060  26.127  36.932   3.618
24834W        W90061   3.825  36.247  14.636
24835W        W90062  32.379  39.382  14.780
24836W        W90063   7.947  35.534  11.132
24837W        W90064  10.753  22.049   1.405
24838W        W90065  25.295   5.780  11.383
24839W        W90066  11.625  24.071   2.257
24840W        W90067   5.198  19.208  13.972
24841W        W90068  37.289   9.708  11.066
24842W        W90069   6.968  21.795  11.373
24843W        W90070  43.155   6.919  13.897
24844W        W90071  27.220   1.440  10.462
24845W        W90072  15.630   3.913  14.476
24846W        W90073   3.348  17.845  11.494
24847W        W90074   3.962  23.273  13.608
24848W        W90075  13.864   1.747  12.184
24849W        W90076  41.439  14.546  14.500
24850W        W90077  34.926  40.379  10.875
24851W        W90078   5.460  14.685  14.844
24852W        W90079   9.862  31.832   1.793
24853W        W90080  44.550  43.091   1.369
24854W        W90081   5.554  26.096   5.515
24855W        W90082  26.254  23.079   2.520
24856W        W90083  19.619  28.650  11.922
24857W        W90084   4.627  42.840  13.653
24858W        W90085  34.609   9.573  14.408
24859W        W90086   3.336   1.206  14.902
24860W        W90087   8.773  22.859   2.745
24861W        W90088  10.690  28.372  14.506
24862W        W90089   1.528  36.424   3.710
24863W        W90090   4.478  16.625   2.318
24864W        W90091  12.910   1.148   2.758
24865W        W90092   7.768  23.258  12.002
24866W        W90093  19.233   8.781   4.944
24867W        W90094  35.787  42.967   0.986
24868W        W90095  23.434  14.924  10.485
24869W        W90096   2.478  20.508  13.876
24870W        W90097  11.322  31.000   9.848
24871W        W90098  15.174   9.656  14.857
24872W        W90099  29.476   2.703   4.592
24873W        W90100  23.493  43.854  12.490
24874W        W90101   8.928   6.076   3.786
24875W        W90102  11.176  11.253   2.028
24876W        W90103   8.658   9.247  13.177
24877W        W90104  38.855  11.435   2.336
24878W        W90105   6.982  30.706   0.859
24879W        W90106  35.457  40.539  12.035
24880W        W90107   6.249  32.214   3.613
24881W        W90108   9.331  33.285  11.923
24882W        W90109   1.320  13.609  10.731
24883W        W90110  13.866  19.026   4.116
24884W        W90111   0.380   8.379   3.414
24885W        W90112   5.875  18.753  14.668
24886W        W90113  27.532  29.889   1.820
24887W        W90114  26.224  12.852   0.736
24888W        W90115  23.936  28.985   3.879
24889W        W90116   3.720   4.829  13.739
24890W        W90117   5.610  35.062   4.843
24891W        W90118  37.465  19.047   4.886
24892W        W90119   4.399   2.783   1.915
24893W        W90120  26.930   7.662  13.590
24894W        W90121   0.734   9.245  12.124
24895W        W90122  13.739  21.703   1.005
24896W        W90123  31.418   0.470   4.333
24897W        W90124  33.126  13.227  11.881
24898W        W90125   8.438  17.352   0.784
24899W        W90126  35.909   9.791  12.986
24900W        W90127   2.985  18.042  11.191
24901W        W90128  20.804   1.951  11.509
24902W        W90129  30.995  18.384  12.054
24903W        W90130  12.730  34.713  14.068
24904W        W90131   2.198   1.638  11.141
24905W        W90132  27.499  10.837   3.303
24906W        W90133  29.678  29.717   2.925
24907W        W90134  31.554  15.803   0.904
24908W        W90135   0.305  38.424   0.561
24909W        W90136   8.295  14.237   9.858
24910W        W90137  34.365   0.416   4.673
24911W        W90138  32.760  21.634   4.602
24912W        W90139  29.652  13.753  13.229
24913W        W90140   3.316   0.691   1.301
24914W        W90141  18.833  43.582   1.426
24915W        W90142  16.612  32.104  10.745
24916W        W90143  15.939  30.893  12.486
24917W        W90144  38.364  18.737  14.034
24918W        W90145  12.311  33.002  12.023
24919W        W90146  27.648  40.720   3.860
24920W        W90147  25.850  25.567   0.783
24921W        W90148  35.832  44.992  13.847
24922W        W90149  41.017  19.271  12.015
24923W        W90150  41.285  33.585   1.718
24924W        W90151  44.743  19.509  14.223
24925W        W90152  32.941  28.497  12.034
24926W        W90153  36.547  36.025  13.205
24927W        W90154  22.745  28.431   3.137
24928W        W90155  24.562  30.021   2.254
24929W        W90156   8.688  43.351   2.789
24930W        W90157  19.966  37.545  14.464
24931W        W90158  11.896  12.595  12.385
24932W        W90159  44.552  19.123   0.940
24933W        W90160  33.354   3.858   4.078
24934W        W90161  31.126   3.147   4.943
24935W        W90162  30.843  42.758   2.853
24936W        W90163  32.446  17.017  11.936
24937W        W90164   3.438   7.974  14.286
24938W        W90165  27.466   8.872  14.860
24939W        W90166  22.194  21.477  11.510
24940W        W90167  10.040  44.584   3.661
24941W        W90168  33.486  16.794  10.726
24942W        W90169   0.777  31.211   1.761
24943W        W90170  28.366  14.078  13.513
24944W        W90171  11.225  39.541   2.308
24945W        W90172  20.331   9.674   1.886
24946W        W90173  25.093  16.091  10.674
24947W        W90174  14.201  41.483  14.577
24948W        W90175  13.295   9.063  14.819
24949W        W90176  32.875  25.222  14.317
24950W        W90177  37.690  25.932   4.171
24951W        W90178   5.830  30.377   3.900
24952W        W90179  31.525  26.609  13.015
24953W        W90180   5.228  25.754  10.290
24954W        W90181   7.620  13.850  14.808
24955W        W90182  44.233  43.025  12.678
24956W        W90183   9.625   2.608  10.670
24957W        W90184  30.654  11.571   0.785
24958W        W90185  15.790  31.076   4.093
24959W        W90186  27.599  26.968  12.844
24960W        W90187  19.828  39.267  10.387
24961W        W90188  22.779  31.242   1.156
24962W        W90189  19.043   9.657  14.357
24963W        W90190  10.746  29.906   3.766
24964W        W90191  28.207  12.650   2.361
24965W        W90192  33.642   0.856   0.246
24966W        W90193  35.812  36.045   3.563
24967W        W90194  25.168  15.786   3.614
24968W        W90195  14.443  41.105  11.120
24969W        W90196  42.493  10.743   3.633
24970W        W90197  12.430  11.722  13.858
24971W        W90198   3.416  44.961   1.429
24972W        W90199  21.523   4.731   2.891
24973W        W90200   4.790  16.130   3.907
24974W        W90201   7.686  31.413  13.358
24975W        W90202  41.463   2.366   2.915
24976W        W90203  24.279  21.107  10.209
24977W        W90204  17.576  38.814   3.271
24978W        W90205   8.261   7.322  11.613
24979W        W90206   9.107  41.563   4.750
24980W        W90207  25.976  13.611  14.386
24981W        W90208   2.776  38.785   2.733
24982W        W90209  11.826   6.498  11.016
24983W        W90210  34.825  29.025   2.784
24984W        W90211   1.938  20.186   4.912
24985W        W90212  20.761   6.661   1.305
24986W        W90213  37.443  37.539  13.938
24987W        W90214  17.647  39.394  11.608
24988W        W90215  22.557  14.838  10.423
24989W        W90216   1.492  33.546   1.475
24990W        W90217  16.616   0.865   1.184
24991W        W90218  22.040  33.833  13.841
24992W        W90219  15.895  25.669   0.542
24993W        W90220  29.028  37.220   4.222
24994W        W90221   3.774   2.238   3.632
24995W        W90222  37.775  15.570  14.414
24996W        W90223  11.034   3.734  11.604
24997W        W90224   0.193   0.443   3.294
24998W        W90225   4.867  10.378   0.561
24999W        W90226  26.767  35.929   3.705
25000W        W90227  21.255  34.658  13.417
25001W        W90228  44.118   5.466   1.239
25002W        W90229   1.348  28.054   3.594
25003W        W90230  31.018  21.145  12.655
25004W        W90231  22.713   2.990  11.164
25005W        W90232   9.733   8.161   1.922
25006W        W90233  27.694  41.870   0.007
25007W        W90234  30.061  15.915  11.454
25008W        W90235  19.874  44.008  10.661
25009W        W90236   1.926   5.046  13.804
25010W        W90237  23.674  38.428  14.277
25011W        W90238  34.368   6.578   0.378
25012W        W90239   2.732  16.782  14.099
25013W        W90240  28.654  40.180   0.013
25014W        W90241   3.988  12.273   0.306
25015W        W90242  34.908  41.531   1.956
25016W        W90243  43.051  32.240  12.388
25017W        W90244  44.459  40.734   4.566
25018W        W90245   4.077   1.439  12.045
25019W        W90246   6.891   2.473   4.031
25020W        W90247   0.629  10.961  12.606
25021W        W90248  31.119  34.599   5.146
25022W        W90249  42.043  41.475  10.830
25023W        W90250  30.392  32.950   0.239
25024W        W90251  33.514  31.188   1.668
25025W        W90252  14.582  13.795  11.182
25026W        W90253  30.135  30.173   1.416
25027W        W90254   2.506   6.306   4.796
25028W        W90255  31.933   8.837   0.533
25029W        W90256  10.767   5.548   4.144
25030W        W90257  38.310  12.310  12.927
25031W        W90258  24.783  19.195  14.016
25032W        W90259  34.451  24.900   1.011
25033W        W90260  30.453  25.883   1.923
25034W        W90261  22.179  42.790   1.821
25035W        W90262  43.615   6.957   1.818
25036W        W90263  11.810  28.955   1.703
25037W        W90264   8.129  40.032   2.808
25038W        W90265  41.805   1.003   0.422
25039W        W90266   0.268  23.850  10.188
25040W        W90267   8.592  22.709   1.300
25041W        W90268  28.847  43.288  14.378
25042W        W90269  29.175  17.117  13.384
25043W        W90270  29.189  37.940  11.002
25044W        W90271   3.666  13.801  11.152
25045W        W90272  20.482  41.876  12.831
25046W        W90273   6.358  10.349   5.083
25047W        W90274   9.341  19.664   1.724
25048W        W90275   1.801  10.822  12.308
25049W        W90276  32.970  15.264   1.679
25050W        W90277  22.804  43.428   0.226
25051W        W90278   3.996  27.529   0.403
25052W        W90279  19.551  18.586   1.942
25053W        W90280  33.133  12.214   4.601
25054W        W90281  44.905  44.948  11.254
25055W        W90282  42.362  15.529  13.942
25056W        W90283  23.184   8.177  13.378
25057W        W90284  14.505   6.397   0.856
25058W        W90285   5.660  37.965  12.789
25059W        W90286   8.001  40.421  12.473
25060W        W90287  44.399  28.261  11.198
25061W        W90288  12.703  27.944  13.441
25062W        W90289   4.882  21.623  13.202
25063W        W90290   9.867   7.190   1.243
25064W        W90291  32.661   1.746  14.952
25065W        W90292  27.581   2.073  14.418
25066W        W90293  27.204  10.960  12.902
25067W        W90294  13.201  19.295  12.446
25068W        W90295  44.487  42.235  14.062
25069W        W90296  44.945   4.274   1.693
25070W        W90297  36.311   4.974   4.211
25071W        W90298  44.373  39.420  12.429
25072W        W90299   8.120  37.492  13.317
25073W        W90300  25.712   8.749  14.109
25074W        W90301  36.477  10.834   4.076
25075W        W90302  25.262  39.312   0.314
25076W        W90303  18.514   7.427   1.416
25077W        W90304  39.203   9.610  11.211
25078W        W90305  34.483   2.894   0.485
25079W        W90306   4.376  32.353  14.004
25080W        W90307  12.092  42.387  11.177
25081W        W90308  37.497  41.485  13.199
25082W        W90309  38.848  14.253   3.251
25083W        W90310   6.505  36.483  11.662
25084W        W90311  20.240   8.502   4.342
25085W        W90312  38.463  14.021   2.354
25086W        W90313  13.070  23.754   2.724
25087W        W90314  16.800   7.802   5.049
25088W        W90315  23.285  17.021   3.523
25089W        W90316  10.133   5.613  10.428
25090W        W90317  41.007  42.006  12.841
25091W        W90318   6.050  19.574  10.764
25092W        W90319   1.771   2.201   3.690
25093W        W90320  12.693  24.343   0.092
25094W        W90321  32.819  35.230   3.536
25095W        W90322  16.248   4.665  14.160
25096W        W90323   7.887  25.085  10.764
25097W        W90324  27.717  32.987   1.389
25098W        W90325  20.635  23.800   0.783
25099W        W90326   6.852   6.726  10.707
25100W        W90327   0.409   2.248  12.766
25101W        W90328  19.681  16.722   2.281
25102W        W90329  22.372  27.142  14.120
25103W        W90330   8.335  21.053   3.868
25104W        W90331  25.054  23.740  13.392
25105W        W90332  22.203  23.698  13.623
25106W        W90333  36.361  37.434  12.057
25107W        W90334  44.368  26.812  14.264
25108W        W90335   9.509  21.019   1.530
25109W        W90336  17.401  24.183  11.573
25110W        W90337  43.689  40.547   4.849
25111W        W90338   1.495  41.377  11.289
25112W        W90339  27.547  20.236   1.316
25113W        W90340   5.356  20.246  11.122
25114W        W90341  11.127  14.638   4.579
25115W        W90342  28.682  16.992   2.340
25116W        W90343  14.412   6.486   2.787
25117W        W90344   5.435  41.855  12.429
25118W        W90345  25.776   7.444   2.720
25119W        W90346  41.236  15.336   3.708
25120W        W90347  44.375  31.191   4.238
25121W        W90348   3.545  28.179   4.560
25122W        W90349  43.619  41.376  12.546
25123W        W90350  23.555  20.066   2.364
25124W        W90351   4.977  16.963  11.495
25125W        W90352  10.966  13.278  13.464
25126W        W90353  14.681  16.321  12.026
25127W        W90354   4.765  32.419   2.333
25128W        W90355  43.966  24.291   4.364
25129W        W90356  10.243  20.411  12.602
25130W        W90357  24.158   5.305   0.813
25131W        W90358   4.986  21.173  13.409
25132W        W90359  42.544  23.539  10.717
25133W        W90360  28.152  11.485   1.209
25134W        W90361   9.019  41.413  14.079
25135W        W90362  10.362  24.015   4.467
25136W        W90363  36.073  33.692   3.599
25137W        W90364   5.772  28.643  14.069
25138W        W90365  16.179  26.289  14.800
25139W        W90366   1.778  29.392   1.923
25140W        W90367  37.993  42.683  11.565
25141W        W90368   7.835  35.114   5.302
25142W        W90369  20.476  37.138  13.040
25143W        W90370  25.323  19.641   0.059
25144W        W90371  14.185  35.134   3.663
25145W        W90372  41.310   8.055  12.920
25146W        W90373  17.247  31.873  14.115
25147W        W90374  14.356  15.601   5.048
25148W        W90375  40.330  39.900   0.484
25149W        W90376  44.206   5.765  14.553
25150W        W90377  36.171  34.158   1.905
25151W        W90378  25.474   3.033  13.890
25152W        W90379  44.317  36.454   0.684
25153W        W90380  13.312  15.691  11.985
25154W        W90381  36.716  26.089   4.014
25155W        W90382  43.512  41.586  14.460
25156W        W90383  13.510   2.121   1.428
25157W        W90384  31.099  34.840  12.954
25158W        W90385   5.435  37.595   3.229
25159W        W90386  10.881  39.285   4.521
25160W        W90387   0.790  33.649  12.926
25161W        W90388  41.635  24.609  11.974
25162W        W90389  35.902   0.987   4.114
25163W        W90390   6.450  10.777   3.836
25164W        W90391   0.033  16.925   1.195
25165W        W90392  36.584   0.502  14.615
25166W        W90393  31.846  10.371  12.617
25167W        W90394  34.683   9.069  14.435
25168W        W90395  40.415  16.947   4.550
25169W        W90396  32.185  27.086   2.139
25170W        W90397  34.645   4.457  12.343
25171W        W90398   0.352  32.881   3.433
25172W        W90399  18.830  25.000   3.722
25173W        W90400  27.231  15.072   0.897
25174W        W90401   5.220   8.159   2.773
25175W        W90402   4.354  15.613  12.631
25176W        W90403   8.685  23.271  11.460
25177W        W90404  40.544  30.012  14.644
25178W        W90405  36.035  40.446  13.325
25179W        W90406  32.888   1.359   3.073
25180W        W90407  36.369   0.252   3.109
25181W        W90408  26.053  32.655   3.605
25182W        W90409  31.036   4.814   2.901
25183W        W90410   3.627  38.656   2.717
25184W        W90411  44.853  11.869   1.700
25185W        W90412  26.900  26.080   2.259
25186W        W90413  38.942  14.760   0.882
25187W        W90414  44.327  16.645   4.968
25188W        W90415  25.692  44.496  14.903
25189W        W90416  17.974   2.301  12.444
25190W        W90417  38.972  35.181   5.257
25191W        W90418  38.846  15.009  10.874
25192W        W90419  42.503   1.202  13.034
25193W        W90420   5.648  39.450   3.558
25194W        W90421   8.343  28.504  13.447
25195W        W90422  34.930  20.515  11.539
25196W        W90423  41.897  26.765   0.030
25197W        W90424  37.042  42.864   0.273
25198W        W90425  24.412  27.168  13.360
25199W        W90426  43.446  28.343   3.896
25200W        W90427  21.954  25.196   0.024
25201W        W90428  26.402  11.353   4.896
25202W        W90429  32.648   6.939  13.045
25203W        W90430   5.529  25.614   2.342
25204W        W90431   5.807   4.739  11.955
25205W        W90432  34.611   4.225  13.503
25206W        W90433  32.466  22.211   3.257
25207W        W90434  39.746  30.966   0.784
25208W        W90435   3.632   9.407   1.006
25209W        W90436  12.750   8.618   2.249
25210W        W90437  11.528  11.342   3.263
25211W        W90438   5.791  44.062   3.573
25212W        W90439  24.624  28.511   3.799
25213W        W90440  29.533  42.248  11.177
25214W        W90441  33.106  26.713   1.753
25215W        W90442  25.968   4.479   1.381
25216W        W90443   7.673   3.373   3.631
25217W        W90444  21.287   1.900  13.810
25218W        W90445  43.418  27.354  13.766
25219W        W90446  27.037  12.640   0.999
25220W        W90447  20.739   9.173   2.913
25221W        W90448  12.461  34.971   4.558
25222W        W90449  27.647   0.643   3.063
25223W        W90450  14.197   7.443  13.773
25224W        W90451   5.773  18.456   4.609
25225W        W90452  22.968   8.792   2.584
25226W        W90453  28.300  35.536   0.715
25227W        W90454  23.259  32.891  13.128
25228W        W90455  12.772  16.734   2.923
25229W        W90456  21.743  16.847  13.480
25230W        W90457  27.581   1.780   1.351
25231W        W90458  29.852  35.851  11.533
25232W        W90459  44.574   9.450   5.006
25233W        W90460   6.313  17.393   0.298
25234W        W90461  17.784  41.954   2.746
25235W        W90462  10.318  24.557   4.614
25236W        W90463   7.760  37.850   3.750
25237W        W90464  25.473  34.946  12.299
25238W        W90465  41.029   2.486   3.257
25239W        W90466  20.693  30.870  10.670
25240W        W90467   5.650   3.303  13.472
25241W        W90468  41.413   2.363   1.243
25242W        W90469  21.085  26.492   3.704
25243W        W90470  42.924  31.317   4.562
25244W        W90471  18.806  21.004   2.582
25245W        W90472  24.088   5.043   0.365
25246W        W90473   8.785   2.221   3.828
25247W        W90474  12.675  24.617  14.051
25248W        W90475  14.649  19.877  13.929
25249W        W90476  14.299   1.887  13.079
25250W        W90477   1.381  35.964   0.640
25251W        W90478  43.322  13.713   5.022
25252W        W90479  12.825   3.439   2.486
25253W        W90480  38.948  42.984   4.262
25254W        W90481  33.806  42.421   3.337
25255W        W90482  18.277   4.208   4.529
25256W        W90483  19.773  17.700  10.508
25257W        W90484  40.255  41.013  13.334
25258W        W90485   2.456  14.756  14.997
25259W        W90486  10.205   4.709  11.042
25260W        W90487  20.023   0.706   0.285
25261W        W90488   6.881  38.015  11.800
25262W        W90489  14.815  24.613   4.760
25263W        W90490   4.990  43.251  13.385
25264W        W90491   3.038  34.346  14.559
25265W        W90492  15.863   8.738   2.852
25266W        W90493  10.902  30.706   0.807
25267W        W90494  12.228   7.471  12.424
25268W        W90495  35.813  22.747   1.919
25269W        W90496  38.537  12.210   1.121
25270W        W90497   7.740  21.936  12.146
25271W        W90498  23.451   6.440   0.807
25272W        W90499  19.140  31.936  11.213
25273W        W90500  34.907   5.821  10.610
25274W        W90501  36.382  33.561  10.294
25275W        W90502   8.687  39.209  13.636
25276W        W90503  31.997   0.243  14.484
25277W        W90504  22.643  43.499   3.699
25278W        W90505  11.912  30.479   2.224
25279W        W90506  33.847   2.203  11.972
25280W        W90507  12.647   5.607   1.350
25281W        W90508  20.737  42.446  12.056
25282W        W90509   7.900   7.156  13.317
25283W        W90510  17.788  10.282  12.014
25284W        W90511  41.437  12.576   2.761
25285W        W90512   4.952  19.717  12.338
25286W        W90513  41.193   5.456  10.288
25287W        W90514  25.935  14.150   4.691
25288W        W90515  15.829  18.188  11.035
25289W        W90516   7.005   6.285   0.206
25290W        W90517  36.023   0.771   0.762
25291W        W90518   3.112  24.268   4.935
25292W        W90519  18.770  33.969  13.382
25293W        W90520  22.149   4.992  10.826
25294W        W90521   0.426  38.950   3.915
25295W        W90522  12.816   9.816   0.837
25296W        W90523  30.082   1.910   3.146
25297W        W90524  38.991  29.450   2.841
25298W        W90525  40.897   0.309   3.040
25299W        W90526  26.907  10.742  13.288
25300W        W90527  11.032  24.281   0.228
25301W        W90528  25.480  23.599  10.427
25302W        W90529  40.409   9.539   2.104
25303W        W90530  27.197  40.556  14.771
25304W        W90531  33.336  43.424   1.329
25305W        W90532  21.569  31.183  12.611
25306W        W90533  10.703  40.960  11.384
25307W        W90534   4.653  13.783  10.953
25308W        W90535  15.312  43.090   2.326
25309W        W90536  12.404  43.853  14.869
25310W        W90537  28.510   3.464   2.832
25311W        W90538  38.886  10.774  14.430
25312W        W90539   1.398  31.014   3.864
25313W        W90540  41.429  38.457  13.339
25314W        W90541  17.325  18.545   2.106
25315W        W90542  28.216  25.478  13.219
25316W        W90543  18.223  13.753  13.993
25317W        W90544  34.434  28.464  12.503
25318W        W90545  24.746  27.617  13.928
25319W        W90546  17.492  44.290   3.781
25320W        W90547  35.516  13.247  13.938
25321W        W90548   4.165  27.162  14.275
25322W        W90549  28.898  31.447   3.820
25323W        W90550  17.182  13.892   2.658
25324W        W90551  35.895   0.064  12.033
25325W        W90552  18.866  19.807   4.549
25326W        W90553   2.335  42.737  14.546
25327W        W90554  33.522  16.797  14.429
25328W        W90555  30.500  39.565  12.486
25329W        W90556  34.977   7.211  14.405
25330W        W90557  22.192  30.744   2.620
25331W        W90558  42.976  14.809   4.057
25332W        W90559  36.685   7.109   0.922
25333W        W90560  24.043  40.486  14.455
25334W        W90561  33.700  17.868  14.573
25335W        W90562  25.872  42.908  11.728
25336W        W90563   5.170  43.013   2.387
25337W        W90564  19.509  19.613  12.472
25338W        W90565  14.445  17.850   3.397
25339W        W90566  39.545   2.363  14.458
25340W        W90567  10.501   9.451  12.336
25341W        W90568  43.229   5.859  14.361
25342W        W90569  43.983   9.807   1.117
25343W        W90570  12.096  33.342  14.134
25344W        W90571  18.560   3.837  14.516
25345W        W90572  42.553  19.961  14.553
25346W        W90573  14.306  17.283  10.766
25347W        W90574   6.670  18.567  12.441
25348W        W90575  43.606  26.719   0.364
25349W        W90576  18.977  25.441   1.619
25350W        W90577  43.015  24.948  14.771
25351W        W90578  39.633  38.584   1.270
25352W        W90579  24.681  13.304  13.946
25353W        W90580  31.095  11.187   1.454
25354W        W90581  24.227  21.323   4.051
25355W        W90582  31.772  23.219  11.089
25356W        W90583  11.325  41.983   0.748
25357W        W90584  33.064  27.682  14.040
25358W        W90585  19.296  10.101  11.757
25359W        W90586  38.189  28.917  11.901
25360W        W90587  13.827  31.011  12.463
25361W        W90588  34.688  13.675   0.093
25362W        W90589   0.788   6.178  13.479
25363W        W90590  27.229  20.630  13.392
25364W        W90591   3.240  42.467  14.722
25365W        W90592  10.692  11.863  13.684
25366W        W90593  15.252  10.945   4.584
25367W        W90594  27.833  10.766  11.217
25368W        W90595  36.169  39.629   3.308
25369W        W90596  22.641  14.280  14.270
25370W        W90597  11.205  20.260   0.195
25371W        W90598  42.754   8.745   2.285
25372W        W90599  12.220  27.063  10.931
25373W        W90600  19.067  21.791  13.430
25374W        W90601   9.918  32.314  10.333
25375W        W90602  36.403  24.089   4.586
25376W        W90603  11.281  30.706  14.922
25377W        W90604  15.509  39.749   1.284
25378W        W90605  35.830  42.891  10.700
25379W        W90606  33.146  22.133  11.103
25380W        W90607  15.721  31.864   1.717
25381W        W90608   1.374  20.477   3.591
25382W        W90609  27.031  17.776   2.721
25383W        W90610  19.921   9.377   1.883
25384W        W90611  24.001  17.184   3.247
25385W        W90612  28.593  18.718   2.923
25386W        W90613  33.742  27.937  14.499
25387W        W90614  13.338  14.403  14.294
25388W        W90615  10.295  28.835   4.225
25389W        W90616  12.777  43.101   1.800
25390W        W90617  12.130  16.319  13.555
25391W        W90618  41.548  25.715   3.347
25392W        W90619   1.022  20.074   3.565
25393W        W90620  29.166  16.657  11.110
25394W        W90621  14.163   5.961  12.982
25395W        W90622  15.935  23.530   3.622
25396W        W90623  20.432  14.712  14.529
25397W        W90624  23.886  32.010   4.505
25398W        W90625  39.921   2.032  10.914
25399W        W90626  36.781  36.400  14.780
25400W        W90627  28.705  15.576   3.153
25401W        W90628  28.589  38.300  13.425
25402W        W90629   9.004  44.130   2.419
25403W        W90630  25.415  36.688   3.717
25404W        W90631   4.723  36.005   2.214
25405W        W90632   9.829   5.942   0.333
25406W        W90633  16.663   4.998  11.641
25407W        W90634   9.678   4.500   0.321
25408W        W90635  37.310  18.213   3.410
25409W        W90636  29.826  31.526   5.011
25410W        W90637  26.230  29.207   2.781
25411W        W90638  25.561  11.625  12.944
25412W        W90639  15.096  44.787  14.952
25413W        W90640  17.528  15.303  12.208
25414W        W90641  11.781  19.320  10.270
25415W        W90642  41.551  15.244   4.607
25416W        W90643  32.760  12.682  11.693
25417W        W90644  40.957   0.714  14.993
25418W        W90645  33.682  41.726   4.446
25419W        W90646  19.696   7.707   3.656
25420W        W90647  22.510  12.251  10.865
25421W        W90648  29.676  42.194   1.400
25422W        W90649  43.007  27.342   0.792
25423W        W90650  39.995  34.604  11.572
25424W        W90651  10.313  40.928   3.750
25425W        W90652  26.026   3.134  11.045
25426W        W90653  40.016  37.011  11.138
25427W        W90654  23.013  30.995   0.442
25428W        W90655  43.330  28.724   2.940
25429W        W90656  40.861  38.827   2.580
25430W        W90657  20.421  26.985   0.833
25431W        W90658  19.963  23.629  12.954
25432W        W90659  36.889  35.549   0.014
25433W        W90660  26.554   8.640   3.069
25434W        W90661  37.395  20.318   4.191
25435W        W90662  15.598  20.722   3.304
25436W        W90663  40.227  25.299  11.663
25437W        W90664  24.700   9.429  11.509
25438W        W90665   5.358  19.706   3.360
25439W        W90666  26.444   5.197  12.452
25440W        W90667  19.247  38.352   4.032
25441W        W90668  40.810   5.481  12.588
25442W        W90669  23.747  15.091  14.120
25443W        W90670  26.059  28.679   3.514
25444W        W90671  30.184  21.746  13.906
25445W        W90672   6.175  42.122  13.994
25446W        W90673  26.948  31.013   1.221
25447W        W90674  16.712  28.428  11.191
25448W        W90675  38.413  21.689  11.911
25449W        W90676  40.500  41.933   2.020
25450W        W90677  19.351  33.453  11.696
25451W        W90678  26.321  29.634   3.701
25452W        W90679  37.204  29.684   0.143
25453W        W90680  29.322  20.604   3.094
25454W        W90681  15.320   8.424  14.477
25455W        W90682  43.107   7.983  10.081
25456W        W90683  36.854  44.231  12.519
25457W        W90684  24.034   5.356  11.607
25458W        W90685  10.425  32.998   0.370
25459W        W90686   9.288  37.926   2.892
25460W        W90687  17.566  23.271   1.374
25461W        W90688  15.366  42.625   4.037
25462W        W90689  26.074  31.088  10.314
25463W        W90690   5.157  35.087   2.310
25464W        W90691  19.752  24.978  11.701
25465W        W90692  20.076  33.498  13.143
25466W        W90693  27.904   2.292  12.423
25467W        W90694  43.573  33.418  13.573
25468W        W90695   0.886  38.894   0.733
25469W        W90696  12.394  41.484  11.424
25470W        W90697   0.077  40.593   2.244
25471W        W90698  23.238  16.556   3.734
25472W        W90699  44.892  17.037   2.196
25473W        W90700  33.494  19.042  10.625
25474W        W90701  34.409   1.505   4.831
25475W        W90702   0.934  38.287  13.544
25476W        W90703  21.778  30.124   2.110
25477W        W90704  30.370  15.199   1.418
25478W        W90705  20.096  39.758  12.018
25479W        W90706   7.844  20.591   3.573
25480W        W90707  25.502   1.004  12.007
25481W        W90708   8.351   1.607   0.208
25482W        W90709   4.663  21.150   2.706
25483W        W90710  29.568  14.534   1.695
25484W        W90711   7.042  31.536  11.469
25485W        W90712   0.838  39.348  12.878
25486W        W90713  15.611  26.823   4.047
25487W        W90714  28.940   9.887  14.837
25488W        W90715   1.948  18.142   2.704
25489W        W90716  11.720   6.346   3.348
25490W        W90717  34.514  22.762   1.382
25491W        W90718  34.555  20.915   4.185
25492W        W90719  44.507   3.257  10.245
25493W        W90720  10.333  16.570  12.932
25494W        W90721  38.588  38.457   4.541
25495W        W90722  31.704  41.119  13.357
25496W        W90723  39.244  34.452  14.935
25497W        W90724  41.916  20.576  12.057
25498W        W90725  24.608  17.846  14.407
25499W        W90726  24.482  13.586  11.147
25500W        W90727  35.969  15.423  12.026
25501W        W90728  39.524  11.477   2.032
25502W        W90729  36.137  14.689   3.143
25503W        W90730   5.432   3.757  10.419
25504W        W90731   1.041   9.768   4.381
25505W        W90732  12.159  15.716   1.859
25506W        W90733  39.375   9.173   1.295
25507W        W90734  13.820   7.108   0.407
25508W        W90735  39.702   4.163  10.769
25509W        W90736   0.418  12.307  13.233
25510W        W90737  33.640  12.706   3.587
25511W        W90738  12.376  23.019  12.102
25512W        W90739   0.755  37.047   3.622
25513W        W90740  14.891   9.885   3.303
25514W        W90741  10.884  10.675  12.022
25515W        W90742  15.835  15.755   4.195
25516W        W90743  20.769  17.554   3.817
25517W        W90744  22.613  23.429   2.093
25518W        W90745  14.650  39.971  14.450
25519W        W90746  27.018  19.142   1.924
25520W        W90747   7.768   0.624  14.535
25521W        W90748  13.667  35.562  11.956
25522W        W90749  43.260   7.803   3.321
25523W        W90750  37.086  21.284  13.387
25524W        W90751  17.039  15.242  14.496
25525W        W90752  31.553   1.434  14.980
25526W        W90753  19.034  31.448   2.581
25527W        W90754   7.298  18.961   0.480
25528W        W90755   0.951  32.671  12.936
25529W        W90756  17.184  11.692  13.384
25530W        W90757  32.404  31.183  12.870
25531W        W90758  26.077  12.247  14.022
25532W        W90759  10.149  17.711  14.718
25533W        W90760  35.402  32.953   4.811
25534W        W90761  16.735  39.524   2.794
25535W        W90762  29.922  29.038  13.243
25536W        W90763  22.705  30.845  11.017
25537W        W90764  33.141   2.952   0.214
25538W        W90765   7.534  25.647  11.221
25539W        W90766  29.074  28.250   0.316
25540W        W90767  20.551  17.170  13.881
25541W        W90768  14.832  28.528  14.904
25542W        W90769  10.220  29.643  11.557
25543W        W90770  32.149  42.822   0.127
25544W        W90771  26.193   8.741   3.862
25545W        W90772  38.221  25.009   0.676
25546W        W90773  19.718  44.977  11.613
25547W        W90774  34.311  37.551  14.011
25548W        W90775  24.729  28.998  14.936
25549W        W90776  30.971   6.355   2.372
25550W        W90777   6.163  27.928  12.990
25551W        W90778  28.511  30.915  13.400
25552W        W90779  33.288  18.333  14.667
25553W        W90780  29.401  26.959   1.393
25554W        W90781  26.074  19.765   4.763
25555W        W90782  24.693  42.415   1.029
25556W        W90783  27.996  30.375   3.294
25557W        W90784  38.335  24.253  12.516
25558W        W90785  28.166  39.395   0.453
25559W        W90786   3.749  27.519   2.130
25560W        W90787   9.246  32.001  13.389
25561W        W90788  25.282  31.898  13.489
25562W        W90789  12.150   0.045  11.198
25563W        W90790  44.793  13.616   1.712
25564W        W90791  17.283  21.696  11.683
25565W        W90792  37.453  40.303   2.938
25566W        W90793  18.270  25.836  11.132
25567W        W90794  17.980  22.952  10.736
25568W        W90795  18.204  35.807   0.834
25569W        W90796   3.120  18.535  10.305
25570W        W90797  19.346  24.931   3.689
25571W        W90798  17.857  38.438  13.431
25572W        W90799   2.683  13.411  12.786
25573W        W90800  37.757  43.551  11.657
25574W        W90801   1.728  42.423   1.684
25575W        W90802  28.515  40.389  12.157
25576W        W90803  29.693  33.119  12.333
25577W        W90804  24.602  10.440   1.987
25578W        W90805  11.735  41.253  13.109
25579W        W90806   9.789  14.695   3.236
25580W        W90807  37.707  30.095  12.775
25581W        W90808  35.646  35.787  13.947
25582W        W90809  19.321   7.090  14.908
25583W        W90810  24.846  26.176  12.026
25584W        W90811  22.985  34.864  13.585
25585W        W90812  19.733  24.080  12.862
25586W        W90813  32.425  12.614   3.304
25587W        W90814  22.599  36.558   3.254
25588W        W90815  39.697  25.697   4.109
25589W        W90816  44.096   6.702  12.880
25590W        W90817  36.614   9.985  12.268
25591W        W90818   9.234  34.054   0.042
25592W        W90819  13.806   9.450  10.966
25593W        W90820  42.909  26.715   2.290
25594W        W90821  19.144  20.507  13.014
25595W        W90822  17.576  10.050   2.789
25596W        W90823  37.150   1.262   1.862
25597W        W90824  28.437   9.101  11.072
25598W        W90825  25.932  11.100   2.414
25599W        W90826   5.912  17.462   1.697
25600W        W90827  39.058  41.381   3.571
25601W        W90828   1.327  25.434  10.225
25602W        W90829   1.500  14.207   4.772
25603W        W90830  33.143   8.420  11.508
25604W        W90831  37.380   0.378   3.229
25605W        W90832  30.026   8.503  11.087
25606W        W90833   7.266   5.871   0.470
25607W        W90834   3.278   0.107   5.065
25608W        W90835  41.633  23.484   1.639
25609W        W90836  33.118  40.063   2.938
25610W        W90837  15.251  19.511   1.358
25611W        W90838  40.715  39.864  11.822
25612W        W90839   0.875  42.678  10.237
25613W        W90840  23.542  25.003  11.612
25614W        W90841  16.356  24.651   1.863
25615W        W90842  29.017  18.123  13.639
25616W        W90843  29.971  16.320  12.689
25617W        W90844  34.459  22.511   0.963
25618W        W90845  30.519  10.439  11.281
25619W        W90846  23.308  44.152   5.392
25620W        W90847   4.896   9.912  11.117
25621W        W90848  42.526  27.961   4.347
25622W        W90849  38.288  14.595  14.334
25623W        W90850  34.598  21.009   1.094
25624W        W90851   3.585  34.422  12.574
25625W        W90852  32.406  44.760  13.402
25626W        W90853  24.927  15.725  12.481
25627W        W90854  11.862   6.183   5.331
25628W        W90855  20.538  37.274   1.893
25629W        W90856  28.600   6.447  14.369
25630W        W90857  39.417   0.506  13.929
25631W        W90858   4.275  31.479   0.254
25632W        W90859   5.301   3.524   1.967
25633W        W90860  37.031  44.725  11.631
25634W        W90861  21.087  26.490   1.262
25635W        W90862  12.804   9.697   4.094
25636W        W90863  32.666  35.114   1.916
25637W        W90864  11.787  22.151  12.015
25638W        W90865  10.390  26.424   2.840
25639W        W90866  17.848   3.634   0.869
25640W        W90867  15.059  38.493  13.519
25641W        W90868  22.413  11.595  12.456
25642W        W90869  44.146   8.755   4.567
25643W        W90870  15.150  39.476  12.183
25644W        W90871  31.039   6.606  13.168
25645W        W90872   0.758  27.019  12.118
25646W        W90873  15.811  39.844   2.652
25647W        W90874   2.948   8.015  12.911
25648W        W90875  14.004  14.125   1.839
25649W        W90876  23.243  31.445   0.273
25650W        W90877  26.554  30.921   0.349
25651W        W90878   8.251  39.304  13.933
25652W        W90879  42.497  34.164  11.249
25653W        W90880  36.844   3.894  14.921
25654W        W90881  22.537   8.121  13.045
25655W        W90882   0.418   0.576   1.949
25656W        W90883  35.365   4.629   1.800
25657W        W90884  35.007  34.826   1.868
25658W        W90885   4.885  25.484  13.462
25659W        W90886  21.500   2.752   1.785
25660W        W90887   9.965  18.288  11.536
25661W        W90888  32.417  44.146   3.362
25662W        W90889  12.783  34.508   0.964
25663W        W90890  44.304  20.747   4.043
25664W        W90891  21.969  27.999   4.090
25665W        W90892  42.693  39.896  12.186
25666W        W90893  20.460   1.801   3.255
25667W        W90894  43.331  37.819   1.354
25668W        W90895  15.736  30.686   0.596
25669W        W90896  11.807  29.647   0.749
25670W        W90897  14.572   3.649   4.710
25671W        W90898  24.201  19.625  12.498
25672W        W90899  32.236  39.958   4.986
25673W        W90900  40.541  36.916  14.632
25674W        W90901  29.955  33.460   2.260
25675W        W90902  25.770  23.570  11.480
25676W        W90903  13.146  18.876   3.599
25677W        W90904  26.824   0.057  11.993
25678W        W90905  38.981  42.330   2.251
25679W        W90906  20.006  12.175  13.076
25680W        W90907  23.221   1.461   1.644
25681W        W90908  20.541  12.188  12.404
25682W        W90909  20.335  34.853   2.536
25683W        W90910  12.378   3.482   3.745
25684W        W90911  17.576  11.940   0.383
25685W        W90912  25.668  32.910  11.199
25686W        W90913  13.790   3.600  12.906
25687W        W90914  39.285   2.394   2.065
25688W        W90915  33.410   9.961   3.366
25689W        W90916  11.628  22.803  12.860
25690W        W90917  41.015  43.842   1.914
25691W        W90918  37.367  28.563  14.996
25692W        W90919  32.842  12.381  13.925
25693W        W90920  25.270  27.504  10.304
25694W        W90921  23.706  23.411   1.759
25695W        W90922  30.768  28.370   3.710
25696W        W90923  25.030  39.047   2.957
25697W        W90924  36.413  32.712   0.921
25698W        W90925  25.613  11.625  10.502
25699W        W90926  41.393  33.541   4.828
25700W        W90927   5.299   0.408   3.110
25701W        W90928  12.713   9.669  13.055
25702W        W90929  26.237   3.405  12.493
25703W        W90930  10.312  18.338   0.301
25704W        W90931  18.014  37.547  13.523
25705W        W90932  39.806   0.358  12.138
25706W        W90933  42.399  43.628  13.086
25707W        W90934  38.026  11.819  11.730
25708W        W90935  22.437  34.294   3.815
25709W        W90936   0.262   4.785  10.743
25710W        W90937  35.368  41.380  12.176
25711W        W90938  38.176   3.047  10.683
25712W        W90939  34.942  32.071   3.236
25713W        W90940  12.178  21.859  11.271
25714W        W90941  17.794  44.745  13.492
25715W        W90942  12.022  16.528  11.574
25716W        W90943  35.472  12.541   0.351
25717W        W90944  32.026  15.813  11.265
25718W        W90945  38.800  33.548  11.027
25719W        W90946  28.071  17.634   4.561
25720W        W90947   3.829  11.842  11.152
25721W        W90948   5.057  15.936   1.769
25722W        W90949  12.727  34.874   0.441
25723W        W90950  39.120  44.017  14.039
25724W        W90951  19.573   0.213  13.468
25725W        W90952   2.116  34.421   3.439
25726W        W90953   3.664  18.498   2.612
25727W        W90954  15.980  15.565   5.005
25728W        W90955   7.900  20.681  13.255
25729W        W90956  28.475  35.817   3.239
25730W        W90957  11.603  37.002   2.365
25731W        W90958   7.490  30.548   0.756
25732W        W90959  27.135  15.420   4.532
25733W        W90960  12.323  14.035   2.705
25734W        W90961   0.811  22.311   2.179
25735W        W90962  41.377  31.214   3.255
25736W        W90963  20.624  13.294   2.329
25737W        W90964  15.591  30.621  13.438
25738W        W90965  14.873   6.641  12.113
25739W        W90966   4.213   6.065  13.386
25740W        W90967  33.840   9.189   0.513
25741W        W90968  37.510  23.220  14.680
25742W        W90969   3.648   6.403  12.867
25743W        W90970  33.856   6.160  11.190
25744W        W90971  15.379  36.832   4.242
25745W        W90972  21.265  20.213   1.833
25746W        W90973  38.608   7.653   0.282
25747W        W90974  18.803   8.327   2.397
25748W        W90975  14.819   7.587  11.983
25749W        W90976  39.093  13.591   0.242
25750W        W90977  28.385  35.420  11.508
25751W        W90978  23.038  17.259   4.485
25752W        W90979  12.839  29.582   4.540
25753W        W90980   9.244  41.684   3.264
25754W        W90981  36.190  40.293  12.852
25755W        W90982   3.522  30.000  11.897
25756W        W90983  43.289   3.782  14.084
25757W        W90984   5.927  10.804   4.025
25758W        W90985   0.037  29.178  12.818
25759W        W90986  36.016  14.733   4.920
25760W        W90987  23.636  21.959  11.829
25761W        W90988  33.851   8.688   2.262
25762W        W90989  33.832   8.873   1.427
25763W        W90990   5.474  35.854   2.686
25764W        W90991  33.331  32.640  14.247
25765W        W90992  15.122  33.950   2.702
25766W        W90993  14.604   9.129   1.163
25767W        W90994   9.953  26.665  12.986
25768W        W90995  20.259  31.967   0.913
25769W        W90996  34.888  29.724  12.607
25770W        W90997   1.424  35.486  11.102
25771W        W90998  41.447  14.858  11.048
25772W        W90999  16.747  11.166   0.945
25773W        W91000  36.451  16.093   4.461
25774W        W91001  15.548  39.254   1.420
25775W        W91002  26.504  29.018  14.809
25776W        W91003  33.504  16.513   2.210
25777W        W91004  21.713  31.460  13.365
25778W        W91005   3.813  36.290   3.208
25779W        W91006  27.086   4.903  14.483
25780W        W91007  40.904  18.528  11.497
25781W        W91008   8.267  15.078   0.436
25782W        W91009  17.059  44.052  13.376
25783W        W91010  29.425  31.677   0.955
25784W        W91011  16.897  22.212   1.813
25785W        W91012  34.467  40.878  11.128
25786W        W91013   5.305  18.305   0.435
25787W        W91014   2.290  30.008  13.415
25788W        W91015   7.676  33.883  14.692
25789W        W91016   0.723  26.980   0.173
25790W        W91017  16.388  44.252  14.864
25791W        W91018  44.834   7.895   2.540
25792W        W91019   8.937  35.009  14.770
25793W        W91020   1.185  39.537  13.431
25794W        W91021  14.324   0.211  14.055
25795W        W91022  24.657   4.427   0.834
25796W        W91023  26.949  14.381   4.526
25797W        W91024  26.180  30.610  12.690
25798W        W91025  21.656   1.381   5.415
25799W        W91026  22.266   4.880   3.746
25800W        W91027  21.107  39.782  12.137
25801W        W91028  16.829   4.680   4.387
25802W        W91029  43.526  17.168  14.454
25803W        W91030  31.645  18.313   2.762
25804W        W91031  34.951   6.189   4.282
25805W        W91032  20.665  12.397  11.061
25806W        W91033   4.396  37.631  10.942
25807W        W91034  20.615  29.241  14.826
25808W        W91035  20.305   7.166  14.086
25809W        W91036  24.599  42.843   3.832
25810W        W91037  30.582  31.064   1.219
25811W        W91038  12.277  28.149  10.884
25812W        W91039  26.064  43.802   1.378
25813W        W91040   1.489  27.396  12.594
25814W        W91041  42.591  14.845  10.839
25815W        W91042  10.695  21.286  11.568
25816W        W91043  16.582   5.087  11.101
25817W        W91044  36.424  43.515  11.607
25818W        W91045   5.558   2.877  11.423
25819W        W91046  44.869   1.367   1.941
25820W        W91047  39.366  35.299  10.754
25821W        W91048  11.577  22.211   0.432
25822W        W91049  22.237  44.649   1.015
25823W        W91050  24.221  26.209  13.944
25824W        W91051  41.583  28.946  11.231
25825W        W91052  41.024   8.873   1.244
25826W        W91053  16.315  40.411   3.301
25827W        W91054   2.729  16.621  13.163
25828W        W91055  11.847  17.287   3.553
25829W        W91056   3.887   8.770   1.671
25830W        W91057   5.518  31.982  10.681
25831W        W91058   5.718  24.431  12.609
25832W        W91059  31.626  21.086  12.045
25833W        W91060  37.943  28.971   0.013
25834W        W91061  12.761  19.169   4.294
25835W        W91062  31.908  33.346   0.755
25836W        W91063  16.882  24.499   0.893
25837W        W91064  25.618  14.854  12.183
25838W        W91065   2.032  24.308   5.037
25839W        W91066  22.204  37.850  13.640
25840W        W91067  42.940  35.042  14.856
25841W        W91068   2.778  35.648   0.438
25842W        W91069   0.839   2.378   0.007
25843W        W91070  18.717  16.109  11.970
25844W        W91071  33.677   6.669   3.052
25845W        W91072  32.591  40.398  11.532
25846W        W91073  27.065  10.196  11.488
25847W        W91074   3.408  28.133  11.524
25848W        W91075   2.756  17.325   0.763
25849W        W91076  31.838  29.156   4.869
25850W        W91077  37.261  14.811   1.353
25851W        W91078   1.000   9.366   1.301
25852W        W91079  37.037  31.111  10.795
25853W        W91080  27.638   8.075   3.663
25854W        W91081  33.307  16.325   4.120
25855W        W91082   3.958  16.609   2.333
25856W        W91083  40.448   1.668  13.506
25857W        W91084  10.548  41.436  13.584
25858W        W91085   8.092  33.363  10.805
25859W        W91086  24.164  44.358  10.511
25860W        W91087  34.279  44.232   3.262
25861W        W91088  23.733  20.379  14.828
25862W        W91089  25.711  39.056  12.034
25863W        W91090  40.349   9.275  10.880
25864W        W91091  19.971  30.978  13.353
25865W        W91092  34.041  28.947  13.806
25866W        W91093   9.295   5.932   0.735
25867W        W91094  17.040  25.317  13.772
25868W        W91095  16.618  39.103  12.089
25869W        W91096  17.372  20.158  12.130
25870W        W91097  37.511  19.636   0.936
25871W        W91098  41.699  31.481  11.180
25872W        W91099  35.516  15.232   3.327
25873W        W91100  15.818   5.938  14.483
25874W        W91101  25.099  33.146  13.782
25875W        W91102  41.724   1.344  13.465
25876W        W91103  24.944   9.571  10.972
25877W        W91104  28.648  27.698   2.069
25878W        W91105   6.342   9.766   1.267
25879W        W91106   3.663  20.656  13.343
25880W        W91107  23.803   1.675  13.262
25881W        W91108  12.230  17.014  11.559
25882W        W91109  20.563  42.951   1.736
25883W        W91110  31.140  41.684   0.404
25884W        W91111  41.647  11.169  10.964
25885W        W91112  29.096  26.158   4.431
25886W        W91113   3.563  22.737   1.617
25887W        W91114  30.446  32.576  12.056
25888W        W91115   4.682  36.746  14.968
25889W        W91116  33.400  30.080   3.871
25890W        W91117  14.615   9.852  10.688
25891W        W91118  31.191   3.490   1.415
25892W        W91119  33.099  30.471   1.388
25893W        W91120  22.930  13.648  13.541
25894W        W91121  38.064   0.690  11.359
25895W        W91122  34.450  27.198  14.408
25896W        W91123  13.695  42.794  14.315
25897W        W91124  42.841  30.594  13.776
25898W        W91125  20.983  26.687   1.781
25899W        W91126  42.474  25.600   2.938
25900W        W91127  18.838  11.164  11.949
25901W        W91128  16.861   5.361  13.532
25902W        W91129  34.070  24.669   1.298
25903W        W91130  28.991   2.926   4.779
25904W        W91131  30.508  17.541  13.454
25905W        W91132  37.262  26.540   2.161
25906W        W91133  16.252  41.447  11.603
25907W        W91134  20.075   8.805   1.359
25908W        W91135  27.672  40.321  14.739
25909W        W91136  30.570   2.467   2.678
25910W        W91137  37.486  31.418   2.673
25911W        W91138   5.481  26.086  13.157
25912W        W91139  34.995  43.775   1.055
25913W        W91140  41.965  35.893  10.029
25914W        W91141  10.223   1.363  13.853
25915W        W91142  14.222   7.391  14.931
25916W        W91143  22.747   7.869  13.449
25917W        W91144   0.274  41.220  12.042
25918W        W91145  31.009   5.091   0.487
25919W        W91146  10.383   1.717  12.057
25920W        W91147  43.331   0.198  14.103
25921W        W91148  38.851  11.083   4.151
25922W        W91149   2.951  18.666   1.287
25923W        W91150  44.234  10.596  11.151
25924W        W91151  13.157  22.200  10.729
25925W        W91152  13.684  21.036  14.785
25926W        W91153  36.456  35.445   0.794
25927W        W91154  12.690  12.257   0.809
25928W        W91155  24.902   8.068  12.508
25929W        W91156   2.321  20.169  14.314
25930W        W91157  30.548  23.254  12.229
25931W        W91158  38.858  35.364  10.633
25932W        W91159   7.937  18.778   1.567
25933W        W91160  21.564  20.619   1.194
25934W        W91161  30.686   7.100  14.040
25935W        W91162   4.726   8.950  14.478
25936W        W91163   3.386  14.965   1.338
25937W        W91164  32.554  40.920  12.969
25938W        W91165   7.712  27.556  12.716
25939W        W91166  16.317  22.768   1.604
25940W        W91167  31.928  12.259  13.907
25941W        W91168  42.270  43.926  11.421
25942W        W91169  27.181  11.150   0.698
25943W        W91170  11.670   8.707   1.088
25944W        W91171  24.141   8.885   9.534
25945W        W91172   9.213  19.844   2.201
25946W        W91173  43.336  11.683  11.133
25947W        W91174  37.939  30.000   4.538
25948W        W91175   6.838   9.585   1.205
25949W        W91176  21.089  30.453  12.531
25950W        W91177   8.645  28.789  13.743
25951W        W91178  44.406  23.680  14.368
25952W        W91179  34.186  40.169   3.750
25953W        W91180  20.647  11.099   2.715
25954W        W91181  20.215   2.832   0.400
25955W        W91182  36.412  38.414   2.833
25956W        W91183  40.970   7.649   3.626
25957W        W91184   6.732  35.439  11.498
25958W        W91185  40.879   2.857   0.375
25959W        W91186  38.050  39.862  13.510
25960W        W91187   7.501  24.397  12.036
25961W        W91188   4.793  43.219   3.167
25962W        W91189  44.736  16.628  10.380
25963W        W91190  24.406  37.021   2.786
25964W        W91191  44.810  21.272   4.657
25965W        W91192  34.835  39.312   3.635
25966W        W91193  36.876  22.062   0.707
25967W        W91194  15.303  24.675   3.716
25968W        W91195  35.155  13.399  10.884
25969W        W91196  35.413   0.793  14.751
25970W        W91197   7.421  18.028   3.107
25971W        W91198   4.854  44.230   3.344
25972W        W91199  27.712   8.105  13.920
25973W        W91200  32.282  29.504  12.077
25974W        W91201   2.013   9.803  13.454
25975W        W91202  11.238  26.722  11.584
25976W        W91203  16.790   3.232  12.105
25977W        W91204  18.152  35.051  12.827
25978W        W91205  27.947   9.177   0.658
25979W        W91206  39.301  42.056  14.268
25980W        W91207  27.106  30.961   4.110
25981W        W91208  21.719  42.861  10.704
25982W        W91209  16.492  10.740  11.134
25983W        W91210   8.131  37.056  14.501
25984W        W91211   6.848  23.630   1.222
25985W        W91212  25.093   8.566  11.630
25986W        W91213  31.161  28.479   1.282
25987W        W91214  25.437  25.834  10.570
25988W        W91215  37.965  21.800   0.480
25989W        W91216   5.859  41.693   0.340
25990W        W91217  13.833  33.530  12.593
25991W        W91218  36.310  43.452   2.194
25992W        W91219  23.102  31.084   3.693
25993W        W91220  13.328   8.781   4.140
25994W        W91221  41.072  37.573   3.679
25995W        W91222  19.119   5.327  13.628
25996W        W91223  32.962  19.885   4.048
25997W        W91224  37.513  39.872  13.427
25998W        W91225  31.139  27.062   0.567
25999W        W91226   7.897  26.989  11.267
26000W        W91227  28.428  38.107   3.281
26001W        W91228   6.340   2.418  11.613
26002W        W91229  40.350  42.509  12.216
26003W        W91230  21.395  28.225  13.748
26004W        W91231   8.449   5.341  11.582
26005W        W91232  30.940   1.732   3.702
26006W        W91233  24.659  32.911  12.132
26007W        W91234  40.037  17.155   0.768
26008W        W91235  12.323  17.821   4.713
26009W        W91236   2.621   0.976   0.016
26010W        W91237  22.609  26.956  11.655
26011W        W91238   4.587  41.507   1.996
26012W        W91239  24.766  25.525   4.783
26013W        W91240  13.023  31.552   1.239
26014W        W91241  28.553  25.804  12.049
26015W        W91242   6.244  18.088  13.551
26016W        W91243  31.659  14.161  10.294
26017W        W91244  31.697  36.557  14.819
26018W        W91245   7.333  12.120   1.740
26019W        W91246   8.795  38.874   3.612
26020W        W91247  35.599  23.557  12.146
26021W        W91248  40.255  10.038   2.246
26022W        W91249   2.006  21.461   4.184
26023W        W91250  34.190  33.178   1.730
26024W        W91251  32.459  15.079   1.545
26025W        W91252   0.499  18.049   1.922
26026W        W91253  38.967   4.718   9.755
26027W        W91254  13.171  24.841   1.202
26028W        W91255  14.951  39.487  14.963
26029W        W91256  25.456  40.257  14.041
26030W        W91257  23.240  15.132   0.340
26031W        W91258  37.418  33.858  12.507
26032W        W91259  29.972  38.976  13.460
26033W        W91260  35.950  25.808   1.494
26034W        W91261  14.613  24.177   4.503
26035W        W91262   8.731  25.499   2.962
26036W        W91263  39.794  37.225   1.128
26037W        W91264  34.995  14.397  11.708
26038W        W91265  24.957  18.928  14.510
26039W        W91266  35.369  21.859   2.256
26040W        W91267  29.666  29.951  14.571
26041W        W91268  32.276   5.808   0.721
26042W        W91269  25.460  42.995  14.564
26043W        W91270  31.942  29.535   3.024
26044W        W91271  41.197  34.490  13.045
26045W        W91272   8.212  13.902  10.721
26046W        W91273   2.036  20.785  13.770
26047W        W91274  21.074  30.387  13.869
26048W        W91275   9.718  12.804   1.448
26049W        W91276  31.528  14.216  14.453
26050W        W91277  38.353  20.995   3.537
26051W        W91278   4.619  42.629  11.176
26052W        W91279  19.156   3.543   3.621
26053W        W91280  15.593   6.188  11.959
26054W        W91281  41.524  12.643  13.278
26055W        W91282  23.478  28.121   0.698
26056W        W91283  24.010  44.432  12.908
26057W        W91284  18.078  25.082   1.523
26058W        W91285  33.573  42.477  12.947
26059W        W91286  43.023  23.126   3.129
26060W        W91287  11.626  23.210   2.913
26061W        W91288  40.616  34.582   0.138
26062W        W91289  10.322  31.465   4.843
26063W        W91290   1.264  13.769   3.874
26064W        W91291  21.111  29.122   0.861
26065W        W91292   8.039  24.331   0.772
26066W        W91293  44.383  33.284  12.104
26067W        W91294  21.756  15.039  13.199
26068W        W91295   8.264   5.902   0.530
26069W        W91296  24.465   5.920  14.448
26070W        W91297  41.336  17.826  14.745
26071W        W91298  29.031  18.113   4.329
26072W        W91299  20.673   6.725   2.740
26073W        W91300  39.777  22.929   1.671
26074W        W91301  35.821  20.625   2.070
26075W        W91302  26.149   2.847   3.832
26076W        W91303  10.367   8.397  12.874
26077W        W91304   1.730  25.959  14.893
26078W        W91305   9.616  22.971  10.523
26079W        W91306   5.350  13.056   0.745
26080W        W91307   5.919  15.696   0.102
26081W        W91308   1.860  23.958   0.944
26082W        W91309  21.767   0.767   3.662
26083W        W91310  16.776  14.638   1.579
26084W        W91311  40.345   3.824  12.059
26085W        W91312   6.238   0.297  13.528
26086W        W91313   7.712   0.120  14.419
26087W        W91314  44.773  34.056   4.705
26088W        W91315  43.973  44.003  12.789
26089W        W91316   9.072  19.353  10.169
26090W        W91317  39.862  12.708   0.437
26091W        W91318  33.065  21.293  10.664
26092W        W91319  28.885   0.445   1.773
26093W        W91320  21.327  27.346   0.940
26094W        W91321   8.577  13.736   5.005
26095W        W91322  20.834  41.483   3.682
26096W        W91323  36.693   5.708  11.119
26097W        W91324  14.682  12.262   2.351
26098W        W91325   5.864  39.528  12.585
26099W        W91326  34.036   6.289  11.661
26100W        W91327   3.734   0.718  11.136
26101W        W91328   5.787   3.703  10.784
26102W        W91329  25.768   8.239   1.263
26103W        W91330  34.085   7.845  11.067
26104W        W91331  35.837   8.866   1.698
26105W        W91332  34.682  11.451  13.008
26106W        W91333  21.186   9.361   3.652
26107W        W91334   1.004  16.584   5.488
26108W        W91335   9.193  13.801  11.634
26109W        W91336  18.346  18.507  14.297
26110W        W91337  39.240   2.863   4.648
26111W        W91338  14.127  23.816   1.843
26112W        W91339  29.969  38.386   0.797
26113W        W91340  11.930  42.246  12.541
26114W        W91341  34.032  24.993  10.790
26115W        W91342   4.467  31.963   3.430
26116W        W91343  19.339  35.818   2.702
26117W        W91344  32.572  20.595   4.670
26118W        W91345   1.670  30.091  11.005
26119W        W91346  19.251  32.647   2.517
26120W        W91347  26.581  16.549   0.418
26121W        W91348  13.622  43.743   2.654
26122W        W91349   0.961  23.942   0.222
26123W        W91350  38.085  42.653  12.102
26124W        W91351  10.898  34.977   3.684
26125W        W91352  33.104  35.064  13.289
26126W        W91353   7.278  36.701  10.926
26127W        W91354   7.395  13.439   2.160
26128W        W91355  20.316   6.443  11.634
26129W        W91356  15.440  42.903  13.545
26130W        W91357  24.867  44.301  12.878
26131W        W91358   9.221   3.870   4.061
26132W        W91359  14.412  22.484  10.793
26133W        W91360   4.926  28.191  11.485
26134W        W91361   4.226   6.333   4.177
26135W        W91362  21.481  24.300  14.983
26136W        W91363  37.413  35.952   3.347
26137W        W91364  23.636   9.352  10.505
26138W        W91365  21.195  42.270   3.865
26139W        W91366  19.926  10.339   1.639
26140W        W91367  14.334   7.318   4.227
26141W        W91368  29.686   7.723  13.353
26142W        W91369  27.431  40.302   1.740
26143W        W91370   4.433   4.886  11.840
26144W        W91371  44.388  34.289  12.241
26145W        W91372  29.486   0.304   2.712
26146W        W91373  35.282   0.352  11.717
26147W        W91374   5.294   7.370  14.562
26148W        W91375  33.252   4.882   2.280
26149W        W91376  37.067  25.807  14.204
26150W        W91377  43.235  29.397   3.546
26151W        W91378  23.000  22.077   4.650
26152W        W91379  38.884  35.720   1.379
26153W        W91380  23.492  26.314   0.780
26154W        W91381   7.878   7.468  14.430
26155W        W91382  26.904  25.641   3.108
26156W        W91383  27.615  16.255  13.549
26157W        W91384  34.021  23.287   1.684
26158W        W91385  12.633  40.201  13.424
26159W        W91386  35.313  33.467  13.541
26160W        W91387  30.418  29.005  13.880
26161W        W91388  18.212   2.552  12.898
26162W        W91389   3.648   8.386  11.188
26163W        W91390  21.003  39.543  10.446
26164W        W91391  39.047   1.434  14.417
26165W        W91392  40.461  30.112  14.138
26166W        W91393  33.417  18.211  10.441
26167W        W91394  20.777  26.058   2.639
26168W        W91395   0.570  17.594  13.690
26169W        W91396  25.855  28.977  14.670
26170W        W91397  34.112   5.837   4.010
26171W        W91398  36.516  10.747   0.685
26172W        W91399  20.322  20.187   1.941
26173W        W91400  42.041  28.700   4.204
26174W        W91401   9.399   8.209  11.043
26175W        W91402  22.097  42.460   1.151
26176W        W91403  26.525  26.724  12.511
26177W        W91404  37.453  42.043  14.966
26178W        W91405  24.786   0.453  12.426
26179W        W91406  38.462  20.241   2.819
26180W        W91407  28.073  24.808   1.847
26181W        W91408   6.401  41.002  12.375
26182W        W91409  20.120  41.907  14.438
26183W        W91410   4.817   7.182  14.423
26184W        W91411  20.766  28.652   1.309
26185W        W91412  27.949  35.312   2.782
26186W        W91413  14.183  34.146   3.128
26187W        W91414   4.551  12.685   1.978
26188W        W91415  27.374  23.243  14.214
26189W        W91416  28.596  32.999  13.154
26190W        W91417  30.702  18.709   1.833
26191W        W91418  11.347  14.197   0.205
26192W        W91419  37.987  28.429  11.009
26193W        W91420  38.536  14.284   0.242
26194W        W91421  27.564  27.208   1.510
26195W        W91422   8.651  25.627   4.954
26196W        W91423  41.984  19.621   3.202
26197W        W91424  12.931   7.693   1.355
26198W        W91425  29.919  39.059   1.376
26199W        W91426  23.734   4.325  12.076
26200W        W91427  10.209  39.380   2.243
26201W        W91428  17.708   1.512   4.255
26202W        W91429   0.946  13.256   0.203
26203W        W91430  20.928  35.511   0.852
26204W        W91431   1.901  43.197   2.326
26205W        W91432   0.744  15.148  14.825
26206W        W91433  31.100  16.412  13.500
26207W        W91434  30.023  38.362   3.706
26208W        W91435  25.583  42.298   0.887
26209W        W91436  23.822  37.679   2.713
26210W        W91437  34.780  16.802  14.583
26211W        W91438  21.929  44.509  10.225
26212W        W91439  29.684  32.556   2.424
26213W        W91440  21.652  12.044   2.904
26214W        W91441  15.978   5.013  13.899
26215W        W91442   5.348  41.277  11.233
26216W        W91443  39.682   4.719  11.170
26217W        W91444  37.343  29.086   4.711
26218W        W91445  23.480  28.294  11.181
26219W        W91446  38.917  28.707   4.579
26220W        W91447   2.352  38.110   1.374
26221W        W91448  39.159  21.048   0.383
26222W        W91449   7.911  13.612  13.478
26223W        W91450  41.950  36.279  11.981
26224W        W91451  19.208   7.563   2.868
26225W        W91452   4.853  43.154   0.985
26226W        W91453  19.352  31.109   1.299
26227W        W91454  19.662   3.518   3.677
26228W        W91455  27.890  28.365  14.744
26229W        W91456  12.281  24.580   3.229
26230W        W91457  21.574  42.781  10.218
26231W        W91458   4.444   1.875   1.852
26232W        W91459  26.495  44.023  12.470
26233W        W91460  11.708  37.316  11.130
26234W        W91461  26.081  21.493  12.025
26235W        W91462  33.941   0.577   1.814
26236W        W91463  33.853  20.161  12.224
26237W        W91464  18.832  10.910  12.398
26238W        W91465   3.300   4.656  11.625
26239W        W91466   3.124   8.844   4.149
26240W        W91467  31.554  33.657  11.583
26241W        W91468  44.696   6.837   0.910
26242W        W91469   0.812  20.031  10.336
26243W        W91470  38.649  30.686  14.866
26244W        W91471  23.985   1.557   3.972
26245W        W91472   2.883  23.234  12.432
26246W        W91473  18.095  29.875  13.093
26247W        W91474  41.004   3.820  13.019
26248W        W91475   5.310  29.485  14.504
26249W        W91476  44.893  42.294   0.802
26250W        W91477  12.380   5.775   2.348
26251W        W91478   9.592  38.014  14.484
26252W        W91479  30.544  17.792   4.186
26253W        W91480  26.525   9.789  12.102
26254W        W91481  38.507  34.530   0.939
26255W        W91482  28.462  37.984   1.421
26256W        W91483  30.345  40.313   2.693
26257W        W91484  17.113  43.381  11.585
26258W        W91485  13.775  37.972   3.930
26259W        W91486  39.068  21.994   4.145
26260W        W91487  11.380  20.025  14.306
26261W        W91488  24.943  30.713  11.540
26262W        W91489  22.950   9.486   3.947
26263W        W91490  12.336   3.209   4.188
26264W        W91491  20.141   0.792  10.587
26265W        W91492   5.346   1.848  10.753
26266W        W91493  26.550  24.108  12.493
26267W        W91494  29.081  38.886  13.867
26268W        W91495  33.755  16.598   1.452
26269W        W91496   7.843  44.569  13.506
26270W        W91497  41.490  36.048  10.582
26271W        W91498  34.100  14.410   4.027
26272W        W91499  16.315  18.327   0.888
26273W        W91500  36.900  38.922   3.209
26274W        W91501   4.646  22.565   4.290
26275W        W91502  19.104   1.447  14.534
26276W        W91503   7.330  43.534  12.098
26277W        W91504  42.830  37.977  12.468
26278W        W91505  40.891  30.636  12.469
26279W        W91506  42.469  38.035   3.257
26280W        W91507  10.376  21.591  10.795
26281W        W91508  33.266  13.822   2.624
26282W        W91509  33.869   5.346   4.673
26283W        W91510  19.132   3.361  14.120
26284W        W91511  10.720  13.405  12.021
26285W        W91512  17.634  17.343   3.885
26286W        W91513   0.837  19.166  12.555
26287W        W91514  25.735  40.286  10.635
26288W        W91515  21.759  44.705  11.560
26289W        W91516  13.847   0.806   4.203
26290W        W91517  29.496   0.711   0.318
26291W        W91518  19.811  28.633  13.363
26292W        W91519   6.272  28.454  11.536
26293W        W91520   3.198  15.860  14.864
26294W        W91521  40.867  17.077  11.168
26295W        W91522   6.673  36.826   3.231
26296W        W91523  44.431  20.293   2.827
26297W        W91524  11.880  13.759  12.192
26298W        W91525  24.254  10.673   0.144
26299W        W91526  34.526  33.511   0.301
26300W        W91527  28.091  22.176  11.473
26301W        W91528  23.675  20.067   0.716
26302W        W91529   6.894  44.745  12.488
26303W        W91530   2.771  39.459  14.868
26304W        W91531   8.654   4.662  10.888
26305W        W91532   3.394  20.821  10.484
26306W        W91533  20.326  39.960  12.496
26307W        W91534  19.248  11.319   4.611
26308W        W91535  33.402  14.407  10.152
26309W        W91536  13.810   4.690   3.652
26310W        W91537   7.945  35.536   4.099
26311W        W91538  39.661   5.877  11.849
26312W        W91539   4.644   5.795  10.763
26313W        W91540   5.799  35.811   0.276
26314W        W91541  36.118  18.200  13.067
26315W        W91542   9.463  12.899   4.365
26316W        W91543  21.795  42.542  11.914
26317W        W91544   8.351  18.699   2.850
26318W        W91545  21.538   7.416   3.797
26319W        W91546  37.508  40.893   2.274
26320W        W91547  26.634   8.938   3.688
26321W        W91548  34.422  15.234  14.167
26322W        W91549   9.006  13.181   4.451
26323W        W91550  19.046  43.187   0.784
26324W        W91551  34.920  23.683   2.189
26325W        W91552   6.850  28.961  11.217
26326W        W91553  19.685   9.685  11.516
26327W        W91554   7.371  34.897  12.891
26328W        W91555   0.578   8.326   1.824
26329W        W91556  39.341  12.637   1.739
26330W        W91557  35.439  19.664  14.508
26331W        W91558   5.296  30.367   3.188
26332W        W91559  22.798  30.942  11.953
26333W        W91560  23.196  24.647   3.144
26334W        W91561  43.337  14.096   2.295
26335W        W91562  14.807  18.346   2.021
26336W        W91563  12.890  33.908   4.998
26337W        W91564  13.738  40.093  14.568
26338W        W91565  21.743  26.124   2.753
26339W        W91566   2.406  22.481  11.037
26340W        W91567  31.112   0.415  12.522
26341W        W91568  33.835  15.662  14.798
26342W        W91569   6.712  29.482   3.158
26343W        W91570   7.694  18.932   4.580
26344W        W91571  12.287  25.058  14.940
26345W        W91572   2.537  21.334  12.112
26346W        W91573  15.728  15.235   3.406
26347W        W91574  13.671   9.855  14.044
26348W        W91575  29.922  44.822  12.600
26349W        W91576  22.071  39.474  14.232
26350W        W91577  27.389  17.711   2.282
26351W        W91578  18.682   0.156   2.090
26352W        W91579  28.915  36.864   0.491
26353W        W91580  19.734  24.626  13.541
26354W        W91581  42.373  10.452   1.487
26355W        W91582  16.542  12.725   4.202
26356W        W91583   5.141  34.863   4.949
26357W        W91584  16.778   2.189  13.020
26358W        W91585  23.184   6.119  14.955
26359W        W91586  42.198   1.860  12.546
26360W        W91587   7.093   0.832  14.213
26361W        W91588  32.927  19.180  14.600
26362W        W91589  27.766  39.582   1.358
26363W        W91590  15.674  41.021   0.847
26364W        W91591  25.452  34.077  13.558
26365W        W91592  31.915  40.053   0.795
26366W        W91593  11.662  16.747   0.022
26367W        W91594  38.024  30.401  12.035
26368W        W91595   4.424   1.352   2.602
26369W        W91596  12.535  38.778   4.539
26370W        W91597  42.810  27.021   3.612
26371W        W91598  17.576  18.393   3.758
26372W        W91599  33.982   5.360   3.250
26373W        W91600  42.450  26.981   2.351
26374W        W91601  34.752  37.023  14.742
26375W        W91602   1.904  15.901  11.692
26376W        W91603  26.002  12.977  13.273
26377W        W91604  43.305  14.182  13.103
26378W        W91605  24.526   8.880  12.416
26379W        W91606  23.650   3.292   5.011
26380W        W91607   3.284  38.644  13.469
26381W        W91608  13.900  18.579   2.902
26382W        W91609  37.593   9.831  14.006
26383W        W91610  38.538  42.365  12.431
26384W        W91611   8.846  26.090  10.850
26385W        W91612  19.653   7.156   2.197
26386W        W91613  25.714  41.068  11.975
26387W        W91614  30.993  10.148  10.570
26388W        W91615  15.750  12.948  12.580
26389W        W91616   6.838   2.239   3.135
26390W        W91617  19.116  13.325   4.714
26391W        W91618  17.021  19.251   2.503
26392W        W91619   4.844  42.458  13.914
26393W        W91620  16.737  34.356  11.138
26394W        W91621  21.793  18.471   2.328
26395W        W91622  14.526  26.123   3.113
26396W        W91623  28.083   7.097   2.326
26397W        W91624  10.661   3.828  11.984
26398W        W91625  21.979  33.647   0.858
26399W        W91626   1.321  42.239   1.905
26400W        W91627  28.684  40.479  11.654
26401W        W91628   4.859   1.285   2.357
26402W        W91629  31.857  36.562   2.125
26403W        W91630  21.781  27.161  12.247
26404W        W91631   4.909  39.037   4.617
26405W        W91632  35.825  28.433  13.816
26406W        W91633  39.660   4.091   3.263
26407W        W91634  27.263   8.263  12.534
26408W        W91635  15.834  16.312  13.118
26409W        W91636  19.067  37.052  10.087
26410W        W91637  12.779   7.345  10.581
26411W        W91638  28.851   1.730   0.523
26412W        W91639  44.051  17.893  12.217
26413W        W91640   4.412  38.842  14.585
26414W        W91641  41.052   9.736   1.288
26415W        W91642  24.212   2.955  14.374
26416W        W91643  43.848  40.061   4.560
26417W        W91644  35.759  28.034  14.556
26418W        W91645  13.855  31.478  12.129
26419W        W91646   6.938  24.496  14.793
26420W        W91647  22.853   5.728   0.713
26421W        W91648   3.209  43.758  12.920
26422W        W91649  44.120  38.385   2.589
26423W        W91650   3.790  36.279   0.155
26424W        W91651  38.868  18.496  14.855
26425W        W91652  11.325  39.249  11.162
26426W        W91653  32.635  34.632  14.418
26427W        W91654   8.390  37.358  11.096
26428W        W91655  38.653  19.982  12.395
26429W        W91656  13.762  11.371  12.075
26430W        W91657  13.373  20.197  13.117
26431W        W91658   9.889  30.081  12.947
26432W        W91659  18.165  38.772  13.165
26433W        W91660  15.553  18.788  14.254
26434W        W91661  11.203   4.918  13.086
26435W        W91662  25.488   6.282   1.251
26436W        W91663  23.678   0.098   3.417
26437W        W91664  20.507   3.399  13.550
26438W        W91665  40.637  20.430   0.048
26439W        W91666  11.650  10.913  13.800
26440W        W91667  25.468  15.590  11.415
26441W        W91668  22.003  41.818   1.514
26442W        W91669  23.501   8.852   3.371
26443W        W91670  16.316  35.676  11.885
26444W        W91671  13.224  42.876   4.731
26445W        W91672  23.293  30.522  13.866
26446W        W91673  15.090  28.995  14.956
26447W        W91674  21.544  26.160  10.926
26448W        W91675  33.674  34.340   0.966
26449W        W91676  29.831   0.769   3.573
26450W        W91677   3.884  24.203   3.257
26451W        W91678   1.132  13.629   4.746
26452W        W91679  35.520  13.121  12.109
26453W        W91680  25.717  28.924  13.408
26454W        W91681  23.165   3.113   2.532
26455W        W91682  35.990   1.230  14.073
26456W        W91683  17.222  28.187   1.854
26457W        W91684   8.681  44.281   2.806
26458W        W91685   2.002  44.840   3.156
26459W        W91686  23.963  19.532   0.106
26460W        W91687  44.281  22.263  11.455
26461W        W91688  15.268  21.966   3.540
26462W        W91689  19.792   7.699   2.192
26463W        W91690  43.849  12.623   2.701
26464W        W91691  14.762  31.570  11.692
26465W        W91692  42.936  15.575   2.147
26466W        W91693  12.122  10.127  11.667
26467W        W91694  35.207  33.144  12.100
26468W        W91695  32.015  43.956   4.562
26469W        W91696  30.752  36.843  13.284
26470W        W91697  12.486  14.665  10.283
26471W        W91698  12.397   4.732   3.682
26472W        W91699  37.519  21.773   0.235
26473W        W91700  16.462  10.847  12.047
26474W        W91701  20.383  21.535  13.068
26475W        W91702   0.388   7.898  13.259
26476W        W91703   2.762  40.024  14.894
26477W        W91704   3.698   3.200   0.404
26478W        W91705  29.430  41.184  11.128
26479W        W91706  29.514  22.996   3.806
26480W        W91707  32.938   3.836  13.519
26481W        W91708  19.923  39.318  12.556
26482W        W91709  37.894   2.987   3.724
26483W        W91710  31.033  30.925   4.420
26484W        W91711  25.714  33.419  12.316
26485W        W91712  14.093   8.877  12.700
26486W        W91713  23.290  35.005  11.497
26487W        W91714  27.477  11.655   2.788
26488W        W91715  29.962  30.409  14.458
26489W        W91716  15.935  25.291  13.024
26490W        W91717  24.464  16.756   2.736
26491W        W91718   2.864  21.196  14.323
26492W        W91719  42.968  21.285  13.839
26493W        W91720   2.709   1.693  10.198
26494W        W91721  14.348  20.666   0.283
26495W        W91722  28.132  28.724   2.213
26496W        W91723  37.646  15.169   1.265
26497W        W91724   5.745  14.142   3.799
26498W        W91725   4.872  36.979   3.833
26499W        W91726  41.364  12.323   3.240
26500W        W91727  33.983  12.660  12.465
26501W        W91728   8.080   2.322   4.126
26502W        W91729   4.344   8.287   2.618
26503W        W91730  29.348  16.118   0.158
26504W        W91731  31.561  42.283  12.538
26505W        W91732  14.971  30.675   3.048
26506W        W91733   1.453   9.172   3.551
26507W        W91734  18.422  41.252  12.414
26508W        W91735   6.331  20.691   1.492
26509W        W91736  24.425  15.426   4.265
26510W        W91737  37.002  14.113   3.303
26511W        W91738  18.262   8.152   0.311
26512W        W91739  16.242  20.324   3.702
26513W        W91740   0.752  27.992   1.854
26514W        W91741  32.160   0.445   2.670
26515W        W91742  29.929  44.496  14.379
26516W        W91743  28.257  13.152  14.370
26517W        W91744  42.451  40.988   0.788
26518W        W91745   0.977  24.968   2.364
26519W        W91746  26.215  32.101   1.756
26520W        W91747  24.687  23.126  12.057
26521W        W91748  18.822  36.098  12.963
26522W        W91749  19.168  11.608  12.957
26523W        W91750  22.103  10.315  10.762
26524W        W91751  41.435  37.336  11.094
26525W        W91752  34.802  12.749   4.724
26526W        W91753  21.661  35.084   0.450
26527W        W91754  32.739  24.132  13.885
26528W        W91755  20.021  12.787  10.374
26529W        W91756  40.602  14.643  12.604
26530W        W91757  20.598  25.254  11.199
26531W        W91758  15.708  16.920  14.441
26532W        W91759  42.241   6.385  14.074
26533W        W91760  22.265  39.387   3.129
26534W        W91761  32.073   2.773  14.688
26535W        W91762  34.008  10.114  10.646
26536W        W91763  43.555  24.175  10.660
26537W        W91764  32.161  42.611   1.732
26538W        W91765  43.385  44.434  13.206
26539W        W91766  42.732   9.244  10.913
26540W        W91767  17.128   5.511  12.081
26541W        W91768  32.712  39.866  14.266
26542W        W91769   2.375  26.268  14.322
26543W        W91770  16.595  10.521  13.087
26544W        W91771  16.846  31.363   1.943
26545W        W91772  33.609  12.292  13.486
26546W        W91773  29.073  42.351   2.657
26547W        W91774  31.005  38.794   2.756
26548W        W91775  38.971  30.752   0.282
26549W        W91776  44.838  34.190  10.993
26550W        W91777   5.672  37.580  14.987
26551W        W91778   6.926  20.963  13.428
26552W        W91779  11.292  32.850   2.169
26553W        W91780  40.037  26.905   1.422
26554W        W91781   1.228  32.665  10.529
26555W        W91782  40.816  37.511  13.760
26556W        W91783   1.676  11.322  12.160
26557W        W91784  29.840  37.322  12.494
26558W        W91785  14.873  42.191  14.885
26559W        W91786   7.204  22.777   2.231
26560W        W91787  19.157  35.646   1.286
26561W        W91788  36.030   8.873   0.254
26562W        W91789  32.603  39.895   1.859
26563W        W91790  23.623  23.425  14.954
26564W        W91791  44.496   0.823   2.304
26565W        W91792  19.576  14.218  14.800
26566W        W91793  33.501  30.080   0.383
26567W        W91794  29.063  41.968  11.934
26568W        W91795   0.762   4.922  13.847
26569W        W91796  18.752  43.767  13.700
26570W        W91797  19.759  32.527   1.792
26571W        W91798   9.226  41.776   3.788
26572W        W91799  44.448  33.189  10.772
26573W        W91800   4.878  10.768   0.217
26574W        W91801  36.091  38.043   4.597
26575W        W91802  13.610  25.493   3.750
26576W        W91803  27.566  12.317  12.014
26577W        W91804  41.863  20.064   2.463
26578W        W91805  28.142  18.482   2.802
26579W        W91806  20.014  23.867  10.348
26580W        W91807  13.412  31.499   0.918
26581W        W91808  36.372  35.496   2.332
26582W        W91809   1.664  28.040   3.095
26583W        W91810  25.652  19.709  12.843
26584W        W91811  42.850  40.096  13.552
26585W        W91812  25.632  15.579   3.794
26586W        W91813  37.509  30.540  12.045
26587W        W91814  17.047  13.235   4.484
26588W        W91815  15.335  19.238   0.040
26589W        W91816   4.863  15.166   4.431
26590W        W91817  34.375  30.372   4.970
26591W        W91818  21.517  43.430  11.950
26592W        W91819  22.549   1.616  12.715
26593W        W91820  35.850  16.143   0.714
26594W        W91821   7.674   2.627  14.974
26595W        W91822   8.945  24.450   0.761
26596W        W91823   9.095   9.413  12.489
26597W        W91824  30.986  40.975   2.764
26598W        W91825  12.841   7.190   4.283
26599W        W91826  29.624   2.930  10.879
26600W        W91827   7.745  19.782  12.019
26601W        W91828  23.118   1.964  14.329
26602W        W91829   6.775  12.760   4.647
26603W        W91830  29.499  33.190  11.182
26604W        W91831  29.396   4.355  12.865
26605W        W91832  38.456   0.761   1.771
26606W        W91833  29.400   3.682   3.621
26607W        W91834  20.796   2.807   4.641
26608W        W91835  26.502  34.057  12.454
26609W        W91836  13.190  12.817  11.550
26610W        W91837  35.825  18.605  14.497
26611W        W91838  35.450   5.773   0.305
26612W        W91839  28.857   0.918  12.154
26613W        W91840  38.443  15.235  10.631
26614W        W91841   6.313  29.890  12.744
26615W        W91842  11.481  18.242  12.208
26616W        W91843  29.770   1.947   1.758
26617W        W91844  21.228  14.659   5.003
26618W        W91845   8.201  24.501   1.297
26619W        W91846  12.246  25.741   3.200
26620W        W91847   4.887  33.191  10.617
26621W        W91848  30.225  44.452  13.430
26622W        W91849  37.138   6.355  11.611
26623W        W91850  38.002  36.052   5.080
26624W        W91851   8.211  25.725  14.781
26625W        W91852   5.302  21.305  14.338
26626W        W91853  13.324  34.860   2.717
26627W        W91854  15.199  18.798  12.103
26628W        W91855   4.167  42.622  14.496
26629W        W91856   3.173  15.656  11.464
26630W        W91857  22.142   0.711  14.311
26631W        W91858  19.795   4.627   1.282
26632W        W91859  42.506  33.473  11.659
26633W        W91860  38.988  40.702  11.212
26634W        W91861  17.851  20.002   4.651
26635W        W91862  38.613   8.508   0.721
26636W        W91863   3.798   5.967  10.441
26637W        W91864  42.904  20.324  14.759
26638W        W91865  40.073  29.239  11.029
26639W        W91866  27.302  18.776  14.912
26640W        W91867  27.297   6.859   4.420
26641W        W91868  26.484  39.560  11.572
26642W        W91869  35.942  11.938   1.246
26643W        W91870  20.349  26.071   4.078
26644W        W91871  35.762  35.352  11.571
26645W        W91872   9.719  23.090   1.283
26646W        W91873  31.167  26.525  12.231
26647W        W91874  11.488  14.956  10.023
26648W        W91875  15.714  42.115   1.684
26649W        W91876  27.887   1.898  13.064
26650W        W91877  20.078   8.119  13.036
26651W        W91878   0.146  17.770   0.147
26652W        W91879  27.153  20.814  11.669
26653W        W91880  14.602  33.153   1.285
26654W        W91881  19.877  17.859  10.989
26655W        W91882  38.909  29.863   0.472
26656W        W91883  38.155  24.375  13.551
26657W        W91884   9.355  23.833  13.037
26658W        W91885   4.366  24.985   2.365
26659W        W91886  27.536  26.764  13.409
26660W        W91887  39.520  28.982  10.662
26661W        W91888  39.187   6.642   1.758
26662W        W91889  15.899  38.475  10.200
26663W        W91890  39.393  27.159   0.832
26664W        W91891   8.198  42.481   0.987
26665W        W91892  13.238  34.425  11.789
26666W        W91893  23.677  24.575   1.379
26667W        W91894  17.091  20.181  10.823
26668W        W91895   7.169   5.131  11.997
26669W        W91896  38.359  43.641   0.250
26670W        W91897  18.036  17.386  12.384
26671W        W91898  11.364  14.878   2.288
26672W        W91899   4.154  37.714   3.296
26673W        W91900  44.391   0.972  11.146
26674W        W91901  22.709  43.903  12.884
26675W        W91902  44.009  21.967   9.724
26676W        W91903   9.233  28.457   3.764
26677W        W91904   6.928  41.680   1.776
26678W        W91905  18.680  22.864   4.546
26679W        W91906  28.660   8.679   1.683
26680W        W91907  24.472  30.523  11.364
26681W        W91908  19.760  19.132  12.486
26682W        W91909  31.439   2.146   1.408
26683W        W91910  10.251   0.403  14.479
26684W        W91911   2.978  31.122  10.792
26685W        W91912   9.091  13.546  11.204
26686W        W91913  25.654  22.061  12.064
26687W        W91914   0.927  40.804   1.703
26688W        W91915   6.209  33.296  10.513
26689W        W91916  29.659   4.265  13.357
26690W        W91917  33.235  14.262  10.623
26691W        W91918   6.090  37.063  12.038
26692W        W91919  16.866  28.604  11.642
26693W        W91920  15.245  12.295   4.705
26694W        W91921   8.687  41.280  14.601
26695W        W91922  41.534  15.103  13.270
26696W        W91923   3.310  36.148   1.138
26697W        W91924   3.761  28.190   3.241
26698W        W91925   1.136  37.899   3.591
26699W        W91926   2.727  38.986  14.046
26700W        W91927  23.979  26.328   1.678
26701W        W91928  18.370  33.975   2.432
26702W        W91929  16.748  20.193   0.767
26703W        W91930  11.081   8.251   3.668
26704W        W91931  42.329  24.675   4.054
26705W        W91932  35.011  44.430   2.818
26706W        W91933   5.195  27.679   2.432
26707W        W91934  18.103   0.974  11.619
26708W        W91935  23.823   4.789  10.827
26709W        W91936  14.193  40.179  10.243
26710W        W91937  12.066  42.863   1.386
26711W        W91938  40.316  15.556  11.702
26712W        W91939  13.574  24.541  12.257
26713W        W91940   1.046   7.438  13.844
26714W        W91941   0.378  24.017   2.714
26715W        W91942  22.714  33.887  12.693
26716W        W91943  34.754  18.043  14.823
26717W        W91944  27.549  33.446  13.884
26718W        W91945  10.155  32.087  12.375
26719W        W91946  12.217  25.256   2.269
26720W        W91947  22.658  27.371   4.585
26721W        W91948  43.838  30.341  10.795
26722W        W91949  31.099  43.077   3.769
26723W        W91950   6.767  36.564   4.357
26724W        W91951   5.020   8.752   0.756
26725W        W91952  17.818  22.249  14.929
26726W        W91953  26.549   7.342   0.972
26727W        W91954  14.625   6.673   3.206
26728W        W91955  43.951  36.009   4.238
26729W        W91956  40.833  30.203  12.793
26730W        W91957  18.503  17.375   5.024
26731W        W91958  40.508  23.080  13.864
26732W        W91959  35.065   3.931   3.865
26733W        W91960   2.991   0.755  11.719
26734W        W91961  40.108   1.189   0.952
26735W        W91962  14.129  34.529   2.761
26736W        W91963  29.703  24.552   0.006
26737W        W91964  31.965  36.331   1.666
26738W        W91965  14.867  21.173  14.340
26739W        W91966  29.390  28.119   1.362
26740W        W91967  23.872  37.161   2.793
26741W        W91968  40.041  15.854  14.961
26742W        W91969  30.571  11.881   3.281
26743W        W91970  32.921   3.133   0.650
26744W        W91971  14.042  23.648  13.861
26745W        W91972  22.732  12.546  11.235
26746W        W91973   0.369  13.571  12.054
26747W        W91974  41.555   0.413   0.715
26748W        W91975   2.085  17.864  10.634
26749W        W91976  26.938   2.747   0.887
26750W        W91977  44.383  36.027   0.970
26751W        W91978  40.382  15.235   4.917
26752W        W91979  31.502   7.772   4.220
26753W        W91980   9.761   6.304   3.903
26754W        W91981  16.262  36.469   3.897
26755W        W91982   4.467   9.106   1.309
26756W        W91983  22.227   3.108  11.896
26757W        W91984  34.013  24.546  13.814
26758W        W91985  24.490  14.125   3.815
26759W        W91986  11.924  27.087  13.765
26760W        W91987  32.413  34.350  14.023
26761W        W91988  14.649  39.536  12.374
26762W        W91989  35.648  11.343  13.794
26763W        W91990  26.211  39.402   1.290
26764W        W91991  20.698  11.895  11.023
26765W        W91992  20.941  44.493   3.609
26766W        W91993   7.686  36.580   2.369
26767W        W91994  38.417  21.760   0.171
26768W        W91995  32.039  42.467   4.457
26769W        W91996  40.292  13.711  12.451
26770W        W91997  15.249  43.501   0.728
26771W        W91998  16.229   0.376   0.482
26772W        W91999  43.879  41.400  13.911
26773W        W92000  40.423   2.952  10.617
26774W        W92001   9.070  30.507   1.857
26775W        W92002  29.477  25.898  13.816
26776W        W92003  40.575   7.193   1.719
26777W        W92004  12.259  34.359  10.288
26778W        W92005   5.265  12.815  12.414
26779W        W92006  28.891  17.724   2.395
26780W        W92007  17.160  16.546   3.714
26781W        W92008  21.206  34.387   3.000
26782W        W92009   0.003   3.171   3.613
26783W        W92010  19.611  15.021  12.004
26784W        W92011  16.646  32.176   2.204
26785W        W92012   9.997  36.539   2.251
26786W        W92013  15.782   2.897  13.470
26787W        W92014   2.920   2.187   3.382
26788W        W92015  23.678  21.817  13.881
26789W        W92016   4.619  15.217  11.561
26790W        W92017  42.991  14.821   2.305
26791W        W92018  24.631  25.890   3.587
26792W        W92019  23.838  20.686  11.532
26793W        W92020  33.585   1.818  14.295
26794W        W92021  40.378  18.316  12.623
26795W        W92022  42.048  41.564   1.018
26796W        W92023  37.504  44.323   1.366
26797W        W92024  20.682  31.364  14.973
26798W        W92025  13.081   8.226   1.349
26799W        W92026   0.394   2.913   1.500
26800W        W92027  23.592   2.819  10.641
26801W        W92028  18.004  12.241   3.406
26802W        W92029   4.687  30.692  13.349
26803W        W92030   4.280  40.534   1.790
26804W        W92031  25.877  34.302  13.932
26805W        W92032  13.073   1.342  13.460
26806W        W92033   6.175  36.544   2.564
26807W        W92034  38.593  33.484   2.281
26808W        W92035  44.512  43.322  14.844
26809W        W92036  22.185  39.846  10.844
26810W        W92037   5.226  38.060  10.449
26811W        W92038  35.325  41.582   3.603
26812W        W92039  33.498   1.521   3.274
26813W        W92040  43.943  42.809   0.357
26814W        W92041  15.079   1.874   1.985
26815W        W92042  15.590  33.159   0.358
26816W        W92043  40.244  28.028  14.873
26817W        W92044  44.800   3.746  12.691
26818W        W92045  35.460  41.539  10.511
26819W        W92046  26.558   5.485   4.547
26820W        W92047   7.370  33.723  11.169
26821W        W92048  26.563  19.585  12.940
26822W        W92049  37.286  27.217   1.598
26823W        W92050  35.189  11.847  11.434
26824W        W92051  43.479  41.134   4.587
26825W        W92052   6.611  32.968   3.107
26826W        W92053   1.019  27.346  13.074
26827W        W92054  15.691  11.301   3.692
26828W        W92055  42.973  19.547   1.809
26829W        W92056  26.427  43.089   4.043
26830W        W92057  44.854  42.551  13.780
26831W        W92058  17.134  17.741  14.914
26832W        W92059  26.714  43.565  12.465
26833W        W92060  38.078   3.506   3.222
26834W        W92061   4.404   7.877   0.890
26835W        W92062  38.391  40.965  11.945
26836W        W92063  11.183  18.389   4.742
26837W        W92064  23.197  25.074  14.110
26838W        W92065   4.832  13.348   4.125
26839W        W92066  23.116  26.003  14.898
26840W        W92067  44.344  35.299   4.485
26841W        W92068  19.223  39.988  11.252
26842W        W92069  24.004  17.119   1.801
26843W        W92070  34.574  41.470  10.438
26844W        W92071  26.964  21.740   2.857
26845W        W92072  27.591   0.545   4.445
26846W        W92073   7.765  16.616  13.739
26847W        W92074  17.211   7.271  13.280
26848W        W92075   9.485   7.084   5.096
26849W        W92076  31.188  21.085   0.737
26850W        W92077  34.964  18.458  10.327
26851W        W92078  19.852   3.025  14.753
26852W        W92079  23.619  32.609  10.669
26853W        W92080  13.984  22.869   0.787
26854W        W92081  18.711  28.746  12.394
26855W        W92082  43.486  22.283   0.219
26856W        W92083  22.057   8.344  13.041
26857W        W92084   1.873   4.311   4.095
26858W        W92085  13.781  22.471   2.721
26859W        W92086  24.079   2.627   2.153
26860W        W92087  14.922   9.562   3.740
26861W        W92088  29.285   0.070   4.868
26862W        W92089  40.183  23.130   2.531
26863W        W92090  35.683  20.506  14.379
26864W        W92091  26.654  31.578   4.175
26865W        W92092  13.642  25.998   3.634
26866W        W92093   8.481  25.383   3.400
26867W        W92094   9.420  44.269   0.360
26868W        W92095  36.011  33.319   4.102
26869W        W92096  27.376  39.907  11.912
26870W        W92097  16.069  13.628  13.544
26871W        W92098  34.058  17.087  10.493
26872W        W92099   7.672  26.493   0.185
26873W        W92100  16.273  35.941   4.574
26874W        W92101  41.373   3.510   0.034
26875W        W92102  10.738  33.876  14.932
26876W        W92103  34.489  20.611  12.457
26877W        W92104   8.387   5.935  12.221
26878W        W92105  31.185  42.733  12.178
26879W        W92106   0.459  27.506   0.478
26880W        W92107  36.456  44.028  11.651
26881W        W92108   7.813  19.726   9.750
26882W        W92109  35.375  28.833   0.132
26883W        W92110   0.346  42.875  13.691
26884W        W92111   0.888   7.182   1.254
26885W        W92112  21.160  11.268  11.660
26886W        W92113  31.552  22.273  14.184
26887W        W92114  14.789  39.857   1.830
26888W        W92115  13.125  19.769  12.264
26889W        W92116   5.364  26.323   0.922
26890W        W92117   5.404  25.089  14.337
26891W        W92118  18.503   1.913  12.249
26892W        W92119  22.230  31.220   3.815
26893W        W92120  15.511   2.800  13.043
26894W        W92121  32.919  41.991   4.190
26895W        W92122  17.001  40.418  11.950
26896W        W92123  25.573   5.476   3.650
26897W        W92124  36.965  28.846   0.160
26898W        W92125  23.062  37.272  10.177
26899W        W92126  32.025   3.694  14.246
26900W        W92127  27.535  17.872  14.963
26901W        W92128   9.939   9.807  14.163
26902W        W92129  13.095  20.770  12.498
26903W        W92130  14.629  21.441  14.723
26904W        W92131  15.516  31.186   0.622
26905W        W92132  17.191   8.113  14.330
26906W        W92133  44.944  25.678   1.088
26907W        W92134  43.136  15.411  14.503
26908W        W92135  11.043  41.799   2.320
26909W        W92136   2.500  28.967  11.908
26910W        W92137  25.865  38.432  13.875
26911W        W92138  40.766  33.447   4.555
26912W        W92139   7.720  23.689   0.917
26913W        W92140  19.679  28.656   3.693
26914W        W92141   1.819  31.228  12.650
26915W        W92142  31.544   0.424  12.248
26916W        W92143  30.145  10.114   1.373
26917W        W92144  17.761  34.573   2.843
26918W        W92145   5.978  25.123   1.740
26919W        W92146  44.263  35.058   1.757
26920W        W92147   3.897  37.404   1.559
26921W        W92148  31.052   5.371  13.577
26922W        W92149  23.648  24.130   2.836
26923W        W92150  17.052  37.282  13.631
26924W        W92151  19.907  21.580  12.519
26925W        W92152  18.791  19.071  12.515
26926W        W92153  41.334  30.864  12.023
26927W        W92154  27.257  12.594   1.462
26928W        W92155  20.597  16.572   1.228
26929W        W92156  37.853  41.031   0.896
26930W        W92157  36.587  10.502   1.532
26931W        W92158  18.597  13.209   1.111
26932W        W92159   8.984  23.980  10.162
26933W        W92160  26.727   3.808  14.662
26934W        W92161  19.860   9.370   0.582
26935W        W92162   8.155  16.024   0.440
26936W        W92163  31.965   8.415  11.525
26937W        W92164  26.971  42.921  11.122
26938W        W92165  40.350  15.409   2.213
26939W        W92166  16.387  22.733   1.031
26940W        W92167  28.275  25.097  11.586
26941W        W92168  15.345  17.896   3.594
26942W        W92169  37.548  36.887   1.948
26943W        W92170   9.053  30.426  14.043
26944W        W92171  37.869  16.045   3.743
26945W        W92172  37.616  11.027   3.232
26946W        W92173  18.153  40.437   3.692
26947W        W92174  39.992   4.636  10.742
26948W        W92175  27.311  13.245  11.037
26949W        W92176  29.749  34.877   1.066
26950W        W92177   8.539  12.769  11.352
26951W        W92178  29.090  18.899  13.865
26952W        W92179  19.657  10.094   2.326
26953W        W92180  41.332  29.046  14.766
26954W        W92181   3.273  20.677  13.681
26955W        W92182  44.877   5.230  14.846
26956W        W92183   4.952  13.264   2.200
26957W        W92184  37.897  32.761  13.967
26958W        W92185  34.597  10.908  13.612
26959W        W92186  37.542   9.962   2.806
26960W        W92187  26.516   3.680  11.715
26961W        W92188  28.435  36.080   2.780
26962W        W92189  36.349  11.213   2.002
26963W        W92190  13.702   7.003   1.955
26964W        W92191  37.100  37.656  13.289
26965W        W92192  41.800  16.720  13.293
26966W        W92193  38.285  40.085  13.979
26967W        W92194  21.973  35.892   4.945
26968W        W92195   5.291  41.172   4.631
26969W        W92196  25.574   8.206   4.634
26970W        W92197  25.397  19.312   4.635
26971W        W92198  30.793  28.081  11.618
26972W        W92199   3.236  20.072   1.708
26973W        W92200  43.416   6.353  14.581
26974W        W92201  40.924  39.556   2.054
26975W        W92202  26.930  34.545   0.348
26976W        W92203  30.886   1.286  12.918
26977W        W92204  14.228   5.784   2.433
26978W        W92205  38.025  28.649  11.488
26979W        W92206   0.098  37.761   1.858
26980W        W92207  16.660  15.836   9.891
26981W        W92208   0.148   1.480  10.788
26982W        W92209  32.997  33.151   1.271
26983W        W92210   2.687  16.926  11.441
26984W        W92211  40.529   9.448   3.856
26985W        W92212  29.002   9.361   2.821
26986W        W92213  40.287  30.639  14.288
26987W        W92214  22.399  22.636   4.889
26988W        W92215   2.780  15.479  14.555
26989W        W92216  41.037  41.487   2.637
26990W        W92217  16.614  37.158  12.430
26991W        W92218  23.671  19.238   3.701
26992W        W92219  35.539  43.490   0.415
26993W        W92220  18.695  29.177   4.057
26994W        W92221  25.606  41.066   0.302
26995W        W92222  40.449  31.077  14.503
26996W        W92223   1.559  37.309  11.910
26997W        W92224  24.146  34.127   1.235
26998W        W92225  36.800  26.416   0.263
26999W        W92226  39.519  44.374   2.667
27000W        W92227   6.560  30.496   4.319
27001W        W92228  21.126  12.625  12.165
27002W        W92229   2.096  14.370   3.195
27003W        W92230  29.952  32.613  14.383
27004W        W92231  25.126  44.826  10.612
27005W        W92232  13.879  23.950  10.597
27006W        W92233  24.468  27.642  10.734
27007W        W92234  33.729  18.625   3.689
27008W        W92235  23.596  19.042   2.380
27009W        W92236  20.023  35.296  12.908
27010W        W92237  40.375  42.626  13.406
27011W        W92238   9.819  28.925  12.894
27012W        W92239  41.636   2.973   2.104
27013W        W92240  37.628  31.398  10.385
27014W        W92241  31.192  31.847   0.323
27015W        W92242  28.822  34.980   4.530
27016W        W92243  26.099  15.802   3.970
27017W        W92244  32.512  20.579   1.877
27018W        W92245   5.238  10.825  14.547
27019W        W92246  34.304  13.722   2.220
27020W        W92247  11.602   7.455   4.584
27021W        W92248  10.263  27.959  10.936
27022W        W92249  16.073  13.685   2.362
27023W        W92250   8.701  42.300   1.063
27024W        W92251  22.669  26.179   2.290
27025W        W92252  21.244  40.686  14.102
27026W        W92253  18.160  43.076  13.924
27027W        W92254  21.413  30.599  13.467
27028W        W92255  25.564  21.234   3.189
27029W        W92256  27.941   1.683   2.886
27030W        W92257   7.861  29.900  10.774
27031W        W92258  30.944  20.974   1.182
27032W        W92259  24.648  20.513  13.490
27033W        W92260   8.295  16.366   4.644
27034W        W92261   4.239  23.405   0.867
27035W        W92262  16.656  38.763  14.995
27036W        W92263   4.126  35.101  13.005
27037W        W92264   1.228  14.870   1.406
27038W        W92265  14.869  26.273  11.507
27039W        W92266  22.035  19.950  14.827
27040W        W92267  27.709  22.108  14.855
27041W        W92268  14.124  43.827   0.266
27042W        W92269   6.522  28.722   4.102
27043W        W92270  42.089  25.068  11.207
27044W        W92271  40.350  32.980  11.847
27045W        W92272  30.546  29.073   4.240
27046W        W92273   9.746  18.167   2.198
27047W        W92274  36.993   0.259  14.362
27048W        W92275   4.859  38.143  12.452
27049W        W92276  39.238  12.778   1.230
27050W        W92277  21.055   0.315  11.549
27051W        W92278  25.619  23.991  10.725
27052W        W92279   6.829  29.475   3.691
27053W        W92280  18.994  31.999   4.215
27054W        W92281  33.496   8.738   4.027
27055W        W92282  29.966   8.327   3.147
27056W        W92283  32.544  42.719  12.924
27057W        W92284   1.308  17.732   3.619
27058W        W92285  28.599  12.858   3.642
27059W        W92286  39.734  24.587  13.168
27060W        W92287  16.279  10.738   3.763
27061W        W92288   7.086  37.848   4.756
27062W        W92289  42.883   3.324  13.761
27063W        W92290  30.409  37.130  14.834
27064W        W92291  16.746  16.586  14.855
27065W        W92292  28.046  39.407  14.932
27066W        W92293  40.215  12.012   1.701
27067W        W92294  29.143   1.434   3.173
27068W        W92295  11.057  21.655  14.411
27069W        W92296  35.525  39.045  14.368
27070W        W92297  39.055   1.972  11.949
27071W        W92298  10.707  22.999   3.460
27072W        W92299  28.683   9.739   3.588
27073W        W92300  13.878  26.982  14.926
27074W        W92301   0.916  22.106   3.490
27075W        W92302  35.347  20.555   0.312
27076W        W92303  17.530  44.761   4.037
27077W        W92304   2.288  40.006  10.699
27078W        W92305  37.897  18.732   2.851
27079W        W92306  33.781  35.489   3.492
27080W        W92307   4.709  23.298  13.935
27081W        W92308  29.100  31.965  12.951
27082W        W92309   1.888  19.959   2.217
27083W        W92310   5.607  16.597  12.033
27084W        W92311  38.038   4.399  12.332
27085W        W92312  44.756  36.062  14.317
27086W        W92313  13.805  40.127  13.481
27087W        W92314  20.175  27.955   2.797
27088W        W92315  34.155  12.862   4.081
27089W        W92316  25.237  19.972   1.818
27090W        W92317  26.597  33.887   4.591
27091W        W92318  41.011   3.731   0.348
27092W        W92319  43.775  11.421  11.052
27093W        W92320   4.279  29.549   1.384
27094W        W92321  43.441  18.473  14.973
27095W        W92322   6.031  39.369  13.902
27096W        W92323  10.620  11.063  14.950
27097W        W92324  16.170  10.344   2.887
27098W        W92325  12.010  20.356  12.650
27099W        W92326  28.439  13.426  11.134
27100W        W92327  29.103   0.482  11.310
27101W        W92328   0.497  29.772   4.094
27102W        W92329  22.013  22.649  12.841
27103W        W92330  28.518   2.450   3.615
27104W        W92331  12.123  22.974  12.688
27105W        W92332  43.095  42.598   3.683
27106W        W92333  23.103  42.434  14.388
27107W        W92334  16.090  28.941   0.105
27108W        W92335   7.774  31.145  14.072
27109W        W92336  39.358  40.908   0.059
27110W        W92337  20.038  36.908  10.728
27111W        W92338  17.106   4.223   4.321
27112W        W92339  30.901  41.127  14.868
27113W        W92340  21.738  19.416   3.726
27114W        W92341  29.049  17.307  10.456
27115W        W92342  26.200  36.539  14.906
27116W        W92343  14.201  33.436   0.444
27117W        W92344  39.101  44.527  11.134
27118W        W92345  42.871  25.663  11.076
27119W        W92346  42.825  38.520   1.889
27120W        W92347  15.139  31.511  10.903
27121W        W92348  34.870  16.800  13.455
27122W        W92349  12.524   0.682  12.388
27123W        W92350  23.276  13.091   1.840
27124W        W92351  21.810  21.433  13.869
27125W        W92352  11.172   9.079   3.685
27126W        W92353  14.584  13.927   3.405
27127W        W92354  44.585  38.375   2.317
27128W        W92355   2.911   6.940  12.452
27129W        W92356   9.231   9.069   9.755
27130W        W92357  15.059   9.719  10.927
27131W        W92358  24.813  35.070  12.287
27132W        W92359  33.576  31.605   1.957
27133W        W92360   6.348  16.761  12.875
27134W        W92361  12.609   6.881   2.717
27135W        W92362   5.295   9.752   3.663
27136W        W92363  26.489  39.645   0.912
27137W        W92364  26.439  29.202   0.313
27138W        W92365   6.538  11.573  14.516
27139W        W92366  38.659  32.843   2.706
27140W        W92367  41.312  31.104   0.929
27141W        W92368  41.858  14.169  12.047
27142W        W92369  29.906  13.922   3.589
27143W        W92370   4.405  36.931  12.299
27144W        W92371  10.920  21.031  11.139
27145W        W92372  19.676  33.883   2.495
27146W        W92373   6.478  17.675  13.806
27147W        W92374  19.613   3.316  12.412
27148W        W92375   7.293  38.052  11.494
27149W        W92376  21.897  17.224  10.918
27150W        W92377  37.174  29.673  12.477
27151W        W92378  36.110  27.447   3.634
27152W        W92379  44.304  32.088  11.556
27153W        W92380  34.865  15.190  11.194
27154W        W92381  35.377   7.310  11.673
27155W        W92382  26.213  43.390  13.445
27156W        W92383  15.917  31.007   1.593
27157W        W92384  12.223  41.517  10.406
27158W        W92385  34.438  23.570   1.757
27159W        W92386  32.607  34.201  10.319
27160W        W92387  37.475  21.054  13.111
27161W        W92388  32.552  38.056   0.451
27162W        W92389  22.284   0.212  10.742
27163W        W92390  36.347  29.393   1.858
27164W        W92391   3.565   7.045   0.304
27165W        W92392   8.517  27.950   0.876
27166W        W92393  28.207  12.317  12.415
27167W        W92394  38.505   0.456   3.378
27168W        W92395  35.169  29.404  11.266
27169W        W92396  15.352   5.903  12.448
27170W        W92397  39.808  29.243  11.514
27171W        W92398  39.915   5.207   0.409
27172W        W92399  15.558  37.365  13.421
27173W        W92400  20.127  18.102  11.892
27174W        W92401  30.373  21.641   1.527
27175W        W92402  27.894  24.713   4.062
27176W        W92403   7.507  38.418  13.818
27177W        W92404  38.798  34.606   4.685
27178W        W92405  21.469  25.681  10.673
27179W        W92406   9.416  11.686   2.769
27180W        W92407   5.292  23.643  10.803
27181W        W92408  30.435   1.180  11.622
27182W        W92409   2.955  30.395   0.780
27183W        W92410   8.251  41.274   3.215
27184W        W92411  27.647  15.091  12.542
27185W        W92412   2.375  19.328   1.231
27186W        W92413   0.208  44.619   1.249
27187W        W92414  21.718  16.552  11.053
27188W        W92415   7.886  23.006  12.442
27189W        W92416  16.734  43.042  14.030
27190W        W92417  23.446  36.119  13.518
27191W        W92418  33.156  23.758  12.013
27192W        W92419   5.397   8.359   0.977
27193W        W92420  16.794  32.005  11.222
27194W        W92421  29.522   3.537  14.949
27195W        W92422  34.518  41.554  12.578
27196W        W92423  44.266  22.496   0.960
27197W        W92424  13.408  21.201  12.425
27198W        W92425  20.242  21.810   2.711
27199W        W92426   6.734   0.928   1.393
27200W        W92427   1.768  11.808   0.501
27201W        W92428  35.027   1.867  14.691
27202W        W92429  44.864  37.255   2.728
27203W        W92430  23.914  41.741  11.194
27204W        W92431  16.730   9.887  11.594
27205W        W92432  23.590  42.229   0.307
27206W        W92433  41.586  18.746  10.240
27207W        W92434  28.186  38.988  12.921
27208W        W92435   2.290  22.720  14.805
27209W        W92436  37.997  42.158  11.095
27210W        W92437  19.317  42.316   2.616
27211W        W92438  12.676  31.218   1.009
27212W        W92439  36.001   5.900  13.377
27213W        W92440  14.768  12.395   4.454
27214W        W92441  44.378   2.033   4.141
27215W        W92442  10.124  17.371  11.597
27216W        W92443  29.553  44.475  14.721
27217W        W92444  44.524   4.234   2.551
27218W        W92445  17.188   2.392  11.216
27219W        W92446  13.730  13.544   1.297
27220W        W92447  21.762   3.740  11.337
27221W        W92448  24.731   7.586  11.210
27222W        W92449  12.601   1.240   4.264
27223W        W92450   6.537  40.602  13.867
27224W        W92451  30.892  28.211  11.114
27225W        W92452  12.697  13.139   4.002
27226W        W92453  14.356  29.570  14.063
27227W        W92454  33.541  23.609  13.808
27228W        W92455   2.074  28.969   1.819
27229W        W92456  42.477  13.568   2.316
27230W        W92457  32.545  11.588   4.053
27231W        W92458  13.588  31.483   0.428
27232W        W92459  39.083   4.332  11.959
27233W        W92460  32.299  37.090   0.741
27234W        W92461  22.319  18.690  12.070
27235W        W92462   6.940  16.187  12.071
27236W        W92463  30.648  19.352  11.187
27237W        W92464   7.917  24.539  10.730
27238W        W92465  33.749  26.000   2.199
27239W        W92466   6.693  36.252  11.237
27240W        W92467  25.876  33.391   1.396
27241W        W92468  40.564  15.875   1.350
27242W        W92469   9.854  25.647   3.040
27243W        W92470  24.948  19.715   3.782
27244W        W92471  19.013  26.458   2.403
27245W        W92472  21.525  33.600  10.577
27246W        W92473   5.733  43.605   3.863
27247W        W92474  24.706  18.579   3.286
27248W        W92475  40.859  15.409  12.572
27249W        W92476  13.857  15.598   1.372
27250W        W92477  27.275  43.957  14.907
27251W        W92478  16.807  20.315   4.568
27252W        W92479  15.138   6.650   3.158
27253W        W92480  35.064  29.710   0.579
27254W        W92481  38.708  33.178  11.979
27255W        W92482   7.458  42.901   2.892
27256W        W92483  10.759  41.803  11.616
27257W        W92484  13.173   7.638   0.848
27258W        W92485  26.109  34.460   4.307
27259W        W92486   8.229  16.675  10.697
27260W        W92487  35.568  17.852  12.111
27261W        W92488  22.627  24.746   2.277
27262W        W92489  16.731  15.108  12.600
27263W        W92490   8.400   3.829   1.766
27264W        W92491  29.980  29.470  14.557
27265W        W92492  38.200  21.494   4.751
27266W        W92493  16.594   1.602   1.158
27267W        W92494   1.336   5.449  12.587
27268W        W92495  37.641  23.936  10.278
27269W        W92496  13.513  13.870   1.707
27270W        W92497  37.451  19.157   3.364
27271W        W92498  38.494  39.850   1.760
27272W        W92499  32.268  31.330  14.847
27273W        W92500  12.388  39.759  13.532
27274W        W92501   4.232  19.339  11.209
27275W        W92502   1.101  33.356  11.552
27276W        W92503   5.925  17.551  14.735
27277W        W92504  34.047  16.980   1.227
27278W        W92505  20.092  12.189  14.932
27279W        W92506  10.703  44.361   2.322
27280W        W92507  19.709   2.784  10.272
27281W        W92508  28.328   1.997  10.861
27282W        W92509  20.797   3.237   1.688
27283W        W92510  43.843  35.617  12.340
27284W        W92511  43.600  42.791  10.605
27285W        W92512  41.985  23.255   4.135
27286W        W92513   0.841  12.737  13.929
27287W        W92514  24.509  33.318   4.162
27288W        W92515  29.601  38.115   4.423
27289W        W92516  40.231  27.756  12.823
27290W        W92517  24.377  30.833  12.676
27291W        W92518  34.443  36.803   1.203
27292W        W92519  12.214  41.455   2.672
27293W        W92520  30.767  41.338   1.451
27294W        W92521  39.529  18.484   4.587
27295W        W92522  39.064  36.679  11.138
27296W        W92523   7.413  15.171  11.835
27297W        W92524  14.396  36.641   5.099
27298W        W92525  16.695  37.989  14.038
27299W        W92526  43.358  25.645   2.860
27300W        W92527   3.723   1.032  10.705
27301W        W92528  15.106  11.260   1.895
27302W        W92529  29.362  26.146   3.713
27303W        W92530  16.587   2.671  12.146
27304W        W92531  12.865   0.083   0.837
27305W        W92532  10.084  28.206  14.762
27306W        W92533  20.510  35.195   3.825
27307W        W92534  42.743  32.000   2.240
27308W        W92535  43.390  23.438   1.729
27309W        W92536  21.724  33.126   3.131
27310W        W92537   7.860  33.107   3.349
27311W        W92538  34.882   7.172   5.033
27312W        W92539  42.059  44.189  10.367
27313W        W92540  42.352  20.821  10.673
27314W        W92541  13.891   8.005   1.127
27315W        W92542  28.384  27.422  13.764
27316W        W92543  21.182  40.340   0.451
27317W        W92544  24.379  36.836   2.303
27318W        W92545  26.693  15.656   5.142
27319W        W92546  36.506   4.323   0.713
27320W        W92547   0.088  21.740   3.271
27321W        W92548   3.164  17.063   2.354
27322W        W92549   6.891   1.702  13.977
27323W        W92550  36.401  36.199   4.189
27324W        W92551  14.854   8.706  13.848
27325W        W92552  29.172  28.395  11.612
27326W        W92553  28.943  34.045   3.664
27327W        W92554  25.698  30.888   3.527
27328W        W92555  28.502  29.734  13.887
27329W        W92556  28.113  23.995   2.219
27330W        W92557  26.583  39.779  11.094
27331W        W92558  36.608  28.198  12.134
27332W        W92559  24.996  40.024  11.020
27333W        W92560  28.448  16.326  11.942
27334W        W92561  21.535   7.602  10.813
27335W        W92562  13.299  33.547   2.288
27336W        W92563  36.927  38.549   3.594
27337W        W92564  14.208  31.173  13.497
27338W        W92565  34.449  25.874  11.595
27339W        W92566  27.574  24.362   0.634
27340W        W92567  29.933   4.925   1.136
27341W        W92568  26.178  26.185   0.932
27342W        W92569  13.653  15.188   0.882
27343W        W92570  42.581  29.690  12.357
27344W        W92571   9.197  19.101   9.715
27345W        W92572   6.762  33.927  13.207
27346W        W92573   5.702  13.746   3.475
27347W        W92574  22.511  12.620   2.752
27348W        W92575  44.959  27.672   0.431
27349W        W92576  37.411  39.087  14.051
27350W        W92577  18.786   9.310  12.065
27351W        W92578  17.156  10.171  11.185
27352W        W92579  34.311  10.456  12.938
27353W        W92580  11.835   8.287   1.852
27354W        W92581  10.560  11.963  10.268
27355W        W92582  20.598  18.081   4.585
27356W        W92583  25.530  20.008   1.368
27357W        W92584  28.414  10.204   1.698
27358W        W92585  13.956  25.554   2.778
27359W        W92586  25.609  18.114  13.795
27360W        W92587  36.570  37.076  11.523
27361W        W92588   4.263  31.951   4.807
27362W        W92589   7.470  14.493  13.899
27363W        W92590  15.625  29.391   1.369
27364W        W92591  28.618  13.782   1.925
27365W        W92592  34.262  11.942  14.412
27366W        W92593  10.131   3.274  10.839
27367W        W92594  15.717  33.056   4.122
27368W        W92595   3.889  33.680   4.621
27369W        W92596   2.912  33.339  13.423
27370W        W92597  11.250  37.910   4.655
27371W        W92598   3.284  25.700  14.410
27372W        W92599  19.677  24.270   1.836
27373W        W92600  26.068   3.907  13.237
27374W        W92601  32.193  24.718   3.564
27375W        W92602  43.253   5.308  11.138
27376W        W92603  19.630  28.452  10.683
27377W        W92604  44.762   1.864   1.923
27378W        W92605  44.004  43.999  14.325
27379W        W92606  16.944  23.615   0.653
27380W        W92607  34.538  39.311   4.560
27381W        W92608  10.942  24.559  10.752
27382W        W92609  15.886  11.898  10.741
27383W        W92610   0.982  39.924   1.200
27384W        W92611   8.821  17.549   4.996
27385W        W92612  23.133   9.415   1.728
27386W        W92613   8.879  19.541   0.814
27387W        W92614  10.601  15.744   0.834
27388W        W92615  36.330   5.160  10.116
27389W        W92616  43.799   3.153  11.683
27390W        W92617  26.416   2.954   2.846
27391W        W92618   1.166  35.515   3.377
27392W        W92619  40.018  12.208  12.631
27393W        W92620  43.824  36.367  14.873
27394W        W92621  34.013  13.692  13.528
27395W        W92622  13.974  44.759   2.762
27396W        W92623  42.906  29.247   4.539
27397W        W92624  34.514   7.979  12.117
27398W        W92625  19.846  24.434  14.983
27399W        W92626  34.952  11.331   1.992
27400W        W92627  20.249   4.249   3.062
27401W        W92628   5.748  32.484   1.374
27402W        W92629  11.188  28.032  10.643
27403W        W92630  28.741  12.906  11.071
27404W        W92631  32.964   3.317   2.121
27405W        W92632  34.869   6.936  11.591
27406W        W92633  26.559  25.647  11.467
27407W        W92634  44.404  18.408  12.639
27408W        W92635  19.022   0.632   3.123
27409W        W92636   0.073  33.915   4.200
27410W        W92637  44.318  37.835  10.679
27411W        W92638  10.491  43.932  10.882
27412W        W92639  16.924   8.438   0.271
27413W        W92640  30.335  15.094  14.047
27414W        W92641  43.478  44.318  11.011
27415W        W92642  22.496  18.392   9.875
27416W        W92643   4.983  17.830  12.381
27417W        W92644  29.355  29.645  11.050
27418W        W92645  12.678  29.935  14.861
27419W        W92646   8.361   4.699   3.200
27420W        W92647  26.696  13.248   2.635
27421W        W92648  18.479  41.257  11.641
27422W        W92649  18.584  32.500   3.055
27423W        W92650   3.012  10.116   2.258
27424W        W92651  15.463  34.532   1.517
27425W        W92652  40.453  18.304   4.232
27426W        W92653  35.834  38.465  11.850
27427W        W92654   2.239  25.610  10.113
27428W        W92655   2.792   3.494  14.528
27429W        W92656  40.276  16.163   3.882
27430W        W92657  27.025  20.077   4.674
27431W        W92658  27.644   5.819   3.139
27432W        W92659   7.662  28.263   3.175
27433W        W92660   8.793  18.306   2.251
27434W        W92661  33.866   7.368   2.892
27435W        W92662  36.372  17.360   2.400
27436W        W92663  36.805  23.996  10.736
27437W        W92664  37.389  12.288   4.910
27438W        W92665  16.134  12.774   3.399
27439W        W92666  29.898  32.033   4.822
27440W        W92667   4.356  12.926  12.422
27441W        W92668  12.256  19.277  11.930
27442W        W92669  32.582   2.671  14.777
27443W        W92670  38.840  11.681  13.069
27444W        W92671  19.758  34.632   4.718
27445W        W92672  37.422  34.024   1.444
27446W        W92673  24.492  41.810   1.452
27447W        W92674  36.466  18.864   1.349
27448W        W92675  17.554  23.001   2.752
27449W        W92676   7.806  44.339  10.745
27450W        W92677  39.321   8.283  14.285
27451W        W92678  22.130  14.657   3.698
27452W        W92679   2.705  19.733   1.274
27453W        W92680  35.612  24.272  14.011
27454W        W92681  44.756  36.794  12.986
27455W        W92682  19.990  19.390  13.823
27456W        W92683  28.628  31.464  10.596
27457W        W92684  18.547  14.640   1.250
27458W        W92685  44.236  25.239   2.858
27459W        W92686   0.697  44.373   1.276
27460W        W92687  38.113  34.678   3.265
27461W        W92688  26.903  28.104   2.257
27462W        W92689  26.148  16.152  10.433
27463W        W92690   0.198   1.206  11.218
27464W        W92691  36.374  26.361  12.502
27465W        W92692  39.491  13.013  12.864
27466W        W92693  27.309  27.977  12.460
27467W        W92694  42.459  10.596  11.081
27468W        W92695  19.283  39.979   4.494
27469W        W92696  30.740  29.434  14.068
27470W        W92697  15.100  30.950   0.429
27471W        W92698  28.643  19.238  13.808
27472W        W92699  21.956  33.722  11.565
27473W        W92700  42.470  39.484   2.428
27474W        W92701   7.817  42.586   3.345
27475W        W92702  27.539   3.580  14.774
27476W        W92703  33.696   6.045   0.549
27477W        W92704  18.948  14.881   4.143
27478W        W92705   9.092  41.449  10.167
27479W        W92706  14.631  32.664  11.340
27480W        W92707   8.616  44.977   4.180
27481W        W92708  29.429  18.437   0.773
27482W        W92709  10.466  30.616  14.375
27483W        W92710  13.628   4.431   3.229
27484W        W92711  41.092   1.268   1.770
27485W        W92712  14.286  16.044  14.562
27486W        W92713  43.991   1.638  12.305
27487W        W92714   3.229  31.387   2.200
27488W        W92715  44.760  27.775   3.235
27489W        W92716  27.205  32.222  13.517
27490W        W92717  33.861  13.935  11.979
27491W        W92718  16.376  34.452   3.085
27492W        W92719  42.475  30.730  10.678
27493W        W92720  18.964   3.941   3.334
27494W        W92721   9.001  34.462   2.794
27495W        W92722   2.245  39.830  14.081
27496W        W92723   6.832   5.189   3.338
27497W        W92724  27.073  42.007  14.353
27498W        W92725  28.029  27.965   3.258
27499W        W92726   0.500   5.772  11.612
27500W        W92727  30.394   1.545   4.135
27501W        W92728  20.043  35.285   2.681
27502W        W92729  23.212  10.794   2.093
27503W        W92730  18.506  20.147   1.550
27504W        W92731  35.006   6.902  14.866
27505W        W92732   5.353  13.158  10.794
27506W        W92733  26.711   5.288   0.778
27507W        W92734  23.738  19.108  10.667
27508W        W92735  19.703  33.960   4.805
27509W        W92736  43.289   6.893  14.785
27510W        W92737  16.146  16.627   1.338
27511W        W92738  16.537   1.492  12.454
27512W        W92739  23.192   4.247   2.309
27513W        W92740  38.805  13.131  13.432
27514W        W92741  13.209  13.251  12.517
27515W        W92742  40.937  23.343   1.886
27516W        W92743  33.554   6.966   4.916
27517W        W92744  43.072  13.404  14.185
27518W        W92745   3.151  21.645   4.371
27519W        W92746  28.827  14.605  12.480
27520W        W92747  34.415  26.127  10.988
27521W        W92748  24.460  13.913  13.160
27522W        W92749   3.216  14.526   1.563
27523W        W92750  33.012  36.906   1.604
27524W        W92751  44.271   0.987   0.341
27525W        W92752  11.016  18.540   1.215
27526W        W92753   2.921   6.313   4.475
27527W        W92754  30.034  33.725   1.276
27528W        W92755   9.893  42.586   2.786
27529W        W92756   3.072  14.206  12.536
27530W        W92757  23.109  36.514  10.801
27531W        W92758  25.996   1.917   0.883
27532W        W92759  44.249  21.818  13.902
27533W        W92760  13.494  37.813  13.304
27534W        W92761  14.236  12.927   3.152
27535W        W92762   8.672  13.726  11.463
27536W        W92763   3.934  23.420  11.046
27537W        W92764   6.695   2.427   4.509
27538W        W92765   5.470  20.689  10.378
27539W        W92766   6.720  12.265   4.809
27540W        W92767  20.084  39.581  11.205
27541W        W92768   2.315  32.567   1.297
27542W        W92769  22.815   5.659  12.515
27543W        W92770  31.100   5.046   4.224
27544W        W92771  37.012   6.765   1.252
27545W        W92772  34.599  10.020  12.995
27546W        W92773  38.966   8.282  12.536
27547W        W92774  44.824  19.913   1.462
27548W        W92775  15.681  38.400   1.815
27549W        W92776   8.410  30.510  12.430
27550W        W92777  32.910  38.548   0.552
27551W        W92778  36.731  42.926  11.004
27552W        W92779  15.357  28.234   0.272
27553W        W92780  18.553   7.678   2.632
27554W        W92781  26.100   1.263   2.378
27555W        W92782  17.673  37.601  13.128
27556W        W92783  42.302  28.750   3.012
27557W        W92784   3.640  33.442   3.374
27558W        W92785  26.643   2.362   0.667
27559W        W92786  20.705  32.906   3.868
27560W        W92787  13.360  14.087   3.611
27561W        W92788  38.393  23.026  14.694
27562W        W92789  34.107  32.588  12.431
27563W        W92790  28.865  10.940   4.532
27564W        W92791  43.812  40.975   4.170
27565W        W92792  43.268  42.828  12.681
27566W        W92793  25.839   5.269  14.011
27567W        W92794  17.600  29.639   4.750
27568W        W92795   0.587  21.430   2.175
27569W        W92796  32.982  39.965   3.450
27570W        W92797  14.077  25.608  13.537
27571W        W92798  18.971  35.161   1.547
27572W        W92799  24.769  10.931  11.186
27573W        W92800  22.060  16.114   0.454
27574W        W92801  38.468  25.473   2.613
27575W        W92802  14.173   0.719  13.910
27576W        W92803  38.742  12.615   0.399
27577W        W92804  15.901  16.486   4.602
27578W        W92805   4.870  29.397   3.395
27579W        W92806  39.727   8.994  12.906
27580W        W92807  22.522  10.798  13.118
27581W        W92808  42.796   6.683   1.903
27582W        W92809   5.933   8.320   3.390
27583W        W92810  43.475  42.057   1.279
27584W        W92811   5.850   3.240  14.909
27585W        W92812  40.348  39.043  13.064
27586W        W92813  36.420  11.852   1.439
27587W        W92814  17.335   4.317  13.410
27588W        W92815  36.995  13.173  12.689
27589W        W92816  17.101  37.642  11.167
27590W        W92817  21.745  17.868  13.662
27591W        W92818  29.814   3.514  10.471
27592W        W92819  23.677  25.911   1.687
27593W        W92820  28.565  41.262  13.026
27594W        W92821  33.008  40.436  10.348
27595W        W92822  28.957  34.572   3.744
27596W        W92823  25.174  30.876   4.801
27597W        W92824   4.338  37.057  11.810
27598W        W92825  25.008   4.518   0.426
27599W        W92826  13.862  27.457   4.218
27600W        W92827  43.285  27.948   4.529
27601W        W92828  20.949  42.226   1.440
27602W        W92829  12.920   6.622  11.610
27603W        W92830  17.467  40.047  13.606
27604W        W92831   5.150  40.264  11.155
27605W        W92832   6.184  18.283   0.486
27606W        W92833  35.705  11.550  14.523
27607W        W92834  25.114  24.021  13.848
27608W        W92835  30.211  10.606   1.202
27609W        W92836  13.756  29.526   4.852
27610W        W92837  21.016  29.698  14.477
27611W        W92838  24.549  36.059  11.041
27612W        W92839  36.821  41.899  12.867
27613W        W92840  35.049  38.337  11.941
27614W        W92841   3.915  17.007  14.375
27615W        W92842  22.984   9.674  13.279
27616W        W92843  31.042  15.321   2.749
27617W        W92844  18.843  21.762   0.790
27618W        W92845  32.594  25.157   4.341
27619W        W92846  37.258  27.949   2.286
27620W        W92847   3.938   5.587   2.786
27621W        W92848  21.203  43.140   2.806
27622W        W92849   7.205  34.818   0.484
27623W        W92850  27.200  33.178  14.432
27624W        W92851   2.947  23.714   3.623
27625W        W92852  36.679  40.414   0.474
27626W        W92853  40.109  33.465  11.502
27627W        W92854  25.448  29.557  13.890
27628W        W92855   8.885  28.644   3.053
27629W        W92856  13.828  14.742   3.301
27630W        W92857  11.793  16.814  12.849
27631W        W92858  11.358   2.655   2.109
27632W        W92859  40.244   8.827  12.916
27633W        W92860  20.270   9.278   2.716
27634W        W92861   2.812  42.268  14.972
27635W        W92862  34.560  16.852   4.797
27636W        W92863   8.947   0.509   3.339
27637W        W92864   5.676   2.301  13.552
27638W        W92865   1.585   3.347  13.860
27639W        W92866  32.547   4.488   0.004
27640W        W92867   8.325  41.115  10.768
27641W        W92868   1.030  22.593  12.465
27642W        W92869  14.712  11.145  13.101
27643W        W92870  38.878   1.204  11.609
27644W        W92871  18.717   5.913  11.436
27645W        W92872  17.267  15.843  12.558
27646W        W92873  32.498  44.007  14.310
27647W        W92874  42.606  26.188  12.272
27648W        W92875  23.673  41.459   4.631
27649W        W92876  40.001  36.511  11.085
27650W        W92877  22.420  29.078  14.755
27651W        W92878  21.106   0.089  12.044
27652W        W92879  30.697  32.098   0.454
27653W        W92880  32.484  35.157  14.453
27654W        W92881  39.154   6.863   2.211
27655W        W92882  31.896   4.839  14.946
27656W        W92883  34.191  28.514  12.032
27657W        W92884  15.822  42.537  13.851
27658W        W92885  40.976  32.680  11.467
27659W        W92886   1.862  27.030  12.856
27660W        W92887  24.642   8.466  14.487
27661W        W92888  15.703  14.348  13.625
27662W        W92889   2.691   1.384  14.340
27663W        W92890  41.413  38.800   4.383
27664W        W92891  28.206   7.745  13.530
27665W        W92892   8.614   8.535  11.677
27666W        W92893  38.352  15.995   3.881
27667W        W92894  18.392   1.431   3.658
27668W        W92895  30.393  26.406  14.018
27669W        W92896   5.829  15.915  11.588
27670W        W92897   0.020  39.005   2.778
27671W        W92898  23.524  32.428  12.247
27672W        W92899  28.957  26.406  12.415
27673W        W92900  24.909  38.613  12.917
27674W        W92901   8.210   3.977   0.829
27675W        W92902   4.714   0.851   2.656
27676W        W92903  26.921  14.231   2.047
27677W        W92904  40.917   2.484  13.176
27678W        W92905  26.298   0.905  10.029
27679W        W92906  35.512  33.878   3.384
27680W        W92907  30.594   8.947  14.370
27681W        W92908  14.688  18.985   4.159
27682W        W92909  44.830   0.470   0.974
27683W        W92910  19.551   7.344  14.503
27684W        W92911  22.085  44.754  11.961
27685W        W92912  32.466   1.950  11.075
27686W        W92913  36.438   6.171  13.312
27687W        W92914   9.846  23.990  13.026
27688W        W92915   3.477  33.009   1.880
27689W        W92916  20.688  25.181  14.078
27690W        W92917  31.491  39.831   4.556
27691W        W92918   2.887  41.208   3.107
27692W        W92919  14.833  11.773   0.321
27693W        W92920  32.606  35.037  10.599
27694W        W92921  15.241  39.556   4.070
27695W        W92922  44.747  43.651   3.119
27696W        W92923  27.187  25.787   1.298
27697W        W92924   0.270   4.359  14.280
27698W        W92925  33.564  43.752   4.024
27699W        W92926   4.693  39.446   1.294
27700W        W92927   7.197  41.867  10.687
27701W        W92928  32.019  39.846  12.844
27702W        W92929  11.763  25.526   1.893
27703W        W92930  37.378  32.039   4.241
27704W        W92931  29.823  14.356  10.552
27705W        W92932   8.431  40.664  14.405
27706W        W92933  24.046  43.034   4.293
27707W        W92934  39.539  29.937  14.399
27708W        W92935  28.909  17.446   1.638
27709W        W92936  43.674  23.563   2.522
27710W        W92937  27.485  14.580   1.295
27711W        W92938  42.474  15.824   3.331
27712W        W92939  27.709  29.393   2.870
27713W        W92940  13.332  11.730   1.936
27714W        W92941  26.603  30.673   1.391
27715W        W92942  39.615  20.010  14.553
27716W        W92943  28.097   6.532  10.632
27717W        W92944  16.524  17.810   4.205
27718W        W92945  40.032  44.881  11.972
27719W        W92946  23.149  29.128  13.066
27720W        W92947   9.343  41.540   0.825
27721W        W92948  21.117   5.475   1.253
27722W        W92949  43.823  41.877  13.684
27723W        W92950  23.438  30.410  11.151
27724W        W92951  26.433   2.097   4.186
27725W        W92952   9.489  14.718   1.360
27726W        W92953   2.963  42.945   4.124
27727W        W92954   6.359  38.420   1.209
27728W        W92955  13.592  39.001  13.990
27729W        W92956  21.154   1.280  12.561
27730W        W92957   4.308  13.421  10.932
27731W        W92958  19.199  16.355  13.573
27732W        W92959  36.859  40.447  14.583
27733W        W92960  11.874  16.379   2.944
27734W        W92961  41.893  20.180   1.392
27735W        W92962   2.938  13.084  14.301
27736W        W92963  14.539  28.156  10.719
27737W        W92964  39.531   4.627   4.901
27738W        W92965  22.569  41.761   4.211
27739W        W92966   6.583  23.906  13.978
27740W        W92967  36.946  34.052  11.644
27741W        W92968  25.774  16.713  14.039
27742W        W92969  44.327  39.689   1.001
27743W        W92970  26.539  27.083  11.059
27744W        W92971  44.980  37.672  12.968
27745W        W92972  39.573  32.519   3.680
27746W        W92973  14.897  35.487  13.904
27747W        W92974  36.503   9.430   1.277
27748W        W92975  41.055   7.422   4.201
27749W        W92976  42.903  29.640  11.281
27750W        W92977  11.769  35.892  10.280
27751W        W92978  37.936   0.968   2.883
27752W        W92979  23.985  16.155  13.993
27753W        W92980  21.279  16.974   4.135
27754W        W92981   9.390   7.116   1.022
27755W        W92982  38.856  29.187  14.500
27756W        W92983  30.921  35.004  11.712
27757W        W92984  20.342  34.168   1.247
27758W        W92985  18.918   3.871  14.888
27759W        W92986  18.290   1.833  11.790
27760W        W92987  17.823   6.205   0.287
27761W        W92988   1.128  22.547  13.888
27762W        W92989  23.747  39.079  11.172
27763W        W92990  13.661  17.382   1.878
27764W        W92991   4.899   0.787   0.803
27765W        W92992   9.452  32.495   3.693
27766W        W92993  23.561  33.885   3.219
27767W        W92994   4.869  13.904  10.502
27768W        W92995  21.717  41.919   4.148
27769W        W92996  34.618  34.484   4.339
27770W        W92997  12.366   2.872   1.818
27771W        W92998   2.503  29.259  12.742
27772W        W92999  32.915   9.119  12.029
27773W        W93000   7.346   5.668  11.290
27774W        W93001  23.487  10.622  14.072
27775W        W93002   4.472  40.093   4.059
27776W        W93003  18.420  22.926   0.082
27777W        W93004   6.234  14.307  10.770
27778W        W93005  20.746  11.913  14.593
27779W        W93006  26.703  22.133   2.290
27780W        W93007   6.844  24.626   1.214
27781W        W93008  13.447  11.921   4.533
27782W        W93009  43.092  33.117   4.109
27783W        W93010   6.396  33.647  12.924
27784W        W93011  41.756  35.989  11.035
27785W        W93012  42.482  24.675   3.546
27786W        W93013  13.501   1.972  11.682
27787W        W93014  43.129  35.497  13.881
27788W        W93015  18.981  11.626   5.286
27789W        W93016  40.603  22.890  10.380
27790W        W93017  27.918  24.747  12.504
27791W        W93018   7.847  44.062   4.161
27792W        W93019  13.803  38.124   2.831
27793W        W93020   5.644  20.589   3.394
27794W        W93021   6.055  42.918  13.336
27795W        W93022  19.472  31.830   4.296
27796W        W93023  17.144  44.721  11.661
27797W        W93024  18.675  13.372   4.424
27798W        W93025  12.471  12.628  13.865
27799W        W93026  13.840   7.279   2.823
27800W        W93027  21.776  23.725   2.572
27801W        W93028  39.020  20.562  12.372
27802W        W93029  12.640  31.021   2.447
27803W        W93030   3.808  31.286   1.833
27804W        W93031  12.585  10.994  12.891
27805W        W93032   5.963  39.313   1.647
27806W        W93033  14.514  34.860  14.684
27807W        W93034  12.913  39.905  11.074
27808W        W93035  32.539  29.283   3.074
27809W        W93036  29.927  30.061   3.401
27810W        W93037   7.221  36.879   2.716
27811W        W93038  15.629  16.588   1.306
27812W        W93039  19.752  17.200   1.226
27813W        W93040  24.284  12.615  13.906
27814W        W93041  40.322  40.865  12.482
27815W        W93042   0.907   9.191  13.726
27816W        W93043   2.838   4.385  11.541
27817W        W93044   5.850  19.607  13.613
27818W        W93045   2.092  23.686   1.335
27819W        W93046  34.848  44.786   0.615
27820W        W93047  11.561  29.587   0.282
27821W        W93048  18.493  16.619  13.423
27822W        W93049  18.932  27.195  13.526
27823W        W93050   4.407  16.869  14.464
27824W        W93051  42.276  32.532  14.396
27825W        W93052  44.336  22.178  10.476
27826W        W93053  38.506  26.396  11.635
27827W        W93054  41.946  27.945  12.584
27828W        W93055  17.283   3.357   3.676
27829W        W93056  36.968   9.717   4.558
27830W        W93057   5.175  20.642  10.821
27831W        W93058   6.026  43.444  11.139
27832W        W93059  13.250  36.530  14.047
27833W        W93060  19.997   0.320  10.746
27834W        W93061  26.602  25.148   5.135
27835W        W93062  39.932  31.131  12.973
27836W        W93063  25.118  17.971  14.867
27837W        W93064   5.223  34.451  12.515
27838W        W93065  21.004  10.672  13.049
27839W        W93066   7.181   9.807  13.537
27840W        W93067  38.036  17.016  14.414
27841W        W93068  15.817  21.048   4.890
27842W        W93069  11.626  36.994   0.898
27843W        W93070  25.672  33.373  10.909
27844W        W93071  41.324  40.336   2.299
27845W        W93072  31.376   2.549   1.105
27846W        W93073  23.119  30.863  13.162
27847W        W93074  26.142  29.411   3.269
27848W        W93075  30.973  24.434  10.459
27849W        W93076  41.337  35.331  13.065
27850W        W93077  38.563  14.123  10.447
27851W        W93078  29.715  43.467   3.222
27852W        W93079   3.956  10.649  11.708
27853W        W93080  17.803  34.534   1.365
27854W        W93081  12.760  21.156   0.790
27855W        W93082  15.041  15.610  10.332
27856W        W93083  43.117   6.239   3.320
27857W        W93084  31.649  39.477  11.085
27858W        W93085  25.511  37.094  11.116
27859W        W93086   7.569  40.538   9.932
27860W        W93087  33.228  29.605  12.062
27861W        W93088   3.509  14.065   0.431
27862W        W93089  44.927  15.173   5.039
27863W        W93090  42.054  42.844  14.247
27864W        W93091  32.987   4.877   0.374
27865W        W93092   2.718   7.380  12.193
27866W        W93093  23.921  43.088  11.243
27867W        W93094  34.644   3.813  13.016
27868W        W93095   7.714  20.641  12.442
27869W        W93096   0.451   2.774   3.475
27870W        W93097   1.968   9.244   3.644
27871W        W93098  13.786  12.302   4.364
27872W        W93099  15.533   2.767   3.804
27873W        W93100  34.966  13.258  13.793
27874W        W93101  34.453  21.183  10.490
27875W        W93102   5.334   3.012   4.030
27876W        W93103  16.262  10.270   9.702
27877W        W93104   2.993  22.155  12.407
27878W        W93105   3.161  32.641   3.206
27879W        W93106  11.041   8.572   2.198
27880W        W93107   3.462   6.858   3.912
27881W        W93108   2.510  22.706   1.743
27882W        W93109  13.832   1.887  10.813
27883W        W93110  29.206  35.600  14.933
27884W        W93111  16.070  40.819  12.477
27885W        W93112  22.162  43.459   2.371
27886W        W93113   5.208  34.894  12.154
27887W        W93114   8.915  26.858  11.351
27888W        W93115  39.319  30.078  11.640
27889W        W93116  11.622  12.327  13.856
27890W        W93117  38.025  16.599  12.644
27891W        W93118   0.043  32.118  12.526
27892W        W93119  17.990   3.615   1.967
27893W        W93120   4.756  23.441   2.399
27894W        W93121  12.499  38.477   4.036
27895W        W93122  15.467  16.451   4.959
27896W        W93123   5.224  30.820  14.328
27897W        W93124   9.329   1.867   4.148
27898W        W93125   9.706   0.533  14.862
27899W        W93126  28.964  33.605  12.464
27900W        W93127  21.458  17.111  14.806
27901W        W93128  37.840  34.994  11.148
27902W        W93129  31.501  32.041   2.498
27903W        W93130  44.856   5.145  13.517
27904W        W93131  17.667   7.002  12.733
27905W        W93132  41.510   9.890  11.516
27906W        W93133   0.398  32.378   3.105
27907W        W93134  27.325  29.488  10.128
27908W        W93135  37.853  35.994  13.342
27909W        W93136   6.811  29.712  12.580
27910W        W93137  13.589  41.968   2.354
27911W        W93138  44.641   0.091  13.797
27912W        W93139   3.840  30.165   0.865
27913W        W93140  34.129  28.750   4.537
27914W        W93141  44.122  44.949   1.797
27915W        W93142  40.994  28.479  11.933
27916W        W93143   4.698  24.007   0.419
27917W        W93144  18.450  34.469  13.994
27918W        W93145  13.894   8.916  14.154
27919W        W93146  19.524  25.577  12.500
27920W        W93147  43.748   5.868  14.313
27921W        W93148  33.863   9.798  14.161
27922W        W93149  42.423   6.798  11.524
27923W        W93150  30.527  10.207  10.814
27924W        W93151  44.984  30.929   4.566
27925W        W93152   2.771  44.295  14.877
27926W        W93153   1.235  24.094  12.113
27927W        W93154   2.239  44.644  12.448
27928W        W93155  23.403   2.675   0.363
27929W        W93156  28.059  14.066  14.828
27930W        W93157  28.426  25.711  12.774
27931W        W93158  44.458  10.674  14.266
27932W        W93159  29.724   1.325  14.612
27933W        W93160  34.536  20.325   2.714
27934W        W93161  44.038  19.987  13.080
27935W        W93162   6.039   0.414   3.685
27936W        W93163  33.879  16.292   0.856
27937W        W93164  44.219  17.249  13.167
27938W        W93165  41.025   4.395   2.857
27939W        W93166  39.404  25.727   2.868
27940W        W93167  13.433  24.103  13.172
27941W        W93168  22.643  35.316   3.638
27942W        W93169  28.993  38.493   1.936
27943W        W93170  41.133  27.938   1.606
27944W        W93171   2.377  29.023   3.574
27945W        W93172  18.818  11.335  14.898
27946W        W93173  32.378  12.722   0.372
27947W        W93174  35.520   4.273   3.211
27948W        W93175  43.736  23.924  11.925
27949W        W93176  13.048  23.218   2.701
27950W        W93177   5.737  29.473  13.038
27951W        W93178  39.129  18.135   0.226
27952W        W93179  18.483   7.965   0.832
27953W        W93180  16.755  22.527   0.722
27954W        W93181   5.373  11.565   0.861
27955W        W93182  12.789   6.932  14.055
27956W        W93183  13.702  18.576   1.456
27957W        W93184   0.804  40.805   4.324
27958W        W93185   1.958  24.139   4.205
27959W        W93186  35.001  28.729   4.718
27960W        W93187   4.788  34.061  10.833
27961W        W93188  14.599  19.988   3.938
27962W        W93189  15.790  28.975   2.412
27963W        W93190  25.165  28.689  14.742
27964W        W93191  30.504   6.883   1.798
27965W        W93192  24.708  12.345  14.853
27966W        W93193  17.272  40.873   2.800
27967W        W93194   3.099  24.510   0.029
27968W        W93195   7.409   3.771   3.372
27969W        W93196   5.558  15.883   1.864
27970W        W93197  31.651   2.890   1.893
27971W        W93198  29.898  18.624   2.221
27972W        W93199  26.500  25.214  11.192
27973W        W93200  15.825  39.313   2.762
27974W        W93201  41.810  31.096   4.309
27975W        W93202  34.916  32.057  10.741
27976W        W93203  44.507   4.219  13.780
27977W        W93204  43.896  21.497  12.870
27978W        W93205  30.689   8.904  10.386
27979W        W93206  15.082   6.169  11.987
27980W        W93207  34.109  28.835  12.887
27981W        W93208  11.855  24.858   3.126
27982W        W93209  17.801  14.248  11.800
27983W        W93210   4.861  24.393   4.453
27984W        W93211  27.680  14.754  11.719
27985W        W93212  43.501  27.026  13.145
27986W        W93213   8.298   2.218   3.193
27987W        W93214   2.793  42.891   2.305
27988W        W93215   4.095  27.421  13.287
27989W        W93216   2.808   1.213   3.252
27990W        W93217   2.594  33.482   0.432
27991W        W93218  37.067  24.022  14.081
27992W        W93219  13.059  18.259   9.926
27993W        W93220  41.355  29.823   0.315
27994W        W93221  39.036   5.964   2.396
27995W        W93222  13.748   2.426  13.519
27996W        W93223  29.328  17.473   2.799
27997W        W93224  10.402   7.237  13.038
27998W        W93225  17.034  12.574   3.340
27999W        W93226  17.692  13.768  11.953
28000W        W93227  15.361  26.256  14.837
28001W        W93228  38.037  29.543   4.321
28002W        W93229   8.366  24.186   4.115
28003W        W93230  32.996  33.620   4.325
28004W        W93231  27.030   8.430  11.088
28005W        W93232  12.345  27.432  12.919
28006W        W93233  10.051  33.248   3.305
28007W        W93234  17.784   3.421   4.541
28008W        W93235  34.489  38.033   5.171
28009W        W93236  31.963  36.595  11.943
28010W        W93237   8.288  12.295   4.470
28011W        W93238  31.203  27.853  10.244
28012W        W93239   2.450  10.611  12.885
28013W        W93240   5.685  36.878   1.376
28014W        W93241  35.758   8.328  14.302
28015W        W93242  39.991  39.788  10.956
28016W        W93243  43.486  43.988  12.987
28017W        W93244   6.232  39.796   3.797
28018W        W93245  15.204  10.442   0.249
28019W        W93246  17.198  14.083   4.104
28020W        W93247  43.612  35.377  11.480
28021W        W93248  36.350   9.778   2.464
28022W        W93249  36.075   1.787  11.239
28023W        W93250  44.304  11.605   1.905
28024W        W93251  21.974  34.451  13.064
28025W        W93252   1.518  44.457   1.767
28026W        W93253  29.724  42.029   2.309
28027W        W93254  25.961   5.203  12.661
28028W        W93255  44.398   8.954   4.973
28029W        W93256   8.935  11.163  14.407
28030W        W93257  36.551  43.040   3.364
28031W        W93258  34.804   5.831   3.374
28032W        W93259  20.616  26.565   2.573
28033W        W93260  44.287  21.744  12.491
28034W        W93261  37.891   7.954   1.798
28035W        W93262  40.659  11.733   1.741
28036W        W93263  19.227   0.120  11.657
28037W        W93264   3.545  17.537   2.403
28038W        W93265  39.032  23.319  14.069
28039W        W93266  34.447  14.508  14.909
28040W        W93267  29.473   6.788  10.662
28041W        W93268   9.623  31.878  10.290
28042W        W93269  13.222  18.938  14.664
28043W        W93270  27.720   4.130  10.726
28044W        W93271   0.254  11.760  12.549
28045W        W93272   0.334  41.020  14.586
28046W        W93273  40.506  12.292   3.514
28047W        W93274  44.770  11.864  11.210
28048W        W93275  44.728  20.213   1.901
28049W        W93276  16.571  10.149   4.658
28050W        W93277   4.349  21.438  12.465
28051W        W93278  23.704  32.951   3.092
28052W        W93279   1.308   3.684  14.844
28053W        W93280  30.413   5.415  14.385
28054W        W93281   0.953   3.820   4.200
28055W        W93282  38.568  19.235  12.914
28056W        W93283  27.772  34.097   3.339
28057W        W93284  33.436  10.717   0.272
28058W        W93285   1.141  37.944  12.444
28059W        W93286  11.112   1.671   0.693
28060W        W93287  10.021  15.155  14.851
28061W        W93288   0.954   0.840   1.180
28062W        W93289   6.263  12.891   4.630
28063W        W93290  10.658  17.660  14.943
28064W        W93291   5.206  43.557  12.513
28065W        W93292  40.295  34.151  12.941
28066W        W93293  38.403  22.802  12.410
28067W        W93294   1.531  44.223   3.022
28068W        W93295   7.416  27.133  11.221
28069W        W93296  28.629  20.786   0.510
28070W        W93297  13.507   2.730   3.437
28071W        W93298  39.817  18.186   0.080
28072W        W93299  41.850  13.272  11.958
28073W        W93300  22.544  35.618   4.119
28074W        W93301   1.116  42.220  14.538
28075W        W93302  24.182  29.604   4.687
28076W        W93303  34.548   7.181  14.694
28077W        W93304  18.841  44.357   1.908
28078W        W93305  36.167   6.678  11.124
28079W        W93306  10.370  15.611   2.241
28080W        W93307  11.276   0.719  14.001
28081W        W93308  33.999  27.244  11.485
28082W        W93309  34.122  28.232  11.596
28083W        W93310  33.175  42.314   1.951
28084W        W93311   7.923   9.783  11.256
28085W        W93312  33.714  15.284   2.730
28086W        W93313  11.709  35.359  14.822
28087W        W93314   2.780  14.796   2.306
28088W        W93315  44.404  43.226  10.996
28089W        W93316  28.265  19.827   4.745
28090W        W93317  38.134  25.099  14.666
28091W        W93318  12.632  16.602   0.295
28092W        W93319   9.315  41.967  12.882
28093W        W93320  20.312   3.287  14.732
28094W        W93321  10.564  37.995   4.053
28095W        W93322   4.064  12.385   1.257
28096W        W93323  20.264  30.009  13.423
28097W        W93324   9.636  23.676  11.270
28098W        W93325  38.086  43.279   2.376
28099W        W93326   9.745   7.765  12.576
28100W        W93327  21.131  28.896   0.383
28101W        W93328   8.580  44.346  14.982
28102W        W93329  37.038  20.881  11.417
28103W        W93330  12.856  41.418   3.432
28104W        W93331  30.638  40.907  12.624
28105W        W93332  23.806  24.105   4.214
28106W        W93333   5.167  24.512   4.855
28107W        W93334  24.699  16.571  13.868
28108W        W93335   5.822  27.677  11.123
28109W        W93336   6.337  18.176   0.961
28110W        W93337   8.215  37.512  10.646
28111W        W93338  11.220  38.802  10.918
28112W        W93339   8.265  25.388   4.716
28113W        W93340  17.325  24.383   1.689
28114W        W93341  28.588  38.622  12.389
28115W        W93342   1.389  30.970  14.343
28116W        W93343  21.749  40.960  12.906
28117W        W93344   2.651  24.170   3.650
28118W        W93345  16.671  20.762   1.421
28119W        W93346  44.478  29.907   4.080
28120W        W93347  32.660  19.979  13.806
28121W        W93348  16.661  33.571   4.869
28122W        W93349  38.764  44.604  10.746
28123W        W93350  20.795  44.370   1.885
28124W        W93351  33.997  42.124   1.159
28125W        W93352  24.794  44.766  13.829
28126W        W93353  14.156  23.510  13.340
28127W        W93354   9.889  22.223  12.639
28128W        W93355  43.365   5.863   4.752
28129W        W93356  24.673  21.063   4.168
28130W        W93357  28.723   9.614  11.929
28131W        W93358  36.031  11.813  12.510
28132W        W93359   6.299  29.867   0.344
28133W        W93360  39.613  31.783   0.942
28134W        W93361   0.892  37.821   0.779
28135W        W93362  39.934  39.530   1.797
28136W        W93363   6.680  25.444   1.856
28137W        W93364  35.728  32.012   2.690
28138W        W93365  14.156  34.577   2.217
28139W        W93366   3.000  11.438   3.704
28140W        W93367  16.161  16.879  12.618
28141W        W93368  30.715  42.840  12.016
28142W        W93369  30.614  38.037   3.165
28143W        W93370  26.448  33.555   4.089
28144W        W93371  44.971  40.149  14.876
28145W        W93372   4.535  30.561   4.305
28146W        W93373   6.958  33.201  13.742
28147W        W93374  42.826   5.389  12.384
28148W        W93375  16.563  21.533  13.937
28149W        W93376  43.250  21.490  11.151
28150W        W93377  34.264  43.361   3.186
28151W        W93378  27.224   1.434   4.665
28152W        W93379  43.780  30.499   3.154
28153W        W93380   3.395   9.592   3.720
28154W        W93381  34.357  43.364  11.766
28155W        W93382  34.609  20.470  13.378
28156W        W93383  29.700  10.948  14.467
28157W        W93384  43.834  21.550   3.504
28158W        W93385  21.665  31.489   2.399
28159W        W93386   1.303  38.622   0.839
28160W        W93387  40.799  14.780   2.574
28161W        W93388  35.841   3.565  13.749
28162W        W93389   9.776   1.214   0.701
28163W        W93390  22.482  31.371  12.138
28164W        W93391  19.550  11.876   1.707
28165W        W93392  18.547  17.108  10.827
28166W        W93393  28.548  22.529  14.536
28167W        W93394  27.601  10.167  13.126
28168W        W93395  30.688   8.207   2.429
28169W        W93396  37.797  34.322   1.656
28170W        W93397  18.105  14.941  12.831
28171W        W93398  13.847  23.725   0.182
28172W        W93399   7.140  21.211  14.991
28173W        W93400   4.182   3.931   0.363
28174W        W93401  39.161  28.916   1.929
28175W        W93402  43.884  26.953  12.649
28176W        W93403  44.396   3.856   0.998
28177W        W93404  15.109  16.486   1.336
28178W        W93405  23.441  32.028   1.321
28179W        W93406  14.260  33.843  12.806
28180W        W93407  31.284   4.900  13.472
28181W        W93408  20.129  42.289   2.847
28182W        W93409  41.962  15.316  11.795
28183W        W93410  44.903  27.456  14.538
28184W        W93411   3.847  19.022  11.295
28185W        W93412  29.161  14.255   9.768
28186W        W93413  29.009  17.648   3.349
28187W        W93414  39.117  20.183  11.496
28188W        W93415  30.641   1.422   1.474
28189W        W93416  33.482  26.725  13.888
28190W        W93417  32.873  41.134   4.583
28191W        W93418   8.862  10.422  11.307
28192W        W93419   2.632  12.593  12.019
28193W        W93420  44.433  15.875  13.951
28194W        W93421  11.823  13.135  14.621
28195W        W93422   0.473  19.031  12.153
28196W        W93423  12.280  32.922  14.368
28197W        W93424  19.860  20.317  11.961
28198W        W93425  24.127   5.049  12.443
28199W        W93426  13.657  38.035  12.848
28200W        W93427  12.612  18.062  14.790
28201W        W93428  20.693  22.122  10.750
28202W        W93429  25.187  28.048   0.313
28203W        W93430   0.959  18.566  10.283
28204W        W93431   4.543  18.669   1.821
28205W        W93432   4.575   6.652  13.861
28206W        W93433  25.499  24.678   1.697
28207W        W93434   2.070   9.367  12.197
28208W        W93435   8.701  21.606   0.485
28209W        W93436  17.226  40.962   0.924
28210W        W93437  19.156   9.862  14.838
28211W        W93438  36.100  36.834   2.213
28212W        W93439   2.047  15.777   0.233
28213W        W93440  40.969  27.864   2.262
28214W        W93441  26.540  27.005   4.534
28215W        W93442  34.025  28.996   2.236
28216W        W93443  24.189  17.639   3.501
28217W        W93444  12.944  12.593  11.146
28218W        W93445  24.478  13.091   0.823
28219W        W93446  33.519  41.804  13.474
28220W        W93447  39.359  33.453   0.826
28221W        W93448  43.289   5.871   0.307
28222W        W93449  37.333   5.279   0.297
28223W        W93450   8.684  42.057   0.616
28224W        W93451  15.928  19.734   4.468
28225W        W93452  36.176  30.692   2.817
28226W        W93453  36.143  44.228  13.375
28227W        W93454   4.199  38.531  11.928
28228W        W93455  12.795   8.734  13.156
28229W        W93456  11.733   4.424   3.241
28230W        W93457  11.768   0.685   3.620
28231W        W93458  21.047   7.111   2.653
28232W        W93459  28.579  44.060   4.238
28233W        W93460  32.889  42.918  11.171
28234W        W93461   0.401   7.324  11.817
28235W        W93462  21.366  14.847  12.336
28236W        W93463   0.761  15.451   3.650
28237W        W93464  38.229   4.418  11.206
28238W        W93465   2.835  34.781  14.829
28239W        W93466  11.610  19.587  10.782
28240W        W93467  24.496  32.630   2.114
28241W        W93468  26.544  30.653  14.526
28242W        W93469   4.847  35.932   1.292
28243W        W93470  20.622  34.205   3.676
28244W        W93471  19.123   9.826   1.851
28245W        W93472  40.576  38.836   4.898
28246W        W93473  13.636  44.818   1.203
28247W        W93474  40.337  18.261  10.860
28248W        W93475  10.381   5.211   4.155
28249W        W93476   8.777  28.424   3.502
28250W        W93477  20.478  23.934  13.372
28251W        W93478  22.485  39.843  14.962
28252W        W93479  20.235  32.068  14.821
28253W        W93480  33.435  44.695   4.456
28254W        W93481  36.089  38.907  12.111
28255W        W93482  22.941  15.546  11.904
28256W        W93483  12.260  22.118  14.829
28257W        W93484  30.815  35.848  11.926
28258W        W93485  12.695  27.975   1.972
28259W        W93486   5.190  39.020   4.167
28260W        W93487  37.800  22.421  10.559
28261W        W93488  33.206  39.789   2.344
28262W        W93489  42.974   1.168  13.245
28263W        W93490  33.929  34.964   4.915
28264W        W93491  17.988  43.132   2.704
28265W        W93492  22.040  41.486   3.300
28266W        W93493  33.121  44.981   4.878
28267W        W93494  28.448   0.921  14.454
28268W        W93495  11.607  29.430  12.569
28269W        W93496   5.332  39.277   3.193
28270W        W93497  26.428   4.753  14.990
28271W        W93498  24.705   6.427   1.921
28272W        W93499  42.244  20.997   3.678
28273W        W93500   4.916  32.187  10.573
28274W        W93501   0.799  24.877   4.454
28275W        W93502  30.856  26.158  13.489
28276W        W93503   1.016  24.448   3.240
28277W        W93504  19.750  20.145  11.494
28278W        W93505   2.184  43.677   1.141
28279W        W93506  44.464  28.652  13.525
28280W        W93507  11.544  23.682  13.803
28281W        W93508  34.491  36.900   0.662
28282W        W93509  25.458  28.671  11.531
28283W        W93510  41.457  34.113  12.445
28284W        W93511  10.593  24.109  12.519
28285W        W93512  12.509  17.500  11.649
28286W        W93513  43.289   2.357  13.358
28287W        W93514  13.866  41.066   0.758
28288W        W93515  20.741  13.567   1.891
28289W        W93516  20.328   7.341  14.969
28290W        W93517  38.510   5.747   1.396
28291W        W93518  10.974   4.432  10.424
28292W        W93519  31.185  36.593  13.436
28293W        W93520  12.736  11.641  10.903
28294W        W93521  18.739  26.599  12.630
28295W        W93522  13.875  30.948   2.318
28296W        W93523  15.061   9.876   4.271
28297W        W93524   7.375   1.278   0.816
28298W        W93525  27.151  35.051  11.281
28299W        W93526  21.644  32.906  13.396
28300W        W93527  19.297  25.679  12.974
28301W        W93528  15.249  34.923   2.279
28302W        W93529  40.492  16.792  12.143
28303W        W93530  38.617  25.487  13.430
28304W        W93531  33.086  42.748   2.275
28305W        W93532  11.281   3.862  11.154
28306W        W93533  20.643   8.429  10.699
28307W        W93534   3.187  41.267   3.968
28308W        W93535  31.977  34.505  10.262
28309W        W93536   3.335   4.938  11.194
28310W        W93537  36.811   8.348  10.290
28311W        W93538  43.598  39.894  11.234
28312W        W93539  36.603  16.597  10.937
28313W        W93540  25.448   7.306   2.276
28314W        W93541  39.011  38.638   2.286
28315W        W93542  44.606  35.685  13.956
28316W        W93543   5.142  24.247   1.321
28317W        W93544   3.736   4.373  11.625
28318W        W93545  12.579  42.771   0.486
28319W        W93546  23.193  11.914   3.171
28320W        W93547   5.412  30.661   4.957
28321W        W93548   4.211   4.773   3.218
28322W        W93549  24.235  26.154   3.817
28323W        W93550  25.631   3.904  11.496
28324W        W93551   8.227   1.507  13.655
28325W        W93552  25.084  22.915   1.957
28326W        W93553  11.393  43.997   1.696
28327W        W93554  12.639  37.801   0.383
28328W        W93555   7.574  28.699   4.179
28329W        W93556  41.755  27.060  12.365
28330W        W93557  19.162  21.307   4.665
28331W        W93558  15.793  11.698   0.149
28332W        W93559  27.610  21.552  11.522
28333W        W93560  44.253  11.274   0.958
28334W        W93561   2.261   7.592   4.280
28335W        W93562  40.459  27.543  14.034
28336W        W93563  28.433  30.770   4.551
28337W        W93564  32.655   4.193   2.863
28338W        W93565   2.123   2.628  14.918
28339W        W93566  38.425  21.802  12.510
28340W        W93567   8.678  16.701   3.667
28341W        W93568  10.791  43.856   2.388
28342W        W93569  12.795  43.647   0.873
28343W        W93570  37.505  11.124   1.705
28344W        W93571  36.298  15.670   3.667
28345W        W93572  21.084  29.165  10.581
28346W        W93573  27.642  39.561  12.202
28347W        W93574  17.886  17.528  14.431
28348W        W93575  19.066  14.599   0.917
28349W        W93576   0.465  36.420  13.444
28350W        W93577  44.961  31.342  13.724
28351W        W93578  26.984   3.841   2.322
28352W        W93579  17.034  10.650  14.266
28353W        W93580  30.051  22.595  12.012
28354W        W93581  19.265   7.706  11.654
28355W        W93582   1.502  36.433  13.532
28356W        W93583  14.306   2.094   3.312
28357W        W93584  21.208   9.283   3.120
28358W        W93585  21.875   2.523  13.014
28359W        W93586  18.105  40.669   3.236
28360W        W93587  14.181  34.596   3.695
28361W        W93588  16.272  23.102  10.449
28362W        W93589  27.941  25.132   1.467
28363W        W93590  26.604   3.805  11.228
28364W        W93591  25.065  31.621   0.920
28365W        W93592  21.404  37.928  11.681
28366W        W93593  15.788  30.648  11.615
28367W        W93594   7.510  20.970   3.643
28368W        W93595   3.203  37.577  14.866
28369W        W93596  23.064  39.163   3.121
28370W        W93597  32.128  17.795   2.148
28371W        W93598  16.310  19.274   1.856
28372W        W93599  25.460  34.023   0.984
28373W        W93600  36.240  28.490  11.942
28374W        W93601  11.191   6.800  14.579
28375W        W93602  11.883   5.599  11.372
28376W        W93603   7.298  21.520   2.761
28377W        W93604   4.084  42.737   3.330
28378W        W93605  33.926  36.309  12.051
28379W        W93606  22.035  11.451   4.730
28380W        W93607  44.405  22.419   4.158
28381W        W93608   1.310  36.553   3.276
28382W        W93609   5.837  17.531   3.315
28383W        W93610   3.735  17.772  12.086
28384W        W93611  31.801  37.117  13.892
28385W        W93612   2.767  28.426   2.687
28386W        W93613  24.439   8.874  14.730
28387W        W93614  16.234   5.426   4.067
28388W        W93615   4.850  22.101   3.115
28389W        W93616  41.797  16.101  14.532
28390W        W93617  33.479   9.433   0.841
28391W        W93618  14.908  38.442  14.046
28392W        W93619  30.545   6.169   0.707
28393W        W93620  36.359  35.044  11.681
28394W        W93621  36.819  42.929   1.198
28395W        W93622  37.541   7.103   0.794
28396W        W93623  10.806   8.688   0.416
28397W        W93624   1.574  12.148  12.568
28398W        W93625  32.475  19.677   4.195
28399W        W93626  40.621   0.751  12.014
28400W        W93627  17.567  13.715   4.149
28401W        W93628   7.600  19.753   0.272
28402W        W93629  26.942  19.110  11.266
28403W        W93630   0.306  43.388  10.429
28404W        W93631  40.005   9.107   0.169
28405W        W93632   9.138  18.269   1.457
28406W        W93633   7.930  34.947  14.756
28407W        W93634   5.330  38.602   2.251
28408W        W93635   1.712  25.428  13.514
28409W        W93636  31.286   1.578   0.418
28410W        W93637   7.477  27.652  14.015
28411W        W93638   4.743  18.665  11.046
28412W        W93639   4.884  28.650   1.796
28413W        W93640  10.950  24.476   3.441
28414W        W93641  44.776   9.504   2.770
28415W        W93642  23.436  33.802  12.262
28416W        W93643   6.868  23.315   4.045
28417W        W93644  17.234  39.553  13.748
28418W        W93645  44.701  36.814   3.855
28419W        W93646  38.421  43.266  13.826
28420W        W93647  40.593  42.978   4.121
28421W        W93648   3.945   3.597  11.246
28422W        W93649  12.262  16.392  11.096
28423W        W93650  22.658   2.433   3.152
28424W        W93651  31.439  25.889   4.003
28425W        W93652  27.885  30.728  10.498
28426W        W93653  34.668  15.669   1.235
28427W        W93654   7.924  10.853   3.619
28428W        W93655  23.669  43.793  10.075
28429W        W93656  24.773  15.075   1.334
28430W        W93657  42.021   8.426  11.249
28431W        W93658  44.246  44.552   0.820
28432W        W93659  41.949  14.773   0.322
28433W        W93660   2.279  22.290  11.864
28434W        W93661  18.451  26.958   3.330
28435W        W93662  24.121  15.096  11.072
28436W        W93663  30.020  43.996   0.537
28437W        W93664  40.024  29.483  12.970
28438W        W93665  22.614  37.611   0.999
28439W        W93666  11.267  17.015   1.358
28440W        W93667  39.548  36.798  11.016
28441W        W93668   3.304  20.503  14.925
28442W        W93669  19.246  17.515   1.439
28443W        W93670  32.430   2.894   0.733
28444W        W93671  44.892  24.184   2.618
28445W        W93672  20.950  15.591  11.059
28446W        W93673  18.834  15.497   5.027
28447W        W93674  42.386  29.098  14.847
28448W        W93675  17.089   1.790   4.616
28449W        W93676  37.713  17.332  13.299
28450W        W93677  37.254  25.262   0.544
28451W        W93678  20.340  10.571   2.248
28452W        W93679  21.838  39.299  13.764
28453W        W93680  32.687  13.739  12.491
28454W        W93681   5.398  10.072   1.274
28455W        W93682  26.733  41.961  13.898
28456W        W93683   1.165  30.425   1.416
28457W        W93684  29.528  25.949   2.248
28458W        W93685   9.681  42.039   1.414
28459W        W93686  20.268  17.686   3.901
28460W        W93687  36.148  23.094  10.986
28461W        W93688  36.662  17.512  14.111
28462W        W93689   2.830  10.700  12.533
28463W        W93690  11.539  30.070   0.482
28464W        W93691  13.073   2.430   1.445
28465W        W93692  34.582  41.651  13.496
28466W        W93693  10.882  37.483   0.788
28467W        W93694  15.306  25.174  11.701
28468W        W93695  24.744  31.886   1.819
28469W        W93696  42.811  39.383   0.431
28470W        W93697   3.886   1.425   9.785
28471W        W93698  31.465   2.397  13.363
28472W        W93699  37.525   8.836   1.703
28473W        W93700  38.912  41.886  14.776
28474W        W93701  18.782  30.605   4.082
28475W        W93702   0.693  29.993  12.414
28476W        W93703  22.613   8.569  10.835
28477W        W93704  29.079  15.921  12.975
28478W        W93705  21.165   2.702  11.119
28479W        W93706  43.371  37.924  12.851
28480W        W93707  37.013   2.978   2.316
28481W        W93708  11.643  36.529   3.977
28482W        W93709  41.467  24.151   2.708
28483W        W93710  34.286   5.808  13.727
28484W        W93711   7.041  40.247   0.267
28485W        W93712   1.790  33.107   3.215
28486W        W93713  11.570  29.024  11.603
28487W        W93714  22.287   2.966   3.659
28488W        W93715  39.733  17.093  10.676
28489W        W93716  25.757   8.765  12.839
28490W        W93717  38.320   6.723  14.337
28491W        W93718   8.760  22.268  11.198
28492W        W93719  30.981  30.426   0.929
28493W        W93720   4.884  36.867   0.912
28494W        W93721   4.084   8.334  13.578
28495W        W93722  32.917  11.518   3.651
28496W        W93723  23.985  10.346   2.276
28497W        W93724  30.589   9.606  11.567
28498W        W93725   2.012  29.229  14.742
28499W        W93726  43.094  44.880   0.797
28500W        W93727  28.971   6.363  13.553
28501W        W93728  38.894  23.204   1.941
28502W        W93729  19.768  26.575  11.444
28503W        W93730  27.571  27.051  10.002
28504W        W93731  44.508  35.954   1.453
28505W        W93732  11.597  13.369   2.877
28506W        W93733  27.101  43.826  13.417
28507W        W93734  22.175  14.814  14.872
28508W        W93735  34.486   6.331   4.558
28509W        W93736  37.062  17.639  10.747
28510W        W93737  41.829  22.763  10.632
28511W        W93738  27.332  27.622  13.624
28512W        W93739  26.086  14.803  12.826
28513W        W93740  21.747  24.735  14.881
28514W        W93741  32.042   8.505   0.938
28515W        W93742   9.523  30.995  13.076
28516W        W93743  39.753   1.402   2.787
28517W        W93744  28.498  32.793   3.776
28518W        W93745  44.949  24.646   0.834
28519W        W93746   6.663   4.802  10.573
28520W        W93747   0.451  39.509  14.346
28521W        W93748  23.167  36.205   4.849
28522W        W93749  16.237  13.664   4.144
28523W        W93750  25.223  23.647  14.824
28524W        W93751   5.723  31.773  12.901
28525W        W93752  35.991  26.529  10.751
28526W        W93753  39.917  17.733  14.805
28527W        W93754   1.473  19.676  12.796
28528W        W93755   5.324  22.549  11.550
28529W        W93756  34.640  32.770  14.859
28530W        W93757  43.316  33.862   2.730
28531W        W93758  11.832  10.887   2.671
28532W        W93759   7.299  33.415   2.274
28533W        W93760  37.718  44.880  10.991
28534W        W93761  29.149  16.113   2.319
28535W        W93762   9.879  29.467   1.187
28536W        W93763  21.764  40.916   2.331
28537W        W93764  30.659  25.526   2.711
28538W        W93765  28.163   0.246  12.347
28539W        W93766   9.118  19.978  14.341
28540W        W93767  35.406  15.737   3.207
28541W        W93768  33.142  21.950   4.785
28542W        W93769  11.302  10.867   2.350
28543W        W93770  36.157  36.390   0.484
28544W        W93771  16.993  13.736   1.339
28545W        W93772  16.315  15.731  13.474
28546W        W93773   5.861  14.789  11.159
28547W        W93774  15.750  11.083   0.867
28548W        W93775  25.209   0.228  14.451
28549W        W93776  27.466  37.320  14.582
28550W        W93777  44.444  35.068   1.270
28551W        W93778   3.774   1.029  12.092
28552W        W93779  38.062  31.991  10.358
28553W        W93780   7.011  34.572   3.734
28554W        W93781  16.024  19.541   2.198
28555W        W93782  31.154  16.011   3.703
28556W        W93783  24.211   8.239   1.290
28557W        W93784   5.109  26.841  11.117
28558W        W93785  25.088  38.516   2.189
28559W        W93786  10.510  20.376   5.139
28560W        W93787  10.851  15.308  10.303
28561W        W93788  11.884   2.569  12.336
28562W        W93789  17.819  23.677  12.704
28563W        W93790  18.130  29.088   0.345
28564W        W93791  14.734  25.603   4.311
28565W        W93792  26.287  16.038  14.517
28566W        W93793  13.117   0.317   1.832
28567W        W93794  43.520   9.238   2.561
28568W        W93795  25.264   6.659  11.511
28569W        W93796  15.223  40.296   3.168
28570W        W93797  20.789  38.520  12.685
28571W        W93798   3.102  34.677   1.480
28572W        W93799   6.669   7.243   1.156
28573W        W93800  27.587   8.443  13.519
28574W        W93801  32.646   6.762   0.793
28575W        W93802  18.188  10.302   0.493
28576W        W93803  39.795  13.711  12.330
28577W        W93804  39.491   9.758  13.396
28578W        W93805  32.864   9.422   0.396
28579W        W93806  19.522   3.771  14.157
28580W        W93807   8.247  16.640  13.903
28581W        W93808  24.235  28.107  10.695
28582W        W93809  15.641  24.274  11.560
28583W        W93810   2.431  41.360  14.707
28584W        W93811  34.649  28.930  14.324
28585W        W93812  36.934  18.436  12.274
28586W        W93813  30.157  25.753  11.714
28587W        W93814   2.214  19.032   5.115
28588W        W93815  36.556   0.276   1.158
28589W        W93816  28.592  41.481  11.554
28590W        W93817  10.567  44.646   1.395
28591W        W93818  25.653  40.805  11.543
28592W        W93819  34.200  42.146   0.372
28593W        W93820   4.008  11.920  12.914
28594W        W93821  30.906  22.462   3.177
28595W        W93822  20.086  38.533  12.698
28596W        W93823  27.174   2.341   1.970
28597W        W93824  35.234  15.805  13.465
28598W        W93825  33.174  44.459   5.044
28599W        W93826  21.728  43.386   1.363
28600W        W93827  17.978  30.061   0.893
28601W        W93828  24.530   9.956   1.875
28602W        W93829  13.576   3.462  13.497
28603W        W93830   1.801   3.990   1.447
28604W        W93831  15.036  31.950  13.841
28605W        W93832  11.631   6.909   4.662
28606W        W93833  12.900  12.227  14.544
28607W        W93834  32.569  14.546   1.379
28608W        W93835  20.365   1.840  12.400
28609W        W93836  42.172  16.069   4.177
28610W        W93837  19.836  21.038   0.404
28611W        W93838  35.786  32.486  11.442
28612W        W93839   7.909  20.137   3.798
28613W        W93840  19.244  21.650   1.128
28614W        W93841  42.423  21.519   3.752
28615W        W93842  34.195  25.418  13.487
28616W        W93843   5.686  28.003  11.997
28617W        W93844  32.747  36.382   2.277
28618W        W93845  28.087   7.051  10.665
28619W        W93846  22.507  28.971   0.265
28620W        W93847  19.166  28.685  12.179
28621W        W93848   8.593  18.787   2.328
28622W        W93849  39.939  39.833  13.179
28623W        W93850  19.589  34.017  11.726
28624W        W93851  33.799  11.842  12.192
28625W        W93852   2.250  37.821   4.474
28626W        W93853  39.882  12.750  14.497
28627W        W93854   1.207  22.664  11.032
28628W        W93855   9.669  20.452  12.943
28629W        W93856  13.256   2.028   1.869
28630W        W93857  13.630   1.365  12.418
28631W        W93858  24.633  33.344  14.929
28632W        W93859   9.888  43.393  10.665
28633W        W93860  16.261  21.503  14.388
28634W        W93861  20.473  25.297  12.663
28635W        W93862  33.074  35.651  14.036
28636W        W93863  27.140   6.656   2.429
28637W        W93864  35.435  21.514  14.418
28638W        W93865   5.385  43.695   1.671
28639W        W93866   6.714  31.676  12.894
28640W        W93867  15.981  36.096  13.248
28641W        W93868   3.457  15.351  10.231
28642W        W93869  32.352   0.698   2.255
28643W        W93870  19.988   6.755  14.379
28644W        W93871   1.667  38.398  12.845
28645W        W93872   5.310  25.807  13.579
28646W        W93873   4.789  43.579   0.264
28647W        W93874  22.096  15.071  10.418
28648W        W93875  17.189  12.000   5.023
28649W        W93876  28.161   3.328  12.875
28650W        W93877  16.256  18.690  11.554
28651W        W93878  13.058  20.204   0.863
28652W        W93879  27.525  13.632   3.914
28653W        W93880   3.698  14.108   2.817
28654W        W93881  44.482  44.404   3.835
28655W        W93882  23.153  40.083  10.726
28656W        W93883  34.822  36.910  14.229
28657W        W93884  11.302  31.514   4.498
28658W        W93885   6.874  22.734   0.418
28659W        W93886   7.381  39.911   1.215
28660W        W93887  13.700  20.809  11.451
28661W        W93888  20.036  32.311  11.227
28662W        W93889   8.211  15.201  11.253
28663W        W93890   3.809  28.929   1.209
28664W        W93891  42.913  30.147   1.925
28665W        W93892  37.570   1.656   3.336
28666W        W93893  10.761  19.090   3.753
28667W        W93894   7.409   7.897   4.155
28668W        W93895  33.877  14.276  12.378
28669W        W93896  19.707   0.401  12.554
28670W        W93897  12.371  40.931   2.655
28671W        W93898   1.128  37.693   1.545
28672W        W93899  25.190   7.231  10.966
28673W        W93900  33.427  35.474  13.721
28674W        W93901   4.313  34.539  11.439
28675W        W93902  39.410   8.112  12.784
28676W        W93903  39.038  13.698   2.196
28677W        W93904  13.575  22.197  13.514
28678W        W93905  24.612  16.054  10.838
28679W        W93906  43.357  24.682  13.477
28680W        W93907  39.119  24.328  13.738
28681W        W93908  42.078  41.536   2.752
28682W        W93909  14.146   6.061   2.851
28683W        W93910   5.184  17.869  11.117
28684W        W93911   7.341  28.613  14.929
28685W        W93912  30.194  12.646  11.921
28686W        W93913  34.697   9.896   1.168
28687W        W93914   5.584  41.317   1.874
28688W        W93915  24.993  43.728   2.863
28689W        W93916   2.182  17.760   1.760
28690W        W93917   8.289  15.183  11.766
28691W        W93918  33.378  34.753   1.022
28692W        W93919   5.256  13.233   4.452
28693W        W93920  35.041  29.196  14.111
28694W        W93921  43.696  35.585   1.285
28695W        W93922  16.889  37.918   2.736
28696W        W93923   7.605  22.515   0.055
28697W        W93924  26.943  20.209  10.412
28698W        W93925  40.875   4.305  13.984
28699W        W93926   6.754  16.844  11.497
28700W        W93927   3.088  26.074  12.604
28701W        W93928  37.900  22.126   4.124
28702W        W93929   8.318   0.679   3.095
28703W        W93930  23.558  15.588  14.542
28704W        W93931  25.036  10.893  12.969
28705W        W93932  27.394  11.005  11.376
28706W        W93933   6.773  24.794  13.008
28707W        W93934  37.065  37.848  13.761
28708W        W93935  13.174  42.929  14.243
28709W        W93936  27.191   7.266  14.939
28710W        W93937  16.199  18.018   3.815
28711W        W93938  39.196  16.716   3.378
28712W        W93939  18.897  42.213   1.541
28713W        W93940  42.967  20.276   1.206
28714W        W93941   1.762   8.195  11.160
28715W        W93942  38.639  35.807  14.649
28716W        W93943  37.967  18.968   4.080
28717W        W93944  30.611  18.772   3.730
28718W        W93945  32.963  33.573   3.497
28719W        W93946   3.183  37.617  12.530
28720W        W93947   8.403  17.084   2.291
28721W        W93948  14.871   7.643   1.307
28722W        W93949   0.650  44.035   2.738
28723W        W93950  38.614  28.326  14.430
28724W        W93951  26.780  19.804   3.660
28725W        W93952  36.123  23.102   4.651
28726W        W93953  29.168   5.886   1.816
28727W        W93954  13.797   0.344  14.043
28728W        W93955  36.598   3.913   1.780
28729W        W93956   8.866  29.039  13.337
28730W        W93957  38.054   9.388  10.775
28731W        W93958   4.511   0.503  14.475
28732W        W93959   3.662  22.069   2.422
28733W        W93960  23.406  14.632  12.671
28734W        W93961  15.611  42.057  12.562
28735W        W93962  13.274   9.478   4.148
28736W        W93963  43.567  43.390   2.519
28737W        W93964  29.473   5.299   2.321
28738W        W93965  19.104   7.355   4.643
28739W        W93966  20.517  26.053   0.750
28740W        W93967  22.172  25.142  11.598
28741W        W93968  26.941  35.453  13.417
28742W        W93969  43.009  25.658   4.689
28743W        W93970  17.289  30.108  11.606
28744W        W93971  26.255   0.509  12.019
28745W        W93972  36.213  12.220  14.675
28746W        W93973  33.079   1.148   2.607
28747W        W93974  19.615  18.062   1.846
28748W        W93975   2.664   8.158   1.835
28749W        W93976  32.458  21.903   4.243
28750W        W93977  19.242  35.808   4.611
28751W        W93978  40.069  41.349  14.465
28752W        W93979  20.723   2.880   3.597
28753W        W93980  20.127  22.299  12.048
28754W        W93981   2.922  33.575   0.819
28755W        W93982  37.820  39.334  14.980
28756W        W93983  39.411   5.131  12.500
28757W        W93984  17.444   5.384   0.562
28758W        W93985   4.004  30.948  13.915
28759W        W93986  39.398  14.583   4.184
28760W        W93987  28.405  23.638   2.519
28761W        W93988  17.093  24.756   1.362
28762W        W93989  15.584  20.381   1.275
28763W        W93990   6.445  42.539  11.294
28764W        W93991  12.286  16.995   3.451
28765W        W93992  44.155  16.367  14.408
28766W        W93993  35.764  16.302   1.836
28767W        W93994  43.914  16.284  10.649
28768W        W93995  40.795  38.455   3.365
28769W        W93996  22.237  44.027  13.437
28770W        W93997   1.136  25.633   1.723
28771W        W93998  38.933  25.637   3.733
28772W        W93999  24.313  36.509   0.752
28773W        W94000  23.663  17.272   2.830
28774W        W94001  43.761  14.259   3.638
28775W        W94002   3.688  19.525   0.901
28776W        W94003  11.498  21.057   2.833
28777W        W94004  30.588  11.376   4.130
28778W        W94005   1.754   1.195  14.641
28779W        W94006  35.393  39.399  13.930
28780W        W94007  23.691  23.611   4.919
28781W        W94008   7.468  16.820   1.402
28782W        W94009  31.710   9.653  13.422
28783W        W94010  27.627  33.942  12.556
28784W        W94011  25.975  12.646   0.338
28785W        W94012  27.169  14.242  12.899
28786W        W94013  33.056  33.476   0.852
28787W        W94014  26.094  18.973   0.533
28788W        W94015  14.669  16.542  12.877
28789W        W94016  40.411  31.874   1.510
28790W        W94017   2.533  16.098  11.087
28791W        W94018   8.750  17.615  12.414
28792W        W94019  29.467   1.713  10.581
28793W        W94020  31.912   9.353  13.847
28794W        W94021  19.048  28.311   1.054
28795W        W94022  11.249  44.295   2.323
28796W        W94023   3.513  44.750  14.767
28797W        W94024  29.684   3.878   4.070
28798W        W94025  19.544  14.698  14.589
28799W        W94026  36.376  39.356   1.335
28800W        W94027  35.105  24.104   0.898
28801W        W94028  40.647  29.537  11.622
28802W        W94029  31.941  27.921  12.983
28803W        W94030  16.367  29.169   3.228
28804W        W94031  31.057  39.386  13.767
28805W        W94032  31.792  39.373  12.963
28806W        W94033  16.570   3.813   0.575
28807W        W94034   8.257   2.928   0.973
28808W        W94035  36.989  33.922   3.370
28809W        W94036  38.528  44.289   4.068
28810W        W94037  34.867   8.411   4.524
28811W        W94038   2.374  19.526   5.141
28812W        W94039  14.119   5.501  11.604
28813W        W94040  25.216  13.240  13.060
28814W        W94041  20.608  24.503  13.930
28815W        W94042  14.193   9.137   3.245
28816W        W94043   0.933   7.773  11.000
28817W        W94044  14.594  29.060  13.993
28818W        W94045   2.425  18.641  12.105
28819W        W94046  39.883   4.405  13.503
28820W        W94047  21.126   9.649   0.674
28821W        W94048  23.412  31.906  13.960
28822W        W94049  40.545  38.960   3.818
28823W        W94050  44.187  28.866   2.723
28824W        W94051  33.934  10.605   4.609
28825W        W94052  31.378  42.432  10.737
28826W        W94053   0.800  32.092  11.499
28827W        W94054  41.184  15.848   3.578
28828W        W94055  31.595  31.463   1.734
28829W        W94056  27.422   3.367  11.150
28830W        W94057  24.916  39.631   0.125
28831W        W94058  22.748  15.723   3.662
28832W        W94059  38.581  38.661  13.163
28833W        W94060  18.958  37.934  12.715
28834W        W94061  33.056  38.874  11.060
28835W        W94062  11.864  34.329   0.442
28836W        W94063  35.375  19.643  12.479
28837W        W94064  10.671   6.409   2.727
28838W        W94065  35.524  39.014  10.353
28839W        W94066  26.419  38.012  10.712
28840W        W94067  25.610  15.621   0.334
28841W        W94068   4.431  30.522   4.823
28842W        W94069   5.907  13.325  12.793
28843W        W94070  38.909  24.853  10.460
28844W        W94071   2.391  11.111  13.909
28845W        W94072  26.006  14.377   3.262
28846W        W94073   8.145   7.971   0.386
28847W        W94074  16.965   1.337   2.514
28848W        W94075   4.885  35.461   1.037
28849W        W94076  33.953   0.144  11.258
28850W        W94077  14.610  40.419   0.282
28851W        W94078  26.255  38.499   4.101
28852W        W94079  33.094  37.168  13.667
28853W        W94080  10.576  23.218   0.255
28854W        W94081  44.750  22.633   0.838
28855W        W94082  32.464   5.159  12.244
28856W        W94083  34.990  11.333  12.564
28857W        W94084  35.659  35.423   4.691
28858W        W94085  34.354  41.244  12.190
28859W        W94086  32.527   1.450  11.201
28860W        W94087   6.117  10.486   1.806
28861W        W94088  23.195  35.039  14.566
28862W        W94089  12.284  37.236  14.582
28863W        W94090  25.320  16.377  14.847
28864W        W94091   5.276   4.924  13.785
28865W        W94092  36.955  18.534   2.913
28866W        W94093  35.102   1.449  10.741
28867W        W94094   7.693  31.617  13.837
28868W        W94095   9.750  21.481   4.140
28869W        W94096  29.612  10.312   0.349
28870W        W94097  15.571   5.771   2.314
28871W        W94098   6.989  33.378   1.360
28872W        W94099  21.102  36.434  14.037
28873W        W94100  34.849  44.299  14.762
28874W        W94101   2.455  35.565   2.169
28875W        W94102  12.300  39.321  14.759
28876W        W94103  32.443  17.646   4.167
28877W        W94104  35.131  43.404  13.735
28878W        W94105   4.304  37.456   1.906
28879W        W94106  18.720  11.664   1.930
28880W        W94107  20.868   9.263   0.399
28881W        W94108  28.166  37.558   0.535
28882W        W94109  23.603  40.283   2.634
28883W        W94110   0.664  31.595  13.019
28884W        W94111   8.663  31.288   0.249
28885W        W94112   9.769  26.536  11.606
28886W        W94113   3.642  41.346   0.615
28887W        W94114  18.094  43.729  11.187
28888W        W94115  13.818  30.096  14.284
28889W        W94116  26.178   5.268   0.815
28890W        W94117  23.216   2.241  12.391
28891W        W94118  36.998  24.517  14.363
28892W        W94119  42.779  30.482  11.472
28893W        W94120  38.361  26.739  10.323
28894W        W94121  44.677  26.064   4.200
28895W        W94122  27.561  14.175  10.892
28896W        W94123  24.333   3.682  12.200
28897W        W94124  22.751  39.983   2.844
28898W        W94125   6.175   8.541  12.822
28899W        W94126  42.394  38.377  12.940
28900W        W94127  31.864  10.779   1.743
28901W        W94128  44.663  21.483   2.392
28902W        W94129   6.503   5.699   2.180
28903W        W94130   8.646   7.813   0.410
28904W        W94131   1.336  15.772  13.446
28905W        W94132  40.846  36.967   3.728
28906W        W94133  18.829  41.153   0.469
28907W        W94134  44.985   1.817   3.341
28908W        W94135  17.146  12.572  14.497
28909W        W94136   0.000  36.446   3.650
28910W        W94137  25.580  20.462  13.649
28911W        W94138  29.615  34.819   3.151
28912W        W94139  19.812   5.266   0.417
28913W        W94140  16.299   5.135   3.649
28914W        W94141  42.341  36.301  14.060
28915W        W94142  17.469   3.226  13.525
28916W        W94143  27.528  24.106  10.958
28917W        W94144  38.850  41.830  12.082
28918W        W94145  10.856  41.739   0.863
28919W        W94146  21.770  36.041   0.917
28920W        W94147   6.247  11.236  13.758
28921W        W94148  38.002  17.700   4.391
28922W        W94149   6.233  23.709   5.224
28923W        W94150   9.084  39.389   0.389
28924W        W94151  42.272  37.327   2.849
28925W        W94152  33.111  29.926   3.137
28926W        W94153  37.360  27.253  13.870
28927W        W94154  43.373  11.126   4.582
28928W        W94155   6.754  10.394   0.781
28929W        W94156  11.898  28.040   3.012
28930W        W94157  23.962   9.740  10.677
28931W        W94158  35.978  13.278   0.336
28932W        W94159  33.653   5.971   3.698
28933W        W94160  25.492  14.593  13.094
28934W        W94161  32.066   7.424  13.850
28935W        W94162  16.253  26.431   0.471
28936W        W94163  44.525  40.261  12.672
28937W        W94164  18.623  17.515   4.040
28938W        W94165  26.888  11.830   4.131
28939W        W94166   4.231  37.315   4.574
28940W        W94167  34.061  26.417   1.859
28941W        W94168  43.033   3.674   0.268
28942W        W94169  22.592  10.424   3.776
28943W        W94170   5.708  40.052  11.763
28944W        W94171  41.890  33.039   4.291
28945W        W94172  38.634   7.373  10.305
28946W        W94173  26.055   8.903   0.736
28947W        W94174   9.939  39.509  11.912
28948W        W94175  15.096  20.305  12.588
28949W        W94176  40.587  35.910   2.121
28950W        W94177  36.141  39.603   0.358
28951W        W94178   5.946   5.859   4.122
28952W        W94179  17.071   3.636  14.461
28953W        W94180  27.680  31.517   4.731
28954W        W94181   2.270  12.820   4.637
28955W        W94182  23.871  18.965   2.832
28956W        W94183  37.027   7.568  11.241
28957W        W94184  31.092  28.950   2.424
28958W        W94185   8.955   5.527   1.484
28959W        W94186  33.956  39.249  11.852
28960W        W94187  22.622  26.993  13.698
28961W        W94188   2.717  35.515   3.154
28962W        W94189  43.476  28.811  10.999
28963W        W94190  34.899  42.657  10.992
28964W        W94191  19.818   2.033   0.308
28965W        W94192  32.604  21.361  12.050
28966W        W94193   4.802  32.169   2.787
28967W        W94194  36.335  42.191  13.468
28968W        W94195  39.983   1.553  12.965
28969W        W94196   9.885   6.863  13.450
28970W        W94197  26.097  31.450  13.098
28971W        W94198  39.108  12.686   2.294
28972W        W94199  14.316  12.987  14.007
28973W        W94200   0.976   5.845   1.098
28974W        W94201  24.236   6.839  12.524
28975W        W94202  30.462  26.474  13.016
28976W        W94203  30.386  40.522   0.347
28977W        W94204  22.829   0.234   2.324
28978W        W94205  34.376  28.075   2.370
28979W        W94206   5.444   9.546   1.367
28980W        W94207  11.385  38.135   3.389
28981W        W94208  20.442   6.375   4.552
28982W        W94209  11.728  42.471   1.417
28983W        W94210  35.650  23.155  10.957
28984W        W94211  15.335  33.675   3.213
28985W        W94212  11.698  36.024   3.858
28986W        W94213  20.525   1.550  11.387
28987W        W94214  15.107  29.655  12.328
28988W        W94215   3.382  34.599  14.252
28989W        W94216  21.695  38.841   2.260
28990W        W94217  13.664  37.523  11.108
28991W        W94218   5.793  35.540   4.580
28992W        W94219  14.365  17.622  12.029
28993W        W94220  31.183   8.740  12.526
28994W        W94221  11.186  41.317  12.489
28995W        W94222  18.337  40.891  12.845
28996W        W94223  20.927  38.576  13.182
28997W        W94224  10.867  16.687  10.754
28998W        W94225  22.641  11.164   4.296
28999W        W94226  22.973  34.320  13.047
29000W        W94227  23.906   3.479  10.349
29001W        W94228  36.451  41.804   3.857
29002W        W94229   8.417  14.852   1.331
29003W        W94230  12.609   2.440   3.881
29004W        W94231  24.306  41.466   2.829
29005W        W94232   5.175   6.669  12.732
29006W        W94233   9.169  36.956   2.603
29007W        W94234  41.243   9.807   4.185
29008W        W94235  17.085  39.406   4.709
29009W        W94236   1.109   4.481  12.079
29010W        W94237   8.342  32.253  11.153
29011W        W94238  30.011   1.826  11.156
29012W        W94239   3.033  17.146   3.720
29013W        W94240   2.032  23.304  14.002
29014W        W94241  32.570  23.264   4.431
29015W        W94242   0.454  32.563   2.617
29016W        W94243  43.222  44.918  12.858
29017W        W94244  30.445  17.069  13.685
29018W        W94245  13.275  43.314   0.222
29019W        W94246  28.546  41.613   2.112
29020W        W94247   5.418  17.302   2.709
29021W        W94248  16.921   3.360  14.935
29022W        W94249   4.321  29.029   1.225
29023W        W94250  11.628  37.932   1.460
29024W        W94251  22.632  22.842   1.250
29025W        W94252  21.355  31.937  14.435
29026W        W94253   0.492   0.283   0.688
29027W        W94254  27.513  16.544  14.392
29028W        W94255  29.665  18.343  13.067
29029W        W94256  17.051  26.277   2.911
29030W        W94257  31.883   5.320   2.780
29031W        W94258   3.650  19.957  12.463
29032W        W94259  15.902  23.200  13.393
29033W        W94260  31.914  23.736  14.444
29034W        W94261   5.879   7.159   3.691
29035W        W94262  35.515  38.919   0.678
29036W        W94263  23.959  27.047  12.860
29037W        W94264  16.539  28.307   0.337
29038W        W94265  42.925   0.779   4.643
29039W        W94266  28.495  10.980  14.952
29040W        W94267  25.922  12.534  12.472
29041W        W94268  43.139  17.563   2.261
29042W        W94269  32.778  42.592   3.303
29043W        W94270  39.667  37.078   3.002
29044W        W94271  25.743  17.066   4.290
29045W        W94272  24.805  42.018   2.995
29046W        W94273  18.642  43.283   3.309
29047W        W94274  27.150   9.210   1.466
29048W        W94275  37.314  33.517   2.692
29049W        W94276   7.372  37.557   2.200
29050W        W94277  16.807  27.582  13.399
29051W        W94278  26.710  24.897   1.272
29052W        W94279  15.497  24.132  11.089
29053W        W94280  13.663  23.126  10.529
29054W        W94281  43.813  25.647   2.140
29055W        W94282  25.686  20.037   0.037
29056W        W94283  31.828  19.912  14.954
29057W        W94284  44.455  10.795  13.299
29058W        W94285  39.704  26.079  11.674
29059W        W94286   2.215   4.221   2.794
29060W        W94287   0.886  17.894  14.020
29061W        W94288  23.946  44.693   3.572
29062W        W94289  34.064  41.502   3.496
29063W        W94290  14.382  44.894  12.455
29064W        W94291  27.867  30.667   0.832
29065W        W94292   7.091  21.024  14.520
29066W        W94293   1.377  32.682   3.734
29067W        W94294  20.665  25.574  13.125
29068W        W94295  16.138  39.364  12.086
29069W        W94296  20.713  36.085  12.977
29070W        W94297  31.677  38.125   0.693
29071W        W94298  11.097  30.124  11.092
29072W        W94299  42.670   3.069  14.456
29073W        W94300  25.052  25.385  11.683
29074W        W94301   3.102   2.807   4.785
29075W        W94302  40.416  34.911   3.305
29076W        W94303  18.061  39.430   3.674
29077W        W94304  20.985  27.293   3.236
29078W        W94305  23.212   2.034  13.791
29079W        W94306  37.800  24.060  13.386
29080W        W94307  34.473  14.600  12.403
29081W        W94308  18.502  41.882   3.639
29082W        W94309  15.941  30.558   2.826
29083W        W94310  13.853  26.672  12.931
29084W        W94311  13.451  39.805  13.249
29085W        W94312  28.425  20.239  14.930
29086W        W94313  23.726  28.040   1.574
29087W        W94314  27.518  36.992  13.538
29088W        W94315   2.902   0.143  11.117
29089W        W94316  42.136  11.115   3.720
29090W        W94317  25.977  24.793   4.590
29091W        W94318  32.009  17.815  12.927
29092W        W94319  25.612  14.404  13.585
29093W        W94320  33.084  23.436   4.414
29094W        W94321  20.337  29.207   2.387
29095W        W94322  11.555  38.755  14.955
29096W        W94323  29.235  24.733  11.534
29097W        W94324  41.818  10.859   3.107
29098W        W94325  42.593  29.119   1.236
29099W        W94326   9.973  12.232  11.058
29100W        W94327   5.834  29.134   2.718
29101W        W94328   5.436  37.193  14.219
29102W        W94329  11.066  33.837   9.582
29103W        W94330  43.383  30.996  10.710
29104W        W94331  44.960  23.964   0.264
29105W        W94332   3.347  34.356  10.568
29106W        W94333  39.601  31.521  12.798
29107W        W94334  31.409   8.420   1.931
29108W        W94335  27.988  29.414  13.948
29109W        W94336  37.582   8.602   2.259
29110W        W94337   1.469  38.988  10.718
29111W        W94338  13.078   8.309   3.167
29112W        W94339  23.493   7.735   1.436
29113W        W94340  17.181  18.996   1.301
29114W        W94341  24.443  13.808  11.605
29115W        W94342  37.083   0.494  13.887
29116W        W94343  20.129  22.838   2.865
29117W        W94344  18.562  32.634   4.715
29118W        W94345  37.335  26.698   1.677
29119W        W94346  40.860   2.424  13.700
29120W        W94347  40.310  27.645   3.391
29121W        W94348  28.282  20.656   3.271
29122W        W94349  35.239  19.953   4.914
29123W        W94350  41.820  31.267   0.952
29124W        W94351  39.969  39.721  13.707
29125W        W94352   4.823  24.857   3.067
29126W        W94353  25.215  23.275   4.556
29127W        W94354  34.646  44.301  13.928
29128W        W94355  27.349  18.215   4.725
29129W        W94356  17.681  14.990  11.550
29130W        W94357  33.973  20.741   4.130
29131W        W94358  44.957  34.697  11.107
29132W        W94359  29.071  40.546  13.356
29133W        W94360  22.719  17.965   2.396
29134W        W94361   5.090  29.584   2.409
29135W        W94362  33.110  37.104  14.173
29136W        W94363  16.563  26.450  11.140
29137W        W94364  23.263  12.485   1.241
29138W        W94365  33.957  35.980   4.679
29139W        W94366   4.529  24.845  12.284
29140W        W94367  13.809  17.552  11.217
29141W        W94368   1.935  21.964   0.818
29142W        W94369  33.790   9.995   5.126
29143W        W94370   2.709  44.079   2.275
29144W        W94371  22.625  44.787  11.919
29145W        W94372  33.095  18.223   2.732
29146W        W94373   4.574  35.073  10.895
29147W        W94374  20.569   4.015   2.668
29148W        W94375  19.133  14.434   4.358
29149W        W94376  16.489  13.582  12.603
29150W        W94377  17.554  16.199   2.845
29151W        W94378  23.053  38.952   1.758
29152W        W94379  15.812   3.808  12.953
29153W        W94380  42.276  16.143  11.688
29154W        W94381  41.643  25.025  14.852
29155W        W94382  11.730  15.729   0.262
29156W        W94383  23.054  17.157  14.004
29157W        W94384  44.043  12.155  13.397
29158W        W94385   4.619  16.071   1.550
29159W        W94386  32.046  17.140  13.328
29160W        W94387  43.168  14.975  12.487
29161W        W94388  23.789  22.440  12.553
29162W        W94389  26.329  30.343   2.221
29163W        W94390  14.171  31.984   5.135
29164W        W94391  21.303  14.567   4.503
29165W        W94392  23.116  27.765   4.591
29166W        W94393  37.483   5.233   5.021
29167W        W94394   1.307  27.001   4.038
29168W        W94395  35.552  10.339   0.788
29169W        W94396   6.316  10.907   4.802
29170W        W94397  33.140   3.979  12.503
29171W        W94398  25.321  44.083   0.824
29172W        W94399  23.092  42.857  11.291
29173W        W94400   2.467  16.341  14.326
29174W        W94401  12.181  17.191  12.912
29175W        W94402  14.890   0.320   1.451
29176W        W94403  29.306   2.432   3.168
29177W        W94404  14.851  41.817   3.692
29178W        W94405  10.148   2.827  11.944
29179W        W94406  41.310  31.161  10.639
29180W        W94407  18.694  28.074  11.641
29181W        W94408   4.133  32.925  13.534
29182W        W94409  31.810  40.277   2.768
29183W        W94410  16.953  34.246  13.605
29184W        W94411   3.208  33.123  14.939
29185W        W94412  30.809   8.844  12.990
29186W        W94413  30.689  33.084   3.691
29187W        W94414   1.128   2.634   3.378
29188W        W94415  42.191  36.159   4.288
29189W        W94416  17.046  33.121  10.654
29190W        W94417  15.539  11.348  14.375
29191W        W94418  18.785  43.917  14.189
29192W        W94419   4.345  35.187   3.685
29193W        W94420  11.219  28.427  10.997
29194W        W94421  36.611   5.420   1.899
29195W        W94422   6.928  42.735   1.896
29196W        W94423  19.321  15.912  14.409
29197W        W94424  19.767  35.445  11.789
29198W        W94425  42.052  10.932  11.216
29199W        W94426  42.785  18.558   4.938
29200W        W94427   0.867  20.211  13.831
29201W        W94428  38.475  13.064  13.913
29202W        W94429   2.706   8.830  11.997
29203W        W94430  20.555  29.762  12.158
29204W        W94431  10.651  36.482   3.213
29205W        W94432  25.069   0.664   0.161
29206W        W94433  42.231  18.568   1.404
29207W        W94434  12.323  10.887   1.099
29208W        W94435  21.059  20.693  14.400
29209W        W94436  11.953  14.131  11.077
29210W        W94437  12.865  27.979   4.526
29211W        W94438  42.182  37.324   9.917
29212W        W94439  11.326  14.344   1.206
29213W        W94440   6.035  44.908  12.200
29214W        W94441  32.154  21.566  11.496
29215W        W94442  10.833  20.579   1.960
29216W        W94443  30.926  37.276  14.033
29217W        W94444  32.661   8.793   9.860
29218W        W94445  24.518  19.497  13.537
29219W        W94446  33.345   7.893   1.760
29220W        W94447  32.610  44.557  11.402
29221W        W94448   5.819  15.584  13.100
29222W        W94449  39.050  43.482   4.149
29223W        W94450   1.091  25.699  12.271
29224W        W94451  35.910  32.987  11.391
29225W        W94452   1.718   5.891  11.869
29226W        W94453  20.077  26.592  12.591
29227W        W94454  41.400  39.329   3.715
29228W        W94455   5.955  42.572   1.945
29229W        W94456  18.596  26.616   4.536
29230W        W94457   5.774  38.807  13.041
29231W        W94458  35.393  12.083   2.159
29232W        W94459  17.324  17.640   2.384
29233W        W94460   9.069  34.090  14.536
29234W        W94461   6.902   0.103   3.915
29235W        W94462  37.451   6.579  13.363
29236W        W94463  11.376  13.832   1.273
29237W        W94464  38.723  13.352   0.701
29238W        W94465  28.274  34.866   4.584
29239W        W94466  12.093   9.133  11.721
29240W        W94467   1.781  25.789   0.786
29241W        W94468  23.969  26.099   0.726
29242W        W94469  10.709  18.271   3.979
29243W        W94470  15.687  33.633  13.899
29244W        W94471  34.516  16.881  11.625
29245W        W94472  25.047  37.917   3.940
29246W        W94473  26.774  32.447   0.687
29247W        W94474  10.917  26.235  11.027
29248W        W94475  35.903  21.743  12.678
29249W        W94476  30.146  25.582   4.050
29250W        W94477   0.807  18.276  13.676
29251W        W94478  39.486  33.988  13.115
29252W        W94479  37.181  39.539  14.241
29253W        W94480  23.589  25.439  13.153
29254W        W94481   4.736   5.236   4.600
29255W        W94482  35.035  11.364  11.609
29256W        W94483  30.926   0.769  12.877
29257W        W94484  20.060  43.267   4.638
29258W        W94485  30.431  21.574  14.896
29259W        W94486  26.716  22.288   2.785
29260W        W94487  29.129   9.401  12.915
29261W        W94488  28.017  22.242   4.158
29262W        W94489  23.429  31.458   1.620
29263W        W94490  36.094  16.634  14.851
29264W        W94491  21.674  14.384  13.170
29265W        W94492   5.865  12.826   3.333
29266W        W94493  37.046  22.578  12.968
29267W        W94494  27.981  27.039  11.871
29268W        W94495  20.627  24.182  11.156
29269W        W94496  30.875   8.875   3.332
29270W        W94497  27.461  31.631   2.645
29271W        W94498  29.011  10.653  12.818
29272W        W94499   8.946  28.905   2.632
29273W        W94500  19.252  22.957   1.935
29274W        W94501   3.038  25.406  13.175
29275W        W94502  36.350  23.924   3.738
29276W        W94503  28.058   8.594   4.097
29277W        W94504  42.757  15.923   0.308
29278W        W94505  21.363  17.314   3.728
29279W        W94506  16.278  40.978  14.424
29280W        W94507  28.163  15.110  12.503
29281W        W94508  20.136   5.909  12.443
29282W        W94509  31.714   1.284   3.688
29283W        W94510  13.685  19.022  13.066
29284W        W94511  20.073  28.004   0.880
29285W        W94512  15.544  14.387  13.104
29286W        W94513   9.995   7.726  14.983
29287W        W94514  27.277  11.852   0.928
29288W        W94515  41.555  34.479   4.278
29289W        W94516   8.469  30.146   3.557
29290W        W94517  21.176  36.447   3.192
29291W        W94518  10.751  11.182  12.925
29292W        W94519  26.889  14.742   0.274
29293W        W94520  19.332  11.320  14.972
29294W        W94521  26.696   1.400   3.760
29295W        W94522   4.813  24.623   1.010
29296W        W94523   7.097  44.977   3.201
29297W        W94524  38.247   5.595   1.798
29298W        W94525  16.650  42.251   0.197
29299W        W94526   6.402   9.926   0.738
29300W        W94527  44.043  15.853  11.558
29301W        W94528  18.170  19.157  10.746
29302W        W94529  38.328  31.644  13.505
29303W        W94530  35.498  19.932  10.696
29304W        W94531  16.623  30.557   2.257
29305W        W94532  18.835  30.302   4.534
29306W        W94533  41.539  21.257   4.135
29307W        W94534  41.445  34.522  13.983
29308W        W94535  24.631   9.340   2.598
29309W        W94536  29.626  38.510  12.893
29310W        W94537  44.122  17.532   1.758
29311W        W94538   4.065  15.212  12.460
29312W        W94539  14.294  30.506  12.899
29313W        W94540  36.608  43.075  13.919
29314W        W94541  43.043  32.067   4.059
29315W        W94542  19.259  42.911   1.359
29316W        W94543  43.966  44.421  12.494
29317W        W94544   2.878  43.391   2.569
29318W        W94545  31.070  38.383  13.789
29319W        W94546  39.554   6.625  13.001
29320W        W94547  10.880  43.381   3.140
29321W        W94548  16.023   3.522  12.571
29322W        W94549  33.106   2.366   4.730
29323W        W94550  34.503  36.323   2.688
29324W        W94551   8.200  24.165  14.305
29325W        W94552  32.082   1.268  10.959
29326W        W94553  27.655  40.528  10.666
29327W        W94554   7.724  32.905   0.820
29328W        W94555  27.898  37.385   0.996
29329W        W94556   6.232  28.944   1.799
29330W        W94557  28.280  17.949   2.279
29331W        W94558  13.670  27.601  10.803
29332W        W94559  32.141  29.053  13.881
29333W        W94560  11.347  15.737  13.541
29334W        W94561  21.597  43.054   0.946
29335W        W94562  26.958   7.262   2.722
29336W        W94563  44.430  24.653   0.886
29337W        W94564   2.421  34.146  10.827
29338W        W94565  41.598  20.574   0.283
29339W        W94566  33.620  19.838  14.907
29340W        W94567  31.842  30.876   0.816
29341W        W94568  15.340  23.714  10.765
29342W        W94569  14.981  26.977   3.152
29343W        W94570  16.524  29.684  11.574
29344W        W94571   9.738  38.047   2.664
29345W        W94572  34.022  31.429  11.261
29346W        W94573  39.415  11.395  12.995
29347W        W94574  41.584  14.194  11.606
29348W        W94575  20.041   8.281  14.976
29349W        W94576  14.024  40.159  11.159
29350W        W94577   7.778  18.160  14.890
29351W        W94578   3.684   2.085   1.225
29352W        W94579   5.320  10.656  12.057
29353W        W94580  28.205   4.613  10.413
29354W        W94581  21.417   3.660  10.146
29355W        W94582  44.525   2.772   3.387
29356W        W94583  17.309  34.768   4.228
29357W        W94584  25.953  42.379  14.972
29358W        W94585  38.988  41.540   4.054
29359W        W94586   8.662  38.847  13.285
29360W        W94587   7.582  32.461   4.035
29361W        W94588   9.995  30.002   0.993
29362W        W94589  44.238  35.980   0.462
29363W        W94590  10.107   7.258   0.260
29364W        W94591   2.491  10.607   1.802
29365W        W94592  24.308  12.931  12.045
29366W        W94593  26.655  41.146   1.112
29367W        W94594  23.686  25.609  11.302
29368W        W94595  34.571  37.087  11.520
29369W        W94596  20.719  15.223  13.537
29370W        W94597   3.466   0.469   3.110
29371W        W94598  35.031   1.784   0.248
29372W        W94599  15.251   3.400   3.700
29373W        W94600   1.946  17.031   4.546
29374W        W94601  36.267  23.057   1.440
29375W        W94602  42.636   2.267   4.525
29376W        W94603  23.849  16.808   0.151
29377W        W94604  12.128  24.167  14.396
29378W        W94605   1.390  40.375  13.977
29379W        W94606  41.337  31.762   4.771
29380W        W94607  32.485  42.447   0.232
29381W        W94608  25.096  33.573  14.760
29382W        W94609   1.030  31.613  13.927
29383W        W94610  14.765  14.883  14.992
29384W        W94611  37.058  19.006  13.535
29385W        W94612  27.894  39.899   0.979
29386W        W94613  24.673  13.784   1.956
29387W        W94614  26.144  22.510   3.256
29388W        W94615  42.358  15.628  11.693
29389W        W94616   1.329  42.461  13.001
29390W        W94617  15.239  33.412  13.708
29391W        W94618  13.952  16.040   3.599
29392W        W94619   2.902  41.764   4.816
29393W        W94620  15.736  21.520  10.921
29394W        W94621  24.280  27.739   0.637
29395W        W94622  17.068   1.365   4.277
29396W        W94623  33.925   5.198   0.765
29397W        W94624  17.647   2.881   2.584
29398W        W94625  22.786  11.693   1.224
29399W        W94626  29.760  36.768   5.433
29400W        W94627  43.713   0.834  12.939
29401W        W94628   1.545  29.670  12.484
29402W        W94629  20.225  22.566   4.846
29403W        W94630   0.311   4.462  11.159
29404W        W94631  17.759  18.509   1.825
29405W        W94632  38.000  38.494  10.482
29406W        W94633  30.093   8.720  12.461
29407W        W94634   4.040  26.325  14.072
29408W        W94635  36.216  24.270   4.140
29409W        W94636  12.066  17.643  13.448
29410W        W94637   1.805  13.775   2.369
29411W        W94638  37.445  30.588   0.870
29412W        W94639  24.702  17.689   0.778
29413W        W94640  32.527  35.061   2.872
29414W        W94641  29.011   1.816   3.555
29415W        W94642  42.244  31.956   3.636
29416W        W94643   0.986   6.214   2.756
29417W        W94644  11.123  38.330   0.373
29418W        W94645   9.933   8.810   3.786
29419W        W94646  41.247   6.581  13.932
29420W        W94647  19.527  29.191   2.570
29421W        W94648  22.307  13.417  12.566
29422W        W94649  36.734   4.023  12.270
29423W        W94650  39.316  36.620   3.757
29424W        W94651  37.315  22.258  12.622
29425W        W94652   1.687  31.923  10.419
29426W        W94653  21.897  36.881   2.434
29427W        W94654  42.895   6.270  14.470
29428W        W94655  25.187  35.671  14.827
29429W        W94656  23.338  11.182  12.167
29430W        W94657   5.831  13.223   1.617
29431W        W94658  20.850  14.599   3.816
29432W        W94659  32.019   6.439  12.081
29433W        W94660  29.535  40.565   3.003
29434W        W94661  21.622   6.288   2.360
29435W        W94662   1.968   7.865   0.152
29436W        W94663   8.838  38.905   0.971
29437W        W94664   0.107   3.458  14.852
29438W        W94665   4.679  22.559  12.149
29439W        W94666  15.106   5.436   4.633
29440W        W94667   8.272   3.457  12.254
29441W        W94668  37.803   7.248   3.140
29442W        W94669  44.415  39.944   3.148
29443W        W94670  18.354   7.209   2.428
29444W        W94671   8.067  10.936  12.641
29445W        W94672  25.914   7.345  12.661
29446W        W94673  16.582  41.702   1.897
29447W        W94674  29.092   0.951   4.584
29448W        W94675   1.553  25.683  14.474
29449W        W94676  36.208  20.766  11.152
29450W        W94677   6.844  31.142   2.126
29451W        W94678  25.011   1.035  14.339
29452W        W94679   2.724  12.157  10.732
29453W        W94680   1.686  13.611  13.289
29454W        W94681  23.927  32.683   1.373
29455W        W94682  11.818  25.532   0.241
29456W        W94683   6.258  36.082   1.332
29457W        W94684  29.030  34.270  11.610
29458W        W94685   6.730   2.307   2.082
29459W        W94686  29.714  31.563   3.231
29460W        W94687  40.458  21.874   3.300
29461W        W94688  23.112  35.480  12.800
29462W        W94689  36.806  32.882  11.250
29463W        W94690   0.817   4.930  12.156
29464W        W94691  42.345   9.853  13.296
29465W        W94692  35.530  23.622   1.041
29466W        W94693  25.154  44.301   4.589
29467W        W94694  44.998   0.545  14.292
29468W        W94695  27.239  40.201  11.523
29469W        W94696   1.229  31.770  11.598
29470W        W94697   8.391  27.550   1.596
29471W        W94698  28.927   6.227  11.085
29472W        W94699  11.199  20.100   1.225
29473W        W94700  25.079   0.968   1.397
29474W        W94701  20.303  32.061   3.839
29475W        W94702  11.913  17.765   4.380
29476W        W94703  25.536  41.838  10.874
29477W        W94704  40.365  25.138  10.783
29478W        W94705   0.716  21.629  12.330
29479W        W94706   7.587  40.310   1.516
29480W        W94707  39.060  43.556  14.463
29481W        W94708   2.332  44.536  14.610
29482W        W94709  27.125  13.751   3.180
29483W        W94710  21.734  23.240   3.652
29484W        W94711  33.927   9.182   1.034
29485W        W94712   9.207  30.134   2.219
29486W        W94713  28.634  42.080  10.703
29487W        W94714  14.426   8.271  12.882
29488W        W94715  22.092  16.022   4.714
29489W        W94716  30.332  19.581  13.283
29490W        W94717  29.769  27.263  14.329
29491W        W94718  34.312  24.108   0.491
29492W        W94719  11.261  26.265   2.434
29493W        W94720  44.915   5.227   3.340
29494W        W94721  13.807   6.999   3.409
29495W        W94722   5.909  22.238  14.479
29496W        W94723  26.991  12.122   3.148
29497W        W94724  39.284  27.657   1.015
29498W        W94725  10.150  33.998  11.564
29499W        W94726   3.797  38.570  14.312
29500W        W94727   3.256  32.296  14.442
29501W        W94728  10.265  15.550  12.997
29502W        W94729  13.330  19.725   3.921
29503W        W94730  42.868  10.327   4.611
29504W        W94731  30.598   3.178  12.945
29505W        W94732  10.875   9.097  12.180
29506W        W94733  16.791  23.455   3.180
29507W        W94734   9.175  11.498   4.210
29508W        W94735   7.737  39.291   1.742
29509W        W94736  11.392  22.623  10.709
29510W        W94737  20.500   0.709   1.388
29511W        W94738  11.498  43.860  11.977
29512W        W94739  25.209  21.680   0.365
29513W        W94740  33.664   9.664   0.399
29514W        W94741   1.537   1.320  11.632
29515W        W94742  34.515  42.673  10.634
29516W        W94743   0.933  34.944   2.527
29517W        W94744   6.710  22.691  14.571
29518W        W94745  37.658   6.386  12.873
29519W        W94746  27.987  40.387   0.247
29520W        W94747  41.420  43.523  11.530
29521W        W94748  22.121   3.810   1.638
29522W        W94749   4.157  18.621   2.749
29523W        W94750  25.136  39.860   4.160
29524W        W94751  34.258  15.925  13.624
29525W        W94752  17.822  36.611  13.809
29526W        W94753  26.917  23.304  11.635
29527W        W94754  23.914  21.405  12.364
29528W        W94755  20.553   1.502  10.622
29529W        W94756  37.418   8.756   4.494
29530W        W94757   7.486  25.653   3.285
29531W        W94758   9.617   9.237  13.451
29532W        W94759   5.785  36.656   2.871
29533W        W94760  42.381   5.547  10.746
29534W        W94761  36.975  36.476   1.402
29535W        W94762  36.894  10.341  10.595
29536W        W94763  34.877  13.369  10.195
29537W        W94764   0.840  10.980  10.614
29538W        W94765   0.214  29.916   3.176
29539W        W94766  14.368  41.525   3.254
29540W        W94767   9.405  10.833  13.694
29541W        W94768  36.229  19.737  13.354
29542W        W94769   2.438  37.779  12.139
29543W        W94770   1.143  44.127   2.678
29544W        W94771  34.189  36.440  12.925
29545W        W94772  21.982  10.844  10.737
29546W        W94773  20.540  36.049   2.420
29547W        W94774  40.432  33.041  10.353
29548W        W94775  33.418  25.120   2.705
29549W        W94776  14.313  44.015  10.209
29550W        W94777  43.950  31.124   3.712
29551W        W94778  11.766  31.728   5.286
29552W        W94779  21.515  36.181  13.481
29553W        W94780  38.400  30.642   4.224
29554W        W94781   3.167  31.935   2.858
29555W        W94782   6.021  11.030   3.571
29556W        W94783  24.067  37.416  14.984
29557W        W94784  39.027  18.451   3.403
29558W        W94785  33.156  22.155   2.722
29559W        W94786  39.862  22.019   0.337
29560W        W94787  11.168  43.259   2.208
29561W        W94788  37.928   7.650   1.377
29562W        W94789   3.769  29.805   3.348
29563W        W94790  22.581   4.731  14.388
29564W        W94791  38.452  28.153   1.458
29565W        W94792  40.865  38.801  11.991
29566W        W94793  41.079  40.797  11.175
29567W        W94794  15.682  28.787  11.110
29568W        W94795  38.877  33.788  11.494
29569W        W94796   6.634   0.765  14.006
29570W        W94797  41.665  12.904   0.912
29571W        W94798   3.006   9.269   3.828
29572W        W94799  21.471   3.343  14.361
29573W        W94800  15.990  38.545   1.344
29574W        W94801  26.160  35.871   3.165
29575W        W94802  27.345   4.728  13.498
29576W        W94803  42.571  14.114   1.821
29577W        W94804  24.826  41.234   4.119
29578W        W94805  17.515  41.512  14.894
29579W        W94806  21.282   6.350  10.655
29580W        W94807  16.318  30.497   4.594
29581W        W94808  23.498  10.209   0.450
29582W        W94809  20.323  21.160  13.410
29583W        W94810  17.570   3.388   3.236
29584W        W94811  32.361  13.582  13.854
29585W        W94812  27.118  39.805   0.446
29586W        W94813  38.731  16.808   2.188
29587W        W94814  31.149  40.414   3.818
29588W        W94815  14.395  37.863   3.394
29589W        W94816  32.265  30.003  12.155
29590W        W94817  10.715  24.027   2.216
29591W        W94818  36.751  10.160  12.771
29592W        W94819  26.025  40.724  12.202
29593W        W94820  43.378  37.946  11.989
29594W        W94821  24.145  33.400   2.442
29595W        W94822   2.904  44.537  10.255
29596W        W94823  25.717  25.703  12.004
29597W        W94824  27.632   0.107   3.017
29598W        W94825  35.078  11.161   0.387
29599W        W94826   2.680  27.772  12.052
29600W        W94827  35.048  16.801   3.157
29601W        W94828  18.838  10.066  13.312
29602W        W94829  25.723  23.931   4.359
29603W        W94830   6.923  13.746  13.412
29604W        W94831   8.743  38.984  10.940
29605W        W94832  33.993  33.607  13.513
29606W        W94833   5.436  40.302  12.898
29607W        W94834   0.703  27.286   0.877
29608W        W94835   6.457  40.089   1.395
29609W        W94836  39.021  29.561   4.150
29610W        W94837   0.715  13.222   1.658
29611W        W94838   1.534  11.689  11.815
29612W        W94839  13.375  34.769   4.088
29613W        W94840  30.524  10.399   1.591
29614W        W94841  15.950  37.034  11.679
29615W        W94842  43.406  36.073  14.753
29616W        W94843  24.764  37.082   2.002
29617W        W94844   8.675  26.584   1.902
29618W        W94845  29.008   7.167  11.475
29619W        W94846  42.076  13.290  14.387
29620W        W94847  39.484  19.360  13.971
29621W        W94848  13.090  26.583  12.634
29622W        W94849  12.834  44.880   1.673
29623W        W94850  31.137  12.673  12.174
29624W        W94851  21.647  38.702  12.910
29625W        W94852  29.920  26.855   1.344
29626W        W94853  33.525  38.119  10.797
29627W        W94854  33.418  14.256   2.907
29628W        W94855  27.850   4.674  13.414
29629W        W94856  15.030  21.371   3.448
29630W        W94857   0.952  42.826   0.442
29631W        W94858  12.568  34.976   3.249
29632W        W94859  20.099  29.069  14.568
29633W        W94860  13.832  11.312  14.072
29634W        W94861  39.055   2.344   1.614
29635W        W94862  16.121   9.590   1.464
29636W        W94863  42.664  40.637   4.898
29637W        W94864  28.125  38.625  10.879
29638W        W94865  13.717   2.796   0.873
29639W        W94866  30.619  23.646   1.772
29640W        W94867  43.991  11.753  12.272
29641W        W94868   6.881   4.378  13.043
29642W        W94869  16.352  36.239   1.776
29643W        W94870  37.336  44.224  12.879
29644W        W94871  38.054   8.440  14.906
29645W        W94872  24.511  11.754   4.817
29646W        W94873  39.428   4.147  12.560
29647W        W94874  42.454  41.994   1.328
29648W        W94875  10.607  30.071   2.374
29649W        W94876  18.385   6.414  13.537
29650W        W94877  17.984   4.869  10.722
29651W        W94878  38.150  37.925  13.044
29652W        W94879  14.055  18.633   0.413
29653W        W94880  35.112   6.329  12.508
29654W        W94881  24.132  33.692   4.664
29655W        W94882  25.031  10.666   1.275
29656W        W94883   3.763  28.592  10.645
29657W        W94884  42.726  26.409   2.878
29658W        W94885  22.680   3.882  14.961
29659W        W94886  39.836  34.612  14.389
29660W        W94887  18.374  31.859   3.616
29661W        W94888  43.869  29.949  12.963
29662W        W94889  28.447  36.447   1.862
29663W        W94890  25.037  38.770   3.383
29664W        W94891  37.442  24.600  12.966
29665W        W94892  22.980  14.684   1.711
29666W        W94893  41.755  38.367   3.771
29667W        W94894  33.421   4.362  13.925
29668W        W94895  14.792  43.034  10.696
29669W        W94896  36.558  16.125   3.677
29670W        W94897  22.704  38.400  12.904
29671W        W94898   1.869   9.713  14.507
29672W        W94899  29.115  25.581   1.802
29673W        W94900   9.233  31.667  13.924
29674W        W94901  41.558   1.953  11.385
29675W        W94902  15.607  21.639   0.856
29676W        W94903  39.164  10.840   4.734
29677W        W94904   4.488   4.316  13.360
29678W        W94905  11.678   0.767   5.013
29679W        W94906  39.520   7.319  11.628
29680W        W94907  30.706  31.693  11.929
29681W        W94908  14.981  20.269   4.246
29682W        W94909  41.739  14.183   1.274
29683W        W94910  41.893  17.224   3.255
29684W        W94911  38.104  25.366  13.241
29685W        W94912  36.319  38.151  13.402
29686W        W94913  30.230  36.489  12.492
29687W        W94914   9.317  19.029  11.585
29688W        W94915  21.044  17.925   4.353
29689W        W94916  34.537   8.638  14.006
29690W        W94917  44.963   6.527  11.903
29691W        W94918  36.105  44.494   5.135
29692W        W94919  23.681  17.237   3.816
29693W        W94920  42.495  41.092  12.926
29694W        W94921  19.724   7.789   4.183
29695W        W94922  16.113   6.796   3.132
29696W        W94923  16.297  32.939  11.113
29697W        W94924  28.203  44.846   1.190
29698W        W94925  30.008  35.126   2.435
29699W        W94926  28.039  23.487   2.161
29700W        W94927  12.594  34.663   1.443
29701W        W94928  19.444  26.710   2.254
29702W        W94929  12.915  35.132   4.759
29703W        W94930  39.900  37.334  13.751
29704W        W94931  14.338  28.359  11.493
29705W        W94932  35.594  10.949  12.940
29706W        W94933  43.363  30.810   3.020
29707W        W94934  37.550   8.168  10.861
29708W        W94935  41.537  20.154   1.788
29709W        W94936  10.140  38.145  11.256
29710W        W94937  32.843   7.956   4.137
29711W        W94938  24.280  30.965  10.578
29712W        W94939  29.402  31.114   1.932
29713W        W94940   6.288  18.314  10.345
29714W        W94941  32.019  16.792   2.873
29715W        W94942  40.101  20.508   3.257
29716W        W94943  23.694  28.122  14.473
29717W        W94944   0.273   6.966   3.972
29718W        W94945  40.281  32.957   0.880
29719W        W94946   2.293  12.603   4.143
29720W        W94947  18.667  42.820  13.487
29721W        W94948   4.256  11.154  11.579
29722W        W94949   5.253  28.129  14.663
29723W        W94950  28.217  29.664   2.239
29724W        W94951  37.489  44.841  13.510
29725W        W94952   2.314  34.862   4.773
29726W        W94953   0.522   4.913  14.980
29727W        W94954  26.430  35.090   0.093
29728W        W94955  15.554  44.860   0.252
29729W        W94956   4.312  13.586  13.962
29730W        W94957  14.401  14.834  12.473
29731W        W94958  23.249  12.654  12.806
29732W        W94959  24.169  24.935   2.347
29733W        W94960  38.712  22.115   0.878
29734W        W94961  25.586   6.430  14.384
29735W        W94962   5.247  31.723   1.943
29736W        W94963  38.866   1.786  14.772
29737W        W94964  19.373  35.525  14.379
29738W        W94965  11.136  22.129   1.056
29739W        W94966  16.598   0.232  12.095
29740W        W94967  39.277  30.607  13.308
29741W        W94968  41.903  18.057   3.096
29742W        W94969  11.267   9.763   4.692
29743W        W94970  16.524   7.605   0.437
29744W        W94971  23.973  32.587  11.477
29745W        W94972  13.879   9.693   2.399
29746W        W94973   5.161  16.086   4.757
29747W        W94974  27.070  25.862  12.472
29748W        W94975  44.860  43.518  13.063
29749W        W94976  17.787  27.254  12.619
29750W        W94977  15.394  21.714   2.639
29751W        W94978  43.841   4.820  14.448
29752W        W94979  26.934  24.773  11.500
29753W        W94980  35.476  40.008  11.932
29754W        W94981  25.388  15.323  12.216
29755W        W94982  15.261  26.958  11.021
29756W        W94983   6.832  19.286   4.149
29757W        W94984  26.209  40.346   3.692
29758W        W94985  22.356  10.515  14.387
29759W        W94986  32.916   6.375   2.377
29760W        W94987   8.689  14.455  14.765
29761W        W94988  32.872  13.255   0.778
29762W        W94989  19.122  16.754   4.562
29763W        W94990  22.654  44.226   3.299
29764W        W94991   7.845  34.924   1.168
29765W        W94992  43.450   0.073  14.580
29766W        W94993  24.057  41.942   1.228
29767W        W94994   1.908  29.989   0.227
29768W        W94995  34.722  43.362   4.657
29769W        W94996  15.827  37.916  12.985
29770W        W94997  24.467   3.203  12.132
29771W        W94998  28.387  25.622   0.223
29772W        W94999   5.190  22.045  13.868
29773W        W95000  28.812  13.352   2.149
29774W        W95001  27.564   7.842  12.382
29775W        W95002  14.838  23.480  10.820
29776W        W95003  21.662   3.764   1.829
29777W        W95004  38.605   1.852  11.155
29778W        W95005   6.927  20.129  13.913
29779W        W95006  15.626   3.115   0.085
29780W        W95007  27.620  16.753   1.328
29781W        W95008  42.277   3.398   0.354
29782W        W95009   4.389  34.365   3.350
29783W        W95010   2.784  18.113  13.939
29784W        W95011  11.701   4.109   2.825
29785W        W95012  41.137  44.343  13.511
29786W        W95013   4.687  26.030  13.376
29787W        W95014   4.236  38.040  13.888
29788W        W95015  32.135   1.804  14.844
29789W        W95016  20.512  10.730  13.883
29790W        W95017  39.471  21.750   2.131
29791W        W95018  34.922  33.011   2.151
29792W        W95019  34.936  40.011  12.408
29793W        W95020  20.560  28.402   0.378
29794W        W95021  28.476  16.275  10.612
29795W        W95022  43.639  42.022   3.066
29796W        W95023  40.521   4.398   5.011
29797W        W95024  43.696  12.662  12.613
29798W        W95025  20.532   7.162   0.481
29799W        W95026  39.115  43.854  12.262
29800W        W95027  33.067   6.532   4.286
29801W        W95028  25.556  21.611   2.245
29802W        W95029   4.343  21.417  11.581
29803W        W95030  16.596  12.093  14.018
29804W        W95031  11.426  18.359  13.775
29805W        W95032  40.062  41.471   3.730
29806W        W95033  38.992  20.308  10.261
29807W        W95034  14.726  24.005  10.402
29808W        W95035  44.041   6.203  13.564
29809W        W95036  23.235  17.764  12.276
29810W        W95037  25.562  12.255   4.449
29811W        W95038  19.665  35.604   1.410
29812W        W95039   9.001  14.344   0.663
29813W        W95040   6.229  23.484   3.141
29814W        W95041  19.269  27.432   2.790
29815W        W95042  44.488  25.200   0.882
29816W        W95043  36.529  29.604   1.416
29817W        W95044  11.082  35.026  14.973
29818W        W95045  24.508   2.399  14.840
29819W        W95046  26.550  36.098  14.984
29820W        W95047  14.281  10.374  13.913
29821W        W95048  16.853   5.027   1.138
29822W        W95049  24.160  33.109   3.365
29823W        W95050  20.803  16.364  10.744
29824W        W95051  31.277  39.072   2.419
29825W        W95052  38.017   7.449   1.839
29826W        W95053   5.416   1.973   2.580
29827W        W95054  20.045   5.146  11.227
29828W        W95055  32.989  14.372  12.957
29829W        W95056  33.442  21.812   3.000
29830W        W95057  23.193  43.845   2.557
29831W        W95058  42.016  14.092  13.896
29832W        W95059  22.211   8.222   1.250
29833W        W95060  16.794  13.392   0.338
29834W        W95061  32.784   8.805  10.821
29835W        W95062  40.619  43.510   4.202
29836W        W95063  14.999  13.807  13.793
29837W        W95064  43.399  44.209   3.252
29838W        W95065  16.108  42.244   4.057
29839W        W95066  13.214  41.458   2.402
29840W        W95067  26.050  43.432  14.965
29841W        W95068   3.371  41.028   1.353
29842W        W95069  37.145  20.745   4.560
29843W        W95070  21.355  32.177   4.460
29844W        W95071  25.711  27.206  13.843
29845W        W95072  28.845  26.665   9.532
29846W        W95073  22.672  10.165  14.008
29847W        W95074  31.968   0.483  14.983
29848W        W95075   3.895  25.189  13.269
29849W        W95076  24.795  31.700  10.664
29850W        W95077  27.646   1.335  11.875
29851W        W95078  36.857  24.171   1.308
29852W        W95079  16.070  31.903   3.457
29853W        W95080   3.359  15.135  13.622
29854W        W95081  13.780  25.781  12.515
29855W        W95082  20.345  16.928  13.123
29856W        W95083  13.263   7.023  12.061
29857W        W95084   6.498  19.948   4.569
29858W        W95085  22.161  37.452  12.849
29859W        W95086  39.978  10.669   3.611
29860W        W95087  16.019  16.655  13.601
29861W        W95088  30.870  33.606   0.846
29862W        W95089   9.427  17.771   2.233
29863W        W95090  13.842   3.685  14.328
29864W        W95091   4.342  28.473   4.212
29865W        W95092  32.836  22.967  11.696
29866W        W95093  16.517  11.802   3.947
29867W        W95094  25.586  10.321  11.157
29868W        W95095  30.932   0.659   0.433
29869W        W95096  11.359  35.126   2.765
29870W        W95097  39.457  29.697   2.852
29871W        W95098   5.237  40.819   0.242
29872W        W95099  17.049  37.977   4.643
29873W        W95100  18.032  11.380  11.605
29874W        W95101  29.549   9.238  13.780
29875W        W95102  24.693   4.439   3.798
29876W        W95103   7.968  14.136   5.511
29877W        W95104  24.915   1.390   2.206
29878W        W95105  30.869  35.187  14.717
29879W        W95106  16.818  11.707  14.963
29880W        W95107  28.832  38.890   2.461
29881W        W95108  11.730  35.630   0.466
29882W        W95109  31.433   2.075  14.361
29883W        W95110  19.130   0.499  12.062
29884W        W95111  31.319  37.732  14.789
29885W        W95112  36.949  34.495  14.398
29886W        W95113  27.496  13.249   0.283
29887W        W95114   9.684  43.927   4.089
29888W        W95115   8.833  36.896   4.562
29889W        W95116  40.269   1.578  12.520
29890W        W95117  19.553  30.748  13.592
29891W        W95118  41.455  34.919   2.949
29892W        W95119  17.549  38.030   0.217
29893W        W95120  36.549  40.973  11.766
29894W        W95121  35.757   1.212   4.551
29895W        W95122  20.076  43.535  13.732
29896W        W95123   3.369  19.223   1.683
29897W        W95124  41.208  26.285  12.500
29898W        W95125  30.378  11.815  10.258
29899W        W95126   1.757  24.831  10.281
29900W        W95127   2.920   1.290   0.312
29901W        W95128  13.887  21.999  14.378
29902W        W95129  39.757   8.299   1.514
29903W        W95130   1.610  14.268  14.771
29904W        W95131  14.771  43.350   4.452
29905W        W95132  12.236  38.030   2.316
29906W        W95133  19.968  28.817   4.246
29907W        W95134   7.887  28.566   1.328
29908W        W95135  38.627  43.668  12.913
29909W        W95136   9.282   6.190   4.675
29910W        W95137   4.185   4.426   0.585
29911W        W95138   8.778  43.954  11.977
29912W        W95139   5.175  26.385   1.831
29913W        W95140  28.626  34.047   0.861
29914W        W95141   7.852  30.474   3.740
29915W        W95142  18.385  37.102   3.158
29916W        W95143  21.702  39.122  11.078
29917W        W95144  41.794  24.868   0.382
29918W        W95145   9.394   4.321   4.307
29919W        W95146  19.304  36.505  11.889
29920W        W95147  27.908  26.245  12.427
29921W        W95148  39.601  17.751  11.106
29922W        W95149   4.525  40.765  10.709
29923W        W95150  11.966  15.720   2.743
29924W        W95151  40.891  27.123   0.277
29925W        W95152   6.851  11.703  10.334
29926W        W95153  18.812  43.755  10.686
29927W        W95154  40.084  27.834   1.821
29928W        W95155   2.458   7.720   1.984
29929W        W95156  30.976  14.299   2.889
29930W        W95157  44.495  35.835  12.988
29931W        W95158  24.075   2.192  12.698
29932W        W95159  44.482  30.554  12.426
29933W        W95160  17.120  26.617   0.206
29934W        W95161   3.207   3.624  11.832
29935W        W95162  36.911  27.033  14.064
29936W        W95163  27.803  43.754   0.712
29937W        W95164  30.087  40.562  13.648
29938W        W95165  20.790  35.878   1.732
29939W        W95166  15.123  32.883  14.406
29940W        W95167  43.946  36.921   1.293
29941W        W95168   4.783  31.416   3.908
29942W        W95169   9.042  18.963   4.068
29943W        W95170   6.430   3.541   1.446
29944W        W95171  23.718  19.571  14.501
29945W        W95172   4.736  13.608   1.413
29946W        W95173  32.391  14.319  12.283
29947W        W95174  23.090   5.197   2.693
29948W        W95175   1.321  23.471  13.966
29949W        W95176  20.584   2.482  13.877
29950W        W95177  21.328  21.253  13.896
29951W        W95178  32.804   4.706  13.472
29952W        W95179  11.725  42.251   1.902
29953W        W95180   1.819   3.747   3.433
29954W        W95181   0.214   9.436  12.096
29955W        W95182  25.498  32.189  13.139
29956W        W95183   9.362  14.793  13.541
29957W        W95184  19.954  25.520   1.633
29958W        W95185   4.206  41.764   1.152
29959W        W95186  19.703  39.034   1.307
29960W        W95187   9.763  18.381   2.683
29961W        W95188   7.943   0.895  13.883
29962W        W95189   4.501  36.510   0.860
29963W        W95190  30.148  25.033   4.963
29964W        W95191  35.200  41.717  13.828
29965W        W95192  35.017  29.512   4.105
29966W        W95193  30.650   9.771  12.069
29967W        W95194  25.132  38.504   4.507
29968W        W95195   7.541  24.562   3.250
29969W        W95196   1.139   0.251   2.305
29970W        W95197  32.996  32.796  11.601
29971W        W95198  33.163  14.877  12.587
29972W        W95199  23.353  17.106  13.546
29973W        W95200  19.193   7.109   4.187
29974W        W95201  32.325  25.936  11.950
29975W        W95202  42.874  33.944   1.387
29976W        W95203   6.173   6.396   1.445
29977W        W95204  14.370  24.116   3.121
29978W        W95205  40.055  42.090   0.735
29979W        W95206  24.564  26.672   4.328
29980W        W95207  43.058  32.004  10.246
29981W        W95208  16.299  16.836  13.984
29982W        W95209   8.493  19.648   3.885
29983W        W95210  25.074  33.642   4.541
29984W        W95211  30.370  32.328  12.958
29985W        W95212  15.162  41.784  14.947
29986W        W95213  38.364   4.047  10.882
29987W        W95214  25.139  26.625  14.973
29988W        W95215  34.892  35.816  11.417
29989W        W95216   4.259  17.182   3.166
29990W        W95217  19.014  40.100  14.275
29991W        W95218  40.435   6.409  10.455
29992W        W95219  14.554   0.444   3.882
29993W        W95220  39.017  18.326  13.005
29994W        W95221   2.145  30.535  13.106
29995W        W95222  23.324  15.910  11.893
29996W        W95223  42.482   8.313   3.942
29997W        W95224  33.403  12.179  14.359
29998W        W95225  15.165  37.038  14.429
29999W        W95226  36.988   3.101   1.763
30000W        W95227  17.471  23.840  14.922
30001W        W95228  22.311  40.970   0.516
30002W        W95229   5.676  42.874  10.475
30003W        W95230  31.564  15.232  12.585
30004W        W95231  30.477   2.762   1.693
30005W        W95232  28.546  29.534  11.450
30006W        W95233  19.650  10.844   4.584
30007W        W95234  26.455  27.991  14.843
30008W        W95235  15.539  35.463   0.265
30009W        W95236  21.464  27.882  11.602
30010W        W95237  17.135  34.560   3.799
30011W        W95238  22.717  40.718   0.386
30012W        W95239  19.426  16.636   2.724
30013W        W95240   6.808   4.383   4.913
30014W        W95241  36.330  32.630  13.096
30015W        W95242   7.639   0.510  13.658
30016W        W95243  41.289  30.567  10.988
30017W        W95244   9.723  26.008  11.557
30018W        W95245  23.176  36.883  14.596
30019W        W95246   4.403   4.779   1.870
30020W        W95247  21.100  25.941  14.405
30021W        W95248  14.274   7.114  14.201
30022W        W95249  38.213  41.518   0.193
30023W        W95250  25.881  42.527   2.288
30024W        W95251  33.427  41.269  14.908
30025W        W95252  31.546   0.482  11.245
30026W        W95253   4.145  14.560   3.613
30027W        W95254   9.378  43.046   1.854
30028W        W95255  25.249  21.539   1.454
30029W        W95256  31.997   7.818   4.088
30030W        W95257  13.635  41.498   1.538
30031W        W95258  31.667  24.221  14.356
30032W        W95259  29.897  40.281  14.028
30033W        W95260   2.402  22.072   1.046
30034W        W95261   1.783  44.434   0.536
30035W        W95262   8.117  12.105  13.076
30036W        W95263  14.609  13.984   1.199
30037W        W95264  36.971  30.525  14.817
30038W        W95265   1.370  33.391   3.351
30039W        W95266   4.890  15.277  12.030
30040W        W95267  39.908  37.147   2.476
30041W        W95268   0.333   6.052   3.714
30042W        W95269   0.916  40.328   4.136
30043W        W95270  22.738  26.182  13.798
30044W        W95271   5.244  32.109   0.271
30045W        W95272  22.343   6.501  10.732
30046W        W95273  19.462  13.773   0.496
30047W        W95274  18.083   9.345  14.343
30048W        W95275   5.358  18.197  11.545
30049W        W95276  14.623  17.524  12.495
30050W        W95277  14.373   3.135   3.239
30051W        W95278  10.070  30.638   2.864
30052W        W95279  26.287  27.540  11.183
30053W        W95280  21.100   7.412   4.584
30054W        W95281  30.033  41.878   1.889
30055W        W95282  24.684  34.508  13.378
30056W        W95283  44.574  26.903   2.230
30057W        W95284  38.459  15.216  12.443
30058W        W95285  28.901  27.238  12.045
30059W        W95286  30.636  26.037   3.327
30060W        W95287  40.028  33.777   2.279
30061W        W95288  34.248  35.854  11.120
30062W        W95289   1.797  36.144   2.387
30063W        W95290  31.905  11.403  10.925
30064W        W95291  43.626  12.927  13.855
30065W        W95292  14.792   3.805  12.140
30066W        W95293  16.994  10.792  12.049
30067W        W95294  31.944  34.798  13.937
30068W        W95295  16.248  19.054   3.838
30069W        W95296  20.542   5.329   0.732
30070W        W95297  29.112  24.778   2.609
30071W        W95298  23.151   0.532   0.786
30072W        W95299  39.489  40.602   1.279
30073W        W95300  42.939   6.360   2.831
30074W        W95301  26.620  27.959  11.142
30075W        W95302  37.023   1.255  12.573
30076W        W95303   9.262   5.761  13.066
30077W        W95304   6.149  29.092  12.458
30078W        W95305  22.674  32.687   0.388
30079W        W95306  33.519  12.975  13.926
30080W        W95307  27.701  38.311  12.435
30081W        W95308  23.562  37.047   2.383
30082W        W95309   0.260  39.869  12.237
30083W        W95310  43.509  41.297   1.852
30084W        W95311  12.765   1.713   4.078
30085W        W95312  40.789  17.554   1.570
30086W        W95313  39.087   4.831  13.660
30087W        W95314  19.740  31.182   0.438
30088W        W95315   3.364  13.859   4.456
30089W        W95316  34.977  29.493   1.864
30090W        W95317  15.202  34.331   0.545
30091W        W95318  36.903  25.295   2.113
30092W        W95319   6.705  23.617  10.633
30093W        W95320  41.377  40.891   4.617
30094W        W95321  36.311   5.800   4.533
30095W        W95322  43.713  42.930  11.401
30096W        W95323  44.781  41.110  11.675
30097W        W95324  14.759  31.049   1.237
30098W        W95325  44.412  29.043  13.964
30099W        W95326   5.332   2.352   0.890
30100W        W95327   1.201  16.059  10.389
30101W        W95328   1.312   8.581  13.673
30102W        W95329  29.293  22.141  13.352
30103W        W95330  23.685  33.063   2.592
30104W        W95331  19.303  18.217   3.055
30105W        W95332  21.961   6.642  14.491
30106W        W95333  18.387  34.896  12.412
30107W        W95334  18.237   5.362   3.688
30108W        W95335  44.546   4.950   0.134
30109W        W95336   0.340  28.885  12.052
30110W        W95337  38.497  33.877   1.950
30111W        W95338  31.406  30.156   2.789
30112W        W95339  12.343  23.039  10.728
30113W        W95340   4.367  36.289   3.780
30114W        W95341  44.189   1.911   0.945
30115W        W95342  38.019  36.625   3.313
30116W        W95343  27.725   7.131   4.523
30117W        W95344  22.802  39.076  11.152
30118W        W95345  36.189  27.201  11.310
30119W        W95346  14.704  13.831   2.915
30120W        W95347  11.810  23.582   3.889
30121W        W95348  40.489  13.873   3.410
30122W        W95349  32.927  18.667   0.400
30123W        W95350  28.680  37.910  10.934
30124W        W95351  22.954  22.719   2.284
30125W        W95352  27.445   7.079   3.623
30126W        W95353  41.359   9.241  11.144
30127W        W95354   1.183  24.699   3.674
30128W        W95355   7.002   9.276  12.599
30129W        W95356   1.740  17.495  14.441
30130W        W95357  27.674  33.015   3.991
30131W        W95358  24.702  33.898  14.071
30132W        W95359   1.715  30.982   0.821
30133W        W95360  28.115   7.237   2.812
30134W        W95361  11.270  38.821  11.470
30135W        W95362  30.869   9.782   4.816
30136W        W95363  17.712  42.779   0.314
30137W        W95364  39.281   2.739   3.193
30138W        W95365  21.086  11.881   4.647
30139W        W95366  26.962  34.285  12.420
30140W        W95367   4.404  31.507  14.700
30141W        W95368  38.318  25.027   3.249
30142W        W95369   8.051  15.685  14.056
30143W        W95370  44.826  40.885   0.671
30144W        W95371   5.308  32.443  10.803
30145W        W95372   3.086   8.890  12.375
30146W        W95373   4.260  35.037   0.828
30147W        W95374  10.688   7.394  10.362
30148W        W95375  16.727   5.380   0.768
30149W        W95376  26.073  12.317   4.116
30150W        W95377   8.414  41.342  11.434
30151W        W95378  23.996  29.416  13.816
30152W        W95379  40.784  13.537   3.687
30153W        W95380   4.736  23.906   4.509
30154W        W95381  28.146  36.475   1.445
30155W        W95382  35.581  43.438   3.591
30156W        W95383  22.683  28.906  13.029
30157W        W95384  37.889  25.515  11.212
30158W        W95385  26.272  37.744   2.191
30159W        W95386   3.281   6.256  14.924
30160W        W95387  10.191  14.815   2.951
30161W        W95388  22.957  25.138  14.948
30162W        W95389  26.785  25.161  10.382
30163W        W95390  35.395   1.805   4.143
30164W        W95391  25.759  30.926   1.890
30165W        W95392  25.679  25.389   2.272
30166W        W95393  14.837  34.564  14.317
30167W        W95394  33.535   6.749   0.932
30168W        W95395  21.730  43.036  14.818
30169W        W95396  40.965  38.309   0.525
30170W        W95397  34.377  24.083  10.957
30171W        W95398  28.847  37.520   1.702
30172W        W95399  33.781  35.543   2.206
30173W        W95400   4.498  25.988  11.065
30174W        W95401  34.068  41.754   2.542
30175W        W95402  32.479  16.523  10.697
30176W        W95403  14.208  33.687  13.448
30177W        W95404  41.989  15.556  11.326
30178W        W95405   4.948  28.200   2.169
30179W        W95406  22.951   9.924  12.044
30180W        W95407  23.643  35.309  11.143
30181W        W95408  19.480  35.933   3.345
30182W        W95409  18.157  21.729   1.663
30183W        W95410  32.238   3.987  12.850
30184W        W95411  27.209  30.008  12.388
30185W        W95412   6.721  27.163   1.898
30186W        W95413  33.669  26.411  10.314
30187W        W95414  27.826  23.515   4.492
30188W        W95415  32.444  28.259   4.526
30189W        W95416  27.462   4.877   0.933
30190W        W95417  20.963  21.952  12.489
30191W        W95418  27.733  32.258   2.100
30192W        W95419  30.164  40.876   0.912
30193W        W95420  43.847  26.108   4.952
30194W        W95421  31.043  29.524   0.695
30195W        W95422  17.581   7.505  13.569
30196W        W95423  12.389  14.641  13.960
30197W        W95424  20.977  28.052  14.830
30198W        W95425  23.486  12.204  14.461
30199W        W95426   5.514   6.625   2.889
30200W        W95427   2.120  27.233  12.030
30201W        W95428  29.964  10.285   1.914
30202W        W95429  21.262  37.440  12.887
30203W        W95430  15.097  43.202   1.134
30204W        W95431  22.053  10.881   2.323
30205W        W95432   1.792  34.130   1.227
30206W        W95433  44.463  13.811   4.827
30207W        W95434  16.117  32.525   1.697
30208W        W95435   2.440  34.479   0.995
30209W        W95436  43.961  22.955  14.738
30210W        W95437  14.819   7.792   3.774
30211W        W95438  21.781   2.069  14.471
30212W        W95439  16.788  21.142   4.122
30213W        W95440   2.477  25.232   0.711
30214W        W95441   8.924  35.028  12.141
30215W        W95442  18.388  37.839   2.699
30216W        W95443  25.103  10.404   0.825
30217W        W95444  33.035  34.292   2.858
30218W        W95445  33.601  41.379   3.623
30219W        W95446  39.830   8.837  13.846
30220W        W95447  39.278   9.382  12.095
30221W        W95448  43.363  17.696   2.740
30222W        W95449  44.611  33.915  11.347
30223W        W95450   9.894  13.827   2.777
30224W        W95451  30.193  37.794   0.230
30225W        W95452  24.516  32.159   1.039
30226W        W95453  21.844  40.494   3.673
30227W        W95454  22.817  10.657   4.299
30228W        W95455  23.261   7.224   4.824
30229W        W95456  30.624  21.999  14.009
30230W        W95457  24.072  20.202   2.313
30231W        W95458  14.686  38.214   2.813
30232W        W95459  12.159  33.936   4.590
30233W        W95460   9.953  29.126   1.864
30234W        W95461  22.470  42.553  11.527
30235W        W95462  12.508  38.399  11.964
30236W        W95463   4.978  12.180  14.904
30237W        W95464  42.317  36.993  13.075
30238W        W95465  17.852  25.156   2.756
30239W        W95466   2.275   3.177   4.872
30240W        W95467  11.396  39.801  12.568
30241W        W95468  43.854  26.035  13.444
30242W        W95469  32.894  20.504  12.965
30243W        W95470  21.177  20.898   4.801
30244W        W95471   1.944   5.015   4.674
30245W        W95472   9.246   5.638  13.557
30246W        W95473   4.110   9.644   1.016
30247W        W95474  44.731   4.930   4.905
30248W        W95475  37.001  37.998  11.225
30249W        W95476   5.845  43.865  12.454
30250W        W95477  30.025  40.860   4.356
30251W        W95478  10.653  41.075  14.471
30252W        W95479  43.316   7.280   2.729
30253W        W95480  33.444  10.009  12.937
30254W        W95481   9.844  42.782   1.846
30255W        W95482  35.263  33.499   1.040
30256W        W95483  11.362  40.779  13.551
30257W        W95484  19.259  37.457  13.933
30258W        W95485  18.726  13.806  10.914
30259W        W95486  36.568  20.558  13.975
30260W        W95487  40.539  32.639  11.182
30261W        W95488   9.464  37.766  14.924
30262W        W95489   4.787   1.031   1.257
30263W        W95490  14.389   5.651  11.157
30264W        W95491  23.658  29.076  13.037
30265W        W95492  11.012  10.697   1.396
30266W        W95493   6.218  42.569   0.348
30267W        W95494  38.479  27.555  14.746
30268W        W95495  44.279  37.053  11.184
30269W        W95496  17.574   9.211  10.520
30270W        W95497  34.858  30.499  10.489
30271W        W95498   0.845  23.354   4.643
30272W        W95499  23.169   1.373   2.697
30273W        W95500   2.495  39.108  14.496
30274W        W95501  15.860  40.857   2.626
30275W        W95502  41.844   6.241  11.662
30276W        W95503  32.236  38.949  14.481
30277W        W95504  22.294  20.285  12.584
30278W        W95505  25.599  24.506  12.600
30279W        W95506   0.701  42.760  12.426
30280W        W95507  11.098  34.363   2.560
30281W        W95508   7.525   3.960  13.590
30282W        W95509  24.221  38.990   4.496
30283W        W95510  41.916  10.436   0.546
30284W        W95511  27.743  31.172  12.803
30285W        W95512   7.871  29.280   4.562
30286W        W95513  36.754  29.871   3.778
30287W        W95514  10.484   8.693   5.144
30288W        W95515  27.681  16.059   4.029
30289W        W95516  12.773   0.897   4.619
30290W        W95517   6.922  11.613  12.324
30291W        W95518   1.762  21.806  13.982
30292W        W95519   5.867   5.206   2.782
30293W        W95520   1.212  20.315   3.133
30294W        W95521  11.162  28.342   1.218
30295W        W95522   4.722   6.973   0.571
30296W        W95523  21.170  17.786  14.062
30297W        W95524   5.822  38.335   2.381
30298W        W95525   5.472  35.416   4.190
30299W        W95526  12.589  24.549   4.272
30300W        W95527  44.333  13.252  13.102
30301W        W95528  21.043  29.166   1.760
30302W        W95529  24.998  38.540   0.648
30303W        W95530  25.982  23.074  10.688
30304W        W95531  34.011  18.792  13.511
30305W        W95532  29.097  44.885  12.101
30306W        W95533  15.666  14.056   0.536
30307W        W95534  20.660   4.517  11.940
30308W        W95535  32.530   3.507   4.006
30309W        W95536  37.761  16.257  13.929
30310W        W95537  34.060  37.621   1.275
30311W        W95538  20.267  24.149   0.187
30312W        W95539   6.567  19.731  11.571
30313W        W95540  40.296  14.645   2.624
30314W        W95541   8.271  20.075  14.904
30315W        W95542   2.517  28.946   5.031
30316W        W95543  34.005   2.724   0.323
30317W        W95544  15.796  17.079   3.769
30318W        W95545  40.962  15.740   2.727
30319W        W95546   0.914  39.435   0.955
30320W        W95547   0.159  20.557  12.156
30321W        W95548  44.522   9.298   2.378
30322W        W95549  29.054  24.936  11.976
30323W        W95550  22.397  25.131  13.203
30324W        W95551   5.419  44.636  15.000
30325W        W95552   5.649  18.113  11.137
30326W        W95553  25.199  19.706  11.096
30327W        W95554  12.206  15.870  14.486
30328W        W95555  43.121  11.637   2.166
30329W        W95556  40.327  38.392  14.962
30330W        W95557  10.660  23.131   2.372
30331W        W95558   0.897  26.679   2.600
30332W        W95559  18.225   7.828  14.371
30333W        W95560  25.117  27.511   0.238
30334W        W95561  15.266   1.971   2.921
30335W        W95562   9.881  39.137   1.345
30336W        W95563   0.747  11.234   4.075
30337W        W95564  29.131  17.106   0.405
30338W        W95565  12.061  20.369  14.744
30339W        W95566  10.234  35.186  12.170
30340W        W95567  26.139  29.719   2.837
30341W        W95568  42.032  39.326   3.539
30342W        W95569  42.835  39.763  10.826
30343W        W95570  20.880  34.677  11.697
30344W        W95571  22.575  25.980   1.758
30345W        W95572  18.668   5.507   3.954
30346W        W95573  25.624  37.225   4.816
30347W        W95574  19.981   1.994   4.027
30348W        W95575  26.884  11.130  11.968
30349W        W95576  20.118  11.101   4.242
30350W        W95577   7.269  27.971   4.434
30351W        W95578   9.828  19.890   2.864
30352W        W95579   8.095   2.272  13.553
30353W        W95580  35.700  37.807  12.932
30354W        W95581  41.679  12.370  14.026
30355W        W95582   4.314  25.548  13.377
30356W        W95583   9.392  17.699   4.116
30357W        W95584  14.904  14.152   0.777
30358W        W95585  37.808   2.818   2.755
30359W        W95586  12.160  18.095  10.614
30360W        W95587   3.766  23.509   2.608
30361W        W95588  32.086  31.260   0.311
30362W        W95589  44.464   7.151  12.863
30363W        W95590  35.448  22.630  12.061
30364W        W95591   0.384   7.989  14.925
30365W        W95592   8.215  12.630  10.452
30366W        W95593  18.819  27.715   2.696
30367W        W95594  20.653  43.460   0.781
30368W        W95595  42.880  44.755  12.001
30369W        W95596  37.470   6.976   1.376
30370W        W95597   3.021  18.060  14.426
30371W        W95598   4.890  32.636  13.781
30372W        W95599  18.789  11.838  14.846
30373W        W95600  22.845   3.363  14.803
30374W        W95601   1.310  31.082  13.821
30375W        W95602  18.193  21.142  12.234
30376W        W95603  24.030  27.951  13.570
30377W        W95604  15.810  14.371   2.787
30378W        W95605  16.510  17.213   0.424
30379W        W95606  11.827   5.977  11.001
30380W        W95607  39.795  25.613   2.202
30381W        W95608  29.943  24.053  10.846
30382W        W95609  11.646  36.896  10.703
30383W        W95610   1.720  30.600  11.779
30384W        W95611  24.269  14.799   2.169
30385W        W95612  12.251  13.809   4.449
30386W        W95613  18.717  43.713   2.452
30387W        W95614  14.861  40.909   0.571
30388W        W95615  32.004  19.067   0.939
30389W        W95616  24.450  38.668  13.872
30390W        W95617   0.652  22.670   4.185
30391W        W95618  12.759  41.599  13.894
30392W        W95619  43.287   1.771  14.412
30393W        W95620   3.741  19.521   4.585
30394W        W95621  23.948  28.410   1.904
30395W        W95622  19.671  37.195  13.783
30396W        W95623  17.214  35.954   0.919
30397W        W95624  24.424  32.409  11.321
30398W        W95625  42.323  29.053   2.143
30399W        W95626  10.985  22.453  13.362
30400W        W95627  28.300  34.389   1.653
30401W        W95628  37.451  19.325  13.565
30402W        W95629   7.691  24.468  13.423
30403W        W95630  28.942  38.372  11.195
30404W        W95631   0.898  37.313   0.734
30405W        W95632  34.207   8.965  14.273
30406W        W95633  30.883  20.517  14.770
30407W        W95634  41.760  41.330  11.735
30408W        W95635  28.396  28.344  10.982
30409W        W95636  38.570  37.834   1.695
30410W        W95637  42.451   9.249   4.639
30411W        W95638   2.490   1.481   4.538
30412W        W95639  15.799  27.458   1.794
30413W        W95640  11.322  15.772   3.940
30414W        W95641  16.212   9.404   3.154
30415W        W95642   8.140  13.403  13.950
30416W        W95643  38.510  29.594   4.631
30417W        W95644  13.512  10.640  10.768
30418W        W95645   8.743  34.579  13.741
30419W        W95646  42.573  14.516  12.930
30420W        W95647  44.981  38.833   4.142
30421W        W95648   5.824   9.445  10.717
30422W        W95649  38.988  37.518  13.270
30423W        W95650  10.698  31.442   2.786
30424W        W95651  39.957  35.518  14.328
30425W        W95652  11.630  12.840  10.648
30426W        W95653  31.375   8.940   3.680
30427W        W95654  15.604  40.348  12.054
30428W        W95655  10.197  20.171   3.700
30429W        W95656  39.459  14.378   1.473
30430W        W95657  10.143  37.067   5.033
30431W        W95658  13.144  15.164  13.263
30432W        W95659  36.017  10.627   0.827
30433W        W95660  24.666  33.874  14.960
30434W        W95661  33.685  29.630   0.114
30435W        W95662  13.630   0.294   0.969
30436W        W95663  32.680  33.865   2.883
30437W        W95664  17.635  42.932  13.158
30438W        W95665   3.815   0.084  12.838
30439W        W95666  20.650  40.400   0.955
30440W        W95667   2.601  17.598  12.625
30441W        W95668  26.943  27.450   2.789
30442W        W95669  20.334  31.379   2.678
30443W        W95670  21.554  29.776  14.723
30444W        W95671  26.311  44.950   4.075
30445W        W95672  22.288  43.106   2.756
30446W        W95673  40.062  33.429  12.885
30447W        W95674  38.576  12.699   2.265
30448W        W95675  19.671  39.406   2.707
30449W        W95676  15.219  18.210  14.881
30450W        W95677  17.293  23.899  12.510
30451W        W95678  29.264  44.305   1.949
30452W        W95679  28.935   1.049  14.340
30453W        W95680  38.348   0.178   0.327
30454W        W95681  15.215  36.503   3.856
30455W        W95682  10.530  37.449  12.505
30456W        W95683  41.687  42.380   0.877
30457W        W95684  10.778   1.117   4.890
30458W        W95685  30.377   8.188   4.817
30459W        W95686  33.599  17.236   2.752
30460W        W95687  33.512  11.784  14.892
30461W        W95688  36.789  15.532  14.753
30462W        W95689  28.813  11.245   0.313
30463W        W95690   7.727  12.449   2.848
30464W        W95691  27.432   4.402   2.649
30465W        W95692  19.305  21.270  11.643
30466W        W95693   7.693   4.181  12.062
30467W        W95694  42.733  40.411   2.047
30468W        W95695   4.883   9.177  14.915
30469W        W95696   9.967  21.314  11.068
30470W        W95697   3.498  30.562   0.815
30471W        W95698  23.206  27.495  13.882
30472W        W95699  13.376   9.591   3.285
30473W        W95700  34.533   3.127  12.051
30474W        W95701  33.965  10.431  13.524
30475W        W95702  22.768  16.908  12.419
30476W        W95703  34.629  38.183   2.335
30477W        W95704   2.010  29.158   3.197
30478W        W95705  13.161  40.995   1.423
30479W        W95706  22.034  15.873   2.041
30480W        W95707   8.653  18.602   1.833
30481W        W95708  20.094  28.517   0.141
30482W        W95709  28.036   8.788  11.256
30483W        W95710   7.022  31.415   1.711
30484W        W95711  38.996  10.731  12.973
30485W        W95712  16.777  10.728   3.677
30486W        W95713  26.271  44.281  13.393
30487W        W95714  40.301   7.754  12.649
30488W        W95715  26.116  31.511   4.175
30489W        W95716  40.252  35.408  11.008
30490W        W95717  18.205  38.201  11.214
30491W        W95718  22.180  21.490  12.975
30492W        W95719  41.773  28.477  10.769
30493W        W95720   3.250  22.087  11.076
30494W        W95721   3.017  40.396   3.184
30495W        W95722  26.277   1.369  12.379
30496W        W95723   5.851  17.081   2.545
30497W        W95724   0.339  39.066   2.261
30498W        W95725   3.690   0.776  10.251
30499W        W95726   8.135  29.999   0.683
30500W        W95727  17.695  30.085  13.943
30501W        W95728  31.969  36.322   4.018
30502W        W95729   6.961   1.776   3.315
30503W        W95730   8.851  12.707  14.943
30504W        W95731  42.788  32.048   4.774
30505W        W95732  29.277  32.096   0.306
30506W        W95733  22.490   2.755  11.619
30507W        W95734  15.645  35.816   2.253
30508W        W95735  20.737  40.816   2.298
30509W        W95736  25.731  27.110   1.390
30510W        W95737   7.754  40.080  13.992
30511W        W95738  42.478   3.957  13.133
30512W        W95739  33.196  30.139  13.326
30513W        W95740  20.533  42.352  12.551
30514W        W95741  12.101  28.612   1.392
30515W        W95742  10.686   6.705   3.203
30516W        W95743  41.732  17.816  12.997
30517W        W95744   8.131   3.775  11.047
30518W        W95745  29.126   1.438  13.045
30519W        W95746  35.510  32.835   1.732
30520W        W95747  29.755  41.844   0.271
30521W        W95748  24.945  30.590   4.405
30522W        W95749  14.127  20.089  11.945
30523W        W95750  11.830  10.679  13.373
30524W        W95751  20.998  29.185  14.347
30525W        W95752  30.390  24.427  10.061
30526W        W95753  26.236  16.595   2.375
30527W        W95754   6.332   8.322   4.631
30528W        W95755  33.117  23.047  14.365
30529W        W95756   1.242  41.807   2.706
30530W        W95757   5.792  23.005  14.967
30531W        W95758  26.083  37.330   4.052
30532W        W95759   6.083  40.426   2.164
30533W        W95760  33.756  12.583  11.675
30534W        W95761  10.328   4.476  12.417
30535W        W95762  12.606   4.209   3.790
30536W        W95763   9.758   5.459  11.980
30537W        W95764  39.805  20.138   0.415
30538W        W95765  25.607  30.430   3.806
30539W        W95766   6.632  37.978  13.104
30540W        W95767   4.935   6.897   4.209
30541W        W95768  19.047  43.264  10.728
30542W        W95769  25.256  28.354   3.086
30543W        W95770   8.677  42.386  10.976
30544W        W95771  44.430  22.919   0.009
30545W        W95772  34.462  16.310  13.327
30546W        W95773  21.218  36.827   1.878
30547W        W95774  39.443  29.596  11.474
30548W        W95775  31.048  43.232  12.054
30549W        W95776  36.372  27.610   0.576
30550W        W95777  30.234  17.396   4.415
30551W        W95778  33.793  10.443  14.192
30552W        W95779  18.587  29.022  11.317
30553W        W95780  23.276  22.505  12.647
30554W        W95781  44.139  14.601   4.861
30555W        W95782  33.468  34.417  13.365
30556W        W95783  34.859   3.341  12.987
30557W        W95784  23.291  12.262  13.566
30558W        W95785  24.023  37.591   0.902
30559W        W95786  27.609  43.645  12.479
30560W        W95787  43.001  34.038  12.353
30561W        W95788  37.804   4.805  12.074
30562W        W95789  24.236  17.850   2.119
30563W        W95790  20.098  27.096  14.433
30564W        W95791  23.837  30.739  12.503
30565W        W95792  29.203  20.087  12.508
30566W        W95793  44.923   2.977  14.759
30567W        W95794  40.008  14.373  11.542
30568W        W95795  35.909  36.278  13.863
30569W        W95796  10.722  22.775  13.042
30570W        W95797  43.006   7.373   3.576
30571W        W95798  37.478  42.799   1.885
30572W        W95799   3.825  28.776  13.447
30573W        W95800   1.893   4.447  11.171
30574W        W95801  30.873   4.149   2.366
30575W        W95802  23.002   7.942   2.729
30576W        W95803  18.607  30.358   0.122
30577W        W95804  23.014   2.898  11.590
30578W        W95805   9.826  34.480   1.934
30579W        W95806  34.962   4.468   2.146
30580W        W95807  31.884   2.287  14.125
30581W        W95808  37.928  10.160   2.068
30582W        W95809  36.699  37.149   4.210
30583W        W95810  28.963  14.523   4.144
30584W        W95811  28.633  37.031  11.465
30585W        W95812   2.436   9.524   0.251
30586W        W95813   1.462  43.407   0.007
30587W        W95814   1.478  22.324   4.035
30588W        W95815  35.578  23.143   3.218
30589W        W95816  26.010  28.485  13.404
30590W        W95817  44.882  32.234   3.619
30591W        W95818  25.585  11.572   3.831
30592W        W95819  13.725  33.305   2.615
30593W        W95820  37.203  32.124  13.102
30594W        W95821  14.198  15.842  10.766
30595W        W95822   1.501  21.673  13.505
30596W        W95823  23.650  22.752   4.272
30597W        W95824  16.020  10.208   5.124
30598W        W95825  35.538   1.714  11.015
30599W        W95826   0.596  33.618   4.471
30600W        W95827  14.839   0.353  10.737
30601W        W95828   4.767  16.178   4.425
30602W        W95829  43.930  38.005  11.089
30603W        W95830  38.324  15.729   2.833
30604W        W95831  22.694   9.156   4.335
30605W        W95832  36.271  43.936   1.386
30606W        W95833  24.797  21.412  12.130
30607W        W95834  36.962  39.901  14.879
30608W        W95835  19.973  39.337  13.624
30609W        W95836  11.136  31.054  11.070
30610W        W95837  18.484  37.605   3.166
30611W        W95838  14.029  38.243   3.568
30612W        W95839  39.459  41.569  11.220
30613W        W95840  32.672  29.735   3.339
30614W        W95841  17.118  26.475   0.692
30615W        W95842  35.145   2.942  13.914
30616W        W95843  31.195  28.553   0.775
30617W        W95844  16.321  41.504  14.486
30618W        W95845  44.453   5.399  13.894
30619W        W95846  35.543  26.079  14.018
30620W        W95847  13.190  37.330   4.007
30621W        W95848  21.776  26.824  11.868
30622W        W95849  32.388   9.637   0.381
30623W        W95850   6.037  28.693   4.264
30624W        W95851  14.163  39.321  13.084
30625W        W95852  44.383  32.953   2.899
30626W        W95853  40.545   1.005   5.105
30627W        W95854  26.670   2.910   3.779
30628W        W95855   7.787  21.670   4.681
30629W        W95856   3.471  14.203  14.529
30630W        W95857  19.958  30.545   0.823
30631W        W95858  37.232  22.145   1.084
30632W        W95859  28.447  29.895  14.922
30633W        W95860  37.275  10.104   2.356
30634W        W95861  33.050  26.087   3.295
30635W        W95862  44.725  22.298  11.735
30636W        W95863  12.715  25.718   3.694
30637W        W95864   2.300  13.771   4.286
30638W        W95865  15.745  39.714   0.375
30639W        W95866  14.301  12.166   1.830
30640W        W95867   9.138  24.431  11.136
30641W        W95868   5.671  15.139  13.327
30642W        W95869  34.990  10.268   0.474
30643W        W95870  31.113  36.184  13.767
30644W        W95871  38.368  36.160   0.876
30645W        W95872  35.864  29.225   1.866
30646W        W95873  17.749   0.137   1.409
30647W        W95874  24.103  40.872  12.429
30648W        W95875  35.876  24.722   0.390
30649W        W95876  26.754  16.718  14.021
30650W        W95877  31.981  32.282  14.219
30651W        W95878  21.554  44.774  13.435
30652W        W95879  27.561   7.266  13.064
30653W        W95880  39.886  40.283   2.288
30654W        W95881  35.054  37.114   3.636
30655W        W95882  39.568   1.574  13.483
30656W        W95883  41.643  22.515   0.244
30657W        W95884   5.902  41.223  12.475
30658W        W95885  26.967   4.688   4.697
30659W        W95886  21.552   9.881   1.309
30660W        W95887  42.364  44.230   3.256
30661W        W95888   2.125   7.613   5.021
30662W        W95889  22.950  39.562   0.302
30663W        W95890  37.581  21.191  10.048
30664W        W95891  26.202  33.637   0.554
30665W        W95892   9.364   7.095  14.537
30666W        W95893  38.573  33.392  11.503
30667W        W95894  43.838  21.779  11.930
30668W        W95895  26.082  18.199  13.224
30669W        W95896  15.213  44.421  12.577
30670W        W95897  11.684  26.547  10.682
30671W        W95898  30.208   9.739   9.715
30672W        W95899   3.223  40.327  14.107
30673W        W95900  21.647   9.914  13.567
30674W        W95901  23.105  12.356   1.735
30675W        W95902   5.038  34.718   1.926
30676W        W95903   9.824  20.477   1.690
30677W        W95904  39.234  36.000   0.444
30678W        W95905  12.844  24.620  11.067
30679W        W95906   0.008  10.579  13.330
30680W        W95907  35.654  20.300   1.689
30681W        W95908  39.422  44.194   3.613
30682W        W95909  38.811  23.710  11.239
30683W        W95910  16.202  35.533  14.409
30684W        W95911  29.082  16.810  10.616
30685W        W95912  39.244   6.921  11.327
30686W        W95913  15.786  18.529  12.766
30687W        W95914  20.625  40.950  11.023
30688W        W95915  30.460  43.478   4.722
30689W        W95916  39.982  31.477   3.610
30690W        W95917   5.450  41.726   3.728
30691W        W95918   1.285  38.312  14.032
30692W        W95919  16.317  26.887   0.808
30693W        W95920   4.866  15.034   0.430
30694W        W95921   7.141  26.879  14.540
30695W        W95922  12.419  35.543  12.988
30696W        W95923  30.741  13.719   0.457
30697W        W95924  26.556   4.912  14.509
30698W        W95925  34.003  25.068   0.129
30699W        W95926   8.170  27.061   2.360
30700W        W95927   0.206   7.690  11.472
30701W        W95928  18.504  11.106   0.255
30702W        W95929  44.393  30.135   2.330
30703W        W95930  30.922   4.941   3.385
30704W        W95931  31.954   5.781  12.806
30705W        W95932  42.642  12.258   4.676
30706W        W95933  22.711   3.307   3.735
30707W        W95934  12.107   4.830   0.296
30708W        W95935  17.388  39.911  14.100
30709W        W95936  17.167   6.756  10.592
30710W        W95937  18.763  11.367  13.926
30711W        W95938  15.402  16.985  11.023
30712W        W95939   2.789  20.663  14.908
30713W        W95940  27.016  24.079   2.088
30714W        W95941  42.831   0.935  10.797
30715W        W95942  30.677   8.468   1.692
30716W        W95943  33.522   9.862  10.796
30717W        W95944  30.859  24.672  14.364
30718W        W95945  35.452  13.381   1.219
30719W        W95946  27.152  42.916  11.600
30720W        W95947  29.675  44.371  12.639
30721W        W95948   7.267   2.932  14.885
30722W        W95949  22.506  22.690  12.988
30723W        W95950  18.087  23.267   1.413
30724W        W95951  14.197  29.586  12.000
30725W        W95952   2.376   6.027  11.271
30726W        W95953  42.717   7.201  13.958
30727W        W95954  28.187  10.252  11.568
30728W        W95955  23.030   2.860  12.962
30729W        W95956  38.079  21.063  10.790
30730W        W95957  21.939  20.225  10.947
30731W        W95958  38.885  14.958   4.046
30732W        W95959  17.400   0.126  14.306
30733W        W95960  39.889  21.520  14.966
30734W        W95961   2.339  12.272   2.782
30735W        W95962  31.455  11.277  13.022
30736W        W95963  23.656  33.896   4.756
30737W        W95964  21.571  29.278  14.898
30738W        W95965   7.935  27.115  13.498
30739W        W95966  19.480  21.601  10.688
30740W        W95967  12.782  17.193  10.936
30741W        W95968  32.508  16.078  12.628
30742W        W95969  30.749  28.683  13.552
30743W        W95970   5.399   2.979  14.934
30744W        W95971  19.701   4.257  13.336
30745W        W95972  20.292  36.130   3.612
30746W        W95973  24.061  31.095   4.566
30747W        W95974  18.502  36.277   0.285
30748W        W95975  16.040   7.403   3.481
30749W        W95976   2.890  23.714  14.444
30750W        W95977  20.313  36.963  11.161
30751W        W95978  20.873   6.453  13.925
30752W        W95979  22.028  39.308  12.500
30753W        W95980  11.810  43.515  14.881
30754W        W95981  37.056  27.868   0.866
30755W        W95982  35.530  24.687   3.659
30756W        W95983  43.935   0.422   1.385
30757W        W95984  20.170  25.369   3.667
30758W        W95985   7.277  31.008   4.829
30759W        W95986  28.352   1.975   1.771
30760W        W95987  37.420  16.257   3.691
30761W        W95988   4.830  35.978   4.660
30762W        W95989  17.284  24.989   5.210
30763W        W95990  32.136  38.988   0.351
30764W        W95991  27.695  36.236   3.948
30765W        W95992   5.890   8.181  14.046
30766W        W95993  27.356  21.068  14.066
30767W        W95994  14.772  32.341  13.619
30768W        W95995  25.483  29.002   0.067
30769W        W95996   8.241  41.575   3.643
30770W        W95997  32.411   5.279   4.696
30771W        W95998   9.255   9.919   0.245
30772W        W95999  36.322  43.774   3.954
30773W        W96000  30.222  13.303   2.321
30774W        W96001  36.127  14.102   1.481
30775W        W96002  43.209   9.762   3.365
30776W        W96003  14.620  10.480   0.164
30777W        W96004  28.664  10.747   1.806
30778W        W96005   1.605  34.634   1.403
30779W        W96006   6.345  33.593   2.199
30780W        W96007  19.130   9.210   2.800
30781W        W96008  35.567  40.332  11.526
30782W        W96009  17.481  26.635  11.612
30783W        W96010  29.900  41.337   0.846
30784W        W96011   0.808   0.338   1.325
30785W        W96012  36.971  33.478   3.080
30786W        W96013  31.965  25.003  11.663
30787W        W96014  34.474  33.954   4.490
30788W        W96015  33.615  36.507   3.189
30789W        W96016  29.482  34.860  12.892
30790W        W96017  39.370  19.560  14.541
30791W        W96018  43.797  30.306  13.895
30792W        W96019  34.603  44.942   1.863
30793W        W96020  21.251  31.883   4.870
30794W        W96021   6.374   2.836  12.885
30795W        W96022  39.804  36.793   1.963
30796W        W96023  31.067  32.678   0.715
30797W        W96024  41.823  17.581   2.869
30798W        W96025  30.834  17.375  13.861
30799W        W96026  31.569  41.825   1.929
30800W        W96027  23.771   6.805   3.217
30801W        W96028   4.417  27.620   5.452
30802W        W96029  17.127  18.101   3.724
30803W        W96030  10.578  11.279   2.676
30804W        W96031  38.378  21.705  13.365
30805W        W96032  31.126   6.262  13.588
30806W        W96033  17.643  31.459   2.651
30807W        W96034  29.686  14.489  11.027
30808W        W96035  19.827  38.466  13.258
30809W        W96036  23.677  29.092   2.588
30810W        W96037  14.998   4.172  13.793
30811W        W96038   8.422  16.390  12.248
30812W        W96039   0.185   4.870   2.309
30813W        W96040  37.969  16.524  13.529
30814W        W96041  12.725  35.818  11.070
30815W        W96042  12.026  40.047   2.321
30816W        W96043  14.817   4.780  12.061
30817W        W96044  34.586  41.994   3.345
30818W        W96045  41.356  20.279   3.234
30819W        W96046  13.828   4.821  13.355
30820W        W96047  24.720  35.452   1.232
30821W        W96048  30.984  33.677  12.294
30822W        W96049  44.564  13.521   2.179
30823W        W96050   5.809  29.449   0.192
30824W        W96051  11.309   2.686   2.612
30825W        W96052  32.532  41.968  13.500
30826W        W96053  31.935  20.401  11.138
30827W        W96054   2.172  12.800  12.066
30828W        W96055   0.547  43.819   0.304
30829W        W96056  31.407  13.899  13.913
30830W        W96057  34.170  10.194  13.940
30831W        W96058  14.796   1.994   3.152
30832W        W96059  15.274  20.997  10.676
30833W        W96060  42.695  12.704  12.580
30834W        W96061   4.438   9.885  11.418
30835W        W96062  35.828  43.068  12.991
30836W        W96063  24.158  42.000  13.095
30837W        W96064  43.734   0.400  12.629
30838W        W96065  22.263  40.973   2.410
30839W        W96066   2.375  12.233  11.101
30840W        W96067   1.850  10.854   0.164
30841W        W96068   4.720  43.526   1.348
30842W        W96069  16.069  20.826   4.074
30843W        W96070  25.903  22.560   3.768
30844W        W96071  28.158  33.156  14.969
30845W        W96072  10.755  22.118  12.316
30846W        W96073  25.873  10.571  12.104
30847W        W96074  23.576  40.915  12.362
30848W        W96075  27.926  39.226  11.517
30849W        W96076  44.871   8.277  12.184
30850W        W96077  10.234  23.024   4.837
30851W        W96078  16.345  12.804  10.964
30852W        W96079   8.527   8.689  13.980
30853W        W96080  35.911   4.012   1.275
30854W        W96081   4.444  18.969   3.714
30855W        W96082  36.829  18.148  13.838
30856W        W96083  24.687  36.964   0.933
30857W        W96084  31.914  24.092  10.711
30858W        W96085  44.821  24.684   2.725
30859W        W96086  42.961  43.363  11.681
30860W        W96087   6.977   4.166  11.240
30861W        W96088   8.861  11.971   2.830
30862W        W96089   5.151  11.288   3.277
30863W        W96090  10.380  24.419  14.703
30864W        W96091   1.014  20.763   3.284
30865W        W96092  13.304  30.133   4.017
30866W        W96093   1.863  24.139  12.975
30867W        W96094   4.190  29.450  14.444
30868W        W96095  43.112  34.430  12.055
30869W        W96096  39.394  19.063   4.507
30870W        W96097  38.310  20.818  12.852
30871W        W96098  43.982   2.114   2.049
30872W        W96099  17.626  16.795   3.618
30873W        W96100  44.472   5.440  13.352
30874W        W96101  25.901  37.888  10.751
30875W        W96102  15.198  29.126  14.037
30876W        W96103  38.903  32.000  11.238
30877W        W96104  17.576   8.704  11.653
30878W        W96105  19.022  41.987  12.848
30879W        W96106  28.882  34.610  14.770
30880W        W96107  13.810  12.311  14.663
30881W        W96108  25.459   5.290  11.099
30882W        W96109  35.577   3.692  10.974
30883W        W96110   3.860  19.834   0.010
30884W        W96111  22.700  35.418  12.502
30885W        W96112  20.590  22.127   1.342
30886W        W96113  41.913   1.603  12.226
30887W        W96114  12.824  16.543  11.059
30888W        W96115  34.991  28.971   1.947
30889W        W96116  27.444  36.308  12.354
30890W        W96117  10.192   6.206   4.131
30891W        W96118  28.691  15.433   2.145
30892W        W96119  11.641   9.432   4.326
30893W        W96120  42.474  24.249   2.839
30894W        W96121  28.504  38.176   0.922
30895W        W96122  42.550  17.316   4.511
30896W        W96123  20.778  36.945   4.063
30897W        W96124  41.315  15.355  11.041
30898W        W96125  13.129  42.309   4.167
30899W        W96126   0.435   3.888   4.233
30900W        W96127  36.280   7.367  11.566
30901W        W96128   0.073   5.554   4.275
30902W        W96129   7.853  34.875   4.681
30903W        W96130  43.062  43.785   3.077
30904W        W96131  25.343  20.188   3.687
30905W        W96132   0.963  44.053   3.591
30906W        W96133   6.472   4.404  13.766
30907W        W96134  21.795  43.748  13.572
30908W        W96135  27.182  22.215   2.069
30909W        W96136  43.252  30.234   2.330
30910W        W96137   5.757  19.140  14.338
30911W        W96138  29.599  15.056  12.489
30912W        W96139  43.301   0.978  11.956
30913W        W96140  31.603  33.662   3.218
30914W        W96141  39.842  24.649   4.141
30915W        W96142   7.236  27.157  14.070
30916W        W96143  32.332   9.380   1.281
30917W        W96144  12.491   2.318   4.373
30918W        W96145  41.142  27.115   3.219
30919W        W96146  31.211  39.802   2.785
30920W        W96147  34.079  40.816  12.023
30921W        W96148  15.804  21.984  11.132
30922W        W96149  17.715  15.807  11.963
30923W        W96150  39.093  37.491   4.612
30924W        W96151  42.883  25.908   0.918
30925W        W96152   8.899  16.523   2.267
30926W        W96153  12.266  21.514   2.916
30927W        W96154  35.826  13.152   1.714
30928W        W96155  31.861  36.469   0.319
30929W        W96156  27.170   7.869   3.369
30930W        W96157  42.374  39.567   3.865
30931W        W96158  40.479  33.041  10.860
30932W        W96159  19.112  23.191   4.080
30933W        W96160  34.358  38.809  14.401
30934W        W96161  31.058  30.677  10.570
30935W        W96162   3.977  33.047   2.142
30936W        W96163  12.491  34.680   4.128
30937W        W96164  30.146   7.437   1.165
30938W        W96165  15.080  28.667   0.366
30939W        W96166  10.794  30.251  13.797
30940W        W96167  11.707  34.075   2.697
30941W        W96168  42.441  42.850  10.303
30942W        W96169  42.077  44.862  10.893
30943W        W96170  36.122  21.080  11.561
30944W        W96171   9.967  43.569  13.032
30945W        W96172  36.639  24.975  11.575
30946W        W96173   6.342  43.775   2.685
30947W        W96174  19.293   8.139   1.277
30948W        W96175   7.134  25.371   1.560
30949W        W96176  10.716   3.464   4.780
30950W        W96177  29.059  33.359  13.534
30951W        W96178  41.527  10.251  11.171
30952W        W96179  40.747  17.131  14.920
30953W        W96180  33.624  13.074   0.320
30954W        W96181  36.099  15.208   2.147
30955W        W96182  13.321  28.881   3.696
30956W        W96183   0.010   4.376  13.852
30957W        W96184  17.582  23.536  12.268
30958W        W96185   7.292  25.743  12.481
30959W        W96186  42.529  36.900  12.575
30960W        W96187   5.471   1.695  11.781
30961W        W96188  37.825  27.501   3.307
30962W        W96189  20.889   4.352   3.594
30963W        W96190  36.029  27.244   2.075
30964W        W96191  33.521   2.103   4.568
30965W        W96192  27.495  26.604   9.731
30966W        W96193  17.455  30.900   5.026
30967W        W96194   0.223  35.896  12.525
30968W        W96195  37.506  18.439  10.403
30969W        W96196  18.518  15.908  12.974
30970W        W96197  29.412   5.640   4.550
30971W        W96198   0.353   9.982   0.816
30972W        W96199  33.526  24.160   2.726
30973W        W96200  44.475   1.506  12.464
30974W        W96201  36.892   4.869  12.447
30975W        W96202  27.619   4.137  12.552
30976W        W96203  34.632  20.223   1.941
30977W        W96204  11.398  31.637   2.794
30978W        W96205  11.436  10.586   3.597
30979W        W96206   8.847  25.804  11.266
30980W        W96207   9.268   0.920   4.549
30981W        W96208  36.730  28.053  14.972
30982W        W96209  29.317  18.472   4.062
30983W        W96210   4.079  33.349  13.995
30984W        W96211  33.023   5.260   4.302
30985W        W96212  21.316   6.172  14.229
30986W        W96213  34.694  11.900   3.777
30987W        W96214  38.900  15.674  12.096
30988W        W96215  43.121   9.827  11.582
30989W        W96216  38.274  19.562   3.697
30990W        W96217  27.693   9.154   2.186
30991W        W96218   5.943  11.147  12.985
30992W        W96219  37.396  18.271   3.908
30993W        W96220  20.014  26.921  11.903
30994W        W96221  26.001  19.576   3.800
30995W        W96222   2.917  13.443   2.192
30996W        W96223  34.412  22.151   4.538
30997W        W96224  14.175   8.317   2.339
30998W        W96225   1.272  14.255   0.843
30999W        W96226   3.961  44.942  13.310
31000W        W96227   6.692  13.797  12.038
31001W        W96228  24.704  15.614   1.333
31002W        W96229  21.289  41.313   1.271
31003W        W96230  35.498  21.267  12.847
31004W        W96231  27.560   9.650   4.525
31005W        W96232  35.979  39.426   2.072
31006W        W96233   9.183   8.164   1.265
31007W        W96234  13.438  10.605   0.382
31008W        W96235  34.169  30.731   3.729
31009W        W96236  40.079  25.524   0.263
31010W        W96237   4.944  26.476   0.374
31011W        W96238   9.107  15.249  13.445
31012W        W96239  44.711  42.795  10.986
31013W        W96240   1.956  19.613   1.771
31014W        W96241  35.786  39.325  10.033
31015W        W96242  35.444  36.866   4.863
31016W        W96243  28.838  36.804   4.495
31017W        W96244  18.026  23.255   2.753
31018W        W96245   0.229  21.380   3.618
31019W        W96246  28.448  29.920   9.946
31020W        W96247  10.779   2.734  14.530
31021W        W96248  18.623  17.311   3.153
31022W        W96249  17.420  28.308  11.841
31023W        W96250   2.146   1.790   0.519
31024W        W96251  12.846   7.227  14.484
31025W        W96252  15.069  41.504  14.503
31026W        W96253  38.623  25.633  13.931
31027W        W96254  35.729  33.474  11.459
31028W        W96255  38.865  42.941   9.800
31029W        W96256  20.964  36.757   0.415
31030W        W96257  41.819  40.586   1.809
31031W        W96258  13.639  13.866  13.016
31032W        W96259  11.312  42.877  14.050
31033W        W96260   8.702  28.394   0.714
31034W        W96261  39.592   2.787  10.933
31035W        W96262  36.883  26.903   1.490
31036W        W96263  39.393  33.322  12.017
31037W        W96264  43.155  10.112   4.222
31038W        W96265  24.144  44.649   0.778
31039W        W96266  12.857   7.606   2.296
31040W        W96267  38.347  42.296  10.699
31041W        W96268  36.265   7.842  10.783
31042W        W96269  34.730  19.626   0.882
31043W        W96270  24.718  24.790  12.078
31044W        W96271  14.021  40.258  12.850
31045W        W96272  37.620  36.035  14.707
31046W        W96273  30.923  19.011  14.877
31047W        W96274  28.131  19.649  10.838
31048W        W96275  18.261  40.137   3.272
31049W        W96276   0.245   2.120   4.974
31050W        W96277   2.727   0.806   3.673
31051W        W96278   6.402  22.322   1.120
31052W        W96279  12.129  27.653   3.796
31053W        W96280  23.965  41.465   2.444
31054W        W96281  32.346  13.269   1.690
31055W        W96282  35.321  29.588  13.895
31056W        W96283  24.656  17.028  14.121
31057W        W96284  26.718  26.141   0.690
31058W        W96285  26.559   8.195  11.091
31059W        W96286  42.887  10.792  13.484
31060W        W96287  19.113  15.732  14.879
31061W        W96288  32.506  24.545  12.887
31062W        W96289  32.511  28.396  11.688
31063W        W96290  13.655  22.832   0.396
31064W        W96291  16.145  29.454   1.326
31065W        W96292  29.223  35.351  14.462
31066W        W96293  31.096   4.401  13.462
31067W        W96294  16.867  14.739   4.626
31068W        W96295   6.693  10.007   4.875
31069W        W96296  21.710  29.538   3.794
31070W        W96297  36.857   4.020   1.349
31071W        W96298   0.283  29.713   3.648
31072W        W96299  21.659   1.903   5.444
31073W        W96300   8.479  39.808  13.027
31074W        W96301   9.772   3.523   2.192
31075W        W96302   1.443  37.394  10.476
31076W        W96303  10.150  35.290   2.520
31077W        W96304   7.881  21.632  13.290
31078W        W96305  31.854  36.141  11.198
31079W        W96306  22.632  19.111   3.304
31080W        W96307   8.094  39.122   1.214
31081W        W96308  15.549  42.724  11.139
31082W        W96309  26.023  19.500   5.413
31083W        W96310  15.650  40.238  14.405
31084W        W96311  21.778  14.367   1.397
31085W        W96312  21.451  21.122   1.023
31086W        W96313  23.797  19.279  12.565
31087W        W96314   5.703   8.674   0.307
31088W        W96315   9.601  42.442  13.257
31089W        W96316  32.847  44.169   0.860
31090W        W96317   2.553  10.668   3.242
31091W        W96318   7.333   2.928  14.049
31092W        W96319  30.153   1.365   2.402
31093W        W96320  12.828   0.378   2.278
31094W        W96321  18.361  12.085  11.128
31095W        W96322   9.026  29.972  12.623
31096W        W96323  21.686  30.462   3.861
31097W        W96324  27.085   2.943  13.456
31098W        W96325   8.870  17.613   1.645
31099W        W96326  13.901  34.794  12.450
31100W        W96327  35.168   1.792  12.511
31101W        W96328   5.749  26.684   3.829
31102W        W96329   5.335   2.218   3.883
31103W        W96330  15.812   3.028  12.678
31104W        W96331  16.841   1.880   3.182
31105W        W96332  14.592  28.492  12.180
31106W        W96333  27.970  14.330  12.874
31107W        W96334  40.015   5.010   2.333
31108W        W96335  44.364   2.825  13.967
31109W        W96336  40.374   0.725   2.589
31110W        W96337  44.044  32.646  11.119
31111W        W96338  20.562  23.261   0.834
31112W        W96339  17.592  17.907   2.741
31113W        W96340  42.855  44.453  14.978
31114W        W96341  15.276   6.193  10.652
31115W        W96342  31.689  22.567  11.145
31116W        W96343   0.837  35.383  13.099
31117W        W96344  41.032  44.442  10.376
31118W        W96345  12.780  17.621  11.222
31119W        W96346   9.118  28.627   4.722
31120W        W96347  13.687   4.743  10.845
31121W        W96348  26.472   0.813  12.371
31122W        W96349   9.122  22.126  14.144
31123W        W96350  18.520  16.237   0.503
31124W        W96351   9.692  23.180   0.745
31125W        W96352  12.813   7.878  12.184
31126W        W96353  23.273  41.480  10.606
31127W        W96354  24.720  32.500  14.031
31128W        W96355  14.665  12.136   4.873
31129W        W96356   7.727  20.609  11.906
31130W        W96357   6.800  23.967   2.673
31131W        W96358  30.961  44.469  10.622
31132W        W96359  13.223   5.880  12.827
31133W        W96360  18.757  17.744   2.484
31134W        W96361  34.079  39.397   4.266
31135W        W96362  19.741  37.545   2.755
31136W        W96363  17.574  42.989  12.615
31137W        W96364  44.020  28.728   1.238
31138W        W96365  15.600  18.032   4.570
31139W        W96366  29.052   8.409  11.174
31140W        W96367   7.652  40.002  11.590
31141W        W96368   5.768  21.744  10.490
31142W        W96369   9.231   1.067  10.309
31143W        W96370   5.748   5.277   4.727
31144W        W96371  21.171  37.329   4.091
31145W        W96372  19.758  16.068  11.101
31146W        W96373  16.576   4.295  12.040
31147W        W96374  44.769  21.184   0.899
31148W        W96375  31.924  43.600  12.200
31149W        W96376  18.016  13.941   1.457
31150W        W96377  26.591  43.607   0.249
31151W        W96378  25.532  42.786   1.075
31152W        W96379  33.410   8.262  12.479
31153W        W96380  41.889   2.228   3.751
31154W        W96381  10.893  37.579  14.381
31155W        W96382   4.222  27.665   0.868
31156W        W96383  17.818   7.297   0.759
31157W        W96384  23.528   3.374   9.936
31158W        W96385  17.765  29.084  14.967
31159W        W96386  27.778  18.356  10.999
31160W        W96387   7.850  33.513  11.777
31161W        W96388  37.314  28.813   2.948
31162W        W96389  26.564   3.027  12.189
31163W        W96390  30.104   1.280   0.801
31164W        W96391  30.561  10.307   4.047
31165W        W96392   1.801  12.431  10.634
31166W        W96393  19.669  34.945  11.515
31167W        W96394  35.893  16.850  11.974
31168W        W96395   4.965  31.936   2.333
31169W        W96396  29.396  14.890  10.903
31170W        W96397   8.319   1.520  12.460
31171W        W96398  11.403  31.144   1.920
31172W        W96399   9.263   3.365  10.643
31173W        W96400  35.848  25.391  11.670
31174W        W96401  12.862  23.240  12.972
31175W        W96402  24.607  33.314   2.661
31176W        W96403  41.837  26.963   0.964
31177W        W96404  18.303  43.458  13.598
31178W        W96405  33.096  39.939   0.038
31179W        W96406   4.172  14.117   2.611
31180W        W96407  26.584  19.574  10.617
31181W        W96408   4.396  25.998   4.899
31182W        W96409  14.302   9.353  10.800
31183W        W96410  42.421  30.527   1.468
31184W        W96411  29.389  36.059   2.715
31185W        W96412  29.512  44.321   4.714
31186W        W96413  41.536  40.733  13.801
31187W        W96414  41.628  11.692   4.026
31188W        W96415  26.057  16.705   0.421
31189W        W96416  32.487  27.232  12.885
31190W        W96417  43.148  31.791   4.479
31191W        W96418   4.192  41.961  12.063
31192W        W96419  24.976  17.020  12.107
31193W        W96420  23.466  23.175   1.382
31194W        W96421  36.430   8.065  12.680
31195W        W96422  26.513  43.339   3.586
31196W        W96423  18.137  38.716  11.102
31197W        W96424  27.275  24.041  12.075
31198W        W96425  11.386  17.055   3.656
31199W        W96426   7.180  43.317   3.651
31200W        W96427   6.662  33.061  12.890
31201W        W96428  41.994  28.409   4.628
31202W        W96429   5.340  10.312   2.197
31203W        W96430  33.348  43.249   3.811
31204W        W96431   6.597  28.141  12.809
31205W        W96432  26.985  12.624  10.653
31206W        W96433   1.393  39.242   4.799
31207W        W96434  39.589  21.296   2.370
31208W        W96435  43.172  19.589   0.927
31209W        W96436  13.853  37.413   0.903
31210W        W96437  25.714  40.281   0.913
31211W        W96438  20.022  11.742  13.526
31212W        W96439  22.087  18.244  10.942
31213W        W96440   9.970  31.643   0.899
31214W        W96441   1.856   1.448  14.204
31215W        W96442  37.322  19.692  12.450
31216W        W96443   7.921  41.921   2.810
31217W        W96444  14.281  40.958   4.107
31218W        W96445  14.703  19.878  10.375
31219W        W96446  42.128  21.567   0.285
31220W        W96447  23.913   0.946   1.773
31221W        W96448   4.889  24.735  14.745
31222W        W96449   1.391  24.978   5.095
31223W        W96450  28.819   5.412  13.511
31224W        W96451  18.172  13.053   2.358
31225W        W96452  27.594   9.657  13.165
31226W        W96453  25.994  24.254  13.312
31227W        W96454  15.232  24.034  14.365
31228W        W96455  44.973  22.676   2.205
31229W        W96456  27.632   6.183  14.054
31230W        W96457   6.362  24.073   2.924
31231W        W96458  24.582  13.049   3.915
31232W        W96459  42.569   1.363   1.847
31233W        W96460   6.916   5.550   1.334
31234W        W96461   3.462  26.622   1.410
31235W        W96462  32.259  35.813  14.032
31236W        W96463  25.203  29.208  11.581
31237W        W96464   6.967  17.083  13.338
31238W        W96465  18.350  41.444   4.515
31239W        W96466   2.330  19.727  13.360
31240W        W96467  25.540  29.917  10.722
31241W        W96468  17.058  31.625  14.508
31242W        W96469  18.305  19.239   0.828
31243W        W96470  25.126   0.802  12.620
31244W        W96471  37.006  16.317  14.365
31245W        W96472  34.115  14.298  10.763
31246W        W96473   7.860  32.486  14.881
31247W        W96474   3.869  21.811   3.759
31248W        W96475   3.450   6.523   0.337
31249W        W96476  16.168  22.502  14.473
31250W        W96477  25.647  25.209  11.920
31251W        W96478  38.770   2.952   5.396
31252W        W96479  20.961   5.748   2.472
31253W        W96480  13.130  39.563  12.820
31254W        W96481  21.936  35.315   3.241
31255W        W96482  27.540  27.966   4.414
31256W        W96483   1.823  25.609  13.988
31257W        W96484   5.710  21.127  10.630
31258W        W96485   8.345  28.525  12.449
31259W        W96486   7.655  25.241  14.821
31260W        W96487   2.774   4.296   4.576
31261W        W96488  37.930  20.305   3.572
31262W        W96489  43.603   9.460  12.126
31263W        W96490  41.314   1.887   4.699
31264W        W96491  34.207  33.605   2.364
31265W        W96492  19.671  42.283  10.669
31266W        W96493  35.741  20.883  11.876
31267W        W96494  32.658  42.512  14.726
31268W        W96495  29.090  36.347  12.073
31269W        W96496  38.832  35.516  14.273
31270W        W96497  15.069  29.876   1.738
31271W        W96498  15.486  36.845   1.334
31272W        W96499   4.222  29.926  14.250
31273W        W96500  20.686  20.466   0.292
31274W        W96501  42.340  21.300  10.863
31275W        W96502  40.012   7.802  14.733
31276W        W96503   4.415  40.947   1.308
31277W        W96504  20.741  10.650   1.921
31278W        W96505  39.093  39.311   3.664
31279W        W96506   6.290   3.901  13.587
31280W        W96507  41.353   2.444  12.245
31281W        W96508  23.277  32.444   2.007
31282W        W96509   1.438   6.870   3.168
31283W        W96510  35.627   8.431   1.384
31284W        W96511  24.536  43.894  10.560
31285W        W96512  34.960   9.400   1.823
31286W        W96513  20.602  16.773   2.271
31287W        W96514   3.185  15.087  10.668
31288W        W96515  28.019   3.573   1.510
31289W        W96516  34.567  18.558  13.533
31290W        W96517  31.949  10.744  14.906
31291W        W96518  43.017  13.153  12.466
31292W        W96519   4.303  13.669   0.480
31293W        W96520  35.412   5.409   2.205
31294W        W96521  26.637  26.599   1.616
31295W        W96522  40.409   6.922  10.312
31296W        W96523  19.283  44.640  11.511
31297W        W96524  43.356  17.067   1.133
31298W        W96525  21.262  23.668   2.392
31299W        W96526  15.840  37.990  14.008
31300W        W96527  36.283  33.167   1.306
31301W        W96528  22.647  27.795   1.003
31302W        W96529  44.811  21.410   0.243
31303W        W96530  25.508  29.631   4.294
31304W        W96531  22.074  35.944  14.019
31305W        W96532  44.042  30.834   4.126
31306W        W96533  12.092  23.015   2.693
31307W        W96534  11.241   5.632  14.455
31308W        W96535  27.525  10.980  13.919
31309W        W96536  14.589   5.179  11.151
31310W        W96537  15.723  42.820   3.675
31311W        W96538   5.659  10.286  13.033
31312W        W96539  22.118  22.628   0.372
31313W        W96540  37.551  42.688   4.093
31314W        W96541  17.494  38.516   2.876
31315W        W96542  43.741  21.267  13.319
31316W        W96543  32.313  29.516   2.669
31317W        W96544  31.465   0.713   3.088
31318W        W96545  11.159   9.083  13.046
31319W        W96546  18.798   7.245   2.769
31320W        W96547  23.170   6.829  10.428
31321W        W96548  38.415   4.679   3.709
31322W        W96549  21.897  44.428   0.699
31323W        W96550  37.162  10.738   3.188
31324W        W96551  26.448   3.887   3.552
31325W        W96552  13.619   0.991   4.621
31326W        W96553  31.211  36.186  12.487
31327W        W96554  35.901  35.139   2.655
31328W        W96555  12.577  15.752   3.708
31329W        W96556  39.953   2.558   1.284
31330W        W96557  17.488   6.264   2.329
31331W        W96558  18.697  38.407  12.599
31332W        W96559  43.570  20.286   2.724
31333W        W96560  18.965  36.423   0.453
31334W        W96561  43.875  24.599  13.486
31335W        W96562  19.622  25.218   0.278
31336W        W96563   2.464   4.572  10.056
31337W        W96564   5.319  33.974   0.095
31338W        W96565  23.662   1.982   3.831
31339W        W96566  23.059  18.023   3.610
31340W        W96567   0.751  31.627   3.321
31341W        W96568  44.756  37.703   0.084
31342W        W96569  32.851  30.659   4.963
31343W        W96570  35.380  14.311  13.435
31344W        W96571  31.373  41.514  12.443
31345W        W96572  11.112  26.981  13.292
31346W        W96573  37.032  33.826   1.722
31347W        W96574  43.884   7.202  13.179
31348W        W96575  13.791  14.821   0.493
31349W        W96576  37.777   0.717  11.803
31350W        W96577  35.970   5.967  10.213
31351W        W96578  11.866  23.046  12.099
31352W        W96579  29.773  22.397   1.356
31353W        W96580  22.884  24.252   3.297
31354W        W96581   1.896   1.894  13.826
31355W        W96582  21.787  34.958   4.335
31356W        W96583  31.650  41.411  14.303
31357W        W96584  27.588  35.877  11.659
31358W        W96585  14.709  21.066   1.038
31359W        W96586  28.042  26.899   2.206
31360W        W96587   1.213  18.144   4.230
31361W        W96588   1.927  42.309   4.724
31362W        W96589  31.417  40.616   2.874
31363W        W96590  21.533  16.897   2.393
31364W        W96591  11.672  28.706  13.000
31365W        W96592  20.263   5.369  13.862
31366W        W96593  26.153  27.664  13.868
31367W        W96594  19.747  27.536  12.460
31368W        W96595  37.825  10.769   0.911
31369W        W96596  14.292  23.753  12.826
31370W        W96597  17.862   5.321   0.241
31371W        W96598  19.760  43.330  13.310
31372W        W96599  40.166   4.862   1.323
31373W        W96600  25.139  11.506  14.059
31374W        W96601   5.316   0.353  12.310
31375W        W96602  28.348  34.779   3.239
31376W        W96603  15.242   1.986   3.435
31377W        W96604  12.713  31.665  13.075
31378W        W96605  35.001  18.019   2.230
31379W        W96606   7.727  31.470  14.859
31380W        W96607   1.348   0.889  13.135
31381W        W96608  41.388  16.283   2.795
31382W        W96609  24.714  27.811   0.358
31383W        W96610  41.564   6.777   4.574
31384W        W96611   9.740  13.133  13.867
31385W        W96612  44.455  43.137   0.835
31386W        W96613   5.791  44.474   2.159
31387W        W96614  40.365  28.674  13.803
31388W        W96615   0.855  34.162  12.073
31389W        W96616  42.456  37.118   0.392
31390W        W96617  14.701  31.708  10.713
31391W        W96618  14.747  19.287   1.252
31392W        W96619  10.075  11.292   4.196
31393W        W96620  11.271  15.489  12.949
31394W        W96621  18.626   3.461   0.772
31395W        W96622  43.437  43.075  13.146
31396W        W96623  31.708  14.673   3.181
31397W        W96624  10.223  21.869   2.178
31398W        W96625  14.933  29.555   4.134
31399W        W96626  43.445  27.612  13.306
31400W        W96627  18.999   7.082   0.332
31401W        W96628  31.140  17.819   2.129
31402W        W96629   8.091  26.136  10.783
31403W        W96630  20.514   3.052   5.030
31404W        W96631  19.332  13.495   4.249
31405W        W96632  36.879   3.961   3.151
31406W        W96633  12.089  29.512   2.854
31407W        W96634   7.718  31.577   4.283
31408W        W96635  31.196  11.200  12.176
31409W        W96636   6.832  34.348   1.408
31410W        W96637  44.021   6.935   0.204
31411W        W96638  19.581  19.111   4.994
31412W        W96639   7.800  38.526   2.385
31413W        W96640  21.691  42.058  14.809
31414W        W96641  42.481  27.396   1.625
31415W        W96642  34.541  21.966   1.824
31416W        W96643  24.719  10.340   2.775
31417W        W96644  40.827  18.840   2.771
31418W        W96645  19.569   5.674   2.384
31419W        W96646  35.410   4.731  10.415
31420W        W96647  24.644  13.303   1.782
31421W        W96648  36.743  32.337   0.766
31422W        W96649  44.975   5.394  13.946
31423W        W96650  33.035  19.574  13.939
31424W        W96651  32.876  37.620  12.263
31425W        W96652  16.585   4.350  13.893
31426W        W96653  13.849  21.482  11.925
31427W        W96654   9.771  12.292   1.453
31428W        W96655   9.150   4.359   1.740
31429W        W96656  13.319   8.476  11.776
31430W        W96657  37.352  18.546  12.013
31431W        W96658  16.257  17.691   0.465
31432W        W96659  11.656  34.016   4.605
31433W        W96660   8.676  23.111  11.983
31434W        W96661  24.342  28.743   4.783
31435W        W96662  44.799  34.120   2.919
31436W        W96663  43.194  37.937  13.831
31437W        W96664  42.049  12.290   0.019
31438W        W96665  32.127  12.275   0.421
31439W        W96666   4.176   4.821  10.985
31440W        W96667  35.320   0.940  13.892
31441W        W96668  30.903  34.495  13.908
31442W        W96669   8.129  28.043  13.379
31443W        W96670   7.740   6.145   5.248
31444W        W96671   3.697  43.918  12.973
31445W        W96672   7.300  33.477  11.603
31446W        W96673   5.144  36.822   1.791
31447W        W96674  22.015  14.329   0.939
31448W        W96675   5.893  32.073   0.828
31449W        W96676   2.898  17.197  13.839
31450W        W96677  23.884   1.196  12.988
31451W        W96678  23.610  30.927  13.774
31452W        W96679  18.065  11.907  14.283
31453W        W96680  24.312   2.434   4.865
31454W        W96681  15.138  15.240   0.158
31455W        W96682  15.748  43.521  13.918
31456W        W96683  24.495  43.246   2.156
31457W        W96684  29.105  15.539  13.311
31458W        W96685  13.603   8.922  12.313
31459W        W96686  17.726  34.192  13.109
31460W        W96687  21.266  32.957  14.276
31461W        W96688  42.256  28.540  13.772
31462W        W96689   6.795  41.401   4.842
31463W        W96690  10.352  21.922  14.885
31464W        W96691  39.513  41.346  10.761
31465W        W96692  34.817  24.203   4.508
31466W        W96693  38.348   5.877   3.399
31467W        W96694  37.488  20.995  14.808
31468W        W96695  29.812  23.474  12.882
31469W        W96696  23.420  36.566   2.275
31470W        W96697   9.929  43.195  11.437
31471W        W96698  34.795  30.048   3.574
31472W        W96699  35.810  22.809   4.946
31473W        W96700  20.305  25.978   2.822
31474W        W96701   7.662  39.890  10.697
31475W        W96702  35.873  21.120   4.573
31476W        W96703  13.419  23.633   2.349
31477W        W96704   2.748  24.892   1.391
31478W        W96705   0.475  36.959   4.067
31479W        W96706   0.927   7.438   3.829
31480W        W96707  43.805   0.395   1.901
31481W        W96708  27.423  23.615  10.835
31482W        W96709  16.601  20.511  13.339
31483W        W96710  12.221  19.904  14.869
31484W        W96711   0.144   3.869  13.061
31485W        W96712   9.262  12.507   1.669
31486W        W96713  13.864  25.901   2.371
31487W        W96714  29.972   3.026  14.002
31488W        W96715   1.348  35.434  14.923
31489W        W96716  39.385  24.898  12.911
31490W        W96717   6.130  22.916  11.615
31491W        W96718  40.424  10.909   4.388
31492W        W96719  33.520  10.793   3.736
31493W        W96720  19.236  36.321   4.603
31494W        W96721  36.463  30.572  14.806
31495W        W96722  27.363  41.059   2.274
31496W        W96723  25.931  37.463  11.081
31497W        W96724  12.856  32.709   3.468
31498W        W96725  25.517   5.292   2.011
31499W        W96726  32.249  40.012   4.068
31500W        W96727  25.078   5.339   1.692
31501W        W96728  16.447  23.676   3.521
31502W        W96729  31.112  27.873  12.449
31503W        W96730   7.173  25.856   2.918
31504W        W96731  23.541  43.850  14.746
31505W        W96732   9.339  37.050   4.528
31506W        W96733  20.746   2.149   2.937
31507W        W96734  20.938   3.253   4.406
31508W        W96735  18.225  21.969   2.467
31509W        W96736  42.160  24.533   2.019
31510W        W96737  33.912  22.797  11.185
31511W        W96738   0.174  19.426  13.929
31512W        W96739  25.962   0.278  11.643
31513W        W96740   1.814  11.750  14.086
31514W        W96741  43.428  31.099  11.609
31515W        W96742  19.298   1.860   0.221
31516W        W96743  41.483  14.236   2.245
31517W        W96744   3.817  10.626  13.532
31518W        W96745  34.605  19.058  13.424
31519W        W96746  18.364  10.624   2.977
31520W        W96747  41.639  29.480  11.570
31521W        W96748  35.755  11.129   3.602
31522W        W96749  44.765  37.076  10.438
31523W        W96750  19.937   7.615  10.456
31524W        W96751  32.596  34.470   4.556
31525W        W96752  34.348  24.723  13.459
31526W        W96753  12.741   1.995   2.330
31527W        W96754  29.824  44.230   1.848
31528W        W96755  24.926  19.583   1.632
31529W        W96756   9.134  21.521   0.799
31530W        W96757  18.545  34.511  11.247
31531W        W96758   6.840   5.349   2.452
31532W        W96759  29.033  17.629  13.428
31533W        W96760  14.468  39.164   2.610
31534W        W96761  22.283   0.557  13.430
31535W        W96762  30.243   0.333   4.644
31536W        W96763  41.082  33.089   4.890
31537W        W96764  44.274  44.977  12.903
31538W        W96765  15.302  32.639   3.214
31539W        W96766   8.920  15.770   0.280
31540W        W96767  24.698  35.456  11.968
31541W        W96768  21.538  43.561   3.631
31542W        W96769  24.905  32.115   0.697
31543W        W96770   5.730  40.626   0.361
31544W        W96771   4.745   0.216   2.683
31545W        W96772  40.618  34.553   1.919
31546W        W96773  10.847  26.640   4.256
31547W        W96774  17.703  17.863  14.065
31548W        W96775  44.698   3.127  11.477
31549W        W96776  34.209  11.394  13.600
31550W        W96777  19.981  12.052   1.347
31551W        W96778  32.520   8.588  11.261
31552W        W96779  24.061  23.982   4.657
31553W        W96780   8.338   8.701   4.638
31554W        W96781  19.470  24.679  12.143
31555W        W96782  39.348   0.005  13.827
31556W        W96783  29.365   5.877  13.228
31557W        W96784  30.462  27.666   2.535
31558W        W96785   3.700  20.768   2.766
31559W        W96786  41.080   6.784   2.586
31560W        W96787  24.228   9.910   0.705
31561W        W96788  26.000  37.619   4.462
31562W        W96789  21.590  37.634   3.298
31563W        W96790  21.696  41.843   0.306
31564W        W96791  21.879  14.764  12.457
31565W        W96792  24.641  18.552  11.555
31566W        W96793   4.505  36.327   2.761
31567W        W96794  42.869  13.754   0.456
31568W        W96795  34.816  39.429   0.032
31569W        W96796  12.426  31.104   5.499
31570W        W96797  41.412  37.375   4.876
31571W        W96798  33.625  20.844  14.886
31572W        W96799  23.163  43.460  12.539
31573W        W96800  25.134  12.847  12.750
31574W        W96801  22.787   5.807   0.198
31575W        W96802  44.791  17.198   0.776
31576W        W96803  43.408  38.517  13.538
31577W        W96804   6.199  33.402  11.028
31578W        W96805  40.367   2.478  13.147
31579W        W96806  44.201   1.690  13.341
31580W        W96807  30.839  17.620  14.828
31581W        W96808  42.753  37.602  14.340
31582W        W96809  37.568   8.069   2.338
31583W        W96810   5.307  14.886   1.718
31584W        W96811   3.972  12.218  13.348
31585W        W96812  17.277   3.776   3.990
31586W        W96813  24.349  24.917  13.545
31587W        W96814  23.271  16.160  13.399
31588W        W96815  11.743   8.270  14.901
31589W        W96816  36.650  30.223  14.444
31590W        W96817  41.633  27.587  14.049
31591W        W96818  44.352  25.708   0.860
31592W        W96819   3.351  22.008   1.227
31593W        W96820  19.379  30.273   3.709
31594W        W96821  19.857   9.603  12.469
31595W        W96822  41.088  25.038  13.033
31596W        W96823  24.514  44.745   1.526
31597W        W96824  14.398   3.321   5.099
31598W        W96825   3.480  39.398   2.249
31599W        W96826  39.942  40.554  14.932
31600W        W96827  34.679  32.034   4.219
31601W        W96828  30.431  16.991  11.074
31602W        W96829  12.336  20.300   0.188
31603W        W96830  36.975  13.063   3.901
31604W        W96831  24.978  14.646   1.575
31605W        W96832  14.236  14.971   2.229
31606W        W96833   1.754  43.202   0.534
31607W        W96834  41.839  36.239   1.173
31608W        W96835  31.175  12.871   4.057
31609W        W96836   7.682  28.121   0.059
31610W        W96837  39.438  13.872   3.651
31611W        W96838  15.805  29.410  13.943
31612W        W96839  33.778  10.780  12.249
31613W        W96840  19.045  24.288   0.910
31614W        W96841  38.387  34.043  14.057
31615W        W96842  42.556   5.333   4.551
31616W        W96843  13.549  43.210  10.457
31617W        W96844   2.918  38.493  10.582
31618W        W96845  42.337   7.892  13.558
31619W        W96846  10.834  25.491   0.925
31620W        W96847  22.550  15.391  12.228
31621W        W96848   7.617  35.175   4.309
31622W        W96849  41.949  17.392  13.194
31623W        W96850  40.899  31.953   1.291
31624W        W96851  11.863  44.466  11.638
31625W        W96852  28.073  11.822  12.510
31626W        W96853  23.206  34.249  10.843
31627W        W96854  34.699  19.773  11.371
31628W        W96855  20.120  43.925  11.103
31629W        W96856  28.492  38.382   1.780
31630W        W96857  27.692   9.952  13.618
31631W        W96858  29.149  16.481  14.834
31632W        W96859  36.837  14.136  11.232
31633W        W96860  43.086  32.361   4.496
31634W        W96861   9.461  34.915  14.822
31635W        W96862  38.375  25.159  13.783
31636W        W96863   9.188  27.623  10.795
31637W        W96864  13.305  42.350  11.443
31638W        W96865  44.669  30.607   4.843
31639W        W96866  32.848   7.367  12.854
31640W        W96867  32.562  29.565   4.253
31641W        W96868  35.767   5.913  13.838
31642W        W96869   6.436   2.698  11.197
31643W        W96870  34.610   0.026  12.484
31644W        W96871  20.053  10.955  14.020
31645W        W96872  39.016  33.951  13.332
31646W        W96873   2.433   4.883  11.290
31647W        W96874  15.697  37.847  13.529
31648W        W96875  20.044  31.213  13.820
31649W        W96876  24.102  42.067   0.372
31650W        W96877  42.332  39.238   4.783
31651W        W96878   8.580  28.205   3.929
31652W        W96879   6.818  42.518  13.024
31653W        W96880  33.754  40.129  11.670
31654W        W96881  11.798  19.254  12.158
31655W        W96882  12.802  34.515   3.351
31656W        W96883  32.736  30.548   1.895
31657W        W96884   9.587  32.292  10.755
31658W        W96885   9.496  18.766   3.335
31659W        W96886  15.778  26.137   2.763
31660W        W96887  37.305   2.824   2.721
31661W        W96888   4.917  18.067   2.268
31662W        W96889  40.052  18.524  12.104
31663W        W96890  17.738   3.090   4.962
31664W        W96891  16.301  16.979   2.747
31665W        W96892   4.125  38.628  11.056
31666W        W96893  43.551  13.123  11.294
31667W        W96894   5.870  36.997  13.438
31668W        W96895   0.352  32.918   3.934
31669W        W96896   3.976  16.685  12.543
31670W        W96897  26.595   2.736  13.146
31671W        W96898  38.311  34.297   4.555
31672W        W96899  38.634  37.919  13.428
31673W        W96900  20.208  29.911   4.633
31674W        W96901  28.621   3.050   0.951
31675W        W96902  22.574  14.823   3.942
31676W        W96903  12.710  28.527   4.598
31677W        W96904  44.969   1.059  14.314
31678W        W96905  10.866  37.352  10.866
31679W        W96906  13.283   7.097  14.226
31680W        W96907   8.466  35.898   2.776
31681W        W96908  38.270  12.122  12.068
31682W        W96909  26.955  32.948  10.297
31683W        W96910  17.390  41.918  10.784
31684W        W96911  18.272  11.772  10.712
31685W        W96912  32.566  15.565   2.278
31686W        W96913  38.387  42.816   3.639
31687W        W96914  31.793  33.418   1.699
31688W        W96915  21.125   6.811   3.712
31689W        W96916  42.879   9.137   1.776
31690W        W96917  29.492   4.358  10.882
31691W        W96918  22.294   9.861  11.651
31692W        W96919   7.932   0.257  14.869
31693W        W96920  10.179  10.931   2.642
31694W        W96921   0.820  35.435  14.824
31695W        W96922  39.049  24.172  14.964
31696W        W96923   8.797  14.324   1.750
31697W        W96924  12.201   6.704   4.920
31698W        W96925  24.109  11.886   2.360
31699W        W96926  21.556  32.124   1.287
31700W        W96927   3.269  19.752  14.436
31701W        W96928  22.719   8.222   1.225
31702W        W96929   2.782  27.546  14.836
31703W        W96930   6.101  37.718  10.675
31704W        W96931  37.998  31.906  14.809
31705W        W96932  43.804  25.480   3.074
31706W        W96933  40.789  32.637   4.287
31707W        W96934  21.904  15.239   0.951
31708W        W96935   3.068  28.491   0.432
31709W        W96936  43.300   7.572   9.796
31710W        W96937  39.301  11.690  10.501
31711W        W96938  22.004  42.536   3.172
31712W        W96939   2.897  44.844   1.443
31713W        W96940  17.223  41.699   1.133
31714W        W96941  26.914  25.526  12.904
31715W        W96942  35.275  38.361   0.012
31716W        W96943   0.164  21.884  10.688
31717W        W96944  34.445   1.986  14.245
31718W        W96945  22.624  43.798   2.359
31719W        W96946   8.759  12.075  13.552
31720W        W96947  41.446  20.845   4.444
31721W        W96948  38.705  16.714   3.231
31722W        W96949  16.844  14.537   1.077
31723W        W96950  34.468   2.739  10.717
31724W        W96951   9.900   6.400  11.480
31725W        W96952   6.907  43.394   3.225
31726W        W96953  21.523  24.609   1.278
31727W        W96954  17.326  24.439  12.484
31728W        W96955  43.396   0.016   4.634
31729W        W96956   0.120  21.789  11.195
31730W        W96957  12.205  26.497  10.824
31731W        W96958  19.292  36.979   3.213
31732W        W96959  32.862   4.082   2.412
31733W        W96960  28.742  33.011   3.184
31734W        W96961  31.667   6.827  12.016
31735W        W96962  39.780   1.426   2.254
31736W        W96963  17.216  18.295  14.835
31737W        W96964  42.881  17.029   2.265
31738W        W96965  12.719  44.936  12.840
31739W        W96966  22.613  27.427  11.841
31740W        W96967   5.922  13.888  10.765
31741W        W96968  16.680  13.386  14.282
31742W        W96969   3.897   1.951  12.098
31743W        W96970  21.679   2.175   2.776
31744W        W96971  40.029  17.484  11.003
31745W        W96972  26.164  16.370  14.903
31746W        W96973  28.515  34.977  10.756
31747W        W96974   4.156  40.465  12.413
31748W        W96975   2.675   9.796   1.503
31749W        W96976  10.873  43.021  13.360
31750W        W96977  38.914  36.951  12.009
31751W        W96978  26.049  42.472  12.378
31752W        W96979   9.712  20.128   3.878
31753W        W96980  17.842  12.181  11.105
31754W        W96981  33.946   5.015   2.849
31755W        W96982  34.882  28.032   2.278
31756W        W96983  16.309  25.675   1.287
31757W        W96984   8.237  36.620   3.197
31758W        W96985  34.374  22.259   4.031
31759W        W96986  44.013   5.968  14.994
31760W        W96987  10.539  32.190  10.180
31761W        W96988  16.588   3.475  11.659
31762W        W96989  28.016  26.984  13.118
31763W        W96990  22.038  16.175  14.059
31764W        W96991  26.579  20.072  13.127
31765W        W96992  43.849  37.470  12.564
31766W        W96993  35.903  14.109  14.871
31767W        W96994   0.418   8.908   3.293
31768W        W96995  27.655  40.708  13.005
31769W        W96996  27.287   0.958   1.835
31770W        W96997  14.687  33.497  13.624
31771W        W96998  42.574  31.049   3.641
31772W        W96999  17.630   4.527  13.787
31773W        W97000  29.229   4.078   1.592
31774W        W97001  33.492  42.818   4.030
31775W        W97002  30.211  25.240  13.243
31776W        W97003  34.440  31.175   0.690
31777W        W97004  20.244  26.408   4.468
31778W        W97005  22.380  33.857  11.239
31779W        W97006  42.696  13.788   0.962
31780W        W97007   8.015   4.487  12.468
31781W        W97008   3.007  37.187  11.625
31782W        W97009  39.003  15.627  13.631
31783W        W97010  34.494  15.402  13.662
31784W        W97011  34.967  19.477  10.108
31785W        W97012   6.844  28.559  13.047
31786W        W97013  34.783  18.083  13.902
31787W        W97014  39.449   8.182   0.227
31788W        W97015  43.323  22.206   3.523
31789W        W97016  24.488  38.442  12.593
31790W        W97017  33.570  44.078   3.621
31791W        W97018  23.461  34.908  13.024
31792W        W97019   3.863  31.459  13.973
31793W        W97020  17.775  35.417  10.563
31794W        W97021  21.158  27.585   0.007
31795W        W97022  22.376  27.637  14.272
31796W        W97023  43.881  15.304  11.974
31797W        W97024  32.563   8.880  14.985
31798W        W97025  42.077  44.770  11.388
31799W        W97026  27.725  16.145  11.129
31800W        W97027  22.265  44.873   3.666
31801W        W97028   6.738  31.347   0.184
31802W        W97029  16.367  14.608   3.385
31803W        W97030  19.910  30.714   2.414
31804W        W97031   6.068  35.528  13.630
31805W        W97032   0.927  22.343  12.956
31806W        W97033  31.888  36.300   0.806
31807W        W97034  32.692  42.312   1.735
31808W        W97035  37.539  13.148  12.877
31809W        W97036  23.954  13.118   1.011
31810W        W97037  24.319   1.982   4.578
31811W        W97038  10.280  25.534   1.610
31812W        W97039  25.231  39.375   1.128
31813W        W97040  12.061   3.965  14.380
31814W        W97041  16.780   1.914  14.555
31815W        W97042  21.138  33.447  11.193
31816W        W97043  13.686  38.017  14.809
31817W        W97044  34.847  27.429   4.432
31818W        W97045  21.491  39.416  10.686
31819W        W97046  36.878  31.876  14.849
31820W        W97047   3.432   6.143  13.701
31821W        W97048  17.735   1.945  12.915
31822W        W97049  25.498  41.060   1.744
31823W        W97050  35.305  42.423  13.450
31824W        W97051  34.092   3.224   0.148
31825W        W97052  42.283  23.699  13.926
31826W        W97053  18.873  30.019  14.860
31827W        W97054  39.528  33.531   3.714
31828W        W97055  22.557  17.527   0.718
31829W        W97056  27.132  21.982   0.192
31830W        W97057  35.740  12.159   4.503
31831W        W97058  40.925   2.982  11.030
31832W        W97059  13.792  13.118  10.976
31833W        W97060  32.514  28.701  14.428
31834W        W97061  10.248   2.770  10.948
31835W        W97062  10.848  28.500   0.825
31836W        W97063  31.866  33.223   0.240
31837W        W97064  20.074  12.183   4.890
31838W        W97065  29.586  40.506  10.578
31839W        W97066   9.925  22.522  13.369
31840W        W97067  28.989  26.029  11.197
31841W        W97068   3.630  35.815  14.460
31842W        W97069   7.316  26.126   4.215
31843W        W97070  37.074  16.824  14.774
31844W        W97071  27.107   3.196   3.139
31845W        W97072  36.121  11.669   2.778
31846W        W97073  22.619  23.069  10.306
31847W        W97074  27.480   6.885   0.725
31848W        W97075  31.106  28.339  14.356
31849W        W97076  21.989  21.723  10.395
31850W        W97077   3.649  42.238  14.984
31851W        W97078  42.404   3.325   1.504
31852W        W97079  27.456   1.906   1.840
31853W        W97080  37.244  21.687  11.714
31854W        W97081  39.399  42.759   5.074
31855W        W97082  39.393  15.261  10.560
31856W        W97083  12.833   1.932   4.586
31857W        W97084  12.472  37.221  12.498
31858W        W97085  32.506  43.843  10.898
31859W        W97086  44.431  34.748   2.334
31860W        W97087   4.182  23.101  14.891
31861W        W97088  32.933  30.278   0.903
31862W        W97089  23.487  10.738  10.868
31863W        W97090  41.430  22.621  13.335
31864W        W97091  27.722   5.966   1.710
31865W        W97092  24.736  24.283   1.348
31866W        W97093  38.695   8.802   0.307
31867W        W97094  20.783   0.413   2.330
31868W        W97095  40.435  31.933   1.009
31869W        W97096  29.219  28.589   1.157
31870W        W97097  22.703  16.676   3.581
31871W        W97098   9.972  16.081   0.994
31872W        W97099  13.666  24.553   4.272
31873W        W97100  14.833  41.444  11.230
31874W        W97101  14.617  42.420   0.733
31875W        W97102  19.743   9.141  13.887
31876W        W97103   1.437   5.082   0.035
31877W        W97104  34.369  27.115  11.850
31878W        W97105  33.370  11.808  12.578
31879W        W97106  32.116  18.997  11.599
31880W        W97107  23.655  26.512   4.508
31881W        W97108  16.790  10.683   2.183
31882W        W97109  12.700  33.000  14.054
31883W        W97110   5.950  30.944   4.712
31884W        W97111   7.167  38.371   3.116
31885W        W97112  11.755  10.197   2.505
31886W        W97113  27.423  23.538   2.694
31887W        W97114  23.670  17.836  14.786
31888W        W97115  42.549  37.767   2.836
31889W        W97116  30.542  23.293   2.987
31890W        W97117  43.130  25.154  10.438
31891W        W97118  44.351  14.723   0.732
31892W        W97119  38.818  16.343   2.427
31893W        W97120   5.346  36.796   4.557
31894W        W97121  43.086  34.780   2.711
31895W        W97122  28.399  13.691   4.077
31896W        W97123  17.195  39.960   2.783
31897W        W97124  18.743  35.132  12.076
31898W        W97125  22.146  36.969  13.607
31899W        W97126   2.754   2.851  11.988
31900W        W97127  32.536  12.588  12.369
31901W        W97128   8.831  11.838  13.111
31902W        W97129  42.347  44.712   4.085
31903W        W97130   9.164  29.739   2.792
31904W        W97131  35.964  13.973  12.158
31905W        W97132  11.849  35.974   1.249
31906W        W97133  29.760  28.450   1.256
31907W        W97134  22.051  40.413   0.969
31908W        W97135   3.864  38.751  12.256
31909W        W97136   3.862   8.501   4.632
31910W        W97137  37.907   5.873   2.044
31911W        W97138  39.585  22.015   4.200
31912W        W97139  11.353  16.162   1.739
31913W        W97140   5.699  18.914   1.762
31914W        W97141  44.164  11.318  12.000
31915W        W97142  32.611  12.816  14.336
31916W        W97143   5.239  17.329  12.345
31917W        W97144  10.842   0.054   1.800
31918W        W97145  18.501  25.468  14.980
31919W        W97146  35.415  25.013   0.411
31920W        W97147  43.267  38.963  12.033
31921W        W97148  42.949   1.308   4.702
31922W        W97149  11.838  31.944   0.384
31923W        W97150   4.853  36.316  11.736
31924W        W97151   2.909  42.095   3.493
31925W        W97152   8.842  28.403   2.602
31926W        W97153  11.177  37.817  12.493
31927W        W97154  10.777  26.484  11.614
31928W        W97155  32.543  29.733  13.477
31929W        W97156  16.277  16.257  13.380
31930W        W97157  36.562  10.045   2.922
31931W        W97158  13.695  23.688   0.672
31932W        W97159  34.810   1.301  13.317
31933W        W97160   5.330  35.554   0.296
31934W        W97161   0.974  41.766  12.324
31935W        W97162  23.071   1.038   0.690
31936W        W97163  26.425  13.151   3.763
31937W        W97164  24.111  23.713   3.461
31938W        W97165  28.443   7.839  14.909
31939W        W97166  25.769  16.019  14.145
31940W        W97167  33.447  40.362  14.894
31941W        W97168  32.729  15.489   1.273
31942W        W97169  33.563   8.343  10.680
31943W        W97170  10.210   8.340   2.121
31944W        W97171  28.966  43.480  12.381
31945W        W97172  11.547  24.631  12.500
31946W        W97173  16.558   9.787   0.591
31947W        W97174  11.117   1.426   4.631
31948W        W97175  28.025  29.456   3.269
31949W        W97176  44.169  43.179   9.927
31950W        W97177  41.035  37.522  12.189
31951W        W97178  41.894  39.876  12.620
31952W        W97179  30.885  42.989   1.102
31953W        W97180  35.781  10.448   1.758
31954W        W97181  25.461  20.940  13.830
31955W        W97182  23.188  29.089   0.820
31956W        W97183   3.013   0.169   3.244
31957W        W97184  41.206  44.781  12.960
31958W        W97185  31.555  25.591  10.740
31959W        W97186  23.610   1.289  14.279
31960W        W97187  29.143   7.299   0.222
31961W        W97188  36.000  31.679   3.650
31962W        W97189   8.005  13.126   1.296
31963W        W97190  10.734  25.539  11.497
31964W        W97191  16.919  28.831   1.178
31965W        W97192  13.512  17.116  14.649
31966W        W97193  39.372   1.916   2.804
31967W        W97194  22.784  16.400   1.906
31968W        W97195  24.115   8.736  10.983
31969W        W97196  43.530  13.248  14.959
31970W        W97197  22.372  17.582   2.353
31971W        W97198  12.432  20.985   2.781
31972W        W97199  16.604  22.156  12.573
31973W        W97200  32.380  19.187  14.936
31974W        W97201   7.796  19.555   3.374
31975W        W97202  23.102  26.799   0.264
31976W        W97203  32.544  42.835   2.027
31977W        W97204  21.154   5.972   4.379
31978W        W97205   5.751  44.015   3.055
31979W        W97206   3.519  22.346   4.531
31980W        W97207  19.710  28.490   2.225
31981W        W97208  43.017  37.899  10.968
31982W        W97209  39.940  21.440   2.716
31983W        W97210  36.513  34.639  14.154
31984W        W97211   6.873   7.430  12.510
31985W        W97212  28.112  29.652   0.864
31986W        W97213  13.736  36.135  13.743
31987W        W97214  32.125   3.969  11.558
31988W        W97215  15.027   8.244   3.642
31989W        W97216  43.207  41.851  10.713
31990W        W97217  38.476  13.308  12.468
31991W        W97218  30.006  40.914   4.878
31992W        W97219  24.151  21.757   4.301
31993W        W97220   6.252  37.467  14.812
31994W        W97221   2.169  11.402  14.282
31995W        W97222  43.366   9.483  14.293
31996W        W97223   3.879  26.231   0.841
31997W        W97224   3.513  32.467  11.233
31998W        W97225   8.813  29.608  14.948
31999W        W97226  21.699  14.780  10.922
32000W        W97227  18.323   4.278  14.718
32001W        W97228  36.048  20.137   1.969
32002W        W97229  42.373  30.555  11.158
32003W        W97230  16.652  40.319  10.688
32004W        W97231  17.275  42.990   1.871
32005W        W97232  27.129  18.206  14.866
32006W        W97233  31.183  34.216  11.078
32007W        W97234  17.899  39.972  14.960
32008W        W97235  11.537  20.371  14.705
32009W        W97236  17.808   6.265  11.551
32010W        W97237  44.781   8.241  11.082
32011W        W97238  39.748  24.463   1.445
32012W        W97239  35.592  10.874   2.533
32013W        W97240  11.828  26.440   1.700
32014W        W97241  12.932   2.545   3.015
32015W        W97242  20.650  13.187   4.566
32016W        W97243   7.427  27.977  11.667
32017W        W97244  30.232  26.358   3.134
32018W        W97245  42.035  21.869   3.689
32019W        W97246   9.351   2.500  13.256
32020W        W97247  14.356  44.790  14.378
32021W        W97248  44.863  14.160  13.356
32022W        W97249  16.532  11.703  11.956
32023W        W97250  26.445  34.161  12.946
32024W        W97251   3.514  21.099  13.103
32025W        W97252  11.525  18.838   4.120
32026W        W97253  40.117  30.833  14.822
32027W        W97254   9.669  28.565   3.091
32028W        W97255  40.112  28.569  14.798
32029W        W97256  35.886   2.977   4.311
32030W        W97257   0.257  27.660  13.823
32031W        W97258  36.992  40.850   0.458
32032W        W97259  24.188  17.187   0.370
32033W        W97260  34.376  43.825  13.979
32034W        W97261  32.956  16.816  12.482
32035W        W97262  10.676  19.223  13.827
32036W        W97263   6.327   0.999  14.883
32037W        W97264   0.964  19.247   5.313
32038W        W97265  33.774   6.054  10.230
32039W        W97266   6.729  20.607   1.883
32040W        W97267  17.080  15.202   1.711
32041W        W97268  22.211  32.644  11.519
32042W        W97269   8.573  29.059   3.082
32043W        W97270  16.073  39.697  11.685
32044W        W97271  25.242  29.577   2.934
32045W        W97272   6.811  35.043  10.711
32046W        W97273  18.254  22.636   1.169
32047W        W97274  12.132  21.325   3.867
32048W        W97275  30.524   9.685   3.174
32049W        W97276  25.192  43.944  13.826
32050W        W97277  32.119   3.112   4.900
32051W        W97278   1.535  19.965   3.591
32052W        W97279  16.298  36.312   4.949
32053W        W97280  24.056   8.146  10.794
32054W        W97281   3.822  38.157   0.259
32055W        W97282  10.737  15.512   3.096
32056W        W97283  33.041  42.225   3.726
32057W        W97284  41.900  12.227   1.002
32058W        W97285  19.102  42.083   3.432
32059W        W97286  19.110  36.903   0.242
32060W        W97287   2.413  24.485  12.345
32061W        W97288   7.589   7.676  12.118
32062W        W97289  18.173  18.137   4.540
32063W        W97290  39.767  42.448   4.680
32064W        W97291  17.208  38.916   4.977
32065W        W97292  26.557  10.320   3.157
32066W        W97293  44.035  17.886   0.531
32067W        W97294  24.064   1.947   2.681
32068W        W97295   4.127  38.829   2.804
32069W        W97296  27.928  20.130  10.719
32070W        W97297  12.126  41.871   0.459
32071W        W97298  26.646  35.238   1.267
32072W        W97299  36.795  19.270   1.394
32073W        W97300  22.150  37.918  13.126
32074W        W97301  41.410  20.912  13.395
32075W        W97302  37.592  36.216  11.124
32076W        W97303  15.476  11.785  11.060
32077W        W97304  12.862  22.073   2.314
32078W        W97305  12.371  29.474   2.350
32079W        W97306   0.867  17.650  14.485
32080W        W97307  16.575  20.141   4.101
32081W        W97308  19.836  27.515  14.696
32082W        W97309  10.054  16.127   2.828
32083W        W97310  33.681  25.048   5.101
32084W        W97311  15.095   9.158  14.009
32085W        W97312  12.245  40.976   1.721
32086W        W97313  40.566  13.093   3.754
32087W        W97314  23.789  13.719   4.064
32088W        W97315  18.110  16.563  11.296
32089W        W97316   3.530  32.126  13.417
32090W        W97317  19.813  12.221  11.433
32091W        W97318  32.192  28.272   3.205
32092W        W97319   1.198  18.344  13.994
32093W        W97320  36.471  16.014   1.203
32094W        W97321  13.164   0.768   0.013
32095W        W97322  35.573   4.977   4.293
32096W        W97323   3.691  13.731  14.580
32097W        W97324   2.069  26.202   0.905
32098W        W97325   7.117  10.392  11.932
32099W        W97326  21.059  23.192   0.932
32100W        W97327  26.502  42.108   0.414
32101W        W97328  14.686  13.167   1.001
32102W        W97329   0.864  14.126  11.267
32103W        W97330  39.050  42.298  13.048
32104W        W97331   6.704  39.801  11.642
32105W        W97332  42.322  11.795  10.693
32106W        W97333   4.899  42.970  14.086
32107W        W97334  18.577  23.123   3.149
32108W        W97335  14.386   0.354   0.384
32109W        W97336  26.635  37.255  14.045
32110W        W97337  14.274  42.254   3.648
32111W        W97338  16.506  33.901  11.211
32112W        W97339  13.719  12.150   2.251
32113W        W97340  36.759  23.263  11.472
32114W        W97341  18.300  33.976  14.792
32115W        W97342  40.717  41.323   0.352
32116W        W97343  38.848  21.982   0.404
32117W        W97344  44.226  32.996  12.494
32118W        W97345   4.687  25.489   0.247
32119W        W97346  30.859  30.916   0.692
32120W        W97347  38.285  21.345  12.255
32121W        W97348   1.184  11.640  11.432
32122W        W97349  16.246  24.875  10.680
32123W        W97350  39.115  16.094  14.718
32124W        W97351  16.801  14.576  12.427
32125W        W97352  19.630  29.660   4.768
32126W        W97353  24.323  41.167   4.336
32127W        W97354  41.443  37.843  12.414
32128W        W97355  26.984  13.048   3.760
32129W        W97356  20.359  29.304  12.815
32130W        W97357  16.981  40.052  13.788
32131W        W97358  29.096  24.510  13.946
32132W        W97359   8.411  13.420  10.727
32133W        W97360  39.940   9.219  11.172
32134W        W97361   1.669   5.480  11.113
32135W        W97362  41.272  25.440  12.027
32136W        W97363   8.322  15.623  11.984
32137W        W97364  20.268  12.107  11.214
32138W        W97365   2.768  18.993   0.756
32139W        W97366  27.766  10.204   3.664
32140W        W97367  32.297  13.419  14.937
32141W        W97368  39.464  16.926   2.774
32142W        W97369   5.170   3.475   4.354
32143W        W97370  12.169  14.615  10.692
32144W        W97371  29.740  39.468  11.818
32145W        W97372  37.791  42.440  14.077
32146W        W97373  32.514  35.369  11.292
32147W        W97374   9.259  28.345  14.785
32148W        W97375  35.973  14.566   2.689
32149W        W97376  22.889  33.800  11.076
32150W        W97377  27.147  36.465   4.581
32151W        W97378  38.897  38.647  12.306
32152W        W97379  17.204  17.582   3.677
32153W        W97380   5.941  28.262  13.303
32154W        W97381  29.404  21.296  11.316
32155W        W97382   4.050  27.454   1.363
32156W        W97383   7.522  43.106  14.368
32157W        W97384   2.406   5.340   0.026
32158W        W97385   6.967  28.743  10.772
32159W        W97386  14.843  13.286  12.756
32160W        W97387   1.805  24.552  13.574
32161W        W97388  41.124  31.038   0.368
32162W        W97389  29.544  27.878  10.649
32163W        W97390  30.050   7.218   0.634
32164W        W97391  40.275  37.912   0.245
32165W        W97392  31.304  43.537   3.851
32166W        W97393  39.218  26.030  11.526
32167W        W97394  30.634   8.195   1.259
32168W        W97395  17.684  31.032  14.010
32169W        W97396  14.475  33.133  11.563
32170W        W97397  18.639  24.084   1.904
32171W        W97398  38.949  38.279   1.179
32172W        W97399   0.464  15.098  12.010
32173W        W97400  18.140  22.447   0.719
32174W        W97401   9.382  16.112  13.970
32175W        W97402  22.669  10.411  12.457
32176W        W97403  20.126  21.178  10.363
32177W        W97404   3.065  18.770   1.814
32178W        W97405  41.917  31.559  10.716
32179W        W97406  23.565  36.698   1.671
32180W        W97407  40.357   1.706   3.057
32181W        W97408  10.809  24.073  10.685
32182W        W97409  33.148  22.476  13.103
32183W        W97410   3.871   0.844   0.700
32184W        W97411  35.355   8.869   1.425
32185W        W97412   7.751  20.005  14.849
32186W        W97413  29.506   1.306  12.378
32187W        W97414   1.870  43.842   3.124
32188W        W97415  12.069  40.627   1.327
32189W        W97416  12.877  32.994   1.937
32190W        W97417   1.366  37.529  11.470
32191W        W97418   9.870   1.080   3.346
32192W        W97419  40.805  13.703   1.953
32193W        W97420  24.418   4.784   3.214
32194W        W97421  24.992  12.663   0.250
32195W        W97422  32.596  14.727   2.757
32196W        W97423   1.191   7.326  14.811
32197W        W97424  26.923  33.216   0.392
32198W        W97425  19.994  15.691   5.043
32199W        W97426  19.569  20.715  10.702
32200W        W97427  15.229  37.832  12.459
32201W        W97428  32.715  39.096  14.528
32202W        W97429  41.238  13.332   4.231
32203W        W97430  21.728   4.941  13.436
32204W        W97431  10.197  10.129  10.769
32205W        W97432  42.193  44.015   3.701
32206W        W97433  22.952  32.571   2.844
32207W        W97434  28.062  18.010   1.402
32208W        W97435  28.168  20.933  14.356
32209W        W97436  40.696   3.453   3.818
32210W        W97437   7.890  13.528  10.888
32211W        W97438  36.565  21.620  13.988
32212W        W97439  22.581  12.398  12.032
32213W        W97440  40.046   0.807   4.385
32214W        W97441  42.458  25.915  10.873
32215W        W97442  19.813  10.533   2.121
32216W        W97443  20.168   9.846   0.726
32217W        W97444  10.339  36.402   5.000
32218W        W97445   4.166   4.625  11.464
32219W        W97446  20.448  26.582   4.043
32220W        W97447   9.993   2.970   0.080
32221W        W97448  44.381   9.112  11.964
32222W        W97449   3.934  40.901   1.957
32223W        W97450  18.735  19.194   1.746
32224W        W97451  24.158   2.446   0.724
32225W        W97452  23.251  10.874   0.778
32226W        W97453   5.777  28.517   3.393
32227W        W97454  43.279  10.568   0.048
32228W        W97455   2.832   5.413   1.444
32229W        W97456  35.863  19.359   3.989
32230W        W97457  34.359  20.689  10.584
32231W        W97458  20.801  39.854   2.189
32232W        W97459   2.432  41.069   3.406
32233W        W97460   2.401  20.421   3.331
32234W        W97461  25.524  29.755  13.073
32235W        W97462  10.088  21.917  11.071
32236W        W97463  12.275  22.498   1.439
32237W        W97464   0.657  42.714   4.707
32238W        W97465  20.566   4.134   9.824
32239W        W97466  15.525  28.982  11.561
32240W        W97467  23.988  35.471   2.198
32241W        W97468   9.848  39.058   3.684
32242W        W97469   2.428  11.653  10.730
32243W        W97470  42.359  18.049  12.546
32244W        W97471  18.431  27.946   2.366
32245W        W97472  18.350  23.772   4.725
32246W        W97473  21.035  32.065   2.108
32247W        W97474   0.889   1.443   0.447
32248W        W97475  37.493   9.442   1.334
32249W        W97476  10.274   0.806   3.545
32250W        W97477  20.408  16.087  14.287
32251W        W97478   4.255  11.007   3.177
32252W        W97479   2.980  41.470  13.817
32253W        W97480  35.795  36.831  10.320
32254W        W97481  20.632  26.073  14.906
32255W        W97482  12.074  27.935  13.863
32256W        W97483   4.246  34.552   4.244
32257W        W97484  35.341   0.024  12.996
32258W        W97485  17.285  26.470   3.337
32259W        W97486  42.396   1.541  12.044
32260W        W97487  40.890   7.746  12.861
32261W        W97488   4.420  21.785   4.606
32262W        W97489  11.660   8.792  10.054
32263W        W97490   5.937   8.631  14.854
32264W        W97491  40.579  44.834   3.071
32265W        W97492  17.584   8.841  11.121
32266W        W97493  11.203  25.746   2.391
32267W        W97494   8.403  29.442  12.590
32268W        W97495  24.998   0.657  14.665
32269W        W97496  37.210  25.135   1.101
32270W        W97497   8.692  17.890  12.863
32271W        W97498  38.526  24.958   1.821
32272W        W97499  30.821  26.649   1.231
32273W        W97500  25.951   4.571   0.125
32274W        W97501  13.141  11.469  14.498
32275W        W97502  29.226  16.923   2.733
32276W        W97503  44.408  30.891   0.501
32277W        W97504  36.372  13.299  13.412
32278W        W97505  25.441  14.766   1.918
32279W        W97506  22.713   5.914   1.739
32280W        W97507  35.955  27.397   0.263
32281W        W97508   4.262   7.137   3.602
32282W        W97509   9.183  39.776   4.534
32283W        W97510  11.193  18.764   1.656
32284W        W97511  39.819  33.525   1.773
32285W        W97512  12.104  15.822   3.514
32286W        W97513   7.968  18.855   4.162
32287W        W97514  16.562  39.887   0.937
32288W        W97515  42.990  25.642   4.172
32289W        W97516  32.675  24.742  13.919
32290W        W97517  33.152  23.237  12.024
32291W        W97518  12.597  15.362  14.834
32292W        W97519   8.467  23.516   0.359
32293W        W97520  16.069  16.524   2.878
32294W        W97521  24.530   6.948   2.768
32295W        W97522   8.428  31.119   4.223
32296W        W97523  17.676  44.241   0.924
32297W        W97524  22.660  31.483   4.421
32298W        W97525   8.688  39.616  13.947
32299W        W97526  36.279   0.847   0.295
32300W        W97527  35.618  36.629   1.786
32301W        W97528  29.436  25.766  12.922
32302W        W97529  24.054   7.617  10.693
32303W        W97530  24.712  25.427  10.584
32304W        W97531  42.462  26.169  13.347
32305W        W97532  43.023  38.806  11.556
32306W        W97533   3.223   1.913  13.890
32307W        W97534  27.227  26.173  14.379
32308W        W97535  31.813   7.886  12.211
32309W        W97536  23.209  28.617  14.874
32310W        W97537   7.604  27.077  14.470
32311W        W97538  23.158  35.129  11.022
32312W        W97539  37.470  21.000   5.239
32313W        W97540  20.976  16.697   1.544
32314W        W97541  19.599  20.816  13.023
32315W        W97542  31.475  27.215  13.861
32316W        W97543  12.215  10.602   3.983
32317W        W97544  15.745  43.858  12.028
32318W        W97545   0.143  11.752  11.595
32319W        W97546   2.074   9.681   3.859
32320W        W97547  33.832  34.854   1.716
32321W        W97548  15.410  38.531  10.402
32322W        W97549   8.892  29.981   1.820
32323W        W97550  10.064  41.799   0.530
32324W        W97551   6.854   6.139  13.934
32325W        W97552   0.665  44.609  10.957
32326W        W97553   6.386  40.960  14.760
32327W        W97554  41.886  28.976  10.783
32328W        W97555  36.101  15.701  12.491
32329W        W97556  21.044  11.066   3.114
32330W        W97557  40.501   1.636   0.916
32331W        W97558  43.496  30.485   4.495
32332W        W97559  15.202  26.640   4.314
32333W        W97560  10.490  31.912   4.636
32334W        W97561  42.623  27.674  14.882
32335W        W97562  42.291   7.338   2.391
32336W        W97563  14.739  22.646   2.838
32337W        W97564   5.833  32.441   3.415
32338W        W97565   4.924  19.712   3.053
32339W        W97566  23.579   4.287  10.386
32340W        W97567  42.351  14.154   3.174
32341W        W97568  42.480  12.098  13.011
32342W        W97569   5.923   3.506   1.294
32343W        W97570   2.610  41.063  14.318
32344W        W97571  16.341   0.268   3.186
32345W        W97572  16.310  13.666  14.005
32346W        W97573  14.744  41.027   1.060
32347W        W97574  14.479  31.545  12.959
32348W        W97575   6.205  34.020   1.948
32349W        W97576   2.914  12.666   2.545
32350W        W97577   8.000  40.872   2.999
32351W        W97578  25.040  27.030   0.508
32352W        W97579  11.345  42.557  10.813
32353W        W97580  36.373   6.729   3.705
32354W        W97581  10.182  19.150   1.402
32355W        W97582  22.972  12.359  14.515
32356W        W97583  25.516  37.136  11.999
32357W        W97584  23.819  14.588  11.516
32358W        W97585  34.872  41.894  11.593
32359W        W97586  20.022  24.103  12.448
32360W        W97587   7.212  29.570   3.338
32361W        W97588  20.119  28.276  11.544
32362W        W97589  25.371  37.437  10.153
32363W        W97590  38.057  38.601   1.577
32364W        W97591  39.494  31.940  12.489
32365W        W97592  26.489  27.540   4.078
32366W        W97593  28.638  10.144  14.445
32367W        W97594  36.504  18.307  11.672
32368W        W97595   5.189   6.197   0.369
32369W        W97596  21.728  38.752  14.939
32370W        W97597  12.986  31.915  11.678
32371W        W97598  31.029  34.632   1.235
32372W        W97599  44.779  39.404   4.153
32373W        W97600  16.269  13.592  13.065
32374W        W97601  26.080   2.785  14.368
32375W        W97602   4.371  23.349   4.594
32376W        W97603  12.012  22.321  11.108
32377W        W97604  13.030  43.454   1.315
32378W        W97605   2.533   1.311   3.682
32379W        W97606   3.821  25.769   2.927
32380W        W97607  26.486   7.150  12.982
32381W        W97608   5.151  14.816  12.041
32382W        W97609  24.934  18.977  12.979
32383W        W97610  26.706   9.863   4.619
32384W        W97611  27.446   1.099   3.234
32385W        W97612  39.670  20.204  11.347
32386W        W97613  20.593   4.830   0.818
32387W        W97614   6.637  18.055   1.359
32388W        W97615  25.279  19.571   1.226
32389W        W97616  19.288  31.956  13.588
32390W        W97617   2.959   2.101  12.129
32391W        W97618  31.905  12.609   1.903
32392W        W97619   7.633  38.763   4.546
32393W        W97620  24.983  21.454  11.531
32394W        W97621  14.835  27.520   0.745
32395W        W97622   4.205  44.453  10.874
32396W        W97623  13.779   5.714   2.765
32397W        W97624  43.215  35.560  13.037
32398W        W97625  41.257  20.463  14.456
32399W        W97626   2.973   3.272   3.190
32400W        W97627  12.581  14.866   3.674
32401W        W97628  40.131  11.741  12.074
32402W        W97629  31.443  11.011   4.915
32403W        W97630   5.480  10.846  10.717
32404W        W97631  13.932   1.758   3.241
32405W        W97632  29.641   7.833   4.642
32406W        W97633   9.221   4.878  13.999
32407W        W97634  37.922  17.219   4.568
32408W        W97635   4.880  43.047   3.639
32409W        W97636  23.678  37.469  11.404
32410W        W97637  25.594  28.486   1.402
32411W        W97638  32.917  18.200   1.803
32412W        W97639  41.271  40.098   2.761
32413W        W97640  33.625  20.832  13.437
32414W        W97641  22.983  42.575  12.519
32415W        W97642  34.338  44.975  12.026
32416W        W97643   9.522  42.417   0.923
32417W        W97644  40.825  35.440   3.803
32418W        W97645  43.390  44.671  14.173
32419W        W97646  38.376  44.940  13.422
32420W        W97647  12.743  43.753   3.208
32421W        W97648   7.594   2.859  14.502
32422W        W97649  14.903  36.800  12.501
32423W        W97650  37.417  40.893  12.363
32424W        W97651   0.200  11.477   1.236
32425W        W97652  37.303   6.577   2.711
32426W        W97653  35.508  10.688  13.939
32427W        W97654   8.452  13.646  12.519
32428W        W97655  31.056  26.177  11.828
32429W        W97656  36.924   5.913  14.849
32430W        W97657  19.610   4.570   4.450
32431W        W97658  19.608  16.303  11.540
32432W        W97659  44.763   2.172  10.677
32433W        W97660  25.552  23.233  14.032
32434W        W97661  32.338   6.432   4.936
32435W        W97662  32.999  25.926  12.970
32436W        W97663   4.591  13.828   9.993
32437W        W97664  41.223  34.303  14.402
32438W        W97665   7.669  38.895   0.427
32439W        W97666  16.909   6.366   3.323
32440W        W97667  24.786  14.227  14.344
32441W        W97668  25.980  44.306   4.563
32442W        W97669   1.236   6.377  12.420
32443W        W97670  35.174  31.036  11.581
32444W        W97671  24.592   0.030   4.698
32445W        W97672  11.901  14.182   4.583
32446W        W97673   7.118  24.190   4.433
32447W        W97674  13.349   6.496   4.670
32448W        W97675   2.875  23.070   1.932
32449W        W97676   9.758  32.499   0.518
32450W        W97677  14.655   5.095  13.345
32451W        W97678   5.402  41.865  13.512
32452W        W97679  21.539  20.518   3.146
32453W        W97680  29.585  36.468  12.027
32454W        W97681   6.423  29.400  13.465
32455W        W97682  30.945  13.562  14.611
32456W        W97683   1.754  20.615  13.341
32457W        W97684  21.392  12.647  10.615
32458W        W97685  19.278  25.471  14.363
32459W        W97686  36.184  20.200   1.482
32460W        W97687   8.770  41.033   0.495
32461W        W97688   8.209  44.183   2.132
32462W        W97689  19.760  44.357  12.904
32463W        W97690  32.301  29.571  13.928
32464W        W97691  19.099  13.724   0.087
32465W        W97692  26.939  16.804   4.666
32466W        W97693  37.081  16.087  13.025
32467W        W97694  17.563   0.144   3.728
32468W        W97695  33.677  26.861   2.606
32469W        W97696  36.293  33.470  10.787
32470W        W97697  24.214  33.737   0.809
32471W        W97698  38.460   8.494   2.178
32472W        W97699  14.594   4.693   4.616
32473W        W97700  11.879  10.462   2.951
32474W        W97701  39.436  15.089   4.306
32475W        W97702   9.250  22.290  12.918
32476W        W97703  16.280  37.110  13.034
32477W        W97704  24.085  42.080   1.743
32478W        W97705  15.096  16.209  14.416
32479W        W97706   5.489  37.312   3.662
32480W        W97707  39.476   2.585  12.450
32481W        W97708  37.179  38.617  13.339
32482W        W97709  39.386  23.562  14.654
32483W        W97710   7.761  35.920  14.495
32484W        W97711  31.920  39.092  14.856
32485W        W97712  35.978  35.414   4.216
32486W        W97713   3.013   2.465  13.518
32487W        W97714   7.664  18.916   5.438
32488W        W97715  39.813   1.914  14.410
32489W        W97716  42.053  23.505   0.399
32490W        W97717  10.474   2.486   3.255
32491W        W97718  21.180  11.203  14.884
32492W        W97719  37.099  36.378   3.292
32493W        W97720  33.055   1.867   1.306
32494W        W97721  21.311  16.170  11.432
32495W        W97722   5.316   8.117  13.035
32496W        W97723  18.264  39.048   4.798
32497W        W97724  37.291  41.660  10.809
32498W        W97725   8.142   4.898  14.688
32499W        W97726  22.454  13.611  14.855
32500W        W97727  29.881  17.608   4.094
32501W        W97728  11.170  31.447   0.691
32502W        W97729  22.288  42.206   2.874
32503W        W97730   8.642   3.819  12.185
32504W        W97731   6.345   8.417   3.749
32505W        W97732   9.097   7.715  11.996
32506W        W97733  19.133  14.572  14.909
32507W        W97734  12.018  38.334   4.175
32508W        W97735  40.067  29.603   0.697
32509W        W97736  14.653  23.969  10.906
32510W        W97737  40.412  26.006  12.134
32511W        W97738  41.311  12.592   0.344
32512W        W97739  44.507  31.915  14.832
32513W        W97740  20.934  41.298   2.341
32514W        W97741  36.025  23.451   0.843
32515W        W97742  27.684  31.674   4.217
32516W        W97743  40.833  15.100  11.180
32517W        W97744  26.568  35.623   0.913
32518W        W97745   6.239  18.697   0.836
32519W        W97746  30.343   3.326  12.163
32520W        W97747  28.421  23.919  10.538
32521W        W97748  10.432   2.871  12.831
32522W        W97749  36.505  42.939   4.573
32523W        W97750  39.321  18.811   1.633
32524W        W97751   0.226   4.816   0.880
32525W        W97752  20.615  12.321  14.874
32526W        W97753  21.333  18.661  10.668
32527W        W97754  14.004  32.939  13.194
32528W        W97755  20.932   4.781  13.812
32529W        W97756  40.702   3.374  13.747
32530W        W97757  19.998  30.619  14.995
32531W        W97758  37.734   2.767   4.565
32532W        W97759  23.931   6.638   3.699
32533W        W97760  31.515  21.318  13.006
32534W        W97761   4.433  16.669  14.961
32535W        W97762   7.778  18.776  11.704
32536W        W97763  38.561  11.588   3.707
32537W        W97764   5.760  38.924  13.913
32538W        W97765  23.605   7.300  13.080
32539W        W97766  37.084  21.296   3.244
32540W        W97767  17.680  29.635   1.264
32541W        W97768  26.360  23.748   0.527
32542W        W97769  32.618  22.585   3.638
32543W        W97770   3.401   5.989   4.165
32544W        W97771  28.136  35.288  11.068
32545W        W97772  32.422  29.845  11.684
32546W        W97773   4.623  13.585   1.958
32547W        W97774  12.807  32.465   1.159
32548W        W97775  29.891  29.001   3.129
32549W        W97776  12.984  23.937  14.955
32550W        W97777  11.188  23.824  11.590
32551W        W97778  23.206  22.116  14.561
32552W        W97779  11.334   1.533  14.372
32553W        W97780  15.246  27.665  10.616
32554W        W97781  37.638  12.367   1.402
32555W        W97782  27.175  27.876   1.886
32556W        W97783  41.261   4.538   1.989
32557W        W97784  35.551  17.799  10.707
32558W        W97785   3.260  24.731   1.207
32559W        W97786  19.715   0.680  12.112
32560W        W97787  30.119  19.735   3.577
32561W        W97788  38.563  42.785  13.943
32562W        W97789  40.040  12.197   3.828
32563W        W97790  20.699  39.041   4.440
32564W        W97791   2.904  20.479   1.693
32565W        W97792  37.535  11.455  10.715
32566W        W97793  15.747  22.615   0.389
32567W        W97794   1.782  21.259  13.869
32568W        W97795  32.176   9.898   2.574
32569W        W97796  31.847   4.397  11.603
32570W        W97797   2.882   0.121   4.146
32571W        W97798  14.330  34.474   0.008
32572W        W97799   9.700  37.808   1.223
32573W        W97800  27.850   6.119   4.315
32574W        W97801  39.450   2.620  14.893
32575W        W97802   6.906   7.991  12.574
32576W        W97803  43.332  12.893   1.479
32577W        W97804  15.231  13.247   4.529
32578W        W97805  28.035   4.673  14.278
32579W        W97806  20.579  22.148   2.448
32580W        W97807  25.361  14.494   4.272
32581W        W97808   0.187  21.148   3.101
32582W        W97809  11.078  12.133  12.975
32583W        W97810  27.165  13.250   2.142
32584W        W97811  42.197  28.004  12.104
32585W        W97812  41.778   5.182  12.468
32586W        W97813  34.921  30.119   0.327
32587W        W97814   3.960   4.850   4.542
32588W        W97815   3.857  39.248  10.504
32589W        W97816  11.769  40.842   3.176
32590W        W97817  19.540  32.606   4.607
32591W        W97818  28.975  30.868  13.171
32592W        W97819  11.742  33.528   1.414
32593W        W97820  42.663  10.691   0.812
32594W        W97821  40.572  18.749  14.312
32595W        W97822  43.550  34.884   0.449
32596W        W97823  30.807  17.864  10.049
32597W        W97824   3.397  40.392  13.204
32598W        W97825  19.491   8.833   2.694
32599W        W97826   2.967  15.259   1.260
32600W        W97827  26.202  19.086   3.658
32601W        W97828  22.821  34.886  12.517
32602W        W97829  26.970   2.910  14.482
32603W        W97830  27.398  14.182   3.267
32604W        W97831  25.682  26.001  14.704
32605W        W97832   2.955   6.948  13.400
32606W        W97833  20.310  20.036  12.105
32607W        W97834  42.809   2.200  13.505
32608W        W97835  35.415   0.003   2.503
32609W        W97836   0.174   9.166  14.394
32610W        W97837   7.711  42.259   2.336
32611W        W97838  19.118  10.690  11.993
32612W        W97839  43.547   5.838  14.791
32613W        W97840  27.938  30.911   1.411
32614W        W97841  26.998  25.061   0.439
32615W        W97842  14.986  33.424  10.922
32616W        W97843  11.146   8.733  10.922
32617W        W97844  14.358  44.968   4.093
32618W        W97845   9.108  16.554  13.879
32619W        W97846  31.996  17.153  12.312
32620W        W97847  17.013  20.649  12.621
32621W        W97848  24.272  15.063   0.567
32622W        W97849  29.706   6.368  12.410
32623W        W97850  15.520   4.922  14.126
32624W        W97851  19.956  23.689   3.910
32625W        W97852  22.029   5.469  10.677
32626W        W97853  18.149  11.592   2.664
32627W        W97854  44.307  36.226   2.276
32628W        W97855  39.845   2.454  13.039
32629W        W97856  37.700   8.429   3.535
32630W        W97857  11.554  14.726   2.765
32631W        W97858   7.665   7.718   3.342
32632W        W97859  11.449  18.875  13.676
32633W        W97860   8.153  33.918  13.034
32634W        W97861  40.937  33.752   4.941
32635W        W97862  25.951   9.294   1.730
32636W        W97863   2.253  14.406  13.804
32637W        W97864  10.847   1.469   3.694
32638W        W97865  20.540   5.698  12.685
32639W        W97866   3.325  23.508  12.389
32640W        W97867   6.208  14.842   2.293
32641W        W97868   5.219  31.169   4.179
32642W        W97869  33.189  34.369   0.721
32643W        W97870  43.526  11.764  12.509
32644W        W97871  37.743   8.404   2.706
32645W        W97872   4.293  10.566  14.976
32646W        W97873  38.409  22.226  13.474
32647W        W97874  32.312  43.379  13.923
32648W        W97875   6.713   1.835   2.862
32649W        W97876   3.408  22.539  13.288
32650W        W97877   7.680  35.560  12.033
32651W        W97878  36.842   6.905   3.571
32652W        W97879  32.552  32.215   0.971
32653W        W97880  23.785  20.433  10.679
32654W        W97881  30.478  35.079   1.803
32655W        W97882  42.786   0.986  14.012
32656W        W97883  23.130   7.046  10.895
32657W        W97884  12.733  17.645   1.895
32658W        W97885   8.652  35.589  14.889
32659W        W97886   5.887  30.094  12.489
32660W        W97887  30.166  22.666   1.129
32661W        W97888  26.480  38.154  14.374
32662W        W97889  31.977   8.163   2.724
32663W        W97890  27.691  35.712   3.877
32664W        W97891  44.424  14.762  11.570
32665W        W97892  33.072  28.460   2.339
32666W        W97893  40.480  10.614  14.879
32667W        W97894  26.562  18.313  14.019
32668W        W97895  36.620  27.713  11.978
32669W        W97896  36.906  33.425   4.108
32670W        W97897   1.193  15.140   0.877
32671W        W97898  22.193   0.208   0.238
32672W        W97899  27.085  40.437   3.303
32673W        W97900  31.630   4.162   1.023
32674W        W97901  15.718  44.082   2.382
32675W        W97902   4.635   0.059   3.688
32676W        W97903  11.276  33.146   2.659
32677W        W97904   2.281  23.812  13.024
32678W        W97905  27.281  31.427   1.236
32679W        W97906  29.955  15.467  12.353
32680W        W97907  22.250  34.303   3.272
32681W        W97908   5.356   6.394  10.823
32682W        W97909   5.771   5.451   0.312
32683W        W97910  38.002  23.090   4.474
32684W        W97911   1.758   9.138   0.762
32685W        W97912  12.370  14.084  13.900
32686W        W97913  39.901  13.182  10.695
32687W        W97914  36.981  10.724  12.065
32688W        W97915  17.574  30.587  13.272
32689W        W97916  37.617  24.172  14.778
32690W        W97917  21.769  21.072   1.996
32691W        W97918  27.947  33.967   0.765
32692W        W97919  37.213  26.109   1.764
32693W        W97920  35.473  35.913   5.441
32694W        W97921   8.783  12.970   2.762
32695W        W97922   6.253  18.562  12.779
32696W        W97923  11.160  11.780   3.250
32697W        W97924  44.846  24.064  13.476
32698W        W97925  39.295  19.611   0.957
32699W        W97926   8.156  30.682  11.925
32700W        W97927  43.939  21.058  12.389
32701W        W97928  11.730   5.528  12.509
32702W        W97929   7.235  44.079  12.154
32703W        W97930   0.405  21.244   2.614
32704W        W97931  31.615   8.843   0.975
32705W        W97932  10.287   7.898   3.146
32706W        W97933  39.951  44.477   0.931
32707W        W97934  44.443  38.468   0.251
32708W        W97935  31.022  42.279  11.181
32709W        W97936  16.065  36.021   4.093
32710W        W97937  21.180   8.373  10.691
32711W        W97938  28.042  41.556   4.297
32712W        W97939  31.570   4.334  14.196
32713W        W97940  11.563  16.650   1.826
32714W        W97941  18.260  23.924  12.532
32715W        W97942  21.756  10.190   0.741
32716W        W97943  22.109  23.422  12.323
32717W        W97944   1.428  17.080   4.568
32718W        W97945  21.138  28.202  13.303
32719W        W97946   4.279  38.582   4.122
32720W        W97947  15.548  26.482  12.060
32721W        W97948  29.980  37.794  13.992
32722W        W97949  37.307   0.156   1.147
32723W        W97950   1.972  39.801   1.554
32724W        W97951   8.329  33.851  10.645
32725W        W97952  28.463  32.150   4.369
32726W        W97953  36.644   3.846  13.137
32727W        W97954  37.829  40.309  14.289
32728W        W97955   4.594  26.868  11.131
32729W        W97956  11.291   1.377  12.224
32730W        W97957  27.021  10.580   3.334
32731W        W97958  31.382  30.334  10.770
32732W        W97959  16.655   4.858  13.882
32733W        W97960  19.594  42.280  12.549
32734W        W97961  30.161  26.598   0.306
32735W        W97962  11.607  34.545   1.275
32736W        W97963  22.980  38.577  14.033
32737W        W97964  23.956  13.331  11.992
32738W        W97965  40.258  17.188  12.408
32739W        W97966  39.909  13.597  11.505
32740W        W97967  29.819   6.222   0.218
32741W        W97968  20.986  14.895   1.013
32742W        W97969  28.678  44.822   0.388
32743W        W97970   8.121  27.445   2.026
32744W        W97971  36.348  32.518  12.558
32745W        W97972  25.580  13.706   1.844
32746W        W97973   8.697  12.121   3.717
32747W        W97974  22.962   6.835  12.004
32748W        W97975   5.203  34.099  11.609
32749W        W97976   0.544  38.472   3.313
32750W        W97977  41.109   3.148   3.868
32751W        W97978  17.029   3.928   0.857
32752W        W97979  30.836  10.458  11.687
32753W        W97980  30.634  32.853   2.302
32754W        W97981   1.616  18.494  13.414
32755W        W97982  35.708  41.687  13.038
32756W        W97983  15.593   6.812   4.015
32757W        W97984  37.379  18.032  11.978
32758W        W97985  37.441  22.131  11.577
32759W        W97986  31.372  18.748   2.723
32760W        W97987  22.976  20.006  13.883
32761W        W97988  42.857  44.470  14.054
32762W        W97989   3.896  23.070   4.551
32763W        W97990  28.972  44.390  10.625
32764W        W97991  24.604  23.990   1.764
32765W        W97992  18.754  12.793  14.911
32766W        W97993  21.026  14.174   4.747
32767W        W97994  10.110  42.522  13.231
32768W        W97995  11.261  40.256   1.393
32769W        W97996  10.772  12.141  12.050
32770W        W97997  24.109   7.244  12.903
32771W        W97998  37.399   3.010   3.611
32772W        W97999  41.565  10.506   2.783
32773W        W98000  42.915  37.789   4.036
32774W        W98001  27.256  13.269   4.145
32775W        W98002  42.270   8.566   2.227
32776W        W98003  35.872  14.718   1.324
32777W        W98004  18.053  10.811   0.546
32778W        W98005  44.330  19.891   4.126
32779W        W98006  18.309  24.144   0.071
32780W        W98007  18.773   1.786   4.362
32781W        W98008  20.693  40.522   0.441
32782W        W98009  29.077  18.520  14.959
32783W        W98010  15.782  22.774  14.230
32784W        W98011  18.442  14.768   4.156
32785W        W98012   1.552  11.135  14.830
32786W        W98013  24.983  21.413  10.669
32787W        W98014   1.381   2.184   1.206
32788W        W98015   6.435  33.957   3.341
32789W        W98016  20.029  12.779  14.083
32790W        W98017  41.349  33.831   3.222
32791W        W98018  20.656  25.665   4.124
32792W        W98019  42.647  27.083  11.925
32793W        W98020   4.435  43.855  14.489
32794W        W98021  40.300  15.734  12.504
32795W        W98022   4.172   1.301  11.527
32796W        W98023  16.799  29.628   4.315
32797W        W98024  17.298   7.076  10.985
32798W        W98025  21.983  41.018   4.118
32799W        W98026  42.244  30.784   4.348
32800W        W98027  37.153  13.627   3.311
32801W        W98028  20.344   7.597  13.720
32802W        W98029  19.709  30.872  14.080
32803W        W98030   4.022  31.977   0.676
32804W        W98031  25.967  39.003   0.842
32805W        W98032  10.728  22.265  14.976
32806W        W98033  41.252  24.360   3.142
32807W        W98034  10.216   6.956   1.888
32808W        W98035   3.209  43.641  12.088
32809W        W98036  35.840  10.656  12.557
32810W        W98037  15.105  32.428   2.763
32811W        W98038   9.228  24.425   2.041
32812W        W98039  40.047  11.578   1.939
32813W        W98040  28.684  16.738  13.924
32814W        W98041  18.028  42.397   2.739
32815W        W98042  27.651  15.198   1.934
32816W        W98043  37.225  30.929   0.039
32817W        W98044  33.129   0.221   2.687
32818W        W98045  10.000  12.088   1.864
32819W        W98046  42.483  17.724  13.770
32820W        W98047  11.343  15.032   0.234
32821W        W98048  30.509  20.716   1.013
32822W        W98049   0.362  35.818  12.028
32823W        W98050  38.038  43.517   1.487
32824W        W98051  16.634  21.488   2.422
32825W        W98052  22.583  28.435   0.249
32826W        W98053  22.492  20.133   3.185
32827W        W98054  11.302  18.453  10.370
32828W        W98055  19.732  38.301   0.742
32829W        W98056  33.302  10.260  11.132
32830W        W98057  35.314  15.091   4.364
32831W        W98058  23.310  16.707  13.856
32832W        W98059  21.504   7.625  11.312
32833W        W98060  40.569  20.668  13.662
32834W        W98061  43.156  28.645  14.037
32835W        W98062  20.751  40.450   4.632
32836W        W98063   5.566  16.072  12.436
32837W        W98064  21.614   1.750   4.558
32838W        W98065  17.999  44.640   1.462
32839W        W98066  13.632   7.749   2.668
32840W        W98067  36.414  10.393   1.061
32841W        W98068   9.381  40.829  13.017
32842W        W98069  21.146  11.527   4.250
32843W        W98070  21.134  23.648   1.500
32844W        W98071  39.095  30.027  14.088
32845W        W98072  39.150  28.295  14.386
32846W        W98073  14.340  21.481   0.193
32847W        W98074  30.679  29.088  10.864
32848W        W98075  21.526  20.554  10.754
32849W        W98076  43.790  37.432   4.152
32850W        W98077  20.991  32.914  14.735
32851W        W98078  17.243  35.773  11.082
32852W        W98079  37.125  44.078   0.893
32853W        W98080  24.106  26.760   4.645
32854W        W98081  36.418  21.684  12.432
32855W        W98082  21.008  22.168   2.014
32856W        W98083  33.848  24.629  11.601
32857W        W98084   0.221  36.891  10.649
32858W        W98085  24.011  22.444   2.303
32859W        W98086   8.261  26.246   0.684
32860W        W98087   3.404  36.513  10.614
32861W        W98088  22.769  11.043   2.870
32862W        W98089  19.079  32.460   3.337
32863W        W98090  29.695  44.848   3.964
32864W        W98091  42.474  39.540   3.351
32865W        W98092   3.960  31.147  12.049
32866W        W98093   4.383  15.234  12.039
32867W        W98094  10.625  27.456   1.337
32868W        W98095  29.532  22.434  11.100
32869W        W98096  43.224   2.825  13.081
32870W        W98097  14.850   7.723   4.757
32871W        W98098   1.912  20.441   4.071
32872W        W98099  29.453   1.478   9.989
32873W        W98100  22.596  26.975   1.810
32874W        W98101   1.511  38.533  14.446
32875W        W98102  15.320  26.509  13.567
32876W        W98103  15.274  39.622  13.616
32877W        W98104   0.473  41.345   4.509
32878W        W98105  28.674  37.203   5.006
32879W        W98106  30.386  34.341  11.249
32880W        W98107  43.724   5.000   5.018
32881W        W98108   2.949  35.987   3.389
32882W        W98109  44.561  41.449  12.527
32883W        W98110   9.719  30.388  11.717
32884W        W98111  26.923  29.833  11.434
32885W        W98112  26.184  15.672  12.684
32886W        W98113   5.891  19.688  11.238
32887W        W98114  29.229  41.994   2.284
32888W        W98115  16.975  20.739   1.836
32889W        W98116  24.480  10.663   2.443
32890W        W98117  37.616  22.003  13.022
32891W        W98118  20.120   3.035  10.096
32892W        W98119  14.155  24.597  11.629
32893W        W98120  36.267   7.887  11.577
32894W        W98121  41.759  13.973  11.164
32895W        W98122   6.267  25.279   2.151
32896W        W98123  22.828  42.429  13.806
32897W        W98124  14.232  18.163   0.660
32898W        W98125  30.637  28.450  13.991
32899W        W98126  22.757  22.491   0.401
32900W        W98127  39.773  34.790   2.251
32901W        W98128  30.565  40.717  14.884
32902W        W98129   3.630   4.228   2.739
32903W        W98130   7.396  31.213  11.677
32904W        W98131   3.393   8.276   4.697
32905W        W98132  38.612  33.056  13.777
32906W        W98133  39.279  22.450  14.308
32907W        W98134   8.379  16.043   3.305
32908W        W98135  12.652  35.320  11.147
32909W        W98136   0.188  43.509   4.876
32910W        W98137  10.415  14.665  14.402
32911W        W98138  28.044  30.938   2.887
32912W        W98139  23.513  28.156   2.058
32913W        W98140   8.415   7.223  13.078
32914W        W98141  18.244  12.572  14.985
32915W        W98142  15.854  38.415  12.079
32916W        W98143  14.521  38.555  12.395
32917W        W98144  21.802  33.326  14.890
32918W        W98145  42.882  38.473  12.612
32919W        W98146  24.250  22.583  12.385
32920W        W98147   4.681  30.150   0.031
32921W        W98148   6.091   3.419   3.873
32922W        W98149  11.785  42.711   0.942
32923W        W98150  17.270  42.268   3.974
32924W        W98151  32.383  15.600   0.317
32925W        W98152   8.754  42.482   0.319
32926W        W98153  39.482   1.298  13.068
32927W        W98154  18.622  30.541   2.630
32928W        W98155  23.516  29.642  13.796
32929W        W98156  38.972  44.100  10.735
32930W        W98157  40.983  42.171  13.979
32931W        W98158  17.160  11.556   3.147
32932W        W98159  26.719  43.119   0.223
32933W        W98160  34.556  14.139   4.318
32934W        W98161  36.363  33.422  13.655
32935W        W98162  42.133   0.875  12.908
32936W        W98163   2.830  24.566  13.582
32937W        W98164   4.376  38.849   4.584
32938W        W98165   2.635  30.095  11.878
32939W        W98166   7.161  34.712  11.178
32940W        W98167   8.757  14.092  14.392
32941W        W98168  12.166  30.910   9.918
32942W        W98169  13.933  19.615  12.065
32943W        W98170  36.018  10.080   0.839
32944W        W98171   5.667  43.376  14.592
32945W        W98172  43.255   7.817  13.881
32946W        W98173  12.526  29.628   0.306
32947W        W98174   7.729  21.733  12.803
32948W        W98175  15.244  30.698  14.802
32949W        W98176  25.551  42.900   2.088
32950W        W98177   2.160  16.059   2.081
32951W        W98178   8.299  20.763   4.371
32952W        W98179  19.284  38.478  14.413
32953W        W98180  32.324  11.826   0.604
32954W        W98181  15.550   9.896   4.603
32955W        W98182  22.985  27.451   1.188
32956W        W98183   0.725  13.285  14.154
32957W        W98184   3.588  44.057  13.849
32958W        W98185  29.234  24.241  13.126
32959W        W98186  27.447  34.765  14.970
32960W        W98187  42.373   1.144   1.186
32961W        W98188  41.671  42.903  14.942
32962W        W98189   5.674   4.270   3.538
32963W        W98190  36.992  42.289  14.841
32964W        W98191  32.813   8.106   1.712
32965W        W98192  13.146  14.056   4.925
32966W        W98193  29.717  24.975  11.593
32967W        W98194   8.424  41.905   1.846
32968W        W98195  35.813  36.370   0.087
32969W        W98196   4.325   3.660   2.409
32970W        W98197  17.684  40.644   3.792
32971W        W98198  32.911  28.142   0.592
32972W        W98199  15.085  24.172   0.761
32973W        W98200  36.291   4.321  13.106
32974W        W98201  27.517  38.520   3.303
32975W        W98202  43.337   1.496  11.984
32976W        W98203  14.683   0.467   0.804
32977W        W98204   2.269  39.259  14.976
32978W        W98205  41.482  38.932   3.372
32979W        W98206  42.499  30.948   1.778
32980W        W98207  20.889  31.651  14.193
32981W        W98208   3.361  39.877  13.082
32982W        W98209  14.571  11.799   0.799
32983W        W98210  34.106   8.993   1.894
32984W        W98211  43.339  25.006  11.649
32985W        W98212   8.705  14.758  11.987
32986W        W98213  39.965  30.300   1.545
32987W        W98214   7.946  22.722  12.942
32988W        W98215  34.877  27.459  14.307
32989W        W98216  30.112  13.780   1.837
32990W        W98217  16.447  24.929  13.837
32991W        W98218  40.245  23.044  10.726
32992W        W98219  26.973   3.922  11.624
32993W        W98220  27.089   2.776   2.340
32994W        W98221   3.290  10.690   2.191
32995W        W98222  20.055  41.785  11.234
32996W        W98223  20.190  18.190   4.032
32997W        W98224   9.291  42.978  14.549
32998W        W98225  14.165  37.440  14.489
32999W        W98226  20.107  24.427  10.461
33000W        W98227  26.374  10.066  10.890
33001W        W98228  20.756  37.975   3.816
33002W        W98229  43.606  33.926   0.221
33003W        W98230   6.301  31.069  11.238
33004W        W98231  10.637  29.165  12.663
33005W        W98232   1.760  14.162   1.013
33006W        W98233   9.738  31.920  13.599
33007W        W98234  32.624  39.952   3.042
33008W        W98235  11.572  42.309  11.226
33009W        W98236  14.249  13.804  10.767
33010W        W98237  20.975  25.544  10.536
33011W        W98238  38.306  32.060   4.761
33012W        W98239  21.533  10.816  13.032
33013W        W98240  20.291   3.079   3.808
33014W        W98241  41.806  29.952  13.536
33015W        W98242   3.412  33.357  10.832
33016W        W98243  39.426  28.675  14.012
33017W        W98244  40.704  26.038  11.642
33018W        W98245  19.517  29.737  13.602
33019W        W98246  26.027  16.784  13.537
33020W        W98247  13.470  25.642   4.902
33021W        W98248   8.756  40.920   1.402
33022W        W98249  15.426   8.757  14.881
33023W        W98250  22.256  32.966   3.223
33024W        W98251  33.128  20.511   3.390
33025W        W98252  25.622   9.405   3.478
33026W        W98253  27.704  23.947   4.735
33027W        W98254  24.516  28.194  13.459
33028W        W98255  32.033  44.222  14.515
33029W        W98256   4.823  27.644   1.733
33030W        W98257  44.288  33.878   3.773
33031W        W98258  37.727  18.591  13.963
33032W        W98259  37.323  27.276  14.719
33033W        W98260   2.488   7.443   0.972
33034W        W98261  40.817  27.466  13.650
33035W        W98262  24.105   6.847  10.123
33036W        W98263  17.538  35.991   1.346
33037W        W98264  24.266  40.583  11.199
33038W        W98265  38.856   7.889   1.331
33039W        W98266  17.370  24.042   3.307
33040W        W98267   6.211  38.968   5.086
33041W        W98268  30.523   0.339  14.633
33042W        W98269  31.671  21.171  10.999
33043W        W98270  20.971  42.363  10.688
33044W        W98271  27.697  17.114  11.550
33045W        W98272   5.619  26.748  11.133
33046W        W98273   0.444   9.260   3.677
33047W        W98274  12.600   1.484   3.120
33048W        W98275   2.614  40.251   0.334
33049W        W98276   5.443  24.652   1.471
33050W        W98277  13.903   8.761   2.224
33051W        W98278   8.697   2.507   3.392
33052W        W98279  40.809   8.416   0.110
33053W        W98280  39.841  14.333  13.664
33054W        W98281  38.484  15.198  13.592
33055W        W98282  11.198  10.748  14.420
33056W        W98283  14.510  35.474   0.363
33057W        W98284   3.659  41.293   2.236
33058W        W98285  27.302  20.078  11.575
33059W        W98286  30.116   5.293  11.245
33060W        W98287  44.344  17.708  12.641
33061W        W98288  22.624  41.056  13.561
33062W        W98289  24.614  17.188   3.347
33063W        W98290  22.655  13.280   0.893
33064W        W98291  22.411  32.743   1.115
33065W        W98292   6.798   3.438  11.418
33066W        W98293  33.445   4.535   5.197
33067W        W98294  28.030  29.202  12.656
33068W        W98295   2.168  44.485  12.932
33069W        W98296  17.512  23.213  10.834
33070W        W98297   0.303   4.852  13.519
33071W        W98298  15.414   5.498   3.785
33072W        W98299  40.722  14.200   1.228
33073W        W98300  25.044  14.732   0.277
33074W        W98301   4.349  44.923  11.604
33075W        W98302  25.230  21.222   0.906
33076W        W98303  18.880   1.476   0.410
33077W        W98304  28.155  38.867   0.348
33078W        W98305  17.173  29.876   3.277
33079W        W98306  15.649  30.391   1.051
33080W        W98307  25.600   8.234   2.254
33081W        W98308  32.608  23.568   0.854
33082W        W98309   8.189  24.096   3.609
33083W        W98310   6.105   4.505   3.349
33084W        W98311  17.866  39.106   9.868
33085W        W98312   1.162  30.139  11.021
33086W        W98313  15.661   3.809   0.492
33087W        W98314  32.420  33.128  13.351
33088W        W98315  31.419   3.289  14.981
33089W        W98316  26.259  27.126   3.170
33090W        W98317  37.400  10.972   2.774
33091W        W98318  25.491   6.372   4.865
33092W        W98319  31.469   4.173  13.735
33093W        W98320   2.451  16.668  12.735
33094W        W98321  23.477   3.205   2.109
33095W        W98322  13.617   4.014  14.946
33096W        W98323  26.181  41.484  13.496
33097W        W98324  18.850  22.768  13.169
33098W        W98325   7.696  21.234  13.019
33099W        W98326  23.929  27.661  10.750
33100W        W98327  35.841  39.309   0.682
33101W        W98328  13.847  20.540  12.971
33102W        W98329  27.672  38.493  10.660
33103W        W98330  23.059  20.167   0.577
33104W        W98331  30.101  32.394  14.839
33105W        W98332  24.280   5.402  12.792
33106W        W98333   6.935  32.531   4.631
33107W        W98334  24.980  25.263   1.636
33108W        W98335  22.041  22.289   3.752
33109W        W98336  30.148  25.473   1.834
33110W        W98337   1.497  32.170   0.258
33111W        W98338  18.807  21.104   1.789
33112W        W98339  36.582  23.179   4.932
33113W        W98340  11.418  19.088  14.523
33114W        W98341   0.421  41.037   4.038
33115W        W98342  16.570  19.088  12.604
33116W        W98343  25.472  13.967   1.077
33117W        W98344  29.981   8.880  11.980
33118W        W98345  27.755  32.990   3.144
33119W        W98346  20.114  41.374   4.246
33120W        W98347  28.907  40.504   0.526
33121W        W98348  30.955   1.447   4.149
33122W        W98349   8.915  12.828  11.010
33123W        W98350  27.016   0.391   3.667
33124W        W98351  38.784  20.746   3.637
33125W        W98352  11.556  19.629   3.345
33126W        W98353  39.899   8.956   1.127
33127W        W98354  21.320  14.665   3.999
33128W        W98355   9.671   8.364   3.900
33129W        W98356   9.728  37.158   1.914
33130W        W98357  11.743  11.784   1.648
33131W        W98358  26.275  43.924  14.970
33132W        W98359  20.372  12.276   0.356
33133W        W98360  38.078  15.626   4.617
33134W        W98361  37.422  15.110  11.571
33135W        W98362  36.088  36.924   3.082
33136W        W98363  28.550  43.312   1.908
33137W        W98364  20.749  40.001   0.463
33138W        W98365  27.000  41.329   0.298
33139W        W98366  38.304  23.672   4.700
33140W        W98367  22.716  29.412  13.064
33141W        W98368  39.105  14.602  11.009
33142W        W98369   8.704   3.142   4.939
33143W        W98370  23.455  27.266   3.192
33144W        W98371  19.579  43.285   0.734
33145W        W98372  38.004  23.256   1.885
33146W        W98373  26.488  32.823  13.755
33147W        W98374  30.065  38.388  14.359
33148W        W98375  19.148  20.280  13.696
33149W        W98376  14.870   5.788  14.832
33150W        W98377  33.676  20.613   2.233
33151W        W98378  20.239  42.864   0.299
33152W        W98379  35.432  40.512  10.658
33153W        W98380   9.138   2.232   3.231
33154W        W98381  11.782  20.122   0.111
33155W        W98382  28.097  32.336  11.950
33156W        W98383  30.155  33.182  11.605
33157W        W98384  11.711  22.645   2.106
33158W        W98385  43.937   0.800  12.395
33159W        W98386  21.997  24.058  14.467
33160W        W98387   1.423  20.130   1.332
33161W        W98388  22.500  31.901   1.725
33162W        W98389  30.945   7.635  13.428
33163W        W98390  32.558   4.244   0.933
33164W        W98391  34.000   6.260   4.317
33165W        W98392  24.631  21.430  11.124
33166W        W98393  34.603  31.974   0.931
33167W        W98394   8.612  11.544  13.539
33168W        W98395  43.918   6.841   4.394
33169W        W98396   7.152  15.527   1.010
33170W        W98397  25.249  23.401  11.608
33171W        W98398  26.589   1.979  14.289
33172W        W98399   3.360  25.179  14.488
33173W        W98400   5.132   3.914   1.183
33174W        W98401  13.233   5.852   0.672
33175W        W98402   5.586  20.043   2.489
33176W        W98403  14.891  38.195  14.913
33177W        W98404  37.905  25.243   5.214
33178W        W98405   2.071  41.787  10.134
33179W        W98406  16.696  37.415  12.859
33180W        W98407   6.385  41.015   0.467
33181W        W98408   4.232  14.591  12.096
33182W        W98409  39.522  22.647   2.035
33183W        W98410  42.322  11.657  14.195
33184W        W98411  16.608  31.170   4.645
33185W        W98412  14.383  38.900  11.246
33186W        W98413  43.619  18.689   0.394
33187W        W98414  10.256  44.022  12.873
33188W        W98415  11.712  37.961   3.855
33189W        W98416  24.774   9.725   2.273
33190W        W98417  27.181   6.181  11.490
33191W        W98418  39.375   6.664   3.557
33192W        W98419  42.857  30.350  14.768
33193W        W98420  37.899  43.506   4.110
33194W        W98421   7.723  42.518  13.246
33195W        W98422  41.604   3.186   0.807
33196W        W98423  35.534  34.399   3.451
33197W        W98424  34.535  15.598  11.657
33198W        W98425  31.197  14.680   3.216
33199W        W98426  44.527  30.053   0.518
33200W        W98427   6.946   3.926   4.170
33201W        W98428   9.336  25.676   3.143
33202W        W98429  44.227  20.168   2.044
33203W        W98430  38.532  39.584  11.733
33204W        W98431   3.010   3.391  13.883
33205W        W98432  23.491  14.353  14.972
33206W        W98433  29.128   2.987  11.136
33207W        W98434  30.709  25.915   2.372
33208W        W98435  29.156  15.882  14.256
33209W        W98436   6.677  14.086  12.521
33210W        W98437  13.657   0.728   1.226
33211W        W98438  20.334  19.825  14.431
33212W        W98439  10.788  35.593   0.763
33213W        W98440   0.070  23.970   1.241
33214W        W98441   5.802   1.886   0.413
33215W        W98442   6.357  33.928  11.994
33216W        W98443   0.887  22.384   0.387
33217W        W98444  15.541  15.231   1.674
33218W        W98445  13.012   9.118   4.407
33219W        W98446   1.004  24.992  11.729
33220W        W98447  17.566   6.870   1.787
33221W        W98448  31.604  37.500  12.901
33222W        W98449  34.023  36.376  14.755
33223W        W98450   9.122  32.453  10.888
33224W        W98451  42.228  44.343  12.543
33225W        W98452  25.697  16.599   4.105
33226W        W98453  16.733  12.508  10.443
33227W        W98454   3.386  44.329  10.179
33228W        W98455  26.546   1.055  11.911
33229W        W98456  15.098  33.316   0.391
33230W        W98457  36.314   2.536   1.723
33231W        W98458   9.827  34.604   0.480
33232W        W98459   7.827  13.838   2.933
33233W        W98460  21.459   1.862  10.641
33234W        W98461   7.363  31.814  14.987
33235W        W98462  14.618  33.986  11.364
33236W        W98463  14.588  38.194   4.211
33237W        W98464   8.100   6.038   2.870
33238W        W98465  10.287  10.813   0.281
33239W        W98466  11.785  44.429   1.460
33240W        W98467  19.722  13.298  10.852
33241W        W98468  11.584  21.256   0.030
33242W        W98469   7.492  27.430  13.541
33243W        W98470   0.615   0.456  13.827
33244W        W98471  40.559   9.837  14.501
33245W        W98472   8.615  35.352   4.644
33246W        W98473  32.794  43.657  14.056
33247W        W98474  42.131  32.573   3.200
33248W        W98475  17.086  30.899  10.637
33249W        W98476   6.939   4.243  13.565
33250W        W98477  29.126  15.237   1.946
33251W        W98478   0.322  13.230  14.590
33252W        W98479   6.030  23.140  14.531
33253W        W98480  30.317  37.576   2.731
33254W        W98481  22.753  17.163   1.515
33255W        W98482  12.395  43.348   4.290
33256W        W98483  37.532  23.035   1.973
33257W        W98484  19.297  26.738  11.147
33258W        W98485  31.703   0.375   0.415
33259W        W98486   2.657  22.087   0.127
33260W        W98487  30.793  26.909  12.137
33261W        W98488  32.681  31.808   3.134
33262W        W98489  39.949   5.442   3.667
33263W        W98490  40.559  38.390   1.413
33264W        W98491  34.015   9.369   2.270
33265W        W98492  12.687  42.892   2.274
33266W        W98493   0.458  43.813   5.525
33267W        W98494  41.926  33.182   0.095
33268W        W98495  28.704  17.077  11.604
33269W        W98496   7.362  42.127  12.841
33270W        W98497  16.698   7.971  14.454
33271W        W98498  37.592  25.814   1.502
33272W        W98499  30.412  25.480   2.267
33273W        W98500  39.543  12.755  12.436
33274W        W98501  23.490  25.473   4.616
33275W        W98502  10.303  34.650  11.435
33276W        W98503  39.592   4.318  12.032
33277W        W98504  11.870  42.833  11.011
33278W        W98505  33.409   0.745   4.417
33279W        W98506  24.899  24.642   0.830
33280W        W98507  32.621  31.693   0.882
33281W        W98508  17.315   3.680   1.647
33282W        W98509  22.876  44.812  12.379
33283W        W98510  30.960  43.693   2.802
33284W        W98511  38.281   4.773   4.212
33285W        W98512  14.897  30.078  12.586
33286W        W98513  43.881  28.420   9.760
33287W        W98514  43.946   9.616  11.394
33288W        W98515  24.343  37.812  10.702
33289W        W98516  15.583  28.054  10.671
33290W        W98517  38.896  21.346  12.973
33291W        W98518  30.194  19.580   4.509
33292W        W98519  31.128  24.083   4.720
33293W        W98520   5.130  38.534  13.570
33294W        W98521  35.802  24.690   1.779
33295W        W98522  15.242  23.764  14.830
33296W        W98523  30.066  28.497   0.829
33297W        W98524  35.857  27.848   3.439
33298W        W98525  43.787   3.666  13.025
33299W        W98526  29.947   5.187   2.091
33300W        W98527  33.354  33.791  14.932
33301W        W98528  14.546   3.387   4.236
33302W        W98529   9.704  25.488  11.538
33303W        W98530  29.789  14.895   4.061
33304W        W98531  34.994   4.779   4.452
33305W        W98532  26.680  38.379  12.260
33306W        W98533  44.211  17.607  14.975
33307W        W98534   7.433  44.913   1.966
33308W        W98535  23.783  23.561  14.477
33309W        W98536  23.983  39.458  10.905
33310W        W98537   0.804  11.514   0.290
33311W        W98538  24.560   5.262   0.328
33312W        W98539  40.268  35.067   1.463
33313W        W98540  16.836  43.175  10.225
33314W        W98541  15.087  39.876   2.230
33315W        W98542  25.186  28.896  13.361
33316W        W98543  15.688  30.935   2.531
33317W        W98544  11.325  30.914  10.623
33318W        W98545  39.490  13.961  13.499
33319W        W98546   1.694  33.820  11.171
33320W        W98547  37.641   6.874   2.408
33321W        W98548  24.613  10.301  14.569
33322W        W98549  12.245   1.868   3.254
33323W        W98550   4.632  27.188  14.018
33324W        W98551  38.994  32.084   3.093
33325W        W98552  29.945   1.153  11.735
33326W        W98553  19.982   1.100  13.005
33327W        W98554   6.453  34.672  10.825
33328W        W98555  37.009  17.673  13.737
33329W        W98556  22.099  22.902  12.397
33330W        W98557  32.477  34.851  13.123
33331W        W98558   3.493  29.066   2.489
33332W        W98559  35.150  28.371  12.818
33333W        W98560  17.996  14.049   3.730
33334W        W98561   2.480  26.449  12.475
33335W        W98562  22.737  30.802  13.954
33336W        W98563  19.248  34.453  14.973
33337W        W98564  30.841  20.684   3.299
33338W        W98565  12.109  16.132  10.633
33339W        W98566  36.815  39.233  11.492
33340W        W98567  36.589   6.602   4.152
33341W        W98568   6.869   6.363   4.578
33342W        W98569  18.557  35.107   4.490
33343W        W98570  29.342  44.845   2.434
33344W        W98571  38.896   0.875  11.218
33345W        W98572  12.963   9.234  10.706
33346W        W98573  33.106  15.297  10.849
33347W        W98574  35.827  10.197   3.118
33348W        W98575  13.124  29.041   5.165
33349W        W98576  18.773   5.399  14.122
33350W        W98577  25.992  13.849  14.875
33351W        W98578   5.697  30.945  10.596
33352W        W98579  31.386   0.901  14.071
33353W        W98580  25.736  40.248   2.404
33354W        W98581  20.560  18.558  13.971
33355W        W98582  22.009   9.353   3.191
33356W        W98583  43.553  21.870   3.216
33357W        W98584   2.107   8.061  13.320
33358W        W98585  21.569  43.882   1.407
33359W        W98586  15.750   2.426  11.839
33360W        W98587  26.465  22.115   1.329
33361W        W98588  41.380   9.726   3.277
33362W        W98589  39.332   1.964   3.861
33363W        W98590  30.396   6.729   3.779
33364W        W98591  11.721  40.460   2.193
33365W        W98592  34.162  39.332   2.203
33366W        W98593  38.038  35.826  12.888
33367W        W98594   0.563  40.541  12.656
33368W        W98595   7.947  19.207   2.322
33369W        W98596  19.692  42.544   1.270
33370W        W98597  35.188  43.922  14.590
33371W        W98598  44.949  39.754   0.317
33372W        W98599  36.087   9.999   4.908
33373W        W98600  17.022  21.481  12.053
33374W        W98601  27.753  13.238  14.247
33375W        W98602   8.843  10.194   2.221
33376W        W98603  21.797  41.511  13.585
33377W        W98604  37.102  42.679   0.773
33378W        W98605   9.796  13.083   0.099
33379W        W98606  15.269   7.180  10.632
33380W        W98607  20.693  22.540  12.969
33381W        W98608  33.619  20.025   4.632
33382W        W98609  16.202  37.339   3.252
33383W        W98610  16.878  22.736   1.650
33384W        W98611  27.176  23.480   1.348
33385W        W98612  36.423   2.461   2.234
33386W        W98613  39.982  25.626   3.559
33387W        W98614   4.342  10.203   2.730
33388W        W98615  26.280   1.858  12.156
33389W        W98616   3.427  22.764   0.730
33390W        W98617  12.830  19.422   2.889
33391W        W98618  20.679  37.801  11.128
33392W        W98619  39.835  27.687  14.722
33393W        W98620  13.272  37.502  13.842
33394W        W98621  13.528  19.338  10.728
33395W        W98622  21.784  32.164   0.812
33396W        W98623  15.916  39.309  14.894
33397W        W98624  21.139   4.150   4.002
33398W        W98625   3.271  24.463  11.592
33399W        W98626  19.418  21.692   2.478
33400W        W98627   8.434  28.337  11.574
33401W        W98628  23.619  43.690   2.208
33402W        W98629  31.130   5.845   2.331
33403W        W98630   1.896  31.892  14.987
33404W        W98631  29.524   2.287  14.377
33405W        W98632   9.968  18.227  12.968
33406W        W98633  24.656  17.863  12.031
33407W        W98634  13.336  25.290   1.395
33408W        W98635   6.800  43.230   1.928
33409W        W98636  20.398  22.743   4.388
33410W        W98637  21.119  42.903   1.896
33411W        W98638  37.009  14.629   3.265
33412W        W98639   1.729  13.141   3.788
33413W        W98640  14.249  34.319   4.466
33414W        W98641  41.950  21.125  10.564
33415W        W98642  23.157  11.141  10.842
33416W        W98643   7.227  31.657   3.732
33417W        W98644  26.615  27.598   2.321
33418W        W98645  20.173   9.137  14.410
33419W        W98646  13.240   7.136   1.730
33420W        W98647  43.197  17.201   2.658
33421W        W98648  15.873  33.113   0.818
33422W        W98649  22.837  16.394   4.783
33423W        W98650  38.399  24.619   4.373
33424W        W98651  18.623  42.933   4.574
33425W        W98652   3.344  34.506  11.064
33426W        W98653  16.121  33.190   0.359
33427W        W98654   6.972   7.080  13.368
33428W        W98655   5.885  22.247  10.998
33429W        W98656  14.630   3.977  14.079
33430W        W98657  32.275  17.354   9.734
33431W        W98658  37.822  37.568   3.251
33432W        W98659  20.058  35.609  10.134
33433W        W98660   4.221  14.687   4.119
33434W        W98661  14.309  31.652  14.865
33435W        W98662  23.453   1.483  12.894
33436W        W98663  17.063  34.009  10.367
33437W        W98664  17.075   3.948  12.366
33438W        W98665  43.986  19.557  10.696
33439W        W98666  21.303  43.506  13.470
33440W        W98667  15.641  15.695  13.783
33441W        W98668  36.438  35.501  14.740
33442W        W98669   6.865   4.911  12.875
33443W        W98670  32.294  30.455  14.842
33444W        W98671  25.584  24.355   4.618
33445W        W98672   6.489   3.675  12.548
33446W        W98673  10.662  14.787  12.062
33447W        W98674  10.599  18.628   0.807
33448W        W98675  10.796  31.867   9.865
33449W        W98676  43.306   9.588   2.890
33450W        W98677  18.525  27.908   0.310
33451W        W98678  24.063  16.975  14.314
33452W        W98679  15.335  38.410   3.832
33453W        W98680  14.410  30.980   4.426
33454W        W98681  41.515  11.555   3.534
33455W        W98682  31.164   6.563  11.992
33456W        W98683  11.218  27.252  11.564
33457W        W98684  13.813  38.530   3.173
33458W        W98685  15.810   7.789  12.202
33459W        W98686  38.838  25.250   2.281
33460W        W98687  38.815   2.505   4.551
33461W        W98688  44.659  31.215   0.815
33462W        W98689  26.244   6.476   1.786
33463W        W98690  25.685   6.389   1.768
33464W        W98691  11.423   5.226  14.742
33465W        W98692  10.196  29.074  14.124
33466W        W98693  43.782  21.672   2.760
33467W        W98694  24.641  23.640   2.862
33468W        W98695   1.179  29.895   1.415
33469W        W98696   5.038   0.459  14.515
33470W        W98697  36.619   9.910   1.530
33471W        W98698  27.143  15.638   0.425
33472W        W98699  10.064  33.642   4.252
33473W        W98700   7.197  33.997  14.943
33474W        W98701  41.017  33.408   3.050
33475W        W98702   3.325  36.931  11.942
33476W        W98703  15.079  26.266   0.285
33477W        W98704  37.635  40.459   5.001
33478W        W98705  12.267  35.711   4.898
33479W        W98706  27.983  29.092   3.631
33480W        W98707  39.376   4.497   0.180
33481W        W98708  18.034  26.622  14.413
33482W        W98709   0.105  24.590  12.553
33483W        W98710  34.497  32.587  12.066
33484W        W98711   6.878   7.387   4.607
33485W        W98712   8.342  34.309   4.809
33486W        W98713   7.939  28.272  14.267
33487W        W98714   8.341   7.240  12.116
33488W        W98715   5.811  34.427   3.117
33489W        W98716  36.410  30.903   4.550
33490W        W98717  14.116  11.112  14.463
33491W        W98718  21.181  27.014   1.410
33492W        W98719  28.565   1.655   2.207
33493W        W98720  16.597  44.148   4.206
33494W        W98721   3.723  37.959   2.446
33495W        W98722  42.385  30.164  12.451
33496W        W98723  43.322   7.268  13.103
33497W        W98724  43.257  10.954   4.112
33498W        W98725  15.546  11.632   4.082
33499W        W98726  39.580  20.207   2.623
33500W        W98727  14.340  22.952  12.394
33501W        W98728  30.061  37.118   3.115
33502W        W98729  26.118  29.962   1.887
33503W        W98730  24.838  13.576  12.947
33504W        W98731  17.536  11.667  12.091
33505W        W98732  31.404  44.308  11.661
33506W        W98733  41.949  24.501   0.723
33507W        W98734  28.633  18.907  11.142
33508W        W98735  11.229  38.775  12.455
33509W        W98736   7.531  44.221   4.557
33510W        W98737  39.594  30.130   3.103
33511W        W98738  39.526  30.196  12.110
33512W        W98739  34.466  27.527  11.587
33513W        W98740  43.705  42.900   3.280
33514W        W98741  14.055  13.860   3.259
33515W        W98742  40.805  33.479  12.515
33516W        W98743  32.087   7.345   4.536
33517W        W98744   8.945  26.918   2.688
33518W        W98745   8.954  32.811   0.402
33519W        W98746   1.874  35.280  10.991
33520W        W98747  33.921  29.952  14.421
33521W        W98748  26.126  37.457  14.911
33522W        W98749  39.463  32.109   1.909
33523W        W98750  24.984  10.473   4.525
33524W        W98751  12.552   8.054   1.422
33525W        W98752  38.043  41.466   3.795
33526W        W98753  34.959  37.623  13.544
33527W        W98754  34.083  11.426  12.044
33528W        W98755  16.804   6.742   4.971
33529W        W98756   6.785   5.694   0.833
33530W        W98757   3.025  11.740   0.727
33531W        W98758  26.047  23.548   2.398
33532W        W98759  19.805  16.681   0.417
33533W        W98760   4.279  16.584   3.678
33534W        W98761  37.947  26.939  12.951
33535W        W98762  25.756  42.982   2.547
33536W        W98763   9.216  10.456   3.641
33537W        W98764  13.302   2.993  13.958
33538W        W98765   3.820  20.653  12.001
33539W        W98766  44.326   1.666  11.026
33540W        W98767  42.930   4.086   3.272
33541W        W98768  25.958  29.956   3.883
33542W        W98769   8.797  11.884   4.184
33543W        W98770  11.845  32.641  14.352
33544W        W98771  43.221  35.420   3.763
33545W        W98772   3.915   7.367   1.853
33546W        W98773  37.572  11.856   0.865
33547W        W98774   5.960   0.927   3.146
33548W        W98775  26.966  42.274   1.050
33549W        W98776   7.921  22.170   0.846
33550W        W98777  11.367   4.090   1.666
33551W        W98778  37.520  12.306  12.576
33552W        W98779  15.022   0.276   2.980
33553W        W98780  41.478  40.423  10.817
33554W        W98781  42.838  41.350  13.878
33555W        W98782  40.031  33.645   0.899
33556W        W98783  39.404  23.438  12.403
33557W        W98784  32.450   7.124   1.798
33558W        W98785  32.845   0.251  14.024
33559W        W98786  35.504  28.587  10.465
33560W        W98787   7.555  17.144   2.185
33561W        W98788  13.177  38.559   0.291
33562W        W98789  38.058  17.602  13.587
33563W        W98790   7.920  26.387  10.327
33564W        W98791   7.017  24.206   0.943
33565W        W98792  30.465  35.574   1.667
33566W        W98793  19.599   1.450   0.980
33567W        W98794  33.940   8.422  12.711
33568W        W98795  21.181  11.398   1.195
33569W        W98796  12.204  28.694   4.635
33570W        W98797  31.802  30.546   3.913
33571W        W98798  43.705  15.271  14.003
33572W        W98799  35.044  15.266  14.280
33573W        W98800  14.730   2.191   1.780
33574W        W98801  20.278  12.778   2.768
33575W        W98802  15.198  13.747   2.771
33576W        W98803   1.610  28.541   4.844
33577W        W98804  40.872  20.587   2.700
33578W        W98805  25.782   7.429   4.933
33579W        W98806  20.112   4.384   4.031
33580W        W98807  20.800  38.474  12.168
33581W        W98808  40.095  43.706  11.342
33582W        W98809  35.157  11.278  12.093
33583W        W98810   4.679  39.850   3.652
33584W        W98811   4.566  41.167   0.769
33585W        W98812  31.921  39.468  12.482
33586W        W98813  26.344  20.164   3.672
33587W        W98814  13.629  44.303  14.101
33588W        W98815  18.245  30.161  11.560
33589W        W98816  37.825  13.278   3.794
33590W        W98817  21.219  12.328  14.016
33591W        W98818  10.875  26.876  14.334
33592W        W98819  39.109  34.408  12.436
33593W        W98820  17.133  33.865   3.208
33594W        W98821   9.747  24.358  10.639
33595W        W98822   9.306  32.644  14.097
33596W        W98823  20.619   3.843  12.862
33597W        W98824   2.201   1.738  12.663
33598W        W98825   3.839  35.960   3.639
33599W        W98826  26.566  14.171   5.440
33600W        W98827   0.485  29.973  13.479
33601W        W98828   2.166   5.580  11.093
33602W        W98829   3.370   8.375   0.495
33603W        W98830  14.323  28.866  10.618
33604W        W98831  44.969  32.622  12.631
33605W        W98832  26.599   2.495   2.975
33606W        W98833  37.638  34.810   1.506
33607W        W98834  27.087  21.175   3.617
33608W        W98835  15.670  41.883   5.036
33609W        W98836  17.320  30.320  11.137
33610W        W98837  36.347  30.170  13.562
33611W        W98838  15.666  26.147  13.434
33612W        W98839  40.986  20.834   1.133
33613W        W98840  15.398  36.818   2.191
33614W        W98841  35.090  31.838  10.302
33615W        W98842  16.123  32.975  13.461
33616W        W98843   7.410  40.745  10.385
33617W        W98844  10.240  13.467   2.848
33618W        W98845  22.510   4.665   0.611
33619W        W98846  25.279  35.802   4.486
33620W        W98847  23.964  41.086   4.882
33621W        W98848  36.026  17.988   0.308
33622W        W98849  29.622   8.862   0.053
33623W        W98850  27.903  35.689  10.603
33624W        W98851  11.059  38.823  14.767
33625W        W98852  39.403  37.691   2.195
33626W        W98853  16.178   4.887   4.101
33627W        W98854  18.160  20.155  13.255
33628W        W98855  39.684  21.440  10.884
33629W        W98856  13.146  38.860  11.671
33630W        W98857  32.963  18.860   2.379
33631W        W98858   1.025  31.837  10.066
33632W        W98859  40.607  21.359   0.484
33633W        W98860  29.560  32.502  10.539
33634W        W98861  38.693   8.872  13.075
33635W        W98862   6.889  38.376  11.438
33636W        W98863   5.428  39.456   2.720
33637W        W98864  35.578   3.803   0.352
33638W        W98865   4.993  24.120   0.837
33639W        W98866  27.037  37.515  11.887
33640W        W98867  35.968  40.953   2.226
33641W        W98868  38.873  17.832   0.725
33642W        W98869  22.611  27.041   1.307
33643W        W98870   8.194  42.959   1.209
33644W        W98871  39.229  31.649   3.229
33645W        W98872   9.197  20.762   3.250
33646W        W98873   5.407  19.487   3.877
33647W        W98874  28.428  13.607   1.477
33648W        W98875  33.158  24.436   4.584
33649W        W98876  31.522  10.259  13.039
33650W        W98877  20.009  38.427   1.526
33651W        W98878  43.948  20.033   3.678
33652W        W98879  20.194  42.291  13.924
33653W        W98880  11.228  20.942  10.720
33654W        W98881  39.459  13.146  10.995
33655W        W98882  35.379  27.389   0.029
33656W        W98883   5.650  17.408  13.040
33657W        W98884   6.872  40.922   3.604
33658W        W98885  29.414  33.746   4.182
33659W        W98886   1.950  28.533  11.027
33660W        W98887   2.688  30.140  13.093
33661W        W98888  43.057   7.117   9.691
33662W        W98889   1.487  17.275   1.400
33663W        W98890  19.749  26.180  10.644
33664W        W98891  37.513  14.656   1.798
33665W        W98892  31.284  43.013  10.165
33666W        W98893  13.436   8.402   0.951
33667W        W98894  44.836   3.307   3.134
33668W        W98895  13.247  43.427   4.143
33669W        W98896  34.132  29.356   3.486
33670W        W98897   2.151  28.567  11.866
33671W        W98898  31.651  13.088  13.057
33672W        W98899  20.106  27.404  12.057
33673W        W98900  17.550  37.802  10.559
33674W        W98901  31.858  30.422  11.554
33675W        W98902  16.835   9.209  11.724
33676W        W98903  25.761  23.915   4.872
33677W        W98904  32.058  43.084   0.825
33678W        W98905  28.718  14.332   1.498
33679W        W98906  27.471   6.262  14.969
33680W        W98907  44.944   2.792   1.727
33681W        W98908  38.596   2.153   3.744
33682W        W98909   9.880   4.674  12.542
33683W        W98910  14.570  13.424   4.277
33684W        W98911  18.049  10.660  11.119
33685W        W98912  19.229  23.921   2.737
33686W        W98913  17.263  24.952  12.500
33687W        W98914  20.668  30.014   1.862
33688W        W98915  18.636  13.425   4.933
33689W        W98916  19.372  13.137  13.858
33690W        W98917  20.275   4.907   1.324
33691W        W98918  38.302  15.885   2.276
33692W        W98919  29.717  44.239  11.045
33693W        W98920  21.540   6.892   4.039
33694W        W98921   5.249   8.939  14.324
33695W        W98922  22.267  36.959  11.225
33696W        W98923  38.315  37.118   0.439
33697W        W98924  37.855  23.260   3.414
33698W        W98925   2.437  36.842  12.489
33699W        W98926  32.332  39.582   3.258
33700W        W98927  41.681  25.169   4.918
33701W        W98928  23.535  26.225   4.083
33702W        W98929   6.836  10.613   4.173
33703W        W98930  35.556  10.595  12.101
33704W        W98931   4.945  16.858   3.249
33705W        W98932  34.475  14.549   2.686
33706W        W98933  20.433  30.091   1.365
33707W        W98934  28.726   7.653   1.289
33708W        W98935  30.990  10.776  11.327
33709W        W98936   0.473   2.233  11.329
33710W        W98937  42.471  14.712  11.335
33711W        W98938  33.923  13.424  12.001
33712W        W98939  15.930  20.243  12.883
33713W        W98940   9.607   5.850   1.160
33714W        W98941  33.072  42.568   2.821
33715W        W98942   8.220   8.634   1.879
33716W        W98943  37.453   3.500  12.472
33717W        W98944  25.079  43.024   3.705
33718W        W98945   9.127   7.277   3.345
33719W        W98946  10.823  41.344  14.017
33720W        W98947  10.555  20.969   1.441
33721W        W98948  41.020  30.983   4.534
33722W        W98949  10.771  19.250  10.853
33723W        W98950   3.154  16.126   1.152
33724W        W98951  41.470   8.854  13.583
33725W        W98952   4.654  20.617  13.599
33726W        W98953  29.264   5.703  12.092
33727W        W98954  22.203  22.206  14.042
33728W        W98955  25.797  24.191   2.930
33729W        W98956  22.086  18.203  13.403
33730W        W98957  39.595  34.244   0.318
33731W        W98958  27.652  42.430   4.696
33732W        W98959  37.489  22.133   0.633
33733W        W98960   0.471  31.553   0.958
33734W        W98961  11.767  19.551   0.960
33735W        W98962  41.427  12.419   0.864
33736W        W98963   3.491  19.249   2.177
33737W        W98964  18.214  43.457   4.346
33738W        W98965  22.995  38.820  13.100
33739W        W98966  31.981  31.110   3.760
33740W        W98967  16.653  28.648  10.708
33741W        W98968  33.631   5.757  10.909
33742W        W98969  17.545  43.390   3.625
33743W        W98970  37.086  39.034   4.801
33744W        W98971  24.762  25.291  13.954
33745W        W98972  30.478   8.463  10.843
33746W        W98973   2.329  28.484   2.382
33747W        W98974  41.373   2.788   4.163
33748W        W98975  25.100   5.066   4.658
33749W        W98976  18.662  21.611   1.735
33750W        W98977   2.395  24.966  13.957
33751W        W98978   1.715  32.231   4.169
33752W        W98979  43.226  16.733  14.394
33753W        W98980  10.569  32.250   1.763
33754W        W98981  36.544  19.217  10.686
33755W        W98982   5.305  37.346  13.339
33756W        W98983  27.489  16.790   4.642
33757W        W98984  31.204  19.710  14.390
33758W        W98985   0.720  37.485  13.856
33759W        W98986  16.165   3.752  11.484
33760W        W98987  28.412  15.854   4.061
33761W        W98988  40.789  10.924  11.459
33762W        W98989  20.641  27.969  14.395
33763W        W98990  28.945  12.664   4.012
33764W        W98991  29.906   8.762   4.744
33765W        W98992  16.585   1.918   1.869
33766W        W98993  16.169  19.888  12.569
33767W        W98994  14.684  28.753   3.195
33768W        W98995  10.059  34.284   0.135
33769W        W98996  27.440   4.970  14.945
33770W        W98997  24.636   7.191   4.295
33771W        W98998  16.062   6.047   3.591
33772W        W98999  35.134  31.250  12.846
33773W        W99000  33.300  33.463  13.324
33774W        W99001   8.654  21.768  11.193
33775W        W99002  40.829   8.999   3.852
33776W        W99003   4.720   3.361   0.244
33777W        W99004  35.858   6.812  12.459
33778W        W99005   6.546  18.853  10.308
33779W        W99006  14.605  33.678  11.903
33780W        W99007  40.976  30.972  10.970
33781W        W99008  32.982  20.975   2.706
33782W        W99009  40.612  44.339  13.452
33783W        W99010  14.170  26.629  13.326
33784W        W99011  38.451  42.217  14.786
33785W        W99012  40.917  16.990   3.265
33786W        W99013  34.916  20.922  13.953
33787W        W99014  40.542  22.260   2.931
33788W        W99015   1.066  31.467  12.057
33789W        W99016   1.930  28.921   0.747
33790W        W99017   8.140  17.569  12.918
33791W        W99018  34.865  42.822   4.619
33792W        W99019  16.026   3.416   4.042
33793W        W99020  42.236   3.488   2.859
33794W        W99021  29.184  10.462  11.967
33795W        W99022  29.685   9.378   0.150
33796W        W99023  27.158  30.068   0.403
33797W        W99024  22.921  33.920   2.501
33798W        W99025   6.710  23.685   3.133
33799W        W99026  43.825   8.386   3.649
33800W        W99027  23.343  35.871   4.462
33801W        W99028  17.657  35.586   0.816
33802W        W99029  12.250  18.326  14.031
33803W        W99030  38.971  29.796  12.601
33804W        W99031  18.554  12.766   1.855
33805W        W99032  30.006  30.379   2.717
33806W        W99033  37.081  22.585   2.274
33807W        W99034   1.437  11.998   3.996
33808W        W99035   7.222   0.969  11.877
33809W        W99036  17.957   2.668  11.614
33810W        W99037  42.095   6.758  10.316
33811W        W99038   0.436   0.107  13.456
33812W        W99039   3.353  37.867   2.102
33813W        W99040  21.622  12.165   4.462
33814W        W99041  41.257  28.436   0.368
33815W        W99042   6.868  13.351   4.216
33816W        W99043  33.630  13.371   0.760
33817W        W99044  39.516  12.232  14.008
33818W        W99045  43.276  13.588  11.212
33819W        W99046  40.750  26.708  12.085
33820W        W99047   0.455  39.897  13.780
33821W        W99048   6.994  30.644  10.727
33822W        W99049  26.153  27.095  13.597
33823W        W99050  30.182  14.427   1.277
33824W        W99051  32.843  23.109  14.818
33825W        W99052  34.283  24.477   1.737
33826W        W99053  42.494  17.182  14.434
33827W        W99054  38.141  12.609  12.536
33828W        W99055  34.600  23.482  13.565
33829W        W99056   4.635  11.621   4.142
33830W        W99057  44.842  33.527   2.208
33831W        W99058   9.386   8.842  11.827
33832W        W99059   1.902  35.204  13.347
33833W        W99060  21.630   5.456   4.070
33834W        W99061  37.979  36.083   4.523
33835W        W99062  27.217  34.384   1.671
33836W        W99063  32.013  19.448  13.699
33837W        W99064  22.170  44.200  14.392
33838W        W99065  16.580   9.345   0.866
33839W        W99066  36.858  33.877  12.103
33840W        W99067   2.485  19.031   0.283
33841W        W99068  27.725  37.857  11.074
33842W        W99069  10.690   0.718   3.189
33843W        W99070  36.429  37.245   4.658
33844W        W99071  15.648   3.218   2.828
33845W        W99072  28.143  42.573  12.015
33846W        W99073  26.556   3.166  11.690
33847W        W99074  34.955   5.734   4.686
33848W        W99075  10.149  33.639  13.804
33849W        W99076   7.733  29.741  13.049
33850W        W99077   7.919  12.160   3.226
33851W        W99078  35.838  42.573  13.836
33852W        W99079  23.138   7.866   1.842
33853W        W99080  23.606  33.423  13.928
33854W        W99081  18.332  36.436   0.758
33855W        W99082  26.750  31.671   3.277
33856W        W99083   9.441  41.493  11.223
33857W        W99084  31.141  31.175   3.983
33858W        W99085   7.888  14.281   0.796
33859W        W99086   3.470   9.241   0.513
33860W        W99087  19.371  30.391  12.663
33861W        W99088  22.283  22.241  11.665
33862W        W99089  16.308  31.411   4.171
33863W        W99090  26.102  33.070   4.552
33864W        W99091   3.860  26.286   0.018
33865W        W99092  39.764  26.552  13.400
33866W        W99093  14.615  19.488   4.670
33867W        W99094   8.841  43.537   4.119
33868W        W99095  33.164  18.610   3.719
33869W        W99096  20.733   6.190   4.165
33870W        W99097  40.068   5.909  11.546
33871W        W99098   7.579  28.147   4.052
33872W        W99099   5.622   6.428  12.068
33873W        W99100  30.125  38.486  11.668
33874W        W99101   7.362  20.980  11.173
33875W        W99102  19.722  43.198  11.160
33876W        W99103  31.037  44.944  12.713
33877W        W99104  24.597   2.221  11.997
33878W        W99105  14.980   9.393  14.458
33879W        W99106   5.758  44.557   1.250
33880W        W99107  34.031  14.759  12.184
33881W        W99108  28.405  40.717   0.677
33882W        W99109  42.850  20.734   0.596
33883W        W99110  31.508  31.536   4.189
33884W        W99111  10.639   1.549  10.667
33885W        W99112  36.092  32.806   3.350
33886W        W99113   4.976  26.550   4.009
33887W        W99114   4.516   8.875   0.849
33888W        W99115  13.720  23.225  13.497
33889W        W99116   3.900  26.041   4.716
33890W        W99117  28.684  35.581  11.133
33891W        W99118  19.327  19.588   4.883
33892W        W99119  31.483  29.746   3.789
33893W        W99120   8.859   5.451   3.185
33894W        W99121  42.270   9.749  12.003
33895W        W99122   4.628   6.395  12.569
33896W        W99123  17.300   4.246  10.761
33897W        W99124  39.864  30.400   2.571
33898W        W99125   6.417  32.458   2.146
33899W        W99126   6.227  15.291   2.540
33900W        W99127  38.400  10.084   2.787
33901W        W99128   2.190  42.886  13.417
33902W        W99129  12.635  39.306  13.346
33903W        W99130  32.612  13.828  14.879
33904W        W99131  33.422  39.064   3.298
33905W        W99132  44.014  43.117  10.440
33906W        W99133  25.897  24.937  11.427
33907W        W99134   6.695   8.993   4.618
33908W        W99135  30.651  25.232  10.591
33909W        W99136  44.500  12.765   3.491
33910W        W99137   8.877  29.035   1.843
33911W        W99138   2.197   4.304   3.655
33912W        W99139   1.009  39.288   1.784
33913W        W99140  40.932  16.519   3.562
33914W        W99141  21.577  23.157  11.237
33915W        W99142  12.856  38.432   4.858
33916W        W99143  11.763  39.849   3.154
33917W        W99144  18.694   6.480   0.756
33918W        W99145  44.275  18.604  14.371
33919W        W99146   7.773   4.445  12.933
33920W        W99147   9.398   6.401  11.676
33921W        W99148  29.560  43.920  12.864
33922W        W99149  35.790  36.862   1.321
33923W        W99150  13.476   6.013  12.098
33924W        W99151  28.455  27.212  11.706
33925W        W99152   4.374  42.706  10.701
33926W        W99153  41.122  44.277   2.158
33927W        W99154  43.427  39.767   4.574
33928W        W99155  16.748  43.885   1.370
33929W        W99156  33.103  32.573  13.593
33930W        W99157   8.286  37.940   3.916
33931W        W99158  16.347   9.456   3.649
33932W        W99159  28.748  10.978  11.612
33933W        W99160  20.159   8.840   4.717
33934W        W99161  25.307   6.431  14.871
33935W        W99162  16.186  42.982   4.614
33936W        W99163  13.628  26.601   1.273
33937W        W99164  23.829  14.187  11.074
33938W        W99165  31.869   5.310   4.579
33939W        W99166   8.713  33.898  11.991
33940W        W99167  29.587  44.812  13.009
33941W        W99168  21.149  34.140  12.454
33942W        W99169  25.955  32.087   3.085
33943W        W99170   3.581  24.747   4.766
33944W        W99171   0.500  14.579   4.796
33945W        W99172  30.356  31.430  13.365
33946W        W99173  24.577  18.099  14.865
33947W        W99174  26.223  20.653  10.838
33948W        W99175  11.238  38.606   3.248
33949W        W99176   6.495  21.773  13.314
33950W        W99177  17.864  21.518  12.419
33951W        W99178  32.043   9.611   3.016
33952W        W99179   5.776  37.169   2.935
33953W        W99180  44.073  13.479   2.339
33954W        W99181   6.207   7.335   0.938
33955W        W99182   0.088  19.457  13.028
33956W        W99183   6.618  15.121   3.213
33957W        W99184  35.649   6.926   3.254
33958W        W99185  26.164  12.621  11.985
33959W        W99186  32.494  33.985   4.788
33960W        W99187  34.867  34.193  13.380
33961W        W99188   3.865   2.835   0.775
33962W        W99189  30.116   9.768   1.773
33963W        W99190  42.239  43.947  14.201
33964W        W99191  35.274  24.085  10.435
33965W        W99192  28.568  34.782   2.348
33966W        W99193  39.159  15.268  11.852
33967W        W99194   1.147   6.112  13.087
33968W        W99195  21.946   1.521  13.215
33969W        W99196   1.284   1.072   4.243
33970W        W99197  13.112  37.160  10.320
33971W        W99198   6.498   3.482   0.033
33972W        W99199  31.088  22.737  11.854
33973W        W99200  16.442  19.765   0.552
33974W        W99201  28.429  36.467  13.636
33975W        W99202  16.020  41.355  13.581
33976W        W99203   9.344  21.733   1.694
33977W        W99204   5.427  30.602  12.361
33978W        W99205  16.294  22.540  12.419
33979W        W99206   3.750  39.260   1.711
33980W        W99207  36.715  43.886  14.455
33981W        W99208  42.492  17.236   1.238
33982W        W99209  14.298  28.627   3.603
33983W        W99210   1.780  31.519  11.181
33984W        W99211  31.517   2.905  13.271
33985W        W99212  33.929  26.004  12.890
33986W        W99213  25.674  23.595  12.754
33987W        W99214  39.320  28.237  10.273
33988W        W99215  42.189  44.526   3.640
33989W        W99216  24.148  42.963   3.603
33990W        W99217  34.037  11.715  14.865
33991W        W99218  34.828  26.671   3.241
33992W        W99219  20.034  10.087  12.955
33993W        W99220  13.538  39.487   2.995
33994W        W99221  14.517  29.084  12.494
33995W        W99222  31.524  16.746  10.671
33996W        W99223  39.346  12.153   4.207
33997W        W99224   1.485  44.879   3.199
33998W        W99225  10.683  33.416  12.013
33999W        W99226   4.467  29.397   0.449
34000W        W99227  38.037  25.600   4.839
34001W        W99228   5.724  16.782  14.350
34002W        W99229   0.209  26.023   5.018
34003W        W99230  11.929   1.474   1.286
34004W        W99231  18.119  30.718  12.586
34005W        W99232  23.889  23.580  11.291
34006W        W99233  24.001  17.665   2.571
34007W        W99234  23.000   2.335   0.294
34008W        W99235  21.025  23.446   0.034
34009W        W99236  43.171   7.789  12.932
34010W        W99237   2.776   9.533   4.653
34011W        W99238   9.810   8.075   3.428
34012W        W99239  38.505  40.449   3.323
34013W        W99240  18.314  12.843   2.808
34014W        W99241  44.013  37.168  14.442
34015W        W99242  40.901  24.233  11.923
34016W        W99243   1.449  18.586   1.277
34017W        W99244   6.234   4.648   2.064
34018W        W99245  32.602  20.127   0.694
34019W        W99246  44.197  40.561  13.492
34020W        W99247  11.807  41.735   1.825
34021W        W99248  39.073  27.568   2.624
34022W        W99249  24.264   4.373  13.800
34023W        W99250   7.922  43.059  11.058
34024W        W99251  16.657  15.249   2.951
34025W        W99252   1.011  29.418   3.210
34026W        W99253  35.557   5.903   3.816
34027W        W99254  32.726   3.775  12.766
34028W        W99255  23.093  27.258   0.507
34029W        W99256  16.344  24.919   4.200
34030W        W99257  24.223  44.383   0.348
34031W        W99258  14.628   5.254  12.037
34032W        W99259  27.596  17.997  13.574
34033W        W99260  25.223  36.610  13.890
34034W        W99261   2.228   7.444  14.274
34035W        W99262  42.794   6.150   1.737
34036W        W99263  42.440  39.745  12.630
34037W        W99264  37.078   0.146  12.468
34038W        W99265  16.226  33.903   1.351
34039W        W99266  44.267   0.347   4.571
34040W        W99267   1.305  25.906  10.409
34041W        W99268  28.101  22.692   5.011
34042W        W99269  42.424  24.745  11.506
34043W        W99270  11.662  15.996  10.815
34044W        W99271  20.841  36.510   2.360
34045W        W99272  33.187  33.902  12.012
34046W        W99273   2.926  29.455  12.454
34047W        W99274   6.555  34.346   3.667
34048W        W99275  28.557  28.557   1.789
34049W        W99276  23.823  24.142  13.870
34050W        W99277  38.556  38.015   3.078
34051W        W99278   6.631  20.235  11.656
34052W        W99279  16.562  34.132   0.384
34053W        W99280  18.294  12.413   4.529
34054W        W99281  37.235  39.040   2.184
34055W        W99282  13.790  17.240  12.430
34056W        W99283  13.371  36.525   4.513
34057W        W99284   7.552  30.544   0.242
34058W        W99285   5.016  18.696   2.728
34059W        W99286  43.712  36.578  12.049
34060W        W99287  22.552  27.186  12.351
34061W        W99288  18.684  30.442   0.619
34062W        W99289  34.953   4.880   0.844
34063W        W99290  31.680  41.893   1.433
34064W        W99291  17.051  30.909   4.702
34065W        W99292  27.525  12.872   2.254
34066W        W99293  30.942   8.152   1.998
34067W        W99294  29.584  13.699  13.729
34068W        W99295   2.211  21.998  11.031
34069W        W99296  36.421   7.326  14.984
34070W        W99297   0.769  43.862   1.316
34071W        W99298  33.839  18.727   0.977
34072W        W99299   9.963   8.675  11.991
34073W        W99300  33.896   0.631   4.552
34074W        W99301  21.222  13.399   4.959
34075W        W99302  42.113   7.792   4.119
34076W        W99303  20.491  34.376   0.805
34077W        W99304   7.802   8.331  12.905
34078W        W99305  22.152  11.574  14.917
34079W        W99306  28.181  22.107  10.931
34080W        W99307   6.252  38.475   0.700
34081W        W99308   7.775  10.426  10.088
34082W        W99309  27.673  31.119  14.002
34083W        W99310  20.114   3.360  10.615
34084W        W99311  27.534  37.522  12.065
34085W        W99312  17.690  44.356  11.492
34086W        W99313  19.453   5.675  14.165
34087W        W99314  14.219   6.361   3.268
34088W        W99315  22.547  35.031  13.373
34089W        W99316  39.313  22.387   3.371
34090W        W99317  21.351  14.414  10.251
34091W        W99318   3.390   9.952  13.781
34092W        W99319  21.753  20.196   4.542
34093W        W99320  15.172  41.252   0.907
34094W        W99321   7.353   9.628  14.047
34095W        W99322   3.574  15.549   5.140
34096W        W99323  19.571   5.212  12.436
34097W        W99324   8.092  19.184   3.587
34098W        W99325   2.664  32.806  11.079
34099W        W99326   3.678   0.350  13.483
34100W        W99327   6.190   2.358  13.494
34101W        W99328  12.782  17.814   4.375
34102W        W99329  13.111  42.832   3.327
34103W        W99330  27.930  37.848   2.774
34104W        W99331  35.121  22.743  10.720
34105W        W99332   8.325  32.555   5.497
34106W        W99333  17.188  35.374  11.805
34107W        W99334  36.915  15.600  12.045
34108W        W99335  41.445  23.069  11.566
34109W        W99336  33.937  20.997  10.470
34110W        W99337   6.925  20.065   2.721
34111W        W99338  38.883   6.925  12.282
34112W        W99339   7.398  11.466   3.617
34113W        W99340   0.244   0.805   3.676
34114W        W99341  35.394  24.555  12.620
34115W        W99342  27.684  10.361   4.149
34116W        W99343  41.313   7.806   2.199
34117W        W99344  39.140  40.883   2.234
34118W        W99345   3.984  13.669   0.947
34119W        W99346  18.633  21.063  12.552
34120W        W99347  12.104  30.475   0.490
34121W        W99348  20.002   1.473  12.552
34122W        W99349  12.777  13.594  14.454
34123W        W99350  30.976  10.788   4.789
34124W        W99351  16.005   6.151  10.105
34125W        W99352   0.728  27.663  14.036
34126W        W99353  36.245  37.955  14.207
34127W        W99354  38.481  43.132   0.172
34128W        W99355  38.580  21.839  13.840
34129W        W99356   5.325  27.370  11.770
34130W        W99357  32.343  25.668   3.120
34131W        W99358  25.600  33.870  14.003
34132W        W99359   6.843  28.233  10.788
34133W        W99360  31.047  43.468  11.552
34134W        W99361  27.077   8.945  14.507
34135W        W99362  20.026  16.350  11.941
34136W        W99363  18.329  42.417  13.329
34137W        W99364  40.007   6.159   3.128
34138W        W99365  44.267  25.249  11.546
34139W        W99366  16.555  44.713   0.041
34140W        W99367  22.754  38.421   0.979
34141W        W99368   5.336   3.973   0.282
34142W        W99369   4.309   2.900  12.707
34143W        W99370  36.892  43.528  10.425
34144W        W99371  32.598  10.177  11.933
34145W        W99372  37.663   8.792  11.410
34146W        W99373  17.209  27.455  14.930
34147W        W99374  18.569  29.159   2.634
34148W        W99375   1.310  20.130  10.499
34149W        W99376  44.287  37.158   2.727
34150W        W99377  41.373   6.820   2.168
34151W        W99378   6.765   1.076  11.487
34152W        W99379  20.702  19.226  14.877
34153W        W99380  39.207  29.408   0.388
34154W        W99381   5.351  25.382  11.653
34155W        W99382  22.546   7.931   0.385
34156W        W99383  41.431  15.292  13.840
34157W        W99384  29.808  39.380   4.190
34158W        W99385  14.513  26.653   1.083
34159W        W99386  36.529  43.982  14.975
34160W        W99387  36.362  10.858  12.509
34161W        W99388   0.370   8.860  12.057
34162W        W99389  16.009  39.411   1.224
34163W        W99390  42.874  30.667  11.014
34164W        W99391  40.961  28.413  14.029
34165W        W99392  39.468  10.582   0.268
34166W        W99393  13.513   5.771  11.635
34167W        W99394  40.069  12.817  14.980
34168W        W99395  38.989   2.851   0.800
34169W        W99396  22.835  33.292   1.712
34170W        W99397   6.153   8.797  11.860
34171W        W99398   0.834  26.542   2.096
34172W        W99399   5.335  43.330   3.647
34173W        W99400  26.027  11.055   4.691
34174W        W99401  42.545  36.225  12.597
34175W        W99402  30.567  40.359   3.801
34176W        W99403  39.287   4.989  12.000
34177W        W99404  43.034   9.492  13.001
34178W        W99405  37.370  43.880  11.659
34179W        W99406  34.116   4.424   4.587
34180W        W99407  19.798  37.672   3.660
34181W        W99408  38.462  31.844   2.838
34182W        W99409  30.099  31.371   3.507
34183W        W99410  35.856  33.180   3.628
34184W        W99411  19.459  32.708  12.884
34185W        W99412  15.155   6.837   0.403
34186W        W99413  35.691  43.726  10.928
34187W        W99414  18.334  26.889  12.657
34188W        W99415   1.884  14.798  11.127
34189W        W99416   9.105  19.713  11.109
34190W        W99417  21.169   8.796   5.006
34191W        W99418  38.237  11.171   3.063
34192W        W99419   8.807   6.705   2.147
34193W        W99420  22.949   7.382   2.780
34194W        W99421  42.502  25.656  13.976
34195W        W99422  15.066  32.583   0.863
34196W        W99423  10.917  10.822   2.720
34197W        W99424   7.188  22.562  14.398
34198W        W99425  19.865  28.059  14.017
34199W        W99426  15.084  32.302  10.222
34200W        W99427  15.221  26.917   1.285
34201W        W99428  28.549  16.003  12.815
34202W        W99429  21.492  16.640   1.464
34203W        W99430  18.251  37.584   2.221
34204W        W99431  31.543   1.908   3.288
34205W        W99432  20.765   1.969   3.657
34206W        W99433   0.360  35.409  13.325
34207W        W99434  31.644  27.666  14.929
34208W        W99435  15.985  17.240   0.429
34209W        W99436  17.661  38.423   1.005
34210W        W99437  32.865  32.432  14.049
34211W        W99438   0.220  25.038   2.738
34212W        W99439  26.088  15.852   1.494
34213W        W99440   6.781  12.015  10.749
34214W        W99441  39.612  22.916   4.608
34215W        W99442  44.302  34.131  10.998
34216W        W99443  37.776   9.395   3.157
34217W        W99444   6.037  43.014  10.136
34218W        W99445   3.767  27.414  14.507
34219W        W99446  23.834  28.658   4.888
34220W        W99447  37.151   1.242   4.366
34221W        W99448  44.871  38.908  11.318
34222W        W99449   3.654  42.290  13.786
34223W        W99450   6.830  31.370  13.329
34224W        W99451  29.458  24.032   1.846
34225W        W99452  34.653   4.877   1.254
34226W        W99453  42.763  25.743  14.994
34227W        W99454  10.727  21.657  12.064
34228W        W99455  27.445  16.692  13.293
34229W        W99456  20.248  18.210  12.399
34230W        W99457  18.551  11.323  11.542
34231W        W99458  32.608   9.829   1.258
34232W        W99459  30.320  24.796  13.558
34233W        W99460  40.360  14.288  10.998
34234W        W99461  13.836  36.121   2.005
34235W        W99462  16.165  14.172   0.645
34236W        W99463  20.631  20.985   3.239
34237W        W99464   3.796  12.602   4.332
34238W        W99465  36.210  30.039   3.632
34239W        W99466  26.920  41.211  13.997
34240W        W99467  15.368  14.556  12.299
34241W        W99468  10.453  20.030  11.172
34242W        W99469   6.425  13.821  13.345
34243W        W99470  19.083  38.292  13.956
34244W        W99471  37.832  16.362  11.527
34245W        W99472  36.850  30.726   3.097
34246W        W99473  26.228  13.631  12.139
34247W        W99474  29.837  15.177   2.299
34248W        W99475  19.990  34.492   4.244
34249W        W99476   0.556  37.545   2.125
34250W        W99477  27.464  36.831  12.473
34251W        W99478  41.234  33.858  13.435
34252W        W99479   1.033  13.755   3.043
34253W        W99480  36.640  36.466  12.900
34254W        W99481  22.652   3.840   3.669
34255W        W99482   2.669  32.660   3.987
34256W        W99483  27.467  16.423   2.175
34257W        W99484  30.488   7.235   4.666
34258W        W99485   3.435   5.368  14.970
34259W        W99486  26.091   2.018  13.481
34260W        W99487  25.725  27.246   4.178
34261W        W99488  31.657   7.868  10.662
34262W        W99489   2.160  22.111  13.381
34263W        W99490  21.186  26.560   0.231
34264W        W99491  29.549   5.832  13.781
34265W        W99492   1.562  38.020  14.372
34266W        W99493  13.857  27.932   3.380
34267W        W99494  12.469  21.057  10.714
34268W        W99495  42.567  33.620  13.474
34269W        W99496  38.174  38.287   4.214
34270W        W99497  23.225  17.157   1.351
34271W        W99498  10.152  26.209  11.783
34272W        W99499  12.235   1.664  11.654
34273W        W99500   4.958  44.913   4.219
34274W        W99501  26.171  25.060  13.127
34275W        W99502   9.425   8.901  13.810
34276W        W99503  21.608  28.147  14.208
34277W        W99504   6.782  21.545   2.630
34278W        W99505   1.985   9.177   2.283
34279W        W99506  13.190  39.911  10.635
34280W        W99507  17.439  20.677   4.125
34281W        W99508  23.186   5.242   2.126
34282W        W99509   4.787  23.953   2.257
34283W        W99510  33.639  20.763   3.227
34284W        W99511  37.627  11.751   1.779
34285W        W99512  39.001  15.241   3.189
34286W        W99513  17.959  40.922   0.363
34287W        W99514   9.932  28.692  13.370
34288W        W99515  33.555   0.888   3.448
34289W        W99516  30.454  41.405  14.763
34290W        W99517  26.570  29.983   0.193
34291W        W99518  34.464  40.405   4.131
34292W        W99519  44.060  40.065   4.075
34293W        W99520  38.661  39.728  14.910
34294W        W99521  38.405   4.766  13.964
34295W        W99522  41.073  33.066   1.510
34296W        W99523   8.301  27.464  14.086
34297W        W99524  44.377  44.284  12.982
34298W        W99525  19.344  38.796   3.240
34299W        W99526   3.396  26.351   0.267
34300W        W99527   6.470   3.298   5.048
34301W        W99528  11.701  26.504   4.725
34302W        W99529  10.678  42.506  14.782
34303W        W99530  30.119   4.789   4.380
34304W        W99531   9.667  10.257   4.861
34305W        W99532  25.229  36.410   5.190
34306W        W99533  25.574  38.330   1.921
34307W        W99534  40.754  19.741  12.014
34308W        W99535  16.743  39.347  11.404
34309W        W99536  31.450  18.167   3.664
34310W        W99537  33.110  25.693  11.835
34311W        W99538  15.265  42.343   2.860
34312W        W99539  30.484  10.769  11.906
34313W        W99540  11.742  39.488  11.908
34314W        W99541   1.197  29.374   1.441
34315W        W99542  20.528  14.779  12.806
34316W        W99543  21.225   2.348   3.114
34317W        W99544  36.389  20.719   1.257
34318W        W99545  15.196  37.795   2.234
34319W        W99546  27.243   5.973   2.838
34320W        W99547  22.559  36.454   0.543
34321W        W99548  34.914  23.773   4.789
34322W        W99549   8.332   4.928  11.839
34323W        W99550  18.199  18.704   2.671
34324W        W99551  17.294  33.528  11.517
34325W        W99552  31.252  25.899  10.469
34326W        W99553  44.890  27.835  14.916
34327W        W99554   8.126  32.775   1.272
34328W        W99555  25.916   7.102  14.815
34329W        W99556  27.146   3.912  14.956
34330W        W99557  38.445  15.575   4.243
34331W        W99558  37.616  22.520  12.964
34332W        W99559  12.107  18.151  13.036
34333W        W99560  38.163   4.505  10.689
34334W        W99561  28.714  18.563   3.388
34335W        W99562  26.956  40.702  13.836
34336W        W99563  39.298  17.620   0.487
34337W        W99564  14.831  10.094  10.262
34338W        W99565   5.828  31.023  11.499
34339W        W99566   4.319  23.910  14.297
34340W        W99567   6.675  25.676   0.269
34341W        W99568  43.117  40.122  11.410
34342W        W99569  39.874  12.609   3.545
34343W        W99570   6.666  15.478  13.974
34344W        W99571  25.576  32.884   3.619
34345W        W99572  28.034  14.165   0.344
34346W        W99573  17.622   0.977  11.515
34347W        W99574  38.345  11.505   0.338
34348W        W99575  11.782  12.119   4.225
34349W        W99576  32.437  26.080   9.847
34350W        W99577   6.755  29.608  10.832
34351W        W99578   5.764  11.101  14.541
34352W        W99579   4.341  41.953   2.143
34353W        W99580   2.459  28.051  12.464
34354W        W99581  24.616  33.007  14.022
34355W        W99582  27.003  43.354   3.360
34356W        W99583  41.752  17.337   1.701
34357W        W99584  23.148  34.442   0.815
34358W        W99585   0.409  38.228   0.013
34359W        W99586  25.958  30.724  14.581
34360W        W99587  34.543  10.589   3.988
34361W        W99588  31.740  21.962  14.559
34362W        W99589  30.837  36.161  13.326
34363W        W99590  19.772   8.975   3.778
34364W        W99591  25.712  17.257   2.801
34365W        W99592  33.067  12.309   1.931
34366W        W99593   0.932   1.849   2.552
34367W        W99594  43.913  26.136  12.268
34368W        W99595  26.158  33.906   1.449
34369W        W99596   2.436  21.631   2.850
34370W        W99597  23.016  37.938  10.738
34371W        W99598  15.786  40.594  13.750
34372W        W99599  21.531  30.177  13.767
34373W        W99600  31.501  38.552   0.958
34374W        W99601   5.749  18.810  12.464
34375W        W99602  33.568  31.171   0.233
34376W        W99603   0.766  34.410  10.247
34377W        W99604  36.567  21.177  12.313
34378W        W99605  17.145  44.170   1.231
34379W        W99606   5.504  21.180  13.512
34380W        W99607   7.795  44.689  12.562
34381W        W99608   2.369   2.697  14.017
34382W        W99609  33.913   5.717  12.674
34383W        W99610  42.634  34.161   3.381
34384W        W99611  38.472  25.781  10.592
34385W        W99612  43.525  23.940   1.684
34386W        W99613  39.318   8.142   1.267
34387W        W99614  32.310  24.060  12.892
34388W        W99615   9.683  21.592   0.311
34389W        W99616  38.018  14.274  14.957
34390W        W99617   8.929  18.303  14.013
34391W        W99618   1.858  20.787  14.689
34392W        W99619  44.025  34.066   4.198
34393W        W99620   8.634  30.429   2.783
34394W        W99621  38.963  44.158   0.762
34395W        W99622  14.157  42.600   0.954
34396W        W99623   7.886  37.458   2.124
34397W        W99624  44.302  22.099  10.971
34398W        W99625  18.002  39.140   2.315
34399W        W99626  30.231  21.585   2.498
34400W        W99627  12.620  23.246  14.506
34401W        W99628  24.767  25.770  12.342
34402W        W99629  27.190  34.584  12.085
34403W        W99630  44.388  32.196   3.436
34404W        W99631   9.553   4.911   2.600
34405W        W99632  34.320  11.876  12.134
34406W        W99633   0.973  43.528   0.921
34407W        W99634  27.362   0.836   1.232
34408W        W99635  19.356  24.569  14.500
34409W        W99636   9.297  25.439  12.074
34410W        W99637  19.521  20.212   0.272
34411W        W99638  22.274  38.848   3.136
34412W        W99639   7.179   9.416  13.112
34413W        W99640   4.983  35.181   4.181
34414W        W99641  27.938  39.336  14.415
34415W        W99642  30.065  41.912   3.201
34416W        W99643  33.300  21.418  13.976
34417W        W99644   4.907  27.131   2.616
34418W        W99645  23.619   0.528  14.948
34419W        W99646  44.542  30.369  10.253
34420W        W99647  40.108  31.909  13.375
34421W        W99648  14.282  27.431   0.016
34422W        W99649  21.113  10.353  11.483
34423W        W99650  31.631  30.312  14.396
34424W        W99651  38.419  36.241  10.766
34425W        W99652  39.075  44.093  14.899
34426W        W99653  33.040  15.814  10.952
34427W        W99654  22.263  28.800  12.122
34428W        W99655  36.701  20.551  13.478
34429W        W99656  23.548   2.263   1.702
34430W        W99657   6.244  38.042   2.703
34431W        W99658  34.096  43.058   0.351
34432W        W99659  43.714  18.554  14.530
34433W        W99660  35.895  43.492   4.008
34434W        W99661  42.852   0.278   1.009
34435W        W99662  15.355   7.241   4.234
34436W        W99663   8.893  15.088   2.364
34437W        W99664  36.886  23.572   2.606
34438W        W99665  19.935  26.589   0.370
34439W        W99666   3.259   7.666  13.377
34440W        W99667  33.377  22.538  12.334
34441W        W99668  25.587  19.596   2.445
34442W        W99669  13.854  38.448   0.722
34443W        W99670  41.990   1.393  12.922
34444W        W99671  32.472   8.843   4.561
34445W        W99672  41.548  34.928  10.827
34446W        W99673  20.171  37.588  12.320
34447W        W99674   5.958  14.668  10.383
34448W        W99675  37.512  23.947   1.788
34449W        W99676  35.504  41.299   4.553
34450W        W99677  35.465   7.766  10.883
34451W        W99678  19.120  33.909  11.552
34452W        W99679  19.410   3.859  14.671
34453W        W99680  30.404  39.943   2.335
34454W        W99681  44.186   2.741   0.421
34455W        W99682  34.082   9.280   2.782
34456W        W99683  43.521   8.316  10.112
34457W        W99684   6.797  20.652   0.854
34458W        W99685  20.316   1.654   3.738
34459W        W99686  35.135  22.693   0.143
34460W        W99687  34.181   3.006   3.807
34461W        W99688  34.837   2.686   3.390
34462W        W99689  19.718  15.532  14.372
34463W        W99690  36.151  25.561  14.944
34464W        W99691  35.486  27.525  14.533
34465W        W99692   2.191  20.079   1.781
34466W        W99693  21.279  20.169   2.344
34467W        W99694  41.654  36.116  14.355
34468W        W99695  18.560  19.023  14.967
34469W        W99696  26.143  25.741  12.535
34470W        W99697   7.707  25.937  10.477
34471W        W99698  15.553  20.615   0.809
34472W        W99699  23.433  11.296  11.257
34473W        W99700  28.644  39.611   3.172
34474W        W99701  21.305  42.463  14.803
34475W        W99702   1.285   2.943  10.809
34476W        W99703  16.097   9.231  13.764
34477W        W99704  16.819  34.562  11.610
34478W        W99705   6.459  16.256   2.741
34479W        W99706  17.023  33.100  14.392
34480W        W99707   4.352   7.898   1.908
34481W        W99708  41.404  34.799   2.430
34482W        W99709  21.958  29.994  13.987
34483W        W99710   6.865  34.723   4.774
34484W        W99711   9.997  44.370   0.244
34485W        W99712   0.637  22.808   3.688
34486W        W99713  28.397   3.919   3.631
34487W        W99714  38.681  40.376   3.817
34488W        W99715   0.300  41.809  14.339
34489W        W99716  31.236  27.180  11.766
34490W        W99717   0.686  41.371   0.256
34491W        W99718   1.389  20.066  11.855
34492W        W99719  15.817   8.820  13.924
34493W        W99720   0.278  20.445  11.228
34494W        W99721   0.767   4.216  12.390
34495W        W99722  44.870  12.836   4.732
34496W        W99723  40.036  39.437   2.349
34497W        W99724  13.008  43.680  12.673
34498W        W99725   0.863  33.604   2.281
34499W        W99726   1.636   9.264   4.034
34500W        W99727  30.099  16.946  11.457
34501W        W99728  35.561  42.771  11.712
34502W        W99729  26.743  16.509   4.082
34503W        W99730   3.342  28.396  11.957
34504W        W99731  21.305  28.856  14.007
34505W        W99732  20.174  26.492   4.990
34506W        W99733  14.791  42.432  11.829
34507W        W99734  44.386   6.069   3.872
34508W        W99735  20.764   4.186   3.113
34509W        W99736  35.305  12.639  11.977
34510W        W99737  13.891  30.850   3.726
34511W        W99738  34.232  38.331  11.995
34512W        W99739   1.401   8.345   2.458
34513W        W99740  10.300   8.877  12.701
34514W        W99741  16.791  24.964  10.705
34515W        W99742   4.080  31.506  12.390
34516W        W99743  42.215  25.711  11.838
34517W        W99744   0.661  42.838   5.219
34518W        W99745  24.107  36.772   3.106
34519W        W99746  33.938  35.369  12.152
34520W        W99747  22.512  33.810  10.734
34521W        W99748  23.208  38.597   0.334
34522W        W99749   9.276  21.123  14.976
34523W        W99750  19.307  39.173   4.120
34524W        W99751  19.654  38.495  11.028
34525W        W99752  11.954  16.820  11.148
34526W        W99753  34.443  19.030   4.096
34527W        W99754  43.920   5.922   4.726
34528W        W99755  32.899  40.676  13.748
34529W        W99756  18.344  23.633  11.163
34530W        W99757  21.131   7.608   3.231
34531W        W99758   5.100  40.508   2.343
34532W        W99759  39.084  27.335   4.310
34533W        W99760   0.712  15.576  12.823
34534W        W99761   9.394  44.922   2.051
34535W        W99762   6.140  21.037  11.594
34536W        W99763  22.057   1.446  12.719
34537W        W99764  44.959  30.408  14.017
34538W        W99765  16.545   0.136  13.791
34539W        W99766  43.326  44.283   1.846
34540W        W99767  32.333   3.999   4.089
34541W        W99768  30.126   4.746   2.847
34542W        W99769   3.469   0.702  14.772
34543W        W99770  35.367  17.364  11.600
34544W        W99771  28.197  32.435  14.849
34545W        W99772  36.396  40.499   1.907
34546W        W99773  24.529   1.578  10.257
34547W        W99774  20.864   3.194   3.154
34548W        W99775  36.513  17.812   0.407
34549W        W99776  27.628  10.923   0.655
34550W        W99777   5.644  33.584  11.396
34551W        W99778  13.402  44.853   4.106
34552W        W99779  43.996  24.737   1.834
34553W        W99780  15.052  40.287  11.172
34554W        W99781  34.830   0.743  12.994
34555W        W99782  28.773  43.478  11.179
34556W        W99783  21.127  42.503   3.379
34557W        W99784  31.116  30.167  14.294
34558W        W99785   8.952  44.640  11.497
34559W        W99786  12.787  11.042  13.373
34560W        W99787  23.507  18.982   3.274
34561W        W99788  12.428  36.779   3.682
34562W        W99789   3.013  15.574  10.985
34563W        W99790  19.289  23.153  11.881
34564W        W99791  43.582  42.425   0.463
34565W        W99792   8.176   0.713  11.132
34566W        W99793  33.863  20.493  11.839
34567W        W99794  32.660   5.665  11.509
34568W        W99795  20.749  30.878  14.755
34569W        W99796  32.974  17.066   3.724
34570W        W99797  30.559  43.670  11.574
34571W        W99798  14.875   0.879   3.756
34572W        W99799  13.654  35.049  12.035
34573W        W99800  41.346   8.278   1.629
34574W        W99801   3.993  31.954  13.914
34575W        W99802  18.245   6.691  11.568
34576W        W99803  14.752  38.005   1.559
34577W        W99804  34.536  39.365   4.040
34578W        W99805  12.247  31.946  10.732
34579W        W99806   5.694  28.232   1.749
34580W        W99807  34.423  32.962   1.275
34581W        W99808  17.648  26.661   3.020
34582W        W99809   8.244  29.557  10.752
34583W        W99810  38.264  43.501   3.752
34584W        W99811  39.371   3.872  12.012
34585W        W99812  35.094  20.238   0.776
34586W        W99813  23.151  40.068   1.200
34587W        W99814  43.752  35.485   0.353
34588W        W99815   7.395  14.804  14.775
34589W        W99816  42.882  12.872   0.468
34590W        W99817  32.084  13.174   0.362
34591W        W99818   6.523   8.824  13.618
34592W        W99819  39.383  14.991   1.627
34593W        W99820  27.410  15.619   1.743
34594W        W99821  36.628  16.547   1.031
34595W        W99822   8.922  25.384   0.306
34596W        W99823  36.574   4.305  14.780
34597W        W99824  32.970   1.261  14.815
34598W        W99825   5.439  28.140  10.605
34599W        W99826  28.145  32.330   2.841
34600W        W99827   9.274  36.973   2.104
34601W        W99828  13.452  14.934   0.115
34602W        W99829  23.243   9.911   1.738
34603W        W99830  18.263  44.292   3.169
34604W        W99831  24.639  30.109   4.098
34605W        W99832   7.418  13.694  11.047
34606W        W99833  24.044  32.373   4.169
34607W        W99834  11.595  42.784  14.502
34608W        W99835   4.687  34.598  10.701
34609W        W99836  34.944  29.192   4.955
34610W        W99837  12.782  40.485  12.465
34611W        W99838  16.126   3.711  10.982
34612W        W99839  44.462  44.693  11.993
34613W        W99840  26.529  35.996  10.383
34614W        W99841  32.321  38.828   0.879
34615W        W99842  36.451  20.123   0.803
34616W        W99843  30.909   9.294  10.635
34617W        W99844   8.841  25.319  13.552
34618W        W99845  13.220  19.275  14.240
34619W        W99846   6.933   3.362  11.900
34620W        W99847  24.998  42.211  14.784
34621W        W99848  42.995  39.039   3.684
34622W        W99849   5.647   9.304   0.921
34623W        W99850  40.466  13.769   4.292
34624W        W99851   7.934   4.966  14.228
34625W        W99852  17.554  36.044  14.733
34626W        W99853  33.668  28.517  10.699
34627W        W99854  44.105   7.405  13.626
34628W        W99855  25.308  24.093   5.056
34629W        W99856  38.157  39.721   0.003
34630W        W99857  28.566   2.690  11.617
34631W        W99858  24.365  44.073  14.872
34632W        W99859  44.960  41.094   2.122
34633W        W99860   5.182  35.918  12.494
34634W        W99861   2.786   9.224   3.324
34635W        W99862   0.543  13.080  13.697
34636W        W99863  28.044  38.067   1.747
34637W        W99864  33.437  36.340   2.729
34638W        W99865   1.579  23.083   0.867
34639W        W99866  37.110  39.902   3.843
34640W        W99867  41.452   7.813   3.632
34641W        W99868  33.490  30.180   3.372
34642W        W99869  44.518  37.553   4.418
34643W        W99870  21.992  18.724   0.452
34644W        W99871  24.235  31.291  13.252
34645W        W99872  43.376  28.162  14.786
34646W        W99873  14.832  16.806   1.886
34647W        W99874  15.180  36.857   3.432
34648W        W99875  35.120  16.725  14.982
34649W        W99876  38.432  39.409  12.217
34650W        W99877   2.267  21.122   1.091
34651W        W99878  29.395   4.847  11.548
34652W        W99879  42.076  26.231   1.400
34653W        W99880  34.697   7.125  11.147
34654W        W99881  19.699  23.211  13.316
34655W        W99882  39.831  40.489  10.752
34656W        W99883  43.935   9.919   0.248
34657W        W99884   4.830  41.934   0.267
34658W        W99885   2.666  42.304  12.984
34659W        W99886  21.787  31.560  10.663
34660W        W99887  24.836  18.625   1.893
34661W        W99888  21.977  32.656  14.712
34662W        W99889  28.227   0.841   2.369
34663W        W99890   3.718  26.145  10.511
34664W        W99891  37.313  37.568   0.897
34665W        W99892  44.330  40.401   2.247
34666W        W99893  41.489  33.208  12.887
34667W        W99894  42.518  25.664   3.958
34668W        W99895  39.806  31.148  10.809
34669W        W99896  13.213  18.088  10.719
34670W        W99897  37.853  42.401  13.547
34671W        W99898  16.115  16.807   4.113
34672W        W99899   7.097  23.389  14.026
34673W        W99900  10.876  36.952   3.762
34674W        W99901  35.148  40.572   0.036
34675W        W99902  35.325   1.975   4.789
34676W        W99903  43.708  36.098  12.552
34677W        W99904  24.955   6.907   4.582
34678W        W99905  33.923   8.504   4.207
34679W        W99906   9.736  15.519   1.676
34680W        W99907  20.687  11.267   4.383
34681W        W99908   6.360   0.726  11.199
34682W        W99909  26.103  41.437   2.563
34683W        W99910  23.688  32.689   2.197
34684W        W99911   9.834  30.490   9.773
34685W        W99912  17.457  23.220   2.244
34686W        W99913  12.938  17.253   0.734
34687W        W99914  44.509  30.285  11.968
34688W        W99915  29.059  24.248   3.663
34689W        W99916  37.513  18.219   0.408
34690W        W99917  15.634  19.113   0.509
34691W        W99918   3.921  32.472   0.793
34692W        W99919  11.843  24.900   0.861
34693W        W99920  25.946  34.474   2.149
34694W        W99921  11.214  19.715  13.405
34695W        W99922   2.942  17.065   4.534
34696W        W99923  23.560  37.768   4.037
34697W        W99924  30.039  11.458   2.846
34698W        W99925  28.858  35.944   3.557
34699W        W99926  16.117  11.699   2.883
34700W        W99927   7.847  36.243   2.805
34701W        W99928  10.750  15.360  12.907
34702W        W99929  19.740   6.642   2.203
34703W        W99930  38.259  29.660  12.335
34704W        W99931  36.978  12.653   3.308
34705W        W99932  12.143  23.639  12.870
34706W        W99933  41.732  31.598  12.483
34707W        W99934  27.026   3.389   3.622
34708W        W99935  18.086  39.608   1.970
34709W        W99936   7.346  33.210  14.479
34710W        W99937   8.732  29.394   4.443
34711W        W99938   8.006  42.375  14.625
34712W        W99939  28.731   9.163   4.178
34713W        W99940  26.000   9.091  14.953
34714W        W99941  26.435  18.971  10.693
34715W        W99942   8.991   1.375   0.418
34716W        W99943  18.343  18.165  12.549
34717W        W99944  15.548  21.327   1.365
34718W        W99945   1.774  36.425  13.070
34719W        W99946  15.383   9.370  10.727
34720W        W99947  12.373  43.178  12.397
34721W        W99948  12.269  34.632  10.715
34722W        W99949  27.872   8.725  13.857
34723W        W99950   6.905  20.782  11.225
34724W        W99951  36.716  34.043   2.941
34725W        W99952   4.494  21.340   1.871
34726W        W99953  25.111  44.081   1.286
34727W        W99954  36.472  43.034   0.387
34728W        W99955  44.412  42.286   3.377
34729W        W99956   5.559  24.748   2.440
34730W        W99957  25.765  25.196  10.690
34731W        W99958  40.843  28.537   3.272
34732W        W99959  21.390   0.332   4.460
34733W        W99960  15.075  28.611  12.415
34734W        W99961  33.919   0.961  11.590
34735W        W99962  36.204  30.654  10.851
34736W        W99963  15.800  17.836  11.750
34737W        W99964  17.671  14.218   1.198
34738W        W99965  26.742  16.360  12.621
34739W        W99966  26.947  39.389   1.794
34740W        W99967  12.718   8.095  14.568
34741W        W99968  34.009  10.624  10.783
34742W        W99969  26.823  27.887   4.945
34743W        W99970  13.170  35.534   1.421
34744W        W99971  10.621  37.942   1.669
34745W        W99972  21.562  11.835  10.839
34746W        W99973   7.087  11.220  13.540
34747W        W99974  17.914  25.872   3.379
34748W        W99975  24.976   8.294  13.862
34749W        W99976  14.594  27.433  13.693
34750W        W99977  30.337  35.895  11.723
34751W        W99978   4.594  39.023   0.471
34752W        W99979  34.440  44.985   2.369
34753W        W99980  44.685   4.255   1.216
34754W        W99981  30.838  26.340  12.593
34755W        W99982   4.347   9.365  12.607
34756W        W99983  24.466  37.793   4.623
34757W        W99984  26.490  21.236   1.419
34758W        W99985   7.709   6.290   2.641
34759W        W99986  32.117  20.912  11.184
34760W        W99987  26.810  32.089   1.062
34761W        W99988  39.294   8.642   2.209
34762W        W99989  37.845   7.443   4.099
34763W        W99990  20.105  26.922   3.691
34764W        W99991  39.285  16.025  13.438
34765W        W99992   4.737  23.799  14.000
34766W        W99993  23.179  29.021  10.193
34767W        W99994   4.530  28.666  13.959
34768W        W99995  24.009  13.740  11.256
34769W        W99996  21.585  17.783   0.397
34770W        W99997  19.098  16.095   0.334
34771W        W99998  16.187  12.137  12.443
34772W        W99999  38.735  36.015   0.511
34773W        W    0   6.196  26.336   1.924
34774W        W    1   3.909  30.686   3.140
34775W        W    2  32.644  40.500   1.389
34776W        W    3   4.200  39.039  11.996
34777W        W    4  28.480  21.107   2.375
34778W        W    5  13.894  41.695   1.954
34779W        W    6  20.708   7.906  10.773
34780W        W    7  29.432   9.627   1.029
34781W        W    8   5.137  19.800  14.017
34782W        W    9   3.925  34.246  13.333
34783W        W   10   6.191  32.422  11.972
34784W        W   11  39.558  32.449  11.291
34785W        W   12  26.129  21.762  11.572
34786W        W   13  21.745  37.405  10.674
34787W        W   14  42.833  17.988  11.612
34788W        W   15   2.591  42.370  13.925
34789W        W   16  38.861  25.181  13.944
34790W        W   17   4.990   1.421   0.382
34791W        W   18  12.293  23.715   3.804
34792W        W   19  39.581   4.986   0.746
34793W        W   20   1.051  38.363   4.944
34794W        W   21  14.546  44.009   1.706
34795W        W   22   0.613   6.770  12.691
34796W        W   23   8.442  17.137   4.930
34797W        W   24   0.883  10.302  11.156
34798W        W   25  37.987  32.105  10.850
34799W        W   26  31.473  24.489  12.995
34800W        W   27  32.070  44.678  14.249
34801W        W   28  36.501  39.545   2.813
34802W        W   29   7.293   6.689  11.203
34803W        W   30   9.700   2.688  11.656
34804W        W   31   3.007  25.622   4.561
34805W        W   32  28.671   3.945   4.060
34806W        W   33  28.223   6.900   0.195
34807W        W   34   6.371  37.495   0.975
34808W        W   35  37.103  21.123   4.902
34809W        W   36  37.333   0.053  13.973
34810W        W   37   2.452  42.875  10.852
34811W        W   38  28.067  18.294  11.686
34812W        W   39  17.300   6.363  14.064
34813W        W   40  14.579  14.660   3.753
34814W        W   41  18.007   5.719  10.844
34815W        W   42   9.390   8.740  12.766
34816W        W   43  15.682   1.553  11.056
34817W        W   44  33.423  21.740  13.191
34818W        W   45  31.133  42.149   0.619
34819W        W   46  39.536  42.833   1.094
34820W        W   47  14.904  25.416   0.876
34821W        W   48  21.918  26.681  14.015
34822W        W   49   8.280   1.453   2.679
34823W        W   50  44.992  33.913  10.606
34824W        W   51  40.273  31.707  11.142
34825W        W   52   3.959  40.975   3.400
34826W        W   53   2.162   5.881  12.115
34827W        W   54  24.552  26.641   2.388
34828W        W   55  27.415   6.460   2.842
34829W        W   56  18.172  14.704   4.604
34830W        W   57  33.955  13.925  11.116
34831W        W   58  23.450  18.782   3.803
34832W        W   59  34.905   2.125   3.334
34833W        W   60  40.919  17.427   0.736
34834W        W   61   4.784  35.988   3.773
34835W        W   62  25.503  18.088   1.724
34836W        W   63  14.795   2.498  12.239
34837W        W   64  13.181  26.141   1.475
34838W        W   65  19.795  33.409  14.811
34839W        W   66  10.867  22.964  12.121
34840W        W   67   4.482  18.208   1.468
34841W        W   68   2.856   2.524  14.007
34842W        W   69  30.232  23.697  13.070
34843W        W   70  19.113  34.649  12.881
34844W        W   71  43.863  39.616   2.147
34845W        W   72   3.928  39.005  14.538
34846W        W   73  24.438   9.714  10.898
34847W        W   74  35.560   8.509   0.406
34848W        W   75  32.597  43.340   2.762
34849W        W   76  30.990  37.312  14.820
34850W        W   77  34.902   2.321   3.818
34851W        W   78  22.051  40.713   1.953
34852W        W   79  12.787  28.978  13.470
34853W        W   80  32.409  11.912   1.446
34854W        W   81  20.772  31.681  12.403
34855W        W   82  24.008  16.332   3.314
34856W        W   83  32.246  12.527  10.656
34857W        W   84  18.108   9.389   4.315
34858W        W   85  20.259  23.622   4.320
34859W        W   86  23.568   6.919  14.742
34860W        W   87  30.179  33.301  13.810
34861W        W   88  40.121   4.112  13.139
34862W        W   89  17.285  20.435  13.791
34863W        W   90   9.083  31.998   0.695
34864W        W   91  23.523   2.852  12.851
34865W        W   92   9.355  41.314   3.631
34866W        W   93  24.900  28.889   4.661
34867W        W   94  31.745  15.691  14.168
34868W        W   95  35.102  30.161   1.452
34869W        W   96  36.001   8.876   4.498
34870W        W   97  44.256   0.752   3.625
34871W        W   98  10.061  15.168  11.823
34872W        W   99  34.423  33.178   2.189
34873W        W  100  26.036  12.266  11.656
34874W        W  101  40.289  42.382   1.213
34875W        W  102  21.165  25.287  12.065
34876W        W  103  39.097  41.451  10.441
34877W        W  104  37.580  43.960   4.806
34878W        W  105  17.069  35.521   2.744
34879W        W  106  32.024  35.237   9.903
34880W        W  107  28.983   1.973   2.214
34881W        W  108  17.945   4.834   3.345
34882W        W  109   4.462  27.485  12.957
34883W        W  110  27.937   5.219   9.992
34884W        W  111  12.669   9.313   0.894
34885W        W  112   6.472  30.853  13.907
34886W        W  113  15.628   3.326  13.079
34887W        W  114  28.507  14.768   4.098
34888W        W  115  31.637  42.919  10.573
34889W        W  116   1.190  40.712   3.288
34890W        W  117   3.929  36.108  13.550
34891W        W  118  28.566   4.351   4.392
34892W        W  119   2.784  14.831  11.589
34893W        W  120  43.872  36.572   0.342
34894W        W  121  22.902  40.707  14.917
34895W        W  122   9.699  19.503   4.607
34896W        W  123   2.462  15.600   2.166
34897W        W  124  38.792   8.183  14.424
34898W        W  125  40.575  40.527   4.289
34899W        W  126   1.227  24.536   2.217
34900W        W  127  15.869  40.839   3.597
34901W        W  128  13.308   5.927   2.685
34902W        W  129  32.151  17.451  10.562
34903W        W  130   0.854  44.070   0.825
34904W        W  131  42.818  24.723   4.933
34905W        W  132  31.361  33.929  14.610
34906W        W  133  40.358  11.904   0.349
34907W        W  134  37.238  35.477  11.611
34908W        W  135  14.774  21.845   3.551
34909W        W  136  19.208  41.726   4.112
34910W        W  137  12.666  15.130   1.351
34911W        W  138   6.653  13.799   2.832
34912W        W  139  20.189  41.136  11.679
34913W        W  140  39.844  18.093  10.750
34914W        W  141  11.332  13.737  13.482
34915W        W  142  19.229  10.630   4.334
34916W        W  143  27.065  21.163   3.096
34917W        W  144  19.252  39.285   3.025
34918W        W  145  11.189  37.902  11.563
34919W        W  146   7.573  35.025  12.392
34920W        W  147   9.643  22.150  14.159
34921W        W  148  23.043  22.189  11.184
34922W        W  149  40.423   6.648  11.959
34923W        W  150  42.490  11.764  12.605
34924W        W  151  36.860   8.038   3.994
34925W        W  152   0.731  14.891   1.637
34926W        W  153  23.170   9.134  12.442
34927W        W  154  15.245   3.283   0.939
34928W        W  155  38.973  22.820  10.014
34929W        W  156  22.017   8.672  14.479
34930W        W  157   3.256  11.266  10.565
34931W        W  158   9.896  24.658   1.226
34932W        W  159  30.945  29.594  10.240
34933W        W  160  36.860  43.721  12.514
34934W        W  161  20.474  38.984  14.390
34935W        W  162  38.583  21.825   4.544
34936W        W  163  40.456  23.737  12.581
34937W        W  164  11.408  30.029   1.940
34938W        W  165  32.131   8.144   3.643
34939W        W  166  16.643  42.841   3.727
34940W        W  167  20.481  33.972   2.783
34941W        W  168  22.596  11.791   3.626
34942W        W  169  30.644  18.563  14.470
34943W        W  170  41.996   3.235  11.593
34944W        W  171  31.936   5.976  14.013
34945W        W  172  25.109  28.665   4.195
34946W        W  173  28.967  44.538   3.470
34947W        W  174  13.347  44.393   1.349
34948W        W  175  24.714  10.928  13.387
34949W        W  176  42.612  39.897   0.411
34950W        W  177  18.009  11.089   4.178
34951W        W  178  42.726   4.526   3.124
34952W        W  179  10.525  33.148   3.098
34953W        W  180   2.366  44.641   1.463
34954W        W  181  30.198  15.214   0.155
34955W        W  182  31.019   6.134  12.904
34956W        W  183   9.721  44.496   2.060
34957W        W  184  13.159   8.602  14.643
34958W        W  185  28.862  12.354  12.478
34959W        W  186   7.384  16.251  13.728
34960W        W  187  12.372   7.875   0.050
34961W        W  188  16.571   9.054   3.338
34962W        W  189  12.598  44.828   1.212
34963W        W  190  20.902   1.678   4.063
34964W        W  191  27.689  40.841  13.519
34965W        W  192  18.718  42.819   2.120
34966W        W  193  21.199   9.631  14.702
34967W        W  194  27.520  32.396  13.135
34968W        W  195  23.448  35.945   0.011
34969W        W  196   5.030  16.746   9.827
34970W        W  197   9.182  40.618  10.780
34971W        W  198  17.987   9.520   0.821
34972W        W  199  33.512  17.534  13.435
34973W        W  200   6.418  35.216  13.423
34974W        W  201  38.274  40.381  12.626
34975W        W  202  13.855  22.166   3.198
34976W        W  203  44.871  14.333   4.279
34977W        W  204  31.842  20.199   4.657
34978W        W  205  38.851  18.674   0.964
34979W        W  206  18.088   8.925  12.495
34980W        W  207  32.072   9.826  13.770
34981W        W  208  14.489  40.999  12.528
34982W        W  209  39.116  39.849   3.060
34983W        W  210  39.301  21.373  11.314
34984W        W  211  23.876  18.064   1.813
34985W        W  212  38.600  19.009   0.560
34986W        W  213  36.562  22.727  13.179
34987W        W  214   8.056  28.898  13.689
34988W        W  215   5.775  26.058   4.589
34989W        W  216  12.640  24.721   1.924
34990W        W  217  29.495  40.425   1.772
34991W        W  218   0.739  29.827   4.534
34992W        W  219  16.588  38.049   4.355
34993W        W  220  37.818  24.428  13.964
34994W        W  221  44.786  31.867  11.575
34995W        W  222  28.393  38.663  13.763
34996W        W  223   3.654   9.927   1.012
34997W        W  224  34.328  42.295   1.581
34998W        W  225  39.405   1.734  12.265
34999W        W  226  30.863  39.401   3.380
35000W        W  227  12.819  14.623   1.444
35001W        W  228  10.867   0.790  13.046
35002W        W  229  10.683  17.168   4.148
35003W        W  230  24.099  25.294   1.956
35004W        W  231  10.311   4.633   3.383
35005W        W  232  41.307   2.404   4.524
35006W        W  233  43.421  33.804   0.711
35007W        W  234   1.461   6.579  10.600
35008W        W  235  34.000  16.434   0.336
35009W        W  236  38.906  32.143   3.597
35010W        W  237  32.609  15.285  14.378
35011W        W  238  31.076  23.278   2.796
35012W        W  239   7.396  41.263  13.232
35013W        W  240  17.803   8.231   1.302
35014W        W  241  25.059  14.517   2.744
35015W        W  242  11.211   4.305   2.127
35016W        W  243  17.125  42.178  14.413
35017W        W  244  29.735  28.619  14.380
35018W        W  245  24.771  29.038  10.826
35019W        W  246  29.166   1.243  10.646
35020W        W  247  31.317  38.978   0.688
35021W        W  248  31.427  37.907  12.089
35022W        W  249  26.785  10.305  13.795
35023W        W  250  16.904   2.824   2.479
35024W        W  251  17.026   4.276  12.976
35025W        W  252  11.104  12.936  10.804
35026W        W  253  33.077  17.559   0.273
35027W        W  254   1.225  16.258  13.333
35028W        W  255  24.958  29.343   3.309
35029W        W  256  28.373   3.478   3.360
35030W        W  257  27.417   0.295  13.290
35031W        W  258  43.959  13.735  12.456
35032W        W  259  37.511   1.268  12.906
35033W        W  260  27.514  30.330   2.664
35034W        W  261   1.706  13.407   4.224
35035W        W  262  31.175  11.295   3.284
35036W        W  263  19.300  41.556   3.284
35037W        W  264  28.541  19.528  12.456
35038W        W  265   0.735  28.591   1.664
35039W        W  266  25.569  42.692   0.537
35040W        W  267  32.984   6.805   2.684
35041W        W  268   2.939  29.289   1.827
35042W        W  269  17.169  44.615   2.339
35043W        W  270   0.057  32.257   4.644
35044W        W  271  11.775  42.201  13.046
35045W        W  272   2.380  18.495   2.886
35046W        W  273  16.255  22.968   2.138
35047W        W  274  34.603  33.589   3.678
35048W        W  275  43.904  33.914  10.683
35049W        W  276  20.975  26.577  12.924
35050W        W  277  19.314  12.491   4.548
35051W        W  278  26.056  36.227  10.447
35052W        W  279  38.524   0.075  12.043
35053W        W  280  21.192  40.377   4.942
35054W        W  281  14.829   6.821   4.968
35055W        W  282  35.081  10.415  14.060
35056W        W  283  14.263  43.572  13.981
35057W        W  284  19.403  33.222   0.748
35058W        W  285  36.183  31.904  14.918
35059W        W  286  29.564   3.985   0.748
35060W        W  287  42.460   8.343   4.438
35061W        W  288  13.703  26.608   2.730
35062W        W  289  24.433  26.101   1.556
35063W        W  290  18.847   0.984   1.712
35064W        W  291  26.610  34.344  10.979
35065W        W  292  36.932  42.330   0.365
35066W        W  293   9.799  23.475   3.116
35067W        W  294   5.130  42.738  11.220
35068W        W  295  10.592   0.484   1.963
35069W        W  296   6.578  29.940  11.166
35070W        W  297  11.256  26.559  13.525
35071W        W  298   8.481  22.577  10.898
35072W        W  299   5.185   4.817   0.565
35073W        W  300   1.075   3.275   2.776
35074W        W  301  27.033   4.954  13.002
35075W        W  302   3.964   9.714  12.152
35076W        W  303  39.043  44.994  12.956
35077W        W  304   8.415  42.264  12.679
35078W        W  305   5.736   0.318  12.008
35079W        W  306  17.832   5.492   2.909
35080W        W  307  31.593  17.475  12.960
35081W        W  308  15.916  10.397  11.601
35082W        W  309  11.434  41.430   1.584
35083W        W  310  43.069   3.767   4.955
35084W        W  311  12.272  14.362   1.217
35085W        W  312  30.803   3.823   1.287
35086W        W  313  17.089  11.628   0.380
35087W        W  314  15.977  34.297   1.734
35088W        W  315  13.656  34.936  14.243
35089W        W  316  13.057  18.751   4.209
35090W        W  317  33.930  43.017   4.347
35091W        W  318  29.011   1.455  12.125
35092W        W  319  41.815  12.307  13.513
35093W        W  320  17.005  23.113  14.998
35094W        W  321   5.089  44.905  14.281
35095W        W  322   7.152  10.077   1.946
35096W        W  323  33.148   7.367  11.143
35097W        W  324  36.006   8.599  14.731
35098W        W  325   2.579  32.313  12.442
35099W        W  326  36.782  26.203  14.079
35100W        W  327  13.234  37.941  12.549
35101W        W  328  24.514   3.834   2.674
35102W        W  329  17.157  33.327   3.013
35103W        W  330  33.874  41.807  14.796
35104W        W  331  25.086  30.676  12.060
35105W        W  332  20.744  17.071  14.358
35106W        W  333  33.312   2.374  14.775
35107W        W  334  22.599   8.368   4.564
35108W        W  335  13.531  19.727   3.419
35109W        W  336   5.504   7.402  12.424
35110W        W  337  16.860   1.932  14.035
35111W        W  338  31.204   0.975  14.960
35112W        W  339   9.367  20.537   0.209
35113W        W  340  28.589  26.210   4.577
35114W        W  341  21.551  36.002  10.748
35115W        W  342  26.583   5.385   1.286
35116W        W  343  36.851  29.048   3.072
35117W        W  344   6.493   5.693  14.822
35118W        W  345  13.610  44.805  12.938
35119W        W  346  34.646  22.228   3.170
35120W        W  347  16.971  35.545  13.805
35121W        W  348   0.038  26.778  12.556
35122W        W  349   2.858  32.295  13.378
35123W        W  350   7.094  16.259   3.345
35124W        W  351  29.636  25.537   1.836
35125W        W  352  25.141  14.245   3.754
35126W        W  353  12.616  23.964   0.932
35127W        W  354  25.183  24.183   0.846
35128W        W  355  13.344  38.090  12.076
35129W        W  356   9.264  10.089   1.272
35130W        W  357  13.749  42.858   4.625
35131W        W  358  13.168  17.576   4.622
35132W        W  359  23.545  40.917  11.027
35133W        W  360  23.376   9.787   3.879
35134W        W  361  29.709   8.910   0.563
35135W        W  362  39.090  15.723  14.127
35136W        W  363  12.842  29.179  12.974
35137W        W  364  20.746  37.547  13.910
35138W        W  365   5.159  26.065  11.862
35139W        W  366  38.147  37.415  12.898
35140W        W  367  18.783   6.146  10.438
35141W        W  368  22.782  18.581   4.490
35142W        W  369  25.108  18.668   1.438
35143W        W  370  11.060   4.347  10.956
35144W        W  371  14.048  38.612  12.581
35145W        W  372  40.742   4.413   0.472
35146W        W  373  42.344  37.891  12.665
35147W        W  374   8.879  44.272   0.394
35148W        W  375  41.861  12.406   2.454
35149W        W  376   0.323  40.739  13.093
35150W        W  377  42.008  30.426   1.753
35151W        W  378  35.352  44.125   4.344
35152W        W  379  43.000  17.720   3.641
35153W        W  380   4.616  18.106   9.992
35154W        W  381  44.352  27.611  13.356
35155W        W  382  44.906  18.809  12.051
35156W        W  383  35.079  21.029  12.126
35157W        W  384  40.073  23.276   3.049
35158W        W  385   2.003  37.824   0.419
35159W        W  386  16.615  26.447   0.830
35160W        W  387   2.145   9.726  12.951
35161W        W  388   2.707   9.120  14.533
35162W        W  389  16.185  44.309  11.603
35163W        W  390  34.064  17.041  12.853
35164W        W  391  17.873  16.230  10.975
35165W        W  392  30.605  34.393   1.472
35166W        W  393   2.485  18.385   4.915
35167W        W  394  33.898   6.467   2.394
35168W        W  395  26.936  23.740   3.480
35169W        W  396   4.348  11.666  10.453
35170W        W  397   1.150  27.953   3.133
35171W        W  398  19.679  26.538  14.932
35172W        W  399  23.702   8.207   1.322
35173W        W  400  22.527  35.106   0.326
35174W        W  401   3.014   2.913  13.264
35175W        W  402  18.027   6.250  12.529
35176W        W  403  19.116  11.831   4.559
35177W        W  404  22.293  17.205  14.380
35178W        W  405  38.305  17.783  12.371
35179W        W  406   2.961   5.069   3.533
35180W        W  407  24.595  22.865   1.772
35181W        W  408  13.523  13.769  14.777
35182W        W  409   9.814  39.803  13.118
35183W        W  410   2.326  40.686   3.771
35184W        W  411  33.654  26.269   3.739
35185W        W  412   4.254  36.843  14.521
35186W        W  413  30.548   4.475   2.597
35187W        W  414  21.667  28.004   3.556
35188W        W  415  23.044  19.346   3.109
35189W        W  416  29.478  38.084  10.602
35190W        W  417  41.151  26.656   0.447
35191W        W  418   7.423  16.763   4.483
35192W        W  419  25.973  20.967  11.186
35193W        W  420  42.093  41.335   5.220
35194W        W  421  22.805  10.864   4.780
35195W        W  422  22.685  21.648   2.991
35196W        W  423  18.365  37.443  12.587
35197W        W  424  39.888  34.889  12.462
35198W        W  425  44.083   1.454   0.192
35199W        W  426  18.026  32.283   2.700
35200W        W  427  39.561  37.458   4.822
35201W        W  428  18.252  10.525   0.975
35202W        W  429  34.596  26.337  13.910
35203W        W  430  42.956   8.614  14.998
35204W        W  431  19.111   7.946   3.807
35205W        W  432  31.525   5.695  14.239
35206W        W  433   1.679  32.718  12.036
35207W        W  434   0.201  10.093   4.234
35208W        W  435  28.514  20.326   1.974
35209W        W  436   8.429  20.069   2.682
35210W        W  437  42.872  40.238  14.542
35211W        W  438   4.354  31.027  14.948
35212W        W  439  26.704  30.929   2.788
35213W        W  440   7.432  18.729   1.455
35214W        W  441  13.313  43.289  12.881
35215W        W  442  21.273  32.601  12.494
35216W        W  443  38.142  38.474  13.012
35217W        W  444  10.828  32.150   2.306
35218W        W  445  22.672  25.369   3.650
35219W        W  446  32.601   3.431   0.345
35220W        W  447   0.287  17.215  13.437
35221W        W  448  28.106  18.511   4.649
35222W        W  449  21.076   7.892  11.496
35223W        W  450  24.622  22.402  11.553
35224W        W  451  20.775  44.224  10.995
35225W        W  452  36.096  21.311  10.551
35226W        W  453  41.395  16.318   4.603
35227W        W  454  29.109   5.473   0.026
35228W        W  455   1.327  17.774  13.730
35229W        W  456  19.583  12.437  12.811
35230W        W  457  34.103  33.386   4.864
35231W        W  458  12.860  23.136   3.205
35232W        W  459  33.806  43.580   3.084
35233W        W  460   9.794   6.313   2.859
35234W        W  461  34.988  13.237   4.755
35235W        W  462  43.316   6.712  12.449
35236W        W  463  12.313  33.020   0.843
35237W        W  464  17.148   0.289   3.481
35238W        W  465   1.488   2.388   0.715
35239W        W  466  37.594  43.499  14.813
35240W        W  467  25.556  24.091  13.554
35241W        W  468  37.550  25.561  10.567
35242W        W  469  35.907  33.039   4.720
35243W        W  470  43.300  41.330   2.341
35244W        W  471  40.752   9.872   4.087
35245W        W  472  17.782  26.230  11.548
35246W        W  473   1.457  39.089  13.526
35247W        W  474  28.900  25.123   1.399
35248W        W  475  22.738  14.157   1.338
35249W        W  476  21.096  41.497  10.698
35250W        W  477  37.042   5.395   3.692
35251W        W  478  14.810  32.767   5.320
35252W        W  479  19.481  38.292   1.753
35253W        W  480   6.270  40.068  14.969
35254W        W  481  12.271   6.576   0.814
35255W        W  482  16.649  14.000  13.793
35256W        W  483  14.615  20.119   0.890
35257W        W  484  33.509   2.823   1.192
35258W        W  485  12.635  42.764  14.294
35259W        W  486   8.842   3.766  12.670
35260W        W  487  15.437  31.927   0.185
35261W        W  488   1.709  22.958  13.095
35262W        W  489  42.385  13.460   0.699
35263W        W  490  28.574  38.348   4.182
35264W        W  491  43.485   8.972   3.667
35265W        W  492  32.691  18.337  11.518
35266W        W  493  14.523   1.866  13.578
35267W        W  494   2.726  12.200  14.873
35268W        W  495  15.791   7.592  12.791
35269W        W  496   3.476  21.008  14.974
35270W        W  497  43.141  36.787   1.922
35271W        W  498   6.230  30.545  11.934
35272W        W  499  33.350  39.796   1.155
35273W        W  500  38.938  31.475   2.826
35274W        W  501  12.820   3.187  11.321
35275W        W  502  22.938  22.103   1.947
35276W        W  503   5.653  25.880  14.773
35277W        W  504   7.440  37.401   0.721
35278W        W  505  43.627  21.572  10.801
35279W        W  506  13.599  11.405   0.719
35280W        W  507  39.509  44.435   4.125
35281W        W  508  23.559  35.979   0.952
35282W        W  509   9.848  39.631   0.027
35283W        W  510  10.903  28.225  13.201
35284W        W  511  24.296  17.391  13.934
35285W        W  512  29.619  24.554   1.937
35286W        W  513   1.645  31.961  10.927
35287W        W  514  14.246  44.311  14.557
35288W        W  515   0.428  30.126  12.979
35289W        W  516  33.089  25.408  12.869
35290W        W  517   5.702  23.503   0.949
35291W        W  518   8.223   0.578   3.709
35292W        W  519  26.089   9.341  10.624
35293W        W  520  42.347  30.273   2.737
35294W        W  521  31.960  21.772   4.231
35295W        W  522  17.397  36.924  13.896
35296W        W  523  34.633  38.893  13.963
35297W        W  524  43.373   1.231  12.906
35298W        W  525  27.053  29.645   4.771
35299W        W  526  38.491  41.100  13.101
35300W        W  527  27.282  23.979   4.406
35301W        W  528   4.434   8.934  12.912
35302W        W  529  14.069  14.094   4.928
35303W        W  530  32.653   0.003   1.714
35304W        W  531  41.946  14.839  13.432
35305W        W  532  26.716  37.874  13.997
35306W        W  533   3.877  26.571  10.771
35307W        W  534  30.306  43.880   4.434
35308W        W  535  34.147  21.657   4.627
35309W        W  536   5.652  15.606  13.588
35310W        W  537  11.140  20.664   2.804
35311W        W  538  24.590  21.146   3.223
35312W        W  539   0.742  25.422   4.524
35313W        W  540  29.996   8.310  11.575
35314W        W  541  42.775  31.476   3.412
35315W        W  542  28.385  12.284  11.576
35316W        W  543   0.346  22.539  14.731
35317W        W  544  14.946  25.292   2.638
35318W        W  545  29.095  43.911   0.693
35319W        W  546  15.045  43.524  10.662
35320W        W  547  18.201  15.015   1.245
35321W        W  548  34.780  44.702  12.110
35322W        W  549   6.341  19.501   2.308
35323W        W  550  21.912  17.789   2.422
35324W        W  551  13.849  40.522   3.285
35325W        W  552   7.254  27.130   1.808
35326W        W  553  29.213   7.802   0.386
35327W        W  554  10.870   2.845   2.335
35328W        W  555   0.513  38.144   1.907
35329W        W  556   2.543  11.517  12.991
35330W        W  557  20.933   2.382  12.640
35331W        W  558  28.845  14.746  14.940
35332W        W  559  25.999  20.292  13.960
35333W        W  560  31.034  25.792  11.475
35334W        W  561   9.473  31.097   0.536
35335W        W  562  29.872  19.678   2.211
35336W        W  563  42.130  34.668   2.559
35337W        W  564   1.400   3.690  12.083
35338W        W  565  30.966  33.634  14.860
35339W        W  566  27.539   8.939   4.066
35340W        W  567  31.084  37.412   1.253
35341W        W  568   7.932  25.026  11.658
35342W        W  569  44.524  30.103  14.301
35343W        W  570   3.848   7.192   3.901
35344W        W  571  39.521  40.593  12.916
35345W        W  572  10.688   4.619  13.799
35346W        W  573  35.842  17.273  11.040
35347W        W  574   8.884  30.660   2.354
35348W        W  575  32.464  28.490   0.363
35349W        W  576  14.374  11.344   0.950
35350W        W  577  24.719  37.424  12.520
35351W        W  578   2.630   1.084  13.051
35352W        W  579  33.843  43.515   2.186
35353W        W  580  22.614  42.860  11.132
35354W        W  581  16.777   2.050   1.367
35355W        W  582   8.543  25.117   1.200
35356W        W  583   1.143  41.313   2.812
35357W        W  584  34.012  27.743  11.599
35358W        W  585  22.947  13.089  11.981
35359W        W  586  13.218  12.763  13.653
35360W        W  587  42.036  41.074   1.711
35361W        W  588  25.638  28.145  14.409
35362W        W  589  21.687  40.029   2.452
35363W        W  590   0.884   9.694  13.602
35364W        W  591  11.997  18.265  11.079
35365W        W  592  13.376   6.395   2.904
35366W        W  593  20.468  18.363  12.843
35367W        W  594  30.822  39.285   0.268
35368W        W  595  18.944  16.039   2.151
35369W        W  596   5.569  29.033  11.613
35370W        W  597  16.053  43.116  10.803
35371W        W  598   3.498   1.859   0.653
35372W        W  599  30.603  15.071   2.764
35373W        W  600  26.117   9.668  13.784
35374W        W  601  21.298  27.742  13.988
35375W        W  602  12.217   4.199  11.880
35376W        W  603  17.990  17.885  12.319
35377W        W  604   7.815   5.832  12.505
35378W        W  605  38.748  41.470  13.876
35379W        W  606  18.103  14.147   3.234
35380W        W  607  35.282  30.327   2.355
35381W        W  608  29.957  20.615   3.808
35382W        W  609  13.819  29.683  12.991
35383W        W  610   6.972  12.388  14.001
35384W        W  611  39.967  44.981  11.148
35385W        W  612   1.005  31.849  12.724
35386W        W  613  17.588  32.561  12.696
35387W        W  614  12.759  43.942   3.685
35388W        W  615  22.245   8.824   0.898
35389W        W  616  19.075  40.471   4.471
35390W        W  617  30.183  34.430  14.456
35391W        W  618  37.441  35.432   3.169
35392W        W  619  11.202  35.378   3.643
35393W        W  620  42.462  32.638  11.389
35394W        W  621  24.529  20.826   1.254
35395W        W  622   5.696  43.323  11.565
35396W        W  623   1.628  34.177   0.738
35397W        W  624  37.178  34.645   3.691
35398W        W  625  24.594  21.036  14.383
35399W        W  626   9.688   6.788  14.801
35400W        W  627  25.548   2.750   2.359
35401W        W  628  11.943  35.117  13.889
35402W        W  629   0.410  37.068   2.268
35403W        W  630  42.373  19.120  11.598
35404W        W  631  22.634  28.137  14.322
35405W        W  632  42.864  14.223  13.845
35406W        W  633  44.266  21.311   5.433
35407W        W  634   0.251   5.646   0.355
35408W        W  635  21.627  16.584  14.525
35409W        W  636  43.741   8.787  10.895
35410W        W  637   5.694   6.183  13.358
35411W        W  638  34.147  22.577  10.762
35412W        W  639  37.842  16.992   3.193
35413W        W  640   6.121  38.852   1.394
35414W        W  641  21.692  36.015   0.381
35415W        W  642  40.801  26.740   3.660
35416W        W  643  12.525  21.761  13.413
35417W        W  644  41.966  43.187   0.260
35418W        W  645   3.396  16.608   1.013
35419W        W  646  29.035   6.679  14.600
35420W        W  647  31.532  36.027  10.753
35421W        W  648  31.058   5.853   0.011
35422W        W  649  22.048   9.134   3.690
35423W        W  650  20.546   7.350   3.917
35424W        W  651  23.227   0.928   2.454
35425W        W  652  34.798   1.138   3.212
35426W        W  653  37.057  37.502   1.372
35427W        W  654  39.628  39.205  12.411
35428W        W  655  23.641  16.641   4.515
35429W        W  656  13.303  40.126  10.164
35430W        W  657  30.637  43.594   3.205
35431W        W  658  43.337  37.852   0.319
35432W        W  659   0.602  31.713   2.064
35433W        W  660  17.773   5.278  14.734
35434W        W  661   2.315  36.302  14.327
35435W        W  662  31.530  33.137  12.491
35436W        W  663  12.249   7.821   1.066
35437W        W  664  21.710  31.023   2.695
35438W        W  665  40.373   9.842   3.062
35439W        W  666  29.173  12.499  10.246
35440W        W  667  22.893  44.819   0.348
35441W        W  668   6.715   6.676  13.032
35442W        W  669  37.854  32.572  10.985
35443W        W  670  11.108   8.261   3.158
35444W        W  671  25.587  15.744   1.384
35445W        W  672  39.248  21.770  10.885
35446W        W  673  25.916  34.869  13.841
35447W        W  674  26.493   5.365   3.629
35448W        W  675   0.446  23.109   0.487
35449W        W  676  23.840  41.903  12.544
35450W        W  677   1.900   3.700  10.649
35451W        W  678  42.952   9.829  12.556
35452W        W  679  42.451  43.526  11.680
35453W        W  680  40.003  12.229  12.115
35454W        W  681  34.320  13.322   3.241
35455W        W  682   0.774  40.321   0.344
35456W        W  683  41.985  35.775   0.165
35457W        W  684  37.507  27.245  11.675
35458W        W  685  35.410  33.867  12.350
35459W        W  686   0.500  32.783   2.153
35460W        W  687  28.241  43.156  13.743
35461W        W  688   5.110  13.265   1.427
35462W        W  689   8.050  14.669   4.280
35463W        W  690  33.696  18.961  12.350
35464W        W  691  14.305  32.490   1.463
35465W        W  692  26.109  25.906  13.026
35466W        W  693   2.883   8.827   1.764
35467W        W  694   9.685  16.182  14.385
35468W        W  695  20.597   6.306   2.418
35469W        W  696  29.236  41.669  12.365
35470W        W  697  41.984  30.592   3.085
35471W        W  698  19.156  18.654  12.190
35472W        W  699   3.040  20.203  11.648
35473W        W  700  12.332  24.806  12.880
35474W        W  701  38.007   3.391  12.420
35475W        W  702   0.001  29.444   3.302
35476W        W  703  21.577  35.527  11.015
35477W        W  704  17.508  43.826  12.604
35478W        W  705   1.045   1.893   3.181
35479W        W  706  21.255   3.770   3.645
35480W        W  707  26.204  40.618   4.531
35481W        W  708  33.457   6.971   1.398
35482W        W  709  12.595   8.692  11.129
35483W        W  710  21.997  29.886  13.472
35484W        W  711  26.429  12.414   0.501
35485W        W  712  23.033  10.414   0.655
35486W        W  713  44.570  31.594   2.369
35487W        W  714  25.262   3.187   0.735
35488W        W  715  26.003   3.153   3.032
35489W        W  716  11.734  25.973   4.876
35490W        W  717  41.477   1.266  14.397
35491W        W  718  23.582  17.329  14.930
35492W        W  719  43.060  36.723  14.350
35493W        W  720  12.146  41.027  10.654
35494W        W  721  11.129  42.048  11.228
35495W        W  722  33.618  27.970   1.255
35496W        W  723   3.175  29.104  13.828
35497W        W  724  29.192  10.452   3.716
35498W        W  725  43.090  24.567  12.104
35499W        W  726  28.864   5.918   3.877
35500W        W  727  33.430  22.297  14.914
35501W        W  728   5.325  39.945  12.117
35502W        W  729   1.738  31.397   4.547
35503W        W  730  41.972  24.922   2.832
35504W        W  731  15.230  30.402  12.291
35505W        W  732   6.297  38.110  11.164
35506W        W  733  31.997  35.178   5.344
35507W        W  734  21.479  27.456   1.432
35508W        W  735  31.156   6.938  14.145
35509W        W  736   7.405  44.209   1.269
35510W        W  737   5.647  37.956  12.044
35511W        W  738  34.030  21.768   3.735
35512W        W  739  15.902   9.335  10.759
35513W        W  740  17.688  38.744  14.082
35514W        W  741  28.617  11.831  13.894
35515W        W  742  43.802   0.389  13.545
35516W        W  743  14.161   5.736   1.006
35517W        W  744   9.095  22.757   1.384
35518W        W  745   0.614  33.386  11.627
35519W        W  746  41.935  38.241  13.291
35520W        W  747  31.164  27.509  14.830
35521W        W  748   9.341   7.833  13.465
35522W        W  749  42.556  44.052  12.823
35523W        W  750  11.635  43.160   2.811
35524W        W  751  39.435  35.837  11.269
35525W        W  752   1.461  25.601   9.757
35526W        W  753  12.380  27.956  13.014
35527W        W  754  38.055  29.435  11.920
35528W        W  755  43.100   0.597  10.502
35529W        W  756  44.263  39.281   1.332
35530W        W  757  16.936  20.661   4.182
35531W        W  758  44.885  40.808  13.395
35532W        W  759  10.937  13.105   0.355
35533W        W  760  20.305  40.872   0.369
35534W        W  761  13.069   3.446  10.328
35535W        W  762  20.226  14.570  10.662
35536W        W  763  30.923   0.488  14.925
35537W        W  764  40.450  29.171  13.918
35538W        W  765  23.218   2.489  14.145
35539W        W  766   8.772  20.206  14.954
35540W        W  767  34.130   6.511  10.624
35541W        W  768  20.763  43.637   1.240
35542W        W  769   6.219  10.839  14.493
35543W        W  770  27.595  10.901  14.801
35544W        W  771  35.953  30.421   4.133
35545W        W  772   4.474  41.889  14.409
35546W        W  773   0.033   2.024  11.540
35547W        W  774  28.492  44.904   2.963
35548W        W  775   7.825  10.628   3.180
35549W        W  776   0.820  12.828  14.935
35550W        W  777  14.642  20.795   2.331
35551W        W  778   3.961   6.421  10.661
35552W        W  779  11.628  36.141  12.999
35553W        W  780   4.323  26.024   3.350
35554W        W  781  44.052   1.492  14.084
35555W        W  782  32.969  35.013  14.316
35556W        W  783   4.633   2.289  10.145
35557W        W  784  18.047  44.777   3.917
35558W        W  785  17.173  44.268   0.396
35559W        W  786   4.817  24.770   2.238
35560W        W  787  38.206  34.028  10.794
35561W        W  788  40.427  34.766   4.580
35562W        W  789  41.936  16.128  12.119
35563W        W  790  44.546  43.905  11.516
35564W        W  791   1.386  21.007   3.596
35565W        W  792  16.216  21.219   0.744
35566W        W  793   5.416  26.299   3.771
35567W        W  794  25.589  34.893   3.822
35568W        W  795  38.118  14.823   2.408
35569W        W  796  31.397   9.712   3.656
35570W        W  797  12.656  40.855   1.367
35571W        W  798  29.087  28.433   4.536
35572W        W  799  42.623   4.382  14.294
35573W        W  800   9.050  29.122   0.846
35574W        W  801  21.205   0.343  14.526
35575W        W  802   2.431  41.712   4.991
35576W        W  803  11.383  14.021  12.096
35577W        W  804  20.704  38.417  11.157
35578W        W  805  15.359   4.920  14.635
35579W        W  806  20.309   7.807   2.265
35580W        W  807  37.861  26.680   1.051
35581W        W  808  23.137  34.854   2.094
35582W        W  809  11.376  31.721  13.797
35583W        W  810  12.341  23.159   0.312
35584W        W  811  37.129  28.868  13.455
35585W        W  812  36.384  39.941  14.169
35586W        W  813  41.184  37.091   2.224
35587W        W  814  40.850   1.399   4.645
35588W        W  815  34.523  37.454  11.094
35589W        W  816  35.648  16.804   0.937
35590W        W  817  25.869  41.419   5.005
35591W        W  818  23.205   4.547   0.388
35592W        W  819  23.470  38.965  14.125
35593W        W  820  16.300   5.183  14.802
35594W        W  821  23.003   9.371  11.206
35595W        W  822  15.727  35.053  11.476
35596W        W  823  18.686  22.045   2.683
35597W        W  824  31.182  31.034   1.637
35598W        W  825  20.113  24.870  10.766
35599W        W  826   4.253  13.809   1.384
35600W        W  827  34.444  31.142   3.207
35601W        W  828  38.721   9.495  11.155
35602W        W  829  33.010  37.822  12.836
35603W        W  830  12.056  16.321  13.031
35604W        W  831  44.352  23.460  11.942
35605W        W  832  23.990  23.109   2.757
35606W        W  833   8.736   4.653  12.947
35607W        W  834   5.699  43.395  12.663
35608W        W  835  37.367  44.405  11.395
35609W        W  836  24.527  21.759  11.858
35610W        W  837  18.845  15.184  10.743
35611W        W  838  27.618  43.738   1.954
35612W        W  839  34.672  38.821   1.246
35613W        W  840  11.243  13.388   4.222
35614W        W  841  41.810  14.349  10.802
35615W        W  842  16.761  23.709  12.488
35616W        W  843   0.508  32.773  13.769
35617W        W  844   2.922  40.360  13.007
35618W        W  845  14.937  31.572   4.811
35619W        W  846  33.168  16.136   0.423
35620W        W  847   5.401   5.853   1.347
35621W        W  848  40.329  32.876   3.271
35622W        W  849  38.590  33.438   4.738
35623W        W  850  35.080   6.689  13.829
35624W        W  851  13.401  30.542  12.935
35625W        W  852  28.417  29.909   1.805
35626W        W  853  28.117  21.171   4.549
35627W        W  854  44.555  39.007   3.905
35628W        W  855  36.066  44.745  13.362
35629W        W  856  33.801  32.282   4.306
35630W        W  857  11.502  16.657   3.978
35631W        W  858  35.726  29.994   4.822
35632W        W  859  18.574  11.076   3.228
35633W        W  860  14.181  35.822  11.283
35634W        W  861  23.259  23.501  14.531
35635W        W  862  21.954  11.463  14.439
35636W        W  863  28.454   8.351  13.193
35637W        W  864  11.818  42.574   2.302
35638W        W  865  21.456  25.984  12.517
35639W        W  866  42.555  11.170  13.473
35640W        W  867  22.663  30.040   3.199
35641W        W  868  40.841  18.623   4.308
35642W        W  869  28.636  43.789  11.555
35643W        W  870  23.028  32.810   1.765
35644W        W  871  23.608   7.721   0.415
35645W        W  872  22.439  30.672   0.303
35646W        W  873  39.549   2.847  10.417
35647W        W  874   7.816  42.556  11.153
35648W        W  875   5.940  12.129   0.737
35649W        W  876   7.311  10.170   2.836
35650W        W  877  24.481  41.269   0.591
35651W        W  878  44.729  18.146   2.378
35652W        W  879  39.925  34.599   4.616
35653W        W  880  20.817  21.305  13.368
35654W        W  881  28.045  37.539   1.921
35655W        W  882  26.691  28.454  14.815
35656W        W  883  11.832  15.142  12.393
35657W        W  884  32.155  44.990  14.913
35658W        W  885  31.861  28.398  12.758
35659W        W  886  39.843  19.166  13.677
35660W        W  887  40.398   1.163  13.091
35661W        W  888   5.271   2.704  12.395
35662W        W  889  34.428  26.942   4.919
35663W        W  890  33.034  25.753   0.772
35664W        W  891   8.447  44.799  14.788
35665W        W  892  41.028  12.296   0.003
35666W        W  893  15.104  14.788  10.775
35667W        W  894  21.866   4.976  11.253
35668W        W  895   6.838  42.417   4.337
35669W        W  896  31.620  43.402   3.030
35670W        W  897  31.611   1.821  11.175
35671W        W  898  21.088  40.398  14.557
35672W        W  899  12.733   1.270   1.775
35673W        W  900  30.065   8.628   0.287
35674W        W  901  21.605  36.508   0.237
35675W        W  902  39.851   1.243  11.607
35676W        W  903  16.350  26.436  13.686
35677W        W  904  35.929  44.423   2.960
35678W        W  905  10.925  35.575   3.253
35679W        W  906  29.630  35.363   1.205
35680W        W  907  39.894  31.718  11.511
35681W        W  908   4.167   3.786   1.458
35682W        W  909  37.535   3.185   1.694
35683W        W  910   6.693  15.728  12.067
35684W        W  911  26.733  43.097   1.260
35685W        W  912  14.954  28.958   1.740
35686W        W  913   4.870   4.362  10.743
35687W        W  914   2.779   9.848  14.999
35688W        W  915   0.027  29.510   4.178
35689W        W  916   0.876  32.834   4.655
35690W        W  917  33.909   6.728   3.518
35691W        W  918  30.065  23.193  13.535
35692W        W  919  10.843   0.468   1.519
35693W        W  920  25.406  31.834  14.910
35694W        W  921  22.626   2.451   5.027
35695W        W  922  17.238  31.295  14.138
35696W        W  923   4.431  14.088   2.174
35697W        W  924  17.778  28.560  11.472
35698W        W  925  16.793  33.064   4.802
35699W        W  926  28.511  12.230  10.661
35700W        W  927  43.854  40.760   1.226
35701W        W  928   4.624  28.628  12.187
35702W        W  929   7.558  10.753  11.049
35703W        W  930  22.623  22.350  14.294
35704W        W  931  32.149  36.273  11.595
35705W        W  932  33.517  15.506   2.266
35706W        W  933  24.499  20.675   2.173
35707W        W  934  44.022  19.687   1.734
35708W        W  935  43.501  12.366   3.703
35709W        W  936  11.415   1.422  10.153
35710W        W  937   3.766  37.435  13.544
35711W        W  938  30.101  11.138   4.138
35712W        W  939  20.079   6.432   0.213
35713W        W  940  21.404  16.601  10.247
35714W        W  941  12.429  15.492   5.149
35715W        W  942  18.180   3.778   3.846
35716W        W  943  39.900   4.897  11.601
35717W        W  944  41.802  15.702   0.034
35718W        W  945   0.496  28.009  13.506
35719W        W  946  24.748  32.988  10.757
35720W        W  947  14.195  37.349  12.109
35721W        W  948  28.160  30.860   3.397
35722W        W  949  35.119  33.458   1.950
35723W        W  950   6.857  38.051  13.559
35724W        W  951  43.261  37.377   2.766
35725W        W  952  12.709  34.508  11.874
35726W        W  953  29.881  38.086  14.962
35727W        W  954  15.083  40.438   2.697
35728W        W  955  16.182  39.616   3.668
35729W        W  956  13.724  33.564  12.108
35730W        W  957  10.925   6.974  11.086
35731W        W  958  29.613  10.218  12.179
35732W        W  959   5.854  21.551   1.878
35733W        W  960  18.002  33.703   1.793
35734W        W  961  24.124   0.477   1.142
35735W        W  962  17.291   4.364  14.933
35736W        W  963   1.987  37.929  13.793
35737W        W  964  27.673  22.673  12.844
35738W        W  965  12.556   2.305   3.312
35739W        W  966  11.356  23.145  12.093
35740W        W  967  33.362  23.405   3.966
35741W        W  968   3.757   9.754  14.090
35742W        W  969  39.874  39.769  11.472
35743W        W  970  22.205  22.747  11.512
35744W        W  971  11.710   4.563   4.271
35745W        W  972  12.227  12.316  12.109
35746W        W  973  21.981  29.058   0.158
35747W        W  974  15.084  44.690  14.037
35748W        W  975  16.841  13.580  10.854
35749W        W  976  14.287   3.961  14.440
35750W        W  977  27.395  14.088   4.176
35751W        W  978  25.646  29.017  12.547
35752W        W  979  37.527  15.617   4.401
35753W        W  980  14.702  11.076  12.027
35754W        W  981  14.752   1.770  11.921
35755W        W  982  41.374  11.530   0.437
35756W        W  983  36.821  41.890  10.779
35757W        W  984   7.227  11.685  13.288
35758W        W  985  21.541  19.245  14.778
35759W        W  986  35.458  12.534  12.888
35760W        W  987  12.753  27.503  10.661
35761W        W  988  14.217  33.900  11.050
35762W        W  989  31.604  10.628   0.309
35763W        W  990  10.034  14.207  10.793
35764W        W  991   0.441  24.571  10.475
35765W        W  992  28.332  11.274  11.637
35766W        W  993  28.926  21.544  11.283
35767W        W  994  42.861  35.018  10.952
35768W        W  995   0.643  31.231  11.843
35769W        W  996  21.337  27.396   2.877
35770W        W  997  18.850  21.474   3.863
35771W        W  998  39.020  22.743   3.627
35772W        W  999   5.731   0.888   0.494
35773W        W 1000  36.847  10.402  13.778
35774W        W 1001  12.362  14.885  13.393
35775W        W 1002  28.486  14.447   4.539
35776W        W 1003  25.942  36.540  14.430
35777W        W 1004  37.498   8.433   1.353
35778W        W 1005   5.938  27.405   1.440
35779W        W 1006  24.292  15.917  11.293
35780W        W 1007  36.999  26.771  11.533
35781W        W 1008   8.393  20.197   1.361
35782W        W 1009  44.096  35.921   3.706
35783W        W 1010  34.995   5.163  11.187
35784W        W 1011  11.874  16.793   3.672
35785W        W 1012  40.084  16.345  14.773
35786W        W 1013  28.997   1.484   4.452
35787W        W 1014  34.449  13.182   2.738
35788W        W 1015  41.646  41.963  10.707
35789W        W 1016  12.782  33.640   1.404
35790W        W 1017  17.408  38.522   0.107
35791W        W 1018  19.225   7.210   0.777
35792W        W 1019  27.272  10.111  12.467
35793W        W 1020   3.958   5.965   0.904
35794W        W 1021  20.704  19.447  13.018
35795W        W 1022  17.867  41.298  13.778
35796W        W 1023   5.687  15.567  14.165
35797W        W 1024   9.509  20.988  11.170
35798W        W 1025  41.851   8.691  12.516
35799W        W 1026  12.224  38.015  13.579
35800W        W 1027  22.315  17.208  12.361
35801W        W 1028  28.913  26.877  11.610
35802W        W 1029  42.883  28.688   1.186
35803W        W 1030  41.493  43.812  11.957
35804W        W 1031  12.560   5.908  12.013
35805W        W 1032  35.556  43.337  10.595
35806W        W 1033  11.333   8.118   0.990
35807W        W 1034   8.257   9.407  10.487
35808W        W 1035  39.968  43.526   3.641
35809W        W 1036  40.056  23.924  11.947
35810W        W 1037  34.129  23.545  10.733
35811W        W 1038  41.950  15.146   0.702
35812W        W 1039   7.874  37.046  14.020
35813W        W 1040  39.857  11.634   0.341
35814W        W 1041  36.537  26.391   2.702
35815W        W 1042   0.853  27.702  12.709
35816W        W 1043  39.875  44.000   3.810
35817W        W 1044  14.931  27.904   1.179
35818W        W 1045  12.922  27.948   0.933
35819W        W 1046   9.686  39.381   2.171
35820W        W 1047  12.796  41.674   1.985
35821W        W 1048  15.055  41.914  11.559
35822W        W 1049  16.551   6.300   2.364
35823W        W 1050  30.843   8.123  10.965
35824W        W 1051  19.832  37.369  11.905
35825W        W 1052  17.250  13.988  12.167
35826W        W 1053   6.188   0.008   0.258
35827W        W 1054  43.988  13.075  13.462
35828W        W 1055  12.898  37.566  11.667
35829W        W 1056  14.605   1.969   2.230
35830W        W 1057   0.572  21.721   3.474
35831W        W 1058  35.143  44.606   1.226
35832W        W 1059  37.630  44.760  12.038
35833W        W 1060  10.145   1.481   4.241
35834W        W 1061  26.180   5.820   2.326
35835W        W 1062  35.781   4.137   2.783
35836W        W 1063   9.869  15.074   1.439
35837W        W 1064   5.936   4.709  12.933
35838W        W 1065  29.753   6.979  11.072
35839W        W 1066  25.636  34.826   4.316
35840W        W 1067  21.633   5.195   1.222
35841W        W 1068  38.781  19.722   3.700
35842W        W 1069   6.245  11.789   1.058
35843W        W 1070  33.547  42.828   2.548
35844W        W 1071  10.665   8.871   2.042
35845W        W 1072  30.670   4.736  10.746
35846W        W 1073   8.301  41.394  13.689
35847W        W 1074  28.504   7.813  12.414
35848W        W 1075  14.964  28.132   2.538
35849W        W 1076  29.934  34.050  12.594
35850W        W 1077  32.648   0.021  11.134
35851W        W 1078  30.160   0.426   2.857
35852W        W 1079  31.995  32.966  12.457
35853W        W 1080   2.456  11.349  11.136
35854W        W 1081  16.248  22.602   0.548
35855W        W 1082  32.699   6.854   3.349
35856W        W 1083   5.053  22.661  12.501
35857W        W 1084  19.436  10.281   1.856
35858W        W 1085  24.506  35.386   0.237
35859W        W 1086  39.970  31.693   1.314
35860W        W 1087  16.040  22.996  11.678
35861W        W 1088  36.177  10.747  11.171
35862W        W 1089  11.751  43.298  14.418
35863W        W 1090  31.981  39.992   4.516
35864W        W 1091  26.500   6.984   1.748
35865W        W 1092  15.836  13.765  12.857
35866W        W 1093  12.718  18.082  10.563
35867W        W 1094  22.166  27.223   4.540
35868W        W 1095  11.679  13.224   0.905
35869W        W 1096  32.865   5.979   3.658
35870W        W 1097  38.055  28.582   2.332
35871W        W 1098  11.658  43.285  11.787
35872W        W 1099  20.094  43.347   1.424
35873W        W 1100  21.010   8.236   0.872
35874W        W 1101  10.401  18.332   3.310
35875W        W 1102   0.992   3.757  12.373
35876W        W 1103  34.613  25.756   1.793
35877W        W 1104  36.772   7.919  10.583
35878W        W 1105  39.004  18.767  14.391
35879W        W 1106  10.232  38.409  10.782
35880W        W 1107  36.795  39.835  13.821
35881W        W 1108  34.133   6.951   3.110
35882W        W 1109   6.847  33.804  11.140
35883W        W 1110  44.042  37.407  13.931
35884W        W 1111  34.477  39.939  12.163
35885W        W 1112  36.618  35.075  10.392
35886W        W 1113   6.498   9.340   1.622
35887W        W 1114  12.721  13.662   2.785
35888W        W 1115   3.938  40.383   0.237
35889W        W 1116  29.935  30.860  11.088
35890W        W 1117  36.363  21.572   2.911
35891W        W 1118  22.766  12.686   3.209
35892W        W 1119  27.024  20.335   4.214
35893W        W 1120  36.577   2.803  13.876
35894W        W 1121  44.867   5.321   3.863
35895W        W 1122  15.896  13.175  11.095
35896W        W 1123  16.635  15.806   3.690
35897W        W 1124  34.621   9.334  13.462
35898W        W 1125   7.814  11.948   2.769
35899W        W 1126  39.965   0.641   1.163
35900W        W 1127  41.548   2.300  10.741
35901W        W 1128  18.247  34.117   1.958
35902W        W 1129  29.959   3.427  11.458
35903W        W 1130   6.696  40.093   1.918
35904W        W 1131  35.086  21.824  10.653
35905W        W 1132  29.719  17.761   1.994
35906W        W 1133  43.143  16.554   3.120
35907W        W 1134  39.015  18.722  13.482
35908W        W 1135  29.114  17.164   3.166
35909W        W 1136  21.972   4.808  12.119
35910W        W 1137  13.765  18.260   4.437
35911W        W 1138   2.393  42.271  11.607
35912W        W 1139  16.366  38.481  13.397
35913W        W 1140  44.466  24.859   1.977
35914W        W 1141  16.645  23.159   1.862
35915W        W 1142  29.019   4.635  13.821
35916W        W 1143   0.314   6.422  13.330
35917W        W 1144  30.595  30.020   4.059
35918W        W 1145  30.847  31.693  11.086
35919W        W 1146   6.690  19.593  10.707
35920W        W 1147  37.836  28.112   3.642
35921W        W 1148  11.895  11.659   3.489
35922W        W 1149  13.568  14.653  12.210
35923W        W 1150  14.696  26.627   2.003
35924W        W 1151  13.868  34.306  14.333
35925W        W 1152  13.692  21.278  10.628
35926W        W 1153  42.529   6.069   2.631
35927W        W 1154  27.577   7.917  12.887
35928W        W 1155  29.994  17.605  14.360
35929W        W 1156   0.201  41.975  14.867
35930W        W 1157  13.326   1.319   0.199
35931W        W 1158   6.198  25.422  11.200
35932W        W 1159  25.937  10.671   1.333
35933W        W 1160  13.690   4.602  14.248
35934W        W 1161  40.777  31.504   1.568
35935W        W 1162  30.053  19.363  11.696
35936W        W 1163   5.122   2.227  13.410
35937W        W 1164  35.612  27.132   4.302
35938W        W 1165  23.958  33.026  12.702
35939W        W 1166  37.114  40.722   1.339
35940W        W 1167  36.448   7.096  11.979
35941W        W 1168   5.395   4.238   2.695
35942W        W 1169  38.505  41.064   0.261
35943W        W 1170   6.849  19.317  12.908
35944W        W 1171   4.654  11.584  11.303
35945W        W 1172  22.694  28.223  11.662
35946W        W 1173  27.069  16.794  14.413
35947W        W 1174   8.702   8.755  11.125
35948W        W 1175  13.162  10.143   2.851
35949W        W 1176  26.176  29.684   0.408
35950W        W 1177   3.288  30.679  10.827
35951W        W 1178  16.606  24.541  13.526
35952W        W 1179   5.439  13.375   0.296
35953W        W 1180  23.092  21.313  12.205
35954W        W 1181  17.979  28.870  12.995
35955W        W 1182   9.522   4.010   3.585
35956W        W 1183  11.917  31.143   1.793
35957W        W 1184  10.333  30.739  12.462
35958W        W 1185  39.987  29.904  14.148
35959W        W 1186  31.521  41.892  14.069
35960W        W 1187  28.711  39.843   1.292
35961W        W 1188  29.602   2.673  12.664
35962W        W 1189  25.597  40.110  13.522
35963W        W 1190  16.233   2.928   4.230
35964W        W 1191  44.194  11.172   3.137
35965W        W 1192  16.314  17.351  14.049
35966W        W 1193  44.867  39.215  11.707
35967W        W 1194   1.924  29.685   2.346
35968W        W 1195  22.320  36.093  14.478
35969W        W 1196   9.718   3.482   1.313
35970W        W 1197  34.109   1.263  11.981
35971W        W 1198  35.558   2.047   1.009
35972W        W 1199  35.409  40.753   1.676
35973W        W 1200  39.366   1.106  12.572
35974W        W 1201   0.463  40.457  11.675
35975W        W 1202  16.496  19.715   3.098
35976W        W 1203   2.478  21.889   2.400
35977W        W 1204   1.688   6.261  12.948
35978W        W 1205  27.974  31.052   4.737
35979W        W 1206  38.264  43.472  11.687
35980W        W 1207  35.236  39.399   3.149
35981W        W 1208   4.402  33.351  10.751
35982W        W 1209  17.009  10.670  11.185
35983W        W 1210   8.662  24.308   3.718
35984W        W 1211  21.845  24.423   3.219
35985W        W 1212   9.184  34.157  12.967
35986W        W 1213  16.209  33.842  14.017
35987W        W 1214  32.131  19.701   4.607
35988W        W 1215  21.495  26.911  11.474
35989W        W 1216  34.365   3.534   2.751
35990W        W 1217  23.707  14.839  14.914
35991W        W 1218   6.946  41.300  13.486
35992W        W 1219   4.528  29.095  11.518
35993W        W 1220  37.129  26.878   4.175
35994W        W 1221  25.983  41.518  10.948
35995W        W 1222  44.610  33.929   0.447
35996W        W 1223  16.344  17.158  13.566
35997W        W 1224   4.502  26.465   1.321
35998W        W 1225  32.649  36.134  11.514
35999W        W 1226  17.120   4.929  14.203
36000W        W 1227  41.528   4.906  13.532
36001W        W 1228  29.051   1.367  13.921
36002W        W 1229   6.343  27.226   4.486
36003W        W 1230  36.967  15.787   1.122
36004W        W 1231  43.980  16.259  11.912
36005W        W 1232   1.323  31.736   0.007
36006W        W 1233  32.485  27.938   1.235
36007W        W 1234   8.130   7.648  13.075
36008W        W 1235  44.705  39.568   1.328
36009W        W 1236   5.663  16.387  11.551
36010W        W 1237  31.662  21.220  14.003
36011W        W 1238  38.945  41.185   3.117
36012W        W 1239  25.945  39.828   4.125
36013W        W 1240  25.550  27.553  13.481
36014W        W 1241   0.314  31.432   1.756
36015W        W 1242  16.452  26.089   4.103
36016W        W 1243  13.424  12.177  11.850
36017W        W 1244  41.628   0.470   3.464
36018W        W 1245  17.853  43.375   1.430
36019W        W 1246   7.335  31.127   0.889
36020W        W 1247  43.882  42.891   4.177
36021W        W 1248  21.145  34.546   4.726
36022W        W 1249  44.572  19.067  11.345
36023W        W 1250  44.804  30.964   2.243
36024W        W 1251   5.658  29.809  14.762
36025W        W 1252  27.885  20.826   1.720
36026W        W 1253  16.671  11.266   3.779
36027W        W 1254  14.049  23.941   1.130
36028W        W 1255  28.060  26.592  11.625
36029W        W 1256  16.227  25.450   0.181
36030W        W 1257  33.951  34.607  13.470
36031W        W 1258  35.055  10.688   1.264
36032W        W 1259   9.252  37.504   1.030
36033W        W 1260  36.273  44.702  12.034
36034W        W 1261  37.500  29.476   4.320
36035W        W 1262   9.564  37.061   1.040
36036W        W 1263  41.946  17.299  12.595
36037W        W 1264  40.696  43.269  10.723
36038W        W 1265  12.381  14.364   0.329
36039W        W 1266  11.742  22.142  10.708
36040W        W 1267   9.740   8.175  14.901
36041W        W 1268  17.183  43.366  10.554
36042W        W 1269  42.569   9.875   0.272
36043W        W 1270  33.934  17.268   1.659
36044W        W 1271  22.628  19.790   4.142
36045W        W 1272  38.329  18.684  10.714
36046W        W 1273  43.169  13.774  11.996
36047W        W 1274  10.049   5.378  13.376
36048W        W 1275  28.104  35.026   2.381
36049W        W 1276   9.840  15.263   0.601
36050W        W 1277  18.637  36.080  14.320
36051W        W 1278  11.756   9.945  13.870
36052W        W 1279  39.848  14.541  10.557
36053W        W 1280  41.521  17.356   1.245
36054W        W 1281  44.966   7.899   4.163
36055W        W 1282   6.218  40.359  11.598
36056W        W 1283  15.963  32.050   0.925
36057W        W 1284  41.307  41.609  12.973
36058W        W 1285  41.694  43.274  14.301
36059W        W 1286  36.812  18.157   3.238
36060W        W 1287  34.435  34.908  13.564
36061W        W 1288  19.820   9.803  13.346
36062W        W 1289  10.894  41.895  13.936
36063W        W 1290  27.440  11.820  11.856
36064W        W 1291  31.091  14.556  14.324
36065W        W 1292  43.882  25.659   4.114
36066W        W 1293  34.106  40.281   2.117
36067W        W 1294   6.184  14.278  13.417
36068W        W 1295   1.806  28.427   2.693
36069W        W 1296   0.948  26.540   3.172
36070W        W 1297  26.380  23.137   1.270
36071W        W 1298   2.828  42.545  14.346
36072W        W 1299  12.652   5.871   4.182
36073W        W 1300  39.494  24.080  13.093
36074W        W 1301   5.562  43.761  14.943
36075W        W 1302   4.176  14.985   0.076
36076W        W 1303  41.090   3.180   5.098
36077W        W 1304  36.209  37.813   1.395
36078W        W 1305  26.205  33.430  14.598
36079W        W 1306  39.942   8.281  14.998
36080W        W 1307   5.281  14.654   2.195
36081W        W 1308  10.036  27.054  14.373
36082W        W 1309   3.627  21.766   4.209
36083W        W 1310  18.974  43.761   0.749
36084W        W 1311  40.323  44.779   0.050
36085W        W 1312   2.497   0.673   2.184
36086W        W 1313   4.837  41.184   2.340
36087W        W 1314  32.917  19.071   3.702
36088W        W 1315  41.434   4.929  10.748
36089W        W 1316  10.865  44.292  13.882
36090W        W 1317   6.479  41.392   2.419
36091W        W 1318  44.989  26.451   3.046
36092W        W 1319  10.525   1.210   3.384
36093W        W 1320  15.787  35.378   2.490
36094W        W 1321  32.086  36.900  14.760
36095W        W 1322  15.631  31.223  12.814
36096W        W 1323   1.641  31.580   5.008
36097W        W 1324  12.606  20.818   0.387
36098W        W 1325   5.923  31.449   1.235
36099W        W 1326  27.599  43.282   0.709
36100W        W 1327   1.374  20.987  10.909
36101W        W 1328  39.333  21.802  13.615
36102W        W 1329  18.007  39.095   4.062
36103W        W 1330  39.039  16.607   2.840
36104W        W 1331  37.862  15.365  11.561
36105W        W 1332  28.286  35.325  12.018
36106W        W 1333  27.753  14.724   2.143
36107W        W 1334   8.526  18.329  11.323
36108W        W 1335  14.710  34.675  10.750
36109W        W 1336   0.276   4.896  14.049
36110W        W 1337  19.482  37.765  14.439
36111W        W 1338   3.708  24.247  10.053
36112W        W 1339  36.617   2.729   4.128
36113W        W 1340  13.732  30.394   3.571
36114W        W 1341   8.869  15.319  12.997
36115W        W 1342  40.023  35.048  11.997
36116W        W 1343   5.948  19.334  12.346
36117W        W 1344  20.062  38.577   1.025
36118W        W 1345  22.673  10.951   1.975
36119W        W 1346  17.591   5.572   3.380
36120W        W 1347  35.691   1.746  12.527
36121W        W 1348  23.741  29.473  13.369
36122W        W 1349  27.491  17.573  13.847
36123W        W 1350  26.703  21.091  11.654
36124W        W 1351   8.898  42.040   3.143
36125W        W 1352  42.720  10.346   3.392
36126W        W 1353  22.437  11.825   4.661
36127W        W 1354  33.106  36.181   0.270
36128W        W 1355  28.038  18.076   0.013
36129W        W 1356  18.313  11.399   4.473
36130W        W 1357  26.101   2.989  13.876
36131W        W 1358  19.846  13.282  14.019
36132W        W 1359  26.402  39.558   4.083
36133W        W 1360  26.014  42.544  13.771
36134W        W 1361   6.096  14.759   3.755
36135W        W 1362  37.324  25.399  13.377
36136W        W 1363  20.232  42.902   3.975
36137W        W 1364  21.252  40.892   2.242
36138W        W 1365  17.320   3.964  11.253
36139W        W 1366  28.602  10.651   4.125
36140W        W 1367  28.091   6.314   1.857
36141W        W 1368  36.649   5.897   2.143
36142W        W 1369  34.666  20.005  14.918
36143W        W 1370  32.808  34.988  11.126
36144W        W 1371   8.964   9.893  11.122
36145W        W 1372   2.724   0.843  12.139
36146W        W 1373  35.338  37.887   3.008
36147W        W 1374  13.555  26.550  11.177
36148W        W 1375   3.918  15.305  11.873
36149W        W 1376  42.087  24.722  13.940
36150W        W 1377  17.838  32.467  13.459
36151W        W 1378   7.669  38.312   0.790
36152W        W 1379  20.590  13.870  11.025
36153W        W 1380  42.439  40.583  12.855
36154W        W 1381  44.354  43.431  11.504
36155W        W 1382  39.348  11.131   4.259
36156W        W 1383  37.100   6.573  12.088
36157W        W 1384  28.952  20.976  12.586
36158W        W 1385   3.395   2.255   0.311
36159W        W 1386  40.539  35.083  10.734
36160W        W 1387  16.510   5.690  13.327
36161W        W 1388  35.258  18.123  14.092
36162W        W 1389  38.106  19.838  10.182
36163W        W 1390  36.805   5.785  10.623
36164W        W 1391  21.678  27.518  11.895
36165W        W 1392  24.413   3.033  13.049
36166W        W 1393  40.011  39.875   2.651
36167W        W 1394  12.294  44.574  11.376
36168W        W 1395   9.136  19.676  12.016
36169W        W 1396  28.481  36.604   3.671
36170W        W 1397  31.466   1.357   4.165
36171W        W 1398   4.488  29.271   3.746
36172W        W 1399  36.089  28.959  12.019
36173W        W 1400  13.034   2.284  11.651
36174W        W 1401   9.316   5.143  12.161
36175W        W 1402  11.143   2.657   4.728
36176W        W 1403   3.780   7.220   3.394
36177W        W 1404  25.278  24.215  11.039
36178W        W 1405  14.091   7.389   3.269
36179W        W 1406   0.488  28.263  14.485
36180W        W 1407   3.654  40.457   1.130
36181W        W 1408  39.072  34.125   0.282
36182W        W 1409   7.311  31.649  11.036
36183W        W 1410   8.694  11.858  12.585
36184W        W 1411  38.932  40.431   2.430
36185W        W 1412  37.094  17.836   4.071
36186W        W 1413  33.066  12.107   0.950
36187W        W 1414  44.343   6.478   3.558
36188W        W 1415  37.069  22.438   4.343
36189W        W 1416  36.596   3.977  13.999
36190W        W 1417  14.849  24.274  11.987
36191W        W 1418  11.750  15.374   1.804
36192W        W 1419  27.151  26.687   2.357
36193W        W 1420  40.853  41.039  14.914
36194W        W 1421  39.815   1.886   1.638
36195W        W 1422  26.451  10.308   4.497
36196W        W 1423  34.803   0.747   4.586
36197W        W 1424  31.820  37.405  11.497
36198W        W 1425  31.859  36.816   0.726
36199W        W 1426  11.118  25.190  11.400
36200W        W 1427   8.287  42.938  12.651
36201W        W 1428  33.813  25.729  13.369
36202W        W 1429   9.677  23.836  14.988
36203W        W 1430   6.306  18.719   3.748
36204W        W 1431   9.362  30.708   1.465
36205W        W 1432  12.241  23.269   4.595
36206W        W 1433  29.456  38.638  11.452
36207W        W 1434  32.437  14.736   0.342
36208W        W 1435   4.116  14.959   4.948
36209W        W 1436  38.399  38.962  14.446
36210W        W 1437  35.377  30.184   0.677
36211W        W 1438  33.931  19.327   3.168
36212W        W 1439  33.889   3.713   2.926
36213W        W 1440  11.704  23.182  14.700
36214W        W 1441   2.727  41.426  13.382
36215W        W 1442   3.973  19.781   1.245
36216W        W 1443  42.023  27.455  13.737
36217W        W 1444  11.666  27.007  12.492
36218W        W 1445  11.810  24.473  12.054
36219W        W 1446  30.107  23.113  11.927
36220W        W 1447  16.918  15.037  10.951
36221W        W 1448  21.602   1.811  14.905
36222W        W 1449  24.003  21.181  11.591
36223W        W 1450  18.757  20.591   1.291
36224W        W 1451   6.161  29.698  11.379
36225W        W 1452  22.990  22.715  13.887
36226W        W 1453  16.817   1.922   4.113
36227W        W 1454  42.836  34.873  13.851
36228W        W 1455  32.778   3.522  11.732
36229W        W 1456  26.410  10.308   2.304
36230W        W 1457  33.606  14.170  14.531
36231W        W 1458   4.087  24.359  12.173
36232W        W 1459  25.656   1.848  11.086
36233W        W 1460  34.934  33.719   4.662
36234W        W 1461  32.087  25.573   4.120
36235W        W 1462   5.339   1.526   2.887
36236W        W 1463  25.075  23.921   0.240
36237W        W 1464   5.761  14.528  14.428
36238W        W 1465  19.533  23.066  12.327
36239W        W 1466  18.643  28.377  14.382
36240W        W 1467   7.676  41.682  12.907
36241W        W 1468   4.881  19.396   2.167
36242W        W 1469   5.447  25.033   0.795
36243W        W 1470  25.062   6.864   2.200
36244W        W 1471  29.730  40.630   3.704
36245W        W 1472  29.554  16.758   4.575
36246W        W 1473  25.950  19.301   3.272
36247W        W 1474  18.858  29.639   4.244
36248W        W 1475   9.433   1.672   0.364
36249W        W 1476   2.469  14.758   3.879
36250W        W 1477  44.834  31.668   1.755
36251W        W 1478  16.066  32.695  10.231
36252W        W 1479  35.289  44.973   3.789
36253W        W 1480  24.627  37.653  13.846
36254W        W 1481  34.411   4.881  10.918
36255W        W 1482  22.167  18.546  10.509
36256W        W 1483  29.980  25.405   0.536
36257W        W 1484  20.040  20.848   2.478
36258W        W 1485  15.673  31.859   3.129
36259W        W 1486  42.888  36.205  13.350
36260W        W 1487  27.510  33.662  11.256
36261W        W 1488  41.995  32.936  14.240
36262W        W 1489  40.037  28.352  11.190
36263W        W 1490  23.734  21.774   2.728
36264W        W 1491  13.772  16.020   2.712
36265W        W 1492  34.230   0.478  13.539
36266W        W 1493   0.323  44.888  12.945
36267W        W 1494   8.645  12.257   2.349
36268W        W 1495  31.595  32.829   3.500
36269W        W 1496  35.040  42.596   2.854
36270W        W 1497  17.469   0.572  12.141
36271W        W 1498   4.644  10.466   3.872
36272W        W 1499  43.993  14.751  13.949
36273W        W 1500   4.370  18.324   0.919
36274W        W 1501  33.850  29.392  14.002
36275W        W 1502  29.884  26.419   2.153
36276W        W 1503  43.239   9.825  12.132
36277W        W 1504  32.768  10.627   0.943
36278W        W 1505  41.792  14.962   2.984
36279W        W 1506  21.290  14.832  13.963
36280W        W 1507   0.478  17.085   1.594
36281W        W 1508  34.111   5.346   4.200
36282W        W 1509  18.644   0.989  13.913
36283W        W 1510  39.069  28.068   2.715
36284W        W 1511  22.525  43.277  14.273
36285W        W 1512  41.631  44.054   0.342
36286W        W 1513  37.361  43.580   0.280
36287W        W 1514  44.264  25.903   2.280
36288W        W 1515  20.718  21.507  12.267
36289W        W 1516  21.548  15.637  14.950
36290W        W 1517  22.095  23.476  13.134
36291W        W 1518  38.147  27.229  12.549
36292W        W 1519   3.700  21.575   1.213
36293W        W 1520  34.759  22.703   2.965
36294W        W 1521  37.888  15.749   2.560
36295W        W 1522   0.952  34.469  14.500
36296W        W 1523  31.849  39.389  10.602
36297W        W 1524  11.336  16.628   4.452
36298W        W 1525   5.245  19.875   4.536
36299W        W 1526  19.308   9.307  12.067
36300W        W 1527  43.803  28.013   3.685
36301W        W 1528   3.370   0.957   0.620
36302W        W 1529  37.843   0.482   4.166
36303W        W 1530  42.983   0.770  13.581
36304W        W 1531  23.724  16.208   2.879
36305W        W 1532  23.945   4.431  14.686
36306W        W 1533   9.571  28.889   4.779
36307W        W 1534  35.871  32.998   0.388
36308W        W 1535  42.971  33.116   0.325
36309W        W 1536   4.206  19.116  12.566
36310W        W 1537  21.292  16.045  13.311
36311W        W 1538   4.932  10.607  12.475
36312W        W 1539   4.645  42.174  14.822
36313W        W 1540  36.951   3.811   2.181
36314W        W 1541   8.644  26.977   4.075
36315W        W 1542  11.543   9.172  14.404
36316W        W 1543  31.486  31.888  12.271
36317W        W 1544   5.905   3.145   9.676
36318W        W 1545  20.539  40.375   4.159
36319W        W 1546  14.144  44.869   1.251
36320W        W 1547  29.426  22.227   0.412
36321W        W 1548  15.262   0.404   1.809
36322W        W 1549  12.683  18.572  14.821
36323W        W 1550  22.861  16.664  11.590
36324W        W 1551  44.706  31.937   1.312
36325W        W 1552  42.694  20.564  12.534
36326W        W 1553  36.845  21.005   1.891
36327W        W 1554  37.728   9.460   0.015
36328W        W 1555  40.975  33.861  11.168
36329W        W 1556  41.584  40.786  11.204
36330W        W 1557   8.884  20.488  10.753
36331W        W 1558  36.843  36.797   3.553
36332W        W 1559  14.174  37.370  10.949
36333W        W 1560   7.735  21.088  14.000
36334W        W 1561  19.067   8.867  11.136
36335W        W 1562  27.423  21.816  11.115
36336W        W 1563  35.975  42.571  13.016
36337W        W 1564  12.398   0.863   1.801
36338W        W 1565   4.815  38.063   2.819
36339W        W 1566  20.650   2.016   2.415
36340W        W 1567  15.954  36.506  10.470
36341W        W 1568  43.969  18.430   0.652
36342W        W 1569  12.111   3.768   1.282
36343W        W 1570   1.581  41.338  14.339
36344W        W 1571   5.232   9.846  12.401
36345W        W 1572   0.556  14.023   1.362
36346W        W 1573  22.511  25.719  13.873
36347W        W 1574  26.757  38.519   2.744
36348W        W 1575  35.639  33.423   4.943
36349W        W 1576  22.448   6.025   0.874
36350W        W 1577   0.704  17.683  11.082
36351W        W 1578   2.800   3.979  13.485
36352W        W 1579  44.520  31.627  13.772
36353W        W 1580  12.367  30.939   4.212
36354W        W 1581  26.059  21.756   3.707
36355W        W 1582  41.436  13.082   4.638
36356W        W 1583  16.686  42.198   1.498
36357W        W 1584  29.912  36.529  13.702
36358W        W 1585  32.634   1.299   4.225
36359W        W 1586  22.260   1.782   1.316
36360W        W 1587   4.771  43.054   0.121
36361W        W 1588   1.492  43.753   0.397
36362W        W 1589  29.114   0.321   2.331
36363W        W 1590  27.599  13.993  13.023
36364W        W 1591  32.108   1.461  10.473
36365W        W 1592  33.473  10.000  10.306
36366W        W 1593  38.251  10.290   0.091
36367W        W 1594  24.174  38.417   3.594
36368W        W 1595  11.312   7.854   3.422
36369W        W 1596   6.768  30.948   4.096
36370W        W 1597   3.871   5.889   2.340
36371W        W 1598  39.541   9.629  14.909
36372W        W 1599  35.134  13.399   2.097
36373W        W 1600   4.387  21.966  12.470
36374W        W 1601  37.828  29.331   3.288
36375W        W 1602  33.508  34.586   2.825
36376W        W 1603  35.671  11.038   4.234
36377W        W 1604   6.324  16.306  12.621
36378W        W 1605  21.132   8.306   3.249
36379W        W 1606  42.448   0.915   0.732
36380W        W 1607   1.835   3.435  12.032
36381W        W 1608  43.707  38.569   1.361
36382W        W 1609  21.693  18.107  11.812
36383W        W 1610  23.114  27.040  12.933
36384W        W 1611  16.710  32.624  12.941
36385W        W 1612  32.850  24.501   1.392
36386W        W 1613  16.285  32.896   5.454
36387W        W 1614  41.324   7.009  12.979
36388W        W 1615  40.815  22.372   0.440
36389W        W 1616  39.398  41.802   4.612
36390W        W 1617  35.911  42.400  10.925
36391W        W 1618  37.974  36.230   1.366
36392W        W 1619  11.147  23.685  12.987
36393W        W 1620  13.758   1.999   3.734
36394W        W 1621  14.910  35.492   3.309
36395W        W 1622  25.195   9.080   0.400
36396W        W 1623   6.688  35.830   1.444
36397W        W 1624  33.329  40.272  13.035
36398W        W 1625  22.718  42.718  14.601
36399W        W 1626  26.971  20.339  11.869
36400W        W 1627  18.321  14.115   2.336
36401W        W 1628   5.339  24.584   4.321
36402W        W 1629   1.577  16.847   5.072
36403W        W 1630  28.927   2.202  12.604
36404W        W 1631  24.683  36.955  13.456
36405W        W 1632  10.829   4.217  11.664
36406W        W 1633  21.954  36.845   1.125
36407W        W 1634  29.905   8.822  11.465
36408W        W 1635  40.106  26.980  12.015
36409W        W 1636  29.917  15.791   3.791
36410W        W 1637  31.964  31.235  14.447
36411W        W 1638  26.194  15.278  12.993
36412W        W 1639  28.428  11.142  10.304
36413W        W 1640  37.267  10.136   3.201
36414W        W 1641  43.778   3.988  12.063
36415W        W 1642  36.288  31.538   3.245
36416W        W 1643  22.636  12.360   0.600
36417W        W 1644   4.987  22.643   1.808
36418W        W 1645  18.741  23.682   5.251
36419W        W 1646  41.729  20.915   3.784
36420W        W 1647   4.432  20.488  12.465
36421W        W 1648  27.603  43.716  13.496
36422W        W 1649  32.199   4.323   4.682
36423W        W 1650  13.232  10.695   3.712
36424W        W 1651   1.291  24.731   1.164
36425W        W 1652  44.296  35.828  14.334
36426W        W 1653  39.322  12.237   2.501
36427W        W 1654  11.006   7.403   0.279
36428W        W 1655  25.668   3.382  12.654
36429W        W 1656  20.427  22.098   4.841
36430W        W 1657  15.793  25.456  14.869
36431W        W 1658  37.111  42.728  12.533
36432W        W 1659  28.731  27.400  12.510
36433W        W 1660   7.922   9.598   2.242
36434W        W 1661   4.848  26.204   0.859
36435W        W 1662  13.970  19.156  14.786
36436W        W 1663  43.215  17.205  13.047
36437W        W 1664   4.224  24.052   1.941
36438W        W 1665  26.725  30.684   2.276
36439W        W 1666   5.443  40.878   1.620
36440W        W 1667  20.733  41.962  11.857
36441W        W 1668  13.612  34.928   0.754
36442W        W 1669  29.918  40.826   0.440
36443W        W 1670  22.689  30.436  11.746
36444W        W 1671  11.894  11.404  13.863
36445W        W 1672  21.259  44.988  13.908
36446W        W 1673   2.044  30.744  14.519
36447W        W 1674  23.009  40.537   2.195
36448W        W 1675  38.749  40.908   3.689
36449W        W 1676  24.119  36.843   3.651
36450W        W 1677  38.862  20.715   0.694
36451W        W 1678   8.011   9.810   4.371
36452W        W 1679  44.968   7.855   0.307
36453W        W 1680  10.598   5.506  11.047
36454W        W 1681  13.210  38.885  12.192
36455W        W 1682  35.133  38.955  14.014
36456W        W 1683  13.693   6.107   4.552
36457W        W 1684   9.754  15.743  13.941
36458W        W 1685  15.855   0.846   4.171
36459W        W 1686  41.298  30.672  14.037
36460W        W 1687  12.324  33.162  10.852
36461W        W 1688  36.735  32.414  11.080
36462W        W 1689   7.403  39.806  14.335
36463W        W 1690  30.398  42.955   3.052
36464W        W 1691  35.873   6.823   2.789
36465W        W 1692  44.229   4.415  10.898
36466W        W 1693  19.524   2.260   2.462
36467W        W 1694   1.847  34.308  11.927
36468W        W 1695  21.675  26.214  12.041
36469W        W 1696  39.530  18.773  13.510
36470W        W 1697  33.085  10.622  10.798
36471W        W 1698  35.659  24.110  14.885
36472W        W 1699  31.853   9.010   3.154
36473W        W 1700  16.538  39.139   3.126
36474W        W 1701  41.407  37.706  11.477
36475W        W 1702  14.886  36.205   2.850
36476W        W 1703   4.999   1.830   3.117
36477W        W 1704  13.155  38.076  13.612
36478W        W 1705  15.787   6.965  12.158
36479W        W 1706  19.979  27.751   4.126
36480W        W 1707  12.637  15.270   0.798
36481W        W 1708  12.107  29.641   1.173
36482W        W 1709   5.332  43.254   4.567
36483W        W 1710  37.881  17.313   2.316
36484W        W 1711  38.115  31.190   0.220
36485W        W 1712  21.525   6.266   4.588
36486W        W 1713  24.625   0.957  12.537
36487W        W 1714   0.178  17.049   2.876
36488W        W 1715  16.047   8.212  10.518
36489W        W 1716  12.616  23.668  13.100
36490W        W 1717  26.568  39.021  12.437
36491W        W 1718  37.916   3.933   3.996
36492W        W 1719  41.481  35.529  12.616
36493W        W 1720  19.533  28.604  14.366
36494W        W 1721  31.062   3.443   3.198
36495W        W 1722  26.715  22.632  13.126
36496W        W 1723  31.653  44.315   2.418
36497W        W 1724  41.895   6.278   1.923
36498W        W 1725  21.558  20.048  10.602
36499W        W 1726  19.101   2.527   2.920
36500W        W 1727  40.916  21.752   1.856
36501W        W 1728  20.860   0.363   9.720
36502W        W 1729   1.969   3.005  13.875
36503W        W 1730  24.111  32.090   4.983
36504W        W 1731  32.128  15.535   3.227
36505W        W 1732  37.488  16.360  13.416
36506W        W 1733  22.039  41.030  13.886
36507W        W 1734  14.517  25.559  13.033
36508W        W 1735  20.527   7.920   2.776
36509W        W 1736  37.651  39.474   2.900
36510W        W 1737  33.939  21.573  11.916
36511W        W 1738  11.865  33.528   2.304
36512W        W 1739   3.026   2.431   4.120
36513W        W 1740  14.919   3.395  11.862
36514W        W 1741  38.869  30.894  11.130
36515W        W 1742   0.640  20.047   1.826
36516W        W 1743  21.994  12.173  11.157
36517W        W 1744   5.761   0.603   1.370
36518W        W 1745  15.323  22.635  13.842
36519W        W 1746  14.223  36.335   1.687
36520W        W 1747  16.226  35.276   2.219
36521W        W 1748  27.113  13.267  14.344
36522W        W 1749   8.485  10.631   0.960
36523W        W 1750   2.990  15.338  13.928
36524W        W 1751   3.352  10.090   0.308
36525W        W 1752  31.827  23.182  14.960
36526W        W 1753  40.017  37.118   0.673
36527W        W 1754  42.459   2.498  11.601
36528W        W 1755  38.094  22.003  12.169
36529W        W 1756  36.945  22.750   3.300
36530W        W 1757  20.149  28.577  10.670
36531W        W 1758  14.154  10.285  14.902
36532W        W 1759   8.960  37.379  10.337
36533W        W 1760  43.396  40.094  12.920
36534W        W 1761   9.400   2.594  14.551
36535W        W 1762  11.148  18.855   4.970
36536W        W 1763  21.514  33.520   4.505
36537W        W 1764  34.449   2.243  13.805
36538W        W 1765  40.458  14.327   4.795
36539W        W 1766  32.028  43.252  13.509
36540W        W 1767   6.371  27.719   4.320
36541W        W 1768  31.600   5.606   1.260
36542W        W 1769  28.322   6.702   1.075
36543W        W 1770   7.636  35.465  10.721
36544W        W 1771  33.964   2.340   4.379
36545W        W 1772  35.906  15.687   3.316
36546W        W 1773  14.276  29.955  12.978
36547W        W 1774  14.384  40.553   3.224
36548W        W 1775  25.157  12.789  13.332
36549W        W 1776   4.057   3.931   3.486
36550W        W 1777  12.291  15.323  12.618
36551W        W 1778   4.711  22.038   2.215
36552W        W 1779   9.039  35.074   9.613
36553W        W 1780  31.782  22.572   0.407
36554W        W 1781   9.616   0.982  12.075
36555W        W 1782  38.502   4.828  10.456
36556W        W 1783  13.705  16.330   2.268
36557W        W 1784  29.109  20.704   1.425
36558W        W 1785  43.881  16.979  12.570
36559W        W 1786   2.322  24.587   0.509
36560W        W 1787  12.301  33.444   3.612
36561W        W 1788   0.920  16.731  11.189
36562W        W 1789   3.183  24.951  13.513
36563W        W 1790  21.138  26.322   5.127
36564W        W 1791   1.702  44.311  12.781
36565W        W 1792  24.443  14.457   4.800
36566W        W 1793  41.397  40.312  14.955
36567W        W 1794  40.456  19.555   0.601
36568W        W 1795   0.117  38.304   1.035
36569W        W 1796  23.660  14.612   1.277
36570W        W 1797   8.453  37.947   3.338
36571W        W 1798  11.261   4.384   1.242
36572W        W 1799  25.712  26.549   0.929
36573W        W 1800  34.959  13.107  12.824
36574W        W 1801  19.395  13.789  14.456
36575W        W 1802   6.709  29.757   4.593
36576W        W 1803  42.388  12.718   4.483
36577W        W 1804  35.384  14.171  13.960
36578W        W 1805   3.452  37.317  12.873
36579W        W 1806   0.301  14.095  13.601
36580W        W 1807  11.551  23.483  11.763
36581W        W 1808  36.150   6.576   0.461
36582W        W 1809  30.949  19.225   1.527
36583W        W 1810  20.774  36.489  10.734
36584W        W 1811  24.993   3.597  13.194
36585W        W 1812  37.112  43.161   1.904
36586W        W 1813  22.567  37.129  10.858
36587W        W 1814  25.390  24.945   2.317
36588W        W 1815  24.148   4.760  11.558
36589W        W 1816  20.947  24.211   0.852
36590W        W 1817   4.827  27.079   4.071
36591W        W 1818  23.636  44.153   4.954
36592W        W 1819   3.450  39.559  14.937
36593W        W 1820  11.693   4.723  14.936
36594W        W 1821  19.958  35.063   2.216
36595W        W 1822   2.383  15.236   4.243
36596W        W 1823  11.879  28.941  14.620
36597W        W 1824   7.063  16.998  14.695
36598W        W 1825  16.230  11.575   1.455
36599W        W 1826   0.740   5.822   0.471
36600W        W 1827  24.683  17.782   2.761
36601W        W 1828  41.395  32.435  12.506
36602W        W 1829  24.707  17.141  13.089
36603W        W 1830  17.103  23.254   2.633
36604W        W 1831   7.274  41.326   1.547
36605W        W 1832   4.719   7.292  12.156
36606W        W 1833  29.224  43.092  11.531
36607W        W 1834  28.418  27.905  14.807
36608W        W 1835  18.688   0.450  13.941
36609W        W 1836  24.549  42.493  12.459
36610W        W 1837  11.654  17.974   1.861
36611W        W 1838  21.018  39.526   3.327
36612W        W 1839  12.248  29.692  13.290
36613W        W 1840   6.754  24.623   0.689
36614W        W 1841  31.001   5.937  14.089
36615W        W 1842  34.803  27.576   4.926
36616W        W 1843  33.267  25.645   3.469
36617W        W 1844  38.617  11.384   0.982
36618W        W 1845  38.755   6.055  13.399
36619W        W 1846  21.651  37.488  11.620
36620W        W 1847   6.636  15.450  12.496
36621W        W 1848   6.321  27.537   2.732
36622W        W 1849   8.057  30.614  13.881
36623W        W 1850  23.441  21.328   4.771
36624W        W 1851  25.593   4.406   4.466
36625W        W 1852  26.558  21.058   3.230
36626W        W 1853  18.585  13.872  10.423
36627W        W 1854  22.309  33.273   1.870
36628W        W 1855  28.477  41.457   4.549
36629W        W 1856  19.220  27.248  14.546
36630W        W 1857  28.395  24.186  13.697
36631W        W 1858  39.097  11.846   4.558
36632W        W 1859   9.953  13.701   4.564
36633W        W 1860  23.585  25.552   1.294
36634W        W 1861  27.566   4.939  13.060
36635W        W 1862   7.150  22.584  11.162
36636W        W 1863  15.412   2.436   4.700
36637W        W 1864   3.475   2.766  14.762
36638W        W 1865  16.236  22.225  10.982
36639W        W 1866   1.236  29.469  14.473
36640W        W 1867  14.677  18.764   1.271
36641W        W 1868  43.468  28.307  11.100
36642W        W 1869   7.394   7.647   1.915
36643W        W 1870  31.151  18.141   2.548
36644W        W 1871   0.893  33.166  12.013
36645W        W 1872   2.859  22.709  14.550
36646W        W 1873  26.444   6.207   3.960
36647W        W 1874   0.159  43.892  12.037
36648W        W 1875  36.974  19.164   4.877
36649W        W 1876  27.516  21.200   1.753
36650W        W 1877  25.748  40.827   0.776
36651W        W 1878  15.142  27.155   4.518
36652W        W 1879  39.802  34.368  12.936
36653W        W 1880  17.733  39.493  14.067
36654W        W 1881   3.975  37.046  13.136
36655W        W 1882  26.956  31.461  14.046
36656W        W 1883  32.929  32.321   1.898
36657W        W 1884  20.713  12.370   4.194
36658W        W 1885  40.026  36.844  14.350
36659W        W 1886  27.128  16.474  12.915
36660W        W 1887   0.203  42.890   9.648
36661W        W 1888   5.356   5.438   3.624
36662W        W 1889  31.520  17.492  12.072
36663W        W 1890  30.174   8.171  13.047
36664W        W 1891  21.041  42.968   0.972
36665W        W 1892  42.046  38.358   2.755
36666W        W 1893  35.148  34.581   4.597
36667W        W 1894   3.969  41.297  14.711
36668W        W 1895   2.790   2.297   1.063
36669W        W 1896  42.037  11.441  11.311
36670W        W 1897  13.467  30.619   2.241
36671W        W 1898  33.299   2.204   0.458
36672W        W 1899  37.895   1.211  12.527
36673W        W 1900  28.293  35.003   1.435
36674W        W 1901   5.213  31.868  13.232
36675W        W 1902  10.285  27.850   4.153
36676W        W 1903  21.162  28.749  11.557
36677W        W 1904  26.899  14.679   1.788
36678W        W 1905  24.422  17.345  14.465
36679W        W 1906  31.337   8.633   3.261
36680W        W 1907  16.148  17.043  10.010
36681W        W 1908  28.189  44.288   1.849
36682W        W 1909  22.713   1.929  13.637
36683W        W 1910  21.238  14.658   3.481
36684W        W 1911   1.576  34.047  12.867
36685W        W 1912  26.693  11.768   4.830
36686W        W 1913  14.684  43.929  10.664
36687W        W 1914  19.819   3.923  14.974
36688W        W 1915  43.679  28.104   1.745
36689W        W 1916  11.847  42.949  14.048
36690W        W 1917  18.133   8.127  13.068
36691W        W 1918  27.647  25.747  10.206
36692W        W 1919   5.443  24.841  11.651
36693W        W 1920  24.762  43.306   1.065
36694W        W 1921  26.544  22.612  14.997
36695W        W 1922  16.314   6.714   2.198
36696W        W 1923   9.565  26.504   0.763
36697W        W 1924  15.260  39.891  10.437
36698W        W 1925  23.002  27.466   1.715
36699W        W 1926  37.966  42.576  12.608
36700W        W 1927   3.848  24.703   0.986
36701W        W 1928  40.806  13.347  10.665
36702W        W 1929   9.367  39.568  10.683
36703W        W 1930  13.635   8.867  11.821
36704W        W 1931  32.672  19.225  12.600
36705W        W 1932   4.294   7.278   1.261
36706W        W 1933  12.157   6.464  11.653
36707W        W 1934  36.626  14.340   0.103
36708W        W 1935  31.086  30.421   0.247
36709W        W 1936  42.330  21.941   4.122
36710W        W 1937  22.317  31.172   1.353
36711W        W 1938   4.548   8.273   1.247
36712W        W 1939   3.879  17.575  10.804
36713W        W 1940  31.861  21.377   3.910
36714W        W 1941  44.233  36.009  12.503
36715W        W 1942  29.744  39.035   2.462
36716W        W 1943  44.222  18.937  12.428
36717W        W 1944   3.775  20.080   0.859
36718W        W 1945   0.702  18.794   4.849
36719W        W 1946   2.416  38.084  14.546
36720W        W 1947  24.695  30.633  10.524
36721W        W 1948  26.541   0.956   4.926
36722W        W 1949   4.475  30.580   1.971
36723W        W 1950  34.819  38.982   4.251
36724W        W 1951  26.674  43.338   0.765
36725W        W 1952  24.963   9.708   1.773
36726W        W 1953   6.705  12.009   3.257
36727W        W 1954  18.614  10.170   1.204
36728W        W 1955   9.916  14.256  12.045
36729W        W 1956  41.077   2.978  11.932
36730W        W 1957   7.521  44.943  11.088
36731W        W 1958   8.839  21.245  11.941
36732W        W 1959  44.771  23.079  12.691
36733W        W 1960  33.622  26.605   4.683
36734W        W 1961  26.585  36.573   2.888
36735W        W 1962  18.530   4.105  11.221
36736W        W 1963  27.242  39.558   1.341
36737W        W 1964  35.943  27.223  12.115
36738W        W 1965   2.257  41.769   4.084
36739W        W 1966  41.277   5.638   1.115
36740W        W 1967  34.561  29.116  12.947
36741W        W 1968   3.762  26.242   5.317
36742W        W 1969  10.359  44.298  13.348
36743W        W 1970  18.682   1.193  13.035
36744W        W 1971  27.600   9.097  12.202
36745W        W 1972   9.191   0.065  14.300
36746W        W 1973  39.422   4.482  13.836
36747W        W 1974  22.315  26.425   4.117
36748W        W 1975  28.082  24.303   1.781
36749W        W 1976  35.011  34.202  12.451
36750W        W 1977  11.818  24.618  12.927
36751W        W 1978  36.155  32.396  11.790
36752W        W 1979  26.499   1.764  14.890
36753W        W 1980  19.873  38.417   4.692
36754W        W 1981  22.291   8.609  12.653
36755W        W 1982  23.905  41.304  13.142
36756W        W 1983  16.767   1.187  12.103
36757W        W 1984  33.505  16.271  14.500
36758W        W 1985   2.876  24.708  12.409
36759W        W 1986  14.148  32.651  13.594
36760W        W 1987  14.184  37.021   0.959
36761W        W 1988  29.447  24.075   2.363
36762W        W 1989   4.953  20.005  10.892
36763W        W 1990  14.872  33.034  13.455
36764W        W 1991  29.763  28.678  12.832
36765W        W 1992   4.198  12.398  14.826
36766W        W 1993   2.601  16.288   0.778
36767W        W 1994  10.782  22.474   3.776
36768W        W 1995   9.210  41.034  12.518
36769W        W 1996  20.369   9.375   0.541
36770W        W 1997  39.573   4.474   0.766
36771W        W 1998  12.222  33.381   4.566
36772W        W 1999  18.558  21.045  13.507
36773W        W 2000  17.587   6.493  10.773
36774W        W 2001   2.861  10.232   3.256
36775W        W 2002  32.247  25.986  14.050
36776W        W 2003  26.082   7.882   2.658
36777W        W 2004  15.516  10.835  14.319
36778W        W 2005  31.965  22.700  11.969
36779W        W 2006  37.978  44.763  11.408
36780W        W 2007  37.414  34.092  11.100
36781W        W 2008  40.803  19.785   0.023
36782W        W 2009  22.550  35.907  12.512
36783W        W 2010   0.297  44.274   4.150
36784W        W 2011  28.603  40.514  14.628
36785W        W 2012  23.263  44.881  14.044
36786W        W 2013  17.975   8.132  14.017
36787W        W 2014  16.153  17.593  10.789
36788W        W 2015  39.330  16.195   2.406
36789W        W 2016  32.589  30.056  12.544
36790W        W 2017  44.820  44.086  13.958
36791W        W 2018  40.287  32.107  12.912
36792W        W 2019  20.189   2.332  10.624
36793W        W 2020  40.288  40.128  13.860
36794W        W 2021   5.736   8.204   0.565
36795W        W 2022  35.812   7.613  14.795
36796W        W 2023  37.463  31.964  12.575
36797W        W 2024  35.685  42.489   0.832
36798W        W 2025  36.948  10.736   3.676
36799W        W 2026  10.607  29.490  10.676
36800W        W 2027  22.765  44.881  13.937
36801W        W 2028  16.393   3.364  14.910
36802W        W 2029  36.539  42.014  13.923
36803W        W 2030  15.566  37.143  11.988
36804W        W 2031  40.753   0.146   2.577
36805W        W 2032  19.997  30.208   2.358
36806W        W 2033  22.807  37.482  10.582
36807W        W 2034  10.256  35.409  10.910
36808W        W 2035   8.156  11.079  13.958
36809W        W 2036  40.907   9.782   0.003
36810W        W 2037  18.183  23.907   2.072
36811W        W 2038  30.172  17.544  13.058
36812W        W 2039   2.206  39.048  12.422
36813W        W 2040  39.065  11.262   0.708
36814W        W 2041  10.828  29.152   2.831
36815W        W 2042  20.475  19.543  13.955
36816W        W 2043  12.263  33.011  14.879
36817W        W 2044   6.845   4.370   2.978
36818W        W 2045  22.172   2.927   1.524
36819W        W 2046  42.859   2.222  12.074
36820W        W 2047  22.608   7.232   3.176
36821W        W 2048  10.015  19.650  14.792
36822W        W 2049  26.670   5.143  14.040
36823W        W 2050  43.215  44.282   0.901
36824W        W 2051  27.070   0.774  13.167
36825W        W 2052  28.269  27.421  14.916
36826W        W 2053   0.826   3.217  10.726
36827W        W 2054   5.147   1.279   0.878
36828W        W 2055   2.178  11.768  11.187
36829W        W 2056  24.000  30.565  12.946
36830W        W 2057   9.659   9.112  14.855
36831W        W 2058  20.780  41.340   1.374
36832W        W 2059   2.894  11.179  14.080
36833W        W 2060   9.659  30.097  13.418
36834W        W 2061  15.675   3.726   2.692
36835W        W 2062  31.075  18.502   3.845
36836W        W 2063  34.777  12.676  11.788
36837W        W 2064  10.189  43.636  13.864
36838W        W 2065   1.227  36.912   0.807
36839W        W 2066  38.257   7.752  11.732
36840W        W 2067  14.339  24.077   2.242
36841W        W 2068  44.292  40.337  14.494
36842W        W 2069   9.772  10.579  14.975
36843W        W 2070  25.102  40.277   1.447
36844W        W 2071  19.195  22.689   4.931
36845W        W 2072  37.382  38.036   2.138
36846W        W 2073  41.324  23.306  11.070
36847W        W 2074  40.297  26.462   1.658
36848W        W 2075   1.910  43.891  14.000
36849W        W 2076  39.854  37.255  12.910
36850W        W 2077  35.342  17.658  14.493
36851W        W 2078  39.409  35.600   1.402
36852W        W 2079  12.327   2.906  10.666
36853W        W 2080   4.805  44.333  14.808
36854W        W 2081  38.916  16.107  10.612
36855W        W 2082   4.503  21.571   2.370
36856W        W 2083  21.607  15.883   2.324
36857W        W 2084  13.669  25.401  13.282
36858W        W 2085  17.580   8.238   1.887
36859W        W 2086   4.786  29.558  12.196
36860W        W 2087  18.107  30.910  14.927
36861W        W 2088  13.447  25.114   3.268
36862W        W 2089  32.091   0.710   3.737
36863W        W 2090   8.494  40.790   4.100
36864W        W 2091   2.527  40.862  11.717
36865W        W 2092   1.914  33.433   1.775
36866W        W 2093   0.511   2.077   4.141
36867W        W 2094  43.726   4.052  14.021
36868W        W 2095  38.532  29.542   1.152
36869W        W 2096  32.908   5.198   0.828
36870W        W 2097   5.488   8.088  13.535
36871W        W 2098  13.735   0.716  13.634
36872W        W 2099   3.029  17.910   3.216
36873W        W 2100  41.191  31.379  11.191
36874W        W 2101   6.083   5.165  11.233
36875W        W 2102  10.197   1.274  14.858
36876W        W 2103  35.544  21.037   2.219
36877W        W 2104  32.131  24.644  14.025
36878W        W 2105  24.059  42.967   2.168
36879W        W 2106  22.298   7.662  13.649
36880W        W 2107  43.963  43.522   1.624
36881W        W 2108  40.951   4.695  10.723
36882W        W 2109  12.428  29.629  14.448
36883W        W 2110   0.319  23.030  14.969
36884W        W 2111   6.170  42.455  12.603
36885W        W 2112  16.160  36.758   4.712
36886W        W 2113  39.009  26.496  11.689
36887W        W 2114  44.088  15.427   5.045
36888W        W 2115   3.532  30.622   2.787
36889W        W 2116  25.827  16.155   0.259
36890W        W 2117  37.002  30.616  12.060
36891W        W 2118  27.329  38.993   3.158
36892W        W 2119   5.172  12.840   1.712
36893W        W 2120  20.276  31.573  12.427
36894W        W 2121  28.222  18.678   3.281
36895W        W 2122   5.525  23.183   2.910
36896W        W 2123  11.318  16.927  11.976
36897W        W 2124  36.967   9.222  12.623
36898W        W 2125  13.375  37.288   2.749
36899W        W 2126   2.173  13.408  13.992
36900W        W 2127  31.896  40.868  12.671
36901W        W 2128  30.179  17.107   3.986
36902W        W 2129  37.040   4.175   1.827
36903W        W 2130  31.370  43.443  13.339
36904W        W 2131  44.033  37.164   4.913
36905W        W 2132   8.776   6.609  10.689
36906W        W 2133  12.051   4.828  13.384
36907W        W 2134  44.026  35.646   0.807
36908W        W 2135  43.437  29.305  11.143
36909W        W 2136  38.086  17.981  10.783
36910W        W 2137  26.110   8.289   3.026
36911W        W 2138  43.631   5.180   0.387
36912W        W 2139   9.512  37.387   1.459
36913W        W 2140  30.561  33.113  12.123
36914W        W 2141  42.559  36.296  11.404
36915W        W 2142  17.954  29.597  11.013
36916W        W 2143  44.274  28.925   4.134
36917W        W 2144  16.125  42.601  10.827
36918W        W 2145  33.977  25.926  11.150
36919W        W 2146  40.151  21.143   9.824
36920W        W 2147  25.180  30.891  10.712
36921W        W 2148   8.356  17.696  11.236
36922W        W 2149  39.015   3.299  14.463
36923W        W 2150  19.229  35.455   3.113
36924W        W 2151  16.615  31.057  11.124
36925W        W 2152   2.746   6.808  11.003
36926W        W 2153  41.318   4.791   0.021
36927W        W 2154  33.218  26.273   0.584
36928W        W 2155   2.705  38.478  12.902
36929W        W 2156  12.204  35.719   2.841
36930W        W 2157   7.150   5.160  11.200
36931W        W 2158   5.473  39.890  11.271
36932W        W 2159   1.998  30.896   0.071
36933W        W 2160  40.760  36.893  13.387
36934W        W 2161   7.205  29.544   0.289
36935W        W 2162  18.024   8.059   4.514
36936W        W 2163   9.801  15.321  12.950
36937W        W 2164   3.389   0.573   4.443
36938W        W 2165  41.388  29.556   2.330
36939W        W 2166  38.317  17.485  13.160
36940W        W 2167   1.316  16.616  13.684
36941W        W 2168  37.950  35.361  12.188
36942W        W 2169  34.586   3.082   0.011
36943W        W 2170  16.287  22.253   3.722
36944W        W 2171  43.844  24.955  11.614
36945W        W 2172   3.581  29.987  11.367
36946W        W 2173  27.247  26.507  13.923
36947W        W 2174   9.596  40.520   0.763
36948W        W 2175  13.923  10.083  13.628
36949W        W 2176  36.068   6.048   1.340
36950W        W 2177  26.813   5.631  13.952
36951W        W 2178   7.405  31.979  12.070
36952W        W 2179  44.272  14.173   3.112
36953W        W 2180  43.099  31.207   2.763
36954W        W 2181  21.603  34.613  10.748
36955W        W 2182  30.178   7.193  12.842
36956W        W 2183   6.805   7.837  13.739
36957W        W 2184  13.126  23.153   3.666
36958W        W 2185  39.285  43.025  12.681
36959W        W 2186  25.967  37.053   4.475
36960W        W 2187  28.242   5.856   1.681
36961W        W 2188  36.410  10.489   4.998
36962W        W 2189   3.838  29.233  14.772
36963W        W 2190   4.794  36.824  11.892
36964W        W 2191  31.556  33.899  11.139
36965W        W 2192  29.373  27.688   0.994
36966W        W 2193  19.142  43.926   3.329
36967W        W 2194  40.417   4.094   1.805
36968W        W 2195  30.144  35.596   3.777
36969W        W 2196  14.208  21.678   4.228
36970W        W 2197  25.986  20.398  11.927
36971W        W 2198  17.925  32.815   4.169
36972W        W 2199   2.033  20.229  13.903
36973W        W 2200  23.167  36.880   1.947
36974W        W 2201  11.624  18.618  12.498
36975W        W 2202  16.030  17.134   1.327
36976W        W 2203  19.535  17.000   1.828
36977W        W 2204  27.968  29.503  12.251
36978W        W 2205  44.450  40.553   0.481
36979W        W 2206  21.756  16.587   2.751
36980W        W 2207   5.197  42.263   1.730
36981W        W 2208  23.342  17.925   1.888
36982W        W 2209  26.369  13.728  13.539
36983W        W 2210  33.234  17.721   3.596
36984W        W 2211  20.169  24.531   2.796
36985W        W 2212  17.719  16.597   4.081
36986W        W 2213  25.372  13.604  12.725
36987W        W 2214   1.417  22.584   2.839
36988W        W 2215  22.290  10.451   4.197
36989W        W 2216   3.006   3.441   1.396
36990W        W 2217   9.898  12.194  12.516
36991W        W 2218   7.813  32.402  11.152
36992W        W 2219   5.323  26.780   0.670
36993W        W 2220  28.102   5.842   0.751
36994W        W 2221   2.984  44.157   4.113
36995W        W 2222  11.690  42.620   2.857
36996W        W 2223  11.228  19.598  12.504
36997W        W 2224  40.108  33.723   3.114
36998W        W 2225   2.701  41.786  13.028
36999W        W 2226   2.861  38.189  12.370
37000W        W 2227   8.258   0.741   4.583
37001W        W 2228  28.311  19.333  11.187
37002W        W 2229  17.568   4.903   2.249
37003W        W 2230   2.772  32.784   1.175
37004W        W 2231  23.666   6.193  10.777
37005W        W 2232  16.038   3.635   4.576
37006W        W 2233  33.412  32.757  10.330
37007W        W 2234  38.006  41.048  11.201
37008W        W 2235  39.425  40.935   3.190
37009W        W 2236  18.080   4.773   4.179
37010W        W 2237  15.192  32.518   4.596
37011W        W 2238  14.694  10.938   0.997
37012W        W 2239  22.945   3.807  14.021
37013W        W 2240  25.726  26.327  11.930
37014W        W 2241  21.996  19.204  13.335
37015W        W 2242  41.923  22.238  10.652
37016W        W 2243  23.193  24.199   0.315
37017W        W 2244  26.065  26.310   3.706
37018W        W 2245   7.751  41.237   2.207
37019W        W 2246  25.150  29.371   4.578
37020W        W 2247   9.104  21.576   3.464
37021W        W 2248  42.364  40.358  14.458
37022W        W 2249   6.799  11.292   2.716
37023W        W 2250  36.936  20.825   1.403
37024W        W 2251  12.071  16.169  14.068
37025W        W 2252  20.594   9.680  13.788
37026W        W 2253  12.122  42.542   4.101
37027W        W 2254  42.745   2.543  14.384
37028W        W 2255   7.551  23.203  14.282
37029W        W 2256  20.466  37.536  14.340
37030W        W 2257  24.220  16.228   1.907
37031W        W 2258  36.321   3.837  14.938
37032W        W 2259  15.193  42.521  12.626
37033W        W 2260  25.508  33.090   0.811
37034W        W 2261  17.736  30.648   0.697
37035W        W 2262   3.295   7.116  10.412
37036W        W 2263  10.151  20.890   0.058
37037W        W 2264   0.426  11.595   3.254
37038W        W 2265  37.640   5.882  12.790
37039W        W 2266  44.867  14.189  10.958
37040W        W 2267  27.948  20.949   4.096
37041W        W 2268  19.632   8.174  13.582
37042W        W 2269  10.245  24.173   3.065
37043W        W 2270  41.938  18.730  13.116
37044W        W 2271   2.905  10.921   1.929
37045W        W 2272  17.066  18.896   3.427
37046W        W 2273  12.255   9.725  13.914
37047W        W 2274  11.294   9.927   2.389
37048W        W 2275   3.933  31.671  14.462
37049W        W 2276  36.897  35.083   3.621
37050W        W 2277   7.704  29.373  11.436
37051W        W 2278  38.866   1.496   2.216
37052W        W 2279  15.782  32.207   0.471
37053W        W 2280   9.343  31.137   4.703
37054W        W 2281   4.841   8.679   4.593
37055W        W 2282   2.805  34.165   4.636
37056W        W 2283  40.471  36.749   2.630
37057W        W 2284  15.241   5.197   4.179
37058W        W 2285  22.212  31.660  11.603
37059W        W 2286  23.517  34.056  13.303
37060W        W 2287   3.699  35.802  14.987
37061W        W 2288  44.423  30.518  14.898
37062W        W 2289  19.532  26.921  11.716
37063W        W 2290  13.852  14.810   4.271
37064W        W 2291  24.448  37.887  11.665
37065W        W 2292  21.357  19.069   2.402
37066W        W 2293   8.788  42.530   3.272
37067W        W 2294  24.405  10.227  13.419
37068W        W 2295  43.500  10.227  13.273
37069W        W 2296  27.724  15.285  13.887
37070W        W 2297   4.714  40.677   0.120
37071W        W 2298  20.322  22.322  11.041
37072W        W 2299   1.704  35.050   1.045
37073W        W 2300  18.844  24.962  11.460
37074W        W 2301  14.302  18.230   2.857
37075W        W 2302  39.451  17.934   1.826
37076W        W 2303   0.506   3.507  13.079
37077W        W 2304  17.698  19.808   1.379
37078W        W 2305  32.524  11.195   0.445
37079W        W 2306   1.502  30.061   0.548
37080W        W 2307  42.202   0.473   2.412
37081W        W 2308  20.732   4.840   4.675
37082W        W 2309  41.850  16.305   3.256
37083W        W 2310  18.301   9.766  13.424
37084W        W 2311  36.677  10.799  11.170
37085W        W 2312  30.199  15.383  11.479
37086W        W 2313  43.013  28.364   4.198
37087W        W 2314  37.269  24.467   2.991
37088W        W 2315  25.052  16.226   0.824
37089W        W 2316  41.383  13.547   0.572
37090W        W 2317  29.680  30.908  10.643
37091W        W 2318  28.247  43.653   5.008
37092W        W 2319  19.782  15.145  11.131
37093W        W 2320  40.424  18.703  11.748
37094W        W 2321  25.186   8.244   2.921
37095W        W 2322   4.713  28.630   0.909
37096W        W 2323  24.145  40.834  13.194
37097W        W 2324   4.451  13.152  13.042
37098W        W 2325   8.179  14.750   0.858
37099W        W 2326   1.372  20.515  14.596
37100W        W 2327  38.115  23.473  11.413
37101W        W 2328  23.601  30.596  14.293
37102W        W 2329   2.651   8.945   0.276
37103W        W 2330   3.875  43.056  12.832
37104W        W 2331  39.487  33.486  13.872
37105W        W 2332  35.526  39.916  12.451
37106W        W 2333   3.206  24.651  13.943
37107W        W 2334  20.556  44.501   1.000
37108W        W 2335   2.492  38.084   4.068
37109W        W 2336  21.866   6.137   0.335
37110W        W 2337  18.245  44.964  13.368
37111W        W 2338  18.493  10.389  11.554
37112W        W 2339  38.889   3.529   0.054
37113W        W 2340  29.085  32.914  13.762
37114W        W 2341  28.024  11.185  14.864
37115W        W 2342  29.538  32.555   0.295
37116W        W 2343   4.876  29.243   2.021
37117W        W 2344  29.987  31.804   2.001
37118W        W 2345  44.328  28.718   0.767
37119W        W 2346  36.049  25.984   0.210
37120W        W 2347  30.290  25.391   9.794
37121W        W 2348  22.105  35.299   4.106
37122W        W 2349  21.035  15.761  11.531
37123W        W 2350  37.608  15.750  13.833
37124W        W 2351   9.011  26.963  12.119
37125W        W 2352  21.011   4.817   3.411
37126W        W 2353   7.193  28.490   0.935
37127W        W 2354   1.900  31.119   2.203
37128W        W 2355  21.238  33.482  13.728
37129W        W 2356  16.360  23.077  13.110
37130W        W 2357  40.411  11.451  14.232
37131W        W 2358  24.286  35.966   2.839
37132W        W 2359   5.719  23.626  13.986
37133W        W 2360  39.927  33.860   3.592
37134W        W 2361  24.458  31.981  11.000
37135W        W 2362  40.344  32.542  13.194
37136W        W 2363  35.413  11.307   2.771
37137W        W 2364  36.935  41.032  13.932
37138W        W 2365  29.775  22.292  13.530
37139W        W 2366  31.884  10.669   0.778
37140W        W 2367  43.809  32.904  11.568
37141W        W 2368  41.352  11.612   1.288
37142W        W 2369  36.410  12.125  12.050
37143W        W 2370  21.997  13.677  11.213
37144W        W 2371  17.796  42.224  10.626
37145W        W 2372  24.383  26.427   0.577
37146W        W 2373  38.740  19.640   1.023
37147W        W 2374   7.030  43.437   4.138
37148W        W 2375  30.373  34.697   2.722
37149W        W 2376   9.428  14.530   0.413
37150W        W 2377  33.581  27.071  14.305
37151W        W 2378  13.374   3.723  12.000
37152W        W 2379   5.767  44.735   4.562
37153W        W 2380  39.547  24.688   2.263
37154W        W 2381  12.690   1.320  11.663
37155W        W 2382   1.565  38.242   4.778
37156W        W 2383  41.021  41.712  14.246
37157W        W 2384   4.216  29.533   3.244
37158W        W 2385  36.708  35.982  12.726
37159W        W 2386  42.656  24.631   2.132
37160W        W 2387  44.710  26.488  14.542
37161W        W 2388  25.575  17.943  10.742
37162W        W 2389  32.012  37.392   4.098
37163W        W 2390  13.734  11.411   1.756
37164W        W 2391  25.158  13.856  14.305
37165W        W 2392  24.901   5.628  14.458
37166W        W 2393   6.699  33.951   1.774
37167W        W 2394  28.138  39.568  13.932
37168W        W 2395  30.140  37.939  13.522
37169W        W 2396  24.115  18.564   2.651
37170W        W 2397  40.252  20.063  11.192
37171W        W 2398  14.576  42.506  10.962
37172W        W 2399  16.701  37.174   3.297
37173W        W 2400  43.312  12.568  13.641
37174W        W 2401  43.466  32.449  14.078
37175W        W 2402  29.575  23.032   4.741
37176W        W 2403  18.539  23.024  12.837
37177W        W 2404  11.586  40.198   2.614
37178W        W 2405  20.621   2.890   4.154
37179W        W 2406  41.138  44.531  11.325
37180W        W 2407  13.685  14.125  11.425
37181W        W 2408  41.974  10.799   0.183
37182W        W 2409   5.750  16.143   0.325
37183W        W 2410  30.960  27.069  13.615
37184W        W 2411  16.315  22.962  12.114
37185W        W 2412  13.352   2.569  10.813
37186W        W 2413  24.278  35.044   4.058
37187W        W 2414  24.696  14.569  14.842
37188W        W 2415   8.042  13.406   2.725
37189W        W 2416  11.266  26.152  13.844
37190W        W 2417  18.576  39.395   4.560
37191W        W 2418   4.781  29.391  14.555
37192W        W 2419  13.125  29.617  13.879
37193W        W 2420   1.182  20.611  13.613
37194W        W 2421  21.624   9.830  14.909
37195W        W 2422  36.647   2.346   3.767
37196W        W 2423  39.778  28.219  14.943
37197W        W 2424  12.683  19.910  12.504
37198W        W 2425  39.912  13.454  13.916
37199W        W 2426  13.396  10.430  14.489
37200W        W 2427   0.518   6.665   0.456
37201W        W 2428  16.217   1.106   3.896
37202W        W 2429  23.855  30.991   0.779
37203W        W 2430   1.921  22.215   1.269
37204W        W 2431  44.861  18.617   3.123
37205W        W 2432  17.506  25.499  13.934
37206W        W 2433  31.445   2.850  10.963
37207W        W 2434   2.983  33.056  14.246
37208W        W 2435   3.481  13.757   0.908
37209W        W 2436  12.152  22.067   1.189
37210W        W 2437  31.348   8.369  10.693
37211W        W 2438  19.444  22.694  14.485
37212W        W 2439  17.638  32.021   1.724
37213W        W 2440  29.014  12.053   2.360
37214W        W 2441  35.768  15.122  14.053
37215W        W 2442  19.091  14.829  12.196
37216W        W 2443   0.748  27.675   0.072
37217W        W 2444  18.458   9.666   1.223
37218W        W 2445  27.775  11.154   3.741
37219W        W 2446  15.980   5.488  13.397
37220W        W 2447   3.828  13.063   4.746
37221W        W 2448   7.362  19.948  11.181
37222W        W 2449  40.274  29.615   3.326
37223W        W 2450   8.874  26.169   3.746
37224W        W 2451  11.100   2.160   4.531
37225W        W 2452  21.606   8.736   2.065
37226W        W 2453  40.264  11.784  13.380
37227W        W 2454   6.799   0.541  14.693
37228W        W 2455  15.849  40.944  11.142
37229W        W 2456   2.338  24.111  11.506
37230W        W 2457   9.318  36.886  13.919
37231W        W 2458  16.598  34.594  10.683
37232W        W 2459  37.683  12.111  14.919
37233W        W 2460  39.514  16.891   3.756
37234W        W 2461  16.561  24.539  11.575
37235W        W 2462  13.592  22.655  11.214
37236W        W 2463  14.883  44.508  11.636
37237W        W 2464  25.991  13.822  13.886
37238W        W 2465  14.076  18.532  11.144
37239W        W 2466  35.371  29.174  11.691
37240W        W 2467   3.737  20.471  12.474
37241W        W 2468  10.788  21.510  11.063
37242W        W 2469  33.169   5.885  10.700
37243W        W 2470  26.457  25.934   0.315
37244W        W 2471  34.038  40.936  12.962
37245W        W 2472  17.477  42.419   2.702
37246W        W 2473  13.569  13.636  13.989
37247W        W 2474  42.719   7.385   1.529
37248W        W 2475   6.282  31.714   1.486
37249W        W 2476  37.404  24.767   1.535
37250W        W 2477  26.982  10.291   4.596
37251W        W 2478  43.509  25.966  11.503
37252W        W 2479   1.044   3.421   4.515
37253W        W 2480   3.779  26.126  13.363
37254W        W 2481  17.295  20.199   2.906
37255W        W 2482  10.336  24.213   1.016
37256W        W 2483  44.276  43.499  14.376
37257W        W 2484  39.431  10.109  11.584
37258W        W 2485   5.671  28.643   3.890
37259W        W 2486  14.128  38.679   0.259
37260W        W 2487   2.063  10.548  10.071
37261W        W 2488   4.708  20.471  10.701
37262W        W 2489  23.064   7.669  10.737
37263W        W 2490  32.178   0.941  12.985
37264W        W 2491  37.599  36.377   3.584
37265W        W 2492  34.980   5.683   0.518
37266W        W 2493  10.915  41.330  11.666
37267W        W 2494  30.430   6.131  11.717
37268W        W 2495  29.499  17.135  11.986
37269W        W 2496  31.638   1.856  13.432
37270W        W 2497   0.807  36.435  10.256
37271W        W 2498  44.406  43.401   2.825
37272W        W 2499  15.574  31.638  10.650
37273W        W 2500   2.254  32.361  12.846
37274W        W 2501  35.431  13.424   2.534
37275W        W 2502  31.981  27.180  13.579
37276W        W 2503  42.956  23.350   3.977
37277W        W 2504  37.076  12.257  13.475
37278W        W 2505  23.804   6.828  12.832
37279W        W 2506  40.070  22.634  13.145
37280W        W 2507   1.670  28.489   0.844
37281W        W 2508  32.485   5.947   1.178
37282W        W 2509   8.096  44.674  11.688
37283W        W 2510  19.105  17.052   3.194
37284W        W 2511  22.949   8.897  12.046
37285W        W 2512  38.588  12.908  11.042
37286W        W 2513  25.286  31.336  14.281
37287W        W 2514  38.499  18.223   3.237
37288W        W 2515   8.724  19.065  14.452
37289W        W 2516  31.961  39.875  11.876
37290W        W 2517  34.736  43.680  11.652
37291W        W 2518   0.297  14.784   2.448
37292W        W 2519  22.375  38.310  12.510
37293W        W 2520   1.236   9.356   0.797
37294W        W 2521  11.396  18.320  11.730
37295W        W 2522   8.614  24.407  14.499
37296W        W 2523  35.540   3.675   3.845
37297W        W 2524  14.424  20.330  13.818
37298W        W 2525  19.381  12.276  14.553
37299W        W 2526  44.282  11.087  14.564
37300W        W 2527  24.764  26.952   1.524
37301W        W 2528  17.789   8.910  14.162
37302W        W 2529  43.803   0.782  11.883
37303W        W 2530   4.689  39.575  13.075
37304W        W 2531  40.489  17.725  14.351
37305W        W 2532   3.361   8.845  10.371
37306W        W 2533   1.846  19.757  14.021
37307W        W 2534  16.092  35.183   4.723
37308W        W 2535  25.182   3.593  12.713
37309W        W 2536  20.611  27.019  13.596
37310W        W 2537   1.298   2.986   2.413
37311W        W 2538  38.781  43.431   0.463
37312W        W 2539  13.935   7.508   1.320
37313W        W 2540  24.277   4.955  10.671
37314W        W 2541  33.787  43.456   1.038
37315W        W 2542  31.857  44.470  11.942
37316W        W 2543  22.173  26.829  14.468
37317W        W 2544   1.317  24.681   1.686
37318W        W 2545   9.419  36.887  11.151
37319W        W 2546   3.768   2.714   3.132
37320W        W 2547  27.087  29.171  11.341
37321W        W 2548  39.458  17.302  12.520
37322W        W 2549  37.051  40.743  11.523
37323W        W 2550   3.843   3.440  13.374
37324W        W 2551   2.279  29.596   4.519
37325W        W 2552  30.041  18.520  13.997
37326W        W 2553   3.811  19.950   2.900
37327W        W 2554  17.150   1.685   0.427
37328W        W 2555  34.496  22.540  13.648
37329W        W 2556  16.895  38.501  10.830
37330W        W 2557   5.568   2.754   4.805
37331W        W 2558  42.974  29.675   1.737
37332W        W 2559   7.871  20.585   0.708
37333W        W 2560  36.302  19.823  14.309
37334W        W 2561  25.354  25.100  13.586
37335W        W 2562   9.753  22.779   4.676
37336W        W 2563  30.725  40.687   1.416
37337W        W 2564  36.164  15.545   4.183
37338W        W 2565  12.574  33.605  10.707
37339W        W 2566  14.372  26.389  11.516
37340W        W 2567   3.628  39.636  10.205
37341W        W 2568  31.433   9.325  10.753
37342W        W 2569  11.160   8.874   0.823
37343W        W 2570  20.776  31.398  10.654
37344W        W 2571   0.477  14.983   3.600
37345W        W 2572  38.780  28.551   0.229
37346W        W 2573  31.147  22.739   2.795
37347W        W 2574   3.807  18.169  13.532
37348W        W 2575  41.597  38.302   1.133
37349W        W 2576  34.705  40.527   4.855
37350W        W 2577  41.973  42.339   3.352
37351W        W 2578  20.115  30.697  12.939
37352W        W 2579  19.814   4.381  11.871
37353W        W 2580  35.968   7.476   4.407
37354W        W 2581  35.744  43.511   3.096
37355W        W 2582   0.904  11.523  10.597
37356W        W 2583   5.286  37.462  10.924
37357W        W 2584  13.626  41.638  13.516
37358W        W 2585  29.992  16.976  11.967
37359W        W 2586  43.298  31.686  13.056
37360W        W 2587  30.036  30.047  11.548
37361W        W 2588  32.004   2.905  10.711
37362W        W 2589  34.079  42.276  14.869
37363W        W 2590  11.580   9.644  14.641
37364W        W 2591  10.343  36.052  11.568
37365W        W 2592  32.406  30.218   0.888
37366W        W 2593  13.715  36.829  10.428
37367W        W 2594  12.758  33.346  12.704
37368W        W 2595  23.431  11.405  14.962
37369W        W 2596  19.013   0.044   1.697
37370W        W 2597  21.444  10.381   4.965
37371W        W 2598   9.881  21.762  13.865
37372W        W 2599  23.115  44.994   0.783
37373W        W 2600  27.598  22.127   3.864
37374W        W 2601   8.646  24.813  13.600
37375W        W 2602  18.666  19.337  10.765
37376W        W 2603  20.272  15.300   2.809
37377W        W 2604  25.846  41.455  12.361
37378W        W 2605  19.336   9.692  12.463
37379W        W 2606  27.103  27.519  13.170
37380W        W 2607  19.621  18.667  10.732
37381W        W 2608  20.194  34.150  10.694
37382W        W 2609  42.673   2.495   1.308
37383W        W 2610  11.003  14.686   5.101
37384W        W 2611   3.708  14.152  13.379
37385W        W 2612  24.202   4.907   1.375
37386W        W 2613  42.855  23.616   3.102
37387W        W 2614  30.124   3.838  12.217
37388W        W 2615   4.006  10.196  12.453
37389W        W 2616  29.736  40.548   0.848
37390W        W 2617  11.329   3.473   3.456
37391W        W 2618  27.560  15.325  13.410
37392W        W 2619   9.109  30.269   2.708
37393W        W 2620  13.691  19.119  11.169
37394W        W 2621   8.884  39.370  10.648
37395W        W 2622  12.734  18.809   2.222
37396W        W 2623  34.783   2.789   0.913
37397W        W 2624   3.411   5.085   2.247
37398W        W 2625  41.209  25.172  13.937
37399W        W 2626  41.981  40.808  12.989
37400W        W 2627  16.278  39.222  11.594
37401W        W 2628   2.193   9.631   1.819
37402W        W 2629   0.229  11.316  11.884
37403W        W 2630  22.510  41.815   3.314
37404W        W 2631  22.040  30.476   3.498
37405W        W 2632  34.639  14.549   1.808
37406W        W 2633  25.507   8.881  14.567
37407W        W 2634  32.589   9.107   3.712
37408W        W 2635   4.409   7.935  11.524
37409W        W 2636  26.140  18.204   2.249
37410W        W 2637  30.723  43.384  11.155
37411W        W 2638  30.605  20.319   0.690
37412W        W 2639  19.339   3.206  11.977
37413W        W 2640  21.172  19.000   0.082
37414W        W 2641   3.206  26.777  11.994
37415W        W 2642   8.056   0.825   1.363
37416W        W 2643  27.179   2.389  14.583
37417W        W 2644  17.562   0.843  10.483
37418W        W 2645   0.404  38.659   1.921
37419W        W 2646  42.226  43.430  14.354
37420W        W 2647  27.752  19.703   0.282
37421W        W 2648  18.519  34.341   4.275
37422W        W 2649   6.401   5.705  13.940
37423W        W 2650   6.644  27.218  13.144
37424W        W 2651  33.238  19.523   3.683
37425W        W 2652  32.375   3.306  14.001
37426W        W 2653  37.224  31.056   0.856
37427W        W 2654  39.419  14.276   2.389
37428W        W 2655  16.865  24.600   1.806
37429W        W 2656  21.755  35.332  12.900
37430W        W 2657  23.205  36.808   0.082
37431W        W 2658  19.111  16.641   3.572
37432W        W 2659  16.522  26.951  11.272
37433W        W 2660   4.737  33.144  12.565
37434W        W 2661  35.410  19.210   2.663
37435W        W 2662  32.110  28.333   4.972
37436W        W 2663  43.490   7.515   3.696
37437W        W 2664  18.561  40.914   1.879
37438W        W 2665  32.140   7.299  14.735
37439W        W 2666  18.737  35.227   0.152
37440W        W 2667   9.846  43.762  13.497
37441W        W 2668  28.135   3.329   4.519
37442W        W 2669  12.187   5.351  13.491
37443W        W 2670   9.902  42.723  11.211
37444W        W 2671  33.450   2.648   2.209
37445W        W 2672  43.879  31.441   4.123
37446W        W 2673  37.422  41.553   1.282
37447W        W 2674   4.791  35.770   3.305
37448W        W 2675  34.076   1.465  14.286
37449W        W 2676  29.634  42.964  13.800
37450W        W 2677  32.666   2.549  11.522
37451W        W 2678  25.935  22.562   0.705
37452W        W 2679  28.913  30.557  14.582
37453W        W 2680  31.356  25.616  11.997
37454W        W 2681  19.158  10.120   4.456
37455W        W 2682  20.128  20.758  12.012
37456W        W 2683  28.400  40.715   1.206
37457W        W 2684  16.290  41.739  12.029
37458W        W 2685   8.306   1.270   4.493
37459W        W 2686  38.952  37.294   0.481
37460W        W 2687  44.046  31.782  12.055
37461W        W 2688  41.960  26.523  13.954
37462W        W 2689   6.322  33.915  11.092
37463W        W 2690  20.977   7.164  13.394
37464W        W 2691  18.217  23.422  12.498
37465W        W 2692   6.470  15.044  12.805
37466W        W 2693  40.240  35.501  10.505
37467W        W 2694  35.666  16.196  11.104
37468W        W 2695  35.807   9.714   0.560
37469W        W 2696  37.624  29.991   0.042
37470W        W 2697  11.824  19.935  14.553
37471W        W 2698   2.917  32.499   2.109
37472W        W 2699  27.609   9.822   4.002
37473W        W 2700  25.576   0.888  13.893
37474W        W 2701  14.481  37.378   3.696
37475W        W 2702  43.121   6.473   0.006
37476W        W 2703  12.036   9.740  12.567
37477W        W 2704  34.512   8.299  11.679
37478W        W 2705  36.265  36.692  10.523
37479W        W 2706  31.988  25.473  10.474
37480W        W 2707  42.843   4.873  14.335
37481W        W 2708   7.620  11.626   4.081
37482W        W 2709   7.662   6.781   3.961
37483W        W 2710  43.809  34.780   1.831
37484W        W 2711  31.947  41.610   0.784
37485W        W 2712  40.389  19.805  13.468
37486W        W 2713  19.646  40.980   2.663
37487W        W 2714   8.916  38.137   3.244
37488W        W 2715  30.397   9.147  12.405
37489W        W 2716   5.352  30.621  13.813
37490W        W 2717  26.247   6.983   4.188
37491W        W 2718  14.674  44.541   3.630
37492W        W 2719   3.148  43.791   2.237
37493W        W 2720   7.450  42.977   1.871
37494W        W 2721  41.584  19.458   2.936
37495W        W 2722  43.833  39.309   0.368
37496W        W 2723  32.978  43.027  13.586
37497W        W 2724  35.597  18.781  11.824
37498W        W 2725   4.644  37.292   0.741
37499W        W 2726  22.609  39.156  13.326
37500W        W 2727  18.101  30.918  12.075
37501W        W 2728   3.890   7.958  11.535
37502W        W 2729   0.470   7.426   0.997
37503W        W 2730  27.725   1.853  12.150
37504W        W 2731   8.685  10.750   0.512
37505W        W 2732  24.480   6.249   1.068
37506W        W 2733  14.476  27.474  10.963
37507W        W 2734  10.462  18.135  14.811
37508W        W 2735  29.410   5.819  11.611
37509W        W 2736   4.600  22.052   3.704
37510W        W 2737  44.860  25.037   3.874
37511W        W 2738   2.364   8.185   0.260
37512W        W 2739   6.874   7.580  13.292
37513W        W 2740   5.856  40.843   1.902
37514W        W 2741  31.070  18.130  11.569
37515W        W 2742   9.367  28.462   1.801
37516W        W 2743  40.539  27.146  14.386
37517W        W 2744  33.627  37.089   3.266
37518W        W 2745   6.190  15.155  13.312
37519W        W 2746  24.516   2.365  13.927
37520W        W 2747  13.284  43.248   1.795
37521W        W 2748   7.538  20.748  12.917
37522W        W 2749  33.006  13.768  12.077
37523W        W 2750  21.708   8.849  13.278
37524W        W 2751   4.616   1.668   3.390
37525W        W 2752  40.529  41.091  12.899
37526W        W 2753   7.431  29.469  13.358
37527W        W 2754  12.045  34.907  10.346
37528W        W 2755  35.889  39.558   4.692
37529W        W 2756   3.273   9.818  14.280
37530W        W 2757  29.432  17.929   4.079
37531W        W 2758   3.412  27.234  14.148
37532W        W 2759   2.537  25.379   1.351
37533W        W 2760   7.182  12.404   4.593
37534W        W 2761   1.518  34.182   3.890
37535W        W 2762  31.072  14.302  11.690
37536W        W 2763  12.858  31.449  11.091
37537W        W 2764   8.349  16.801   5.377
37538W        W 2765  13.197  13.556   1.314
37539W        W 2766  43.801   4.177  10.727
37540W        W 2767  12.106  30.982  10.857
37541W        W 2768  27.216   5.963  10.663
37542W        W 2769  33.965  43.416   4.012
37543W        W 2770  20.178  14.717   3.395
37544W        W 2771  18.180   1.944   2.694
37545W        W 2772  11.170  21.584  12.338
37546W        W 2773  27.851  11.152   4.507
37547W        W 2774  44.522   9.244  13.791
37548W        W 2775  11.822   0.684   2.300
37549W        W 2776   9.160   4.588   2.669
37550W        W 2777  22.552  21.161   3.228
37551W        W 2778  35.939  35.112   1.838
37552W        W 2779  11.260  11.903  10.908
37553W        W 2780  13.295  23.129   2.242
37554W        W 2781  22.465  31.681   0.405
37555W        W 2782  42.924  28.469   3.130
37556W        W 2783  23.903  35.319  13.386
37557W        W 2784  36.802   7.778  12.399
37558W        W 2785  22.563  27.399   2.784
37559W        W 2786  19.871  43.699   4.003
37560W        W 2787   0.998  22.113   4.003
37561W        W 2788  36.418   0.755   1.807
37562W        W 2789   6.674  24.203   4.154
37563W        W 2790  28.037  34.399   2.130
37564W        W 2791   6.239   5.733  12.458
37565W        W 2792   6.669  16.099  11.061
37566W        W 2793   8.753  27.885   2.506
37567W        W 2794   1.281  10.354  12.209
37568W        W 2795  28.830  23.526   3.150
37569W        W 2796  14.954  38.746   3.652
37570W        W 2797  22.659  23.014   0.742
37571W        W 2798  11.120  25.179   1.228
37572W        W 2799  25.976  16.824   3.707
37573W        W 2800  35.488  23.096  14.270
37574W        W 2801   3.282  33.746   5.139
37575W        W 2802  39.988  20.501   2.379
37576W        W 2803  41.402  15.244  12.375
37577W        W 2804  42.747   4.266   1.287
37578W        W 2805  31.774  30.428  14.880
37579W        W 2806  27.547  12.781  15.000
37580W        W 2807   6.007  16.250  14.371
37581W        W 2808  21.849  30.014   0.494
37582W        W 2809  13.380  20.803   3.089
37583W        W 2810  21.311  21.084  10.938
37584W        W 2811  21.178  43.703   4.016
37585W        W 2812  20.024  44.851  10.966
37586W        W 2813  23.211  16.771  14.349
37587W        W 2814  27.521  16.557  11.466
37588W        W 2815  35.666  27.656   2.564
37589W        W 2816  23.438  24.734  12.035
37590W        W 2817  27.917  37.183  14.727
37591W        W 2818   5.177  27.873  11.893
37592W        W 2819   2.805  27.561  12.838
37593W        W 2820   2.380  33.980   0.342
37594W        W 2821  21.385  42.497   2.192
37595W        W 2822  13.403  19.593  13.846
37596W        W 2823  41.641  44.267  13.563
37597W        W 2824   8.700  34.092  14.929
37598W        W 2825  20.530  44.759   0.542
37599W        W 2826  38.329  12.672   1.221
37600W        W 2827   4.505  30.321   2.825
37601W        W 2828  32.997   0.430   4.589
37602W        W 2829  20.077  36.175  12.063
37603W        W 2830  18.559  13.736   2.812
37604W        W 2831  43.232   7.265   4.043
37605W        W 2832  36.423  32.219   1.161
37606W        W 2833  28.872  24.158  10.661
37607W        W 2834  10.650  26.677  10.743
37608W        W 2835  37.391  15.616  11.621
37609W        W 2836  12.631  24.139  14.295
37610W        W 2837  17.624  16.551   1.771
37611W        W 2838  19.049   8.280  10.762
37612W        W 2839   5.349  20.200  10.604
37613W        W 2840  42.979   4.544  11.172
37614W        W 2841  34.161   7.862   3.173
37615W        W 2842   4.669  22.054  13.035
37616W        W 2843  35.340  43.453   2.709
37617W        W 2844  14.054  27.363  11.637
37618W        W 2845  11.057  14.577   2.759
37619W        W 2846  28.571  17.612   4.131
37620W        W 2847  38.382  29.345   1.751
37621W        W 2848  31.964   3.159  13.438
37622W        W 2849   3.382   1.209   1.262
37623W        W 2850  22.429  37.533   2.813
37624W        W 2851  32.426   0.751   1.351
37625W        W 2852  23.702  37.667  12.333
37626W        W 2853  37.413  36.263  14.239
37627W        W 2854   3.772  26.083  12.860
37628W        W 2855  22.586  26.177  14.302
37629W        W 2856  26.536  33.652  12.792
37630W        W 2857  26.587   2.825  13.654
37631W        W 2858  16.787  28.605   4.048
37632W        W 2859  32.580   8.331  10.778
37633W        W 2860  34.528   4.796   3.555
37634W        W 2861  39.205   8.987  13.031
37635W        W 2862  28.194  43.303  14.489
37636W        W 2863  17.259  10.309   3.250
37637W        W 2864   4.733  12.738  13.668
37638W        W 2865  19.188   4.044  13.392
37639W        W 2866  18.044  28.060  13.092
37640W        W 2867  26.672   1.443   1.645
37641W        W 2868   9.189  33.806   2.390
37642W        W 2869  41.507  15.827  13.737
37643W        W 2870   6.821  24.511   1.759
37644W        W 2871  25.452  17.485   4.181
37645W        W 2872  22.010   7.917  14.000
37646W        W 2873  28.000  33.638  14.103
37647W        W 2874  40.429  16.725   0.693
37648W        W 2875  42.323  29.926  10.617
37649W        W 2876  12.592   8.302   4.417
37650W        W 2877  40.768  34.640  10.557
37651W        W 2878  19.339   1.964  11.990
37652W        W 2879  39.317  11.661  11.535
37653W        W 2880  17.145   5.539   1.565
37654W        W 2881   6.907   3.876  11.683
37655W        W 2882  39.967  29.925   2.801
37656W        W 2883  37.073  44.331  13.318
37657W        W 2884  25.250  33.054  11.444
37658W        W 2885  25.658  21.663  11.721
37659W        W 2886  28.700  34.575   0.692
37660W        W 2887  41.808  42.996   1.832
37661W        W 2888  18.938  44.517  11.889
37662W        W 2889  10.954  20.784   1.175
37663W        W 2890   8.926   7.796   3.378
37664W        W 2891   0.849   1.653  10.208
37665W        W 2892  41.882  37.602  11.605
37666W        W 2893   6.947  28.701   0.535
37667W        W 2894  37.393  30.968   3.302
37668W        W 2895  20.985  44.691   4.096
37669W        W 2896  12.833  43.205  12.654
37670W        W 2897  26.064   0.725   1.014
37671W        W 2898  39.816  35.232  10.400
37672W        W 2899  11.762  27.987  11.639
37673W        W 2900   4.952  36.061  13.306
37674W        W 2901   0.261  13.675   3.836
37675W        W 2902  31.056  21.572  12.943
37676W        W 2903  17.246   4.092   0.376
37677W        W 2904   8.128  37.478   0.247
37678W        W 2905   7.212   2.878  10.790
37679W        W 2906   7.381  40.802   1.509
37680W        W 2907   7.442  40.527   2.911
37681W        W 2908  24.507  38.835   4.105
37682W        W 2909  42.275  40.925  10.667
37683W        W 2910  33.116  17.140  10.847
37684W        W 2911  10.731  34.636   2.315
37685W        W 2912  22.490  24.900   3.578
37686W        W 2913  24.254   3.811  11.705
37687W        W 2914  39.838  10.136   1.916
37688W        W 2915  30.508  16.766   0.936
37689W        W 2916  32.374   8.709   1.310
37690W        W 2917   4.386  29.564  13.042
37691W        W 2918   5.817  16.009  13.876
37692W        W 2919  32.510   4.380  10.692
37693W        W 2920  44.531  41.496   4.088
37694W        W 2921   6.233  12.524   3.069
37695W        W 2922   2.275  15.691  13.414
37696W        W 2923  10.273  16.331   1.976
37697W        W 2924  14.611   1.459   0.958
37698W        W 2925   9.710  36.100   2.235
37699W        W 2926  39.016   3.415  11.419
37700W        W 2927  18.853  15.678  14.266
37701W        W 2928  42.657   7.991  11.897
37702W        W 2929   9.657  26.622   2.286
37703W        W 2930   1.952   1.823  10.706
37704W        W 2931  36.918  32.153   0.303
37705W        W 2932  20.549  17.119  11.206
37706W        W 2933  29.677  15.466   3.495
37707W        W 2934  43.948  15.064   4.680
37708W        W 2935   9.280  17.367   5.150
37709W        W 2936  39.834  41.692   4.167
37710W        W 2937   2.180  44.897  14.254
37711W        W 2938   4.679  19.631  10.593
37712W        W 2939  13.719   2.460   2.421
37713W        W 2940  38.631  20.517  13.994
37714W        W 2941  39.546   1.310  12.033
37715W        W 2942  32.287   7.809  14.787
37716W        W 2943  20.997  25.190  13.227
37717W        W 2944  10.878  23.855   2.949
37718W        W 2945  33.357  22.211   0.825
37719W        W 2946  26.432  37.272   4.469
37720W        W 2947  27.894  43.523  13.897
37721W        W 2948   2.176  15.167  13.419
37722W        W 2949  31.552   9.610  11.164
37723W        W 2950  30.460  42.526   2.392
37724W        W 2951  32.979   1.285  11.935
37725W        W 2952  14.784  34.518   0.906
37726W        W 2953  17.339  25.564  12.495
37727W        W 2954   1.555  42.877   2.928
37728W        W 2955  14.754  21.818   1.221
37729W        W 2956  23.104  35.233   2.444
37730W        W 2957  34.535  37.719   2.649
37731W        W 2958  26.690   5.014   1.756
37732W        W 2959   5.612  36.880  12.172
37733W        W 2960  44.148  17.517   2.349
37734W        W 2961  19.184  16.801  14.500
37735W        W 2962  18.389  40.839  10.678
37736W        W 2963   4.823  22.969   2.192
37737W        W 2964  36.858  14.715  12.737
37738W        W 2965   0.748  34.109   1.926
37739W        W 2966  42.429  40.996  13.927
37740W        W 2967   7.693   6.192   1.135
37741W        W 2968  17.477   7.613  12.064
37742W        W 2969  26.058  10.148  14.354
37743W        W 2970  27.684  36.030  11.177
37744W        W 2971  40.014   5.994  13.694
37745W        W 2972  31.617  42.552  14.850
37746W        W 2973  12.603  17.758   0.266
37747W        W 2974  41.544  21.770   2.325
37748W        W 2975  41.819  41.900   0.695
37749W        W 2976  40.908  25.043   1.217
37750W        W 2977  20.269  35.587   0.435
37751W        W 2978  31.463  13.428   1.721
37752W        W 2979  42.718  21.335   2.996
37753W        W 2980  21.698  40.518  13.292
37754W        W 2981  14.816  35.748   2.024
37755W        W 2982  26.060  20.030   1.371
37756W        W 2983  11.897  14.748   4.066
37757W        W 2984   5.385  12.109   0.846
37758W        W 2985   3.875  31.051   4.588
37759W        W 2986   1.897  27.445   0.362
37760W        W 2987  19.144  15.828  12.097
37761W        W 2988   9.068  16.059   2.450
37762W        W 2989  11.309  41.237   5.055
37763W        W 2990  31.913   1.804  12.986
37764W        W 2991  10.801  40.509   3.229
37765W        W 2992  15.699  30.436  12.582
37766W        W 2993  33.805   1.691  11.969
37767W        W 2994  13.398  29.486   2.406
37768W        W 2995   3.475  39.367  11.514
37769W        W 2996  41.902  26.036   3.509
37770W        W 2997   1.155  32.564  12.076
37771W        W 2998  23.533  16.047  12.397
37772W        W 2999  17.595   1.945   0.097
37773W        W 3000  29.553  24.236  11.152
37774W        W 3001  30.362  16.567  12.933
37775W        W 3002  17.786  23.703   2.704
37776W        W 3003  16.473  13.769   0.520
37777W        W 3004  13.772  16.377   4.531
37778W        W 3005  22.604  17.359   1.952
37779W        W 3006  38.354   6.365  13.312
37780W        W 3007   2.447  28.559   4.644
37781W        W 3008  36.542   6.333   1.648
37782W        W 3009  10.212  41.392   3.434
37783W        W 3010  39.395  37.254   0.772
37784W        W 3011   9.196  22.692   4.734
37785W        W 3012  29.070  41.810  10.583
37786W        W 3013   7.663  40.944  13.542
37787W        W 3014  39.126   8.298  10.029
37788W        W 3015   5.738  36.871   3.342
37789W        W 3016  31.080  36.091   4.627
37790W        W 3017  24.623  18.905  11.945
37791W        W 3018  30.138  40.519   2.244
37792W        W 3019  35.395   1.310  12.535
37793W        W 3020   5.671  16.101  11.090
37794W        W 3021   1.027  11.630  11.918
37795W        W 3022   1.509  17.304  11.516
37796W        W 3023  28.975  11.228  12.606
37797W        W 3024  26.936  10.925   2.407
37798W        W 3025  20.924   8.426   1.365
37799W        W 3026   5.666  17.091   3.554
37800W        W 3027   3.278  16.953  14.072
37801W        W 3028  20.659  18.102   2.777
37802W        W 3029  37.774   1.201   4.824
37803W        W 3030  29.832  35.980   3.890
37804W        W 3031  15.564  11.792   3.577
37805W        W 3032   2.824   2.294  10.758
37806W        W 3033  31.646  31.119  12.196
37807W        W 3034  38.519  36.616   3.172
37808W        W 3035   5.575   7.911   4.231
37809W        W 3036  19.239   1.489  13.232
37810W        W 3037  17.255  23.092   1.764
37811W        W 3038  31.305  25.886   4.495
37812W        W 3039  32.319  23.373  12.343
37813W        W 3040  37.025  25.351  13.911
37814W        W 3041  31.059   7.850   1.161
37815W        W 3042  14.616  39.662   1.392
37816W        W 3043  10.951  15.538   4.653
37817W        W 3044  38.055  26.570  10.762
37818W        W 3045  40.122  16.977  11.040
37819W        W 3046  39.020  38.534  13.837
37820W        W 3047  33.215  35.911  11.087
37821W        W 3048   4.166   4.787   0.223
37822W        W 3049  43.281  16.042   0.309
37823W        W 3050  38.134  28.724  12.386
37824W        W 3051  31.026   6.860   1.460
37825W        W 3052  12.409  28.001   3.516
37826W        W 3053  22.815  18.201   4.921
37827W        W 3054  44.328  41.061   0.475
37828W        W 3055  13.607  12.388   3.295
37829W        W 3056   2.068  16.729   4.926
37830W        W 3057  26.570   8.160  14.334
37831W        W 3058  20.206   4.279   0.085
37832W        W 3059   4.699   8.604  12.538
37833W        W 3060  36.779   4.764   4.162
37834W        W 3061  17.362  12.366  13.936
37835W        W 3062  31.904   2.246  13.625
37836W        W 3063  26.273  31.971   4.038
37837W        W 3064   7.607  32.419   1.761
37838W        W 3065   2.900   6.369   3.954
37839W        W 3066  36.599  32.963  13.649
37840W        W 3067  41.156  27.500  11.537
37841W        W 3068  43.726   1.339   4.213
37842W        W 3069  10.293  35.799   3.682
37843W        W 3070  18.979  37.406   3.261
37844W        W 3071  27.581  23.135   1.243
37845W        W 3072  12.849  26.982   0.965
37846W        W 3073  21.545  32.661   4.668
37847W        W 3074   9.426  36.927  13.013
37848W        W 3075  43.765  21.130   1.460
37849W        W 3076  33.808  34.378   2.462
37850W        W 3077  12.375  23.679   2.439
37851W        W 3078  19.180  16.132   1.710
37852W        W 3079  40.973   5.642   2.341
37853W        W 3080  15.160  31.595  13.422
37854W        W 3081  14.686  20.650   2.825
37855W        W 3082  44.948  41.381   0.796
37856W        W 3083   4.820  42.799   0.590
37857W        W 3084  27.587  11.642   3.700
37858W        W 3085  15.284  42.513  10.488
37859W        W 3086  28.683  29.481  14.291
37860W        W 3087  16.180  11.806   1.942
37861W        W 3088  41.300  37.985   0.158
37862W        W 3089   8.644  26.680   4.508
37863W        W 3090  18.388  14.019  14.393
37864W        W 3091  42.177  33.274   2.653
37865W        W 3092  32.344  10.809  12.611
37866W        W 3093   5.387  24.211   3.980
37867W        W 3094  23.147   3.162  13.362
37868W        W 3095   1.995  38.363  14.432
37869W        W 3096  28.950   6.649  14.035
37870W        W 3097  10.366   8.921   1.308
37871W        W 3098  25.537   1.416   0.287
37872W        W 3099  12.508  41.499   0.317
37873W        W 3100  20.383  33.644  14.129
37874W        W 3101  42.238  18.748  13.567
37875W        W 3102  13.202  11.240   4.925
37876W        W 3103  25.724   7.388   0.231
37877W        W 3104  40.103  14.199  14.537
37878W        W 3105  24.938  34.065  13.243
37879W        W 3106  25.513  14.861   2.861
37880W        W 3107   4.379  19.871  13.045
37881W        W 3108  32.536  15.261  13.275
37882W        W 3109   0.973  42.999  14.528
37883W        W 3110  39.868  40.259  12.106
37884W        W 3111  36.163   2.865  11.473
37885W        W 3112   5.726  26.444   3.369
37886W        W 3113   4.213  33.884   3.371
37887W        W 3114  15.751  15.211   3.926
37888W        W 3115  35.442  37.686   5.301
37889W        W 3116  44.192   7.273   9.923
37890W        W 3117  13.995  18.035  11.192
37891W        W 3118  20.891  24.611   2.894
37892W        W 3119  24.444   5.752  11.734
37893W        W 3120  29.511  43.261  13.197
37894W        W 3121  25.599  12.900  13.578
37895W        W 3122   3.359  43.998   1.755
37896W        W 3123   5.409   3.891   4.069
37897W        W 3124  15.623  21.136  11.938
37898W        W 3125  39.327  42.561  14.318
37899W        W 3126  27.573  28.533   1.586
37900W        W 3127  34.702  13.134   0.838
37901W        W 3128  29.302   2.374   2.159
37902W        W 3129  21.204  34.017   5.129
37903W        W 3130  42.941   6.477  11.248
37904W        W 3131  33.401  17.659  11.163
37905W        W 3132  29.172  29.740   3.102
37906W        W 3133  16.777  28.557   0.744
37907W        W 3134  34.804   9.903  11.114
37908W        W 3135  14.819  33.583   2.172
37909W        W 3136  11.697  43.788  10.494
37910W        W 3137  13.260  42.338  10.615
37911W        W 3138  43.885  20.080  14.414
37912W        W 3139  28.637   2.141   4.465
37913W        W 3140  29.033  37.566   2.239
37914W        W 3141  35.651  30.537   0.379
37915W        W 3142  25.559   7.749  10.872
37916W        W 3143  18.202   9.799   3.559
37917W        W 3144  14.227  40.617  11.010
37918W        W 3145   2.985  38.267  11.477
37919W        W 3146   4.856  28.209   4.947
37920W        W 3147  42.393  44.318   1.929
37921W        W 3148  30.552   6.404   2.682
37922W        W 3149   1.264  32.363   3.303
37923W        W 3150  23.098  19.053  11.493
37924W        W 3151  36.986   7.704   1.185
37925W        W 3152  43.021  12.261  10.364
37926W        W 3153  32.342  38.316   1.841
37927W        W 3154  44.426  43.351  12.048
37928W        W 3155  28.418   7.386  12.734
37929W        W 3156   1.237  43.524  12.122
37930W        W 3157  19.376  15.219   1.186
37931W        W 3158  42.049   2.186  11.544
37932W        W 3159  31.841  42.035  14.802
37933W        W 3160  38.452   7.138   2.585
37934W        W 3161  19.323   6.771   1.014
37935W        W 3162  10.245  22.994   0.891
37936W        W 3163  41.886  12.389  11.657
37937W        W 3164  44.957  30.613  14.909
37938W        W 3165  28.202  18.651  13.941
37939W        W 3166  43.760  18.455   2.319
37940W        W 3167   4.002  42.651  13.610
37941W        W 3168  30.259   6.841  11.145
37942W        W 3169  34.027  34.450  12.962
37943W        W 3170   2.933  38.957   2.227
37944W        W 3171  44.461  20.216  11.503
37945W        W 3172  21.155  43.709  12.198
37946W        W 3173   2.672  30.559  12.094
37947W        W 3174  44.718  42.457  12.253
37948W        W 3175  31.963   5.373  10.614
37949W        W 3176  39.875   6.272   2.305
37950W        W 3177  44.367   4.919   1.698
37951W        W 3178  23.782   9.113  12.990
37952W        W 3179  41.174  17.820   3.563
37953W        W 3180   6.671  28.040   0.197
37954W        W 3181  20.290  19.157  12.472
37955W        W 3182  15.123   7.101  14.040
37956W        W 3183   3.318  29.111   4.356
37957W        W 3184  15.034  28.181  13.904
37958W        W 3185  44.224  10.987   0.082
37959W        W 3186  32.872  22.487   3.148
37960W        W 3187  44.819   7.493  14.355
37961W        W 3188  12.049  31.796   1.406
37962W        W 3189  27.891  19.099  12.244
37963W        W 3190  20.782  36.398  11.752
37964W        W 3191  35.466  33.357   1.581
37965W        W 3192  20.002  15.760   0.618
37966W        W 3193  11.609  40.795  14.293
37967W        W 3194   1.251  13.805  13.508
37968W        W 3195  19.945  32.828   3.254
37969W        W 3196   5.178  38.955  10.446
37970W        W 3197   1.327  31.909   1.122
37971W        W 3198  29.080  42.595   3.144
37972W        W 3199  16.248  29.203   1.796
37973W        W 3200  39.405  35.630   2.267
37974W        W 3201  31.885  34.422   2.930
37975W        W 3202  25.309  11.267   4.192
37976W        W 3203  37.353  21.047  10.598
37977W        W 3204  32.975  13.290  12.879
37978W        W 3205  19.109  41.515  13.353
37979W        W 3206  21.486  35.116   3.418
37980W        W 3207  41.872   7.526   2.146
37981W        W 3208  30.512   5.556   3.659
37982W        W 3209   9.788  34.517   2.435
37983W        W 3210   6.351  32.653   0.286
37984W        W 3211  23.098  25.025   0.935
37985W        W 3212  29.993   9.927  10.146
37986W        W 3213  26.574   7.343  13.914
37987W        W 3214  19.590  42.827  13.410
37988W        W 3215  13.176   1.602   4.892
37989W        W 3216  34.083  35.968   2.210
37990W        W 3217  16.870  19.780  12.895
37991W        W 3218  24.453  15.260   4.750
37992W        W 3219  16.287  24.636  11.148
37993W        W 3220   2.452  17.386  11.519
37994W        W 3221  32.421  25.536   0.999
37995W        W 3222  31.146   7.575   2.854
37996W        W 3223  34.426  33.015   3.209
37997W        W 3224  31.026  11.263   4.650
37998W        W 3225  26.692   0.457   4.870
37999W        W 3226  24.942  36.482  14.363
38000W        W 3227  15.642   9.820  10.784
38001W        W 3228  41.556  16.510  10.818
38002W        W 3229  41.292  15.537  13.377
38003W        W 3230   5.756  25.682  13.323
38004W        W 3231  28.355  18.331   3.667
38005W        W 3232   2.844  17.067   1.208
38006W        W 3233   0.722   0.092   2.824
38007W        W 3234  11.829   3.204  14.052
38008W        W 3235  37.827  41.114  12.637
38009W        W 3236  16.296  37.429  11.664
38010W        W 3237  37.350  37.078  10.332
38011W        W 3238  33.471  34.914  14.121
38012W        W 3239  25.039  10.827  11.622
38013W        W 3240   9.117   8.444   3.792
38014W        W 3241  41.791  38.794   2.656
38015W        W 3242   7.208   3.332   2.534
38016W        W 3243  14.702  14.397   3.192
38017W        W 3244  38.892  33.630   0.657
38018W        W 3245   2.889  36.660   0.344
38019W        W 3246  18.377  15.174   4.750
38020W        W 3247  16.762  16.069  14.849
38021W        W 3248  15.199   7.146  12.075
38022W        W 3249  43.736  30.023   4.371
38023W        W 3250  41.732  28.742   1.283
38024W        W 3251   0.531  34.967  13.116
38025W        W 3252  42.795  21.180   2.486
38026W        W 3253   0.177   8.732   2.498
38027W        W 3254  44.395   8.824  11.560
38028W        W 3255  23.526   4.815  12.067
38029W        W 3256  30.500  27.697  14.379
38030W        W 3257  15.768  40.028  13.017
38031W        W 3258   9.112   3.375  11.632
38032W        W 3259  34.920  40.193   2.230
38033W        W 3260  34.030  39.756  11.977
38034W        W 3261  12.758  12.257   4.111
38035W        W 3262  27.857  39.287   2.368
38036W        W 3263  41.121   9.732   2.728
38037W        W 3264  33.338  36.092   1.662
38038W        W 3265  12.696   8.764  13.678
38039W        W 3266  25.964  16.595  11.652
38040W        W 3267   9.314  19.234  10.613
38041W        W 3268  40.796   0.214   2.038
38042W        W 3269  40.070  28.898   1.866
38043W        W 3270  36.519  34.884  10.860
38044W        W 3271  12.659   1.337  14.446
38045W        W 3272  43.205  18.853   1.253
38046W        W 3273  24.630  28.621   2.225
38047W        W 3274  40.055  20.643   0.328
38048W        W 3275  14.201  27.760  10.651
38049W        W 3276  33.402  20.196  11.213
38050W        W 3277  15.246  28.648  11.896
38051W        W 3278  17.100  20.675   0.912
38052W        W 3279  37.457  34.518   4.251
38053W        W 3280  10.225  11.147   0.841
38054W        W 3281  23.566   4.730  14.455
38055W        W 3282  22.001   8.831   3.234
38056W        W 3283  37.342  14.301  11.914
38057W        W 3284  13.332   8.236  10.676
38058W        W 3285   8.392  36.778   2.345
38059W        W 3286  20.237  15.073  10.822
38060W        W 3287   7.925  27.755  14.248
38061W        W 3288  16.103   8.052   4.568
38062W        W 3289  40.976   0.031   4.923
38063W        W 3290  16.418  38.689   1.628
38064W        W 3291   8.942  20.857  13.372
38065W        W 3292  24.184  18.215   3.785
38066W        W 3293   9.099  17.715  10.679
38067W        W 3294  20.189  25.779  14.877
38068W        W 3295   5.219  19.165  11.622
38069W        W 3296  29.137  29.895   3.598
38070W        W 3297   0.618   5.877   1.456
38071W        W 3298  28.711  38.198  10.131
38072W        W 3299  15.249  40.527  14.556
38073W        W 3300  35.427   6.563   2.901
38074W        W 3301  27.672   0.872  11.072
38075W        W 3302  12.330  10.718  12.502
38076W        W 3303   9.551   9.219  12.664
38077W        W 3304  34.019  18.669  12.053
38078W        W 3305  29.664  16.182   0.963
38079W        W 3306  27.598  13.253   1.286
38080W        W 3307  26.000  35.115  14.326
38081W        W 3308  43.255  13.887  13.769
38082W        W 3309  17.103  21.965  12.645
38083W        W 3310  36.808  10.962  11.636
38084W        W 3311  42.602   5.357  10.328
38085W        W 3312   5.223  41.102   0.678
38086W        W 3313  20.613  26.262   3.666
38087W        W 3314  12.106  41.463  12.780
38088W        W 3315  39.515   4.860   4.440
38089W        W 3316  30.067  34.540  12.458
38090W        W 3317   1.486  38.811   3.876
38091W        W 3318   9.742   4.888  10.276
38092W        W 3319  12.388  44.467  14.076
38093W        W 3320  26.076  11.339  10.488
38094W        W 3321   6.822  13.241  14.695
38095W        W 3322  38.617  13.452   0.007
38096W        W 3323  39.346  36.431  12.545
38097W        W 3324   3.368  10.698   1.660
38098W        W 3325  16.210  14.194   4.170
38099W        W 3326  12.873  37.054   3.675
38100W        W 3327  39.243   4.696   5.314
38101W        W 3328  41.981  18.261  14.428
38102W        W 3329  12.795   0.939   0.811
38103W        W 3330  28.563  42.459   2.578
38104W        W 3331  25.376  21.507  14.043
38105W        W 3332  30.993  11.896   5.447
38106W        W 3333  42.986   2.368   2.696
38107W        W 3334  41.025   1.043  14.517
38108W        W 3335  22.050  10.424   3.741
38109W        W 3336  39.872   9.600   3.119
38110W        W 3337  27.735  22.264  11.116
38111W        W 3338  33.908  32.439  12.886
38112W        W 3339  31.871  14.539  12.933
38113W        W 3340  42.962  44.739  13.270
38114W        W 3341  43.140  12.772  13.216
38115W        W 3342  27.864   5.918   1.224
38116W        W 3343  23.145  41.440   4.722
38117W        W 3344  23.988  20.402   1.471
38118W        W 3345   6.605  10.081  14.314
38119W        W 3346   7.849  17.797  13.838
38120W        W 3347  34.184  16.087  14.096
38121W        W 3348  15.047  36.497  10.766
38122W        W 3349  31.678  44.048  14.931
38123W        W 3350  44.954  26.257  12.473
38124W        W 3351  22.100  32.452  14.236
38125W        W 3352  28.033  38.029   0.739
38126W        W 3353  28.476  11.129   1.458
38127W        W 3354  34.413   1.963   4.558
38128W        W 3355  27.173  35.015   2.223
38129W        W 3356   9.948  17.127  13.651
38130W        W 3357   1.231  12.399  14.354
38131W        W 3358  39.602   6.206  11.452
38132W        W 3359  27.579  14.498  13.137
38133W        W 3360  34.438  36.303   4.209
38134W        W 3361   0.818  39.126  11.047
38135W        W 3362  21.066  32.700   1.439
38136W        W 3363  22.067   9.148  13.548
38137W        W 3364  18.925  23.785   0.951
38138W        W 3365  13.284  12.928   5.204
38139W        W 3366  39.761  35.932  11.982
38140W        W 3367   4.314  24.637   3.144
38141W        W 3368   8.823   0.921  13.775
38142W        W 3369  26.421  14.051   3.191
38143W        W 3370  10.626  35.060   3.246
38144W        W 3371  35.279   4.247  14.970
38145W        W 3372   5.403   2.450   2.752
38146W        W 3373  20.129  34.357   3.774
38147W        W 3374  25.662  14.603   4.708
38148W        W 3375   3.325  25.864  13.383
38149W        W 3376  25.035  23.140  14.784
38150W        W 3377  12.820  44.316  10.627
38151W        W 3378  34.958  23.775  10.950
38152W        W 3379   6.629  20.327   1.233
38153W        W 3380   7.725  38.259  11.682
38154W        W 3381  37.434  22.482  12.164
38155W        W 3382   8.313  10.036  14.039
38156W        W 3383   0.473  39.251   1.797
38157W        W 3384  11.343  17.475  11.177
38158W        W 3385  13.222  12.991  14.928
38159W        W 3386  44.420  39.571   1.773
38160W        W 3387   3.430  15.778   1.851
38161W        W 3388  18.337  33.621   3.583
38162W        W 3389  36.334  36.801   4.393
38163W        W 3390  38.308  26.540  11.195
38164W        W 3391  32.055  28.645   2.135
38165W        W 3392   5.859   0.907  10.744
38166W        W 3393  43.821  13.713   4.875
38167W        W 3394   2.797  16.849   4.089
38168W        W 3395  30.390  16.166  12.404
38169W        W 3396  12.334   5.389   0.959
38170W        W 3397  11.549  11.922  10.229
38171W        W 3398  44.279  42.783   3.234
38172W        W 3399  37.265   3.601   5.231
38173W        W 3400   1.779  37.351  11.181
38174W        W 3401  37.991  15.555  10.603
38175W        W 3402  22.127  35.068   3.644
38176W        W 3403  17.551  33.472   1.847
38177W        W 3404  32.195  44.258   2.176
38178W        W 3405  36.896  41.283  10.698
38179W        W 3406  38.521   9.904  14.812
38180W        W 3407  25.332   2.790  11.526
38181W        W 3408   4.250  28.648  13.160
38182W        W 3409   0.163  44.619  10.965
38183W        W 3410   6.461  17.216  12.555
38184W        W 3411  41.823  23.637   2.317
38185W        W 3412  22.129  17.321   0.924
38186W        W 3413  22.842  33.922   3.828
38187W        W 3414   2.960   6.782  11.981
38188W        W 3415  24.288  34.343   2.897
38189W        W 3416  29.920  10.413  14.940
38190W        W 3417  36.028  41.532   2.606
38191W        W 3418  18.095   1.558   1.745
38192W        W 3419  29.870   1.724   3.655
38193W        W 3420  13.289  41.139  14.955
38194W        W 3421  20.521  23.579  12.033
38195W        W 3422  31.875  15.407  14.824
38196W        W 3423  22.686  21.967  11.892
38197W        W 3424   5.262  27.737   0.932
38198W        W 3425  41.855  23.482   4.609
38199W        W 3426   6.739  26.194   0.289
38200W        W 3427  29.817  31.313  12.014
38201W        W 3428  25.999  23.567  10.506
38202W        W 3429   3.915  28.887  12.490
38203W        W 3430  14.844  24.968   3.017
38204W        W 3431  32.987   9.895   2.272
38205W        W 3432   5.320  20.472   2.597
38206W        W 3433  42.032  26.114  12.106
38207W        W 3434  13.038  43.485  13.277
38208W        W 3435  39.682  31.913  12.004
38209W        W 3436  21.704  37.034  14.484
38210W        W 3437  37.920   2.845   1.402
38211W        W 3438  25.505  37.423   0.783
38212W        W 3439  21.189   9.202   1.688
38213W        W 3440  30.512   4.817   4.693
38214W        W 3441  34.149  16.047   0.055
38215W        W 3442  10.726  18.720  11.650
38216W        W 3443  20.577  16.116   1.469
38217W        W 3444  18.324  41.264   0.568
38218W        W 3445  35.978  40.999   2.739
38219W        W 3446  37.353  21.133   0.739
38220W        W 3447  41.245  10.806   0.894
38221W        W 3448  26.515  16.830   3.731
38222W        W 3449  13.599   9.456  13.069
38223W        W 3450   6.726  22.890  14.091
38224W        W 3451  16.031  12.264  13.419
38225W        W 3452  11.807  23.277  12.993
38226W        W 3453  16.119  17.548  12.063
38227W        W 3454  27.426  38.724  14.786
38228W        W 3455  31.935  43.421   4.807
38229W        W 3456  34.638   1.306   2.671
38230W        W 3457  12.689  25.190   3.768
38231W        W 3458  12.849   9.563   3.303
38232W        W 3459  35.942  43.413   0.790
38233W        W 3460  11.733  29.514   3.223
38234W        W 3461  31.518  39.595  10.200
38235W        W 3462  21.912  29.600  14.362
38236W        W 3463  21.640  13.862  11.952
38237W        W 3464  24.970  16.799   2.670
38238W        W 3465   3.717  31.151  12.542
38239W        W 3466  40.177  39.402   2.864
38240W        W 3467  40.686  17.609   2.130
38241W        W 3468  36.540  18.799   3.245
38242W        W 3469   5.296  15.357   4.162
38243W        W 3470  40.540  35.371   4.556
38244W        W 3471  40.036  20.832   4.457
38245W        W 3472  44.025  17.712  13.037
38246W        W 3473   5.024   5.684   4.749
38247W        W 3474  12.542  30.823   0.511
38248W        W 3475  34.172  30.023  11.899
38249W        W 3476   1.670  32.592  14.466
38250W        W 3477  42.921  14.098   2.642
38251W        W 3478  23.715  16.133   0.411
38252W        W 3479   7.338  16.048  13.277
38253W        W 3480  11.237  24.054   4.663
38254W        W 3481  30.182   1.068  14.534
38255W        W 3482  24.073  23.126  12.401
38256W        W 3483  39.333  27.894   2.284
38257W        W 3484  41.320   6.156   1.323
38258W        W 3485  29.998  10.827  12.034
38259W        W 3486  38.385  29.455  13.687
38260W        W 3487  10.716  37.429  11.359
38261W        W 3488  12.031   4.516   2.764
38262W        W 3489  33.494   7.430   3.702
38263W        W 3490  41.761  24.680   1.219
38264W        W 3491   0.333   9.726   1.301
38265W        W 3492  14.145  22.106   1.167
38266W        W 3493  29.839  42.311   2.821
38267W        W 3494  28.097  13.004   3.677
38268W        W 3495   2.248  40.170   3.797
38269W        W 3496  17.468  38.405  11.602
38270W        W 3497   2.552  17.253  10.189
38271W        W 3498  18.008  26.710  11.518
38272W        W 3499   4.316  15.582   2.350
38273W        W 3500  34.124  20.286  12.645
38274W        W 3501  26.024  41.959  11.635
38275W        W 3502  36.518  11.322   1.535
38276W        W 3503  15.063  43.384   2.653
38277W        W 3504  22.151  17.997   3.721
38278W        W 3505  11.436  17.573   3.634
38279W        W 3506  16.107   1.648  13.862
38280W        W 3507  39.881   2.328   0.819
38281W        W 3508  13.752   5.821   0.683
38282W        W 3509   1.075  18.031  11.314
38283W        W 3510  34.455  35.854   4.797
38284W        W 3511  21.464  44.249  10.948
38285W        W 3512   5.547  29.056  14.337
38286W        W 3513  25.430  10.821  12.027
38287W        W 3514  37.139  35.540   3.563
38288W        W 3515   8.854  34.793   3.761
38289W        W 3516  12.276   1.345  12.954
38290W        W 3517  23.935  41.026  11.965
38291W        W 3518  19.423  10.029   3.148
38292W        W 3519  19.018   6.631  14.408
38293W        W 3520  26.476  33.164  10.331
38294W        W 3521  27.687  43.358  12.056
38295W        W 3522  11.421  30.050  14.378
38296W        W 3523  11.872   7.915   1.419
38297W        W 3524  41.753  37.983  13.742
38298W        W 3525   1.284  19.115  14.941
38299W        W 3526  30.823  21.370   1.582
38300W        W 3527  37.629  16.501  10.219
38301W        W 3528  28.900  13.814   9.895
38302W        W 3529   0.896  40.384  14.382
38303W        W 3530  22.120  38.108  12.122
38304W        W 3531   2.543   2.597   4.085
38305W        W 3532  16.946  36.035   2.790
38306W        W 3533  11.054  36.078   0.803
38307W        W 3534   9.795   3.747  14.516
38308W        W 3535  22.827  18.707  12.874
38309W        W 3536  25.632   2.959   3.803
38310W        W 3537  12.735  16.227   3.065
38311W        W 3538  23.629   0.395   0.909
38312W        W 3539  27.446  14.294   2.123
38313W        W 3540  19.753  17.016   4.086
38314W        W 3541  23.083  12.142   0.374
38315W        W 3542  42.855  31.476  12.747
38316W        W 3543  16.768  30.025   1.484
38317W        W 3544  34.043  19.121   0.324
38318W        W 3545  44.856  13.198  13.151
38319W        W 3546  33.397  18.495   3.284
38320W        W 3547   7.534  30.857   3.830
38321W        W 3548  23.541  44.100   2.862
38322W        W 3549   9.328  43.888  12.438
38323W        W 3550   2.259  17.590  14.876
38324W        W 3551   1.287  19.073  10.247
38325W        W 3552  44.879   9.877   3.599
38326W        W 3553  42.926  28.022  13.700
38327W        W 3554   0.580  28.967  11.598
38328W        W 3555   1.874  39.129  13.852
38329W        W 3556  31.604  42.974  13.330
38330W        W 3557  39.105  19.273  13.068
38331W        W 3558  33.386  12.128  10.823
38332W        W 3559  20.164  20.045  12.727
38333W        W 3560  20.269  37.406  10.844
38334W        W 3561  25.793  20.718   2.121
38335W        W 3562  24.979  23.056  10.742
38336W        W 3563  31.524  35.486   0.774
38337W        W 3564  26.460   4.974  11.982
38338W        W 3565  25.699  29.247   2.747
38339W        W 3566  44.112  18.808   0.274
38340W        W 3567  44.660   0.499   3.334
38341W        W 3568  12.553  24.088  11.768
38342W        W 3569  36.036   8.415   4.218
38343W        W 3570  10.504  21.717   1.092
38344W        W 3571   1.197  29.182   2.713
38345W        W 3572  31.496  32.868  12.049
38346W        W 3573  18.722  26.652  14.937
38347W        W 3574  35.013  23.217   1.041
38348W        W 3575  17.073  34.882   3.415
38349W        W 3576   2.991  23.226   3.839
38350W        W 3577   8.761   2.404  12.492
38351W        W 3578  33.698  10.639   2.732
38352W        W 3579  27.948  22.511  10.674
38353W        W 3580  19.927   1.290  14.605
38354W        W 3581  35.935   1.965   4.119
38355W        W 3582   8.250  21.122  10.250
38356W        W 3583  31.853   5.477   0.795
38357W        W 3584  16.683  40.789   4.602
38358W        W 3585  38.475   3.646   3.500
38359W        W 3586  29.456  42.618  12.444
38360W        W 3587   8.900  39.709  12.194
38361W        W 3588  28.434  17.770  14.307
38362W        W 3589  10.614  34.111  11.107
38363W        W 3590  42.244  22.748   0.838
38364W        W 3591  10.145  37.842   2.921
38365W        W 3592  30.904  20.889  14.416
38366W        W 3593  38.976  10.024  10.342
38367W        W 3594   7.880   9.101  10.716
38368W        W 3595  40.871  31.014   3.239
38369W        W 3596  23.569  13.108   0.291
38370W        W 3597  13.064  44.292  10.172
38371W        W 3598   5.200  40.522   3.357
38372W        W 3599  34.444  44.096   4.223
38373W        W 3600   9.307  11.938   3.218
38374W        W 3601  27.610   2.808   1.233
38375W        W 3602   5.029  33.646   4.086
38376W        W 3603  22.816  32.201  10.126
38377W        W 3604  29.583  23.724  11.026
38378W        W 3605   9.847  26.130   2.265
38379W        W 3606  10.951  40.033   1.735
38380W        W 3607  42.311  24.922  10.758
38381W        W 3608  18.869  30.096  13.640
38382W        W 3609  30.579  18.932   2.287
38383W        W 3610   4.516  43.496  13.321
38384W        W 3611  44.459   1.639  13.800
38385W        W 3612  14.050  13.169   2.737
38386W        W 3613  39.542  34.449  13.949
38387W        W 3614  30.337   1.863   0.523
38388W        W 3615   9.676  41.453  14.425
38389W        W 3616  37.643   4.877  13.112
38390W        W 3617  37.607  44.392   5.110
38391W        W 3618   5.265  42.724   4.518
38392W        W 3619   7.150   4.853  12.431
38393W        W 3620  19.571  35.425  13.842
38394W        W 3621   8.405  21.126   4.780
38395W        W 3622  25.720  17.510  14.369
38396W        W 3623  14.067   7.963  10.889
38397W        W 3624  22.577  20.884   1.228
38398W        W 3625  20.699   0.213   1.445
38399W        W 3626  20.794  29.681  11.274
38400W        W 3627  16.336  25.422   0.829
38401W        W 3628   6.658  14.138   3.788
38402W        W 3629  36.120  43.881   0.899
38403W        W 3630  27.739  11.579  10.591
38404W        W 3631  25.839  14.329   1.030
38405W        W 3632  35.562  12.729   3.345
38406W        W 3633  34.862   8.820   3.595
38407W        W 3634  27.928  13.131  13.392
38408W        W 3635  43.964  30.861  11.651
38409W        W 3636  18.819  16.249   1.325
38410W        W 3637  27.134  41.440   1.996
38411W        W 3638  29.912   1.255  14.142
38412W        W 3639   6.186  21.639  12.455
38413W        W 3640  41.926  37.439   2.068
38414W        W 3641   4.779  25.144   3.494
38415W        W 3642  27.487  16.351   3.619
38416W        W 3643  37.398  27.653   1.877
38417W        W 3644  19.802  11.555  14.896
38418W        W 3645  29.403   4.386   2.365
38419W        W 3646  12.352   0.635   0.458
38420W        W 3647  41.929  44.857   4.380
38421W        W 3648   2.884  20.960  11.976
38422W        W 3649  43.347   4.260  11.916
38423W        W 3650  29.749  38.039  11.051
38424W        W 3651  11.651  12.084   4.756
38425W        W 3652  43.325  10.578   4.515
38426W        W 3653  25.121  21.601  14.487
38427W        W 3654  37.539   9.122   2.222
38428W        W 3655  25.635  27.706   2.504
38429W        W 3656  37.357  14.024   4.214
38430W        W 3657  18.306  16.229   0.015
38431W        W 3658  36.141   5.358   2.881
38432W        W 3659   1.400  12.908   2.334
38433W        W 3660   6.732   0.736   4.905
38434W        W 3661  41.671   1.758  12.648
38435W        W 3662  17.290  41.931  13.966
38436W        W 3663   2.926  29.666   4.074
38437W        W 3664  18.762  34.307  14.409
38438W        W 3665  13.440  33.169  11.531
38439W        W 3666  31.342  39.283  10.597
38440W        W 3667  15.449  26.583  12.603
38441W        W 3668  44.918  36.319   1.739
38442W        W 3669  40.766  40.426   1.694
38443W        W 3670  27.946  40.275   3.820
38444W        W 3671  36.546  21.230  11.801
38445W        W 3672  12.008  43.485  13.974
38446W        W 3673   9.867  12.209  13.302
38447W        W 3674  39.977   8.959  10.711
38448W        W 3675   3.697   3.889  13.066
38449W        W 3676  41.419  28.524  14.859
38450W        W 3677  12.866  34.980  12.559
38451W        W 3678  13.047  38.476   3.861
38452W        W 3679  28.691  43.409  12.844
38453W        W 3680  40.264   8.792  11.112
38454W        W 3681  40.624  41.287   2.382
38455W        W 3682  23.285  33.466   1.338
38456W        W 3683  37.773   7.649  12.506
38457W        W 3684  33.944  30.399   3.262
38458W        W 3685  41.884   8.145  13.411
38459W        W 3686  25.652   3.470   3.772
38460W        W 3687   6.340  41.226  11.684
38461W        W 3688  33.995  38.324  12.976
38462W        W 3689  44.388   2.172  11.065
38463W        W 3690  23.457  20.809   4.613
38464W        W 3691   7.155  26.363   2.786
38465W        W 3692  25.152  21.514   3.267
38466W        W 3693  44.820  28.047  11.660
38467W        W 3694  31.196  32.975   3.776
38468W        W 3695  35.511  23.518  14.548
38469W        W 3696  16.767  25.306  14.428
38470W        W 3697  26.527  22.490  13.594
38471W        W 3698  40.467   3.323  13.290
38472W        W 3699  20.635   7.889  12.213
38473W        W 3700  12.693  38.617  14.404
38474W        W 3701  42.578  36.005   0.759
38475W        W 3702  44.931  17.507  11.515
38476W        W 3703  27.042  38.967   2.683
38477W        W 3704  40.485   0.538   4.357
38478W        W 3705  18.708  28.044   1.347
38479W        W 3706  31.600   0.894  13.599
38480W        W 3707  15.607  21.069   1.904
38481W        W 3708   6.430  20.223   1.702
38482W        W 3709  27.199   0.612  14.448
38483W        W 3710   7.339  30.669   1.250
38484W        W 3711   8.545   3.128  13.197
38485W        W 3712   8.724  23.408  10.539
38486W        W 3713   1.975  22.499  13.035
38487W        W 3714  36.378  37.787   2.262
38488W        W 3715  32.532  28.816   3.778
38489W        W 3716  14.194  16.137  12.080
38490W        W 3717   0.621  39.970  11.875
38491W        W 3718  37.808   6.636  14.494
38492W        W 3719  27.522   0.381  14.780
38493W        W 3720  27.006  18.353  14.381
38494W        W 3721  42.450   1.649  11.144
38495W        W 3722  12.224  24.177   2.295
38496W        W 3723  25.470   4.654   0.916
38497W        W 3724  26.233  17.144   4.080
38498W        W 3725  22.645   2.115  12.891
38499W        W 3726  30.532  17.270   2.620
38500W        W 3727  29.547  41.417  11.596
38501W        W 3728  26.274  42.993  13.835
38502W        W 3729   7.359  12.630  14.278
38503W        W 3730   6.847  42.012  12.999
38504W        W 3731  41.857  42.038  12.464
38505W        W 3732  21.012   9.676   4.101
38506W        W 3733  42.869  12.656   1.482
38507W        W 3734   4.310  22.554   2.852
38508W        W 3735  15.024  21.339   1.367
38509W        W 3736  16.067  43.286   1.315
38510W        W 3737  30.160  36.898   1.760
38511W        W 3738   1.785  24.448   4.589
38512W        W 3739  26.229  37.450  11.500
38513W        W 3740   4.129  10.967   2.315
38514W        W 3741  36.126   9.738   2.937
38515W        W 3742  32.925  10.213   2.676
38516W        W 3743  39.813  41.563   2.133
38517W        W 3744  33.488  34.062   2.811
38518W        W 3745  32.354   2.160  12.532
38519W        W 3746  21.495  43.808   1.917
38520W        W 3747  24.038  15.288  11.948
38521W        W 3748  11.665  42.816   4.158
38522W        W 3749  28.698  25.453   2.843
38523W        W 3750  26.077  43.837  10.702
38524W        W 3751  16.420  23.219  14.405
38525W        W 3752  40.058  12.259   1.244
38526W        W 3753  28.555   1.328  11.396
38527W        W 3754  16.016  10.724   4.252
38528W        W 3755  13.743  20.193  11.167
38529W        W 3756  44.437  38.152   0.957
38530W        W 3757  41.543  42.035   1.861
38531W        W 3758  42.104  27.988   1.682
38532W        W 3759  36.384  29.537   3.890
38533W        W 3760  19.510  16.715   3.243
38534W        W 3761  20.752   0.350  11.093
38535W        W 3762  24.464  30.674  13.193
38536W        W 3763   7.997  23.175  14.564
38537W        W 3764  25.979  17.511  11.558
38538W        W 3765  13.863   2.189  12.423
38539W        W 3766  40.556  44.791  11.955
38540W        W 3767  33.026  18.253   4.527
38541W        W 3768   7.351  16.261   1.481
38542W        W 3769  26.171  13.894  11.488
38543W        W 3770  40.766  11.903  14.213
38544W        W 3771  27.690  30.740   4.409
38545W        W 3772  36.102  18.100   0.809
38546W        W 3773  38.466  28.221   2.389
38547W        W 3774   2.283  17.565  11.031
38548W        W 3775  25.627   8.338   3.232
38549W        W 3776  40.348   0.820  14.356
38550W        W 3777  37.142  32.503   1.726
38551W        W 3778  22.250   2.780   0.279
38552W        W 3779  34.540  33.306  11.642
38553W        W 3780  33.149   6.790   2.187
38554W        W 3781   7.770   8.860   2.648
38555W        W 3782  38.652  39.130  14.012
38556W        W 3783  42.789  23.800  13.853
38557W        W 3784  16.174  23.772   0.061
38558W        W 3785   3.858  32.628  12.388
38559W        W 3786  18.526   8.125   4.637
38560W        W 3787   9.723   9.103  12.119
38561W        W 3788  23.904  18.646   0.199
38562W        W 3789  40.655  40.470  14.038
38563W        W 3790  20.846  33.684   3.380
38564W        W 3791  14.936  41.944   1.447
38565W        W 3792  36.605   9.527   2.854
38566W        W 3793   6.174   1.890  12.349
38567W        W 3794  25.586  22.044  12.581
38568W        W 3795   3.976  27.095   2.844
38569W        W 3796  33.017   5.978  13.094
38570W        W 3797  26.918  17.937  14.063
38571W        W 3798  31.589  37.619   1.291
38572W        W 3799  15.134   2.060   3.943
38573W        W 3800   9.425   6.837  12.075
38574W        W 3801   9.525  12.019  10.985
38575W        W 3802  35.089  39.361   2.638
38576W        W 3803  44.686   1.621  14.849
38577W        W 3804  37.001  42.022   3.089
38578W        W 3805  29.021  15.098   0.292
38579W        W 3806  24.584  25.165   2.542
38580W        W 3807  19.025  28.772   3.932
38581W        W 3808   6.181  40.203  12.085
38582W        W 3809  42.890  22.477   3.642
38583W        W 3810  25.739  26.253  10.670
38584W        W 3811  37.032  31.160   3.883
38585W        W 3812  41.287  37.334   2.728
38586W        W 3813  36.357  15.070   4.548
38587W        W 3814  17.592  42.326   0.558
38588W        W 3815  19.447  10.942   2.118
38589W        W 3816  12.347  43.349   0.799
38590W        W 3817   7.650  33.456   1.764
38591W        W 3818   2.449  35.445   0.802
38592W        W 3819  43.985  13.621  13.447
38593W        W 3820  41.307  34.846   1.261
38594W        W 3821   2.427   5.737  11.683
38595W        W 3822  16.758  31.386   2.507
38596W        W 3823  13.397  23.315   0.323
38597W        W 3824  19.021  17.654  13.277
38598W        W 3825  16.235  25.616   4.887
38599W        W 3826   7.364  33.359   4.132
38600W        W 3827  20.375   0.376   2.699
38601W        W 3828  31.461  35.592   0.254
38602W        W 3829  14.048  26.691  11.122
38603W        W 3830  24.494   7.800   4.783
38604W        W 3831  26.215  18.092  11.099
38605W        W 3832  37.514  22.309   0.141
38606W        W 3833  31.074  41.417  14.399
38607W        W 3834  44.944  40.218  11.974
38608W        W 3835   6.295  37.435   2.895
38609W        W 3836   0.396   1.727   1.267
38610W        W 3837  31.426  17.355   3.845
38611W        W 3838  28.307  25.819   2.731
38612W        W 3839   4.743   0.028   0.333
38613W        W 3840  15.314   4.478  14.313
38614W        W 3841  41.345  42.440  10.673
38615W        W 3842  36.614  30.502   0.368
38616W        W 3843  36.880  33.140  14.521
38617W        W 3844   5.090   9.727   4.172
38618W        W 3845  38.320   0.307   4.187
38619W        W 3846  44.621  30.991   0.043
38620W        W 3847   3.713  39.334  11.988
38621W        W 3848  42.001  39.921   0.431
38622W        W 3849  43.452   0.320  10.795
38623W        W 3850  40.358  44.528  12.488
38624W        W 3851  16.305  32.988   4.951
38625W        W 3852   5.728   3.981  13.910
38626W        W 3853  31.864  34.057   4.690
38627W        W 3854  13.282  10.818   1.200
38628W        W 3855  13.661  21.035   1.155
38629W        W 3856  25.873   0.370  10.743
38630W        W 3857  39.937   7.474   4.545
38631W        W 3858   4.782  37.992  10.718
38632W        W 3859  39.545   4.551   2.836
38633W        W 3860  27.197  14.172  14.347
38634W        W 3861  26.325  27.704  12.067
38635W        W 3862  38.472  33.212   3.139
38636W        W 3863  17.677  40.798   4.582
38637W        W 3864  23.921  15.534   3.676
38638W        W 3865  34.516  33.429   4.553
38639W        W 3866  19.535  41.723  11.339
38640W        W 3867  25.759  39.938  11.558
38641W        W 3868  25.212  10.172  11.485
38642W        W 3869  20.178  26.941  11.420
38643W        W 3870  27.252  19.049  14.070
38644W        W 3871  41.958  25.050   4.489
38645W        W 3872   0.674  36.641   4.615
38646W        W 3873  41.771  33.721   1.829
38647W        W 3874  21.951  43.055   3.187
38648W        W 3875   3.394   7.654  14.800
38649W        W 3876   0.466  17.669  13.185
38650W        W 3877  23.236  29.544  13.366
38651W        W 3878  44.531   6.695   0.245
38652W        W 3879   3.939  24.833   5.162
38653W        W 3880  24.815  15.070  13.918
38654W        W 3881  16.893  42.736  13.328
38655W        W 3882  22.984  25.488   2.739
38656W        W 3883  33.612  24.182   4.592
38657W        W 3884  17.315  34.967   0.294
38658W        W 3885  38.987  25.204   3.997
38659W        W 3886  33.937  41.282  14.759
38660W        W 3887  23.753   0.768  12.584
38661W        W 3888  18.192  40.185   4.145
38662W        W 3889  11.558  16.337  10.180
38663W        W 3890  43.036   4.006  11.046
38664W        W 3891  40.523   9.881   3.564
38665W        W 3892  15.383  40.086  13.419
38666W        W 3893   1.235  24.864  14.246
38667W        W 3894  37.911  21.079   0.907
38668W        W 3895  28.315  23.222  13.304
38669W        W 3896  10.261   8.386  14.181
38670W        W 3897  41.570  25.931   2.134
38671W        W 3898   2.179  22.683  10.576
38672W        W 3899   7.271  39.916  14.840
38673W        W 3900  20.366  28.190   2.220
38674W        W 3901  27.058  42.383   1.536
38675W        W 3902   4.833   8.615  10.654
38676W        W 3903  27.166  15.685  14.383
38677W        W 3904  41.996  29.627   4.016
38678W        W 3905  41.294   6.325   2.755
38679W        W 3906   3.448  25.601   3.643
38680W        W 3907   7.728  44.794  12.058
38681W        W 3908  27.471   3.142   2.179
38682W        W 3909  30.597  25.883   9.835
38683W        W 3910  18.034   3.641   3.351
38684W        W 3911   5.463  43.850  12.105
38685W        W 3912  20.983   6.382   0.629
38686W        W 3913   6.952  12.043   1.431
38687W        W 3914  39.524  10.858  11.149
38688W        W 3915  35.583   9.293  13.507
38689W        W 3916  19.513  30.897  10.504
38690W        W 3917  19.746  10.278  13.584
38691W        W 3918  11.074  14.750   3.702
38692W        W 3919  25.467   9.245   4.337
38693W        W 3920  18.134  29.017  12.086
38694W        W 3921  13.144  14.086   2.058
38695W        W 3922  38.980  19.244   2.735
38696W        W 3923  27.661   5.747   2.641
38697W        W 3924  27.497  35.538  14.292
38698W        W 3925   1.272   1.808  13.030
38699W        W 3926  41.206  23.764   1.780
38700W        W 3927  10.437  12.429  11.130
38701W        W 3928  12.852  32.379   0.305
38702W        W 3929  21.129  16.080   2.330
38703W        W 3930  39.028   4.125   4.131
38704W        W 3931   6.260  12.295   0.331
38705W        W 3932  10.692   1.932  13.970
38706W        W 3933  17.132  16.858   0.057
38707W        W 3934  30.625   9.163   2.251
38708W        W 3935  31.793   5.133   3.273
38709W        W 3936  26.951  33.816  12.136
38710W        W 3937  38.079  18.741   2.361
38711W        W 3938  31.375   4.254   2.250
38712W        W 3939  25.049   2.460   4.289
38713W        W 3940  11.840  36.487   0.717
38714W        W 3941  12.860  14.871  13.926
38715W        W 3942  21.921  13.964   2.643
38716W        W 3943  41.809  17.163   4.605
38717W        W 3944  38.933  28.353  11.903
38718W        W 3945  38.082  19.210   3.173
38719W        W 3946  16.567  15.059   0.809
38720W        W 3947  27.145  40.373  10.688
38721W        W 3948   2.643  39.027  12.692
38722W        W 3949  30.512  24.228  10.521
38723W        W 3950  33.598   0.542  14.488
38724W        W 3951  41.553  21.708   3.882
38725W        W 3952  39.518   8.246   5.390
38726W        W 3953  37.028  27.479  12.907
38727W        W 3954  23.152  26.321   4.484
38728W        W 3955  19.633  31.386  14.072
38729W        W 3956  21.207   2.290   1.768
38730W        W 3957  11.504   1.159  13.406
38731W        W 3958  40.057   6.523   1.900
38732W        W 3959  44.893   0.694  14.776
38733W        W 3960  33.466  32.683  12.859
38734W        W 3961   4.466  41.519   0.327
38735W        W 3962  35.564  24.040  11.941
38736W        W 3963  25.738  27.645   3.745
38737W        W 3964  36.414  14.289  14.087
38738W        W 3965  15.810  25.538   1.097
38739W        W 3966  11.052  31.162  10.254
38740W        W 3967  38.814  43.593  10.832
38741W        W 3968   1.513  30.683   0.006
38742W        W 3969  30.120  37.574  14.769
38743W        W 3970  31.102   7.380   2.344
38744W        W 3971   2.414  12.702   2.413
38745W        W 3972  36.594   6.386  13.774
38746W        W 3973  14.314  39.503   4.194
38747W        W 3974   2.922  43.675  13.346
38748W        W 3975   7.315  36.908   0.486
38749W        W 3976  30.965  15.534  12.562
38750W        W 3977  35.799  15.692  11.215
38751W        W 3978  32.838  14.994   1.224
38752W        W 3979   2.944   7.830   2.120
38753W        W 3980   0.040  10.885   1.810
38754W        W 3981  24.568  33.761   4.411
38755W        W 3982  35.472  37.313   4.598
38756W        W 3983  41.755  18.985   5.259
38757W        W 3984  41.446   5.312   3.618
38758W        W 3985  17.418   4.000  11.957
38759W        W 3986  19.337  17.674   4.224
38760W        W 3987   6.192  34.936   0.833
38761W        W 3988  41.017  32.578   4.737
38762W        W 3989  40.328   4.139  14.875
38763W        W 3990   3.818  37.321   3.301
38764W        W 3991  20.050  36.684  12.058
38765W        W 3992   3.485  29.524  11.147
38766W        W 3993  39.774   3.046   5.321
38767W        W 3994  12.820  13.800  11.848
38768W        W 3995  19.865  34.814   2.775
38769W        W 3996  10.126   8.865  14.581
38770W        W 3997   4.171   3.523   3.189
38771W        W 3998  34.629  39.772   4.356
38772W        W 3999   1.941  11.503   3.274
38773W        W 4000  17.531   9.612   1.430
38774W        W 4001  37.963  15.864  11.556
38775W        W 4002  27.497   3.716   1.406
38776W        W 4003   8.885  40.321  13.556
38777W        W 4004  36.797   3.831  11.806
38778W        W 4005   9.385   2.083  14.421
38779W        W 4006  28.632   3.339   3.813
38780W        W 4007  40.311  10.790  11.641
38781W        W 4008  28.158  37.096  14.281
38782W        W 4009  43.040   6.827  12.990
38783W        W 4010   4.633  22.258   1.747
38784W        W 4011  42.185  39.847  12.184
38785W        W 4012  34.376   0.266  10.513
38786W        W 4013  39.412   7.417   3.243
38787W        W 4014  28.139  29.003  12.164
38788W        W 4015   7.389  31.074  14.478
38789W        W 4016  14.029  27.532   1.531
38790W        W 4017  30.670  19.870   2.710
38791W        W 4018  32.770  17.384   9.550
38792W        W 4019  41.942   5.740  11.627
38793W        W 4020  43.803  28.709   4.591
38794W        W 4021  28.171  44.778  10.600
38795W        W 4022  42.374   8.808  10.597
38796W        W 4023  13.717  41.477   1.024
38797W        W 4024   6.943  17.809   4.134
38798W        W 4025   0.660  40.730   0.821
38799W        W 4026  30.170  35.662   2.945
38800W        W 4027  39.424  24.211  11.737
38801W        W 4028  33.713  40.122   4.057
38802W        W 4029  41.304  25.115  10.775
38803W        W 4030  35.013  27.398   0.440
38804W        W 4031  39.052  34.002  11.060
38805W        W 4032  36.260  18.351   4.932
38806W        W 4033  34.663  44.542   0.189
38807W        W 4034  28.482  42.568  12.435
38808W        W 4035   1.709  23.565  14.968
38809W        W 4036  24.547  12.972   4.732
38810W        W 4037  26.467  40.842   2.331
38811W        W 4038  14.199  33.908  14.326
38812W        W 4039  19.768  18.315  12.206
38813W        W 4040  44.064  43.354   2.406
38814W        W 4041  25.500  38.440   3.320
38815W        W 4042   7.496  35.565   1.660
38816W        W 4043  27.964  17.108  12.046
38817W        W 4044   9.396  38.485  14.339
38818W        W 4045  38.582  37.459   3.709
38819W        W 4046   7.410  38.627  12.572
38820W        W 4047  32.470  33.460   4.206
38821W        W 4048  43.325  38.814   4.231
38822W        W 4049   7.381  22.032  11.027
38823W        W 4050  41.538   1.344   2.732
38824W        W 4051  16.228  10.587   4.723
38825W        W 4052  37.863   4.038   0.743
38826W        W 4053  32.231  19.562  10.979
38827W        W 4054  23.319   5.754   3.725
38828W        W 4055   3.211  10.962   3.576
38829W        W 4056  31.038  38.350  12.846
38830W        W 4057   4.547  28.357  11.118
38831W        W 4058  31.990  29.611  13.516
38832W        W 4059  44.419  11.269  11.562
38833W        W 4060   4.946  19.734   3.681
38834W        W 4061  44.284  11.367  12.499
38835W        W 4062  16.648  24.380   0.455
38836W        W 4063  11.886  29.002  10.345
38837W        W 4064  26.256  30.818  11.714
38838W        W 4065  40.733   2.942   0.890
38839W        W 4066  12.567  25.077   4.289
38840W        W 4067   4.464  20.515   0.380
38841W        W 4068  27.105  40.052   4.506
38842W        W 4069  21.235  25.024   3.123
38843W        W 4070   8.262  42.364   0.475
38844W        W 4071  16.039  28.414   0.333
38845W        W 4072  16.702  26.491   2.105
38846W        W 4073   9.648  41.527   0.375
38847W        W 4074   9.243  42.359  11.712
38848W        W 4075  19.440  42.525   0.235
38849W        W 4076   2.739  14.597  11.136
38850W        W 4077  25.669  32.913  12.126
38851W        W 4078  32.089  32.151  12.973
38852W        W 4079  13.514  21.694   2.320
38853W        W 4080  35.879  29.166  13.353
38854W        W 4081  14.139  15.510  13.479
38855W        W 4082  20.140  32.406  14.440
38856W        W 4083  14.282  12.626   2.712
38857W        W 4084  22.332   8.152  11.006
38858W        W 4085   5.780  16.107   1.328
38859W        W 4086  16.789   8.274   2.308
38860W        W 4087  11.172   9.311   4.147
38861W        W 4088  38.470  17.831   4.575
38862W        W 4089  22.603  26.026   4.852
38863W        W 4090  44.486  11.291  13.511
38864W        W 4091   5.228  34.028   4.714
38865W        W 4092   5.469   0.421   0.448
38866W        W 4093  23.645  33.946  11.513
38867W        W 4094   6.353   4.782  14.120
38868W        W 4095  25.197  23.499  12.945
38869W        W 4096  34.305  43.365  13.128
38870W        W 4097   0.489  33.356   3.632
38871W        W 4098  32.596  23.979  11.127
38872W        W 4099   5.664  22.936  13.310
38873W        W 4100  24.557  37.916  12.614
38874W        W 4101   8.226  12.586   3.032
38875W        W 4102  35.130  38.535   4.700
38876W        W 4103   7.377  41.396   2.558
38877W        W 4104  15.138   0.714  13.849
38878W        W 4105  41.827  21.026  11.067
38879W        W 4106  17.851  14.595   3.273
38880W        W 4107   0.985  35.279   0.291
38881W        W 4108  22.831  29.518  11.699
38882W        W 4109   3.778  41.343  12.414
38883W        W 4110  44.819  23.636  11.247
38884W        W 4111  26.259  27.149  12.465
38885W        W 4112  17.022  36.784  13.567
38886W        W 4113   2.847   7.434   2.947
38887W        W 4114  13.165  32.090  13.871
38888W        W 4115  32.337  32.226   4.094
38889W        W 4116  17.348  33.484  13.406
38890W        W 4117   5.966  41.789   3.059
38891W        W 4118   0.466  10.438  11.424
38892W        W 4119   1.584  32.058  13.392
38893W        W 4120  35.689   7.883   0.269
38894W        W 4121  38.890  10.424   2.305
38895W        W 4122  24.764  21.778  13.560
38896W        W 4123  21.056   9.182  14.385
38897W        W 4124  12.551   6.895   3.257
38898W        W 4125   0.360  40.936  14.078
38899W        W 4126  15.951   9.498   1.957
38900W        W 4127   6.850   3.506  12.878
38901W        W 4128   5.312  17.615  14.418
38902W        W 4129  18.112  37.964  13.845
38903W        W 4130  35.401   6.419   3.796
38904W        W 4131  40.361  15.040  13.114
38905W        W 4132  26.026  24.021   1.630
38906W        W 4133  12.830  19.980   2.790
38907W        W 4134  32.499  34.596  13.575
38908W        W 4135  31.948  35.866  10.353
38909W        W 4136  22.587  22.927   1.950
38910W        W 4137  15.679  32.621  14.038
38911W        W 4138  43.091  21.794   1.313
38912W        W 4139  34.637  19.794   2.601
38913W        W 4140  30.853  20.108  14.386
38914W        W 4141  35.678  28.023   0.871
38915W        W 4142  36.464  11.609  11.746
38916W        W 4143  40.348  22.406  12.075
38917W        W 4144  32.088  41.287  12.942
38918W        W 4145   3.795  44.464  13.504
38919W        W 4146  27.144  19.585  13.331
38920W        W 4147  24.234  33.431  11.111
38921W        W 4148  41.420  21.112  12.897
38922W        W 4149   7.951  38.466  11.224
38923W        W 4150   7.161  32.531  13.323
38924W        W 4151  22.975  24.029   4.643
38925W        W 4152   6.329  40.937   3.377
38926W        W 4153  41.320  15.752   0.255
38927W        W 4154  43.737   4.401   4.328
38928W        W 4155  16.577  22.419  14.803
38929W        W 4156   0.801  32.923  11.572
38930W        W 4157  34.932   8.600   0.369
38931W        W 4158  18.714  18.803  11.991
38932W        W 4159  15.619  34.998  13.329
38933W        W 4160  10.768   7.295   3.863
38934W        W 4161  25.338  26.058  12.126
38935W        W 4162  34.831  13.251   3.094
38936W        W 4163   2.695  32.086   2.657
38937W        W 4164  28.838  13.341   4.775
38938W        W 4165  11.279  24.572  11.166
38939W        W 4166  33.461  19.102   4.361
38940W        W 4167   9.306  40.204   4.802
38941W        W 4168  17.256  14.314   0.359
38942W        W 4169  38.123  37.003   4.094
38943W        W 4170  36.832  12.825  12.317
38944W        W 4171  23.723  17.244   1.362
38945W        W 4172  35.899  23.204   0.367
38946W        W 4173  32.201  30.103   1.344
38947W        W 4174  30.374  35.907  13.359
38948W        W 4175   2.044  15.213   1.263
38949W        W 4176  39.284  10.872   1.452
38950W        W 4177   4.163   8.083   4.591
38951W        W 4178  20.619  31.231  14.399
38952W        W 4179  37.499  43.105   0.135
38953W        W 4180  30.041  35.755  14.962
38954W        W 4181   5.409  17.826  13.929
38955W        W 4182  13.882   1.515   0.370
38956W        W 4183  36.341   6.890  14.514
38957W        W 4184  30.955  31.615  13.412
38958W        W 4185  34.632  31.192   4.615
38959W        W 4186  40.055  26.675  13.800
38960W        W 4187   3.608  21.557   3.311
38961W        W 4188  32.192  40.416   4.706
38962W        W 4189  31.124  23.074  12.821
38963W        W 4190  35.087  24.315   1.370
38964W        W 4191   7.237  23.046   0.168
38965W        W 4192  33.494  27.755  13.720
38966W        W 4193  14.084   0.210  11.158
38967W        W 4194  36.332  35.941   3.634
38968W        W 4195  34.825  35.483  12.508
38969W        W 4196  26.014  34.908   3.041
38970W        W 4197  15.353  24.552   4.751
38971W        W 4198  38.717  39.073  12.564
38972W        W 4199  21.649  26.732   0.067
38973W        W 4200  25.880  23.128  11.192
38974W        W 4201  21.669   8.214   1.824
38975W        W 4202  19.443  39.840   1.771
38976W        W 4203  18.121  17.331   3.310
38977W        W 4204  37.641  35.057  13.069
38978W        W 4205  42.517  19.070  14.484
38979W        W 4206   9.706  27.760   0.225
38980W        W 4207  13.757   4.683   1.891
38981W        W 4208  16.931  44.239   3.770
38982W        W 4209   2.130   1.085  14.957
38983W        W 4210  13.087  30.622   3.938
38984W        W 4211   2.326  29.645  13.034
38985W        W 4212  38.365  37.876  12.561
38986W        W 4213  16.128  14.590   0.315
38987W        W 4214   4.956  31.132  11.558
38988W        W 4215  28.220   8.774  13.488
38989W        W 4216  36.239  40.552   1.414
38990W        W 4217  14.211  36.914  10.614
38991W        W 4218  21.126  38.828  12.380
38992W        W 4219  23.436   7.455  14.081
38993W        W 4220  19.464  27.630  12.881
38994W        W 4221  38.048  15.803   0.848
38995W        W 4222  16.783  33.993   4.620
38996W        W 4223  37.978  37.488   0.262
38997W        W 4224  43.829  35.296  14.868
38998W        W 4225  42.932  24.134  14.546
38999W        W 4226  20.032   4.503  13.004
39000W        W 4227  11.158  41.588   3.064
39001W        W 4228  10.768  24.341  11.604
39002W        W 4229  28.799  18.179  10.636
39003W        W 4230  29.253  42.293   1.812
39004W        W 4231   0.870   2.628   2.180
39005W        W 4232  41.737  20.000   3.866
39006W        W 4233  10.568   2.828  13.701
39007W        W 4234  22.103   2.415   4.843
39008W        W 4235  26.469  44.533  12.374
39009W        W 4236   5.825  28.709  12.534
39010W        W 4237  44.955  17.447   1.239
39011W        W 4238  23.301   1.012  12.666
39012W        W 4239  24.488  12.577   3.776
39013W        W 4240   3.784  39.720  10.696
39014W        W 4241  13.200  21.014   1.424
39015W        W 4242  22.622   2.546  10.684
39016W        W 4243  11.065  23.733  14.003
39017W        W 4244  40.645  11.406  11.517
39018W        W 4245   8.205  37.653  12.325
39019W        W 4246   5.678  44.672  13.184
39020W        W 4247  44.405  12.720   4.475
39021W        W 4248   5.103  38.479  11.168
39022W        W 4249  11.908  32.014  14.861
39023W        W 4250   4.801  22.766  13.015
39024W        W 4251  38.585  41.328   2.783
39025W        W 4252  21.471  38.651  12.050
39026W        W 4253  44.257  43.824   4.438
39027W        W 4254  39.316  39.326   0.928
39028W        W 4255  17.634  27.014   1.698
39029W        W 4256  28.492  11.501  14.850
39030W        W 4257  44.108  17.665   4.961
39031W        W 4258  20.463  34.003  14.529
39032W        W 4259  41.238  10.192   3.045
39033W        W 4260  23.040   8.882   4.658
39034W        W 4261  37.894  18.793   1.842
39035W        W 4262  18.576   7.809   2.137
39036W        W 4263   4.938  20.298  13.301
39037W        W 4264   5.308  16.011  11.451
39038W        W 4265   3.450  10.498   3.406
39039W        W 4266  18.976   6.404  13.359
39040W        W 4267  11.724  25.884  11.595
39041W        W 4268   4.868  28.900   3.538
39042W        W 4269  26.783   5.208   2.666
39043W        W 4270  40.058  32.610  11.385
39044W        W 4271  35.014  10.251  10.787
39045W        W 4272  26.996  25.324  11.254
39046W        W 4273   4.265  23.605  13.872
39047W        W 4274  25.726  22.215   2.424
39048W        W 4275  42.574  41.376  13.366
39049W        W 4276  14.926  27.297  10.791
39050W        W 4277  18.348  36.556  12.263
39051W        W 4278  30.885  22.633  10.011
39052W        W 4279  42.034   6.767   1.927
39053W        W 4280  28.006  20.628  10.943
39054W        W 4281  42.394  37.055  10.796
39055W        W 4282  19.961  17.291   1.855
39056W        W 4283  18.775   5.423   4.452
39057W        W 4284  28.447  21.985   1.220
39058W        W 4285   9.308  36.574  13.497
39059W        W 4286  25.525  21.065  14.847
39060W        W 4287  44.697  26.917   9.743
39061W        W 4288   3.973   3.876  12.093
39062W        W 4289  16.736   7.598   2.901
39063W        W 4290   9.386   8.025  12.291
39064W        W 4291  40.395  30.673   2.438
39065W        W 4292  40.554  14.751   3.601
39066W        W 4293  19.402  18.348  12.895
39067W        W 4294  20.479  23.572  12.986
39068W        W 4295  21.701  38.988   4.575
39069W        W 4296  18.287  33.046  12.305
39070W        W 4297  22.094  26.333  14.345
39071W        W 4298  16.045   3.432  10.190
39072W        W 4299   2.755  30.443   4.609
39073W        W 4300  44.477  30.571  13.975
39074W        W 4301  16.044  27.146   4.066
39075W        W 4302   1.825   7.664   1.297
39076W        W 4303   1.983  12.414  12.353
39077W        W 4304  23.968   0.797   0.219
39078W        W 4305  36.652  38.338   0.618
39079W        W 4306  19.858  12.798  10.869
39080W        W 4307   0.463  26.464  12.674
39081W        W 4308   7.653   6.280  12.631
39082W        W 4309  23.976   4.291  13.360
39083W        W 4310  38.823  28.518   2.744
39084W        W 4311   1.939  38.981  11.871
39085W        W 4312  10.913   9.887   1.946
39086W        W 4313  30.128  23.571   5.163
39087W        W 4314   8.578   0.264   2.866
39088W        W 4315  28.534  38.592   5.083
39089W        W 4316  26.003   4.670  10.832
39090W        W 4317   3.419  20.321   2.956
39091W        W 4318  24.649  43.345   3.730
39092W        W 4319  18.021  19.243   2.840
39093W        W 4320  22.248  12.630  11.066
39094W        W 4321  34.081   8.814  13.798
39095W        W 4322  15.600  12.884   3.630
39096W        W 4323  23.143  25.652   1.558
39097W        W 4324  34.633  29.456  10.362
39098W        W 4325   2.800   3.018  14.201
39099W        W 4326  42.214  29.145  11.134
39100W        W 4327  22.462  32.977  10.410
39101W        W 4328   7.801  43.373   0.385
39102W        W 4329   2.132  29.048  13.031
39103W        W 4330  36.686  29.658   0.162
39104W        W 4331  30.178  32.473   1.404
39105W        W 4332  37.239  30.026   2.337
39106W        W 4333  37.419  23.494   3.547
39107W        W 4334  18.605  35.781  12.611
39108W        W 4335  19.621  33.421   0.295
39109W        W 4336   1.340   1.210   0.389
39110W        W 4337  28.186  13.228  12.437
39111W        W 4338  10.816  44.572  13.429
39112W        W 4339  22.373  16.484  11.600
39113W        W 4340  18.692   5.987   4.107
39114W        W 4341  30.568   3.927   1.769
39115W        W 4342  10.116   9.053   5.070
39116W        W 4343   8.822   8.926  12.557
39117W        W 4344  10.674  41.771  12.483
39118W        W 4345  31.869   0.784  11.634
39119W        W 4346  42.112  35.143   4.094
39120W        W 4347   7.323  26.931  10.758
39121W        W 4348  16.560   3.900  10.752
39122W        W 4349  27.388  22.183  13.528
39123W        W 4350  26.106   8.646  11.621
39124W        W 4351  31.875  13.110   0.875
39125W        W 4352  16.139  22.171  14.995
39126W        W 4353   9.932  39.879   1.919
39127W        W 4354  16.986  39.477  12.224
39128W        W 4355  30.348  34.071   4.101
39129W        W 4356  33.411  16.601  14.929
39130W        W 4357  39.180  26.801   4.170
39131W        W 4358  34.985   7.227  12.005
39132W        W 4359  36.134   4.349  10.752
39133W        W 4360   9.282  19.563   2.647
39134W        W 4361  13.593  35.288   2.121
39135W        W 4362   4.559  33.489  12.912
39136W        W 4363   9.696  31.451   3.315
39137W        W 4364  32.937  15.801  12.521
39138W        W 4365  37.092  23.037  11.084
39139W        W 4366  23.440   8.423   0.930
39140W        W 4367  34.922   8.679   4.091
39141W        W 4368  20.091  11.893   3.675
39142W        W 4369  10.093   3.880   0.898
39143W        W 4370  16.328  39.223   2.641
39144W        W 4371   7.993  38.835   1.651
39145W        W 4372  20.625  26.651  11.382
39146W        W 4373  20.881  15.273   2.277
39147W        W 4374   8.023  13.024   0.006
39148W        W 4375  13.239  10.006   4.176
39149W        W 4376  29.627  16.435  11.268
39150W        W 4377   3.026  18.168   0.278
39151W        W 4378  20.848  17.828  11.700
39152W        W 4379  12.334  31.784  13.431
39153W        W 4380  13.370  28.023   3.514
39154W        W 4381  33.974  36.907   0.792
39155W        W 4382  15.643   2.717   4.319
39156W        W 4383  42.477  18.264   1.021
39157W        W 4384  11.384   4.304  14.235
39158W        W 4385  28.724  20.235  13.793
39159W        W 4386  13.098   3.281   2.019
39160W        W 4387  31.070   4.369  12.531
39161W        W 4388  43.794  17.900  14.886
39162W        W 4389  37.064  12.733   4.805
39163W        W 4390   6.012  43.236   3.047
39164W        W 4391  12.276  41.524  10.922
39165W        W 4392   3.679  24.218  14.324
39166W        W 4393  25.171  41.971   2.618
39167W        W 4394   4.984  13.197   3.129
39168W        W 4395  41.027  32.536  12.864
39169W        W 4396  39.587  16.395   4.935
39170W        W 4397  26.915  14.393   1.276
39171W        W 4398  11.908  29.547   4.174
39172W        W 4399  42.224  14.369  13.316
39173W        W 4400  16.297  17.532   4.584
39174W        W 4401  14.842  31.205  13.107
39175W        W 4402  15.342  34.979   0.329
39176W        W 4403  29.612  41.319  12.125
39177W        W 4404   3.450   1.396   0.356
39178W        W 4405   1.368  40.374   1.400
39179W        W 4406  17.097  39.039  13.499
39180W        W 4407  23.764  39.299   1.718
39181W        W 4408   5.167  12.770   4.688
39182W        W 4409  18.713  22.584  11.244
39183W        W 4410  11.965  27.470  12.483
39184W        W 4411  33.968  15.026  13.987
39185W        W 4412  43.470   1.317  11.018
39186W        W 4413  42.012  27.206  11.165
39187W        W 4414  16.811  22.936   3.925
39188W        W 4415  30.423  31.612   3.197
39189W        W 4416  40.876  32.914  11.907
39190W        W 4417  14.755  15.297  12.066
39191W        W 4418  34.399  11.173   2.589
39192W        W 4419   4.947  18.967   1.888
39193W        W 4420  11.833  43.226   0.884
39194W        W 4421  44.760  42.864  14.938
39195W        W 4422  18.565  26.261   4.998
39196W        W 4423  17.271   7.398   2.788
39197W        W 4424   2.541  36.511  12.078
39198W        W 4425  33.106  11.590   0.840
39199W        W 4426  38.844   2.439   3.255
39200W        W 4427  22.000  23.912   2.152
39201W        W 4428  34.868  20.260   3.867
39202W        W 4429  38.546  42.875  10.597
39203W        W 4430  22.317  39.932   3.141
39204W        W 4431   5.408  14.649  12.496
39205W        W 4432  26.255   1.059   2.837
39206W        W 4433  10.867  31.703  10.922
39207W        W 4434  11.784   2.942  13.200
39208W        W 4435  13.846   1.101   2.695
39209W        W 4436  36.957  26.116  13.595
39210W        W 4437  30.134   9.073   4.404
39211W        W 4438  24.050  31.868   2.319
39212W        W 4439   5.310   6.198   0.974
39213W        W 4440  27.996   6.467  11.380
39214W        W 4441  25.742   5.318  11.531
39215W        W 4442   5.278  39.122   3.678
39216W        W 4443  10.404  34.065  10.644
39217W        W 4444  26.489  13.910   2.001
39218W        W 4445   6.140  28.153  14.537
39219W        W 4446  24.265  10.051   2.864
39220W        W 4447  31.172  35.818   2.812
39221W        W 4448  39.042   0.900  14.316
39222W        W 4449  29.817  23.067  14.824
39223W        W 4450  35.928  15.955   4.419
39224W        W 4451  17.230  14.688  10.699
39225W        W 4452  37.658  40.825  10.456
39226W        W 4453  23.113  25.491  12.956
39227W        W 4454  27.476  33.519   2.180
39228W        W 4455  32.467  12.179  12.843
39229W        W 4456  39.571  16.102  13.024
39230W        W 4457  38.506  28.610  10.695
39231W        W 4458   1.406  26.051   2.665
39232W        W 4459   0.203  18.753  12.500
39233W        W 4460  23.242   3.035  12.032
39234W        W 4461  12.606  24.586  13.539
39235W        W 4462  28.161   6.456   3.194
39236W        W 4463  16.611  19.615   3.983
39237W        W 4464  38.527   7.808  12.153
39238W        W 4465  36.967  23.619   4.996
39239W        W 4466  44.062  26.477   4.636
39240W        W 4467  13.370  35.646   3.289
39241W        W 4468   3.856  21.702  14.895
39242W        W 4469  34.915  19.592  13.888
39243W        W 4470   1.148  28.859   1.506
39244W        W 4471  23.747   7.319   2.362
39245W        W 4472  44.717   9.289   4.235
39246W        W 4473  32.869  18.056  14.807
39247W        W 4474   0.985   0.499   3.668
39248W        W 4475   0.458  41.702  12.040
39249W        W 4476  18.248  35.566   2.799
39250W        W 4477  39.053  43.139  10.933
39251W        W 4478  24.355  19.021   2.669
39252W        W 4479   2.343  20.656   2.882
39253W        W 4480  15.124  15.206   0.706
39254W        W 4481  17.679  34.613   3.825
39255W        W 4482   4.366  16.824  11.236
39256W        W 4483  29.491  30.528  12.526
39257W        W 4484  26.224  24.484   2.828
39258W        W 4485  34.489   9.687  13.919
39259W        W 4486  32.781  16.315  11.124
39260W        W 4487   7.145  13.215   2.970
39261W        W 4488   0.514  42.532   9.887
39262W        W 4489   7.625   6.756   2.432
39263W        W 4490  11.894  29.174  12.909
39264W        W 4491   8.876   1.419  10.415
39265W        W 4492  17.858  22.805   1.462
39266W        W 4493  25.359  17.351   5.036
39267W        W 4494  30.009  32.187  10.704
39268W        W 4495  32.969  42.500  13.678
39269W        W 4496  27.712   5.180  11.648
39270W        W 4497  19.580  28.171   1.791
39271W        W 4498  44.481   2.897   1.939
39272W        W 4499   3.520  39.974   1.337
39273W        W 4500  37.903  28.958   0.996
39274W        W 4501  43.496   7.189   9.402
39275W        W 4502  18.076   2.822   3.701
39276W        W 4503   0.906  38.444   2.135
39277W        W 4504  24.221  20.132   0.734
39278W        W 4505   2.215   7.278  12.029
39279W        W 4506  38.693  12.913   3.835
39280W        W 4507  30.495  33.867   1.460
39281W        W 4508  32.730  40.606   2.354
39282W        W 4509  28.183  38.457  14.988
39283W        W 4510  39.625  15.638  11.189
39284W        W 4511  21.875  19.054  13.835
39285W        W 4512  21.611  37.403   4.752
39286W        W 4513  12.568  43.062   2.748
39287W        W 4514  17.739  14.961   1.479
39288W        W 4515  11.736  41.562   2.892
39289W        W 4516  44.384   7.147  14.259
39290W        W 4517  41.477  21.488   1.903
39291W        W 4518  20.274   2.998  12.893
39292W        W 4519  41.634  19.957   2.939
39293W        W 4520  14.666  14.830  11.062
39294W        W 4521  32.976  28.532   0.233
39295W        W 4522  19.878   7.993  10.814
39296W        W 4523  26.243  22.158  14.920
39297W        W 4524   5.408  36.977  11.103
39298W        W 4525  43.455  16.038  10.816
39299W        W 4526  16.212  23.156   2.667
39300W        W 4527   2.408  34.099  13.527
39301W        W 4528  11.719   4.380   2.368
39302W        W 4529   0.791  31.603  11.305
39303W        W 4530  25.650  33.536   1.856
39304W        W 4531  11.427   9.161  13.498
39305W        W 4532  11.843  43.937   2.644
39306W        W 4533   6.271  31.501  12.069
39307W        W 4534  24.430  31.019  11.117
39308W        W 4535  43.476  18.556  12.814
39309W        W 4536  30.830   0.376   1.763
39310W        W 4537  10.313  17.343   0.290
39311W        W 4538  24.034   9.278  14.003
39312W        W 4539  14.221   0.358  12.650
39313W        W 4540  42.335  29.828  13.458
39314W        W 4541  22.326  43.673   0.293
39315W        W 4542  34.942  20.302  14.579
39316W        W 4543   7.508  19.212  13.854
39317W        W 4544  11.257  35.824   0.392
39318W        W 4545   3.974  11.440   2.166
39319W        W 4546   6.558  29.917   3.710
39320W        W 4547  11.685  25.907   0.838
39321W        W 4548  36.785  15.100  12.410
39322W        W 4549  23.498  43.746   1.301
39323W        W 4550  34.193  39.335  10.374
39324W        W 4551  13.630   1.184  13.410
39325W        W 4552  23.054   4.478   3.843
39326W        W 4553  10.771  14.854   2.407
39327W        W 4554  41.409   1.782  14.384
39328W        W 4555  42.433   3.879   3.349
39329W        W 4556  16.194  19.487  14.606
39330W        W 4557  14.928  21.177  12.492
39331W        W 4558  33.931  29.538   1.768
39332W        W 4559  19.558  34.670   0.459
39333W        W 4560  27.697   1.550  14.368
39334W        W 4561  33.162  18.252  11.691
39335W        W 4562  22.950  24.661   3.610
39336W        W 4563  25.940   3.843   0.717
39337W        W 4564  37.831   4.792  12.606
39338W        W 4565  18.451   8.951   4.957
39339W        W 4566  21.841  28.953  11.034
39340W        W 4567  37.545  15.153   0.356
39341W        W 4568  29.107  26.227   0.029
39342W        W 4569  20.621  40.204  10.786
39343W        W 4570   4.771   9.351   0.974
39344W        W 4571  26.929  33.973  10.746
39345W        W 4572   3.827  29.516  10.756
39346W        W 4573  22.929  35.726   2.377
39347W        W 4574   3.268  35.852  12.807
39348W        W 4575  42.865  40.412   3.104
39349W        W 4576  36.590  30.888   3.637
39350W        W 4577  24.040  19.554   3.501
39351W        W 4578  25.746  42.391   1.384
39352W        W 4579  40.927  34.613   4.543
39353W        W 4580  21.202  11.220  13.142
39354W        W 4581  20.439  12.334   1.334
39355W        W 4582  19.719  19.833  12.908
39356W        W 4583  27.742  38.783  13.105
39357W        W 4584  34.783  37.969  10.299
39358W        W 4585  14.862   1.289  12.973
39359W        W 4586  34.623  44.173  11.716
39360W        W 4587  41.350  38.967  11.854
39361W        W 4588  37.685  36.007   2.383
39362W        W 4589  30.999   2.398   3.189
39363W        W 4590  20.779  32.360  10.744
39364W        W 4591  22.031  41.782   4.568
39365W        W 4592  42.532  29.720  11.627
39366W        W 4593   4.791  41.543  14.901
39367W        W 4594  13.819  20.497   1.891
39368W        W 4595  21.744   8.083  11.449
39369W        W 4596  43.047   5.817   2.696
39370W        W 4597  11.051  32.427   1.887
39371W        W 4598   6.771  26.295   3.325
39372W        W 4599  23.306  13.340  14.898
39373W        W 4600   3.258  29.682   1.673
39374W        W 4601  39.895  41.188   4.114
39375W        W 4602  32.117  16.563  14.130
39376W        W 4603  31.577  33.312   3.610
39377W        W 4604  24.487  13.376   2.276
39378W        W 4605  20.048   5.401  11.676
39379W        W 4606   8.113   4.456   2.805
39380W        W 4607  25.678  34.407   3.989
39381W        W 4608   7.408   8.763   3.009
39382W        W 4609  15.847  34.680  13.874
39383W        W 4610  34.584  31.444   1.595
39384W        W 4611  16.651  18.100  11.549
39385W        W 4612  32.322  11.454  11.262
39386W        W 4613   8.734  20.034   0.909
39387W        W 4614  20.095  20.178  13.216
39388W        W 4615  21.860  22.488   0.959
39389W        W 4616   5.251  44.491  13.995
39390W        W 4617  19.627  24.165   1.338
39391W        W 4618  39.786  13.201  14.751
39392W        W 4619  20.266   1.719   1.364
39393W        W 4620  30.841  36.380   0.207
39394W        W 4621  34.894  23.121   0.002
39395W        W 4622  18.294  29.444  13.786
39396W        W 4623   6.450  38.320  12.514
39397W        W 4624  28.129  33.005  12.852
39398W        W 4625  29.614  24.614   0.520
39399W        W 4626  27.004  41.556   3.404
39400W        W 4627  11.190  13.604   1.727
39401W        W 4628  25.673  25.571   4.855
39402W        W 4629   6.866  28.704  12.552
39403W        W 4630  16.636  11.421   4.787
39404W        W 4631  10.082  22.794  11.953
39405W        W 4632  35.066  13.974   4.299
39406W        W 4633  41.017  17.537   4.246
39407W        W 4634   1.825  25.952  13.535
39408W        W 4635  31.634   6.189  13.642
39409W        W 4636  27.312  28.644   5.484
39410W        W 4637  16.029  29.666  11.608
39411W        W 4638  40.388  42.034  12.035
39412W        W 4639  28.988  21.041   2.305
39413W        W 4640   4.500  26.400   4.142
39414W        W 4641  43.843  28.648   4.065
39415W        W 4642  43.991   6.037   1.818
39416W        W 4643   4.143  35.542   0.101
39417W        W 4644   8.385   0.993  12.538
39418W        W 4645  13.575  38.559  11.953
39419W        W 4646  38.759  21.413   0.398
39420W        W 4647   8.829  32.286  10.482
39421W        W 4648  33.140   5.392   1.317
39422W        W 4649   6.219  43.638   4.475
39423W        W 4650  13.712  36.947   0.697
39424W        W 4651   1.768   9.923  11.421
39425W        W 4652  37.260  43.600  12.830
39426W        W 4653  35.501  25.870   2.099
39427W        W 4654  44.215   8.696  10.180
39428W        W 4655   0.393   4.899   3.694
39429W        W 4656  40.336  28.158   2.293
39430W        W 4657  13.272  22.074  14.764
39431W        W 4658  32.957  44.880  11.581
39432W        W 4659  31.686  39.402   2.334
39433W        W 4660  37.871  19.858   3.855
39434W        W 4661  32.031  38.470   4.982
39435W        W 4662  27.489  22.945   0.753
39436W        W 4663  37.323  26.250   0.347
39437W        W 4664   5.143  25.924   1.207
39438W        W 4665   5.251  40.939   2.094
39439W        W 4666  44.178  27.536   2.667
39440W        W 4667  33.507  30.905  11.799
39441W        W 4668   7.898  42.208  12.843
39442W        W 4669  17.292  42.222   2.258
39443W        W 4670  26.998  33.980   2.806
39444W        W 4671  23.992  41.990   2.306
39445W        W 4672   6.651  17.044   3.528
39446W        W 4673  14.525  10.948   4.065
39447W        W 4674  26.533  27.255  13.913
39448W        W 4675  12.526  10.838   4.856
39449W        W 4676  43.428  40.802  11.590
39450W        W 4677  23.111  28.270   4.405
39451W        W 4678  28.371  11.778  11.535
39452W        W 4679  34.131  23.061   1.223
39453W        W 4680  12.171   5.017   9.936
39454W        W 4681  35.195   7.065  11.216
39455W        W 4682  36.043  43.935   3.094
39456W        W 4683  42.313  43.570   2.414
39457W        W 4684  16.240  29.755   0.863
39458W        W 4685  17.648  11.421   3.264
39459W        W 4686  29.587  43.830  10.381
39460W        W 4687  23.269  16.489   2.782
39461W        W 4688  12.780   0.218  10.588
39462W        W 4689  44.302  16.790   4.187
39463W        W 4690  17.847  10.309  14.284
39464W        W 4691  10.695  22.649   2.653
39465W        W 4692  16.506  13.270   4.819
39466W        W 4693  34.675  35.661  13.873
39467W        W 4694   5.269  44.374   1.138
39468W        W 4695  11.393  11.055   2.841
39469W        W 4696  44.214  37.638   2.358
39470W        W 4697  41.998  25.679   2.289
39471W        W 4698  15.736  13.885   3.653
39472W        W 4699  32.521  20.128   3.849
39473W        W 4700  44.476   6.465  13.402
39474W        W 4701  44.565  23.001  12.056
39475W        W 4702  25.195  41.849   3.348
39476W        W 4703   5.687   1.319   4.206
39477W        W 4704  29.939   2.685   1.294
39478W        W 4705  13.389  31.313  12.396
39479W        W 4706  40.763  34.824  11.159
39480W        W 4707  24.583  41.394   3.633
39481W        W 4708  35.127  29.146  13.606
39482W        W 4709  16.932  32.119  11.708
39483W        W 4710  23.710  38.915   4.538
39484W        W 4711  25.583   7.295   3.203
39485W        W 4712  27.047   1.274   4.202
39486W        W 4713  32.631   6.721  10.803
39487W        W 4714   7.858   5.251  13.817
39488W        W 4715  21.644  34.100   0.870
39489W        W 4716  42.362  16.685   2.667
39490W        W 4717   8.449  38.311  11.148
39491W        W 4718   2.314  25.854   1.438
39492W        W 4719  19.596  20.112  13.341
39493W        W 4720  14.654  41.422  12.764
39494W        W 4721  19.502  40.005  14.049
39495W        W 4722   2.353   4.988  10.804
39496W        W 4723   4.431  25.908  11.548
39497W        W 4724   7.367   1.927   3.642
39498W        W 4725  29.661  39.060  12.175
39499W        W 4726  10.297  36.420   0.426
39500W        W 4727   9.721  11.090  14.942
39501W        W 4728  12.999  22.770  13.220
39502W        W 4729   7.148  38.561  13.463
39503W        W 4730   4.952  33.912   2.343
39504W        W 4731  14.869  29.504  14.047
39505W        W 4732  25.006  22.606   4.853
39506W        W 4733  12.842  17.726   2.799
39507W        W 4734  10.880  30.448   2.168
39508W        W 4735   7.097  11.713   3.976
39509W        W 4736  14.156  21.808  12.173
39510W        W 4737   6.873   9.437  11.636
39511W        W 4738  17.400  39.396  13.271
39512W        W 4739  17.264  16.784  12.972
39513W        W 4740  33.867   6.030   2.125
39514W        W 4741  15.999  32.484  14.787
39515W        W 4742  33.549  25.688   0.836
39516W        W 4743   8.652  27.266   4.492
39517W        W 4744  10.630  13.149   2.791
39518W        W 4745  33.533  15.500  12.628
39519W        W 4746  10.700  39.920   2.703
39520W        W 4747  11.343  26.516   2.878
39521W        W 4748  42.341  22.663  10.652
39522W        W 4749   7.119  22.055   1.844
39523W        W 4750  14.790  11.760   2.213
39524W        W 4751  31.476  38.552   1.473
39525W        W 4752   2.192  13.135   2.682
39526W        W 4753  19.226  13.873   2.587
39527W        W 4754  38.233  35.139   4.224
39528W        W 4755  20.321   6.950  11.592
39529W        W 4756  24.455   7.910  11.632
39530W        W 4757  26.898  35.779  11.689
39531W        W 4758   4.574   1.349  11.826
39532W        W 4759  44.357  23.260   4.556
39533W        W 4760  33.839   2.231  11.167
39534W        W 4761  16.464  14.222  10.954
39535W        W 4762  14.736   1.507  13.994
39536W        W 4763  31.496  37.054   1.273
39537W        W 4764   0.451  19.083  13.148
39538W        W 4765  42.413  10.292   0.563
39539W        W 4766   8.264   3.947  13.843
39540W        W 4767  32.001  27.429  13.125
39541W        W 4768   1.482  34.997  14.130
39542W        W 4769   4.884  36.835   3.345
39543W        W 4770  18.687  31.427   3.759
39544W        W 4771  16.851   2.929  12.519
39545W        W 4772  17.222  12.835  13.616
39546W        W 4773   4.083  38.539  13.873
39547W        W 4774  20.114  21.794  12.062
39548W        W 4775   8.810  35.603   0.419
39549W        W 4776  16.886  16.148  11.672
39550W        W 4777  27.999  21.090  12.975
39551W        W 4778  11.140  43.128  14.462
39552W        W 4779  39.278   6.764  13.557
39553W        W 4780  10.116  16.677   2.970
39554W        W 4781   1.954   3.847  14.395
39555W        W 4782  10.279  41.076  14.946
39556W        W 4783  29.160  34.410   1.369
39557W        W 4784  28.154  38.373  12.222
39558W        W 4785  27.659  30.389   0.443
39559W        W 4786   0.596  38.633  10.973
39560W        W 4787   1.535  17.320  13.971
39561W        W 4788  12.913  28.570   3.789
39562W        W 4789  12.735   6.981  11.259
39563W        W 4790  35.925  10.601  13.384
39564W        W 4791  34.559  12.310   0.223
39565W        W 4792   4.981  34.470   4.669
39566W        W 4793  20.779  36.088  14.352
39567W        W 4794   7.332   6.600   4.518
39568W        W 4795  22.855  38.555  11.085
39569W        W 4796  40.815  44.931   1.140
39570W        W 4797  36.536   2.739  11.129
39571W        W 4798  40.201  28.131  11.639
39572W        W 4799   4.418  35.514   4.134
39573W        W 4800   1.478  25.474   4.962
39574W        W 4801   2.048  11.313   1.415
39575W        W 4802  24.189  44.574  14.422
39576W        W 4803  25.474   3.332  14.664
39577W        W 4804  28.999   4.057   1.131
39578W        W 4805  40.367  42.896  11.413
39579W        W 4806  12.107  41.806  11.839
39580W        W 4807  44.758   2.427   1.373
39581W        W 4808   2.752   0.793   2.633
39582W        W 4809  13.121  42.718   1.821
39583W        W 4810  28.429  39.745  14.845
39584W        W 4811  23.205  12.421   3.181
39585W        W 4812  13.860  16.819   4.790
39586W        W 4813   9.722  38.594  14.992
39587W        W 4814   0.484  38.972  13.219
39588W        W 4815  29.670  21.751   3.588
39589W        W 4816  40.254  28.409   4.826
39590W        W 4817  36.437   7.947  13.194
39591W        W 4818  21.635   6.979  12.297
39592W        W 4819   4.020  27.455  12.253
39593W        W 4820  22.769  22.543   3.501
39594W        W 4821  43.851  24.196   4.884
39595W        W 4822  24.445  36.939   1.389
39596W        W 4823  22.623   6.663  14.918
39597W        W 4824  39.212  40.575   0.831
39598W        W 4825  17.626  24.670  11.629
39599W        W 4826  11.200  43.853   4.552
39600W        W 4827  43.977   7.742  12.017
39601W        W 4828  12.571  43.524  13.005
39602W        W 4829  18.456  42.741  10.784
39603W        W 4830  13.382  26.215   0.991
39604W        W 4831   1.022  11.282   1.215
39605W        W 4832  13.315   7.300   2.709
39606W        W 4833  23.795  12.380  14.831
39607W        W 4834  19.182  35.010   3.397
39608W        W 4835  36.519  24.738  13.554
39609W        W 4836  34.397  27.524   0.883
39610W        W 4837  17.819  21.996  12.093
39611W        W 4838   1.981   5.932   3.175
39612W        W 4839  25.452  28.981   2.367
39613W        W 4840  28.738   9.321  11.495
39614W        W 4841  11.078  22.142   0.543
39615W        W 4842   2.313  13.148   1.211
39616W        W 4843  41.956  15.786   3.254
39617W        W 4844  33.944  22.010  11.610
39618W        W 4845  23.043  10.915   1.595
39619W        W 4846  25.290  21.828  13.612
39620W        W 4847  44.043  33.916   4.978
39621W        W 4848  33.604   6.371  14.756
39622W        W 4849  39.886  34.365   1.441
39623W        W 4850  17.077  39.804  13.330
39624W        W 4851  19.502  15.245   3.235
39625W        W 4852  14.553   2.983   2.105
39626W        W 4853   3.753   4.838  10.667
39627W        W 4854  26.597  44.375   0.007
39628W        W 4855  16.564  38.419  11.224
39629W        W 4856  42.986  12.183  13.746
39630W        W 4857   9.897  44.920  11.949
39631W        W 4858  10.338   9.530   4.139
39632W        W 4859  10.108  39.259   0.275
39633W        W 4860  13.849  13.676   2.048
39634W        W 4861  38.839  11.238   4.644
39635W        W 4862  27.503  35.342   1.845
39636W        W 4863  43.098  11.806   0.757
39637W        W 4864  36.053  25.419   2.467
39638W        W 4865  33.079  39.534  11.650
39639W        W 4866  22.408   2.806   4.632
39640W        W 4867   9.336  12.228  10.531
39641W        W 4868  20.039   9.672   0.180
39642W        W 4869  16.660  24.622   2.310
39643W        W 4870  23.767  16.737   1.221
39644W        W 4871   7.435  13.256   4.767
39645W        W 4872  16.514  16.034   1.217
39646W        W 4873  42.310  21.185  14.901
39647W        W 4874  10.281  27.973   1.970
39648W        W 4875  11.897  34.993   4.145
39649W        W 4876   9.668  14.112  12.460
39650W        W 4877  30.840  32.511  12.809
39651W        W 4878   9.627   1.272   1.591
39652W        W 4879  32.211  11.810  11.648
39653W        W 4880  26.831  37.923   3.234
39654W        W 4881  10.650  23.425  14.039
39655W        W 4882  43.490  40.287  13.930
39656W        W 4883  38.291  29.981  10.911
39657W        W 4884  41.306  33.832   0.069
39658W        W 4885   2.917  11.394  13.347
39659W        W 4886  16.556  15.309  14.334
39660W        W 4887  19.336   2.932  12.631
39661W        W 4888  28.540   7.202  11.206
39662W        W 4889  34.380  19.936  13.452
39663W        W 4890   6.726  25.797  13.949
39664W        W 4891  38.398  29.871   5.048
39665W        W 4892   4.332  34.620  11.940
39666W        W 4893  40.391  34.418  13.357
39667W        W 4894  25.135  21.308   4.146
39668W        W 4895   0.149  33.489   1.730
39669W        W 4896   6.504  16.666   2.355
39670W        W 4897  18.630  15.039  13.843
39671W        W 4898  24.530  23.714   3.870
39672W        W 4899  32.072  32.227   0.263
39673W        W 4900  27.680   7.422   2.561
39674W        W 4901  43.719   9.740   2.610
39675W        W 4902  30.636  39.097  11.169
39676W        W 4903  12.619  41.231  10.654
39677W        W 4904  28.930  41.584  13.245
39678W        W 4905  35.992  13.248   3.714
39679W        W 4906   4.446  17.170   2.687
39680W        W 4907  15.468  44.340  14.856
39681W        W 4908  29.498  22.136   4.273
39682W        W 4909  21.188  13.863   3.453
39683W        W 4910  37.516  31.405  14.647
39684W        W 4911  41.891  31.329   4.746
39685W        W 4912  22.703  12.873   0.598
39686W        W 4913   0.297  41.139   4.951
39687W        W 4914   8.154   5.368  12.947
39688W        W 4915  36.762   9.394   0.830
39689W        W 4916  40.688  24.957  11.624
39690W        W 4917  23.053  28.441   1.891
39691W        W 4918   8.776  34.638  10.389
39692W        W 4919   7.807   3.467   4.575
39693W        W 4920  35.648  30.421   3.728
39694W        W 4921  27.716  42.365  12.956
39695W        W 4922   0.267  39.886   2.908
39696W        W 4923   9.185  16.318  12.604
39697W        W 4924  30.013  42.063  12.647
39698W        W 4925  12.049   9.831  13.438
39699W        W 4926  42.818  15.291  13.873
39700W        W 4927  37.358  40.623  13.357
39701W        W 4928  27.748  25.014  10.744
39702W        W 4929  33.684  19.994   9.595
39703W        W 4930  25.724  18.308  11.923
39704W        W 4931   6.198  41.935  14.870
39705W        W 4932   6.888  11.576  10.985
39706W        W 4933   1.405  26.616  13.876
39707W        W 4934  21.611  39.227  14.214
39708W        W 4935  15.594   8.791   1.184
39709W        W 4936   6.910  19.667  14.190
39710W        W 4937  25.226  28.235  12.898
39711W        W 4938  24.176   5.472   2.249
39712W        W 4939  23.727  21.471   0.539
39713W        W 4940   1.512  18.587  11.079
39714W        W 4941  43.420  20.811   0.394
39715W        W 4942  40.956  33.280   3.543
39716W        W 4943  15.587   4.910   3.105
39717W        W 4944  29.882  41.599  12.490
39718W        W 4945  30.028  40.520  13.118
39719W        W 4946  33.666  37.760  11.574
39720W        W 4947  19.110  21.031  12.930
39721W        W 4948  31.095  28.935  11.556
39722W        W 4949  27.816  44.229   4.504
39723W        W 4950  36.101  15.030   4.073
39724W        W 4951  27.895  22.888  11.537
39725W        W 4952  30.122  10.492  10.952
39726W        W 4953  22.944  16.332  13.030
39727W        W 4954   5.328  40.095   0.932
39728W        W 4955  39.026   1.782   0.681
39729W        W 4956  33.517  28.017  12.554
39730W        W 4957   6.817  22.443   2.870
39731W        W 4958  20.276  43.711  14.207
39732W        W 4959   8.132   6.462   1.188
39733W        W 4960  10.555  23.026  11.716
39734W        W 4961  36.969  30.498   2.105
39735W        W 4962  44.458  30.335   1.855
39736W        W 4963  34.847  22.900   3.440
39737W        W 4964  21.516  44.552  13.936
39738W        W 4965  28.659  42.781  13.032
39739W        W 4966  29.194   1.659  13.503
39740W        W 4967   6.756   6.650  13.906
39741W        W 4968  31.699  22.276   2.729
39742W        W 4969  15.933   0.630  14.283
39743W        W 4970  10.443   7.018   4.161
39744W        W 4971  14.237  20.735  14.772
39745W        W 4972  37.515   6.260  14.248
39746W        W 4973  28.758  16.746   2.800
39747W        W 4974  25.512  40.619  12.122
39748W        W 4975  38.994   3.498  13.868
39749W        W 4976  35.355  19.130   4.193
39750W        W 4977  34.496  39.778  14.142
39751W        W 4978  38.553  42.554  11.912
39752W        W 4979   7.845  11.418   2.781
39753W        W 4980  11.180  10.293   1.706
39754W        W 4981  36.455  22.460   2.664
39755W        W 4982  41.813  11.855   2.427
39756W        W 4983   3.772   8.609   3.718
39757W        W 4984  34.870   9.270   0.800
39758W        W 4985  16.023   6.301   2.329
39759W        W 4986  38.186   7.470   2.880
39760W        W 4987   7.518   6.294   0.288
39761W        W 4988  25.163   6.428   3.269
39762W        W 4989  21.555  19.980   3.172
39763W        W 4990  19.471  40.445  11.358
39764W        W 4991  44.952   7.265  12.082
39765W        W 4992  25.468  13.150  12.436
39766W        W 4993  19.648  30.194   1.907
39767W        W 4994  42.577   8.943  14.826
39768W        W 4995  27.264  41.754  10.871
39769W        W 4996  14.217  25.169  13.301
39770W        W 4997  10.604  20.157   3.354
39771W        W 4998  24.018  19.346   2.471
39772W        W 4999  14.712  39.587   3.876
39773W        W 5000  14.787  33.541  12.364
39774W        W 5001  34.649  25.145  13.483
39775W        W 5002  18.777  16.176  10.436
39776W        W 5003  21.337  23.888   1.927
39777W        W 5004  13.911  27.639   2.112
39778W        W 5005   4.448   5.749   0.981
39779W        W 5006  33.393  18.268   1.999
39780W        W 5007  34.055  33.096  13.638
39781W        W 5008  17.631  25.276   4.431
39782W        W 5009   0.937  17.718   4.014
39783W        W 5010  30.148  35.470  10.957
39784W        W 5011  42.240  14.185   1.402
39785W        W 5012  44.445  15.766   2.140
39786W        W 5013  42.075  23.250  14.880
39787W        W 5014  36.656  36.871   2.216
39788W        W 5015  42.023  12.205   2.888
39789W        W 5016  22.690  39.900   4.580
39790W        W 5017   9.947   0.192  11.133
39791W        W 5018  38.106   3.014   4.178
39792W        W 5019   1.752  24.488   1.009
39793W        W 5020   0.430  25.352  13.099
39794W        W 5021   7.818  37.474   3.210
39795W        W 5022  14.058   7.229  12.523
39796W        W 5023  38.491  15.668  14.947
39797W        W 5024  32.983  22.212   1.179
39798W        W 5025  44.537  33.142   0.479
39799W        W 5026  12.146  12.745   2.507
39800W        W 5027  34.888   1.939  12.919
39801W        W 5028  18.680   5.205   2.916
39802W        W 5029  24.874  16.258   4.503
39803W        W 5030  15.130  12.743   4.434
39804W        W 5031   9.888  18.614   0.393
39805W        W 5032  29.565   6.660   3.667
39806W        W 5033   8.692  15.082  12.497
39807W        W 5034  16.065   1.009   2.926
39808W        W 5035  31.895  29.195   0.960
39809W        W 5036  30.750  42.945   2.384
39810W        W 5037   0.031  20.437  14.298
39811W        W 5038  42.191  39.844   1.262
39812W        W 5039   6.648  21.713  10.882
39813W        W 5040   2.150  30.564  12.082
39814W        W 5041   2.457  29.999   0.287
39815W        W 5042  17.945  21.235  11.207
39816W        W 5043  33.323  29.522  13.911
39817W        W 5044  40.961  34.297  13.946
39818W        W 5045  28.589  16.702   1.914
39819W        W 5046  33.682   5.471  14.847
39820W        W 5047  31.025  15.613   2.242
39821W        W 5048  18.534  35.937  10.391
39822W        W 5049  39.280  17.433  14.020
39823W        W 5050  30.588  37.612  14.943
39824W        W 5051  14.053  27.269  10.650
39825W        W 5052  14.848  33.601  10.434
39826W        W 5053  29.021  31.560  12.663
39827W        W 5054  36.854  22.478  12.482
39828W        W 5055  34.680  34.548  12.666
39829W        W 5056  43.619  36.843  13.280
39830W        W 5057  34.842   6.833  13.374
39831W        W 5058  15.313  10.229   0.708
39832W        W 5059  35.737  29.104   4.822
39833W        W 5060  28.016  26.886   2.726
39834W        W 5061  31.412   7.354  14.275
39835W        W 5062  36.367  18.236  10.830
39836W        W 5063   7.693  25.444   3.713
39837W        W 5064  12.318  30.178   3.099
39838W        W 5065  37.524  17.546  13.717
39839W        W 5066  37.844  39.570   2.401
39840W        W 5067   2.710  18.737  11.670
39841W        W 5068  28.710  22.641   1.390
39842W        W 5069  40.041  35.168  13.049
39843W        W 5070  44.880  34.790   1.323
39844W        W 5071  33.969  17.705  14.149
39845W        W 5072  37.521  42.538   3.184
39846W        W 5073   4.795  23.570  12.118
39847W        W 5074  43.764   7.140  10.997
39848W        W 5075  36.303   0.898   2.295
39849W        W 5076  16.722   2.313  11.412
39850W        W 5077  15.190  18.204   4.320
39851W        W 5078  30.424  21.095   2.465
39852W        W 5079  22.215  18.263   3.258
39853W        W 5080  26.532   8.480  10.669
39854W        W 5081   7.388   2.828  12.940
39855W        W 5082  42.184  31.142  13.909
39856W        W 5083  32.784  40.886  12.499
39857W        W 5084  32.921  29.685  11.642
39858W        W 5085  12.980  23.637   0.376
39859W        W 5086  27.499  31.990   4.616
39860W        W 5087  39.392  37.258   2.608
39861W        W 5088  22.133  42.604  13.135
39862W        W 5089  30.614  36.056  13.802
39863W        W 5090  11.779   6.726  11.895
39864W        W 5091   5.818  30.072   4.362
39865W        W 5092  27.226   5.781  11.136
39866W        W 5093  10.209  29.901   4.231
39867W        W 5094  36.031  18.006  11.731
39868W        W 5095  39.766  20.177  13.389
39869W        W 5096   9.121  23.098  10.680
39870W        W 5097  41.429  34.004  10.564
39871W        W 5098  44.239   6.672  11.525
39872W        W 5099  35.463   7.135  10.775
39873W        W 5100  28.003   3.739  11.000
39874W        W 5101   0.872   2.794  12.016
39875W        W 5102  35.826   9.930   1.851
39876W        W 5103  15.334  42.389  13.670
39877W        W 5104   9.108  15.665  13.954
39878W        W 5105  38.540  16.403   4.113
39879W        W 5106  15.212   4.684  12.889
39880W        W 5107  32.994  26.538   3.051
39881W        W 5108  17.721   2.735  13.303
39882W        W 5109  21.014   6.814  12.969
39883W        W 5110  28.472   2.187  11.688
39884W        W 5111  30.593  31.674   1.816
39885W        W 5112  37.125  41.780  14.362
39886W        W 5113  38.449  42.550  14.404
39887W        W 5114  38.545  23.041  12.845
39888W        W 5115  21.650  29.530  11.052
39889W        W 5116  29.983  43.556  10.582
39890W        W 5117   0.460   6.603  10.561
39891W        W 5118   6.255  11.786  14.113
39892W        W 5119  34.458  30.896  13.425
39893W        W 5120  38.841  35.880  12.500
39894W        W 5121   6.402  26.570  12.002
39895W        W 5122  16.581   9.566  11.989
39896W        W 5123  16.232  30.916  10.801
39897W        W 5124  15.309   5.244  10.455
39898W        W 5125  31.662   6.656  12.969
39899W        W 5126  42.346  26.083   4.239
39900W        W 5127  22.323  35.936   4.551
39901W        W 5128  18.477  12.125  13.329
39902W        W 5129  20.537   8.969   0.094
39903W        W 5130  14.264  15.713   1.701
39904W        W 5131   9.668  12.644  10.977
39905W        W 5132  11.114  25.014  10.916
39906W        W 5133   3.813  22.245   4.088
39907W        W 5134  26.379  28.472   3.120
39908W        W 5135  34.010  44.793  11.637
39909W        W 5136  42.628   6.372  14.909
39910W        W 5137  37.398   2.887   1.262
39911W        W 5138   3.863   3.991   1.899
39912W        W 5139  10.233  22.274  13.019
39913W        W 5140  25.830   5.496   2.805
39914W        W 5141  19.703   9.841   1.895
39915W        W 5142  36.988  31.234   0.420
39916W        W 5143  10.667  10.891  10.741
39917W        W 5144  10.432  34.098  13.017
39918W        W 5145   2.777  44.316   1.422
39919W        W 5146  16.576  24.470  10.748
39920W        W 5147  16.320  43.041   0.493
39921W        W 5148  30.171  32.555   0.887
39922W        W 5149  32.923  21.740   3.661
39923W        W 5150   5.760   7.238   1.445
39924W        W 5151  20.701  39.655   2.692
39925W        W 5152  32.475  19.353  13.409
39926W        W 5153  30.167   4.737   2.315
39927W        W 5154  43.805   6.334  10.676
39928W        W 5155  13.593  41.962   3.222
39929W        W 5156   1.393  20.877  12.422
39930W        W 5157  18.631  13.572  13.342
39931W        W 5158   5.932  32.338  11.524
39932W        W 5159   7.223  35.020   2.952
39933W        W 5160   9.293  39.404  12.052
39934W        W 5161  23.166  22.509   2.720
39935W        W 5162  25.582  43.786  12.936
39936W        W 5163   8.157  22.965   1.410
39937W        W 5164  22.289  35.881   0.936
39938W        W 5165  35.402  41.710   3.071
39939W        W 5166  41.610  32.532  11.439
39940W        W 5167  14.645   5.551   0.841
39941W        W 5168  11.610   4.268  11.006
39942W        W 5169  12.875  20.543   1.376
39943W        W 5170  31.967  30.580  13.496
39944W        W 5171  30.129  40.348   3.527
39945W        W 5172  35.870  33.090  14.528
39946W        W 5173  16.178  42.625  12.157
39947W        W 5174  34.619   4.333   3.848
39948W        W 5175  41.762   3.537   0.425
39949W        W 5176  41.831  24.603   4.235
39950W        W 5177   3.703  31.204   0.882
39951W        W 5178  39.083  44.475  14.360
39952W        W 5179  39.920  40.082   1.785
39953W        W 5180  42.453   8.884   1.832
39954W        W 5181   3.693   8.886  11.626
39955W        W 5182  15.044  41.510  12.438
39956W        W 5183  30.395   2.930  14.312
39957W        W 5184  20.979  38.997  14.545
39958W        W 5185  35.102  26.217   3.254
39959W        W 5186  17.116  38.964  14.460
39960W        W 5187  40.541  12.641  10.310
39961W        W 5188  17.754  40.308   3.334
39962W        W 5189  36.403  38.934  11.290
39963W        W 5190  41.922  40.857  11.606
39964W        W 5191  11.117   4.910   0.864
39965W        W 5192  20.559  41.721  10.345
39966W        W 5193   1.624   5.815   4.295
39967W        W 5194   8.219  16.272   2.882
39968W        W 5195  29.622  21.462  14.504
39969W        W 5196  31.594  10.879   1.306
39970W        W 5197  21.679  20.708  14.739
39971W        W 5198   3.283  36.548  13.247
39972W        W 5199  36.962   0.257   0.410
39973W        W 5200   5.968   7.278   2.736
39974W        W 5201  22.244   2.815  13.328
39975W        W 5202  41.999  18.414  12.549
39976W        W 5203   3.322  36.517   0.120
39977W        W 5204  41.343  16.337   3.320
39978W        W 5205  36.604  13.817  13.428
39979W        W 5206  18.794   4.194   1.417
39980W        W 5207  22.298  22.324  12.565
39981W        W 5208  28.488  37.847   1.913
39982W        W 5209  23.804  13.725  14.506
39983W        W 5210  15.627  24.832   0.389
39984W        W 5211  23.447  15.335  11.252
39985W        W 5212  23.802  43.960   4.127
39986W        W 5213  37.122   9.978  11.508
39987W        W 5214  19.050  15.375  13.628
39988W        W 5215  28.616  43.573   3.288
39989W        W 5216  43.040  27.856   0.912
39990W        W 5217   3.933  10.623   0.365
39991W        W 5218  23.583   2.817  13.997
39992W        W 5219  28.993  29.832  11.415
39993W        W 5220   3.964   2.064  10.689
39994W        W 5221   4.698  35.054  14.125
39995W        W 5222  38.614  43.964   1.691
39996W        W 5223   6.929  16.797   4.174
39997W        W 5224  24.074  36.065  13.028
39998W        W 5225  17.263  20.590   0.397
39999W        W 5226  13.272  32.542  13.053
40000W        W 5227  19.672  27.791  11.465
40001W        W 5228  38.528   9.692  12.500
40002W        W 5229  43.027   8.139  14.829
40003W        W 5230  18.770   7.449   4.207
40004W        W 5231  27.103   5.409  11.497
40005W        W 5232   0.852  10.741  13.001
40006W        W 5233  23.290  34.945   4.274
40007W        W 5234  43.517  17.327  10.188
40008W        W 5235  37.625  41.782  14.535
40009W        W 5236  33.174  23.926   4.505
40010W        W 5237  29.638  25.633   0.911
40011W        W 5238  15.497  36.475   0.475
40012W        W 5239  34.430  13.263  12.868
40013W        W 5240   5.408  10.160   0.756
40014W        W 5241  33.325   0.104  10.151
40015W        W 5242  17.726  20.334   0.442
40016W        W 5243  38.197  25.628   4.350
40017W        W 5244  18.284  16.037   3.709
40018W        W 5245  15.442  36.098   4.842
40019W        W 5246   6.948  32.920   2.727
40020W        W 5247  44.105   1.175  14.467
40021W        W 5248   3.867   2.523   5.539
40022W        W 5249  11.428  16.686   3.160
40023W        W 5250  40.688  13.128   2.697
40024W        W 5251  31.382   4.857  14.863
40025W        W 5252  21.035  39.280  12.167
40026W        W 5253  30.803  33.410  14.420
40027W        W 5254  23.710  14.340  13.470
40028W        W 5255  42.103  30.094  11.059
40029W        W 5256  33.467  35.383  12.367
40030W        W 5257   2.288   3.458  12.324
40031W        W 5258  24.650   6.157   3.245
40032W        W 5259  37.852  20.734   2.276
40033W        W 5260  42.285   7.380   4.860
40034W        W 5261  40.136  38.509  12.583
40035W        W 5262  44.331  39.647   2.664
40036W        W 5263  22.720  19.545   0.378
40037W        W 5264  37.570   0.850  11.357
40038W        W 5265  37.365  38.296   1.689
40039W        W 5266  17.615  23.914  11.940
40040W        W 5267  21.523  36.610  14.266
40041W        W 5268  24.170  10.623  12.051
40042W        W 5269  22.623  29.363   3.608
40043W        W 5270  43.906  30.437  14.846
40044W        W 5271   4.278   6.201   2.153
40045W        W 5272   5.825  24.666   1.012
40046W        W 5273  36.331   3.696  13.607
40047W        W 5274   9.485  16.650   4.747
40048W        W 5275  38.161  43.940   4.053
40049W        W 5276  25.145   2.572   4.788
40050W        W 5277  12.873  36.637  14.376
40051W        W 5278  29.913   0.857  12.997
40052W        W 5279   1.200   6.402   3.186
40053W        W 5280  31.143  33.927   3.504
40054W        W 5281  19.007  25.213  11.020
40055W        W 5282  42.571  20.838  13.966
40056W        W 5283  21.452  18.751   0.493
40057W        W 5284  43.809  37.563   1.322
40058W        W 5285   3.368   7.614   2.282
40059W        W 5286  35.107  23.376   3.325
40060W        W 5287  16.144  23.259   1.728
40061W        W 5288  33.576   5.882   1.294
40062W        W 5289  43.958   4.950   4.560
40063W        W 5290  27.362  25.541   2.732
40064W        W 5291  37.943  44.635   2.109
40065W        W 5292  28.386  27.598   3.201
40066W        W 5293  22.224  39.323   0.841
40067W        W 5294   9.342  17.863  12.395
40068W        W 5295  43.368  40.961  13.522
40069W        W 5296   5.915  37.485   3.377
40070W        W 5297  17.581  21.452  14.798
40071W        W 5298   9.223  10.154   2.642
40072W        W 5299  33.005  34.248  11.102
40073W        W 5300  28.148   5.980  13.935
40074W        W 5301  28.174  12.051  11.971
40075W        W 5302   2.036  37.829  14.307
40076W        W 5303   2.201  23.756   9.826
40077W        W 5304  13.134  14.506   3.876
40078W        W 5305  22.635  19.987  13.468
40079W        W 5306  16.836  25.614  12.892
40080W        W 5307  19.806  33.856  11.009
40081W        W 5308  34.373  29.506  12.620
40082W        W 5309  15.407  12.683  12.077
40083W        W 5310   5.886   4.766   1.715
40084W        W 5311  42.748  42.654   1.458
40085W        W 5312  36.711  14.794  11.422
40086W        W 5313  26.000  36.992  12.651
40087W        W 5314  18.807  24.216  10.745
40088W        W 5315  37.789  36.397  11.579
40089W        W 5316  28.126  14.265   4.927
40090W        W 5317  14.560   2.823   1.157
40091W        W 5318  40.194   9.686  11.168
40092W        W 5319   1.432  41.183   3.194
40093W        W 5320  27.761  20.589  13.413
40094W        W 5321  14.650   8.191   0.394
40095W        W 5322  24.541  19.175  12.716
40096W        W 5323  27.067  44.485  14.740
40097W        W 5324   3.353  10.189  11.062
40098W        W 5325  12.786  27.403   4.584
40099W        W 5326   6.102  37.452   1.976
40100W        W 5327   7.890  39.835   3.257
40101W        W 5328  17.723  25.095  10.600
40102W        W 5329  29.951  26.505  13.758
40103W        W 5330  31.479  19.794  12.559
40104W        W 5331   3.572  15.981  11.598
40105W        W 5332  19.277  42.969   3.699
40106W        W 5333  42.076  25.498   4.228
40107W        W 5334  35.895  36.909  12.685
40108W        W 5335   0.408   1.087   4.064
40109W        W 5336  27.899  25.045  13.296
40110W        W 5337  19.702  38.715   3.614
40111W        W 5338  24.586  19.417   5.078
40112W        W 5339  34.624  34.622   2.816
40113W        W 5340  20.667  10.309   4.453
40114W        W 5341  38.292   3.692   5.286
40115W        W 5342  39.867   8.376   4.089
40116W        W 5343  41.450  36.784   4.145
40117W        W 5344  33.415  27.829   2.733
40118W        W 5345   3.947  19.260  13.419
40119W        W 5346   3.977  17.640   2.682
40120W        W 5347  19.419  36.918   1.079
40121W        W 5348  26.646  26.923   1.168
40122W        W 5349  25.999   9.299   2.678
40123W        W 5350  35.737  32.541   4.737
40124W        W 5351  24.163  41.532   0.244
40125W        W 5352  16.168  21.774   2.067
40126W        W 5353  15.639  20.175   3.244
40127W        W 5354  19.618  21.243   2.271
40128W        W 5355  33.609  11.513   2.991
40129W        W 5356   8.513  22.149   3.453
40130W        W 5357  21.188  20.276   0.378
40131W        W 5358  38.690   0.347   3.832
40132W        W 5359  44.740   4.817  14.525
40133W        W 5360  32.992  40.807   3.698
40134W        W 5361  25.764  43.485   1.729
40135W        W 5362  31.724  40.928   1.444
40136W        W 5363   0.254  38.029   1.442
40137W        W 5364   9.430  18.832  12.045
40138W        W 5365  35.840  33.301  12.156
40139W        W 5366  42.921   8.615   1.801
40140W        W 5367  21.936  31.373  14.651
40141W        W 5368   7.003  42.375  14.832
40142W        W 5369  22.794  43.591   2.824
40143W        W 5370  41.199  23.519  11.523
40144W        W 5371  19.017  32.907  10.880
40145W        W 5372  21.366   2.935  11.716
40146W        W 5373   3.414  42.568   0.782
40147W        W 5374  40.464  28.627  11.044
40148W        W 5375  14.730   4.701   1.818
40149W        W 5376  16.896  14.221  13.390
40150W        W 5377  24.718  18.626  14.869
40151W        W 5378  30.974  13.042   1.600
40152W        W 5379  31.110   0.593  13.455
40153W        W 5380  42.590  31.990  13.764
40154W        W 5381  30.620  16.804  11.506
40155W        W 5382  16.478  44.529   4.544
40156W        W 5383   8.345  11.639  13.107
40157W        W 5384  25.513  19.017   4.204
40158W        W 5385   1.347  34.422   3.437
40159W        W 5386   9.311  38.607  10.339
40160W        W 5387  26.738  24.660   0.639
40161W        W 5388   6.448  43.132   9.797
40162W        W 5389  11.114  32.222  13.866
40163W        W 5390  33.343   4.482   0.352
40164W        W 5391   8.344   3.743   3.369
40165W        W 5392   0.719  25.788   4.144
40166W        W 5393  23.922  30.583   4.534
40167W        W 5394  11.206   1.228   4.159
40168W        W 5395  27.940  13.280   5.354
40169W        W 5396  30.695  26.434   2.579
40170W        W 5397  32.119  39.164   3.477
40171W        W 5398   2.487  36.525   4.677
40172W        W 5399  26.079  23.076   4.462
40173W        W 5400  33.120   0.670   0.836
40174W        W 5401  33.153  23.607   0.937
40175W        W 5402  19.821   6.865  12.574
40176W        W 5403  10.042  32.338  13.426
40177W        W 5404   6.012   5.379   4.304
40178W        W 5405  26.147   2.853  11.899
40179W        W 5406   1.393  32.802   0.857
40180W        W 5407  12.140   2.240   2.899
40181W        W 5408  26.688  16.528   1.440
40182W        W 5409  39.825  31.073   3.209
40183W        W 5410   9.803   1.053  13.920
40184W        W 5411  24.923   5.794  13.197
40185W        W 5412  21.304  11.759   5.083
40186W        W 5413  37.232  32.345   0.932
40187W        W 5414   3.224  41.120   1.884
40188W        W 5415  24.442  29.833  12.405
40189W        W 5416  37.820  20.857  10.386
40190W        W 5417  15.153  28.475   1.751
40191W        W 5418   2.558  34.264  14.378
40192W        W 5419  15.456  16.247  12.447
40193W        W 5420  32.535  28.006   1.760
40194W        W 5421   0.301   4.893  12.027
40195W        W 5422  24.335  37.075  12.507
40196W        W 5423  17.938  25.733   3.880
40197W        W 5424  38.125  34.610   1.301
40198W        W 5425  16.601   1.787   4.982
40199W        W 5426  14.126  13.996   2.370
40200W        W 5427  44.104   5.157  13.627
40201W        W 5428  31.443  18.493   2.274
40202W        W 5429   0.058  42.600   2.760
40203W        W 5430   7.774   3.165   1.691
40204W        W 5431   7.851   8.901   0.662
40205W        W 5432  18.088   8.166   1.746
40206W        W 5433  13.584  14.808   3.816
40207W        W 5434  29.344  19.731   4.201
40208W        W 5435  38.117  27.587  10.680
40209W        W 5436  29.473  24.382   1.440
40210W        W 5437  36.530  15.048   1.885
40211W        W 5438   7.417  27.066  12.619
40212W        W 5439  24.968  11.101  12.073
40213W        W 5440  15.099  34.449   2.873
40214W        W 5441  44.772  17.229  11.964
40215W        W 5442  33.460  11.819   4.459
40216W        W 5443  44.539  10.275   1.358
40217W        W 5444   6.098  34.176  11.528
40218W        W 5445  22.187   6.222  12.451
40219W        W 5446  29.489  35.752  14.252
40220W        W 5447  13.030  27.174  13.558
40221W        W 5448  40.504  32.506  11.669
40222W        W 5449   7.105   8.050  11.156
40223W        W 5450   7.986   6.252  12.218
40224W        W 5451  24.675  17.706   3.315
40225W        W 5452  29.161  12.775  11.953
40226W        W 5453  40.462  24.748   0.835
40227W        W 5454  37.276  18.160   4.934
40228W        W 5455  35.332  13.146   3.027
40229W        W 5456  31.695  34.484   1.941
40230W        W 5457  35.428  21.461   1.913
40231W        W 5458  29.955  40.772   3.247
40232W        W 5459  37.386  25.135   4.761
40233W        W 5460  16.774   3.676  14.031
40234W        W 5461   1.852  31.428  12.184
40235W        W 5462  38.695  25.973  11.425
40236W        W 5463  22.056  36.504  11.272
40237W        W 5464  36.568  17.597  12.053
40238W        W 5465  21.153  21.440  10.598
40239W        W 5466  39.270  12.159  11.123
40240W        W 5467   7.791   8.481  14.469
40241W        W 5468  37.242   4.575   4.334
40242W        W 5469   3.449  37.435   1.849
40243W        W 5470  37.480  22.494   1.934
40244W        W 5471  12.673   8.287  11.430
40245W        W 5472   9.943  25.678  14.346
40246W        W 5473  40.785  29.303  14.278
40247W        W 5474  13.203  28.498  10.541
40248W        W 5475  42.964  28.584   3.732
40249W        W 5476  31.529  11.583  12.132
40250W        W 5477  34.622   5.397  12.146
40251W        W 5478  33.032   3.486   1.624
40252W        W 5479  31.179   5.854   3.209
40253W        W 5480  42.422  33.882  10.773
40254W        W 5481  32.677   9.132  13.485
40255W        W 5482  10.403  28.436  13.410
40256W        W 5483  35.741  39.343   3.296
40257W        W 5484  43.272  31.372  13.466
40258W        W 5485  30.471  20.372   2.686
40259W        W 5486  19.609  19.677  11.655
40260W        W 5487  42.431  16.262  13.489
40261W        W 5488   7.680  40.989   4.286
40262W        W 5489  25.705   1.919   2.351
40263W        W 5490  15.658  37.385   1.352
40264W        W 5491   0.258  29.602  11.698
40265W        W 5492   4.487  26.252   1.810
40266W        W 5493  18.639  13.231   2.609
40267W        W 5494  33.548  33.405   0.660
40268W        W 5495  36.876   6.797  11.657
40269W        W 5496  26.524   4.772   2.519
40270W        W 5497  44.868  20.001   2.774
40271W        W 5498   1.195   8.976   2.613
40272W        W 5499  38.321  41.894   3.697
40273W        W 5500   9.082  33.918  13.415
40274W        W 5501  40.257  10.928  14.484
40275W        W 5502  24.960  10.199   2.308
40276W        W 5503  10.101  35.317   3.713
40277W        W 5504  42.932  18.664  12.316
40278W        W 5505  24.735  38.834   4.560
40279W        W 5506  13.081  34.117   0.787
40280W        W 5507   6.521  25.047   0.875
40281W        W 5508   3.972  26.252   1.674
40282W        W 5509  35.976  21.198  12.639
40283W        W 5510   2.280  44.399   2.295
40284W        W 5511  10.214  29.047  14.628
40285W        W 5512  38.070  40.748  11.617
40286W        W 5513  37.215  32.230  14.635
40287W        W 5514  35.002  40.489   1.821
40288W        W 5515  40.668  30.426   3.244
40289W        W 5516  27.983   2.396  14.501
40290W        W 5517  28.236  10.355  10.703
40291W        W 5518  44.083   5.437   4.627
40292W        W 5519  36.050  43.535  14.030
40293W        W 5520  29.198  35.289  11.577
40294W        W 5521  43.898  29.545  11.186
40295W        W 5522  32.341  19.318   1.507
40296W        W 5523  13.850  19.590   3.803
40297W        W 5524  11.416  20.739   1.425
40298W        W 5525  24.696  23.521  13.031
40299W        W 5526   6.735  32.868   1.292
40300W        W 5527  26.112  11.699  13.951
40301W        W 5528  42.394   4.006  10.759
40302W        W 5529  34.407  39.742  13.149
40303W        W 5530   8.061  29.881  13.456
40304W        W 5531   7.639  29.130   0.960
40305W        W 5532  40.251  41.128   1.591
40306W        W 5533  25.582   4.700   4.040
40307W        W 5534  18.613  27.495   1.186
40308W        W 5535  35.129  28.134  13.940
40309W        W 5536  38.859  17.583   3.815
40310W        W 5537  26.391  24.804  11.516
40311W        W 5538   4.334   3.424   3.720
40312W        W 5539  43.649  15.496   4.678
40313W        W 5540  15.765  13.460  11.537
40314W        W 5541   9.449  30.078  13.906
40315W        W 5542   3.814   9.977   4.599
40316W        W 5543  44.211  30.082   1.474
40317W        W 5544  24.637  41.971  12.879
40318W        W 5545  11.651  23.736   1.041
40319W        W 5546  29.898  11.580   1.547
40320W        W 5547  24.586  35.675  10.677
40321W        W 5548  35.643  31.519  12.182
40322W        W 5549   1.900  37.830  11.079
40323W        W 5550   0.478  40.146   1.348
40324W        W 5551  38.995  34.897  14.878
40325W        W 5552  34.999  36.314  11.448
40326W        W 5553   6.725  17.086  11.954
40327W        W 5554  41.493  43.608   3.284
40328W        W 5555  14.234   6.008   3.677
40329W        W 5556   2.406  43.198   2.466
40330W        W 5557   1.181  33.001   4.219
40331W        W 5558   5.124   6.473  12.142
40332W        W 5559  32.440   7.904   2.863
40333W        W 5560  44.916   7.335   2.606
40334W        W 5561   5.338  26.321   5.112
40335W        W 5562  17.735  29.899   1.717
40336W        W 5563   7.922  29.104  10.012
40337W        W 5564   9.101   5.902   2.346
40338W        W 5565  33.668  22.635  10.617
40339W        W 5566  33.981  32.362  10.994
40340W        W 5567  37.550  28.100   0.170
40341W        W 5568  27.054  16.748   3.729
40342W        W 5569   9.296  25.219  10.709
40343W        W 5570  12.558  40.000   2.281
40344W        W 5571  29.918   0.051   2.551
40345W        W 5572  28.448  24.726  14.477
40346W        W 5573  34.244   6.867  11.123
40347W        W 5574  40.543   2.338  14.573
40348W        W 5575  34.979  39.513  12.044
40349W        W 5576  16.795  27.895  11.179
40350W        W 5577  20.699  27.685  12.562
40351W        W 5578  11.703   1.697  12.153
40352W        W 5579  33.609   8.153  11.171
40353W        W 5580  39.924  27.313  12.938
40354W        W 5581  13.366  42.102   0.282
40355W        W 5582  20.605  33.337   0.945
40356W        W 5583  42.299  12.870   3.685
40357W        W 5584  37.337  15.698   1.797
40358W        W 5585  31.589  39.517   4.127
40359W        W 5586  24.149  17.744   4.025
40360W        W 5587  33.309   7.952  13.696
40361W        W 5588   8.923  42.314  12.548
40362W        W 5589  26.442  32.256   2.192
40363W        W 5590   7.157  39.841   3.671
40364W        W 5591  37.755  31.910   1.470
40365W        W 5592  30.498   8.771  13.890
40366W        W 5593  19.768   0.310   5.144
40367W        W 5594   5.157   2.566   0.413
40368W        W 5595  31.525  18.784   0.828
40369W        W 5596   3.532  13.182   0.361
40370W        W 5597  17.149  26.795   2.914
40371W        W 5598  12.218  12.241  10.617
40372W        W 5599  22.148  13.552   1.690
40373W        W 5600   0.788   2.230  14.518
40374W        W 5601  14.231  31.004   3.356
40375W        W 5602  18.321  12.403   1.555
40376W        W 5603   7.154  29.700   1.423
40377W        W 5604  21.734  43.233  13.462
40378W        W 5605  11.598  16.377  12.031
40379W        W 5606  26.535  18.304   1.563
40380W        W 5607  44.445   0.273   1.270
40381W        W 5608   7.944  12.300  14.516
40382W        W 5609  37.069  31.467  12.028
40383W        W 5610  17.780  39.625  13.547
40384W        W 5611  29.129  34.142  14.939
40385W        W 5612  23.681   3.251  10.883
40386W        W 5613   9.669   3.806  12.239
40387W        W 5614   8.031   1.196   0.209
40388W        W 5615  12.145   6.818   2.454
40389W        W 5616   8.952  22.303   3.689
40390W        W 5617  37.657  44.057   3.179
40391W        W 5618   4.321  35.572   1.924
40392W        W 5619  23.718  35.940   1.469
40393W        W 5620  12.440   4.307  14.521
40394W        W 5621  28.048  22.627  14.734
40395W        W 5622  44.760  41.449   1.314
40396W        W 5623  34.027   3.304  12.077
40397W        W 5624   7.891  36.605  14.358
40398W        W 5625  34.070  38.134  11.562
40399W        W 5626  21.840  43.879   2.745
40400W        W 5627  27.618  24.498   1.127
40401W        W 5628   9.201  42.412  11.171
40402W        W 5629  13.636   5.225  10.981
40403W        W 5630  43.275  18.764   0.751
40404W        W 5631  15.064  17.782   3.998
40405W        W 5632   1.810   3.739  11.599
40406W        W 5633   7.332   1.469  12.092
40407W        W 5634  43.454  25.544  14.366
40408W        W 5635   4.937  30.687   2.875
40409W        W 5636  36.459  40.842   4.557
40410W        W 5637  16.429  31.160   1.678
40411W        W 5638   5.196  30.997   0.856
40412W        W 5639  24.474   1.363  13.801
40413W        W 5640  36.699  25.595  12.467
40414W        W 5641   0.119  44.142   9.719
40415W        W 5642  33.792   8.954  11.988
40416W        W 5643  42.068   4.273  14.913
40417W        W 5644  27.068  16.305  14.240
40418W        W 5645  26.023  42.577  11.105
40419W        W 5646  25.410  32.083   0.800
40420W        W 5647  38.839  14.594  13.534
40421W        W 5648  16.126  12.130   3.624
40422W        W 5649  38.777  41.426  14.955
40423W        W 5650  12.175   5.900  13.477
40424W        W 5651  15.469  38.882   3.657
40425W        W 5652  44.927  16.815  14.395
40426W        W 5653  22.531  43.561  11.656
40427W        W 5654  29.194  15.807   4.538
40428W        W 5655  15.554  17.213   0.760
40429W        W 5656  11.346  33.469   0.244
40430W        W 5657  25.874  39.924  14.973
40431W        W 5658   8.769  12.617   1.417
40432W        W 5659  16.570  44.584   3.649
40433W        W 5660   7.330   9.323  13.619
40434W        W 5661  30.620  39.764   0.095
40435W        W 5662   2.937   3.279   0.886
40436W        W 5663  31.492  38.102   5.348
40437W        W 5664  36.625  20.715   4.568
40438W        W 5665   8.728  13.179  13.678
40439W        W 5666   8.333  13.334  13.409
40440W        W 5667  23.004  27.891  12.481
40441W        W 5668  37.212  43.619   4.034
40442W        W 5669  38.322  11.760   1.264
40443W        W 5670  28.557   4.823   1.453
40444W        W 5671  26.204  35.562  12.078
40445W        W 5672  44.922   2.645   4.359
40446W        W 5673  39.772   0.161  14.075
40447W        W 5674   0.389  31.318  11.039
40448W        W 5675  24.662  24.051  13.537
40449W        W 5676   8.262  16.136   1.421
40450W        W 5677  15.734  33.361  13.462
40451W        W 5678  30.476  24.518  11.270
40452W        W 5679   8.643  12.746  12.773
40453W        W 5680  12.186   4.316   3.502
40454W        W 5681  31.653  12.331   0.223
40455W        W 5682   7.585  39.232   0.811
40456W        W 5683  39.607  32.699   2.805
40457W        W 5684   8.551  24.155  12.596
40458W        W 5685  35.843  21.570   3.639
40459W        W 5686  11.262  44.901  13.408
40460W        W 5687  32.016  29.373  13.023
40461W        W 5688   0.486  38.751  14.978
40462W        W 5689   2.811  27.024  14.881
40463W        W 5690  41.012   2.153   1.492
40464W        W 5691   7.449  37.053   2.287
40465W        W 5692  35.581  31.912   4.685
40466W        W 5693  31.386  18.239   1.817
40467W        W 5694  31.891   7.170  14.268
40468W        W 5695  31.215  21.665   0.398
40469W        W 5696  37.799  31.918   1.995
40470W        W 5697  20.740  42.949  12.111
40471W        W 5698  17.121  36.504   1.279
40472W        W 5699  34.138   0.342   4.203
40473W        W 5700  16.666  10.749   2.708
40474W        W 5701  42.952  10.064  10.668
40475W        W 5702  17.477  33.697  11.064
40476W        W 5703   6.486   8.876  13.089
40477W        W 5704   6.644  28.676   1.923
40478W        W 5705  35.552   6.262   1.959
40479W        W 5706  11.926   7.007   0.456
40480W        W 5707  29.492  18.975  13.490
40481W        W 5708   8.921  35.407   1.870
40482W        W 5709   1.699  31.471  11.686
40483W        W 5710  27.694   1.349  11.361
40484W        W 5711   3.074  18.176   0.805
40485W        W 5712  44.389  25.918  13.429
40486W        W 5713  14.185  29.124   1.282
40487W        W 5714  10.478  41.579  12.026
40488W        W 5715  39.876  34.446  12.048
40489W        W 5716  41.933  37.887   3.657
40490W        W 5717  42.955  15.992  11.068
40491W        W 5718   6.273  22.607  14.311
40492W        W 5719  39.557   3.728   1.789
40493W        W 5720  31.005   9.376  13.016
40494W        W 5721  30.380  40.207  14.879
40495W        W 5722  16.566  35.330   1.808
40496W        W 5723   9.808  33.440  12.056
40497W        W 5724  24.548  44.963   0.847
40498W        W 5725   0.972   9.552  14.362
40499W        W 5726  41.561  19.102  13.219
40500W        W 5727  36.983   4.400  13.476
40501W        W 5728  41.229   0.358   2.680
40502W        W 5729  23.142   2.530  10.694
40503W        W 5730  18.539  38.832   5.176
40504W        W 5731   5.215   0.146  11.843
40505W        W 5732   3.391   4.579   2.365
40506W        W 5733   9.543   8.810   2.699
40507W        W 5734  28.617  44.963  12.282
40508W        W 5735  29.638  16.640  12.439
40509W        W 5736  16.843  25.450  12.401
40510W        W 5737  24.304   1.796  11.964
40511W        W 5738  22.606  21.491  12.658
40512W        W 5739   8.826  30.632  11.091
40513W        W 5740  24.213  31.808   0.382
40514W        W 5741   3.496  15.834   4.691
40515W        W 5742  29.018  43.470  10.730
40516W        W 5743  22.583  25.991  13.360
40517W        W 5744  10.631  11.663  14.185
40518W        W 5745  28.414   7.832  13.028
40519W        W 5746  18.577   4.627   0.485
40520W        W 5747  26.472  21.099  14.586
40521W        W 5748  44.324   9.662   1.905
40522W        W 5749  28.499  14.887  12.176
40523W        W 5750   1.831  15.386  11.598
40524W        W 5751  35.481  12.773  14.859
40525W        W 5752   4.200  40.839   2.782
40526W        W 5753   6.818   6.817  11.592
40527W        W 5754  35.287  12.108  14.379
40528W        W 5755  43.223  20.532  13.378
40529W        W 5756  28.101  20.775   0.762
40530W        W 5757   1.479   9.748   0.473
40531W        W 5758  11.694  30.736  14.060
40532W        W 5759  29.111  30.036   1.471
40533W        W 5760  35.147  17.248  13.437
40534W        W 5761   0.216  35.405  12.327
40535W        W 5762  32.675   8.323  12.077
40536W        W 5763  19.508  16.228   3.052
40537W        W 5764  41.281  28.950   4.046
40538W        W 5765  38.908  31.661  11.638
40539W        W 5766   6.894  13.760  11.152
40540W        W 5767  35.209   1.561   5.084
40541W        W 5768   9.293  41.110  13.469
40542W        W 5769   7.838  25.450   2.799
40543W        W 5770  27.425  41.606   0.442
40544W        W 5771  42.293  12.369  14.408
40545W        W 5772  44.991   6.795  10.673
40546W        W 5773   1.726  36.331   0.995
40547W        W 5774  19.710   1.528  11.580
40548W        W 5775  19.248  21.974   3.322
40549W        W 5776   9.199   7.937   4.797
40550W        W 5777  22.829  39.292  11.619
40551W        W 5778  34.966  30.010   4.300
40552W        W 5779  36.296  17.218  10.152
40553W        W 5780   9.057  11.848  11.078
40554W        W 5781  40.898  25.156   2.189
40555W        W 5782   8.647  34.506  14.622
40556W        W 5783  44.297  43.810   2.497
40557W        W 5784  24.398  21.527  14.473
40558W        W 5785   7.050  28.454   1.720
40559W        W 5786  30.389  29.008   3.191
40560W        W 5787   8.855  32.611  11.723
40561W        W 5788  23.305  24.134   4.260
40562W        W 5789   2.435  26.192  12.020
40563W        W 5790  32.372  24.227   2.833
40564W        W 5791  20.819  21.569   3.670
40565W        W 5792  28.161  22.787  12.800
40566W        W 5793  22.529  16.161   1.355
40567W        W 5794  17.814  18.492  14.203
40568W        W 5795  27.624  31.977  14.364
40569W        W 5796  43.412  33.344  14.530
40570W        W 5797  42.817   4.813   1.301
40571W        W 5798  16.625  36.503  11.325
40572W        W 5799  24.045  23.134   4.715
40573W        W 5800  23.917  19.462   2.989
40574W        W 5801  31.170  16.923  13.591
40575W        W 5802  21.337   6.697   2.181
40576W        W 5803  26.081  32.472  14.774
40577W        W 5804  33.067  26.197   1.071
40578W        W 5805  41.521   9.376   4.122
40579W        W 5806  17.729   8.695   3.664
40580W        W 5807   8.793  13.761  11.950
40581W        W 5808  35.533  39.501  12.131
40582W        W 5809  14.615  35.315   2.914
40583W        W 5810  23.184  31.909  14.431
40584W        W 5811  15.183  10.646  11.617
40585W        W 5812  40.596  17.250   4.159
40586W        W 5813   6.683  40.529   1.636
40587W        W 5814  13.678  19.253  12.590
40588W        W 5815  20.511  42.246  10.490
40589W        W 5816  19.919  14.233  10.376
40590W        W 5817  19.040  14.400   4.881
40591W        W 5818  35.557  34.582   3.927
40592W        W 5819  12.894   9.086  14.481
40593W        W 5820   7.250   0.907   0.248
40594W        W 5821  37.326   1.773   4.147
40595W        W 5822   2.802  18.047  13.033
40596W        W 5823   5.179  19.542  14.969
40597W        W 5824  38.465  24.727   0.273
40598W        W 5825  31.127  29.966   4.881
40599W        W 5826  17.164  21.257   4.969
40600W        W 5827  30.429  20.263  14.692
40601W        W 5828  35.046   7.110   0.372
40602W        W 5829   6.353  33.858   0.836
40603W        W 5830  24.037   8.632   3.696
40604W        W 5831  24.978  19.097  12.452
40605W        W 5832  33.287  29.901   0.920
40606W        W 5833  10.227  27.419  12.169
40607W        W 5834   2.249  12.737   0.423
40608W        W 5835   5.190  27.431  13.990
40609W        W 5836  21.821   0.541   0.868
40610W        W 5837   3.869  31.221  14.762
40611W        W 5838  18.180   2.741   4.752
40612W        W 5839  32.705  26.358   3.594
40613W        W 5840  22.651  33.204  14.333
40614W        W 5841   0.240  28.675  11.217
40615W        W 5842  34.610  31.873  14.968
40616W        W 5843   7.294  39.335   3.555
40617W        W 5844  40.460  39.300   4.675
40618W        W 5845  35.480  32.115  13.391
40619W        W 5846   8.143   9.098  14.839
40620W        W 5847  12.212   4.463  14.954
40621W        W 5848  39.629   5.486  10.693
40622W        W 5849   7.837  12.267  13.634
40623W        W 5850  39.554  18.067   0.521
40624W        W 5851  27.673   0.407  14.281
40625W        W 5852  14.571   1.972   0.757
40626W        W 5853   8.161  39.444  12.852
40627W        W 5854  20.797   9.360   1.368
40628W        W 5855  35.284  44.081  12.497
40629W        W 5856  35.103  26.679  13.014
40630W        W 5857  10.440  17.805   3.296
40631W        W 5858  35.472  38.898   3.206
40632W        W 5859  33.982   8.853  14.707
40633W        W 5860   4.078  26.923  11.187
40634W        W 5861   1.301  37.797  14.777
40635W        W 5862  18.081  20.038   3.281
40636W        W 5863  30.033  31.596  11.588
40637W        W 5864  26.976   7.343  10.975
40638W        W 5865  20.985  11.091   3.975
40639W        W 5866  13.045   3.662   0.345
40640W        W 5867  22.778  25.101  12.862
40641W        W 5868  40.299  44.845   2.631
40642W        W 5869  11.391  29.499  11.743
40643W        W 5870  34.680  41.404  11.471
40644W        W 5871  14.275  41.313   0.570
40645W        W 5872  40.949  37.583   2.343
40646W        W 5873  31.458  15.438  10.790
40647W        W 5874  32.659  22.282  13.044
40648W        W 5875  17.512   6.137  12.578
40649W        W 5876  44.227  30.177   3.157
40650W        W 5877   2.551  38.475   5.041
40651W        W 5878  20.195  35.780   2.735
40652W        W 5879  22.260  24.477   0.711
40653W        W 5880  19.992  25.009  13.318
40654W        W 5881  17.534  16.064  14.479
40655W        W 5882  26.114  33.552   4.787
40656W        W 5883  41.969  32.082   0.808
40657W        W 5884  22.887  18.310   4.062
40658W        W 5885  26.885   2.738   3.329
40659W        W 5886  42.475  44.011  11.890
40660W        W 5887  37.938  15.455   3.032
40661W        W 5888   3.295   3.117   2.506
40662W        W 5889  16.145  18.732   9.735
40663W        W 5890  39.294  17.396   1.833
40664W        W 5891   4.025  36.725   0.824
40665W        W 5892  30.658  36.365  14.480
40666W        W 5893  18.778  34.002  10.641
40667W        W 5894  39.967  37.565  12.449
40668W        W 5895   2.283  40.434   2.868
40669W        W 5896   0.222  38.186   4.683
40670W        W 5897  38.317  14.920   5.209
40671W        W 5898  35.833   5.780  11.094
40672W        W 5899  19.688  13.812   2.345
40673W        W 5900  26.814  40.985   4.040
40674W        W 5901  29.478   4.279   1.179
40675W        W 5902  18.706  10.172  11.135
40676W        W 5903  27.618  14.607  11.222
40677W        W 5904  29.626  41.098   4.057
40678W        W 5905  34.076   8.128  11.900
40679W        W 5906  39.118   5.911   0.455
40680W        W 5907  42.943  40.332  11.879
40681W        W 5908  15.114  41.572  13.462
40682W        W 5909  25.940  17.092  11.185
40683W        W 5910   4.039  17.642   2.157
40684W        W 5911  39.564   0.819   2.367
40685W        W 5912   3.268  18.203   4.318
40686W        W 5913   4.997  42.281   4.104
40687W        W 5914  32.518  30.737   2.356
40688W        W 5915   2.761  40.926   2.076
40689W        W 5916  39.261   6.552   2.803
40690W        W 5917  41.761  25.590  13.024
40691W        W 5918  40.803  19.402  10.210
40692W        W 5919  43.761  20.623   0.854
40693W        W 5920   1.002   5.885   3.189
40694W        W 5921  18.240  19.576  13.580
40695W        W 5922   8.091  15.265  14.451
40696W        W 5923   3.295  11.779   2.314
40697W        W 5924   4.851  34.066   2.828
40698W        W 5925  30.408  19.174   1.835
40699W        W 5926   3.502  26.633   5.073
40700W        W 5927  33.110  26.028  10.813
40701W        W 5928  11.881  17.734   3.851
40702W        W 5929  14.666  41.308  14.769
40703W        W 5930   4.693  43.407  14.291
40704W        W 5931  35.533   9.765  10.673
40705W        W 5932  25.626  27.979   3.225
40706W        W 5933   0.985  42.888  14.030
40707W        W 5934  31.276  20.347   1.798
40708W        W 5935  11.466  18.251   1.445
40709W        W 5936  37.835   7.091  10.220
40710W        W 5937  31.797  33.991  14.919
40711W        W 5938  26.290  18.845  12.468
40712W        W 5939   4.697  29.664   0.979
40713W        W 5940  38.953  13.583  11.634
40714W        W 5941  23.410   6.750   0.357
40715W        W 5942  13.147  34.100   3.306
40716W        W 5943  14.448  10.424  11.366
40717W        W 5944  40.512  38.769  12.358
40718W        W 5945  34.580  18.008   1.326
40719W        W 5946  19.603  27.060  10.743
40720W        W 5947  22.282  32.581   3.844
40721W        W 5948  28.846  17.312   2.741
40722W        W 5949  40.017  17.777   2.732
40723W        W 5950  32.131  33.057   2.802
40724W        W 5951  17.047   2.342   3.115
40725W        W 5952  39.345  24.954   1.174
40726W        W 5953  23.603  36.349  10.756
40727W        W 5954   4.701   5.824  13.432
40728W        W 5955  42.987  29.773   2.310
40729W        W 5956   9.187  17.696  12.876
40730W        W 5957  20.993  18.404  12.936
40731W        W 5958  27.276  10.131  13.925
40732W        W 5959   5.481  16.789   4.124
40733W        W 5960  44.390  40.453   3.151
40734W        W 5961  14.650   0.165   5.005
40735W        W 5962  42.719  16.514   3.881
40736W        W 5963   8.909  11.285   3.595
40737W        W 5964  22.728   4.503   2.456
40738W        W 5965  32.519  38.592   3.223
40739W        W 5966   8.358  36.947   4.814
40740W        W 5967  24.167  35.450  14.739
40741W        W 5968  25.029  36.039  11.713
40742W        W 5969  37.814  19.673  14.444
40743W        W 5970  28.103  36.006  11.489
40744W        W 5971  25.591   9.645   0.774
40745W        W 5972   4.728  35.407  11.553
40746W        W 5973  28.078  32.023  11.109
40747W        W 5974  34.954  42.416  14.275
40748W        W 5975  34.658  37.605  11.607
40749W        W 5976   1.422  11.378   2.277
40750W        W 5977  25.681  19.252  11.950
40751W        W 5978  42.424  20.531   0.412
40752W        W 5979  16.072  20.366  10.712
40753W        W 5980  33.970  15.628   0.287
40754W        W 5981  25.051  24.696   3.382
40755W        W 5982   5.355  33.003   1.435
40756W        W 5983   1.862  17.106   0.242
40757W        W 5984  44.063  15.364  14.398
40758W        W 5985  36.566  18.476  13.048
40759W        W 5986  21.701  27.467  10.633
40760W        W 5987  24.144  32.971  12.215
40761W        W 5988  25.862  15.478  13.931
40762W        W 5989  37.994  15.061  10.417
40763W        W 5990  33.617  19.407   0.241
40764W        W 5991  24.431  27.847   5.027
40765W        W 5992   5.148  42.072  14.838
40766W        W 5993  12.801  40.093  11.670
40767W        W 5994  24.395   0.952   0.883
40768W        W 5995  30.167   2.229  13.927
40769W        W 5996  40.977  14.575  14.806
40770W        W 5997  39.536  24.056  10.681
40771W        W 5998   6.744  37.047  12.090
40772W        W 5999  34.765  18.695   3.824
40773W        W 6000  18.664  40.673  13.942
40774W        W 6001   8.409  18.189  14.047
40775W        W 6002  40.385  42.718   2.131
40776W        W 6003  12.259  38.166   0.575
40777W        W 6004  37.023  26.465   3.843
40778W        W 6005  20.195  17.173  12.133
40779W        W 6006  33.099  39.042  13.091
40780W        W 6007   3.305  35.527  14.751
40781W        W 6008  31.004  13.297  13.280
40782W        W 6009  40.272  32.621   4.258
40783W        W 6010   8.718  19.638   2.617
40784W        W 6011  25.932  11.226   2.911
40785W        W 6012  35.832  35.882  12.476
40786W        W 6013  18.650   1.198   4.967
40787W        W 6014   3.216  20.583   4.456
40788W        W 6015  31.077   4.699  13.032
40789W        W 6016  35.095  42.923   3.268
40790W        W 6017  31.070  30.933  12.846
40791W        W 6018  41.457  44.328  13.078
40792W        W 6019  27.480  33.017   0.919
40793W        W 6020  10.371  41.041   1.975
40794W        W 6021   8.339  39.266  14.897
40795W        W 6022  31.034  37.521   0.715
40796W        W 6023   5.274  13.619   4.026
40797W        W 6024  27.332  38.563   2.808
40798W        W 6025  42.271  25.988   4.751
40799W        W 6026  43.514  33.354   2.729
40800W        W 6027  20.304  38.500   2.351
40801W        W 6028   2.101  36.140  14.786
40802W        W 6029   6.406  24.886  12.552
40803W        W 6030  13.462  42.875  14.833
40804W        W 6031  15.149  23.256  12.477
40805W        W 6032   3.911  29.697  12.088
40806W        W 6033  14.248  20.686   4.162
40807W        W 6034  12.403   9.874  14.396
40808W        W 6035  15.364  12.420  13.056
40809W        W 6036  35.912  40.781   3.199
40810W        W 6037  37.838  18.805  13.074
40811W        W 6038  22.520  17.372  11.767
40812W        W 6039  27.915  15.734   3.228
40813W        W 6040  44.507  34.092   1.800
40814W        W 6041  39.470  43.127  11.268
40815W        W 6042  29.537  14.766  13.383
40816W        W 6043  40.693  26.296  12.471
40817W        W 6044  12.270   2.961  11.873
40818W        W 6045  17.288  27.520  10.785
40819W        W 6046  35.660  17.784   4.029
40820W        W 6047   0.523  32.993   1.161
40821W        W 6048   5.421  17.390  11.064
40822W        W 6049   9.965  20.107  14.510
40823W        W 6050  41.083  26.012   2.264
40824W        W 6051  16.104  10.379  12.102
40825W        W 6052  41.309  38.381  14.776
40826W        W 6053  37.277  33.349   1.829
40827W        W 6054  31.218   2.188   3.629
40828W        W 6055  29.030  41.223  14.337
40829W        W 6056  41.594   9.450   4.996
40830W        W 6057   9.751  39.363  12.359
40831W        W 6058  34.089  14.818  10.742
40832W        W 6059  16.081  21.820  10.693
40833W        W 6060  36.133  10.952   3.266
40834W        W 6061  11.681  20.548  13.471
40835W        W 6062  12.049   7.328  11.136
40836W        W 6063  28.930  25.510  14.406
40837W        W 6064  16.707  34.026  10.752
40838W        W 6065  19.234   0.877   4.225
40839W        W 6066  28.533  25.209  11.145
40840W        W 6067  15.563  24.211   1.680
40841W        W 6068  20.955  19.827  12.745
40842W        W 6069  22.596  30.749   1.224
40843W        W 6070  12.844   0.390  13.989
40844W        W 6071   2.522  20.273  11.128
40845W        W 6072  28.548   4.743  14.958
40846W        W 6073   6.885  36.406  10.789
40847W        W 6074  16.069  18.183   0.434
40848W        W 6075  18.627  24.353  14.214
40849W        W 6076  22.589  27.729   2.380
40850W        W 6077  27.445   4.430  11.094
40851W        W 6078  44.931  27.542  12.050
40852W        W 6079  40.124  22.247  11.585
40853W        W 6080  11.843  30.974   4.125
40854W        W 6081  16.276  13.094  11.411
40855W        W 6082   9.604  25.273  14.274
40856W        W 6083  33.221  18.748   2.873
40857W        W 6084  12.958  30.243   1.025
40858W        W 6085  40.229  33.458   2.651
40859W        W 6086  11.545  12.656  10.150
40860W        W 6087  36.847  38.389   1.515
40861W        W 6088  35.823   2.843  12.042
40862W        W 6089   2.672  15.181  12.414
40863W        W 6090  32.156  12.953   2.361
40864W        W 6091  27.689  28.647   4.132
40865W        W 6092   3.136  16.168   2.269
40866W        W 6093  23.514  35.233   3.861
40867W        W 6094  35.746  27.660  11.865
40868W        W 6095  18.110  13.643  11.575
40869W        W 6096   2.529  22.065   4.542
40870W        W 6097  38.211   3.331   9.749
40871W        W 6098  42.022   9.379   3.211
40872W        W 6099  30.300   5.969  13.574
40873W        W 6100  31.046  36.340   2.918
40874W        W 6101  20.526  21.036  12.149
40875W        W 6102  39.556   0.090   3.233
40876W        W 6103  16.290  30.225  12.473
40877W        W 6104  11.819  36.124  11.290
40878W        W 6105   9.682  44.775  13.417
40879W        W 6106  13.504  33.400  13.915
40880W        W 6107  23.979  40.408  12.982
40881W        W 6108  22.552   5.655   4.125
40882W        W 6109  17.793  12.849  10.507
40883W        W 6110  36.545  38.917   2.815
40884W        W 6111   7.311   5.200  13.278
40885W        W 6112  44.324  17.064   0.586
40886W        W 6113   1.737   2.401  11.080
40887W        W 6114  16.933  29.953  14.515
40888W        W 6115  39.993  33.487   3.980
40889W        W 6116   8.392  19.512  13.300
40890W        W 6117  41.849  26.871   4.499
40891W        W 6118  10.361   5.852   3.263
40892W        W 6119  10.038  40.567  13.703
40893W        W 6120  19.528  27.495   4.286
40894W        W 6121  36.810  10.823  13.434
40895W        W 6122  12.626  31.390   4.110
40896W        W 6123  22.468  42.339   3.363
40897W        W 6124  41.955   5.658  12.474
40898W        W 6125  35.194   3.713  13.069
40899W        W 6126  27.758  33.963   2.280
40900W        W 6127   2.475  37.297  12.281
40901W        W 6128  43.211   1.077   2.481
40902W        W 6129  13.376  23.683   4.724
40903W        W 6130   7.288  28.015  11.038
40904W        W 6131   0.349  15.564   2.291
40905W        W 6132  13.146  32.885  14.412
40906W        W 6133  24.154  44.300  11.535
40907W        W 6134  31.248  36.983   2.644
40908W        W 6135  13.220  24.438   0.261
40909W        W 6136  37.565  43.282  12.084
40910W        W 6137  20.671  43.088  14.846
40911W        W 6138  37.988  43.604   1.990
40912W        W 6139  14.334  42.610   4.655
40913W        W 6140  11.602   3.439   2.135
40914W        W 6141  24.469  26.491   0.023
40915W        W 6142  25.696  27.640  12.989
40916W        W 6143  40.887  20.865  11.031
40917W        W 6144   3.131  12.799   3.577
40918W        W 6145  22.702  36.192   0.959
40919W        W 6146  37.318  12.788  12.575
40920W        W 6147  21.135   1.249  13.118
40921W        W 6148  35.056   9.062  13.416
40922W        W 6149  14.153  12.541   0.351
40923W        W 6150  31.423  20.240   0.019
40924W        W 6151  43.728   3.516   4.089
40925W        W 6152  11.022  13.862  10.791
40926W        W 6153   4.406  20.062  10.732
40927W        W 6154  20.701  42.776   4.104
40928W        W 6155  13.819  21.015  14.285
40929W        W 6156  30.136   9.265   1.993
40930W        W 6157  15.490  25.907  13.892
40931W        W 6158  31.842  21.849  10.945
40932W        W 6159  14.531   7.163  11.029
40933W        W 6160   8.553  12.203  12.110
40934W        W 6161   2.207  43.893   2.134
40935W        W 6162   0.621  20.920  14.880
40936W        W 6163  15.647  25.139   1.479
40937W        W 6164   8.886   4.893   4.402
40938W        W 6165  29.339  36.607  12.453
40939W        W 6166  23.087  40.580  14.451
40940W        W 6167  25.093  12.391  12.986
40941W        W 6168  42.253  33.109  13.392
40942W        W 6169  42.506  39.332  12.916
40943W        W 6170  24.241  28.323   4.209
40944W        W 6171  44.891  34.002   0.900
40945W        W 6172   0.662  31.728  11.822
40946W        W 6173  38.451   5.177   2.009
40947W        W 6174  32.111  43.299   0.365
40948W        W 6175  36.904  31.889   4.529
40949W        W 6176  16.725  10.877   4.609
40950W        W 6177  41.970  24.902  11.677
40951W        W 6178  44.625  24.489   2.283
40952W        W 6179  43.818  27.398   4.197
40953W        W 6180  33.126   9.281  11.579
40954W        W 6181  34.581  34.645  13.150
40955W        W 6182  27.552   1.408   1.976
40956W        W 6183  26.699  17.072  10.731
40957W        W 6184   1.235  24.598   2.764
40958W        W 6185  29.347  23.633  10.542
40959W        W 6186  15.921  44.979   4.045
40960W        W 6187  18.788   7.225  14.034
40961W        W 6188   2.750  20.848  13.566
40962W        W 6189  13.859  37.557  12.939
40963W        W 6190  41.024  44.695   0.658
40964W        W 6191  16.606  29.902  13.979
40965W        W 6192  35.082   5.144  12.048
40966W        W 6193  41.239  21.767   2.738
40967W        W 6194  17.060  40.999  13.937
40968W        W 6195  10.427  18.865  13.559
40969W        W 6196  14.299  14.190   2.861
40970W        W 6197  29.533  21.007   9.862
40971W        W 6198   2.982  26.189  14.950
40972W        W 6199  21.165  27.724  13.484
40973W        W 6200   6.338  34.197  13.357
40974W        W 6201  20.572  23.706   0.292
40975W        W 6202  37.884   4.826   3.291
40976W        W 6203  35.751  38.497   2.379
40977W        W 6204   8.962  44.824   1.763
40978W        W 6205   1.344  22.580   0.207
40979W        W 6206   6.251  13.233   3.401
40980W        W 6207   6.352   4.792  11.996
40981W        W 6208  22.221  28.198  10.671
40982W        W 6209  42.462  34.432  14.684
40983W        W 6210  26.992  17.610  13.678
40984W        W 6211  16.638  37.630   3.069
40985W        W 6212  22.496  30.037  10.905
40986W        W 6213  26.912  17.774   0.758
40987W        W 6214  40.189  25.284   0.805
40988W        W 6215  40.955  18.051   3.074
40989W        W 6216  30.841  14.685  11.413
40990W        W 6217  22.018  10.820  14.056
40991W        W 6218   5.402  22.142  10.285
40992W        W 6219   7.802  33.992   0.641
40993W        W 6220  12.666  26.354  14.893
40994W        W 6221  26.111  26.487  13.853
40995W        W 6222  40.525  33.815  14.796
40996W        W 6223  34.158  25.124  12.558
40997W        W 6224  24.961  29.168  13.786
40998W        W 6225  40.024  21.045   3.101
40999W        W 6226  20.140  41.774  13.928
41000W        W 6227  39.542  19.688   4.858
41001W        W 6228  35.760  23.498  12.972
41002W        W 6229  21.561  24.898   4.984
41003W        W 6230  28.479  22.428   0.350
41004W        W 6231  39.757   7.550   3.634
41005W        W 6232  23.753  40.879  12.855
41006W        W 6233   2.673   7.210   0.538
41007W        W 6234  37.010  35.063  12.497
41008W        W 6235   6.035  22.025  13.168
41009W        W 6236   2.721  11.271  10.520
41010W        W 6237  37.094  32.498  11.472
41011W        W 6238  33.661  25.658  14.494
41012W        W 6239  29.987   5.808  10.499
41013W        W 6240  11.735  35.502   2.780
41014W        W 6241   1.874  18.747   4.378
41015W        W 6242  43.483   2.992  13.510
41016W        W 6243  15.404   2.397  11.002
41017W        W 6244  20.336  25.757   1.308
41018W        W 6245  30.162  32.907  14.783
41019W        W 6246   2.984  24.894  11.872
41020W        W 6247  21.267  44.704  14.388
41021W        W 6248  16.700  14.082   0.858
41022W        W 6249  30.974  35.860  11.425
41023W        W 6250  36.586  38.026  13.826
41024W        W 6251   9.387  10.949   2.228
41025W        W 6252  17.679  20.425  14.932
41026W        W 6253   2.739   3.684   3.429
41027W        W 6254  27.901  42.836   3.069
41028W        W 6255  34.166  11.090  10.174
41029W        W 6256  16.085  41.834   0.752
41030W        W 6257   0.345  37.898  13.937
41031W        W 6258  15.146  10.362   1.556
41032W        W 6259   5.821   2.502  11.671
41033W        W 6260  34.469  13.239  13.667
41034W        W 6261  39.818   2.862   0.874
41035W        W 6262  22.553  14.449  12.113
41036W        W 6263  23.619  25.426   1.796
41037W        W 6264  24.574   2.554   3.035
41038W        W 6265  28.370  11.121   4.543
41039W        W 6266  19.525  15.703  12.924
41040W        W 6267  31.034   4.123   1.875
41041W        W 6268  25.528  35.390   2.258
41042W        W 6269  17.630  19.896   2.183
41043W        W 6270  17.735  29.623  14.166
41044W        W 6271  42.472  13.738   1.432
41045W        W 6272  43.969  37.256  10.801
41046W        W 6273  44.169  26.479  10.833
41047W        W 6274   2.317  37.897  11.658
41048W        W 6275  32.325  39.594  10.533
41049W        W 6276   6.483  25.246  10.697
41050W        W 6277  25.159  37.677   1.365
41051W        W 6278   2.249  23.605  11.523
41052W        W 6279  44.731  25.058  11.319
41053W        W 6280  36.806  20.258   3.730
41054W        W 6281   2.296  19.663  14.310
41055W        W 6282  41.228  24.136   5.030
41056W        W 6283  41.464  24.865   4.564
41057W        W 6284  25.452  10.327   2.169
41058W        W 6285   9.088  38.368  11.991
41059W        W 6286  20.659  17.977   1.354
41060W        W 6287   1.700  22.537   1.636
41061W        W 6288  37.664   3.420   3.525
41062W        W 6289   7.264   9.164   3.990
41063W        W 6290  33.513  15.982  11.681
41064W        W 6291   8.602  35.095  13.552
41065W        W 6292  14.195  16.566  14.530
41066W        W 6293  17.897   9.990   1.737
41067W        W 6294  37.886  16.485  10.667
41068W        W 6295  30.650  13.299   2.798
41069W        W 6296  27.278   7.664  13.215
41070W        W 6297  12.220  34.354  11.145
41071W        W 6298  35.314   7.743  12.583
41072W        W 6299  27.852  21.141  14.003
41073W        W 6300  37.346  40.612   4.582
41074W        W 6301  14.045   8.430  11.185
41075W        W 6302   9.758  22.507   4.217
41076W        W 6303  27.660   8.201   4.499
41077W        W 6304  19.183  34.832   1.933
41078W        W 6305  28.602  40.994  10.612
41079W        W 6306  22.481  38.527  12.027
41080W        W 6307  12.263  32.386   1.996
41081W        W 6308   8.726  22.706  14.399
41082W        W 6309  37.551  24.580  10.750
41083W        W 6310   7.200  12.215   3.933
41084W        W 6311   7.663   5.282  11.223
41085W        W 6312   5.809  38.480   4.177
41086W        W 6313   7.528  24.139   3.557
41087W        W 6314  22.877  30.533  12.229
41088W        W 6315  42.629   3.305   3.135
41089W        W 6316   8.197   8.435   1.366
41090W        W 6317  40.947  18.118   1.033
41091W        W 6318  18.190  30.448   2.343
41092W        W 6319  15.357  30.392  11.800
41093W        W 6320   0.285   1.859   3.743
41094W        W 6321  27.487  35.789   2.508
41095W        W 6322  15.641   1.860  11.901
41096W        W 6323   1.836  31.919   2.736
41097W        W 6324  13.833  19.834  10.760
41098W        W 6325   0.411   2.918  10.593
41099W        W 6326  24.664   2.572   3.951
41100W        W 6327  33.546  41.935   2.124
41101W        W 6328  17.800  38.577   3.695
41102W        W 6329  28.355   5.771   1.188
41103W        W 6330  27.159  42.950  14.299
41104W        W 6331  19.237  27.662  12.074
41105W        W 6332  34.608  15.202   4.558
41106W        W 6333   2.345  40.989  11.182
41107W        W 6334  44.742  25.281   1.866
41108W        W 6335  14.698  39.958   0.514
41109W        W 6336  19.224  11.108  14.038
41110W        W 6337   8.315   1.405  11.088
41111W        W 6338  31.477  44.410   2.927
41112W        W 6339  35.903  26.185   1.882
41113W        W 6340  27.975   1.085   3.155
41114W        W 6341  34.144  37.913   3.940
41115W        W 6342  22.211  25.081   1.803
41116W        W 6343  39.823  16.734  14.059
41117W        W 6344  15.768  17.796   2.687
41118W        W 6345  32.598  29.682  11.230
41119W        W 6346  10.295   9.814   2.157
41120W        W 6347  43.657  25.263  12.945
41121W        W 6348  10.292  20.930  12.467
41122W        W 6349  20.233  35.328   4.239
41123W        W 6350  21.982  24.943  11.140
41124W        W 6351   7.657   4.755  14.881
41125W        W 6352  44.364  39.665  13.314
41126W        W 6353  38.836  30.992  14.489
41127W        W 6354  11.694  26.515   9.867
41128W        W 6355   9.122  38.809   2.379
41129W        W 6356  24.742  11.741  10.718
41130W        W 6357  10.851   2.158   3.178
41131W        W 6358   5.862   2.217   2.764
41132W        W 6359   3.692  35.556   1.342
41133W        W 6360  37.691  12.333   3.374
41134W        W 6361   7.627  29.502   1.657
41135W        W 6362  32.435  43.717   1.538
41136W        W 6363   8.894   1.151   0.887
41137W        W 6364  35.437  31.758   1.906
41138W        W 6365  40.510  21.496  14.315
41139W        W 6366   6.823  37.023  14.147
41140W        W 6367  43.727   8.114   1.258
41141W        W 6368  38.987   2.247  13.411
41142W        W 6369  22.520  35.589   0.129
41143W        W 6370  34.420   1.691  13.805
41144W        W 6371  34.462  20.778  13.796
41145W        W 6372  22.482  31.428  14.773
41146W        W 6373   5.451  33.899   1.458
41147W        W 6374  14.537  43.427   2.605
41148W        W 6375  15.507  26.972   1.742
41149W        W 6376  24.374  22.129  11.127
41150W        W 6377  38.060  31.948   0.693
41151W        W 6378  31.024   1.856   2.276
41152W        W 6379  27.660  22.604   3.556
41153W        W 6380  24.557  32.780   3.508
41154W        W 6381  18.075  26.029  14.368
41155W        W 6382  27.426  20.038   0.004
41156W        W 6383   8.887  39.870   1.993
41157W        W 6384   9.361  12.862   0.851
41158W        W 6385  32.458  20.062  14.693
41159W        W 6386   0.229   9.256   4.135
41160W        W 6387  34.410  22.435  14.550
41161W        W 6388  12.569  42.817   1.422
41162W        W 6389  24.133  26.248  13.150
41163W        W 6390  18.219  43.341  12.080
41164W        W 6391   4.379  16.167  11.476
41165W        W 6392  23.470  31.289  14.842
41166W        W 6393  15.717   3.585   3.202
41167W        W 6394   8.431  13.667  14.386
41168W        W 6395  16.071  44.875   0.171
41169W        W 6396   8.092  23.773   4.216
41170W        W 6397   3.497  37.523  14.448
41171W        W 6398  24.524  10.341   3.691
41172W        W 6399  15.126  25.166   1.648
41173W        W 6400  42.721  37.343   2.599
41174W        W 6401   5.926  14.349  12.083
41175W        W 6402  32.880   9.899   1.729
41176W        W 6403  36.039  34.565  14.979
41177W        W 6404  10.390  22.009   4.706
41178W        W 6405  16.005  14.457  11.072
41179W        W 6406  32.386  42.241   3.300
41180W        W 6407  19.588  15.570  11.980
41181W        W 6408  35.829  29.790  13.888
41182W        W 6409  40.554  11.900   4.683
41183W        W 6410  13.719  31.848   1.206
41184W        W 6411   4.282  30.434  11.628
41185W        W 6412   1.427  29.867   3.235
41186W        W 6413   5.899  32.670  14.911
41187W        W 6414  23.757  18.218   1.338
41188W        W 6415  18.771   2.151  10.540
41189W        W 6416   3.752  40.384   3.537
41190W        W 6417   2.355  27.597  13.852
41191W        W 6418  27.548  42.047  12.575
41192W        W 6419  16.842   3.512   1.394
41193W        W 6420  23.927   7.421  13.914
41194W        W 6421  11.712   0.872  10.670
41195W        W 6422  19.656  22.751   0.852
41196W        W 6423  15.294  16.582   1.812
41197W        W 6424  18.693  26.597  11.439
41198W        W 6425  43.863  19.292   2.830
41199W        W 6426  27.044  38.806  11.591
41200W        W 6427   8.660  10.568  10.708
41201W        W 6428  21.040  34.395  13.819
41202W        W 6429   7.471  37.025   1.411
41203W        W 6430   7.284   6.888   1.226
41204W        W 6431  43.999  27.174  13.094
41205W        W 6432  26.633  36.806   2.387
41206W        W 6433  32.116  42.557  12.144
41207W        W 6434   9.548  20.566   2.460
41208W        W 6435  34.173  37.896  10.741
41209W        W 6436   0.423  15.064   1.230
41210W        W 6437   0.150  43.571   1.244
41211W        W 6438  29.420  41.968  14.295
41212W        W 6439   2.354  17.721   2.259
41213W        W 6440  25.113  14.338  11.086
41214W        W 6441  18.442  16.363  14.348
41215W        W 6442  35.574  17.582  13.453
41216W        W 6443  33.588  34.039  11.625
41217W        W 6444   0.172   6.929   1.750
41218W        W 6445   9.765  14.618   4.116
41219W        W 6446  10.373  40.880   0.978
41220W        W 6447  15.936   4.485  11.164
41221W        W 6448  34.760  39.569   3.184
41222W        W 6449   1.699   7.761   2.256
41223W        W 6450  24.133  37.926  14.883
41224W        W 6451  43.489   8.023   3.748
41225W        W 6452  23.488  20.796  13.887
41226W        W 6453   5.937  15.752  14.583
41227W        W 6454  16.604  11.102   1.948
41228W        W 6455  22.592  38.968  14.719
41229W        W 6456   4.051  29.660  13.421
41230W        W 6457  31.115   2.131   1.818
41231W        W 6458  16.319  29.626   4.550
41232W        W 6459  20.194  18.582   3.643
41233W        W 6460  28.248   0.906  14.936
41234W        W 6461  17.457   9.718  11.257
41235W        W 6462   0.562  19.860  14.794
41236W        W 6463  25.571  37.728  12.892
41237W        W 6464   2.912  12.251   1.601
41238W        W 6465   7.207  12.248  12.078
41239W        W 6466  17.197  11.413   2.614
41240W        W 6467  22.127   5.338   4.011
41241W        W 6468   2.973  25.185  11.409
41242W        W 6469  29.314  24.029  13.870
41243W        W 6470  26.863  39.775   4.095
41244W        W 6471  35.996  32.874   2.120
41245W        W 6472   7.987  20.216  11.727
41246W        W 6473  18.464  34.968  13.362
41247W        W 6474   7.926  13.250   4.565
41248W        W 6475  31.656  35.562  14.400
41249W        W 6476  33.875  14.236   0.887
41250W        W 6477  41.940  30.404  13.828
41251W        W 6478  40.892  22.413  12.020
41252W        W 6479  26.090  18.630  10.983
41253W        W 6480  14.128  20.571   4.676
41254W        W 6481  26.864   3.736   5.026
41255W        W 6482  16.941  30.495   3.880
41256W        W 6483  26.336  18.474   0.855
41257W        W 6484  41.901  11.647   2.873
41258W        W 6485  25.943  21.893  12.932
41259W        W 6486  12.160  18.617  10.720
41260W        W 6487  10.141  41.758   2.252
41261W        W 6488  24.435  14.601  14.386
41262W        W 6489  11.360  13.334  14.395
41263W        W 6490  23.096  40.102   4.302
41264W        W 6491   7.313  32.894   2.280
41265W        W 6492  23.495  29.032   4.629
41266W        W 6493   4.510  28.470   0.432
41267W        W 6494  10.821  26.376  14.420
41268W        W 6495  29.086  39.472   1.210
41269W        W 6496  32.857   7.438   3.960
41270W        W 6497  44.233  31.896  13.333
41271W        W 6498  44.936  10.614   1.356
41272W        W 6499  35.942  22.500  12.799
41273W        W 6500  11.050  16.338  10.081
41274W        W 6501  26.998  26.065  11.955
41275W        W 6502  16.833  27.632  12.065
41276W        W 6503  24.652  38.613   3.675
41277W        W 6504   2.688  12.773  11.129
41278W        W 6505  34.131   3.845  12.916
41279W        W 6506   5.858  18.378  11.535
41280W        W 6507  19.988  31.901  14.394
41281W        W 6508  12.792  13.036  13.823
41282W        W 6509  17.746  10.534  10.720
41283W        W 6510  18.739   9.231   1.272
41284W        W 6511  33.709  29.419   3.179
41285W        W 6512  15.153  26.452  11.109
41286W        W 6513   6.870  36.586   0.879
41287W        W 6514  11.673  10.841   3.220
41288W        W 6515  21.454  11.165  12.637
41289W        W 6516  32.545  39.713  10.981
41290W        W 6517  33.530  23.130  10.460
41291W        W 6518  40.439   6.128  11.884
41292W        W 6519  35.400   8.591   2.760
41293W        W 6520  26.185  39.376  13.604
41294W        W 6521  30.534   1.634   3.175
41295W        W 6522  40.057  38.360   4.510
41296W        W 6523  23.126  31.116  13.613
41297W        W 6524  39.955  33.950   0.034
41298W        W 6525  29.130  11.108  13.086
41299W        W 6526  18.987   6.094  12.511
41300W        W 6527  43.440   4.223  12.403
41301W        W 6528  40.570  37.427   3.720
41302W        W 6529  43.289  24.723   1.276
41303W        W 6530  26.689  21.705   0.220
41304W        W 6531  40.438  36.607   1.281
41305W        W 6532  14.490   9.901  11.549
41306W        W 6533  21.088  43.776   0.729
41307W        W 6534   2.785  41.721  12.141
41308W        W 6535  10.158  18.264   4.186
41309W        W 6536  28.182  41.813  12.537
41310W        W 6537  21.132  36.268   1.402
41311W        W 6538  21.470  29.709   3.353
41312W        W 6539  21.477   4.870  12.085
41313W        W 6540  38.913  26.149   3.593
41314W        W 6541  13.621  30.226  13.835
41315W        W 6542   6.782  26.337  13.085
41316W        W 6543  37.903   7.746   3.229
41317W        W 6544   4.298  40.334  13.441
41318W        W 6545  42.338  29.616   1.392
41319W        W 6546  40.939  32.944   3.911
41320W        W 6547  20.945  30.996   2.187
41321W        W 6548   4.177  35.555  11.582
41322W        W 6549  19.844  31.839  12.076
41323W        W 6550  10.335  40.427   2.118
41324W        W 6551  18.039  34.059   1.414
41325W        W 6552  16.728  23.646   1.366
41326W        W 6553  44.071  22.130  13.485
41327W        W 6554  44.504  44.228  14.867
41328W        W 6555  39.266   1.595  12.726
41329W        W 6556  32.486  40.433  10.215
41330W        W 6557  22.259   7.680  12.232
41331W        W 6558   9.424  37.312  14.691
41332W        W 6559  34.220  25.378   2.644
41333W        W 6560  24.414  12.309  12.394
41334W        W 6561  14.840   6.897   3.592
41335W        W 6562   9.772   6.751  12.453
41336W        W 6563  27.667  43.876  11.530
41337W        W 6564  35.665  44.878  14.352
41338W        W 6565  30.442  32.113   2.723
41339W        W 6566  44.322  36.856  10.699
41340W        W 6567  37.746  19.513   1.409
41341W        W 6568  28.739   8.618   4.120
41342W        W 6569  38.236  12.681   0.257
41343W        W 6570   6.734   7.722   3.473
41344W        W 6571  13.614  18.553  14.434
41345W        W 6572  31.072   5.568   4.163
41346W        W 6573  38.044   2.444  14.068
41347W        W 6574  20.461  21.101   0.734
41348W        W 6575  23.212   0.184  12.460
41349W        W 6576  15.324  15.185   1.194
41350W        W 6577  36.046  35.107  14.759
41351W        W 6578  23.126  22.787   1.334
41352W        W 6579  26.592  18.280  14.934
41353W        W 6580  20.537  35.935  10.701
41354W        W 6581  34.610  30.722   0.449
41355W        W 6582  25.910  11.810   0.757
41356W        W 6583   6.362  44.972   0.780
41357W        W 6584   4.866  32.303   3.663
41358W        W 6585  14.051  18.662  10.647
41359W        W 6586  34.983  33.572  12.354
41360W        W 6587  15.410  30.455   0.228
41361W        W 6588   5.803  18.037  14.828
41362W        W 6589  27.379  43.419  11.640
41363W        W 6590   4.338  40.581  13.960
41364W        W 6591   2.369  24.534   1.395
41365W        W 6592  22.048   2.992   1.016
41366W        W 6593  21.910  29.443   3.221
41367W        W 6594  39.838  43.485   4.492
41368W        W 6595  29.227  14.246   1.399
41369W        W 6596  23.226   3.421  13.802
41370W        W 6597  14.684  18.847   2.217
41371W        W 6598  34.050  41.063   3.762
41372W        W 6599  41.436  28.482  12.848
41373W        W 6600  39.530   6.340   3.187
41374W        W 6601  24.157  35.117   4.571
41375W        W 6602  38.520  30.935  10.734
41376W        W 6603  15.403  25.595   1.684
41377W        W 6604  24.191  29.222   1.632
41378W        W 6605   0.420  12.925   3.657
41379W        W 6606  25.532  42.795  12.107
41380W        W 6607  36.071  32.540   2.646
41381W        W 6608  10.227   4.989   1.793
41382W        W 6609  34.860  18.700   0.507
41383W        W 6610  20.901  19.963  10.270
41384W        W 6611   8.192   3.340   1.927
41385W        W 6612   9.950  32.259   2.704
41386W        W 6613  44.426  16.112  10.651
41387W        W 6614  17.733  44.863  11.633
41388W        W 6615  17.602   8.417  14.887
41389W        W 6616   4.838  19.469  11.436
41390W        W 6617  11.861  26.729  11.150
41391W        W 6618  35.624   2.878   1.142
41392W        W 6619   7.243  16.954  11.593
41393W        W 6620  18.495   4.116   0.470
41394W        W 6621  14.713  13.260  13.762
41395W        W 6622  10.182  33.598  10.747
41396W        W 6623  34.443   2.221  10.696
41397W        W 6624   0.275  42.566   1.075
41398W        W 6625  18.598  20.261  14.467
41399W        W 6626   2.458  14.511   1.439
41400W        W 6627  28.877   0.043  11.138
41401W        W 6628  39.455  36.832   1.104
41402W        W 6629  32.187  17.676  13.801
41403W        W 6630   5.911  24.281   3.125
41404W        W 6631   0.976   4.071   0.913
41405W        W 6632  38.956  32.442   0.876
41406W        W 6633  24.087   2.061   4.109
41407W        W 6634   0.506   2.465   1.796
41408W        W 6635  17.604   8.127  12.121
41409W        W 6636  32.133  35.765   1.664
41410W        W 6637  33.058  20.189   0.970
41411W        W 6638   3.106  13.728  12.825
41412W        W 6639  44.658  37.435  12.024
41413W        W 6640  33.675  12.251  12.564
41414W        W 6641  36.045  15.185   3.215
41415W        W 6642   4.152  23.271   0.371
41416W        W 6643  12.696  35.735   2.258
41417W        W 6644  21.076  33.588   4.792
41418W        W 6645  13.775  14.997  11.904
41419W        W 6646  43.342  40.796   1.180
41420W        W 6647  19.150  25.911   3.619
41421W        W 6648   1.327  33.277  14.232
41422W        W 6649  24.074   7.289  12.381
41423W        W 6650  22.191   4.064   3.732
41424W        W 6651  23.287  14.229   0.477
41425W        W 6652  44.832  25.938  14.884
41426W        W 6653   0.396  42.429  11.516
41427W        W 6654  27.604   5.231  14.100
41428W        W 6655   5.469  19.854   0.339
41429W        W 6656   9.491  39.866   4.126
41430W        W 6657   6.793  13.042  10.776
41431W        W 6658  25.533  43.271  11.920
41432W        W 6659  34.669  40.390   3.607
41433W        W 6660  35.315  39.372  11.685
41434W        W 6661  25.115  33.489  10.689
41435W        W 6662  14.857   8.257  11.546
41436W        W 6663   0.053  19.177  14.467
41437W        W 6664  25.966  38.534  10.434
41438W        W 6665  25.400  15.694   1.903
41439W        W 6666  43.391  12.859  14.628
41440W        W 6667  20.667   2.857  11.172
41441W        W 6668  11.032   6.131   1.774
41442W        W 6669  20.727  11.126   4.942
41443W        W 6670  29.556  20.742  11.449
41444W        W 6671   7.808  24.934   0.688
41445W        W 6672  31.221   9.023  11.671
41446W        W 6673  12.334  41.298  13.920
41447W        W 6674   9.765  37.773   0.348
41448W        W 6675  20.619  22.103  14.502
41449W        W 6676  37.640  11.903  10.930
41450W        W 6677  23.514  42.696   2.084
41451W        W 6678  31.122  35.798   4.197
41452W        W 6679  38.531   5.755  14.220
41453W        W 6680   5.413  21.547  13.890
41454W        W 6681  33.110  17.145  12.909
41455W        W 6682   5.759  21.174  13.049
41456W        W 6683  12.685  36.345   1.345
41457W        W 6684  23.499  12.380   4.578
41458W        W 6685  11.841   0.422  13.904
41459W        W 6686  40.375   0.309   2.893
41460W        W 6687  34.854  17.178   0.776
41461W        W 6688  19.015   9.745  11.055
41462W        W 6689  27.706  21.682   4.654
41463W        W 6690  38.085  23.718  10.582
41464W        W 6691  11.666  13.364   1.816
41465W        W 6692  34.942  29.432  14.591
41466W        W 6693  34.386   3.635  12.214
41467W        W 6694  42.331  33.609  12.539
41468W        W 6695  38.573   6.893   2.128
41469W        W 6696  23.266  24.461  14.232
41470W        W 6697   7.865  29.233  14.046
41471W        W 6698  35.639  41.008  11.959
41472W        W 6699   0.843   5.238  10.971
41473W        W 6700   5.717   2.648  12.157
41474W        W 6701  27.094  19.733  14.736
41475W        W 6702  13.211  39.401   0.824
41476W        W 6703  37.987  27.478  12.996
41477W        W 6704  10.672  15.279  14.205
41478W        W 6705   3.974  18.006   0.794
41479W        W 6706  26.547  24.929  14.516
41480W        W 6707  34.952   3.266  14.339
41481W        W 6708  44.184  24.067   3.100
41482W        W 6709  40.885  34.517   3.643
41483W        W 6710  26.956  15.331   3.504
41484W        W 6711   3.689  30.564  13.004
41485W        W 6712   4.709   2.912  13.428
41486W        W 6713  41.770  24.371   0.251
41487W        W 6714   2.393  42.405   4.499
41488W        W 6715  24.996  29.685  12.969
41489W        W 6716   1.775  20.020  12.575
41490W        W 6717   2.514  13.155   0.281
41491W        W 6718  33.369  10.710  11.861
41492W        W 6719  34.887  44.915   2.642
41493W        W 6720  35.327  42.912  10.830
41494W        W 6721  37.307  20.855   4.081
41495W        W 6722   1.939  43.308  14.674
41496W        W 6723  24.487  27.221  14.150
41497W        W 6724  43.255  43.859  11.584
41498W        W 6725  28.723  11.185  14.504
41499W        W 6726  11.634  14.625   4.505
41500W        W 6727   1.979  22.163  11.470
41501W        W 6728  13.861  35.485   3.248
41502W        W 6729  26.535  15.385  12.412
41503W        W 6730  12.259  34.086   1.269
41504W        W 6731  38.834  16.842  13.016
41505W        W 6732  35.633  38.592   0.288
41506W        W 6733  32.999  44.000  14.460
41507W        W 6734  33.533  22.256  13.399
41508W        W 6735  36.973  43.542   2.846
41509W        W 6736  11.380   1.810  11.350
41510W        W 6737  32.130  14.796  11.750
41511W        W 6738  31.052  33.192   4.746
41512W        W 6739  39.943  40.505  12.546
41513W        W 6740  12.803   7.165  12.439
41514W        W 6741  10.604  38.151  11.059
41515W        W 6742   4.786  28.067   4.062
41516W        W 6743  41.525  44.290   4.822
41517W        W 6744   9.150  15.523  12.190
41518W        W 6745  44.542  10.224  14.484
41519W        W 6746  13.298  24.273  14.010
41520W        W 6747  16.199   8.711   3.273
41521W        W 6748   7.876  44.306  12.133
41522W        W 6749   4.729  16.747   2.766
41523W        W 6750  10.861  19.175  11.811
41524W        W 6751  38.716  38.998   3.946
41525W        W 6752  17.194  17.163  10.770
41526W        W 6753  30.961  13.563  12.074
41527W        W 6754  18.142  16.250  13.639
41528W        W 6755  26.864  14.611   2.822
41529W        W 6756   0.891   2.915  11.142
41530W        W 6757   2.241  44.571  11.669
41531W        W 6758   9.766  19.721  11.765
41532W        W 6759   6.324  23.649  11.887
41533W        W 6760  29.807  24.713  13.469
41534W        W 6761  40.376  38.856   2.774
41535W        W 6762  40.335  33.893  14.306
41536W        W 6763  25.119   3.823   1.318
41537W        W 6764  37.560  14.062  12.915
41538W        W 6765  44.827  44.053  11.037
41539W        W 6766   7.126  15.057  13.181
41540W        W 6767  10.198  25.131   3.689
41541W        W 6768  10.844  44.057  13.372
41542W        W 6769  33.574  19.814  14.365
41543W        W 6770  34.044  42.885  10.650
41544W        W 6771  40.527  11.634  14.933
41545W        W 6772  36.917   2.510  12.981
41546W        W 6773  38.985  38.295   0.262
41547W        W 6774   2.809  34.406  13.408
41548W        W 6775  11.900  10.065  14.378
41549W        W 6776  21.545  34.748   2.277
41550W        W 6777  11.601  24.515   1.711
41551W        W 6778  33.345  30.544   2.761
41552W        W 6779  23.466  39.271  10.779
41553W        W 6780  34.661  43.615   0.582
41554W        W 6781  28.869  13.764  11.856
41555W        W 6782  22.547  37.563  13.175
41556W        W 6783  24.639  40.782  12.558
41557W        W 6784   8.725  31.113   2.177
41558W        W 6785  32.495   3.315  12.106
41559W        W 6786  10.331  39.351   3.637
41560W        W 6787  12.696  13.196   4.512
41561W        W 6788  17.204  40.877   4.322
41562W        W 6789  29.129  28.607   2.477
41563W        W 6790  21.353  39.449  11.330
41564W        W 6791  34.570  38.305   4.746
41565W        W 6792  19.611  44.712   0.913
41566W        W 6793  36.153  17.153  14.794
41567W        W 6794  31.490  31.504  10.495
41568W        W 6795  33.728  11.389  10.188
41569W        W 6796   7.880  20.107   4.686
41570W        W 6797  27.002  25.811   4.097
41571W        W 6798   9.363  32.195  14.864
41572W        W 6799   5.500  36.383  14.655
41573W        W 6800  23.918  25.954   1.234
41574W        W 6801  13.847  13.489   0.317
41575W        W 6802  42.101   4.399  14.306
41576W        W 6803   9.718   4.940   3.515
41577W        W 6804  32.549   8.293  12.971
41578W        W 6805  22.765  27.505   3.274
41579W        W 6806  34.685   0.389   2.128
41580W        W 6807  31.504  30.160   4.106
41581W        W 6808  31.721   4.888  10.701
41582W        W 6809  26.502   3.661   2.226
41583W        W 6810  29.427  41.321  13.115
41584W        W 6811   4.028  41.650   2.435
41585W        W 6812  12.151  40.011   2.815
41586W        W 6813  44.025   5.244  13.139
41587W        W 6814  13.564   8.855   0.693
41588W        W 6815  15.310  29.446   0.826
41589W        W 6816  44.644  41.460   1.835
41590W        W 6817  41.482  17.555  12.556
41591W        W 6818  18.272   4.661   3.715
41592W        W 6819  44.869  34.392  12.070
41593W        W 6820  20.350  38.399  10.406
41594W        W 6821  17.663  14.314   0.703
41595W        W 6822   6.599  32.523   2.815
41596W        W 6823  26.526  44.073   0.465
41597W        W 6824   9.741  10.380  10.789
41598W        W 6825   4.533  11.876  12.924
41599W        W 6826  44.515   0.812   1.268
41600W        W 6827  28.575  34.495  11.486
41601W        W 6828  22.021  40.709   2.822
41602W        W 6829  21.072  23.852  14.345
41603W        W 6830   3.379  23.115   2.709
41604W        W 6831  22.590  30.033  10.400
41605W        W 6832  32.593   4.242  13.582
41606W        W 6833  32.869   0.300  12.683
41607W        W 6834  11.854  12.309  12.851
41608W        W 6835  10.396  10.664   3.450
41609W        W 6836  18.434  13.857  12.937
41610W        W 6837  21.026   1.577  12.085
41611W        W 6838  32.129  14.371  13.351
41612W        W 6839  30.656  40.512   2.344
41613W        W 6840  32.094  20.557   4.960
41614W        W 6841  39.827  18.795   2.765
41615W        W 6842  23.304  11.624   0.424
41616W        W 6843  42.337  12.564   2.295
41617W        W 6844  38.959  33.521   5.136
41618W        W 6845   6.100  41.273   1.753
41619W        W 6846  17.460  24.287   3.775
41620W        W 6847  43.089   9.855   0.291
41621W        W 6848   9.924   1.321   3.790
41622W        W 6849  14.349   8.349  11.604
41623W        W 6850   5.714  26.953   2.311
41624W        W 6851  18.393  15.220  10.997
41625W        W 6852   0.132   4.721   3.263
41626W        W 6853   2.446  33.814  12.565
41627W        W 6854   1.215  36.372   0.920
41628W        W 6855  18.070  26.984  10.758
41629W        W 6856   6.299  28.896   2.714
41630W        W 6857  38.573  33.789  14.497
41631W        W 6858  19.173   7.304  13.646
41632W        W 6859   6.686  12.040  14.382
41633W        W 6860  14.312  42.762   3.754
41634W        W 6861  30.803  34.540  11.033
41635W        W 6862  10.299  23.181  13.103
41636W        W 6863  25.244  36.133  14.610
41637W        W 6864  25.691   9.533   3.970
41638W        W 6865  12.366   7.728  11.855
41639W        W 6866  29.144  20.569   3.741
41640W        W 6867  33.952  19.778   3.721
41641W        W 6868  22.596  21.475  12.145
41642W        W 6869  25.632  22.939   4.702
41643W        W 6870  30.840  44.318   0.791
41644W        W 6871  37.148  13.681  13.682
41645W        W 6872  26.611  25.180   2.253
41646W        W 6873  37.970  43.808   4.517
41647W        W 6874   8.673  40.018  11.848
41648W        W 6875  39.531  41.084   1.100
41649W        W 6876  29.331   0.650   4.980
41650W        W 6877  10.854   8.745   1.579
41651W        W 6878  28.906  40.350  14.171
41652W        W 6879  27.680  40.839  14.820
41653W        W 6880  19.803   2.330   3.671
41654W        W 6881   2.454  38.280   4.582
41655W        W 6882   7.867  14.803  13.710
41656W        W 6883   8.357  23.255   1.791
41657W        W 6884  38.823  29.051  12.932
41658W        W 6885  40.448  14.900   2.215
41659W        W 6886  40.976  17.481  13.559
41660W        W 6887  43.529   1.620   0.219
41661W        W 6888  39.391  22.159   1.824
41662W        W 6889   9.595  35.037   0.346
41663W        W 6890  19.136  41.471   0.196
41664W        W 6891  12.558  29.100  12.550
41665W        W 6892  20.565  10.195  13.893
41666W        W 6893   6.815  30.396  11.142
41667W        W 6894  11.259  12.142  11.838
41668W        W 6895  28.651   4.496  10.710
41669W        W 6896  28.938   5.355   4.574
41670W        W 6897  20.187  22.972  14.510
41671W        W 6898  32.395  42.985  11.242
41672W        W 6899  25.287  44.351  14.495
41673W        W 6900  25.662   8.191   2.751
41674W        W 6901  19.085  30.536  13.967
41675W        W 6902  44.773   9.782   4.093
41676W        W 6903   4.195  15.043   0.906
41677W        W 6904   0.532  24.944  14.267
41678W        W 6905   4.969   2.334  12.591
41679W        W 6906  27.052  40.312   0.253
41680W        W 6907  20.267  37.510   0.217
41681W        W 6908  41.761   0.426   0.153
41682W        W 6909  38.073  30.594   1.208
41683W        W 6910  14.899   7.686   3.265
41684W        W 6911   3.040  15.602   2.916
41685W        W 6912  43.875  10.617   4.353
41686W        W 6913  44.231  10.592  14.739
41687W        W 6914  26.476  34.960   2.831
41688W        W 6915  42.783   1.719  14.801
41689W        W 6916   5.301  40.598   0.780
41690W        W 6917  21.216  32.956   3.641
41691W        W 6918  28.034  13.131   0.338
41692W        W 6919  12.328   3.974  11.422
41693W        W 6920  13.442  15.623   2.749
41694W        W 6921   6.543  14.664  14.064
41695W        W 6922  35.223  39.404  11.174
41696W        W 6923  30.994  41.710   4.115
41697W        W 6924   9.164  40.096  10.547
41698W        W 6925  41.092  22.016   2.286
41699W        W 6926  30.126   9.669   5.492
41700W        W 6927  10.351  19.645  12.990
41701W        W 6928  12.309  33.699   0.569
41702W        W 6929  30.248  22.900   4.263
41703W        W 6930  26.626  19.601  13.448
41704W        W 6931  18.419  11.919   4.339
41705W        W 6932  10.156  11.732   0.553
41706W        W 6933  12.327  19.643  14.428
41707W        W 6934  35.659  11.347  13.283
41708W        W 6935  44.905   2.781  12.302
41709W        W 6936  38.634  27.412  12.565
41710W        W 6937  31.913  37.105   3.675
41711W        W 6938   0.945   9.641   0.453
41712W        W 6939   2.682  25.983  13.965
41713W        W 6940  14.140  10.401   3.228
41714W        W 6941  37.928  19.368  11.896
41715W        W 6942  33.485  24.086  10.444
41716W        W 6943  13.147   4.220   2.381
41717W        W 6944  44.258  36.585  13.803
41718W        W 6945  19.483  26.579   4.222
41719W        W 6946  16.671  36.117   3.228
41720W        W 6947  29.086  17.224  12.890
41721W        W 6948   0.542  28.616   2.133
41722W        W 6949  28.240  10.407  12.060
41723W        W 6950  19.052  35.430  13.914
41724W        W 6951   8.675  31.284  12.185
41725W        W 6952  41.569  19.513   0.308
41726W        W 6953  16.102  28.966  14.044
41727W        W 6954  22.296  26.971   2.880
41728W        W 6955   6.897  38.500   4.102
41729W        W 6956  35.814  21.987   0.799
41730W        W 6957  38.474  38.856   0.936
41731W        W 6958  17.054   1.960   0.870
41732W        W 6959  24.883  24.590   0.052
41733W        W 6960  24.643  26.643  12.136
41734W        W 6961  25.060  29.398   0.765
41735W        W 6962  34.130  29.722  14.858
41736W        W 6963  43.560  44.083  12.489
41737W        W 6964  12.326  28.593   2.391
41738W        W 6965   3.373   8.460  12.223
41739W        W 6966  34.442  14.696   0.961
41740W        W 6967  26.821  22.590   1.425
41741W        W 6968  31.327  31.581   3.273
41742W        W 6969  27.931  11.995   1.384
41743W        W 6970  25.756  14.072  12.431
41744W        W 6971  37.229  24.044   3.287
41745W        W 6972   4.299  31.291   2.779
41746W        W 6973  24.735   1.763  13.581
41747W        W 6974   6.361   8.346  12.011
41748W        W 6975  19.053   9.127  11.632
41749W        W 6976  25.595  39.239  13.925
41750W        W 6977  44.980  14.040  12.766
41751W        W 6978   3.299  41.324  12.642
41752W        W 6979  28.869  24.995  14.130
41753W        W 6980  42.184  13.834   0.993
41754W        W 6981   0.434  40.848  10.408
41755W        W 6982   4.725  14.385  13.905
41756W        W 6983  22.545  41.992  13.805
41757W        W 6984  30.587  23.300   9.763
41758W        W 6985  26.024  12.042  13.551
41759W        W 6986  22.651  38.642   1.983
41760W        W 6987   2.313  15.289  14.270
41761W        W 6988  21.182  17.353   2.795
41762W        W 6989  30.505  31.160   0.343
41763W        W 6990  34.973  36.574   2.880
41764W        W 6991  15.446  24.618  14.465
41765W        W 6992   5.252   5.078   2.387
41766W        W 6993  27.999  26.592  14.378
41767W        W 6994   6.271  28.234   4.136
41768W        W 6995   7.349  17.621  11.122
41769W        W 6996  10.385  11.417  11.168
41770W        W 6997  17.152  38.145  12.857
41771W        W 6998  29.668  39.872  14.265
41772W        W 6999  43.975  15.284   1.019
41773W        W 7000  24.288  38.360   4.074
41774W        W 7001  15.782  21.288  14.464
41775W        W 7002   0.383   9.586   2.812
41776W        W 7003  11.613  34.928   3.168
41777W        W 7004  23.071   7.434   0.889
41778W        W 7005  41.557   8.872  14.100
41779W        W 7006  32.012   2.167  11.217
41780W        W 7007  38.021  42.122  12.381
41781W        W 7008  23.987  24.620   0.599
41782W        W 7009  43.977   2.460  13.972
41783W        W 7010  13.716  20.364  11.696
41784W        W 7011  36.558  41.040   9.661
41785W        W 7012  18.229  30.518   0.876
41786W        W 7013   4.232  30.512   1.530
41787W        W 7014  10.135  22.763   2.184
41788W        W 7015   0.790  10.374  12.056
41789W        W 7016  41.000  14.006   3.656
41790W        W 7017  44.285  37.834   1.336
41791W        W 7018  18.845  25.511   0.468
41792W        W 7019   5.227  16.444  11.173
41793W        W 7020  34.320  31.669  12.891
41794W        W 7021   7.324  33.461  13.470
41795W        W 7022  17.948   3.348  13.313
41796W        W 7023   5.521  14.815  14.070
41797W        W 7024   7.442  26.679  14.140
41798W        W 7025  43.737  38.907   2.874
41799W        W 7026  31.430  10.010   1.881
41800W        W 7027   3.659  15.489  11.479
41801W        W 7028  41.075  29.140   3.582
41802W        W 7029   6.301  13.779   0.155
41803W        W 7030  16.275   7.819   4.124
41804W        W 7031  18.822  33.483  11.569
41805W        W 7032   7.841  44.576   4.240
41806W        W 7033  43.612  34.821  14.239
41807W        W 7034  42.513   6.803   3.679
41808W        W 7035  31.897  25.057   2.104
41809W        W 7036  18.308  33.657  11.575
41810W        W 7037  44.738   4.261  14.284
41811W        W 7038  41.583  35.475  12.120
41812W        W 7039   2.439  19.185  13.393
41813W        W 7040  24.252  30.323  12.569
41814W        W 7041  31.475  17.782   0.704
41815W        W 7042  16.248  13.916   2.819
41816W        W 7043  42.536  15.031  12.946
41817W        W 7044  41.296  16.873   3.696
41818W        W 7045  29.378  13.851   3.501
41819W        W 7046  35.065  43.986   3.100
41820W        W 7047   3.433  13.351   2.290
41821W        W 7048  33.626  43.979  10.744
41822W        W 7049  24.146  16.625   3.864
41823W        W 7050  26.325  30.408  14.921
41824W        W 7051  41.082  17.241   2.850
41825W        W 7052  11.183  33.365   1.792
41826W        W 7053  17.657   3.602  14.340
41827W        W 7054   6.181  22.711  14.795
41828W        W 7055  27.138  11.778  13.592
41829W        W 7056   9.212  44.065  14.481
41830W        W 7057  12.285  43.552  11.531
41831W        W 7058  30.669  39.730   1.410
41832W        W 7059  40.021  43.264   1.299
41833W        W 7060  42.879  26.203  10.914
41834W        W 7061   8.346  24.854   4.806
41835W        W 7062   8.466  37.943  13.093
41836W        W 7063  14.335  44.362  11.585
41837W        W 7064  44.272   7.145   4.190
41838W        W 7065  33.965  15.340   3.184
41839W        W 7066  10.091  16.908  12.356
41840W        W 7067  24.587   4.712  14.029
41841W        W 7068  44.623  18.209  14.383
41842W        W 7069  17.542  44.596   2.975
41843W        W 7070   1.411  40.307  14.492
41844W        W 7071  33.518  30.790   1.282
41845W        W 7072  24.753  20.527  14.391
41846W        W 7073  18.064  40.431   0.202
41847W        W 7074   7.151   7.440   4.184
41848W        W 7075  33.650  37.870   0.440
41849W        W 7076   7.207  36.292  11.213
41850W        W 7077  17.213  14.145   0.867
41851W        W 7078  18.875  44.282  10.796
41852W        W 7079  24.728  16.847  11.195
41853W        W 7080  21.346   4.737   1.158
41854W        W 7081  30.167  41.821  14.052
41855W        W 7082   6.067  44.723  14.355
41856W        W 7083  13.276   2.737   2.421
41857W        W 7084  23.616  26.259  14.859
41858W        W 7085   4.917  14.757  10.334
41859W        W 7086  21.512  37.489  14.333
41860W        W 7087  16.250  13.618  11.597
41861W        W 7088  22.174  18.859   0.995
41862W        W 7089   4.180  17.005  12.972
41863W        W 7090  16.756  10.273  14.467
41864W        W 7091  19.254   3.331  10.600
41865W        W 7092  26.709  25.187  11.672
41866W        W 7093   4.447  28.189  12.361
41867W        W 7094  27.227  42.088  13.829
41868W        W 7095  23.806  44.325   5.398
41869W        W 7096  36.024  42.073   3.711
41870W        W 7097  11.382  10.322  12.948
41871W        W 7098  25.733  19.656   0.385
41872W        W 7099  22.276   1.895  13.356
41873W        W 7100  42.919  36.880  14.842
41874W        W 7101  42.903  26.126   1.411
41875W        W 7102  19.153  31.488  10.440
41876W        W 7103   7.787  43.221  13.937
41877W        W 7104  16.323  44.752  13.409
41878W        W 7105  14.715  44.502  12.489
41879W        W 7106  35.582  39.559  13.488
41880W        W 7107  27.809   7.369  13.531
41881W        W 7108  25.629  21.070  12.391
41882W        W 7109  34.322   0.696  13.997
41883W        W 7110  27.637  17.798   4.838
41884W        W 7111  25.911  24.488  14.945
41885W        W 7112   3.630   7.706  12.454
41886W        W 7113  23.568  26.983   4.700
41887W        W 7114  11.706   2.548   4.216
41888W        W 7115  11.083  22.983  14.454
41889W        W 7116  40.403   5.238  12.094
41890W        W 7117  19.251  31.530  12.362
41891W        W 7118  39.934  27.281   2.734
41892W        W 7119  39.946  24.864  11.661
41893W        W 7120  36.884  14.238   4.712
41894W        W 7121  40.746   3.800  13.458
41895W        W 7122  33.663  28.586   3.241
41896W        W 7123  34.569  11.868   2.174
41897W        W 7124  30.528  30.368   2.246
41898W        W 7125  38.257   2.805   4.615
41899W        W 7126  21.272  13.716   3.968
41900W        W 7127   0.655  26.383  13.164
41901W        W 7128  21.666   1.198  12.446
41902W        W 7129  42.639  10.131   4.162
41903W        W 7130  13.968  33.554   4.052
41904W        W 7131  15.659  34.668  14.777
41905W        W 7132  10.034  10.646   1.768
41906W        W 7133  38.941   5.388  14.339
41907W        W 7134  21.186  37.601   4.533
41908W        W 7135   9.655  13.716   4.123
41909W        W 7136  42.483  35.535  14.529
41910W        W 7137  24.105   5.198  13.431
41911W        W 7138  17.488  28.851  13.714
41912W        W 7139  29.249  35.401   4.202
41913W        W 7140  23.684  37.362   0.329
41914W        W 7141  42.201  18.757   3.239
41915W        W 7142  12.272  34.126   2.746
41916W        W 7143   4.427  32.635  11.186
41917W        W 7144  42.969  38.637  14.902
41918W        W 7145  43.790  26.994   1.852
41919W        W 7146  27.572  30.589   3.527
41920W        W 7147  32.016  22.190  11.933
41921W        W 7148  30.494  42.418   3.738
41922W        W 7149  31.469  32.355  12.004
41923W        W 7150  29.098  14.342   2.846
41924W        W 7151  44.810  18.254  13.271
41925W        W 7152  44.240  37.862   5.248
41926W        W 7153  11.742  16.646  13.342
41927W        W 7154  28.112  39.498   3.208
41928W        W 7155  14.497  11.595  11.187
41929W        W 7156  23.631  17.725   1.525
41930W        W 7157   2.913  18.333  10.766
41931W        W 7158  32.640  19.699  10.666
41932W        W 7159  44.887  33.414  10.578
41933W        W 7160   1.647  20.792  14.216
41934W        W 7161  34.631  21.217   0.013
41935W        W 7162   1.857  21.217   0.352
41936W        W 7163  19.665  33.071   3.692
41937W        W 7164  12.175  22.483   1.939
41938W        W 7165   4.256  25.992   3.883
41939W        W 7166  42.556  24.496  11.031
41940W        W 7167   8.094   4.271   1.695
41941W        W 7168  28.241  15.459  12.127
41942W        W 7169  42.354  18.276   2.383
41943W        W 7170  19.081  27.264   4.423
41944W        W 7171  21.569  40.559  14.708
41945W        W 7172  12.348  22.118   2.260
41946W        W 7173  20.100  24.927  12.815
41947W        W 7174  32.193  23.699  11.901
41948W        W 7175  36.406   3.815   2.237
41949W        W 7176  22.439   9.767  14.721
41950W        W 7177   3.637  11.393   1.305
41951W        W 7178  23.633  19.028  13.423
41952W        W 7179  22.060  13.338   5.041
41953W        W 7180   7.631  17.631   2.341
41954W        W 7181   5.795  25.990   3.598
41955W        W 7182  32.260  38.627   5.411
41956W        W 7183  10.985   3.831   4.524
41957W        W 7184  28.404  26.136  10.587
41958W        W 7185   5.751  29.031   3.222
41959W        W 7186  25.791  20.895  10.672
41960W        W 7187  30.370  21.945  11.113
41961W        W 7188   0.385  24.315  11.205
41962W        W 7189  33.840   2.869   0.796
41963W        W 7190  42.478  24.499  10.481
41964W        W 7191  12.463  18.736   4.225
41965W        W 7192  38.496   7.197  14.300
41966W        W 7193  10.829  42.554  12.086
41967W        W 7194  18.454  40.813   0.289
41968W        W 7195  25.556  44.728  13.325
41969W        W 7196   9.739  17.014   2.546
41970W        W 7197  38.520  24.164   4.666
41971W        W 7198  22.615  34.005  13.208
41972W        W 7199  25.591  41.327  10.679
41973W        W 7200  41.566  43.867  12.865
41974W        W 7201  43.357  34.267   0.970
41975W        W 7202  30.810   1.990   2.719
41976W        W 7203  29.527  34.350  12.513
41977W        W 7204   2.704  15.286  10.687
41978W        W 7205  28.017   5.205  14.416
41979W        W 7206  43.057  25.622   1.320
41980W        W 7207  31.416   1.179   3.283
41981W        W 7208   7.691   3.175   0.786
41982W        W 7209  18.299  36.491  13.959
41983W        W 7210   8.862   1.891  10.619
41984W        W 7211  17.649  21.067  12.538
41985W        W 7212  14.010  39.144   0.473
41986W        W 7213  13.235   4.380   1.077
41987W        W 7214  37.412  23.105  10.695
41988W        W 7215  27.956   7.209   3.654
41989W        W 7216  41.322  11.256   3.919
41990W        W 7217  41.409  13.243  12.573
41991W        W 7218  14.862  14.831   4.213
41992W        W 7219  28.947  19.778  13.734
41993W        W 7220  13.573   6.183   5.045
41994W        W 7221  36.038  13.744   3.263
41995W        W 7222   3.478   0.463   2.574
41996W        W 7223  11.829   8.822   3.600
41997W        W 7224   2.771  30.142  13.607
41998W        W 7225  23.742   9.960  11.078
41999W        W 7226  26.702  40.405   3.640
42000W        W 7227  17.756  10.075   4.192
42001W        W 7228  13.736  32.488  13.327
42002W        W 7229  33.832  44.918   4.195
42003W        W 7230  35.876  20.937  13.108
42004W        W 7231  31.594  33.952  12.960
42005W        W 7232  12.723   1.835  11.610
42006W        W 7233  37.881   5.302   2.706
42007W        W 7234   6.825   5.883   4.750
42008W        W 7235  35.601  19.826  11.539
42009W        W 7236  13.539  43.873  14.423
42010W        W 7237  43.746  34.154   4.655
42011W        W 7238  39.983  12.879   3.131
42012W        W 7239   3.236  15.154  11.557
42013W        W 7240  25.523   7.619  10.290
42014W        W 7241   0.999  29.129   1.009
42015W        W 7242  12.532  29.097  11.619
42016W        W 7243  12.631  41.295  13.463
42017W        W 7244  18.126  14.007  12.531
42018W        W 7245   8.207  40.000  11.612
42019W        W 7246  34.092  39.152   3.799
42020W        W 7247  35.954  10.633   4.843
42021W        W 7248  19.976   5.219  10.721
42022W        W 7249  12.029  20.667   0.383
42023W        W 7250  26.796  11.604   5.316
42024W        W 7251  31.651  36.976  11.236
42025W        W 7252  39.595  27.420  10.728
42026W        W 7253  30.566  11.296  11.074
42027W        W 7254  31.771  17.768   3.673
42028W        W 7255  33.384  35.341   0.493
42029W        W 7256   9.297  31.280   2.937
42030W        W 7257   8.918   5.976   3.275
42031W        W 7258   3.350  30.896  13.478
42032W        W 7259  30.094  41.256   2.708
42033W        W 7260   1.086  23.647   2.280
42034W        W 7261   9.808  17.661  12.379
42035W        W 7262   1.921   7.508   2.841
42036W        W 7263  36.958  36.585   2.519
42037W        W 7264   0.714  41.036  11.248
42038W        W 7265  17.787  10.918  11.574
42039W        W 7266  19.119  24.155   4.748
42040W        W 7267   1.273  30.527   0.469
42041W        W 7268  33.367  43.291   4.772
42042W        W 7269   6.702  44.997   0.276
42043W        W 7270   9.280  27.658  14.400
42044W        W 7271  37.985  41.939  14.904
42045W        W 7272  28.175   9.828  11.267
42046W        W 7273   9.457  39.487  13.372
42047W        W 7274  34.184  42.788  14.885
42048W        W 7275  27.149  42.762   1.198
42049W        W 7276  12.095  20.710  12.224
42050W        W 7277   3.940  40.528   4.334
42051W        W 7278  25.026  43.496  14.082
42052W        W 7279  34.123  18.304   0.830
42053W        W 7280   2.246   5.957  10.758
42054W        W 7281  40.062  28.189  13.495
42055W        W 7282  26.204  14.173   0.687
42056W        W 7283   4.323  22.512   1.039
42057W        W 7284  31.203  18.029   1.125
42058W        W 7285   0.599  23.676   5.030
42059W        W 7286   3.856  41.246   2.727
42060W        W 7287  18.364  27.020  14.370
42061W        W 7288  15.075  24.559   3.250
42062W        W 7289   9.292  16.360   1.279
42063W        W 7290   4.332  19.196   4.973
42064W        W 7291  20.346   0.877   0.647
42065W        W 7292  39.374  18.310  14.787
42066W        W 7293  38.152  25.060   2.766
42067W        W 7294  19.576  44.791  13.119
42068W        W 7295  18.103  31.719   4.057
42069W        W 7296  22.197  41.697   2.858
42070W        W 7297  29.096  39.278  11.374
42071W        W 7298  12.349  33.607  13.062
42072W        W 7299   1.459  26.088   1.805
42073W        W 7300  28.644  29.080  12.114
42074W        W 7301  35.941  24.993   3.617
42075W        W 7302  17.160  41.636   1.652
42076W        W 7303  13.336  11.668  13.773
42077W        W 7304  40.038  11.863  14.910
42078W        W 7305  26.270   3.294  14.365
42079W        W 7306  38.885   4.448   3.748
42080W        W 7307  17.736  17.013   3.136
42081W        W 7308  14.825  17.715   2.233
42082W        W 7309  44.923  18.366  12.347
42083W        W 7310  40.086   5.388  14.659
42084W        W 7311  30.115  37.386  14.289
42085W        W 7312   4.222  25.804   1.761
42086W        W 7313  34.660  40.851   3.330
42087W        W 7314  10.073  44.930   1.256
42088W        W 7315  44.865  40.784  11.070
42089W        W 7316   7.856  42.233  12.103
42090W        W 7317  27.410  10.718   2.391
42091W        W 7318  14.570   7.336   3.747
42092W        W 7319  24.382  23.584   4.384
42093W        W 7320  26.052   7.424  13.142
42094W        W 7321   2.317   3.131  11.052
42095W        W 7322  29.915  30.898   2.709
42096W        W 7323  34.063  31.709   0.720
42097W        W 7324   5.858  17.980   0.849
42098W        W 7325  28.101  21.171  12.057
42099W        W 7326  22.904  41.885   4.585
42100W        W 7327  22.531  33.664   2.713
42101W        W 7328  22.623  38.081  13.297
42102W        W 7329  39.102   2.376   2.826
42103W        W 7330  32.207   9.313   3.422
42104W        W 7331  13.458  25.743   1.178
42105W        W 7332  10.422  38.930   1.987
42106W        W 7333   5.281  44.477  14.521
42107W        W 7334  41.212  11.876  10.848
42108W        W 7335  36.309  36.448  14.970
42109W        W 7336  43.872  29.153  10.832
42110W        W 7337  12.061   7.174   4.709
42111W        W 7338  37.263   7.659   2.428
42112W        W 7339   1.831  19.762   9.858
42113W        W 7340  25.542  39.283   2.264
42114W        W 7341  35.783   8.068  11.530
42115W        W 7342  14.890   4.986  11.579
42116W        W 7343  44.799  21.544   3.849
42117W        W 7344  10.754  16.602  13.497
42118W        W 7345   3.830  39.509   0.291
42119W        W 7346  37.225  35.539   1.797
42120W        W 7347  14.672  15.183  13.305
42121W        W 7348  23.265   8.445  14.247
42122W        W 7349  39.277   0.530   2.676
42123W        W 7350  19.781  29.685  11.191
42124W        W 7351  26.808  13.528   3.744
42125W        W 7352  21.578  13.834   0.094
42126W        W 7353  40.732  20.074   4.561
42127W        W 7354  15.157  35.321   1.233
42128W        W 7355  19.836  40.622   0.363
42129W        W 7356   3.847  39.510   3.422
42130W        W 7357  43.276   9.426   1.637
42131W        W 7358   9.348  21.967   3.649
42132W        W 7359  16.307  43.250  12.729
42133W        W 7360  30.148  17.418  11.241
42134W        W 7361  43.928  19.284   4.088
42135W        W 7362  30.851  27.598   0.263
42136W        W 7363  23.229   5.406   3.353
42137W        W 7364  42.841  17.569  11.269
42138W        W 7365  34.846   3.375  13.849
42139W        W 7366   5.758  30.561   0.660
42140W        W 7367   4.811  28.254  14.944
42141W        W 7368  44.802  43.187   4.498
42142W        W 7369  41.370   1.876   1.055
42143W        W 7370   8.698  36.788   2.777
42144W        W 7371  23.052  30.997   4.581
42145W        W 7372  36.416  18.314   0.338
42146W        W 7373  20.683  36.635  13.775
42147W        W 7374  44.337  40.988   4.108
42148W        W 7375   3.239  37.458  13.442
42149W        W 7376  30.130  23.435   1.634
42150W        W 7377   0.017  17.778   3.852
42151W        W 7378  44.507  13.902   1.368
42152W        W 7379  30.258  30.572  14.872
42153W        W 7380  17.760  26.856  13.998
42154W        W 7381  29.263  40.140   2.782
42155W        W 7382  16.718   5.839  14.844
42156W        W 7383  21.499  39.205   4.130
42157W        W 7384   3.189  17.375  10.889
42158W        W 7385  32.736  28.680   1.825
42159W        W 7386  15.551  36.556   1.788
42160W        W 7387   4.337  26.432  14.895
42161W        W 7388  43.477  24.465   4.306
42162W        W 7389  16.017  22.172  14.056
42163W        W 7390   3.092  39.457   0.289
42164W        W 7391   3.714   8.723   1.172
42165W        W 7392  21.551  32.412   2.182
42166W        W 7393  38.067   2.251  14.588
42167W        W 7394  25.727  33.107  13.134
42168W        W 7395  42.287  23.036  14.224
42169W        W 7396   7.743  32.371  12.117
42170W        W 7397  32.083  22.677  14.993
42171W        W 7398  29.714  28.557  13.353
42172W        W 7399  22.681  30.166  12.861
42173W        W 7400   6.984  22.708  13.155
42174W        W 7401  19.551  44.737   0.082
42175W        W 7402  12.625  11.683  14.365
42176W        W 7403  40.280  29.595  13.420
42177W        W 7404   6.262  15.018   0.192
42178W        W 7405  31.461  38.599  12.588
42179W        W 7406  23.752   8.162  13.480
42180W        W 7407  23.300  20.998   2.750
42181W        W 7408  24.040  15.823   2.666
42182W        W 7409   3.041  36.442  12.021
42183W        W 7410  39.065  38.068   3.187
42184W        W 7411  11.413  17.709   4.161
42185W        W 7412  24.126  40.398   1.374
42186W        W 7413   7.888  40.373   3.151
42187W        W 7414   1.855  23.091   2.177
42188W        W 7415  26.784  41.516  11.541
42189W        W 7416   7.648  23.933   1.868
42190W        W 7417   7.953  34.879  11.549
42191W        W 7418  24.395  24.673  14.897
42192W        W 7419  15.180  25.533  14.311
42193W        W 7420   8.669  12.476   2.810
42194W        W 7421  21.541  41.806  10.630
42195W        W 7422   3.230  12.098  10.877
42196W        W 7423   7.138  26.655   3.223
42197W        W 7424  14.288  19.244   1.485
42198W        W 7425  32.885  18.371   2.285
42199W        W 7426  11.406  40.283  12.287
42200W        W 7427   7.961   8.573  13.980
42201W        W 7428   3.356  36.039   0.302
42202W        W 7429  31.802  30.559   1.513
42203W        W 7430  26.914  15.696   1.617
42204W        W 7431  31.271   1.473  11.603
42205W        W 7432   0.474  19.815   2.274
42206W        W 7433  16.540   7.189  11.229
42207W        W 7434   2.723  15.898  11.540
42208W        W 7435  28.461  43.697  12.466
42209W        W 7436  18.219  30.923  11.104
42210W        W 7437   9.222   8.522   2.419
42211W        W 7438  16.301   9.728  13.946
42212W        W 7439  24.110   2.786   4.583
42213W        W 7440  22.178  17.759  11.638
42214W        W 7441  35.864  35.850  10.661
42215W        W 7442   1.352  18.185   0.933
42216W        W 7443  35.014  11.481  13.998
42217W        W 7444  31.569  36.597   2.536
42218W        W 7445   8.336   5.697  11.252
42219W        W 7446   8.379   8.432  10.851
42220W        W 7447   3.936  15.490   4.780
42221W        W 7448   2.409  27.964   2.695
42222W        W 7449   4.569  23.260  10.507
42223W        W 7450   4.786  29.396   1.419
42224W        W 7451  38.161  17.746   2.489
42225W        W 7452  36.539  42.866  11.474
42226W        W 7453   4.807  39.285   3.814
42227W        W 7454  36.747   9.657  12.756
42228W        W 7455   2.044  41.446   4.778
42229W        W 7456   1.177  16.888   2.800
42230W        W 7457   2.930  22.515  11.049
42231W        W 7458   9.966  35.580  12.557
42232W        W 7459  43.891  15.593  14.847
42233W        W 7460  31.542  43.749   3.408
42234W        W 7461  39.152  35.156  14.451
42235W        W 7462   1.017  13.116  10.742
42236W        W 7463  27.598  30.957   3.914
42237W        W 7464  32.958  20.530  12.105
42238W        W 7465  15.723  35.884   4.441
42239W        W 7466  18.984  15.190   2.353
42240W        W 7467   9.353  33.595  14.824
42241W        W 7468  20.257  32.499  12.441
42242W        W 7469  27.600  33.754  14.849
42243W        W 7470  25.662  34.332   4.519
42244W        W 7471  38.763  10.686  13.449
42245W        W 7472  23.252  12.924   4.052
42246W        W 7473  19.686   7.500   0.772
42247W        W 7474  18.634  36.588   1.494
42248W        W 7475  33.348  16.032  13.436
42249W        W 7476   1.049  39.677  11.402
42250W        W 7477  40.449  17.475   4.591
42251W        W 7478  37.065  34.875  11.170
42252W        W 7479   6.970   8.968  10.825
42253W        W 7480   4.186  11.255   4.891
42254W        W 7481  12.584  28.757   4.147
42255W        W 7482  26.948   1.695   0.163
42256W        W 7483   1.062  38.056   0.204
42257W        W 7484  15.099  36.430   2.013
42258W        W 7485  23.046  38.026  12.000
42259W        W 7486  28.689   8.822  13.277
42260W        W 7487   8.794  27.769   4.449
42261W        W 7488  27.729   1.989   4.249
42262W        W 7489  19.769  36.437  10.769
42263W        W 7490  10.395   4.251  11.962
42264W        W 7491   8.694  38.065   1.393
42265W        W 7492  19.781  39.325   4.802
42266W        W 7493   3.926  20.720   0.235
42267W        W 7494  14.511  36.200   4.251
42268W        W 7495  26.283  31.082  14.364
42269W        W 7496  35.563  39.099   1.141
42270W        W 7497  35.997  42.349  14.812
42271W        W 7498  19.302  23.013  10.628
42272W        W 7499  32.372  11.360   0.928
42273W        W 7500  38.327   1.947  11.565
42274W        W 7501  21.495  43.407  11.447
42275W        W 7502  26.774  31.109  11.118
42276W        W 7503  44.577  37.942   0.506
42277W        W 7504  20.107  33.515   0.900
42278W        W 7505  42.949   2.694   0.386
42279W        W 7506   1.953  21.467   0.877
42280W        W 7507  15.693  16.134   3.407
42281W        W 7508  36.026  41.601  12.631
42282W        W 7509  24.383  10.378   0.551
42283W        W 7510  17.558  36.552  14.695
42284W        W 7511  10.814   1.830  12.490
42285W        W 7512  43.400   4.778   4.625
42286W        W 7513  44.605  22.626   1.337
42287W        W 7514  38.362  12.384   0.673
42288W        W 7515  36.868  29.552   3.262
42289W        W 7516  44.009  17.098   2.616
42290W        W 7517  26.440  28.729   4.061
42291W        W 7518   1.218  37.102   4.719
42292W        W 7519  17.664  13.118  11.757
42293W        W 7520  35.684   0.443  13.066
42294W        W 7521  17.556  29.392   1.735
42295W        W 7522  29.804  16.033  11.005
42296W        W 7523  14.388  33.298   4.213
42297W        W 7524  42.447   2.164  11.178
42298W        W 7525   2.920  18.550  12.997
42299W        W 7526  38.518  14.817   0.341
42300W        W 7527  41.076  32.430  11.923
42301W        W 7528   9.946  32.586   3.655
42302W        W 7529  11.778  32.490   0.353
42303W        W 7530  20.070   8.781  11.049
42304W        W 7531  38.926   4.727  12.678
42305W        W 7532   0.983  32.061  14.712
42306W        W 7533  30.444   3.176  13.849
42307W        W 7534   6.218  25.114   1.292
42308W        W 7535   5.716  11.330  12.523
42309W        W 7536  10.860   3.719  12.465
42310W        W 7537  24.183  23.199   1.790
42311W        W 7538  15.850   8.889  11.613
42312W        W 7539   3.237  23.035   0.298
42313W        W 7540  16.190  37.174   0.791
42314W        W 7541  31.925  21.364   3.417
42315W        W 7542  28.484  43.891  12.979
42316W        W 7543  40.946  32.116  14.774
42317W        W 7544   6.273  25.393  12.622
42318W        W 7545  33.859   3.248  14.682
42319W        W 7546  42.049  13.110   0.504
42320W        W 7547  43.360  26.461   2.267
42321W        W 7548   7.382  37.871   0.932
42322W        W 7549   2.758   5.393   4.346
42323W        W 7550   6.285  18.592  13.300
42324W        W 7551  22.180  41.887   1.021
42325W        W 7552   8.144  20.308   0.351
42326W        W 7553  14.431  31.981   0.237
42327W        W 7554  11.857  29.453   2.389
42328W        W 7555  18.050   7.958  11.281
42329W        W 7556  18.807  26.005   2.250
42330W        W 7557  26.282  24.849  14.942
42331W        W 7558  22.012  21.731  14.766
42332W        W 7559  25.022   9.608   1.274
42333W        W 7560  38.356  12.658   3.520
42334W        W 7561   9.307   6.157  13.471
42335W        W 7562  35.319  20.565   1.404
42336W        W 7563  32.033  37.937  14.478
42337W        W 7564  42.446  17.676  11.605
42338W        W 7565  10.378  14.135  14.360
42339W        W 7566  37.970  20.136   2.072
42340W        W 7567   2.984   8.411  12.563
42341W        W 7568  24.215  30.114   4.584
42342W        W 7569  23.707   6.131   1.115
42343W        W 7570  37.445  41.114   4.543
42344W        W 7571  26.951  44.900  12.470
42345W        W 7572  26.674  36.963   0.432
42346W        W 7573  27.555  39.126   1.362
42347W        W 7574  13.767  29.640  11.656
42348W        W 7575  19.242  12.259  14.052
42349W        W 7576  13.336  16.198  14.909
42350W        W 7577  18.859  40.878  10.479
42351W        W 7578  36.122   3.337   3.218
42352W        W 7579  11.160  26.135   3.270
42353W        W 7580   1.980  33.652   1.301
42354W        W 7581   9.891  22.960   3.101
42355W        W 7582   1.644  27.509  14.401
42356W        W 7583  19.252  41.449  10.724
42357W        W 7584  22.539   5.378  13.347
42358W        W 7585  43.456   1.540  10.134
42359W        W 7586  36.593  41.748   4.354
42360W        W 7587  22.575  38.843   3.802
42361W        W 7588   7.385  20.715  10.716
42362W        W 7589   5.777   0.039  11.185
42363W        W 7590  17.780  33.843  13.995
42364W        W 7591  20.108  20.701   1.946
42365W        W 7592   4.300  16.643  11.698
42366W        W 7593   5.125   3.706  11.478
42367W        W 7594  38.114  10.649   4.411
42368W        W 7595  20.588  34.794  14.521
42369W        W 7596  36.664  38.578  13.410
42370W        W 7597  11.108   5.896   3.753
42371W        W 7598  34.379   3.179   2.337
42372W        W 7599   5.706  30.081   0.851
42373W        W 7600  18.686  21.975   3.920
42374W        W 7601  27.077   9.305   0.470
42375W        W 7602  41.744  20.979   2.777
42376W        W 7603   9.875  35.836  11.557
42377W        W 7604  22.861  40.485   0.820
42378W        W 7605  37.036   1.256   3.888
42379W        W 7606  32.979  15.295   3.135
42380W        W 7607  28.854  13.101   1.702
42381W        W 7608  15.849  39.052   4.557
42382W        W 7609  37.535   2.520   3.690
42383W        W 7610  37.903  17.623   3.825
42384W        W 7611  26.500  36.566  11.610
42385W        W 7612  19.636  42.059   0.361
42386W        W 7613  11.406   1.034  14.440
42387W        W 7614  15.135  14.772   0.411
42388W        W 7615  30.079   7.460   3.419
42389W        W 7616  28.532  19.814  11.211
42390W        W 7617  32.022  37.573   1.915
42391W        W 7618   9.762  33.435   1.708
42392W        W 7619  14.288   9.531   1.076
42393W        W 7620  32.800  29.665   2.830
42394W        W 7621  26.503  37.043  12.697
42395W        W 7622  21.983  25.627  13.838
42396W        W 7623  37.586  30.946   0.470
42397W        W 7624  44.248  34.738   0.944
42398W        W 7625   8.356  18.565  11.781
42399W        W 7626  29.552   8.860  10.390
42400W        W 7627   8.828  41.537   4.305
42401W        W 7628  36.812  17.660  11.187
42402W        W 7629  43.262  12.663  14.155
42403W        W 7630  20.420  24.820   4.664
42404W        W 7631  17.795  43.005  11.188
42405W        W 7632  21.712  27.890   1.581
42406W        W 7633  14.760   3.743  14.529
42407W        W 7634  24.111   6.424   1.387
42408W        W 7635  24.024  24.253  12.519
42409W        W 7636  18.165  21.698  13.032
42410W        W 7637  36.600  23.967  12.008
42411W        W 7638  37.598   1.416  14.969
42412W        W 7639  22.816   1.935  12.433
42413W        W 7640   9.134  39.901  13.942
42414W        W 7641  25.309   8.907  11.974
42415W        W 7642  43.426  10.439  13.732
42416W        W 7643  40.402   4.367   1.348
42417W        W 7644   1.340   7.804  14.073
42418W        W 7645   6.423   0.793  13.516
42419W        W 7646  11.901  38.396   2.232
42420W        W 7647  10.392  19.577  10.934
42421W        W 7648   0.525  33.524  14.495
42422W        W 7649  32.836  28.287   1.077
42423W        W 7650  42.370  34.330   3.835
42424W        W 7651   2.709  30.225   9.798
42425W        W 7652   4.218  31.018  12.584
42426W        W 7653  10.674  23.892  11.987
42427W        W 7654  22.030   7.164   0.352
42428W        W 7655   3.722  34.908  10.543
42429W        W 7656  27.053  18.716  13.550
42430W        W 7657   2.436  29.527  14.698
42431W        W 7658   4.745  14.610   2.739
42432W        W 7659  32.632  11.117   3.318
42433W        W 7660   7.784  41.978   1.439
42434W        W 7661  22.657   0.074  11.501
42435W        W 7662  11.885  18.211   3.618
42436W        W 7663  39.633   4.232  13.048
42437W        W 7664  42.903  17.206  13.468
42438W        W 7665   5.267  34.750   3.904
42439W        W 7666  21.061  22.116  13.722
42440W        W 7667  36.964  16.891  11.535
42441W        W 7668  24.590  28.881  12.308
42442W        W 7669  26.176  33.378  13.094
42443W        W 7670  29.459   1.960  13.014
42444W        W 7671  21.460  12.452  12.524
42445W        W 7672  33.787  30.989  11.194
42446W        W 7673  12.398  33.540   5.455
42447W        W 7674  12.361  20.621   3.215
42448W        W 7675  44.998   7.880  11.898
42449W        W 7676  14.878  41.583   3.222
42450W        W 7677  43.614   4.897   4.164
42451W        W 7678  14.580  16.805   3.195
42452W        W 7679  40.635  27.531  11.536
42453W        W 7680   3.242  35.437   2.626
42454W        W 7681  44.054  16.740  13.052
42455W        W 7682   8.626  15.811   2.606
42456W        W 7683   5.023   0.768  14.958
42457W        W 7684  44.533   8.706  12.951
42458W        W 7685  35.222  17.176  14.776
42459W        W 7686  20.604   9.284  14.099
42460W        W 7687  41.878  44.939   3.376
42461W        W 7688  42.748  31.931   3.665
42462W        W 7689  30.569  16.226  11.514
42463W        W 7690  17.923  41.236  12.563
42464W        W 7691  13.295   2.277   3.290
42465W        W 7692  36.162  14.942  12.069
42466W        W 7693   7.702  34.492  14.742
42467W        W 7694  19.223  20.019  12.776
42468W        W 7695   4.875   3.935   4.250
42469W        W 7696  28.691   0.136   1.256
42470W        W 7697  40.513  14.553  14.526
42471W        W 7698   1.184  28.675   0.743
42472W        W 7699  39.650   5.849   3.351
42473W        W 7700  33.637  21.716   4.652
42474W        W 7701  12.719  25.851  14.862
42475W        W 7702  15.270  13.107  13.405
42476W        W 7703  29.167  30.794  10.817
42477W        W 7704  34.939  10.671  11.580
42478W        W 7705  18.650  19.042   0.464
42479W        W 7706  40.800  30.843   4.047
42480W        W 7707   8.541  23.166  14.584
42481W        W 7708  35.574  21.136   3.239
42482W        W 7709   0.575  43.869  14.339
42483W        W 7710  38.491  23.538   3.678
42484W        W 7711  42.520  28.513   0.824
42485W        W 7712  15.226   5.255   2.896
42486W        W 7713   8.892  31.322   4.855
42487W        W 7714   2.992  11.318  12.842
42488W        W 7715  38.540  39.532   4.548
42489W        W 7716  12.086  11.864  11.942
42490W        W 7717   1.466  27.167   0.531
42491W        W 7718  29.355  30.607   4.078
42492W        W 7719  35.656  12.634   1.683
42493W        W 7720  14.695  44.333  10.287
42494W        W 7721  32.028  19.726   0.403
42495W        W 7722  17.537  43.983  13.107
42496W        W 7723  17.700  24.554   2.218
42497W        W 7724  14.658  38.399  12.869
42498W        W 7725  19.829   8.868   1.819
42499W        W 7726   9.850  33.504   9.850
42500W        W 7727   5.946  29.909   4.968
42501W        W 7728  14.583  12.201  14.903
42502W        W 7729   4.944  17.180   2.592
42503W        W 7730   7.552  29.680   2.790
42504W        W 7731  15.373   7.427   1.312
42505W        W 7732   4.736  19.337   3.365
42506W        W 7733   1.226  37.052   3.368
42507W        W 7734   0.713  22.452  11.094
42508W        W 7735   0.755  32.069   1.708
42509W        W 7736  15.501  22.278  13.393
42510W        W 7737  20.169  29.123  10.556
42511W        W 7738  39.884  26.998   2.318
42512W        W 7739  28.859  19.143  12.632
42513W        W 7740  33.079  33.888   2.532
42514W        W 7741  28.468  29.476   0.510
42515W        W 7742   2.229  36.882   1.858
42516W        W 7743  12.134   4.011  13.821
42517W        W 7744   9.838   7.357   4.773
42518W        W 7745  24.974   8.873  14.705
42519W        W 7746  10.636  40.430   2.580
42520W        W 7747  25.541   4.762  11.028
42521W        W 7748  18.058  38.833  14.445
42522W        W 7749  10.651  43.401   2.610
42523W        W 7750  39.428  21.982   0.766
42524W        W 7751  28.816   0.631   4.253
42525W        W 7752  17.925  16.851   1.042
42526W        W 7753   9.865  38.316  10.420
42527W        W 7754  30.054  24.890   0.421
42528W        W 7755   2.281  41.941  13.894
42529W        W 7756  42.311  16.388  11.222
42530W        W 7757  25.137   7.419   2.957
42531W        W 7758  27.734  27.554   4.679
42532W        W 7759  17.628  17.017  10.554
42533W        W 7760   7.549  26.569  14.643
42534W        W 7761  24.994  35.043   2.825
42535W        W 7762  41.384   2.342   3.885
42536W        W 7763   1.994  41.767  10.652
42537W        W 7764  18.305  22.359   2.780
42538W        W 7765  23.818  25.027  13.498
42539W        W 7766  18.617   1.438  12.044
42540W        W 7767  44.798  44.551   4.874
42541W        W 7768   8.413  25.048   4.343
42542W        W 7769  37.075  19.771   0.730
42543W        W 7770   9.071  17.783   1.206
42544W        W 7771   7.395  43.781   4.850
42545W        W 7772  33.917  20.713  11.389
42546W        W 7773  27.042   7.563  14.073
42547W        W 7774   2.007  28.108   2.189
42548W        W 7775  17.350  19.549  13.260
42549W        W 7776  36.269   2.698   4.520
42550W        W 7777   4.901   7.879  14.717
42551W        W 7778  44.453   4.884  11.013
42552W        W 7779  35.351   7.051   1.778
42553W        W 7780   7.814  11.119   0.885
42554W        W 7781  41.841  29.887   0.474
42555W        W 7782   1.673   8.938  13.429
42556W        W 7783  38.579  24.140  14.766
42557W        W 7784  39.506  43.898  12.636
42558W        W 7785  20.959   3.704   1.480
42559W        W 7786  13.229  17.824   1.895
42560W        W 7787  42.496  16.810  13.824
42561W        W 7788  16.658  11.699  13.655
42562W        W 7789  14.974  11.299   0.013
42563W        W 7790  30.000   4.165   3.765
42564W        W 7791  20.050  22.147   3.645
42565W        W 7792  21.167  30.644  10.606
42566W        W 7793  14.219  37.077   1.832
42567W        W 7794   8.456  23.941  12.036
42568W        W 7795  17.168  33.833   4.930
42569W        W 7796  20.065  22.266  12.557
42570W        W 7797  44.955  19.538   2.126
42571W        W 7798  19.813  22.752  14.856
42572W        W 7799  33.034  31.926  12.778
42573W        W 7800  20.679  44.576   0.040
42574W        W 7801  20.044  11.763   1.777
42575W        W 7802  14.576  26.696  12.324
42576W        W 7803   5.699  19.077   3.224
42577W        W 7804  31.991  23.317  14.106
42578W        W 7805  36.401  39.132  11.766
42579W        W 7806  22.957  42.902  13.096
42580W        W 7807  18.545  23.377   4.389
42581W        W 7808  17.503  32.031   3.433
42582W        W 7809  30.719  36.438   3.336
42583W        W 7810  31.904  43.801   0.377
42584W        W 7811   4.217   8.671   1.225
42585W        W 7812  41.829  11.337   2.406
42586W        W 7813   5.955  27.573   0.176
42587W        W 7814  36.541  21.167   1.467
42588W        W 7815  21.658  39.092  13.314
42589W        W 7816   9.757  31.560  13.195
42590W        W 7817  43.247   0.227   0.035
42591W        W 7818   2.150  40.833  12.096
42592W        W 7819   4.752  35.511  10.688
42593W        W 7820   8.908  40.075  13.108
42594W        W 7821  35.471  15.781  10.818
42595W        W 7822   4.321  27.898  13.256
42596W        W 7823  19.671  43.425  12.058
42597W        W 7824  44.142  23.970  11.541
42598W        W 7825   8.701  12.816   4.882
42599W        W 7826   8.290  30.483  11.091
42600W        W 7827  34.698  25.527  14.394
42601W        W 7828  37.068  29.906   4.915
42602W        W 7829  15.525  15.029  10.687
42603W        W 7830  19.195  29.434   3.394
42604W        W 7831   2.204   2.833   3.194
42605W        W 7832  25.804  15.105  10.649
42606W        W 7833  17.675   2.864   0.162
42607W        W 7834  17.143  44.709   3.681
42608W        W 7835   7.662  16.801   0.895
42609W        W 7836  17.571   0.549  11.266
42610W        W 7837  12.869  26.648  14.409
42611W        W 7838  22.991  20.987   4.792
42612W        W 7839  18.223   9.782   2.551
42613W        W 7840  29.545  26.040   2.763
42614W        W 7841  18.087  39.030  10.690
42615W        W 7842  28.671   5.763   1.968
42616W        W 7843  14.661   4.963  13.835
42617W        W 7844   5.832  42.973  11.014
42618W        W 7845  12.712  23.075   4.610
42619W        W 7846  18.737   0.065   0.668
42620W        W 7847  27.105  42.406   3.982
42621W        W 7848   7.912  32.376   4.734
42622W        W 7849  22.632  16.100  11.289
42623W        W 7850  14.571  33.401   1.765
42624W        W 7851  29.324   2.520  11.017
42625W        W 7852  24.128  18.687  11.996
42626W        W 7853   8.772  34.001   4.562
42627W        W 7854  14.841  32.621   2.351
42628W        W 7855  27.870  17.554  13.430
42629W        W 7856  12.632  15.584  14.338
42630W        W 7857  42.421  31.572  14.041
42631W        W 7858  26.208  38.352  11.975
42632W        W 7859  24.447  27.508  12.499
42633W        W 7860   6.141  16.497   0.255
42634W        W 7861  28.403   0.194  12.798
42635W        W 7862  20.520  13.083  14.776
42636W        W 7863  44.549  37.816   1.817
42637W        W 7864  29.039  41.220  11.464
42638W        W 7865  22.184  38.318  10.740
42639W        W 7866  14.275  13.854   4.237
42640W        W 7867  14.781  25.992  14.297
42641W        W 7868  15.760  41.579  11.778
42642W        W 7869  10.100  33.797  14.289
42643W        W 7870  32.128  19.565   0.883
42644W        W 7871  25.394  15.751   2.413
42645W        W 7872  43.259  18.975  12.566
42646W        W 7873  41.185  16.601  14.267
42647W        W 7874  12.301   5.400  12.617
42648W        W 7875  26.426  28.416   1.729
42649W        W 7876  28.900  23.065  11.553
42650W        W 7877  37.336  22.581  10.750
42651W        W 7878   3.740  26.896  14.374
42652W        W 7879  26.246  27.792   3.663
42653W        W 7880   0.025  13.315  10.830
42654W        W 7881  12.608  15.417   1.916
42655W        W 7882  15.085  20.157   0.533
42656W        W 7883   1.773  42.030  13.892
42657W        W 7884  40.840  24.070  10.999
42658W        W 7885  18.830   2.689   0.635
42659W        W 7886  16.978  28.697  12.902
42660W        W 7887   2.569   9.253  14.073
42661W        W 7888  30.610  44.112   3.130
42662W        W 7889  40.262  39.798   4.654
42663W        W 7890  37.557  40.331   0.176
42664W        W 7891  34.357  24.571  10.709
42665W        W 7892  34.138  41.973  12.971
42666W        W 7893  27.583  26.489  10.697
42667W        W 7894  18.376  18.669   5.000
42668W        W 7895   3.311   0.890   1.791
42669W        W 7896  28.959  27.880   1.257
42670W        W 7897  21.792  23.738   3.568
42671W        W 7898  25.867  10.617  12.895
42672W        W 7899  40.033  14.048   3.699
42673W        W 7900  33.014  30.547   2.337
42674W        W 7901  17.335   6.284  14.578
42675W        W 7902  27.405   9.347  14.422
42676W        W 7903  25.665   1.991   3.777
42677W        W 7904  29.786   3.405   4.454
42678W        W 7905  34.511  25.519  12.768
42679W        W 7906  15.540  13.555  11.085
42680W        W 7907  42.825   7.741  13.310
42681W        W 7908  13.059   7.329   3.525
42682W        W 7909   0.410  25.576   3.399
42683W        W 7910   3.704  31.155   3.117
42684W        W 7911   9.785  35.305  14.955
42685W        W 7912  38.890  27.892  11.044
42686W        W 7913   3.983  26.538   1.254
42687W        W 7914  20.738  22.566   4.727
42688W        W 7915  15.807  27.980   0.189
42689W        W 7916  18.596  23.986  12.958
42690W        W 7917  29.030   0.168  12.536
42691W        W 7918  38.372  21.631  14.682
42692W        W 7919  33.330  43.861   3.142
42693W        W 7920  15.866  41.839  14.466
42694W        W 7921  40.022   3.846   0.960
42695W        W 7922  10.860   4.157  13.545
42696W        W 7923   8.417   3.470  13.603
42697W        W 7924  19.373   0.418   1.509
42698W        W 7925  28.388   2.407   4.111
42699W        W 7926   9.285   5.847   0.227
42700W        W 7927   4.534  36.491  10.789
42701W        W 7928   8.982  21.816  12.402
42702W        W 7929  30.014  36.110   2.179
42703W        W 7930  28.191  23.328   1.690
42704W        W 7931   0.960  37.938   4.065
42705W        W 7932  14.749  34.156   0.344
42706W        W 7933  41.102  19.478  12.471
42707W        W 7934  13.652  17.047  10.986
42708W        W 7935  28.860  15.063   3.250
42709W        W 7936  23.973  19.996   1.156
42710W        W 7937  20.619  44.366   3.224
42711W        W 7938  23.079   7.718   4.543
42712W        W 7939  15.363  21.931  12.387
42713W        W 7940  14.655  43.363  12.093
42714W        W 7941  25.098   4.384  14.883
42715W        W 7942   4.520  14.260  11.160
42716W        W 7943  13.528  21.150  11.097
42717W        W 7944  44.786  36.948  10.937
42718W        W 7945  26.765  20.393  13.524
42719W        W 7946   9.156   3.459   0.845
42720W        W 7947   1.386  36.528   0.432
42721W        W 7948  32.655  43.990  12.788
42722W        W 7949  30.580   1.965  12.469
42723W        W 7950   5.773  34.889   2.881
42724W        W 7951  15.711   2.751   1.089
42725W        W 7952  44.867  29.117   0.804
42726W        W 7953  24.173  24.728  12.684
42727W        W 7954  31.579  38.854   2.789
42728W        W 7955  20.499  18.824  13.494
42729W        W 7956  44.135   0.434   3.231
42730W        W 7957  41.098  10.290   0.819
42731W        W 7958  23.932   0.571  12.037
42732W        W 7959  14.214   1.165   2.323
42733W        W 7960  10.287   1.673   1.291
42734W        W 7961  31.410  35.905   3.656
42735W        W 7962  38.002   9.722  13.528
42736W        W 7963  18.140  29.669  14.489
42737W        W 7964  44.955  18.551  14.895
42738W        W 7965   5.873  35.333   3.109
42739W        W 7966   0.255  26.453  14.479
42740W        W 7967  22.712   5.800   4.602
42741W        W 7968  27.464  42.390   0.916
42742W        W 7969  43.791  19.209   1.835
42743W        W 7970  34.743  27.686  13.350
42744W        W 7971  24.986  18.183   1.694
42745W        W 7972  36.157  19.556   4.648
42746W        W 7973  36.311  26.958   3.702
42747W        W 7974   3.862   8.258   2.868
42748W        W 7975  40.980  31.738  14.417
42749W        W 7976   1.315  38.060   1.185
42750W        W 7977  16.722  17.569   0.738
42751W        W 7978  32.519  25.637   0.516
42752W        W 7979   1.789  17.976   0.749
42753W        W 7980   1.971  29.174   2.343
42754W        W 7981  27.073  34.107  13.551
42755W        W 7982  18.278  26.864   2.450
42756W        W 7983  32.379  15.608   4.111
42757W        W 7984   0.435   8.418  13.329
42758W        W 7985  17.436  39.804   9.805
42759W        W 7986   1.628  33.665   2.120
42760W        W 7987  27.873   9.597   3.025
42761W        W 7988  11.664  28.688   4.452
42762W        W 7989  26.559  40.569   2.767
42763W        W 7990  37.608  41.759  12.760
42764W        W 7991  21.909  11.372   2.362
42765W        W 7992  21.807  28.617  14.307
42766W        W 7993  17.166  37.873  14.208
42767W        W 7994  25.444  38.585  14.868
42768W        W 7995  26.380   9.557   1.598
42769W        W 7996  27.143   2.386   4.553
42770W        W 7997  33.542  23.600   1.927
42771W        W 7998  23.742   3.806  11.621
42772W        W 7999  35.202  20.480   4.771
42773W        W 8000   0.846   3.895   3.708
42774W        W 8001   7.248  44.906  14.408
42775W        W 8002  14.795  15.135  13.798
42776W        W 8003  15.789   9.067  12.094
42777W        W 8004  24.823  43.815   2.363
42778W        W 8005  41.556  21.200  12.406
42779W        W 8006  35.061   3.838  13.955
42780W        W 8007  38.393  31.596   1.031
42781W        W 8008  21.918  43.379  11.175
42782W        W 8009   2.139   9.952  10.736
42783W        W 8010  10.381   6.803   0.278
42784W        W 8011  35.711  13.786  11.751
42785W        W 8012  25.617  12.780  14.985
42786W        W 8013  31.034  18.026   9.460
42787W        W 8014  23.198  39.808  13.351
42788W        W 8015  29.594   6.606  11.962
42789W        W 8016  20.439  41.758  13.333
42790W        W 8017  43.397  29.073  13.828
42791W        W 8018   8.641   6.682  14.813
42792W        W 8019  42.510  25.162   3.765
42793W        W 8020  43.324  27.200   1.748
42794W        W 8021  41.866  43.348   3.845
42795W        W 8022  12.662  25.994   4.146
42796W        W 8023  33.129  37.160   2.600
42797W        W 8024   3.306  16.218  14.518
42798W        W 8025  34.286  24.610  14.262
42799W        W 8026  34.879  40.246   0.335
42800W        W 8027  32.397  35.743   5.122
42801W        W 8028  24.110   5.568   0.377
42802W        W 8029  36.090  25.558   0.522
42803W        W 8030  39.400  37.190   2.096
42804W        W 8031   9.229  44.148  12.879
42805W        W 8032  36.558  15.570   4.546
42806W        W 8033  34.260  26.405   1.122
42807W        W 8034  34.189  24.465   0.838
42808W        W 8035   4.000  42.213   1.447
42809W        W 8036  42.932  40.361   2.534
42810W        W 8037  22.635   0.728  14.827
42811W        W 8038  31.112  12.717   2.237
42812W        W 8039  26.403  28.058   2.246
42813W        W 8040  27.770  34.995   1.513
42814W        W 8041  18.368  35.010   2.283
42815W        W 8042   8.642  20.267   0.450
42816W        W 8043  15.695  44.550  10.032
42817W        W 8044  29.973  11.803  10.576
42818W        W 8045  27.731  18.120   0.976
42819W        W 8046  22.939  30.547   1.587
42820W        W 8047  27.106   8.917   2.431
42821W        W 8048   3.304  38.470  14.332
42822W        W 8049  19.498  37.527  13.400
42823W        W 8050  13.191  17.992  12.572
42824W        W 8051  11.050  13.621   0.355
42825W        W 8052   6.329  11.142   2.957
42826W        W 8053  21.947  26.646   1.859
42827W        W 8054   9.684  17.503  14.537
42828W        W 8055  39.906  27.844   1.321
42829W        W 8056  35.932  32.342   1.271
42830W        W 8057   5.842  17.574   2.776
42831W        W 8058  38.349  15.160   2.764
42832W        W 8059  30.500   3.393   1.806
42833W        W 8060  34.619   8.806   0.783
42834W        W 8061  24.836  33.564  13.307
42835W        W 8062  24.734  11.445  13.379
42836W        W 8063  37.883  19.343  11.049
42837W        W 8064  14.439  38.903  14.290
42838W        W 8065  41.067  26.258   0.798
42839W        W 8066  26.138   6.109  11.402
42840W        W 8067  22.262  18.729   2.325
42841W        W 8068  27.504  44.629   3.214
42842W        W 8069   6.385  23.693   1.521
42843W        W 8070  27.012  17.053  13.744
42844W        W 8071  44.090  39.808   1.451
42845W        W 8072   1.406  39.633   0.885
42846W        W 8073  40.927  30.100  10.450
42847W        W 8074   4.452  11.164   2.710
42848W        W 8075  31.501  15.545  13.446
42849W        W 8076  15.099  13.593  13.321
42850W        W 8077   7.890   1.330   0.720
42851W        W 8078  12.927  38.502   4.348
42852W        W 8079  43.341  22.535  13.039
42853W        W 8080  23.783  24.504  13.518
42854W        W 8081   1.685  37.540  12.374
42855W        W 8082  13.097  18.503   0.568
42856W        W 8083  27.010  20.338  13.048
42857W        W 8084  39.981   8.475  10.572
42858W        W 8085  32.045  20.208   2.294
42859W        W 8086  33.384  38.642  12.955
42860W        W 8087   4.265  10.242  10.633
42861W        W 8088   0.331  26.016  14.836
42862W        W 8089  34.857  31.708  12.843
42863W        W 8090  21.409  39.308   3.605
42864W        W 8091   3.703   4.627   0.059
42865W        W 8092  16.510   3.452  13.604
42866W        W 8093  39.584   2.313   3.050
42867W        W 8094  44.991  13.681  13.448
42868W        W 8095  33.343  38.043  11.272
42869W        W 8096  43.476  22.455  10.735
42870W        W 8097  41.868  36.500   2.314
42871W        W 8098  15.745  29.506   3.294
42872W        W 8099  19.986  27.229   4.131
42873W        W 8100  32.602  33.846  14.059
42874W        W 8101  43.818  37.447  14.977
42875W        W 8102  32.637  30.689  11.126
42876W        W 8103   5.695  23.788   4.567
42877W        W 8104  16.844   6.322   1.921
42878W        W 8105  17.534  11.166  12.569
42879W        W 8106  18.170  12.567  11.101
42880W        W 8107  12.619   3.977   0.324
42881W        W 8108  20.689  39.530  12.993
42882W        W 8109  24.062  32.839   1.854
42883W        W 8110  18.585  29.919  12.960
42884W        W 8111  10.211   4.302   0.277
42885W        W 8112  25.068  38.480  10.757
42886W        W 8113  21.296   3.571  11.551
42887W        W 8114  33.884  27.866  12.961
42888W        W 8115   3.223  16.600   1.490
42889W        W 8116   0.129  20.885  13.038
42890W        W 8117  33.062  41.465  13.525
42891W        W 8118  38.453   5.223   1.491
42892W        W 8119  27.294   2.279  10.125
42893W        W 8120   1.250   2.543  12.852
42894W        W 8121  22.065  13.726   2.185
42895W        W 8122  37.793  41.452  14.905
42896W        W 8123  14.861  39.145  14.129
42897W        W 8124  17.591  41.170   3.641
42898W        W 8125  37.624  10.499  12.092
42899W        W 8126  39.675   7.439   0.884
42900W        W 8127  11.364  43.571   0.919
42901W        W 8128  40.537   2.764   3.985
42902W        W 8129  29.566   6.809   1.799
42903W        W 8130   5.210  35.327   4.636
42904W        W 8131   0.938  12.399   0.243
42905W        W 8132  34.748  32.721   4.620
42906W        W 8133   4.769  24.175  14.398
42907W        W 8134  29.537  10.732  12.218
42908W        W 8135   1.540  23.579   3.226
42909W        W 8136   4.483  14.487   3.200
42910W        W 8137  10.288  21.339   1.861
42911W        W 8138  37.753  44.531  12.489
42912W        W 8139  11.807   8.248  10.222
42913W        W 8140  19.766  22.153  13.798
42914W        W 8141  36.796  22.269   3.950
42915W        W 8142  28.950  35.068  11.178
42916W        W 8143   5.416   3.494   1.459
42917W        W 8144   9.445  22.974   3.952
42918W        W 8145  41.731  25.669  12.047
42919W        W 8146  12.225  31.583   3.133
42920W        W 8147  24.142   7.182   4.462
42921W        W 8148  36.986  33.448   3.605
42922W        W 8149  27.235   4.950   2.708
42923W        W 8150  30.217  10.783   1.726
42924W        W 8151  40.031  34.257   3.266
42925W        W 8152  29.330   6.841  13.731
42926W        W 8153   1.929  21.433   3.316
42927W        W 8154  21.833   2.472   2.395
42928W        W 8155  37.042  40.969  11.985
42929W        W 8156  43.761   5.829   1.425
42930W        W 8157   4.672  19.683  11.887
42931W        W 8158  37.979  41.758   5.289
42932W        W 8159  22.261  10.020  14.318
42933W        W 8160   2.304   7.256   1.812
42934W        W 8161  35.103  32.018   4.530
42935W        W 8162   5.333   9.928  13.976
42936W        W 8163  13.978  14.796   2.714
42937W        W 8164  22.874  37.015  13.765
42938W        W 8165   3.440  34.799  11.479
42939W        W 8166  19.011  14.766  11.306
42940W        W 8167  35.771  31.438   2.395
42941W        W 8168  19.598  11.654   1.245
42942W        W 8169  19.706  34.812   0.942
42943W        W 8170  36.874  27.370   1.246
42944W        W 8171  10.728   9.274   4.463
42945W        W 8172  28.589  37.785   2.893
42946W        W 8173  20.155  14.077  10.808
42947W        W 8174  29.270  42.278  13.120
42948W        W 8175  33.818  37.929  13.258
42949W        W 8176  38.058  13.154   1.439
42950W        W 8177   3.360  39.880  11.500
42951W        W 8178   6.118  27.116   1.014
42952W        W 8179  19.065  25.076   3.253
42953W        W 8180  17.188   4.845   2.601
42954W        W 8181  14.166  13.176   3.606
42955W        W 8182   2.439   3.740  14.256
42956W        W 8183  13.484   6.171   0.328
42957W        W 8184   3.212  22.031  10.051
42958W        W 8185   7.753  41.031   0.288
42959W        W 8186  34.386  19.423   0.557
42960W        W 8187  13.843  30.225  12.971
42961W        W 8188  13.696  35.549   1.406
42962W        W 8189   7.869  42.822   4.701
42963W        W 8190   4.835  37.886  11.649
42964W        W 8191  16.664  40.383   1.708
42965W        W 8192   8.943  32.441  10.004
42966W        W 8193  20.812   7.165   1.080
42967W        W 8194   6.425  41.546  10.393
42968W        W 8195  43.920  29.698   4.726
42969W        W 8196  16.410  34.343   2.089
42970W        W 8197   0.352  34.364  14.405
42971W        W 8198  17.046  15.971  11.216
42972W        W 8199  34.048  27.001  14.123
42973W        W 8200   8.169  19.471   1.335
42974W        W 8201  33.946  18.418   4.212
42975W        W 8202  43.829  11.818   1.477
42976W        W 8203  18.473  44.344  12.053
42977W        W 8204  38.031  13.618   3.255
42978W        W 8205  38.571  29.585  11.692
42979W        W 8206   3.402  18.732  14.494
42980W        W 8207  42.333  39.902  11.700
42981W        W 8208   5.379  22.227   2.220
42982W        W 8209  27.119   9.267  12.227
42983W        W 8210  42.093  41.103  14.920
42984W        W 8211  13.292  26.877   3.869
42985W        W 8212  41.276  28.078   0.754
42986W        W 8213  35.348  19.631   1.956
42987W        W 8214  22.042  32.005   1.968
42988W        W 8215  41.358  30.658   1.198
42989W        W 8216   2.398   7.284   2.748
42990W        W 8217  32.482   1.833  14.433
42991W        W 8218  11.611   0.995   0.076
42992W        W 8219   6.290  23.420  12.871
42993W        W 8220  14.300  11.693  14.791
42994W        W 8221  43.301   6.379   0.491
42995W        W 8222  41.978  10.663   3.551
42996W        W 8223  13.762   6.012  12.661
42997W        W 8224  13.181  19.700  13.298
42998W        W 8225  29.631   1.660   3.177
42999W        W 8226  38.622  44.777   4.183
43000W        W 8227  31.071  28.924  14.853
43001W        W 8228  31.603  28.929   3.645
43002W        W 8229   7.340  41.964   3.285
43003W        W 8230  28.579  18.054   3.165
43004W        W 8231  38.145  20.853  12.151
43005W        W 8232  11.370  18.050  12.985
43006W        W 8233  29.396  11.172   1.638
43007W        W 8234  23.483  18.196   0.883
43008W        W 8235  25.253  40.498  14.718
43009W        W 8236  16.230  34.302  10.920
43010W        W 8237  26.019  16.078  12.424
43011W        W 8238  38.988  17.071  12.574
43012W        W 8239  25.600  40.985   3.964
43013W        W 8240  44.305   4.697  13.699
43014W        W 8241  12.199  41.939  12.971
43015W        W 8242  13.627  28.968   3.216
43016W        W 8243   0.878  16.164   4.715
43017W        W 8244   1.992  33.134   1.361
43018W        W 8245  22.540  44.237   4.642
43019W        W 8246  22.482   4.840  12.079
43020W        W 8247  12.502  18.310  10.964
43021W        W 8248   0.012   6.835   0.448
43022W        W 8249  31.946   7.156  12.509
43023W        W 8250  21.087   0.786   4.538
43024W        W 8251  41.166   5.212  13.754
43025W        W 8252  17.677   6.718  14.560
43026W        W 8253  41.946   9.033  10.377
43027W        W 8254  19.267  20.352   3.790
43028W        W 8255   1.222  38.382  13.117
43029W        W 8256  16.234   5.628   1.811
43030W        W 8257  35.604  28.981   2.260
43031W        W 8258  25.897  31.487   4.663
43032W        W 8259  25.806   3.613   2.930
43033W        W 8260  12.531  28.888   1.576
43034W        W 8261  17.070  13.712  11.371
43035W        W 8262  26.436  12.793  14.419
43036W        W 8263   9.905  25.720   1.237
43037W        W 8264  40.321  10.948   3.320
43038W        W 8265  40.804  12.824  12.824
43039W        W 8266  12.382  23.301   4.104
43040W        W 8267  18.731   9.585   2.693
43041W        W 8268  38.967  27.446   0.630
43042W        W 8269  33.959  11.627   1.237
43043W        W 8270  31.462   4.493   3.626
43044W        W 8271   7.929  38.354   4.646
43045W        W 8272  35.518  43.246  11.555
43046W        W 8273   9.197   9.707  10.689
43047W        W 8274  20.951  34.916  12.803
43048W        W 8275  22.135  21.616  10.885
43049W        W 8276  29.856   8.443   2.263
43050W        W 8277  24.164   8.753  11.524
43051W        W 8278  24.688  33.297   3.653
43052W        W 8279  28.057  10.659  14.826
43053W        W 8280  15.057  21.817   0.752
43054W        W 8281  32.815  27.632   2.019
43055W        W 8282  24.453  25.023  11.257
43056W        W 8283  14.125  22.472  14.319
43057W        W 8284   7.783   1.818  13.834
43058W        W 8285  32.351   6.629  13.374
43059W        W 8286   3.867   8.875  11.134
43060W        W 8287  11.491  27.092   0.924
43061W        W 8288  18.797  33.905   1.164
43062W        W 8289  28.078  39.198   1.500
43063W        W 8290  14.888   1.828  14.542
43064W        W 8291  25.554  28.515  10.665
43065W        W 8292   0.523  22.021  12.032
43066W        W 8293  10.162   4.665   0.654
43067W        W 8294   5.862   0.559  11.133
43068W        W 8295  30.166  35.258  13.020
43069W        W 8296  11.192  22.940   4.112
43070W        W 8297  17.319  44.871   4.490
43071W        W 8298  13.711  12.268  13.632
43072W        W 8299  22.924  12.273  12.715
43073W        W 8300  15.659  36.332   1.347
43074W        W 8301  25.157  15.195   1.980
43075W        W 8302  13.387  42.868  12.098
43076W        W 8303  34.920  32.931   3.855
43077W        W 8304  13.581  12.094   0.107
43078W        W 8305  18.599  12.737  14.026
43079W        W 8306  14.792  24.496   2.799
43080W        W 8307  15.653   4.805   0.472
43081W        W 8308  15.582  12.372   1.346
43082W        W 8309  20.433  32.358  13.828
43083W        W 8310  33.753  33.224  13.232
43084W        W 8311  15.041   1.042   2.217
43085W        W 8312  37.125  20.708  14.540
43086W        W 8313  18.796   2.241   1.291
43087W        W 8314  33.547  13.072  13.080
43088W        W 8315  14.562  19.498   5.192
43089W        W 8316  43.849   1.845   3.985
43090W        W 8317   2.037  25.524  13.121
43091W        W 8318  18.537  18.986  14.449
43092W        W 8319  43.654  18.086   4.108
43093W        W 8320  33.753   4.822   2.383
43094W        W 8321  19.036   3.830  14.331
43095W        W 8322   5.636   3.942   1.275
43096W        W 8323  43.284  44.741   4.178
43097W        W 8324  36.045   8.343   0.195
43098W        W 8325   8.395  15.569   2.996
43099W        W 8326   7.335  34.531   1.487
43100W        W 8327  25.520  27.028  11.163
43101W        W 8328  14.924  30.047  12.032
43102W        W 8329  29.661  17.254   0.251
43103W        W 8330  20.028  14.734  12.939
43104W        W 8331  13.501  22.379   5.107
43105W        W 8332   3.360   6.449  14.446
43106W        W 8333  16.790   3.365  10.776
43107W        W 8334  29.454  25.727  12.022
43108W        W 8335  10.701  25.518  12.912
43109W        W 8336  35.156   7.690   1.373
43110W        W 8337  40.979  22.340  11.483
43111W        W 8338  13.547   7.334   3.735
43112W        W 8339  18.627  16.307   3.371
43113W        W 8340   1.411  16.524  10.472
43114W        W 8341  44.125  14.565  11.069
43115W        W 8342   7.120  35.106   3.476
43116W        W 8343  21.103  28.984  14.839
43117W        W 8344  41.235   5.154  12.499
43118W        W 8345  25.095   6.621   1.631
43119W        W 8346  42.287  11.297  12.540
43120W        W 8347  40.040   5.863  14.189
43121W        W 8348   2.684  38.937  14.938
43122W        W 8349  17.085   0.234  11.925
43123W        W 8350  31.654  42.703  11.551
43124W        W 8351  42.975   8.436  10.295
43125W        W 8352  16.254  24.343  12.048
43126W        W 8353  12.058  38.847  13.944
43127W        W 8354  32.135  11.269   3.176
43128W        W 8355  36.506   7.598   0.886
43129W        W 8356  15.249  37.545  12.019
43130W        W 8357  33.974  33.989   0.752
43131W        W 8358   4.684  36.956  10.644
43132W        W 8359  29.597  13.358  11.914
43133W        W 8360   6.443  19.533   4.881
43134W        W 8361  32.607  15.652  10.710
43135W        W 8362  23.470  10.779  11.378
43136W        W 8363   4.193   3.751  14.801
43137W        W 8364   0.249  27.466   1.784
43138W        W 8365   6.530  25.466   3.364
43139W        W 8366  29.140  43.075   0.246
43140W        W 8367  15.368  24.233  12.703
43141W        W 8368  42.803  11.176  12.222
43142W        W 8369  41.613   2.292   0.323
43143W        W 8370  40.282  19.733  14.358
43144W        W 8371  16.801   9.712  12.450
43145W        W 8372   9.270   9.919   4.855
43146W        W 8373  34.248  14.638   2.214
43147W        W 8374  10.893   4.220  14.072
43148W        W 8375  10.928  26.735  11.170
43149W        W 8376  26.066  39.519   4.532
43150W        W 8377   3.137  11.695   2.823
43151W        W 8378   8.818  18.751  13.085
43152W        W 8379  28.845  29.349   2.910
43153W        W 8380  33.813  22.118   3.342
43154W        W 8381  15.272  15.099   3.191
43155W        W 8382  35.546  43.941   2.869
43156W        W 8383   7.751  13.149  13.698
43157W        W 8384  22.892  41.968  13.420
43158W        W 8385  17.672  43.175  14.062
43159W        W 8386  18.802  31.908  11.623
43160W        W 8387  18.023   8.903   4.082
43161W        W 8388  23.769  20.162  11.547
43162W        W 8389  28.995  12.137   1.846
43163W        W 8390  15.781  41.392  10.292
43164W        W 8391  31.012  20.597   0.817
43165W        W 8392  36.616   7.216   1.816
43166W        W 8393   6.494  29.624   4.137
43167W        W 8394  16.116  25.548  12.217
43168W        W 8395  34.955  36.059   2.667
43169W        W 8396  41.368   4.084   1.054
43170W        W 8397  14.668   8.813  10.725
43171W        W 8398  13.829   8.703   1.151
43172W        W 8399  10.621  16.141  14.549
43173W        W 8400   4.965  44.559   0.260
43174W        W 8401  30.421  34.069  14.130
43175W        W 8402   2.200  29.965  14.814
43176W        W 8403  32.526  33.344   0.001
43177W        W 8404  37.439  40.990  13.963
43178W        W 8405  37.825  12.766   1.145
43179W        W 8406  32.401  15.724  13.458
43180W        W 8407  20.340   6.655   4.079
43181W        W 8408  23.732  32.121   2.662
43182W        W 8409  11.145  44.523   3.186
43183W        W 8410   4.022  36.828   3.305
43184W        W 8411  38.284  19.999   4.871
43185W        W 8412   0.352  27.924   1.543
43186W        W 8413   7.718  19.197  10.936
43187W        W 8414  13.524   3.389   3.101
43188W        W 8415  14.124   2.197   2.172
43189W        W 8416  39.563  15.414   0.238
43190W        W 8417  44.578  34.937  13.465
43191W        W 8418  10.899  13.598   1.216
43192W        W 8419  19.746  37.920  10.803
43193W        W 8420  12.249  18.535   0.449
43194W        W 8421  31.908  13.531  12.979
43195W        W 8422  26.390  35.788  13.825
43196W        W 8423  44.630  37.916  14.615
43197W        W 8424   1.438  37.076  10.932
43198W        W 8425   5.292  33.642   0.501
43199W        W 8426  38.421   3.735  14.943
43200W        W 8427  37.506   7.736  11.239
43201W        W 8428   8.774  34.311   3.625
43202W        W 8429  29.559  12.705   2.390
43203W        W 8430  14.274  20.407   1.682
43204W        W 8431  22.691  19.497   2.244
43205W        W 8432   6.828  31.045   3.126
43206W        W 8433   8.870  27.521   1.868
43207W        W 8434  13.307  36.958  12.031
43208W        W 8435  40.435  42.875  10.905
43209W        W 8436  20.182  27.497   0.692
43210W        W 8437  28.948  18.561  11.388
43211W        W 8438  40.985  23.597   3.513
43212W        W 8439  17.649   1.916  14.587
43213W        W 8440  34.098  10.458   3.675
43214W        W 8441  22.832  17.813   1.921
43215W        W 8442   4.862  39.221  13.391
43216W        W 8443  13.581   9.576   1.226
43217W        W 8444   8.416   5.710   1.946
43218W        W 8445  27.341  23.107  12.905
43219W        W 8446  38.708  31.947  14.291
43220W        W 8447  15.826   0.530  11.654
43221W        W 8448  17.249  29.364   3.390
43222W        W 8449   2.894  20.457  12.087
43223W        W 8450   8.185   3.454   0.896
43224W        W 8451  29.959  18.203  12.622
43225W        W 8452  38.404  10.695   1.352
43226W        W 8453  13.714  14.309  13.936
43227W        W 8454  25.670   5.983   3.732
43228W        W 8455  38.779  42.111  11.653
43229W        W 8456  40.387  17.528  14.944
43230W        W 8457  43.627  44.913   0.809
43231W        W 8458  18.979   7.278   1.238
43232W        W 8459  13.751  24.501  11.288
43233W        W 8460   3.478  41.250   4.427
43234W        W 8461   4.625   0.502   1.707
43235W        W 8462  41.033  18.533   1.841
43236W        W 8463  19.683  14.762   3.273
43237W        W 8464  21.097  22.954  14.850
43238W        W 8465   4.868  31.750  14.430
43239W        W 8466  25.078  39.349   4.103
43240W        W 8467   1.089  36.807  13.375
43241W        W 8468  43.483  16.628  11.753
43242W        W 8469  14.037  17.171   2.164
43243W        W 8470  39.455  38.258  14.507
43244W        W 8471  12.604  31.656   0.764
43245W        W 8472   9.662  41.936  14.546
43246W        W 8473   0.946  42.408  13.340
43247W        W 8474  10.326  24.606  11.811
43248W        W 8475  20.181  38.123  14.836
43249W        W 8476  19.702  38.585   4.114
43250W        W 8477  20.658  23.009   1.891
43251W        W 8478  22.588  44.343  13.138
43252W        W 8479  34.655   0.677  10.704
43253W        W 8480  39.292  30.635  12.764
43254W        W 8481   6.836  36.730  11.227
43255W        W 8482  18.262   8.241  13.553
43256W        W 8483  40.639  21.401  13.064
43257W        W 8484   5.690  42.558   0.692
43258W        W 8485   4.884  20.216   2.643
43259W        W 8486  29.493  15.129  13.013
43260W        W 8487  36.985  40.845   2.259
43261W        W 8488  28.153   3.244  10.147
43262W        W 8489  22.170   2.377   2.829
43263W        W 8490  34.994  11.601   5.266
43264W        W 8491   8.390  30.055  10.804
43265W        W 8492  24.579  27.112   3.134
43266W        W 8493   3.827   1.813  10.253
43267W        W 8494  30.664   5.923   4.049
43268W        W 8495  10.663  15.859  12.924
43269W        W 8496  12.903   7.104   2.312
43270W        W 8497  39.065  12.363  14.230
43271W        W 8498  36.951  36.214   4.604
43272W        W 8499  27.499  38.498   9.744
43273W        W 8500  32.081  29.988  14.811
43274W        W 8501  40.724  42.514   4.372
43275W        W 8502  15.140  18.484   1.287
43276W        W 8503  30.808  37.237   2.780
43277W        W 8504  38.928  38.570   0.715
43278W        W 8505  13.264  43.037   3.787
43279W        W 8506  21.086  19.682   3.253
43280W        W 8507  15.517  10.321   3.809
43281W        W 8508   0.800   9.295   4.131
43282W        W 8509  28.299   0.284   4.734
43283W        W 8510  26.167  20.480  14.409
43284W        W 8511  29.042  43.463   1.395
43285W        W 8512  37.564   7.472  10.466
43286W        W 8513   0.821  16.326  12.545
43287W        W 8514   8.866   6.775  12.450
43288W        W 8515   6.674   1.457  14.854
43289W        W 8516  38.953  18.152   1.149
43290W        W 8517  24.716  35.020  14.191
43291W        W 8518  23.501  28.594   0.348
43292W        W 8519  12.766   2.228   1.068
43293W        W 8520  30.966  23.240  11.922
43294W        W 8521  40.947  11.096   4.846
43295W        W 8522  32.347  13.780  14.361
43296W        W 8523   7.224  20.086   4.081
43297W        W 8524  37.313  29.243   3.280
43298W        W 8525  25.535  39.555   4.313
43299W        W 8526   8.523  15.438  10.256
43300W        W 8527  12.551  40.098  12.169
43301W        W 8528  23.314  42.592  13.945
43302W        W 8529  17.569  38.940   0.390
43303W        W 8530   2.749  44.453  11.714
43304W        W 8531   3.466   8.654   3.299
43305W        W 8532   2.780   6.414   3.334
43306W        W 8533   6.732   8.541  14.460
43307W        W 8534  30.571  21.411  12.582
43308W        W 8535  43.123  24.471   0.814
43309W        W 8536  30.152  16.453  14.966
43310W        W 8537  25.711  24.018   2.425
43311W        W 8538  14.816   2.268  11.777
43312W        W 8539   2.416   9.805   2.997
43313W        W 8540  30.111  22.963   2.942
43314W        W 8541  34.493  33.998   5.014
43315W        W 8542  18.599  31.063   1.622
43316W        W 8543  24.746  12.416   3.056
43317W        W 8544  21.811   0.678  12.485
43318W        W 8545   3.819  28.952  11.589
43319W        W 8546  20.313   8.787  13.455
43320W        W 8547  31.001  26.068   2.787
43321W        W 8548   4.564  28.070   4.515
43322W        W 8549  18.640  24.189   4.944
43323W        W 8550  26.833  10.637  12.048
43324W        W 8551  32.843  25.862   2.287
43325W        W 8552  34.324  26.674   3.185
43326W        W 8553  43.024  15.904  12.817
43327W        W 8554  27.615   7.293  10.672
43328W        W 8555   2.192  38.433  12.908
43329W        W 8556  30.638  11.857   0.352
43330W        W 8557   4.837  20.514   1.258
43331W        W 8558  30.611  16.165  13.774
43332W        W 8559  35.296   5.331  11.603
43333W        W 8560  12.234  19.369  12.429
43334W        W 8561   8.357  34.882  13.955
43335W        W 8562  19.063  37.657  11.455
43336W        W 8563  43.942  41.044   3.066
43337W        W 8564  24.956  20.391   4.935
43338W        W 8565  43.908  17.376   4.591
43339W        W 8566   7.813  36.052   4.181
43340W        W 8567  12.600  11.264  10.568
43341W        W 8568   5.213  32.731  14.490
43342W        W 8569   3.272  34.388  13.172
43343W        W 8570   5.832  18.287  13.246
43344W        W 8571  41.891  11.324   0.402
43345W        W 8572  36.586   1.375  12.856
43346W        W 8573  30.589  20.782  13.173
43347W        W 8574   3.908  11.875   1.215
43348W        W 8575  32.480   0.425   0.028
43349W        W 8576   7.678  22.550   2.306
43350W        W 8577  20.013   4.607   0.470
43351W        W 8578   5.950  18.113   2.352
43352W        W 8579  16.036  41.429   4.323
43353W        W 8580  16.920  14.730   0.390
43354W        W 8581  42.352  30.427  13.014
43355W        W 8582   9.953  31.329   1.624
43356W        W 8583  27.545  34.514   3.050
43357W        W 8584   2.961  23.123  13.831
43358W        W 8585  13.081  25.097  14.657
43359W        W 8586  42.313  28.991   0.811
43360W        W 8587  18.575  28.910  14.417
43361W        W 8588  17.083  40.411  12.467
43362W        W 8589  25.529   3.314   0.191
43363W        W 8590  15.491   7.199  11.105
43364W        W 8591  33.881  42.534   4.205
43365W        W 8592  43.871   6.873   0.795
43366W        W 8593  34.574  14.624   4.079
43367W        W 8594  35.552  19.618   4.320
43368W        W 8595  11.194  34.577   1.576
43369W        W 8596  18.553  38.715   2.839
43370W        W 8597  31.270  41.864   4.547
43371W        W 8598   0.347  14.111   4.120
43372W        W 8599  17.282  21.571  11.202
43373W        W 8600  33.402  11.178   1.017
43374W        W 8601  10.834  17.346  12.045
43375W        W 8602   1.667  36.573   4.201
43376W        W 8603  19.331  43.956  10.667
43377W        W 8604  34.830  14.744   1.337
43378W        W 8605  14.684  29.951   2.712
43379W        W 8606  39.120   8.371  10.569
43380W        W 8607  22.606  33.937   3.371
43381W        W 8608   7.356  38.106  13.421
43382W        W 8609  31.381  15.031  12.141
43383W        W 8610  23.104  42.002  11.781
43384W        W 8611   5.728  30.854  14.374
43385W        W 8612   7.355  20.976   2.738
43386W        W 8613  25.123  11.709   2.623
43387W        W 8614  27.440  37.778  11.626
43388W        W 8615  18.069  18.639   3.676
43389W        W 8616  12.798  13.195   2.104
43390W        W 8617  15.624  16.606   4.161
43391W        W 8618  25.654  38.994  12.546
43392W        W 8619   2.613   2.464  14.945
43393W        W 8620  42.537  20.717  14.846
43394W        W 8621   1.468  43.301   2.563
43395W        W 8622   5.480  26.524   4.227
43396W        W 8623  40.740   9.085   1.664
43397W        W 8624   8.290  22.068   3.003
43398W        W 8625  31.083  20.566   2.834
43399W        W 8626  13.635  11.082   0.298
43400W        W 8627  24.055  16.939  12.389
43401W        W 8628  40.799  24.468  11.414
43402W        W 8629  12.135  39.723  13.992
43403W        W 8630   6.793   2.728  14.920
43404W        W 8631   8.044  37.493   2.710
43405W        W 8632  26.508  33.756  14.286
43406W        W 8633   6.843  18.508   1.540
43407W        W 8634   6.341  24.634   1.161
43408W        W 8635  23.321  23.628   4.514
43409W        W 8636  37.321  25.750  13.761
43410W        W 8637   3.512  31.792   2.448
43411W        W 8638  33.800  23.457   1.252
43412W        W 8639  11.280  40.061   2.216
43413W        W 8640  36.458  15.262  13.408
43414W        W 8641  11.104  38.927  14.260
43415W        W 8642  33.711  39.428  11.071
43416W        W 8643  25.211  27.179   4.104
43417W        W 8644  12.360  10.889   3.577
43418W        W 8645   1.673   1.462  12.906
43419W        W 8646  24.394  40.014  12.027
43420W        W 8647  11.761  28.433   1.774
43421W        W 8648  37.783  44.377  10.761
43422W        W 8649  37.755  25.457  14.664
43423W        W 8650  23.987  42.887   2.687
43424W        W 8651  20.633   1.401  13.854
43425W        W 8652  12.741   0.269   3.108
43426W        W 8653  23.285  29.529  11.455
43427W        W 8654   0.304  32.457   1.795
43428W        W 8655  41.993  30.699   2.186
43429W        W 8656   1.920  14.588  12.116
43430W        W 8657  41.597   8.468   0.828
43431W        W 8658  33.093  17.869  13.391
43432W        W 8659  40.824  23.455  12.320
43433W        W 8660  29.638   7.152  14.099
43434W        W 8661  22.712  34.391  12.601
43435W        W 8662  41.283  21.713   0.847
43436W        W 8663  20.601   9.386  14.583
43437W        W 8664  20.826  30.892  11.953
43438W        W 8665  37.728  41.570  14.039
43439W        W 8666  34.117  43.326  14.098
43440W        W 8667   5.103   8.208   0.036
43441W        W 8668   6.820  26.430   0.766
43442W        W 8669  20.633  38.550   4.185
43443W        W 8670  32.044  16.546   0.496
43444W        W 8671  11.916  31.007  13.685
43445W        W 8672  37.368  14.646   2.304
43446W        W 8673  13.341  36.396   4.000
43447W        W 8674  38.815  30.119   4.835
43448W        W 8675  25.234  27.443  13.875
43449W        W 8676  34.606  20.155   1.432
43450W        W 8677  44.210  20.601   1.755
43451W        W 8678  12.328   8.716   1.753
43452W        W 8679   5.610  37.005   1.884
43453W        W 8680  33.637  14.711  11.483
43454W        W 8681  41.930  18.365  11.656
43455W        W 8682  13.970  12.197   2.691
43456W        W 8683  29.920  41.753   2.729
43457W        W 8684  11.309  10.612   0.295
43458W        W 8685  33.240  15.254  12.210
43459W        W 8686  14.888  17.138  14.684
43460W        W 8687  31.403  44.808   0.377
43461W        W 8688   5.144  24.050   1.806
43462W        W 8689  26.075  14.686   3.676
43463W        W 8690   9.685  12.204  13.795
43464W        W 8691  22.637  33.011  14.875
43465W        W 8692  44.771  31.952   4.357
43466W        W 8693  26.674   7.648   2.516
43467W        W 8694  16.818  30.516   4.466
43468W        W 8695  10.573  38.019  14.323
43469W        W 8696  19.697  40.919  13.589
43470W        W 8697  19.544  19.530   3.282
43471W        W 8698  23.702  12.120   4.184
43472W        W 8699  11.207  15.869  11.018
43473W        W 8700  32.684   7.801  10.861
43474W        W 8701   7.337  26.959   4.568
43475W        W 8702  32.851  18.419   4.087
43476W        W 8703  36.079   5.392   1.735
43477W        W 8704  36.610  23.977   2.921
43478W        W 8705   0.535   2.322  13.299
43479W        W 8706  35.960  31.021  14.383
43480W        W 8707  16.493  19.788   1.835
43481W        W 8708  42.038  34.170   2.718
43482W        W 8709  39.295  22.973   4.158
43483W        W 8710  11.698  40.267  14.208
43484W        W 8711  22.572  22.163  14.765
43485W        W 8712  13.825  42.117  13.517
43486W        W 8713   6.676  22.768   3.275
43487W        W 8714  18.311  28.077  12.019
43488W        W 8715  21.228  23.371   1.925
43489W        W 8716   3.095  40.857  12.525
43490W        W 8717   0.900   7.163   2.726
43491W        W 8718  36.922  36.320   2.082
43492W        W 8719  25.068  44.772  14.686
43493W        W 8720  13.096   9.630   2.833
43494W        W 8721  33.063   1.198  13.904
43495W        W 8722   2.930  30.979   5.496
43496W        W 8723   2.043  37.289   3.709
43497W        W 8724   9.153  17.230   4.249
43498W        W 8725   0.451  15.572   1.295
43499W        W 8726  13.776  40.275   4.528
43500W        W 8727  21.666   9.462   3.823
43501W        W 8728  10.772   3.391   1.778
43502W        W 8729  33.051  30.277  12.406
43503W        W 8730  43.337  11.140   0.596
43504W        W 8731  40.337   4.466   4.541
43505W        W 8732   0.832  41.210   3.677
43506W        W 8733  11.038  10.752   1.906
43507W        W 8734   7.381   2.687   0.793
43508W        W 8735  14.223  38.384   2.655
43509W        W 8736   1.448  38.384   2.949
43510W        W 8737  44.453   3.905   3.681
43511W        W 8738  34.831   7.877   0.043
43512W        W 8739  10.494   3.145  11.216
43513W        W 8740   3.007  25.014  14.865
43514W        W 8741   8.178  25.191  14.758
43515W        W 8742   7.644  23.852  10.227
43516W        W 8743   0.178  19.710  12.592
43517W        W 8744  17.421  34.105  13.762
43518W        W 8745  42.814  17.045  11.265
43519W        W 8746  10.764  22.696   4.245
43520W        W 8747  36.898  43.209  12.512
43521W        W 8748  36.619  38.959   3.711
43522W        W 8749  28.788   5.275   3.126
43523W        W 8750  33.201  27.846  11.257
43524W        W 8751  27.283   5.884  12.712
43525W        W 8752  15.983  25.162   0.545
43526W        W 8753  15.419  38.600   1.001
43527W        W 8754  39.737  17.223  13.894
43528W        W 8755   6.671   9.360  12.992
43529W        W 8756  10.640  33.016   1.244
43530W        W 8757  11.252   8.079   4.687
43531W        W 8758  31.881  33.450  12.734
43532W        W 8759  15.645  34.457  12.564
43533W        W 8760  25.520   3.940   3.652
43534W        W 8761  29.943  15.283  12.820
43535W        W 8762   6.628  27.148   0.029
43536W        W 8763  22.161  27.453  11.161
43537W        W 8764  40.294  26.904   3.616
43538W        W 8765  34.126  23.428   0.829
43539W        W 8766  38.039  40.277  12.153
43540W        W 8767  44.237  26.718   9.934
43541W        W 8768  22.916  15.490  11.067
43542W        W 8769  38.023  41.427  14.437
43543W        W 8770  32.336   9.315   4.713
43544W        W 8771  21.018  14.860   1.563
43545W        W 8772  21.106  15.620   2.597
43546W        W 8773   5.818   3.384  12.960
43547W        W 8774  27.512   4.380   4.350
43548W        W 8775  37.306  23.279  12.414
43549W        W 8776  19.530  15.781   2.778
43550W        W 8777  21.067  32.984  13.809
43551W        W 8778  12.857  21.650   0.599
43552W        W 8779  31.345  41.616   2.340
43553W        W 8780  15.217  18.500  13.037
43554W        W 8781  27.297  37.083  13.073
43555W        W 8782  18.782  14.126   2.086
43556W        W 8783  19.268   2.801  10.530
43557W        W 8784  36.200  26.053  14.705
43558W        W 8785  35.540   8.456  12.920
43559W        W 8786  21.883  19.572   4.615
43560W        W 8787  23.538  10.588   2.777
43561W        W 8788  24.662  26.069  14.790
43562W        W 8789  26.523  17.025  13.453
43563W        W 8790  39.652  35.096  14.334
43564W        W 8791  27.624  31.540   3.689
43565W        W 8792  44.492  11.185  10.637
43566W        W 8793  23.892  22.754  14.376
43567W        W 8794  40.581   1.168   1.831
43568W        W 8795  16.656  26.320   1.630
43569W        W 8796  16.582  33.035   2.594
43570W        W 8797  19.843   1.041   0.665
43571W        W 8798   8.634  29.662  11.132
43572W        W 8799   8.834  38.889  10.435
43573W        W 8800  32.597  23.077  10.765
43574W        W 8801  42.365   1.830   4.321
43575W        W 8802  17.118  27.167  12.033
43576W        W 8803  15.011  36.153   4.194
43577W        W 8804  39.422  15.137   0.675
43578W        W 8805   8.083  43.056   1.712
43579W        W 8806  15.433   9.776   2.175
43580W        W 8807  30.884  35.570  10.534
43581W        W 8808   4.824  33.818   0.039
43582W        W 8809  13.465  24.019  12.161
43583W        W 8810  15.089  41.754   0.949
43584W        W 8811   4.478  23.703   3.903
43585W        W 8812   4.870   2.252   0.108
43586W        W 8813  14.336  23.659  14.299
43587W        W 8814  19.670   0.205   3.869
43588W        W 8815   8.218  32.494   0.314
43589W        W 8816  17.292  40.407   3.568
43590W        W 8817  33.385  40.760  11.143
43591W        W 8818  44.290  11.802   2.545
43592W        W 8819  25.447  16.001  11.054
43593W        W 8820  35.740  24.476  14.488
43594W        W 8821  43.815  33.640  14.365
43595W        W 8822  13.183  22.545  10.288
43596W        W 8823  43.039   4.177   1.841
43597W        W 8824  31.938  12.918  12.383
43598W        W 8825  44.006  28.678  14.467
43599W        W 8826  21.366  33.995  12.012
43600W        W 8827  23.661  20.471  11.952
43601W        W 8828  32.195   7.983  10.682
43602W        W 8829  26.685  14.627  10.368
43603W        W 8830   7.956  17.211   2.510
43604W        W 8831  17.653  28.444   2.024
43605W        W 8832  30.614  31.404  11.483
43606W        W 8833  36.861   0.439  12.119
43607W        W 8834  29.453  12.632   3.932
43608W        W 8835  13.718  28.498  14.192
43609W        W 8836  24.334  26.698   5.110
43610W        W 8837   6.631  10.898   0.836
43611W        W 8838  40.583  25.472   1.927
43612W        W 8839  44.023  26.546  13.449
43613W        W 8840  24.254  43.924   3.209
43614W        W 8841  10.795   7.459   0.965
43615W        W 8842  16.175   2.824  13.941
43616W        W 8843  10.766   0.901  13.884
43617W        W 8844  39.106  31.184  11.518
43618W        W 8845  36.042  18.924   1.935
43619W        W 8846  42.631  14.890   2.674
43620W        W 8847   0.917  12.177  13.387
43621W        W 8848   1.776  43.669   0.824
43622W        W 8849  44.321  31.143   1.487
43623W        W 8850  29.242  17.007  12.437
43624W        W 8851  15.525  10.531  11.250
43625W        W 8852  26.805  19.269  14.263
43626W        W 8853  37.434  35.425  10.701
43627W        W 8854  41.912  26.379  11.237
43628W        W 8855   4.909  18.258  13.306
43629W        W 8856   2.550  40.050  11.683
43630W        W 8857  42.559   1.081  13.542
43631W        W 8858  15.163  33.189  12.367
43632W        W 8859  27.099  13.702   2.641
43633W        W 8860  27.650  21.226  14.494
43634W        W 8861  42.923   7.374   3.072
43635W        W 8862   0.512  26.126   0.320
43636W        W 8863  24.082   4.803  12.910
43637W        W 8864  30.083  37.287   1.450
43638W        W 8865  25.118  14.662   3.231
43639W        W 8866  34.012  31.021  14.967
43640W        W 8867  18.120  33.554   4.599
43641W        W 8868   2.851  19.898  13.433
43642W        W 8869  29.421  21.478   0.782
43643W        W 8870   5.719   1.636   1.363
43644W        W 8871  35.363  37.551   2.208
43645W        W 8872  22.438   1.448  13.580
43646W        W 8873  21.043  43.436  11.167
43647W        W 8874  35.896   4.758  13.964
43648W        W 8875  37.820   0.289   1.212
43649W        W 8876  15.849  24.963   2.794
43650W        W 8877   2.441  19.509   3.855
43651W        W 8878  20.469  13.424   1.458
43652W        W 8879  21.591  35.984   1.421
43653W        W 8880  41.400   6.093  13.827
43654W        W 8881   5.743   8.241   2.774
43655W        W 8882  11.646  14.371  10.086
43656W        W 8883   2.363  18.620  14.567
43657W        W 8884  36.306   4.270   0.227
43658W        W 8885  40.161   8.690  14.237
43659W        W 8886  20.989   0.806  10.286
43660W        W 8887  35.273  42.366  11.541
43661W        W 8888  10.173  29.541   0.786
43662W        W 8889  10.781  24.306   4.739
43663W        W 8890  13.867  18.794  11.552
43664W        W 8891  31.605   9.679   5.588
43665W        W 8892  42.328  14.409   0.375
43666W        W 8893  26.701  38.757   3.616
43667W        W 8894  40.811  16.249  14.151
43668W        W 8895   7.164  24.111  11.222
43669W        W 8896   6.437  20.157  13.402
43670W        W 8897   0.175  36.762   1.898
43671W        W 8898   8.658  28.091  13.385
43672W        W 8899   1.676  17.124   2.399
43673W        W 8900  31.099  11.849  12.942
43674W        W 8901  29.737  34.514   0.337
43675W        W 8902  18.509  21.339   0.795
43676W        W 8903  27.511   2.256  13.350
43677W        W 8904  19.581  33.178  14.378
43678W        W 8905  30.444  22.467   4.565
43679W        W 8906  18.275   6.245   0.556
43680W        W 8907  15.257  25.557  10.839
43681W        W 8908  40.883   5.843   1.395
43682W        W 8909  10.231  43.289   1.360
43683W        W 8910  33.177   6.644   4.779
43684W        W 8911  41.734  29.180   4.145
43685W        W 8912  23.521  25.687   4.108
43686W        W 8913   3.333   0.352  13.926
43687W        W 8914  18.094  12.686  14.103
43688W        W 8915  14.544  31.856  13.814
43689W        W 8916  37.502  39.068   2.622
43690W        W 8917   4.851  14.295  10.126
43691W        W 8918  18.368  18.020  11.979
43692W        W 8919  41.388   4.365   2.465
43693W        W 8920  25.415   2.289   2.119
43694W        W 8921  34.435  26.874   1.258
43695W        W 8922   5.875  37.556   3.921
43696W        W 8923  15.633  18.203  14.074
43697W        W 8924  31.547   7.628   1.192
43698W        W 8925  23.565   5.113  12.512
43699W        W 8926  43.780  38.067   1.346
43700W        W 8927  18.206  14.109  10.691
43701W        W 8928  42.890   6.975   0.883
43702W        W 8929  15.659   7.917   0.869
43703W        W 8930  10.048  31.533  14.497
43704W        W 8931   3.999  18.185   3.423
43705W        W 8932   7.319  10.670  13.103
43706W        W 8933  14.181  38.392  13.037
43707W        W 8934  16.748   0.824   4.658
43708W        W 8935   6.211   0.913  11.674
43709W        W 8936  35.876   7.779  14.286
43710W        W 8937   4.884   3.637   1.622
43711W        W 8938  10.102  20.640   2.709
43712W        W 8939  34.090   6.702  11.969
43713W        W 8940  25.170  19.650   4.260
43714W        W 8941  29.702  27.671  12.636
43715W        W 8942  17.700  13.766  14.883
43716W        W 8943  27.965   5.977  11.608
43717W        W 8944  44.238  26.805  10.436
43718W        W 8945  14.925  17.271  10.802
43719W        W 8946   3.463  23.788   4.465
43720W        W 8947  12.008  16.551  12.355
43721W        W 8948  25.629   1.455  14.782
43722W        W 8949  22.948  37.922   3.614
43723W        W 8950   9.682  37.953   4.173
43724W        W 8951  21.903  13.914  13.519
43725W        W 8952  24.550  17.086  12.582
43726W        W 8953  30.968  24.540   3.768
43727W        W 8954  10.218   9.800  12.805
43728W        W 8955  26.698  36.508  10.570
43729W        W 8956  11.492   6.958  12.346
43730W        W 8957  11.184  14.380   2.173
43731W        W 8958  29.879  29.457  11.188
43732W        W 8959   7.985   1.688  12.839
43733W        W 8960  25.591  17.050   2.330
43734W        W 8961  27.615  21.038  11.523
43735W        W 8962  16.083  31.000  14.967
43736W        W 8963  29.582   7.271   1.542
43737W        W 8964  35.313  21.736  12.082
43738W        W 8965  44.016  39.056  12.571
43739W        W 8966  28.341  26.694   4.559
43740W        W 8967  11.285  26.610  14.560
43741W        W 8968  44.934  18.480  12.839
43742W        W 8969  28.976   7.150  12.369
43743W        W 8970   4.970  39.175  11.068
43744W        W 8971  12.135  27.884  12.201
43745W        W 8972  33.230  14.794  10.673
43746W        W 8973  10.728   1.411  13.984
43747W        W 8974  16.626  38.755   4.983
43748W        W 8975   7.816  18.672   1.049
43749W        W 8976  26.315   9.510  14.799
43750W        W 8977  11.665  26.929   1.609
43751W        W 8978  11.789  44.371   2.391
43752W        W 8979  23.232  24.508   4.618
43753W        W 8980  37.383  10.961  10.792
43754W        W 8981  38.447  21.026   4.634
43755W        W 8982  28.700  23.237   2.724
43756W        W 8983  41.086  23.735  10.650
43757W        W 8984   2.675  35.921  11.184
43758W        W 8985  20.975   9.227  14.906
43759W        W 8986  21.118  25.676  13.448
43760W        W 8987  29.573  36.232  10.712
43761W        W 8988  29.195  19.405   1.279
43762W        W 8989  15.171   8.216   1.699
43763W        W 8990  26.488  33.391   3.568
43764W        W 8991  40.624  35.637  12.357
43765W        W 8992  27.567  36.843  10.609
43766W        W 8993  36.946  40.639   4.915
43767W        W 8994   5.385  42.989   0.875
43768W        W 8995  24.640  17.779   1.722
43769W        W 8996  24.859  21.567  14.024
43770W        W 8997  17.630  27.178  13.101
43771W        W 8998  17.049  12.346  13.516
43772W        W 8999  42.857  11.311   0.370
43773W        W 9000  41.772  37.661  14.974
43774W        W 9001  37.022  12.186  14.370
43775W        W 9002  28.811   4.570   0.936
43776W        W 9003  15.527  42.127   2.204
43777W        W 9004   6.786  15.993   3.672
43778W        W 9005  27.420  27.507   4.231
43779W        W 9006  35.563  33.089  11.753
43780W        W 9007   1.429  42.822   1.159
43781W        W 9008   4.106  38.400   1.722
43782W        W 9009  26.996  33.699   3.541
43783W        W 9010   9.722   2.302  12.941
43784W        W 9011  34.383  31.008   2.219
43785W        W 9012  33.090  22.527  11.467
43786W        W 9013  43.752   9.448   1.964
43787W        W 9014  42.942  27.560   0.303
43788W        W 9015   1.791  15.534  13.447
43789W        W 9016  34.845  25.981  14.599
43790W        W 9017  14.600  41.098   1.541
43791W        W 9018   8.657  41.436   1.343
43792W        W 9019  18.757  14.373  14.429
43793W        W 9020  30.870  27.414   2.738
43794W        W 9021  32.334   1.749   0.360
43795W        W 9022  26.566  40.064   1.889
43796W        W 9023  23.494  13.368   3.227
43797W        W 9024  13.789  36.293   4.738
43798W        W 9025   7.645   7.316   4.105
43799W        W 9026  40.962   0.717   1.852
43800W        W 9027   6.785   9.293  14.920
43801W        W 9028  14.230  12.966   2.292
43802W        W 9029  31.610   8.920   1.858
43803W        W 9030   5.858  21.785   1.402
43804W        W 9031  35.589  20.033   1.250
43805W        W 9032  22.589  31.926  14.951
43806W        W 9033  27.646  37.772  14.871
43807W        W 9034  20.597  20.434  14.403
43808W        W 9035  17.739   9.697   0.032
43809W        W 9036  19.579  26.582  12.515
43810W        W 9037  13.161   4.484  14.012
43811W        W 9038  17.082  26.070  13.801
43812W        W 9039   8.897   6.217  12.480
43813W        W 9040  16.154   3.251  14.396
43814W        W 9041  29.423  19.000   3.731
43815W        W 9042   2.022  22.974  10.149
43816W        W 9043   2.638   1.613  13.014
43817W        W 9044  27.137  37.624  10.797
43818W        W 9045  44.035  35.042   0.350
43819W        W 9046  39.900   3.492  11.002
43820W        W 9047  12.233  12.619  13.392
43821W        W 9048  35.412  16.941   2.799
43822W        W 9049  21.317  20.668  11.237
43823W        W 9050  13.669   3.003  14.894
43824W        W 9051   1.817   1.302  12.046
43825W        W 9052  21.121  30.400   1.346
43826W        W 9053  18.761   6.166  13.768
43827W        W 9054  31.416  30.590   4.371
43828W        W 9055  32.817   0.747  14.221
43829W        W 9056  10.705  39.516  10.837
43830W        W 9057   6.880  36.058   1.001
43831W        W 9058  28.805   8.092   4.076
43832W        W 9059   3.381  26.362  13.577
43833W        W 9060  16.585   2.864   3.852
43834W        W 9061  26.971  33.194   3.563
43835W        W 9062  40.253  11.879   4.258
43836W        W 9063  12.886   7.390  13.094
43837W        W 9064  25.166   0.265  12.699
43838W        W 9065  23.228   8.894   0.926
43839W        W 9066  33.938  43.542   4.515
43840W        W 9067   3.707  22.372  11.128
43841W        W 9068  22.577  38.324  13.790
43842W        W 9069  41.270  29.433   4.230
43843W        W 9070  18.597  35.780  14.768
43844W        W 9071  26.767  30.161  12.965
43845W        W 9072   2.373  38.274   3.182
43846W        W 9073  42.053  19.179  11.985
43847W        W 9074   9.872  21.579   3.127
43848W        W 9075   5.759   4.468  14.500
43849W        W 9076  41.036  24.733   0.841
43850W        W 9077  39.321   9.427   4.706
43851W        W 9078  41.530  41.265  14.864
43852W        W 9079  39.320   9.901  12.058
43853W        W 9080  24.683   4.309   2.942
43854W        W 9081   7.072  31.400  12.630
43855W        W 9082   6.097  11.685   4.299
43856W        W 9083  31.705  36.552   1.216
43857W        W 9084  20.328  13.621  10.600
43858W        W 9085   4.403  44.452   3.478
43859W        W 9086  36.617  13.659  10.727
43860W        W 9087   8.216  19.349  12.124
43861W        W 9088  36.331  14.289   3.991
43862W        W 9089  14.648  41.104   3.192
43863W        W 9090  21.892  27.439   4.917
43864W        W 9091   9.282   8.959  12.319
43865W        W 9092  13.376  13.276  13.670
43866W        W 9093  30.713  26.664   0.287
43867W        W 9094   9.699  27.683   1.450
43868W        W 9095   9.450   1.063   1.149
43869W        W 9096  40.538  31.693  13.145
43870W        W 9097  31.504  35.021  10.561
43871W        W 9098   2.351   4.256   0.844
43872W        W 9099  38.083  38.495   2.122
43873W        W 9100  24.212  36.768  12.112
43874W        W 9101  25.133   2.497  14.340
43875W        W 9102  40.263  41.969   2.881
43876W        W 9103  40.551   9.848   0.390
43877W        W 9104  27.865  17.725   3.205
43878W        W 9105   4.971  14.681   4.672
43879W        W 9106  11.469   4.546   0.806
43880W        W 9107  10.670   6.189  12.419
43881W        W 9108  25.478   6.655  11.991
43882W        W 9109  30.866  26.891   2.823
43883W        W 9110  32.115  41.205  14.464
43884W        W 9111  19.305  17.987  13.811
43885W        W 9112  28.641  22.613  12.037
43886W        W 9113   8.740  41.323  10.534
43887W        W 9114  27.690   1.379  10.851
43888W        W 9115  13.303  37.609  14.879
43889W        W 9116  25.531  42.092  14.354
43890W        W 9117   4.030  38.589   0.931
43891W        W 9118   3.454  41.909  14.422
43892W        W 9119  28.347   7.181   1.831
43893W        W 9120   0.002  15.270   0.265
43894W        W 9121  33.593  15.749   1.801
43895W        W 9122  38.868  21.014  14.948
43896W        W 9123  42.198  15.230  12.616
43897W        W 9124  28.327  15.180  14.383
43898W        W 9125  37.007  19.510  12.005
43899W        W 9126  38.759  43.349  11.687
43900W        W 9127  35.884  39.866  11.614
43901W        W 9128  24.354  40.808   0.844
43902W        W 9129  30.509  25.929  13.854
43903W        W 9130   1.690   4.877   2.262
43904W        W 9131  28.681  15.935   2.239
43905W        W 9132  42.388  11.385  12.026
43906W        W 9133  23.580  39.100   1.257
43907W        W 9134   3.841  36.190  14.064
43908W        W 9135   7.424  22.111  12.509
43909W        W 9136  26.716   1.448   1.137
43910W        W 9137  34.441   5.080   0.825
43911W        W 9138   0.230   8.568   2.966
43912W        W 9139  10.599  25.922  11.915
43913W        W 9140  10.671  22.463   0.443
43914W        W 9141  34.472  37.748  12.109
43915W        W 9142  41.373  16.237  10.420
43916W        W 9143  36.316  37.279   2.300
43917W        W 9144   2.123   9.434   0.988
43918W        W 9145  12.199  20.608  10.894
43919W        W 9146  40.603   7.656   0.794
43920W        W 9147  23.132  30.040  13.626
43921W        W 9148   2.787  19.603  13.922
43922W        W 9149   4.605  16.050  12.739
43923W        W 9150   4.697  10.845   2.298
43924W        W 9151  17.056  35.504  12.807
43925W        W 9152  41.260  24.934  12.141
43926W        W 9153   2.880  16.555   1.117
43927W        W 9154  22.013   1.108   3.327
43928W        W 9155  18.296   0.192   1.593
43929W        W 9156  11.608   3.164   1.693
43930W        W 9157  15.386  23.873  11.738
43931W        W 9158   1.290   2.888   3.821
43932W        W 9159  26.899  36.930   1.326
43933W        W 9160  26.840  21.959  11.134
43934W        W 9161   7.973  22.127  12.573
43935W        W 9162  39.993  24.566   4.730
43936W        W 9163   9.798  11.852  12.918
43937W        W 9164  40.980  39.744  11.282
43938W        W 9165  38.140  24.079  12.979
43939W        W 9166  33.584   0.980   1.888
43940W        W 9167   5.022   6.435  11.252
43941W        W 9168  28.173   9.297   1.118
43942W        W 9169   1.665  22.696  10.579
43943W        W 9170  26.107  40.266  13.409
43944W        W 9171   2.693  19.088  13.859
43945W        W 9172  15.622  35.095   1.472
43946W        W 9173  25.393  34.035   2.838
43947W        W 9174  42.834  42.673  11.189
43948W        W 9175  19.734  40.892  12.559
43949W        W 9176  32.924  16.578   1.731
43950W        W 9177  32.346  36.539   2.014
43951W        W 9178  22.952  19.580   4.673
43952W        W 9179  41.357   3.598   3.833
43953W        W 9180  42.834  18.219   4.542
43954W        W 9181  28.059   4.426  13.829
43955W        W 9182  10.193  41.379   3.964
43956W        W 9183  14.354   9.930   3.187
43957W        W 9184   3.168  42.367  11.125
43958W        W 9185  19.942  32.176  10.437
43959W        W 9186  38.010  18.557  13.509
43960W        W 9187   3.219   8.645   2.330
43961W        W 9188  21.305  19.690  10.056
43962W        W 9189  27.682  20.195   1.825
43963W        W 9190  22.476  25.609  12.076
43964W        W 9191  24.116  23.456  10.833
43965W        W 9192  29.108  25.309   0.605
43966W        W 9193  13.462  42.332  13.887
43967W        W 9194  40.263  42.322   4.582
43968W        W 9195  18.764  38.763  10.775
43969W        W 9196  19.469   9.705   1.447
43970W        W 9197   6.516  19.273   1.877
43971W        W 9198  18.821  40.520  12.047
43972W        W 9199   6.711  19.897   3.218
43973W        W 9200  19.113  29.557  14.814
43974W        W 9201  42.985   3.276   2.223
43975W        W 9202  37.491   9.918   0.002
43976W        W 9203  35.509   5.745  13.437
43977W        W 9204  25.761  39.769  10.723
43978W        W 9205  41.903  25.193   1.311
43979W        W 9206  10.028  26.750  11.188
43980W        W 9207  28.037  29.889  11.931
43981W        W 9208  38.765  23.012   4.971
43982W        W 9209   2.216   1.127   1.300
43983W        W 9210  33.000  27.558   3.370
43984W        W 9211   2.861  39.337  10.772
43985W        W 9212  40.326  27.906   4.759
43986W        W 9213  21.524  23.284   2.658
43987W        W 9214  31.483  28.413   0.360
43988W        W 9215  40.044   6.746   2.386
43989W        W 9216  35.825  36.175   0.841
43990W        W 9217  44.493  41.860   3.103
43991W        W 9218  19.757   3.126   2.282
43992W        W 9219  26.220   7.151   1.325
43993W        W 9220  15.640  22.765  10.779
43994W        W 9221  34.858  42.542  13.789
43995W        W 9222  17.560  36.570  12.931
43996W        W 9223  31.678  27.360   1.222
43997W        W 9224  12.838   9.216   0.395
43998W        W 9225  32.072  14.961   0.680
43999W        W 9226  34.963  37.844  12.033
44000W        W 9227  43.698  31.383   0.745
44001W        W 9228  35.055  25.149  14.277
44002W        W 9229  27.099  30.905  11.527
44003W        W 9230  13.187   5.364  10.763
44004W        W 9231  29.937  10.815  14.032
44005W        W 9232   3.433   9.186  13.236
44006W        W 9233   5.695  31.078   0.664
44007W        W 9234  26.550  18.783  11.164
44008W        W 9235  30.488  15.736   0.881
44009W        W 9236  44.752  20.852   3.106
44010W        W 9237  19.797  11.679  12.314
44011W        W 9238   9.085   5.602   3.631
44012W        W 9239  25.200  20.724   2.803
44013W        W 9240  30.597  17.883  13.043
44014W        W 9241  43.721   0.783   4.042
44015W        W 9242   3.866  26.440  14.543
44016W        W 9243   8.079  26.726   0.422
44017W        W 9244  38.577  28.122   4.221
44018W        W 9245   3.423  10.793   4.414
44019W        W 9246  10.142  24.178  14.299
44020W        W 9247  32.283  21.261   3.042
44021W        W 9248  37.497  42.008   2.271
44022W        W 9249  15.954   4.910  12.547
44023W        W 9250  26.776  38.819  12.019
44024W        W 9251  19.784  39.751  10.573
44025W        W 9252  11.006   0.389  12.687
44026W        W 9253  37.523  43.893  10.744
44027W        W 9254  16.097   5.948  13.587
44028W        W 9255  22.460  27.784  11.475
44029W        W 9256  18.589   2.004  14.044
44030W        W 9257  13.931  30.340   2.330
44031W        W 9258  42.117  21.041  11.795
44032W        W 9259  44.300   0.162  12.046
44033W        W 9260  20.594  34.607   1.374
44034W        W 9261  26.036   0.398   1.880
44035W        W 9262  38.873   9.162  10.314
44036W        W 9263  27.631  28.636   2.099
44037W        W 9264  35.792   7.517   5.002
44038W        W 9265  12.804  43.227   3.994
44039W        W 9266  24.667  30.948  12.122
44040W        W 9267  38.331   3.117  12.690
44041W        W 9268   2.212  34.933   0.352
44042W        W 9269   9.852  12.833   3.414
44043W        W 9270  34.277   6.685  12.447
44044W        W 9271   0.438   7.275   2.504
44045W        W 9272  28.617  37.821   0.535
44046W        W 9273  21.709  27.654  12.382
44047W        W 9274   2.457  10.365  12.029
44048W        W 9275  14.269  42.420   3.134
44049W        W 9276  29.203  38.478   1.468
44050W        W 9277   7.973   4.988   4.122
44051W        W 9278  26.120  31.767  10.714
44052W        W 9279   9.949  14.375  14.154
44053W        W 9280  13.007  40.984   2.461
44054W        W 9281   4.665  14.389  13.392
44055W        W 9282   9.410  31.183  13.949
44056W        W 9283  17.624  43.346   4.574
44057W        W 9284  28.410  30.985  14.524
44058W        W 9285   8.337  38.475  13.445
44059W        W 9286   5.258  28.904   3.183
44060W        W 9287   1.775  18.936   5.378
44061W        W 9288  38.574  13.788   4.520
44062W        W 9289  37.257   8.258  14.498
44063W        W 9290  26.422   6.367  13.677
44064W        W 9291  19.916  27.976   2.137
44065W        W 9292  17.016  26.169   1.089
44066W        W 9293   3.088  16.197  13.167
44067W        W 9294  33.671  26.316   0.308
44068W        W 9295  36.454  25.953  12.802
44069W        W 9296  27.472  24.577  10.773
44070W        W 9297   6.908  19.080   0.789
44071W        W 9298  41.282  21.435  14.295
44072W        W 9299  25.813   9.110   3.118
44073W        W 9300  10.919  16.580  14.522
44074W        W 9301  18.635  16.487   1.747
44075W        W 9302   5.247   5.238   4.610
44076W        W 9303   5.468  11.137   3.658
44077W        W 9304  41.925   6.010   2.370
44078W        W 9305  17.442  23.573   1.814
44079W        W 9306   6.267  42.946  13.821
44080W        W 9307  35.426  14.253  11.066
44081W        W 9308  19.606  40.735   3.160
44082W        W 9309   4.011  29.975  11.657
44083W        W 9310  21.395  21.657  11.612
44084W        W 9311  33.174  12.971   4.907
44085W        W 9312  14.863  39.885   4.851
44086W        W 9313   0.424  34.271   0.754
44087W        W 9314  25.575  33.877  11.033
44088W        W 9315  16.084   8.182  12.048
44089W        W 9316  27.318   0.040   2.221
44090W        W 9317  43.361  43.984   4.684
44091W        W 9318   7.051  24.651   3.107
44092W        W 9319   3.606  40.966  12.878
44093W        W 9320  26.438   0.456  12.850
44094W        W 9321   0.700  18.162   3.257
44095W        W 9322  18.539   0.413   2.939
44096W        W 9323  32.901  14.590   4.774
44097W        W 9324   3.575  33.089  14.245
44098W        W 9325  13.730  31.893   2.642
44099W        W 9326  26.627   2.478  10.728
44100W        W 9327  32.142  41.820  11.716
44101W        W 9328  35.877  24.093   4.558
44102W        W 9329  29.399  22.149  13.895
44103W        W 9330   0.297  15.409  14.797
44104W        W 9331  32.578  13.113  13.633
44105W        W 9332   9.676  18.575  13.682
44106W        W 9333  31.364  16.286   0.844
44107W        W 9334   1.732   5.160  12.423
44108W        W 9335   0.772  13.889  13.972
44109W        W 9336  17.735   9.509   1.904
44110W        W 9337   1.224  33.402   1.920
44111W        W 9338  17.712  30.656  12.280
44112W        W 9339   5.730   4.605  10.780
44113W        W 9340  40.344  23.115   3.479
44114W        W 9341  40.662  15.192  11.698
44115W        W 9342  14.155   9.118   1.910
44116W        W 9343  33.649  17.314  14.322
44117W        W 9344   5.530  14.656   3.056
44118W        W 9345  16.588  31.654   4.809
44119W        W 9346   8.225  19.312  12.620
44120W        W 9347  12.086   7.295  11.651
44121W        W 9348  21.765   8.346  13.524
44122W        W 9349  43.338   8.224  12.281
44123W        W 9350  19.058   6.486  11.178
44124W        W 9351  32.460  26.720  14.906
44125W        W 9352  39.101   3.516   0.973
44126W        W 9353  33.327   9.476   3.224
44127W        W 9354  32.412  19.537  12.922
44128W        W 9355  29.652  26.262  13.012
44129W        W 9356   1.260  12.797  13.422
44130W        W 9357   7.304  18.969  11.532
44131W        W 9358  42.101  15.288   0.237
44132W        W 9359  15.283   2.457   2.626
44133W        W 9360  37.992  23.689   5.163
44134W        W 9361  44.058   7.205   3.100
44135W        W 9362   0.251  39.918   4.675
44136W        W 9363  18.206  19.710   2.783
44137W        W 9364   4.206  30.687  12.091
44138W        W 9365  31.441  39.688  13.963
44139W        W 9366  34.996  37.330  11.333
44140W        W 9367   9.733  13.139  11.871
44141W        W 9368  25.340  40.340   3.109
44142W        W 9369  36.319  19.084  14.880
44143W        W 9370  39.971  14.195   0.460
44144W        W 9371  43.493  40.927   3.308
44145W        W 9372  18.985  18.739  14.900
44146W        W 9373  36.953  35.682   4.439
44147W        W 9374  10.678  31.921  14.825
44148W        W 9375  12.758  19.312   4.796
44149W        W 9376  33.928  38.454   4.044
44150W        W 9377  23.828   2.999  10.214
44151W        W 9378  28.626  36.893  13.387
44152W        W 9379  12.179  39.088   3.300
44153W        W 9380  10.077  21.465  14.901
44154W        W 9381  22.574  14.811   4.469
44155W        W 9382  29.667   1.800   4.928
44156W        W 9383  36.670  40.342  10.624
44157W        W 9384  13.150  41.366  13.630
44158W        W 9385  23.669  43.344  12.492
44159W        W 9386  25.196  12.219   2.804
44160W        W 9387  10.464  12.633   3.784
44161W        W 9388   2.168   9.129  12.655
44162W        W 9389  31.466  15.507   9.874
44163W        W 9390   8.626  15.248  14.403
44164W        W 9391  25.242  18.344  14.106
44165W        W 9392  39.420  21.555   1.665
44166W        W 9393  13.127  37.924   1.083
44167W        W 9394  22.947  43.359  12.094
44168W        W 9395  38.502  10.193   1.504
44169W        W 9396   5.110  10.272   4.671
44170W        W 9397   3.814  32.538   2.926
44171W        W 9398  29.057  19.590  12.395
44172W        W 9399  18.228  32.589  13.753
44173W        W 9400  18.007   9.047   1.899
44174W        W 9401  37.586  31.887   0.970
44175W        W 9402  12.911  11.431  12.842
44176W        W 9403  23.080  11.866  13.814
44177W        W 9404  10.258   4.927  13.546
44178W        W 9405   9.658   9.285   1.848
44179W        W 9406   7.739  36.449   3.305
44180W        W 9407   3.931   1.368   2.738
44181W        W 9408  17.989   3.016  12.914
44182W        W 9409  13.648  37.197   3.714
44183W        W 9410  26.208  34.484  13.589
44184W        W 9411   4.028   9.815   2.917
44185W        W 9412  26.885   1.516   5.035
44186W        W 9413  10.627  37.062   1.937
44187W        W 9414  26.110  36.443   4.922
44188W        W 9415  23.481  30.004   2.711
44189W        W 9416  30.981  15.027   0.587
44190W        W 9417   7.694  23.658   3.305
44191W        W 9418  40.595  19.719  11.504
44192W        W 9419  24.770  14.454   5.229
44193W        W 9420  41.000  19.934   4.152
44194W        W 9421  14.324  11.139  11.395
44195W        W 9422   0.474  16.215   4.064
44196W        W 9423  15.820  27.065   2.147
44197W        W 9424  30.457  44.505  14.387
44198W        W 9425  36.081  41.903   0.362
44199W        W 9426  11.858  26.677  12.900
44200W        W 9427  24.181  14.630  14.842
44201W        W 9428  37.083   1.282  14.301
44202W        W 9429  10.819  13.321  14.354
44203W        W 9430  40.402  23.290  11.141
44204W        W 9431  30.086  43.960   1.058
44205W        W 9432  40.026  33.191   0.044
44206W        W 9433  27.662  13.200  12.389
44207W        W 9434  18.523  32.365   0.394
44208W        W 9435   6.759   3.698   1.822
44209W        W 9436   1.706  35.216   2.313
44210W        W 9437   3.347  19.734   2.094
44211W        W 9438  34.493  15.204  10.752
44212W        W 9439  27.955  40.376   1.753
44213W        W 9440  16.564  39.651   3.304
44214W        W 9441  30.863  16.389  14.253
44215W        W 9442  21.784   1.754   3.646
44216W        W 9443  30.521  14.131   0.668
44217W        W 9444  12.863   7.867  11.090
44218W        W 9445  18.765  16.131  10.957
44219W        W 9446  36.117  21.576   0.763
44220W        W 9447  28.254  30.230  12.865
44221W        W 9448  29.934  40.848   1.798
44222W        W 9449  22.183   4.448   4.075
44223W        W 9450  11.263   0.839  10.927
44224W        W 9451  44.913   7.712  12.382
44225W        W 9452  41.326  36.825  13.315
44226W        W 9453  12.183  40.979  12.585
44227W        W 9454  36.569   5.448  14.974
44228W        W 9455  28.522  25.787   3.671
44229W        W 9456   5.310  15.084  14.519
44230W        W 9457  20.217  15.609  14.312
44231W        W 9458  32.850   3.915   4.113
44232W        W 9459   1.757  43.699   2.291
44233W        W 9460  25.196   0.439  13.558
44234W        W 9461  34.471  27.668  14.608
44235W        W 9462  27.592  14.271   2.766
44236W        W 9463  25.722  11.343  12.554
44237W        W 9464  38.330  26.408  13.371
44238W        W 9465  22.684  22.488   1.711
44239W        W 9466  12.143  13.097   0.715
44240W        W 9467  21.013   9.865   1.299
44241W        W 9468   7.116  26.066   1.324
44242W        W 9469  26.982  11.329  11.496
44243W        W 9470  29.270  34.397  12.947
44244W        W 9471   7.739  29.030   1.954
44245W        W 9472   2.403  16.796  13.578
44246W        W 9473  37.869   3.905   3.491
44247W        W 9474  20.202  38.864  13.891
44248W        W 9475  39.689  25.864   1.647
44249W        W 9476   1.509  22.732   2.121
44250W        W 9477   6.274  43.907  11.407
44251W        W 9478  16.632  12.208   3.612
44252W        W 9479   5.756  29.458   1.133
44253W        W 9480  28.537  28.928  14.818
44254W        W 9481  43.948  41.316  12.154
44255W        W 9482  25.174   9.004  10.141
44256W        W 9483  34.660  14.094  10.808
44257W        W 9484  30.387   4.150   2.208
44258W        W 9485  33.096   2.880   1.904
44259W        W 9486  43.230  14.188   3.039
44260W        W 9487  43.750  26.082   0.896
44261W        W 9488   9.282  37.337  14.181
44262W        W 9489   2.209  27.980  10.113
44263W        W 9490   5.446  33.869   4.283
44264W        W 9491  26.739   1.620  11.601
44265W        W 9492  10.118  38.186  13.427
44266W        W 9493  23.543   2.026  12.040
44267W        W 9494  40.002  22.630   2.277
44268W        W 9495  24.697  43.761   1.286
44269W        W 9496  35.362  18.534   0.808
44270W        W 9497  11.267  35.253  14.529
44271W        W 9498  35.601  35.328  14.240
44272W        W 9499   6.665  41.513  13.012
44273W        W 9500  33.496  29.213  11.078
44274W        W 9501  10.193  29.090   1.055
44275W        W 9502   9.983  41.375  11.890
44276W        W 9503   8.282   1.200   3.135
44277W        W 9504  34.889  34.668  13.556
44278W        W 9505  21.326  34.737   4.276
44279W        W 9506   0.369  15.821  10.947
44280W        W 9507  30.660  27.439  14.797
44281W        W 9508  10.351  31.226  11.512
44282W        W 9509  12.606  31.316   5.036
44283W        W 9510  39.434  44.111  11.020
44284W        W 9511  10.552   1.944   2.270
44285W        W 9512  16.270   9.043   2.795
44286W        W 9513  41.505  25.762   1.644
44287W        W 9514  33.716  41.097   3.222
44288W        W 9515   0.234  23.096  11.462
44289W        W 9516  33.378  28.119  14.133
44290W        W 9517   0.030  26.490  13.445
44291W        W 9518  35.895  36.505  12.342
44292W        W 9519  18.298  24.593   0.344
44293W        W 9520  17.453   2.646  14.376
44294W        W 9521  25.032  31.960   2.238
44295W        W 9522  37.530  23.703   1.165
44296W        W 9523  39.335  32.781   0.752
44297W        W 9524   3.892  13.772  12.454
44298W        W 9525  39.550  33.649  14.525
44299W        W 9526  16.367  22.620  11.538
44300W        W 9527  23.089  30.332   2.272
44301W        W 9528  18.060  33.018  13.519
44302W        W 9529   2.532  33.775  11.756
44303W        W 9530  26.244  36.488   3.340
44304W        W 9531  26.647  14.215  14.423
44305W        W 9532  39.977   6.632  10.300
44306W        W 9533   6.371   6.433   3.602
44307W        W 9534  35.874  27.152  13.448
44308W        W 9535  14.611  27.981   0.732
44309W        W 9536   1.784  29.233  11.413
44310W        W 9537   1.395  38.280  12.010
44311W        W 9538   8.001   2.956   3.712
44312W        W 9539   3.232   8.545   3.744
44313W        W 9540  28.712   0.326  13.807
44314W        W 9541  40.896  11.234  13.018
44315W        W 9542   4.664  23.046  13.458
44316W        W 9543   8.228  13.715   0.829
44317W        W 9544  22.834   6.381  14.336
44318W        W 9545  11.283  44.340  13.558
44319W        W 9546  27.188  17.756  11.923
44320W        W 9547  22.192  27.455   3.149
44321W        W 9548  13.568  44.308   1.799
44322W        W 9549   9.248   8.402  14.354
44323W        W 9550  40.377  37.434  14.484
44324W        W 9551  35.115   1.881   2.280
44325W        W 9552  28.305  43.048  12.801
44326W        W 9553  25.088  29.395  12.064
44327W        W 9554   0.405  43.228  13.069
44328W        W 9555  26.187   1.770   2.420
44329W        W 9556  21.096  33.086   1.748
44330W        W 9557  41.579  31.387   0.079
44331W        W 9558  35.529  19.658   0.026
44332W        W 9559  24.139  41.906  13.967
44333W        W 9560  16.594  18.740  14.310
44334W        W 9561  42.574  20.602   3.694
44335W        W 9562  14.370  17.036   1.746
44336W        W 9563   8.466  15.602   2.141
44337W        W 9564   0.454  13.847  11.596
44338W        W 9565  29.924  20.688  12.581
44339W        W 9566  21.252  38.894  14.978
44340W        W 9567  21.970  33.989   2.137
44341W        W 9568  12.044   9.030  14.350
44342W        W 9569   5.167  25.067  13.880
44343W        W 9570  41.038  19.660  11.055
44344W        W 9571  10.273  15.305   3.047
44345W        W 9572  35.816  23.528  11.619
44346W        W 9573  29.536  34.073  13.321
44347W        W 9574  15.345  27.468  11.077
44348W        W 9575  32.335  11.207  14.730
44349W        W 9576  12.042   2.759   1.382
44350W        W 9577  19.310  38.115  14.823
44351W        W 9578   1.548  41.394   1.801
44352W        W 9579  44.375  20.243  10.183
44353W        W 9580  21.776   6.691  13.651
44354W        W 9581   3.558  15.824   2.923
44355W        W 9582  25.609  42.820  12.599
44356W        W 9583  34.978  29.539   3.595
44357W        W 9584  19.278   4.422   1.332
44358W        W 9585   3.379  28.047  12.356
44359W        W 9586  30.516  39.008   2.708
44360W        W 9587  16.606   5.762   2.262
44361W        W 9588   6.308  13.638  13.809
44362W        W 9589  29.915  39.396  12.553
44363W        W 9590  30.089  35.091   3.889
44364W        W 9591  40.807  13.201  14.887
44365W        W 9592  44.512  34.855   0.259
44366W        W 9593   4.758  23.403  12.614
44367W        W 9594  17.212  34.771  10.202
44368W        W 9595  26.174   7.519  11.341
44369W        W 9596  18.066  13.072  10.914
44370W        W 9597  33.943  18.184   2.146
44371W        W 9598  27.025   5.575   4.835
44372W        W 9599   6.330  32.833  12.448
44373W        W 9600  28.082  36.167  13.844
44374W        W 9601  23.963   8.594  10.519
44375W        W 9602  20.382  21.813  12.540
44376W        W 9603  20.068   2.401  12.465
44377W        W 9604  42.210  23.698   4.305
44378W        W 9605   1.247   9.304  12.893
44379W        W 9606  23.262  20.688   3.182
44380W        W 9607  13.345  38.831   1.864
44381W        W 9608  37.368   0.860   3.799
44382W        W 9609  10.766  17.354  12.875
44383W        W 9610  10.947  38.815   2.862
44384W        W 9611  31.190  39.861   1.352
44385W        W 9612  10.717   4.782  12.333
44386W        W 9613  17.629   9.119   2.918
44387W        W 9614  38.400  14.472   3.352
44388W        W 9615  38.812   8.073   2.800
44389W        W 9616   7.279  43.352   0.204
44390W        W 9617  17.842  26.617  12.010
44391W        W 9618  38.223   4.857  11.490
44392W        W 9619  32.943   5.245  11.494
44393W        W 9620   7.592  11.015  14.946
44394W        W 9621  14.800  38.479   3.252
44395W        W 9622  36.968  34.173   2.476
44396W        W 9623  38.123  33.164   4.496
44397W        W 9624  22.675   4.360   1.008
44398W        W 9625   3.265  31.418   2.732
44399W        W 9626  25.494  28.454  13.430
44400W        W 9627  41.914  20.351  14.802
44401W        W 9628  27.139  36.012  14.168
44402W        W 9629  16.315  18.080   5.191
44403W        W 9630  30.084   9.494  13.123
44404W        W 9631   6.316   0.456   3.257
44405W        W 9632  28.993  32.556  10.940
44406W        W 9633   1.119   0.439  11.380
44407W        W 9634  10.164   5.232  11.129
44408W        W 9635  18.878  20.166   3.481
44409W        W 9636  16.697  41.089  13.059
44410W        W 9637  23.714  15.722  10.562
44411W        W 9638  11.209   6.479   3.262
44412W        W 9639  25.776  35.482   0.444
44413W        W 9640  23.737  42.068   0.782
44414W        W 9641  29.487  37.910  13.867
44415W        W 9642   6.755  24.117   1.387
44416W        W 9643  28.176  16.791   0.107
44417W        W 9644   5.170  24.412  12.489
44418W        W 9645  10.806  34.056   3.829
44419W        W 9646  22.002  27.039  10.676
44420W        W 9647  11.632   8.064   0.559
44421W        W 9648  14.130  20.133   0.161
44422W        W 9649  42.435   5.735  11.718
44423W        W 9650  15.364   2.839   3.321
44424W        W 9651  19.325  43.940   4.624
44425W        W 9652   4.916  10.630   4.324
44426W        W 9653  36.554   8.175   0.301
44427W        W 9654  39.148  44.825   4.188
44428W        W 9655   7.307  42.669  14.526
44429W        W 9656  39.328  18.299   1.472
44430W        W 9657  16.320  28.094  11.170
44431W        W 9658   2.973  19.166   9.498
44432W        W 9659  36.505  25.546  10.666
44433W        W 9660  27.049   9.786  12.128
44434W        W 9661  41.580  22.520   4.928
44435W        W 9662   2.145  24.018  14.238
44436W        W 9663  25.443  18.741   3.721
44437W        W 9664  24.892  38.758  12.421
44438W        W 9665  18.653  15.034   2.003
44439W        W 9666  11.600   4.965   0.407
44440W        W 9667  12.789  16.146  12.602
44441W        W 9668  11.548   8.338   3.389
44442W        W 9669  38.565   5.453   3.157
44443W        W 9670   7.165  12.871   1.249
44444W        W 9671  11.355  14.515  12.903
44445W        W 9672  36.015  41.319   4.093
44446W        W 9673   6.790  37.438   3.125
44447W        W 9674  24.907  44.691   2.387
44448W        W 9675  16.041  33.090  10.600
44449W        W 9676   6.193   8.693  14.400
44450W        W 9677  35.409   7.438  12.179
44451W        W 9678  21.072  10.884  10.611
44452W        W 9679   5.784  27.730   1.856
44453W        W 9680  37.048   8.324  10.744
44454W        W 9681  37.058  31.654   3.652
44455W        W 9682  18.504   4.470   1.746
44456W        W 9683   0.821   2.571   3.816
44457W        W 9684   8.878  16.616  14.440
44458W        W 9685  13.867   7.613   0.262
44459W        W 9686  19.286   0.990  13.348
44460W        W 9687  39.578   1.123   0.935
44461W        W 9688   4.871  34.094   4.304
44462W        W 9689  21.176  23.703   4.688
44463W        W 9690   5.958  30.581  12.359
44464W        W 9691  25.609  25.707   2.671
44465W        W 9692  40.306  30.020   1.862
44466W        W 9693  39.823  38.071   0.809
44467W        W 9694  14.725   4.788   0.418
44468W        W 9695  41.238  30.034  11.962
44469W        W 9696   1.280   3.454  10.809
44470W        W 9697   5.412  18.567  11.972
44471W        W 9698  11.573   1.925  12.919
44472W        W 9699   1.333  26.140  13.633
44473W        W 9700  26.588  14.021   4.573
44474W        W 9701  26.582  18.082  13.540
44475W        W 9702  30.176  41.061   2.233
44476W        W 9703  13.227  10.926   2.316
44477W        W 9704   7.001  14.046   1.710
44478W        W 9705   1.208  27.029  11.723
44479W        W 9706   2.306  19.630   2.838
44480W        W 9707  26.528  23.732   2.284
44481W        W 9708  41.526  30.842   2.853
44482W        W 9709   0.704  28.563  14.086
44483W        W 9710   9.368  44.494   4.208
44484W        W 9711  36.600   4.089   3.955
44485W        W 9712  11.900  19.240   3.223
44486W        W 9713  12.081  40.352   4.037
44487W        W 9714   2.488   8.439   4.677
44488W        W 9715  35.659  25.031  12.505
44489W        W 9716   4.395  25.391   0.833
44490W        W 9717  32.081  33.006  11.962
44491W        W 9718  30.881  15.078   3.342
44492W        W 9719  29.999  41.368   1.768
44493W        W 9720  18.860  24.252  13.318
44494W        W 9721  14.073  13.411  13.897
44495W        W 9722  19.891  20.030   2.701
44496W        W 9723  33.540  31.548   4.466
44497W        W 9724  43.369  33.841  10.803
44498W        W 9725  33.970  23.571  12.468
44499W        W 9726  24.420   7.377   1.744
44500W        W 9727  37.514  43.543   4.452
44501W        W 9728   2.838   5.483   3.829
44502W        W 9729  43.278  25.664  12.001
44503W        W 9730   2.938  33.991  12.784
44504W        W 9731  22.231   0.171   4.669
44505W        W 9732  20.121  28.509   2.543
44506W        W 9733   7.709  26.640  12.526
44507W        W 9734  12.276  15.587   0.999
44508W        W 9735   2.772  40.428   1.780
44509W        W 9736   5.725  37.987  11.159
44510W        W 9737  39.939  42.267   1.598
44511W        W 9738  43.869   5.996  11.897
44512W        W 9739  16.989  26.442  11.584
44513W        W 9740  37.362   4.942   0.690
44514W        W 9741  24.091   3.569  10.813
44515W        W 9742  25.990  28.926   0.170
44516W        W 9743  38.416  28.186  10.369
44517W        W 9744  23.400  22.898   0.023
44518W        W 9745  20.501   3.228   0.204
44519W        W 9746   3.830  30.323   1.760
44520W        W 9747  10.303  15.114  12.280
44521W        W 9748   7.250   7.867   1.453
44522W        W 9749  14.203  41.763  13.315
44523W        W 9750  37.731  40.427   0.656
44524W        W 9751  31.458  43.569   5.099
44525W        W 9752  30.957  30.427   2.908
44526W        W 9753  42.620  40.412   3.600
44527W        W 9754  39.305  25.665   2.362
44528W        W 9755  28.443  13.441   0.423
44529W        W 9756  29.701   6.284  10.690
44530W        W 9757  17.191  22.220   4.722
44531W        W 9758  41.846  31.535   4.004
44532W        W 9759  19.653  14.047   2.813
44533W        W 9760  38.832  15.383   4.605
44534W        W 9761  26.999  12.858  11.500
44535W        W 9762  15.326   9.427   4.506
44536W        W 9763   8.286  18.113  10.292
44537W        W 9764   7.861  42.672   1.970
44538W        W 9765  21.567  33.917  13.612
44539W        W 9766  42.905   3.957  14.439
44540W        W 9767  27.642   4.227  13.584
44541W        W 9768  10.217  30.450   0.224
44542W        W 9769  16.213  21.679  13.427
44543W        W 9770  44.109  44.741   3.737
44544W        W 9771  35.324   2.603   4.799
44545W        W 9772  29.658  35.597  10.826
44546W        W 9773   6.969   8.280   2.312
44547W        W 9774  30.458   6.891  14.451
44548W        W 9775  14.036   6.891  11.633
44549W        W 9776  14.271  36.069   4.690
44550W        W 9777   0.324  35.902   2.949
44551W        W 9778  44.528  27.895   1.230
44552W        W 9779  15.363  15.313  11.606
44553W        W 9780   3.747  40.839   4.708
44554W        W 9781   1.409  36.068  11.940
44555W        W 9782  10.163   2.267  11.106
44556W        W 9783  20.562  29.005   4.097
44557W        W 9784  30.797  38.326   2.761
44558W        W 9785  23.033  12.711   0.234
44559W        W 9786  20.988  42.301  14.389
44560W        W 9787  25.767  24.527  11.701
44561W        W 9788  21.070  31.197   0.440
44562W        W 9789  13.244  29.621  14.816
44563W        W 9790  11.256  30.936  13.277
44564W        W 9791  40.888  28.873   2.262
44565W        W 9792  16.452   7.669   4.674
44566W        W 9793  15.529  37.297   5.001
44567W        W 9794  33.754  37.941   3.578
44568W        W 9795   3.896  16.761  12.005
44569W        W 9796  22.437  36.876  11.687
44570W        W 9797  38.218  11.610  12.373
44571W        W 9798  39.067  34.902  10.509
44572W        W 9799  20.961   0.209   4.121
44573W        W 9800  34.418  15.054  12.695
44574W        W 9801  18.022   8.411   2.810
44575W        W 9802  18.123  14.796  13.331
44576W        W 9803  28.935  29.189  10.752
44577W        W 9804  10.528  44.432   3.652
44578W        W 9805  22.664  31.834  10.958
44579W        W 9806  14.265  11.713  10.750
44580W        W 9807   2.388  16.165   0.297
44581W        W 9808  26.625  11.873  12.063
44582W        W 9809  26.742  37.458  11.470
44583W        W 9810  28.964  30.962   4.063
44584W        W 9811  22.119  26.524  12.073
44585W        W 9812  27.759  32.685   1.813
44586W        W 9813   9.850   2.807  13.014
44587W        W 9814   1.559  40.908   0.510
44588W        W 9815  16.301  26.661   3.356
44589W        W 9816  34.005  35.360   2.644
44590W        W 9817   1.009   9.906  12.039
44591W        W 9818  38.331  37.876   4.480
44592W        W 9819  19.201  21.497  14.221
44593W        W 9820  38.565   0.388  14.886
44594W        W 9821  12.764  13.257  11.839
44595W        W 9822   1.877  33.923   4.888
44596W        W 9823  39.060  36.800   1.475
44597W        W 9824  16.773   9.144   4.837
44598W        W 9825  34.034  12.387   4.961
44599W        W 9826  31.263  30.583   3.885
44600W        W 9827   0.912  35.482   3.849
44601W        W 9828  29.944  41.760  11.594
44602W        W 9829  36.745   3.186   3.907
44603W        W 9830  23.906   1.853   9.694
44604W        W 9831   8.820  41.847  10.658
44605W        W 9832   3.011  31.293  14.533
44606W        W 9833   6.817  44.983  11.516
44607W        W 9834  26.009   2.010   1.923
44608W        W 9835  20.966  10.582   4.078
44609W        W 9836  40.282  22.194   4.913
44610W        W 9837   6.441  36.713  10.828
44611W        W 9838   8.681  11.240  13.952
44612W        W 9839  31.935  17.299   2.791
44613W        W 9840  29.243  33.671   4.689
44614W        W 9841  31.584   0.774  12.616
44615W        W 9842  28.987  19.365  14.570
44616W        W 9843  33.761  28.539   4.842
44617W        W 9844  41.409   0.985  14.858
44618W        W 9845  11.989  11.796  12.816
44619W        W 9846  41.028   9.745   2.219
44620W        W 9847  34.582  24.960  13.962
44621W        W 9848  19.557   8.001   0.770
44622W        W 9849  27.918  26.976   1.213
44623W        W 9850  33.101  15.022   4.537
44624W        W 9851  26.079  17.186   0.713
44625W        W 9852  32.938  32.516  12.063
44626W        W 9853  19.726  40.470  12.857
44627W        W 9854  32.463  10.793   0.087
44628W        W 9855  23.053  18.310  13.133
44629W        W 9856  15.404  22.167   2.296
44630W        W 9857  30.603   7.399  13.078
44631W        W 9858  44.961  10.981   3.681
44632W        W 9859  19.620  10.179  11.377
44633W        W 9860  25.979  33.495   4.282
44634W        W 9861   5.637  31.912  11.588
44635W        W 9862  29.173  15.252  14.813
44636W        W 9863   8.598  32.747  10.220
44637W        W 9864  18.960  24.110   2.343
44638W        W 9865  35.453  17.283   2.405
44639W        W 9866  16.767  19.197   3.724
44640W        W 9867  22.049  32.482   2.380
44641W        W 9868  16.397  16.935   0.001
44642W        W 9869  31.016   5.608   0.520
44643W        W 9870  18.733  25.317  13.272
44644W        W 9871  34.364   3.478   1.910
44645W        W 9872  44.835  16.389  11.375
44646W        W 9873  27.006   6.758   2.933
44647W        W 9874   0.416   7.176   0.540
44648W        W 9875  43.793  37.488   2.111
44649W        W 9876  38.796  37.615   4.182
44650W        W 9877  30.887  12.152   9.692
44651W        W 9878   3.362  16.256   2.731
44652W        W 9879  41.489  31.072  13.069
44653W        W 9880  33.567  10.643   4.223
44654W        W 9881  22.137  25.212   2.795
44655W        W 9882  41.314  34.012  12.924
44656W        W 9883  11.315  35.990  11.015
44657W        W 9884  32.428  33.475   2.637
44658W        W 9885  26.189   9.358   4.045
44659W        W 9886  27.271  11.232   3.738
44660W        W 9887  39.260  13.595   4.240
44661W        W 9888  43.052  23.169  14.397
44662W        W 9889   8.745  36.473  12.631
44663W        W 9890  19.767  32.712  14.193
44664W        W 9891  31.397   3.063  14.100
44665W        W 9892  26.800   9.860   2.269
44666W        W 9893  26.158  26.222  10.944
44667W        W 9894  39.447  30.581   2.872
44668W        W 9895  18.489  41.869   1.705
44669W        W 9896  21.340  40.716   3.629
44670W        W 9897  22.591  27.339   3.795
44671W        W 9898  32.627  32.911   3.796
44672W        W 9899  23.141  20.358  11.966
44673W        W 9900  29.410  28.181   1.920
44674W        W 9901  19.001  38.111  11.731
44675W        W 9902  26.020   0.887  13.545
44676W        W 9903   6.845   8.920   1.585
44677W        W 9904  41.274  25.530  12.880
44678W        W 9905   5.790  36.410  12.057
44679W        W 9906  17.124   5.227  11.662
44680W        W 9907  28.956   2.497   1.350
44681W        W 9908  12.353  17.190   5.080
44682W        W 9909  19.966  33.462   3.441
44683W        W 9910  35.079   3.121  12.013
44684W        W 9911  33.424   9.616   2.374
44685W        W 9912  25.136  15.834   1.157
44686W        W 9913   1.329  26.960  12.818
44687W        W 9914  42.390   8.258   0.718
44688W        W 9915  12.708  41.053  11.604
44689W        W 9916  40.496   0.417  14.731
44690W        W 9917  37.648  25.358  11.980
44691W        W 9918  24.672  31.293   2.628
44692W        W 9919   5.882   5.135  10.753
44693W        W 9920  31.150   9.126  13.482
44694W        W 9921   6.897  31.154  13.792
44695W        W 9922  30.271  14.628   0.027
44696W        W 9923   0.257  11.359   1.752
44697W        W 9924  11.616  23.057   2.414
44698W        W 9925   4.476  22.727   1.881
44699W        W 9926  12.069  37.746  11.517
44700W        W 9927  36.840  41.802  14.810
44701W        W 9928  15.601  22.281   4.421
44702W        W 9929  19.732  40.692  10.529
44703W        W 9930  38.228  27.706  13.838
44704W        W 9931  23.627   8.925  12.524
44705W        W 9932  19.636  22.270  14.720
44706W        W 9933   8.693  41.788  14.605
44707W        W 9934   9.815  26.672   0.322
44708W        W 9935  22.780  20.467  12.569
44709W        W 9936  10.847  27.687  13.580
44710W        W 9937   3.341  22.537  14.715
44711W        W 9938  14.291  29.459  14.827
44712W        W 9939  41.835  17.659   4.354
44713W        W 9940  32.011  31.728  14.258
44714W        W 9941  37.015  43.815  14.978
44715W        W 9942   5.666  38.937   4.385
44716W        W 9943  36.567  31.114   4.106
44717W        W 9944   7.702   6.364   2.107
44718W        W 9945  20.891  24.789  11.838
44719W        W 9946  16.688  32.110   0.466
44720W        W 9947  18.683  39.362  14.961
44721W        W 9948  28.428  13.057  13.499
44722W        W 9949  20.286  21.806  10.952
44723W        W 9950   7.433  13.441   4.289
44724W        W 9951  25.244   9.599   0.388
44725W        W 9952  33.787  32.568   1.192
44726W        W 9953  42.004  39.494  11.863
44727W        W 9954  17.642   1.395  14.519
44728W        W 9955  39.705  43.487  10.520
44729W        W 9956  38.478  24.399  14.335
44730W        W 9957   3.777  32.030  11.435
44731W        W 9958  23.502  14.682   0.393
44732W        W 9959  25.571  11.907  13.371
44733W        W 9960  28.473  24.605  11.661
44734W        W 9961  42.000  32.982   2.266
44735W        W 9962   8.964   1.188   3.708
44736W        W 9963  29.379   0.342  11.711
44737W        W 9964  24.338  16.707   0.056
44738W        W 9965   7.293  23.889   1.282
44739W        W 9966   9.818  19.874   1.720
44740W        W 9967  21.831  42.813   2.751
44741W        W 9968  35.141   2.397   0.893
44742W        W 9969  34.499  13.173   5.022
44743W        W 9970   0.468  24.304   1.287
44744W        W 9971  36.536  15.174   2.783
44745W        W 9972  24.267  15.328   1.993
44746W        W 9973  44.388  11.705  10.764
44747W        W 9974  20.830  22.753  12.505
44748W        W 9975   5.461  34.320   1.163
44749W        W 9976   6.957   0.601  11.542
44750W        W 9977  37.775   7.928  11.685
44751W        W 9978   0.488   7.305  11.308
44752W        W 9979  14.461  42.719   1.369
44753W        W 9980   5.886   8.184   1.059
44754W        W 9981  11.398   0.374  13.621
44755W        W 9982   4.883   5.700   3.647
44756W        W 9983  24.954   3.049   4.690
44757W        W 9984  38.614  14.899   3.143
44758W        W 9985  39.416  37.470   0.307
44759W        W 9986  15.174   2.267   0.835
44760W        W 9987  14.273   5.475   2.836
44761W        W 9988  12.393  24.094  12.870
44762W        W 9989  18.612  18.856   1.398
44763W        W 9990   2.268  14.673   2.359
44764W        W 9991   7.684  31.959   1.946
44765W        W 9992  21.092  44.113  10.604
44766W        W 9993  43.015  23.321  13.903
44767W        W 9994  37.054   3.444   2.565
44768W        W 9995  22.353  44.318   4.151
44769W        W 9996  35.051   4.796  14.341
44770W        W 9997  10.233   6.703  12.178
44771W        W 9998  44.386  42.736  13.997
44772W        W 9999  19.453  43.544   3.228
44773W        W10000  29.597   7.866  10.782
44774W        W10001  23.725  33.319   3.863
44775W        W10002  41.256  21.234   2.690
44776W        W10003   0.463  34.376   3.317
44777W        W10004  41.139  21.322   1.559
44778W        W10005  26.089  28.513   1.263
44779W        W10006  43.868   5.115  10.439
44780W        W10007  43.395  33.133   1.945
44781W        W10008  22.703  41.269   0.362
44782W        W10009   0.568  20.251  12.063
44783W        W10010  33.624   3.475  13.463
44784W        W10011  13.769  27.051  11.935
44785W        W10012  29.577   9.754  13.894
44786W        W10013   5.265  33.982   3.110
44787W        W10014  23.592  43.399  13.018
44788W        W10015  42.752  17.927   4.116
44789W        W10016  37.891  39.265  12.943
44790W        W10017  17.309  42.741  12.057
44791W        W10018  31.946  11.263  11.560
44792W        W10019  28.641   8.108   1.002
44793W        W10020   7.623  26.022   0.395
44794W        W10021   8.452  15.017  12.949
44795W        W10022  26.737  29.503  11.096
44796W        W10023   0.809  38.007   3.192
44797W        W10024  42.225  35.349  13.174
44798W        W10025   8.699  44.923  12.935
44799W        W10026  37.565  36.629  12.855
44800W        W10027  18.809  34.773   4.147
44801W        W10028  11.208  36.189   3.964
44802W        W10029  23.470  36.773   2.804
44803W        W10030  26.993  24.350   4.128
44804W        W10031  16.589  39.865  14.488
44805W        W10032  11.345   8.333  14.560
44806W        W10033   3.013  37.426  11.167
44807W        W10034  31.137  39.072  12.045
44808W        W10035  14.983  39.542  13.186
44809W        W10036  12.415  21.608  14.732
44810W        W10037  12.436  30.529  14.563
44811W        W10038  12.909  21.454  13.269
44812W        W10039  18.702  24.516   1.220
44813W        W10040   8.592  24.550  12.980
44814W        W10041  37.627  16.914  10.978
44815W        W10042   6.803  25.080   3.602
44816W        W10043  30.923  27.898  14.617
44817W        W10044  41.818  15.516   2.824
44818W        W10045  19.280  10.658  12.507
44819W        W10046   7.310  17.057  13.699
44820W        W10047  29.631  25.094   2.516
44821W        W10048  36.131  12.845   3.395
44822W        W10049  10.584  21.010  14.820
44823W        W10050   5.310  41.574  14.809
44824W        W10051  37.128   2.210   3.627
44825W        W10052  33.995  25.043   4.162
44826W        W10053  12.056  30.724   5.400
44827W        W10054  21.210  12.761   2.893
44828W        W10055  34.134  11.301   1.612
44829W        W10056  22.041  25.759  12.530
44830W        W10057  32.250  34.934  12.138
44831W        W10058   5.403   5.427  13.934
44832W        W10059  38.806   1.431   2.759
44833W        W10060   9.163  31.350  11.978
44834W        W10061  13.364   8.093   1.815
44835W        W10062  24.273  43.732  12.272
44836W        W10063  43.914  18.950  14.220
44837W        W10064  44.783  37.585  12.497
44838W        W10065   6.917   0.099  12.897
44839W        W10066  14.145   4.798   1.282
44840W        W10067   9.833  10.164   0.872
44841W        W10068  24.492  10.790  11.613
44842W        W10069  29.536  20.937   1.230
44843W        W10070  28.069   9.386  14.322
44844W        W10071  41.149  19.288   2.749
44845W        W10072  42.999  44.511   2.723
44846W        W10073  16.951   7.193   3.156
44847W        W10074  27.003  29.631  10.610
44848W        W10075  35.018   6.489   0.834
44849W        W10076  24.721  29.011  11.426
44850W        W10077  19.817  43.800   3.493
44851W        W10078  26.128   9.607  13.118
44852W        W10079  32.777  33.724   5.151
44853W        W10080   8.324  36.920   4.301
44854W        W10081  16.699  40.566  13.079
44855W        W10082  31.600  11.768  13.064
44856W        W10083  10.429   1.968  11.615
44857W        W10084  36.478  38.044  12.933
44858W        W10085  17.696   8.471   4.948
44859W        W10086  23.811  40.979   2.298
44860W        W10087  12.708  29.634  13.088
44861W        W10088  21.989  31.184  10.927
44862W        W10089  20.720  29.631  12.635
44863W        W10090  31.861  13.922  14.212
44864W        W10091  10.980   4.832  11.455
44865W        W10092  28.735  22.720  12.849
44866W        W10093  31.354  15.089  13.044
44867W        W10094  12.172  39.789  11.955
44868W        W10095  11.488  14.761   5.366
44869W        W10096  11.197   0.324   0.452
44870W        W10097   6.010  42.437  14.867
44871W        W10098  12.596   6.741  12.644
44872W        W10099   7.162  18.808   3.324
44873W        W10100   5.007  24.611  11.009
44874W        W10101   8.657  35.929  13.326
44875W        W10102  29.459  25.748  11.228
44876W        W10103  33.405   7.928  14.877
44877W        W10104  41.401  33.993   4.131
44878W        W10105   5.726  29.073  12.116
44879W        W10106  40.090  30.387  13.884
44880W        W10107  26.149  13.410  11.662
44881W        W10108  16.201  41.233   1.918
44882W        W10109  30.618  21.819   2.844
44883W        W10110   8.435  25.951  13.937
44884W        W10111  29.090  37.078   9.720
44885W        W10112  30.199   9.244  14.502
44886W        W10113  26.945   1.062  14.441
44887W        W10114   1.279   1.270   3.321
44888W        W10115  17.138  31.348  13.240
44889W        W10116  38.342  23.579   0.820
44890W        W10117   9.786  41.013  14.688
44891W        W10118  20.171   3.734   2.902
44892W        W10119   6.909   9.423   3.220
44893W        W10120  30.069  44.924   3.036
44894W        W10121  37.391  26.114   0.864
44895W        W10122  35.117   8.210   1.260
44896W        W10123  33.140  32.002   3.237
44897W        W10124   5.392  37.950   1.924
44898W        W10125  37.926  43.514  11.162
44899W        W10126  39.461  20.503  14.484
44900W        W10127   3.592  34.083   4.869
44901W        W10128   7.679  22.576   4.709
44902W        W10129  29.581  22.902  14.379
44903W        W10130  36.837  28.521  13.688
44904W        W10131   8.725  33.043  11.459
44905W        W10132   3.490  18.121   3.343
44906W        W10133  14.909  18.673   0.809
44907W        W10134  22.914  14.583   5.101
44908W        W10135  19.115  40.524   3.075
44909W        W10136   8.643  21.577  12.733
44910W        W10137  41.117  40.077   1.895
44911W        W10138  10.803  31.139   0.507
44912W        W10139  22.457   8.849   2.403
44913W        W10140  23.299  33.613  13.536
44914W        W10141  12.306   0.655  14.563
44915W        W10142  23.151  20.819  11.087
44916W        W10143  16.786  19.194   1.629
44917W        W10144  28.744  26.845   5.450
44918W        W10145   5.485  32.054   4.198
44919W        W10146   1.836  27.702  10.754
44920W        W10147  13.758  35.864  14.273
44921W        W10148  44.348  25.564  12.486
44922W        W10149  37.821  22.741  14.456
44923W        W10150  43.223  28.409   5.705
44924W        W10151  35.726  38.738  13.063
44925W        W10152  40.990  30.676  14.991
44926W        W10153   4.043  22.170  11.593
44927W        W10154  10.696   8.673  12.447
44928W        W10155  26.489  28.617  14.370
44929W        W10156  43.817  31.693  12.531
44930W        W10157  38.378  20.045   3.866
44931W        W10158  32.671  36.802  13.364
44932W        W10159   9.202   8.172  14.858
44933W        W10160  12.105  23.628  14.885
44934W        W10161  41.492  38.225  14.217
44935W        W10162  17.218  33.451  12.018
44936W        W10163  32.954  19.194   4.598
44937W        W10164  38.392   9.321  14.418
44938W        W10165  17.313  27.498   4.716
44939W        W10166   5.701  36.554  11.215
44940W        W10167  14.248  31.834   2.716
44941W        W10168  13.637   6.845   3.851
44942W        W10169  43.019  12.284   2.756
44943W        W10170  21.959   4.315  12.573
44944W        W10171  11.883  18.858   0.311
44945W        W10172  34.085  36.088  13.421
44946W        W10173  12.426  42.062   1.896
44947W        W10174  38.936   9.946   1.356
44948W        W10175  26.156  26.063  13.524
44949W        W10176   5.192  28.082   1.715
44950W        W10177  36.367   3.234   1.130
44951W        W10178   4.897  21.387  12.332
44952W        W10179  34.151  28.666  10.598
44953W        W10180  39.464   5.027   0.243
44954W        W10181  22.056  41.983  13.949
44955W        W10182  18.204  29.115   4.148
44956W        W10183  12.720  18.100   3.464
44957W        W10184   5.303  22.355   0.293
44958W        W10185  17.493   5.911   0.545
44959W        W10186   9.124  19.495   0.315
44960W        W10187  39.373  25.917   3.765
44961W        W10188  36.306  41.978   1.260
44962W        W10189  19.019   3.543  13.304
44963W        W10190  26.508  32.507   3.381
44964W        W10191   5.879  16.054  13.338
44965W        W10192  34.591   0.135   4.213
44966W        W10193  21.566   7.318   4.324
44967W        W10194  29.037  11.115   2.401
44968W        W10195  30.746  39.769   1.962
44969W        W10196  10.616  16.767   2.733
44970W        W10197  25.232  44.418  13.617
44971W        W10198  30.880  16.306  14.767
44972W        W10199  30.554   8.213  14.809
44973W        W10200   5.275  28.570   3.561
44974W        W10201   7.664   4.931  12.374
44975W        W10202  32.164  17.851   0.260
44976W        W10203  44.525  38.990  10.000
44977W        W10204   5.775  40.353   4.564
44978W        W10205  21.214  33.093   4.630
44979W        W10206  43.885  21.611   4.493
44980W        W10207  15.570  43.254   2.751
44981W        W10208  26.166  34.346  14.975
44982W        W10209   5.838  12.642  14.450
44983W        W10210   7.872  20.218  14.004
44984W        W10211  25.642  15.781   4.268
44985W        W10212  17.131  43.425   4.385
44986W        W10213   2.571  28.521   1.263
44987W        W10214  38.530  35.310   2.447
44988W        W10215   9.383  41.053  10.970
44989W        W10216   9.931  11.635   4.580
44990W        W10217  43.607   5.381   1.259
44991W        W10218  41.958   3.134   1.318
44992W        W10219  27.799   2.315  11.922
44993W        W10220   9.200  42.250   2.297
44994W        W10221  31.579   9.932   1.405
44995W        W10222  38.059  25.603  12.207
44996W        W10223   8.217  18.072  12.982
44997W        W10224   4.507  23.042   4.179
44998W        W10225   2.304  16.707   3.362
44999W        W10226   6.147   1.470  14.743
45000W        W10227  37.789  11.651  14.484
45001W        W10228  33.636  14.137   4.239
45002W        W10229  16.014  20.646   4.583
45003W        W10230   9.999  44.148  10.143
45004W        W10231  17.635  37.907  13.534
45005W        W10232  21.701  10.767   4.527
45006W        W10233  12.256  24.273   4.882
45007W        W10234  18.268  18.461   4.114
45008W        W10235  12.142  31.570   4.959
45009W        W10236  29.022   8.415   1.367
45010W        W10237  44.581  35.884   0.069
45011W        W10238  18.596  28.874   4.461
45012W        W10239   0.565  23.980  11.552
45013W        W10240   2.271  36.987  10.707
45014W        W10241  14.293  15.718  12.947
45015W        W10242  36.386  41.958  12.599
45016W        W10243   5.162  18.532   4.191
45017W        W10244   0.295   2.828   4.887
45018W        W10245  15.908  29.945  12.669
45019W        W10246  12.570  34.989   0.930
45020W        W10247  18.578  18.006   0.808
45021W        W10248  14.723  44.154  11.314
45022W        W10249  19.496   4.969  13.700
45023W        W10250  21.781  13.856   1.358
45024W        W10251  27.758  24.301   3.760
45025W        W10252  25.597  33.405   3.623
45026W        W10253  24.811  35.957   1.347
45027W        W10254  18.186  33.551  14.056
45028W        W10255   6.876  26.792  12.871
45029W        W10256  14.329  15.690   0.443
45030W        W10257  23.132  43.229   4.191
45031W        W10258  18.260   0.259   4.584
45032W        W10259  14.083  24.298   4.531
45033W        W10260   4.431  30.017  11.368
45034W        W10261  37.517  27.230  12.943
45035W        W10262  32.613  32.443  11.632
45036W        W10263  44.473   8.163   1.735
45037W        W10264  31.513   6.345   0.587
45038W        W10265  34.996  21.993   0.342
45039W        W10266  22.867  28.625   2.680
45040W        W10267  41.796  26.991   3.627
45041W        W10268   2.257  15.765   4.216
45042W        W10269   0.514  33.867   3.441
45043W        W10270  20.312   6.240   1.979
45044W        W10271  23.374  26.289  14.374
45045W        W10272  36.517   8.813   4.503
45046W        W10273  17.130  11.299  14.849
45047W        W10274   7.845  23.659  14.433
45048W        W10275   6.883  22.157  11.007
45049W        W10276  31.233   0.286   0.285
45050W        W10277  21.115  20.226   3.287
45051W        W10278  26.677  29.506   2.765
45052W        W10279  14.712  40.165   3.116
45053W        W10280  34.675  24.095   3.924
45054W        W10281  41.632  34.631   1.728
45055W        W10282  25.459  34.632   0.376
45056W        W10283  38.919   8.948  13.896
45057W        W10284  25.999   5.940   0.397
45058W        W10285  39.761  11.425  10.469
45059W        W10286   6.622   5.230  14.059
45060W        W10287   1.924   4.262   3.206
45061W        W10288   7.755   3.189  14.877
45062W        W10289   9.096  17.798  10.151
45063W        W10290  18.586  17.955  10.257
45064W        W10291  32.380  42.933  14.553
45065W        W10292  33.077  14.111  14.468
45066W        W10293  23.038  22.804   3.142
45067W        W10294  28.447  34.075  13.113
45068W        W10295  41.711  43.832   3.697
45069W        W10296  36.784  14.540   3.721
45070W        W10297  19.067   0.463  14.819
45071W        W10298  42.115   9.657   1.221
45072W        W10299  19.110  21.127  13.868
45073W        W10300  25.457   7.927  13.321
45074W        W10301  32.696  28.061  10.211
45075W        W10302  13.253  37.602   3.150
45076W        W10303   6.890  18.342  11.634
45077W        W10304   7.285   9.789   3.197
45078W        W10305  16.608   1.582  13.763
45079W        W10306  41.803  39.848   3.455
45080W        W10307   8.165  40.063  10.717
45081W        W10308  11.918  21.957   9.779
45082W        W10309   8.238  21.938  12.014
45083W        W10310  10.336  14.663   1.958
45084W        W10311  39.810  14.876   1.909
45085W        W10312  20.980  10.901   2.327
45086W        W10313  19.147  38.590  11.087
45087W        W10314  21.267   5.918  14.990
45088W        W10315  18.730  36.840  12.444
45089W        W10316  34.784  12.631   0.961
45090W        W10317  13.533  16.374   1.763
45091W        W10318  37.918  26.486   3.319
45092W        W10319   6.237  16.751   1.902
45093W        W10320  24.600  19.768   3.385
45094W        W10321  14.010  27.710  11.182
45095W        W10322   3.716  13.776   1.402
45096W        W10323  22.771  21.251   3.692
45097W        W10324   0.987  36.841  12.426
45098W        W10325  18.143   1.011   3.848
45099W        W10326  32.152  36.909   0.277
45100W        W10327  20.805  21.164  11.719
45101W        W10328  25.053   7.808   0.988
45102W        W10329  17.471  16.792  13.494
45103W        W10330   9.649  22.528  12.060
45104W        W10331  44.178  26.488   5.539
45105W        W10332  29.683  27.549  13.534
45106W        W10333  29.961  29.033   0.791
45107W        W10334   5.875  11.616   0.712
45108W        W10335  36.864  26.606   3.325
45109W        W10336   9.169   4.785  12.644
45110W        W10337  43.298   5.002  14.111
45111W        W10338   9.325  41.687   4.287
45112W        W10339   1.384  40.885   1.392
45113W        W10340  18.012   5.769   0.483
45114W        W10341  26.129  33.164   2.300
45115W        W10342  23.220  20.137  14.377
45116W        W10343  13.956  10.030   3.548
45117W        W10344  26.402  39.459   5.222
45118W        W10345  32.317  27.131   3.539
45119W        W10346  41.746   1.331   4.897
45120W        W10347  34.344   3.905  14.958
45121W        W10348  17.761   3.781   4.165
45122W        W10349  21.643   2.334  14.911
45123W        W10350  34.627  40.449   2.586
45124W        W10351   3.399  37.518   1.339
45125W        W10352  42.875   1.735  11.901
45126W        W10353   8.359  34.508   1.619
45127W        W10354  16.320   7.804  10.649
45128W        W10355  14.125  18.664  12.005
45129W        W10356  12.908  16.104  13.496
45130W        W10357  36.490  12.455   3.370
45131W        W10358  41.211   8.296   1.123
45132W        W10359  10.247  24.049  10.721
45133W        W10360  33.117  13.154   0.288
45134W        W10361  18.774   7.274  11.876
45135W        W10362  31.398  44.544  14.925
45136W        W10363   3.838  14.186   0.799
45137W        W10364   1.267   8.215  12.787
45138W        W10365  23.056  29.432  12.662
45139W        W10366  35.009  15.525  13.856
45140W        W10367  14.782  28.206  13.018
45141W        W10368  41.964  36.017   0.708
45142W        W10369  27.234   6.247   1.584
45143W        W10370  44.449   9.102   3.652
45144W        W10371  39.714  44.171  10.082
45145W        W10372  26.987  34.040   4.291
45146W        W10373  23.496   9.792  13.425
45147W        W10374  18.851  14.600  13.976
45148W        W10375  33.372  34.244  10.740
45149W        W10376  14.244   2.371   3.724
45150W        W10377  24.127  28.386  11.109
45151W        W10378  40.637  16.718   1.173
45152W        W10379  30.186  12.317  12.618
45153W        W10380  30.684   3.763   4.186
45154W        W10381  12.920  19.903   3.629
45155W        W10382   5.341  12.659  10.982
45156W        W10383  24.531  25.319  11.650
45157W        W10384  44.319  28.125  11.710
45158W        W10385  24.110  14.858   4.494
45159W        W10386  35.709  42.857  11.207
45160W        W10387   1.246  10.369  12.976
45161W        W10388   6.490  39.139  14.513
45162W        W10389  33.436  10.078  14.308
45163W        W10390  44.306  21.541   4.088
45164W        W10391  10.350   3.827   0.452
45165W        W10392   8.442  42.049   2.767
45166W        W10393  13.147  10.082  14.920
45167W        W10394  33.873   2.363  14.936
45168W        W10395   3.429  37.078  13.791
45169W        W10396  41.842  44.547  13.945
45170W        W10397  15.220  39.917   4.462
45171W        W10398  14.880  34.284   3.856
45172W        W10399   7.457  11.296  10.677
45173W        W10400  27.350  12.228   0.525
45174W        W10401   0.666  14.552  11.086
45175W        W10402  39.287  22.521  12.049
45176W        W10403  12.661   1.772  14.170
45177W        W10404  14.101   0.700  11.362
45178W        W10405  12.180  30.929   3.734
45179W        W10406   5.495  44.285   1.621
45180W        W10407  34.544   8.410   2.595
45181W        W10408   4.961  29.022   4.568
45182W        W10409  24.765  39.307  12.478
45183W        W10410  12.612  22.838  14.207
45184W        W10411   0.872  24.966   0.600
45185W        W10412  37.987  28.452   3.216
45186W        W10413  12.737   9.375  14.888
45187W        W10414  22.912  33.659  14.414
45188W        W10415  15.114  32.056   3.854
45189W        W10416  34.477  16.019   3.594
45190W        W10417  20.155  38.079   1.037
45191W        W10418  29.971   7.708  12.845
45192W        W10419  14.272  38.591   1.764
45193W        W10420  34.924   7.840   2.813
45194W        W10421  10.204  37.025   2.253
45195W        W10422  26.231  20.214   4.969
45196W        W10423  19.000   4.152   0.421
45197W        W10424  30.023  11.847   2.505
45198W        W10425  19.746  22.699  13.824
45199W        W10426  19.285  23.702   2.269
45200W        W10427  14.783  16.757   4.535
45201W        W10428  18.063  26.575   2.072
45202W        W10429   0.435  35.378  14.477
45203W        W10430  27.160   9.330  11.681
45204W        W10431   6.014  35.455   4.104
45205W        W10432  33.857   9.670  10.435
45206W        W10433  35.658  12.355   1.227
45207W        W10434  36.925  35.378  11.210
45208W        W10435  30.827  34.974   4.955
45209W        W10436  17.970  37.043  13.404
45210W        W10437   9.841   0.559   3.336
45211W        W10438  22.304  22.131   1.583
45212W        W10439  41.405  12.256  12.431
45213W        W10440  26.211  34.171  11.243
45214W        W10441  10.888  44.053   1.920
45215W        W10442  38.070  38.044   0.894
45216W        W10443  43.254   9.073  10.888
45217W        W10444  11.286  25.258   2.219
45218W        W10445  20.490  35.815  14.918
45219W        W10446  31.589   5.056  12.203
45220W        W10447  41.862   5.214   9.846
45221W        W10448   7.259   2.367  10.652
45222W        W10449   6.167  26.435   3.710
45223W        W10450   2.519  40.284   2.223
45224W        W10451  44.035  22.265   1.965
45225W        W10452  30.425  24.536  12.091
45226W        W10453  37.381  37.528  10.604
45227W        W10454  41.019  40.403   1.255
45228W        W10455   3.505   0.328  14.407
45229W        W10456  37.364  11.814   4.130
45230W        W10457  28.681  36.839  12.880
45231W        W10458  43.724  21.974  13.848
45232W        W10459  23.526  44.793  12.276
45233W        W10460  43.241   0.413  12.679
45234W        W10461   9.340  31.452  10.977
45235W        W10462  25.230  27.139   1.444
45236W        W10463  40.074  39.490  14.751
45237W        W10464   8.142   4.726  11.029
45238W        W10465  30.845  24.726   1.386
45239W        W10466  31.109  16.524   3.652
45240W        W10467   9.610  34.823  10.991
45241W        W10468  33.150  21.623  11.553
45242W        W10469  42.639  31.142   1.283
45243W        W10470  22.622  17.047   0.488
45244W        W10471  27.611  43.182   2.170
45245W        W10472  23.929  21.930  12.281
45246W        W10473  36.415  12.546  12.933
45247W        W10474  35.029  44.215  12.932
45248W        W10475  29.007  44.325   0.995
45249W        W10476  20.280  16.362  13.297
45250W        W10477  30.127  22.048   0.781
45251W        W10478  20.053  44.184   0.250
45252W        W10479   0.306  44.768  14.455
45253W        W10480  29.066  34.618  12.525
45254W        W10481   3.325  25.189  11.043
45255W        W10482  41.701  30.400  10.193
45256W        W10483  15.962  10.861  11.960
45257W        W10484  18.640  37.989   4.478
45258W        W10485  44.126  41.114  12.604
45259W        W10486   7.892  24.989   2.591
45260W        W10487  10.827   8.173  12.978
45261W        W10488  19.080  25.938  14.287
45262W        W10489   3.299  21.533  11.209
45263W        W10490  37.586   0.032   4.279
45264W        W10491  32.552   3.405   4.966
45265W        W10492  11.330  14.298   3.606
45266W        W10493  43.289  13.687   3.202
45267W        W10494  13.625  27.891  13.550
45268W        W10495   4.387   0.025   3.249
45269W        W10496   7.537  21.117  11.632
45270W        W10497  18.571   5.707   2.123
45271W        W10498  16.289   5.162  14.271
45272W        W10499   1.961  41.973   0.940
45273W        W10500  33.368   1.080   3.020
45274W        W10501  44.320  18.100   3.633
45275W        W10502  41.428  32.523   0.383
45276W        W10503   4.901  40.867   1.104
45277W        W10504  13.316  16.050   2.451
45278W        W10505  10.439  43.333  13.112
45279W        W10506  15.587  29.505  12.526
45280W        W10507   8.619  17.519  10.671
45281W        W10508  11.729  31.201  11.930
45282W        W10509  27.906  25.542   2.430
45283W        W10510  35.709  25.701  14.329
45284W        W10511  33.577  10.239  11.571
45285W        W10512  37.876   0.201  13.454
45286W        W10513   8.731  25.186   4.715
45287W        W10514   4.809   9.982   2.900
45288W        W10515  25.008  14.221   1.177
45289W        W10516   8.459  26.400   4.121
45290W        W10517  41.355  20.799  10.712
45291W        W10518  42.937   9.293   1.265
45292W        W10519  17.221  38.072  12.348
45293W        W10520  25.036   4.008   0.316
45294W        W10521  35.505  37.314   1.305
45295W        W10522  19.635  14.557   2.813
45296W        W10523  21.785  32.368   1.696
45297W        W10524   5.561  13.267   1.164
45298W        W10525   4.989  31.407   2.265
45299W        W10526  22.770   6.134  12.901
45300W        W10527  27.911  34.527  13.864
45301W        W10528  34.806  36.083   0.758
45302W        W10529   6.637  20.598   4.707
45303W        W10530  22.530   5.548   2.084
45304W        W10531  25.847  13.173   4.566
45305W        W10532  38.380   0.979   1.287
45306W        W10533  21.757  25.670  14.940
45307W        W10534  41.343  13.300  12.062
45308W        W10535  14.186  20.227  11.457
45309W        W10536  38.082  33.309   0.794
45310W        W10537  33.482   1.750   4.145
45311W        W10538  11.117  37.907   1.540
45312W        W10539   1.646  22.964  11.006
45313W        W10540  13.090  12.165  10.359
45314W        W10541  35.901  40.535   4.530
45315W        W10542   8.475  40.410  12.698
45316W        W10543  13.966  35.384  11.505
45317W        W10544  34.964  29.624   1.356
45318W        W10545  26.687  41.550   1.746
45319W        W10546  12.273  13.167   2.161
45320W        W10547  29.575  18.737  13.952
45321W        W10548  24.580   0.476   0.839
45322W        W10549   4.427   9.303   0.139
45323W        W10550  22.483  41.229   4.186
45324W        W10551  15.570  32.412   0.052
45325W        W10552  25.921   9.727   1.440
45326W        W10553  29.707  36.248  14.119
45327W        W10554  42.237  36.915   0.820
45328W        W10555   8.919  31.402  12.604
45329W        W10556  21.102  42.270  11.724
45330W        W10557  44.452  12.220  10.645
45331W        W10558   2.685  17.132  12.855
45332W        W10559  27.119   0.131  10.120
45333W        W10560  20.034   3.471   4.049
45334W        W10561  42.673  16.268   2.610
45335W        W10562  44.786  11.596  13.094
45336W        W10563   8.630  18.753   0.412
45337W        W10564   6.370   8.883   1.310
45338W        W10565  29.930  27.764   0.454
45339W        W10566  40.816  25.743  11.188
45340W        W10567  12.460  11.353   1.414
45341W        W10568  33.091   9.022   3.871
45342W        W10569  31.565  35.479   5.367
45343W        W10570  35.121  34.397   1.603
45344W        W10571  42.056  30.306   5.014
45345W        W10572  33.054  41.845   1.769
45346W        W10573  42.751  41.458  11.429
45347W        W10574  29.110  15.372   2.896
45348W        W10575  11.347  34.307   4.310
45349W        W10576  33.901  18.179  13.839
45350W        W10577   2.025  21.371  12.090
45351W        W10578  38.467  33.914  12.697
45352W        W10579  35.688  22.545   2.584
45353W        W10580  16.316   5.301  10.666
45354W        W10581  43.330  36.198  11.604
45355W        W10582  23.287  31.552  12.507
45356W        W10583  24.805  42.965   2.838
45357W        W10584   5.792  21.670  12.837
45358W        W10585  42.892   3.099  12.221
45359W        W10586  23.639   6.020  14.622
45360W        W10587  21.713  17.194  13.084
45361W        W10588  38.579  29.401   3.632
45362W        W10589   7.805  34.917   1.684
45363W        W10590  44.819   8.701  12.514
45364W        W10591  15.667   2.377   0.718
45365W        W10592  42.007  11.313   4.168
45366W        W10593  15.787  24.600  12.031
45367W        W10594  22.625   8.700   3.396
45368W        W10595  29.408  44.235  13.478
45369W        W10596  40.848  37.857   4.683
45370W        W10597  21.227  38.820   1.335
45371W        W10598  30.156  30.051   4.367
45372W        W10599  28.476  33.612   3.467
45373W        W10600  11.115  39.268  10.666
45374W        W10601   0.018  12.761   3.403
45375W        W10602  44.215   0.478  11.648
45376W        W10603  21.288  31.469  10.632
45377W        W10604  42.342  40.917  12.438
45378W        W10605  39.360  35.340   0.951
45379W        W10606  39.271  17.697   4.115
45380W        W10607  17.629  14.720   4.534
45381W        W10608  25.772   0.218   0.270
45382W        W10609   4.104  16.772   0.529
45383W        W10610  26.146  17.803  13.531
45384W        W10611  25.978  24.495   1.830
45385W        W10612  21.518  11.330  11.261
45386W        W10613  23.961  20.101  11.052
45387W        W10614   7.254  40.368  10.720
45388W        W10615  38.429  27.181  12.978
45389W        W10616   6.942  12.777  12.520
45390W        W10617  35.608  32.831   4.343
45391W        W10618  22.725  16.412  12.559
45392W        W10619  33.540  12.390   1.680
45393W        W10620  17.273  15.729   3.324
45394W        W10621   6.913  11.336  13.051
45395W        W10622  37.593  13.899   3.344
45396W        W10623   8.899   0.455  14.053
45397W        W10624  19.988  32.372  11.991
45398W        W10625  42.017  16.173   0.002
45399W        W10626  19.362  11.955  11.437
45400W        W10627   8.171  41.634  14.556
45401W        W10628   0.473   2.856  11.620
45402W        W10629  15.730  30.890   1.096
45403W        W10630  40.553   4.312   2.253
45404W        W10631   9.262   3.555  14.914
45405W        W10632  26.599   3.134   2.390
45406W        W10633  24.834  23.158   2.696
45407W        W10634  29.539  43.268   1.452
45408W        W10635   1.829  19.138   1.264
45409W        W10636   4.082  30.307  11.120
45410W        W10637  11.306   7.227   4.034
45411W        W10638  41.343   1.033   4.052
45412W        W10639  28.057  17.373  12.957
45413W        W10640  27.309  31.181  14.402
45414W        W10641  34.396  18.642   2.393
45415W        W10642  10.444  18.786  10.366
45416W        W10643  23.995  10.204   0.253
45417W        W10644   9.841  26.598  14.542
45418W        W10645  18.215  20.283  12.763
45419W        W10646  18.519  26.431   2.254
45420W        W10647  23.332  16.285   4.697
45421W        W10648   2.312  19.213   2.109
45422W        W10649  21.046  21.913   1.490
45423W        W10650  42.381  12.835   2.744
45424W        W10651  22.692  38.363  10.638
45425W        W10652  37.998  28.149  11.602
45426W        W10653  31.673  23.591  11.919
45427W        W10654  22.319  15.780  11.970
45428W        W10655  39.421  10.686   2.432
45429W        W10656  42.989   3.421  14.269
45430W        W10657  29.238   8.340  14.515
45431W        W10658  34.402  38.925  12.556
45432W        W10659  29.094  28.469   4.019
45433W        W10660   6.194  32.354  12.526
45434W        W10661   3.869  14.621   0.321
45435W        W10662  13.836  42.445  12.773
45436W        W10663  22.158  35.408  12.101
45437W        W10664  26.192  21.202  11.623
45438W        W10665  32.528   3.379   0.890
45439W        W10666  24.250  15.413  11.448
45440W        W10667  39.976  18.210   4.533
45441W        W10668  37.826  23.240   1.007
45442W        W10669   4.373   9.892   4.587
45443W        W10670  25.087  28.971  12.458
45444W        W10671  25.939  18.094   4.910
45445W        W10672  44.247  44.798  10.666
45446W        W10673  13.946  33.162  11.624
45447W        W10674   7.187  22.135  10.568
45448W        W10675   2.000   6.787   4.018
45449W        W10676  40.293  12.721   1.397
45450W        W10677  14.794  24.562   4.199
45451W        W10678  20.004   0.460   0.739
45452W        W10679  17.809   0.443  14.437
45453W        W10680   6.503   3.727   2.287
45454W        W10681  44.890  27.305   2.411
45455W        W10682  28.998  30.569  11.253
45456W        W10683  23.232  37.576  11.110
45457W        W10684  17.882  14.522  11.401
45458W        W10685   4.918  44.139  13.878
45459W        W10686  13.262   1.509   1.843
45460W        W10687   9.928   1.819  11.642
45461W        W10688  31.614  16.683  13.402
45462W        W10689  33.821  37.315   2.205
45463W        W10690   3.359  27.938  13.291
45464W        W10691  24.649  11.505   2.835
45465W        W10692  16.527  19.800  14.376
45466W        W10693  44.037   6.827  11.976
45467W        W10694  33.062   8.111  10.632
45468W        W10695  32.111   6.918  13.012
45469W        W10696  12.817  25.984  13.233
45470W        W10697  19.461   5.230  10.607
45471W        W10698  34.176  36.362  11.141
45472W        W10699  12.629  39.395   2.942
45473W        W10700   4.030  41.778  11.189
45474W        W10701  32.424  17.860   5.055
45475W        W10702  43.983  19.047  11.021
45476W        W10703  37.128  18.618  11.202
45477W        W10704  24.090   1.087  14.386
45478W        W10705  13.313  21.309   2.903
45479W        W10706   7.411  34.327   0.552
45480W        W10707  44.612   2.648   0.920
45481W        W10708  21.722  30.999  13.627
45482W        W10709  13.234  24.665   2.116
45483W        W10710  17.033  31.612   1.320
45484W        W10711   9.327   0.259  13.822
45485W        W10712  36.940  42.383  14.325
45486W        W10713  29.157  36.011   3.163
45487W        W10714   6.624  14.306   0.825
45488W        W10715  32.449  21.816  12.918
45489W        W10716  11.870  16.304   5.082
45490W        W10717  15.793  36.773   0.791
45491W        W10718  36.943  25.751  11.547
45492W        W10719  19.614   5.985  12.547
45493W        W10720   3.409  23.583  14.715
45494W        W10721  27.471  14.165  14.821
45495W        W10722   2.189  25.106   2.680
45496W        W10723   9.816   2.736   4.432
45497W        W10724  32.472  18.504  12.127
45498W        W10725  20.075  42.110  12.568
45499W        W10726  19.603   2.898  13.594
45500W        W10727   1.634  30.521  13.089
45501W        W10728  42.558  22.790   0.425
45502W        W10729  23.742   7.423   3.228
45503W        W10730  32.371  18.772   3.234
45504W        W10731   2.953  40.750   5.107
45505W        W10732  16.710  32.490   0.864
45506W        W10733  38.146   0.819   3.349
45507W        W10734  39.991   8.498   9.969
45508W        W10735  41.557   4.450  11.983
45509W        W10736  13.131  42.005   4.601
45510W        W10737   5.254  39.914   1.810
45511W        W10738  22.141  29.010  13.735
45512W        W10739  37.775   9.299   1.756
45513W        W10740  39.479  26.547  11.543
45514W        W10741  17.602  30.910   4.542
45515W        W10742  20.727  17.079   1.246
45516W        W10743  26.205   6.457   0.365
45517W        W10744  14.093  26.191   1.814
45518W        W10745   6.384  22.067  11.134
45519W        W10746  22.386   6.249   0.393
45520W        W10747  34.038  23.876   4.586
45521W        W10748  32.217  13.642   1.207
45522W        W10749  34.116  31.383  10.771
45523W        W10750  10.928  44.319  10.748
45524W        W10751  14.665   5.807  10.743
45525W        W10752   1.885   3.174  12.479
45526W        W10753  14.708  36.360   3.796
45527W        W10754  15.812  21.344  13.007
45528W        W10755   3.212  14.795   4.004
45529W        W10756   6.922  43.804   4.564
45530W        W10757  32.560   7.262   0.916
45531W        W10758  14.324   8.713   0.949
45532W        W10759  41.847  28.729   2.171
45533W        W10760  23.986   8.526   0.914
45534W        W10761  23.227  43.858   4.966
45535W        W10762  37.887  23.998  12.456
45536W        W10763   7.422  27.389   0.398
45537W        W10764  22.634  38.963   4.327
45538W        W10765   2.257  18.698   0.603
45539W        W10766  12.885  38.024   1.641
45540W        W10767  24.543  42.889  14.344
45541W        W10768   9.177   8.665   4.253
45542W        W10769  12.082  41.875   2.258
45543W        W10770  39.989   7.975   3.792
45544W        W10771  14.802  18.261  14.022
45545W        W10772  11.756  22.068  11.486
45546W        W10773  25.576  12.426  13.395
45547W        W10774  23.443  44.331  10.159
45548W        W10775  37.421  30.504   2.366
45549W        W10776  33.507  13.672  12.309
45550W        W10777  38.027  13.939  12.621
45551W        W10778   2.782  40.342   2.655
45552W        W10779   0.822  14.038   2.218
45553W        W10780  38.313  27.745   1.145
45554W        W10781  18.703  26.512   3.196
45555W        W10782   3.404  33.891  13.002
45556W        W10783  42.128  30.094   1.348
45557W        W10784  15.219  27.167  11.498
45558W        W10785  44.312  25.560  11.159
45559W        W10786  38.886   4.431  13.919
45560W        W10787  15.917  12.734  12.135
45561W        W10788  34.506   8.619   1.843
45562W        W10789  30.977  20.097   1.004
45563W        W10790  44.055  21.525   2.248
45564W        W10791   9.923  27.288  11.085
45565W        W10792   4.389  37.940  12.502
45566W        W10793  31.674  23.713  13.982
45567W        W10794   0.125   6.292  10.812
45568W        W10795  36.786   7.305  11.614
45569W        W10796  19.384  26.018   4.071
45570W        W10797  30.523  33.078   4.794
45571W        W10798  13.618  13.509  12.638
45572W        W10799  41.748  22.251  14.028
45573W        W10800  17.799  18.496   0.380
45574W        W10801  26.075   8.339  11.207
45575W        W10802   1.654  20.666  10.645
45576W        W10803  12.590  10.893  14.837
45577W        W10804  27.222   8.898  10.935
45578W        W10805  18.470   2.308  11.932
45579W        W10806  32.120  12.121   1.940
45580W        W10807  12.739  11.262   4.667
45581W        W10808  36.123   8.389  12.262
45582W        W10809  17.544  39.954   2.311
45583W        W10810   6.772   9.059  14.447
45584W        W10811  43.874  10.462  14.018
45585W        W10812  12.689  13.546   1.165
45586W        W10813   9.586  40.074  14.906
45587W        W10814  28.029  40.323  14.348
45588W        W10815  31.550  34.141   0.517
45589W        W10816  25.121  34.931   4.445
45590W        W10817  26.650  38.050   0.467
45591W        W10818  11.144  37.628   2.868
45592W        W10819  18.607  38.121  12.135
45593W        W10820  43.179  12.180  11.095
45594W        W10821  27.972  24.977   0.108
45595W        W10822  44.509  35.512   1.729
45596W        W10823  11.361  37.814  14.542
45597W        W10824  14.029  12.887  13.059
45598W        W10825  14.905  43.927   0.835
45599W        W10826  30.166   9.984  13.005
45600W        W10827  22.503  32.538   2.139
45601W        W10828  10.377  39.379   4.472
45602W        W10829  42.157  16.465   0.809
45603W        W10830  42.283  27.219  13.341
45604W        W10831  38.600  37.121  12.976
45605W        W10832   8.086  26.036  14.334
45606W        W10833   2.503  15.043   1.385
45607W        W10834  19.861  41.888  12.127
45608W        W10835  29.370  16.942   4.122
45609W        W10836  20.263  18.970  14.791
45610W        W10837  41.196  28.715  11.501
45611W        W10838  23.585  27.600   4.430
45612W        W10839  40.516  10.375   4.186
45613W        W10840  24.930  35.309   0.565
45614W        W10841  37.367  34.954  11.580
45615W        W10842  29.273   4.962  11.071
45616W        W10843   7.349   3.791  11.973
45617W        W10844  17.237   1.176  14.297
45618W        W10845  36.364   6.627   2.787
45619W        W10846  40.948  36.739   4.228
45620W        W10847  29.611   0.799   4.553
45621W        W10848  18.757  40.165  13.830
45622W        W10849  35.493  41.514  11.023
45623W        W10850  13.960  11.833   4.574
45624W        W10851   1.065   6.329  11.130
45625W        W10852   2.834  25.791   1.438
45626W        W10853  23.168  17.794  14.451
45627W        W10854  21.972  11.280  12.568
45628W        W10855  27.200  30.056   4.179
45629W        W10856  11.701  14.822  14.916
45630W        W10857   7.131  42.952   0.526
45631W        W10858  14.376   9.304  12.217
45632W        W10859  10.911  12.322  12.508
45633W        W10860  15.325  40.798   0.003
45634W        W10861   8.098  33.040   2.042
45635W        W10862   9.999  31.954   4.009
45636W        W10863  21.614  37.884  14.662
45637W        W10864  40.972   3.651   4.191
45638W        W10865  42.272   2.023   2.648
45639W        W10866  26.478  23.358   4.665
45640W        W10867  31.154  34.480   3.345
45641W        W10868  27.478  26.211   0.552
45642W        W10869  29.626  39.294   0.995
45643W        W10870  36.039  28.001   4.258
45644W        W10871  18.550  24.754   2.113
45645W        W10872  19.692   0.726   4.048
45646W        W10873  36.946  18.546  11.707
45647W        W10874  43.344   9.662   4.394
45648W        W10875  37.520   2.945   2.162
45649W        W10876  44.022  17.648   3.723
45650W        W10877  22.988  27.291   4.955
45651W        W10878  36.504  13.152   4.600
45652W        W10879   1.824  33.068  14.228
45653W        W10880  18.536  27.724   3.750
45654W        W10881  44.843  16.824  13.556
45655W        W10882  16.590  19.155   4.206
45656W        W10883   7.673  16.900   2.789
45657W        W10884  38.894  43.228  14.069
45658W        W10885  42.905  30.466   3.077
45659W        W10886  30.916  34.161   4.935
45660W        W10887   1.860  22.097  12.142
45661W        W10888  33.360  44.995   3.980
45662W        W10889  11.624  41.017  11.394
45663W        W10890  16.290  17.385  12.552
45664W        W10891  36.816  35.451   3.979
45665W        W10892  29.217  34.812  14.423
45666W        W10893  17.844   5.234  11.084
45667W        W10894   9.694   6.430   4.964
45668W        W10895   3.677  29.293  13.394
45669W        W10896  29.178  10.752   1.849
45670W        W10897  28.673  40.229   4.489
45671W        W10898  23.051  20.075   2.618
45672W        W10899   0.485  14.744  11.527
45673W        W10900   3.753  32.081  10.930
45674W        W10901  19.747  13.837   4.101
45675W        W10902  20.289  44.960  10.525
45676W        W10903  38.472  15.063   0.820
45677W        W10904   3.467  19.123   0.329
45678W        W10905   5.402  26.484   2.280
45679W        W10906  16.828  18.597  13.841
45680W        W10907  17.154  27.912  12.481
45681W        W10908   5.887   3.255   0.834
45682W        W10909  12.891  34.993   4.257
45683W        W10910  44.936  15.819  13.420
45684W        W10911  18.720  26.201   3.624
45685W        W10912  40.491   5.433   2.211
45686W        W10913   4.292  27.098   3.248
45687W        W10914  15.556  19.936   0.400
45688W        W10915   6.779  29.559  12.088
45689W        W10916   9.308  28.243   2.288
45690W        W10917  41.599  29.838   4.282
45691W        W10918  28.975   5.414   1.728
45692W        W10919  34.306  38.156  10.319
45693W        W10920  32.823  43.393  14.886
45694W        W10921  40.765  22.995  13.057
45695W        W10922   0.996  21.110   2.184
45696W        W10923  33.329   9.169   0.419
45697W        W10924  27.287  36.918   4.349
45698W        W10925  21.172  37.444   2.242
45699W        W10926  19.487  40.509  13.373
45700W        W10927  21.160   1.744  11.182
45701W        W10928  40.236   9.747   0.816
45702W        W10929  25.318   3.468   2.753
45703W        W10930   6.252   5.213  14.988
45704W        W10931  38.778  10.235  14.433
45705W        W10932  30.968   8.738   1.318
45706W        W10933  24.736  43.284   0.504
45707W        W10934  30.140  15.600   2.216
45708W        W10935   4.998  27.396   1.257
45709W        W10936  16.549  35.441   4.537
45710W        W10937  18.256   1.985  10.604
45711W        W10938  14.138   0.663   2.070
45712W        W10939  29.996  13.660  14.057
45713W        W10940  33.127  26.196   4.307
45714W        W10941   8.705  27.291  13.048
45715W        W10942  11.802  11.233   4.795
45716W        W10943  26.528   8.139   2.788
45717W        W10944  39.480   9.601  11.652
45718W        W10945  38.966  17.151  14.376
45719W        W10946  21.131   8.276   5.036
45720W        W10947   9.801  26.168  12.958
45721W        W10948  18.124  30.906   4.600
45722W        W10949   0.487  23.139  11.913
45723W        W10950  14.648  21.120   1.885
45724W        W10951  39.583  35.356   4.380
45725W        W10952  21.841   1.973   4.960
45726W        W10953  21.938  20.497  12.916
45727W        W10954  16.913  41.431  12.651
45728W        W10955  43.413   5.172  10.189
45729W        W10956  33.120  31.013  13.029
45730W        W10957  17.331   2.692   0.497
45731W        W10958   6.877  35.695   4.963
45732W        W10959   0.719  22.139  11.533
45733W        W10960  35.964   5.834   0.387
45734W        W10961  39.767   9.625  12.059
45735W        W10962  14.019  37.092  13.673
45736W        W10963   0.079  39.784  11.064
45737W        W10964  25.606  24.243  12.095
45738W        W10965  33.801  10.364  13.046
45739W        W10966   6.170   0.659  13.073
45740W        W10967  43.096  39.571  14.982
45741W        W10968  37.953   9.393  13.147
45742W        W10969  35.004  26.717  14.029
45743W        W10970   1.046   1.487  11.580
45744W        W10971  15.305   3.750  13.835
45745W        W10972  41.081   1.052  11.141
45746W        W10973   8.153  42.599   3.747
45747W        W10974   9.559   3.258  13.008
45748W        W10975  28.543  31.384   2.651
45749W        W10976   0.008  11.517  14.744
45750W        W10977  25.493  10.377  12.572
45751W        W10978  34.160  13.034   1.414
45752W        W10979   5.149  12.109  12.588
45753W        W10980  35.270   0.993   4.546
45754W        W10981  20.796  26.156  14.025
45755W        W10982  18.899  32.583  14.410
45756W        W10983  22.318  20.794  12.669
45757W        W10984   8.319  10.624   3.863
45758W        W10985  34.445  24.927   1.556
45759W        W10986  27.578  21.238  12.011
45760W        W10987  20.297  26.229   2.278
45761W        W10988  37.898  26.498   4.306
45762W        W10989  30.708   3.317   1.298
45763W        W10990   4.850   5.295  14.842
45764W        W10991  22.255  20.684  10.847
45765W        W10992  35.316  41.812  14.777
45766W        W10993  21.312  10.129   3.259
45767W        W10994  41.368  27.131  10.721
45768W        W10995  25.056  40.446  13.061
45769W        W10996  30.216   0.951  13.393
45770W        W10997   6.955  19.971  13.420
45771W        W10998  13.247  25.174   4.009
45772W        W10999  34.483  27.658   4.165
45773W        W11000  32.384  27.680  11.097
45774W        W11001  28.413  29.138   3.108
45775W        W11002  31.182  12.839  11.675
45776W        W11003  42.888  29.174  13.956
45777W        W11004  41.571  24.166   4.073
45778W        W11005  35.227  38.636   1.034
45779W        W11006  44.374  38.203  13.668
45780W        W11007  38.821  14.243   0.695
45781W        W11008  36.380   4.226   1.403
45782W        W11009  13.324  20.482  14.965
45783W        W11010   3.902  20.261  11.638
45784W        W11011  20.111   5.419   4.419
45785W        W11012   7.284  40.484   1.957
45786W        W11013  36.274  32.559  13.611
45787W        W11014  12.166   4.656  12.187
45788W        W11015   5.434  35.097  14.745
45789W        W11016  37.528  20.694  11.378
45790W        W11017  27.549  11.376   4.156
45791W        W11018  33.649  12.715   4.099
45792W        W11019  25.138  40.006   2.741
45793W        W11020  25.097  42.122  13.872
45794W        W11021  17.760  36.091   0.896
45795W        W11022   5.251  11.657   2.219
45796W        W11023  29.540  12.955   0.455
45797W        W11024  31.783  43.468  14.927
45798W        W11025  41.102  37.284  13.388
45799W        W11026  13.834  37.065   2.859
45800W        W11027  20.114   9.991  12.135
45801W        W11028   5.523   6.524   0.601
45802W        W11029  14.048  42.859   4.194
45803W        W11030   3.790  27.013   1.358
45804W        W11031  14.697   0.298  12.014
45805W        W11032   8.776  44.030   4.205
45806W        W11033  37.342  35.263  14.295
45807W        W11034  39.015  13.654  10.687
45808W        W11035  41.912  27.767   2.338
45809W        W11036  38.911  24.819   1.495
45810W        W11037  34.097  42.220   2.779
45811W        W11038   8.807  40.550   4.565
45812W        W11039  12.282  38.933   0.725
45813W        W11040  10.860  19.315   0.896
45814W        W11041   4.478  41.656   4.173
45815W        W11042  38.292  30.430  11.598
45816W        W11043  24.042  44.417   4.083
45817W        W11044  36.514  31.071  10.784
45818W        W11045   5.302  10.376  14.249
45819W        W11046  28.551  40.293   1.509
45820W        W11047  28.143   2.786  11.040
45821W        W11048  22.543  15.248   3.660
45822W        W11049  18.558  24.134   0.924
45823W        W11050   7.704  14.178   0.250
45824W        W11051  40.554  31.800  14.139
45825W        W11052  37.457   5.379   0.989
45826W        W11053   0.656  34.603  14.067
45827W        W11054  13.421  25.024  14.001
45828W        W11055  35.480   7.895   2.420
45829W        W11056   5.195   1.008   2.786
45830W        W11057   9.809  16.094   1.507
45831W        W11058  28.940  33.473  10.008
45832W        W11059  12.962   2.019  11.194
45833W        W11060  36.232  30.841   0.703
45834W        W11061  31.777  37.742   4.500
45835W        W11062   6.398   5.169  10.834
45836W        W11063  13.061  42.935   1.358
45837W        W11064  34.581  35.023  11.002
45838W        W11065  38.115  27.950   3.228
45839W        W11066  19.680  41.204   3.360
45840W        W11067   7.050  43.769   0.404
45841W        W11068  44.288  31.471   0.035
45842W        W11069   1.301  25.734  14.003
45843W        W11070   6.716   3.356   4.583
45844W        W11071  28.532   9.064   2.822
45845W        W11072  38.182  26.110   4.117
45846W        W11073  22.068  12.343   2.804
45847W        W11074  26.646   8.424   3.851
45848W        W11075  27.945   0.948   1.248
45849W        W11076  23.139  28.160  13.365
45850W        W11077  25.535  11.024  11.586
45851W        W11078  29.715  31.686  14.489
45852W        W11079  30.901   7.664   0.655
45853W        W11080  35.878   4.440  10.299
45854W        W11081   0.512  35.040  12.551
45855W        W11082  37.017   1.955   0.668
45856W        W11083   8.746  37.579  10.802
45857W        W11084  23.202  44.497   1.685
45858W        W11085  21.677  22.006   0.987
45859W        W11086   9.923   2.455   0.410
45860W        W11087  14.649  41.337   3.667
45861W        W11088  35.296  43.184  12.023
45862W        W11089  26.107   5.488  13.106
45863W        W11090  10.273   6.861   2.882
45864W        W11091  33.320  19.635  12.932
45865W        W11092   0.512  39.742   1.007
45866W        W11093   6.189   1.376  13.564
45867W        W11094  18.989  31.446  11.428
45868W        W11095  24.223   9.371  13.099
45869W        W11096  22.088   7.835   2.686
45870W        W11097  36.081  30.479  13.880
45871W        W11098  36.556  11.885  12.498
45872W        W11099  39.056  35.615  13.039
45873W        W11100  15.530  25.073   1.978
45874W        W11101   6.845  25.820  13.019
45875W        W11102  26.441  29.041   0.814
45876W        W11103  11.188  33.626  12.030
45877W        W11104  17.055  31.118   0.845
45878W        W11105  43.219  30.053   4.352
45879W        W11106  34.236   0.234   3.385
45880W        W11107  19.313  20.943   1.735
45881W        W11108   5.006  39.020  12.397
45882W        W11109  28.645  23.665  12.860
45883W        W11110  41.834  18.849   0.738
45884W        W11111  18.325  24.042   3.650
45885W        W11112   2.979  22.528   0.859
45886W        W11113  10.413  38.493  11.505
45887W        W11114  44.243  41.438   3.276
45888W        W11115  34.001  16.108  14.574
45889W        W11116  43.855  27.924  11.746
45890W        W11117  34.513  15.777  10.824
45891W        W11118   6.816  32.631  15.000
45892W        W11119  21.310  16.569  13.591
45893W        W11120   9.653  30.899   1.861
45894W        W11121  23.726   3.403   1.668
45895W        W11122   4.228  42.229  11.593
45896W        W11123  14.032  19.375  10.857
45897W        W11124   9.475   7.352  12.084
45898W        W11125  10.511  29.914   0.894
45899W        W11126   8.394   4.235  11.013
45900W        W11127  34.440   2.372   3.251
45901W        W11128  36.458  21.294   9.938
45902W        W11129  29.391   6.844  12.386
45903W        W11130  10.174   8.336   3.662
45904W        W11131  19.152   3.946  12.898
45905W        W11132   2.503  12.363  14.428
45906W        W11133  30.747  21.931   1.292
45907W        W11134  28.753  22.583   4.190
45908W        W11135   4.498   7.287  10.844
45909W        W11136  11.896  19.562   2.794
45910W        W11137  39.733  14.042  11.267
45911W        W11138  40.801  29.022  11.603
45912W        W11139  13.280  32.570  13.584
45913W        W11140   8.895  31.762  12.128
45914W        W11141  14.258  39.185  12.528
45915W        W11142   7.799  13.760   2.409
45916W        W11143  13.297  21.056   2.426
45917W        W11144  42.920  19.113   0.874
45918W        W11145  28.574   0.378   3.613
45919W        W11146  33.483  29.966  12.331
45920W        W11147   7.372   8.142  12.031
45921W        W11148  30.491  29.611   9.964
45922W        W11149  38.854   5.257  11.940
45923W        W11150   7.938  15.192   0.826
45924W        W11151  24.280   2.346   5.370
45925W        W11152   3.190  14.043   2.767
45926W        W11153  23.784  12.116  13.436
45927W        W11154  14.748  14.492  12.727
45928W        W11155  16.811  23.519  13.778
45929W        W11156  38.326  18.891  13.255
45930W        W11157  19.097  29.895  13.241
45931W        W11158  37.018   0.790  11.253
45932W        W11159   2.680  32.536  11.574
45933W        W11160  12.857  18.088   3.958
45934W        W11161  13.223  10.209   1.863
45935W        W11162  39.432  39.319   1.800
45936W        W11163  24.773  33.037  11.634
45937W        W11164  13.681   9.201   2.370
45938W        W11165   1.807  40.043  13.898
45939W        W11166  26.728  20.601  11.477
45940W        W11167  25.663   7.363  11.221
45941W        W11168  15.139  42.238   0.832
45942W        W11169  28.967  43.552   0.309
45943W        W11170  38.347   1.937   4.410
45944W        W11171   1.870  41.504  11.626
45945W        W11172  32.745  25.663   4.361
45946W        W11173  26.941  35.028  12.127
45947W        W11174  35.155  28.942  14.562
45948W        W11175  27.386  36.325   5.573
45949W        W11176  35.361  37.085  10.360
45950W        W11177  22.391  34.523  14.277
45951W        W11178   1.120   1.928  14.914
45952W        W11179   9.000  43.294   3.689
45953W        W11180  25.262  44.570   1.214
45954W        W11181  14.184   1.701   2.393
45955W        W11182  17.813  33.151   0.236
45956W        W11183  20.645  30.516  12.890
45957W        W11184  30.599  14.702   2.386
45958W        W11185  12.520   2.305  11.072
45959W        W11186  39.351   6.178  12.819
45960W        W11187  28.391  44.376   0.316
45961W        W11188  43.051  40.607  10.819
45962W        W11189  15.671  29.681   3.790
45963W        W11190   5.280  43.942   2.873
45964W        W11191  30.976   1.076  10.740
45965W        W11192  24.965  44.438   5.052
45966W        W11193  43.284  36.565  12.976
45967W        W11194  33.872  23.698  14.500
45968W        W11195  18.729  12.375   0.948
45969W        W11196  41.632  15.200  11.418
45970W        W11197  36.498  31.457   4.531
45971W        W11198  28.139  30.125  14.555
45972W        W11199  44.588   5.301   4.546
45973W        W11200  27.483  25.615   4.188
45974W        W11201  20.267   1.533  13.043
45975W        W11202  21.771   7.287   0.782
45976W        W11203  40.900   4.259   1.234
45977W        W11204  28.315  43.988   3.406
45978W        W11205  18.623  16.639   4.493
45979W        W11206  20.329   8.882   5.193
45980W        W11207  37.069  19.807  14.891
45981W        W11208  17.589  23.291  11.325
45982W        W11209  16.820  22.057   0.961
45983W        W11210  42.983  39.426  12.689
45984W        W11211   9.355  13.285   4.022
45985W        W11212   9.270  38.558  13.341
45986W        W11213  24.455  22.246  12.048
45987W        W11214  20.566  40.056  13.918
45988W        W11215   2.472  13.225   4.994
45989W        W11216   0.467  44.862   2.463
45990W        W11217  14.568  33.608  14.526
45991W        W11218  36.516  26.438   3.661
45992W        W11219  33.885   7.061   0.694
45993W        W11220  35.107  12.649   4.324
45994W        W11221  36.820  37.775   0.822
45995W        W11222   3.671   0.921   0.199
45996W        W11223  39.792  18.605   1.441
45997W        W11224  38.071   0.478  14.984
45998W        W11225  27.028   5.978   4.426
45999W        W11226  20.306   2.777  14.877
46000W        W11227  25.069  11.403  12.957
46001W        W11228  38.108  39.740  11.975
46002W        W11229  31.449  14.470   2.758
46003W        W11230  26.728  41.288  14.844
46004W        W11231  13.604   1.279  14.340
46005W        W11232  20.749  40.428  13.132
46006W        W11233   6.407  34.376  12.350
46007W        W11234  29.495  38.421  12.392
46008W        W11235  31.617  35.990   5.408
46009W        W11236   0.369  39.375  11.952
46010W        W11237  19.885   1.547   0.501
46011W        W11238  21.741  35.572  10.522
46012W        W11239  16.107  31.636  11.510
46013W        W11240  23.777  24.345  12.067
46014W        W11241   6.132   5.854  14.371
46015W        W11242   3.944  35.472   3.850
46016W        W11243  16.351  29.442  12.000
46017W        W11244  32.077  43.775  14.134
46018W        W11245  15.248  12.791   1.200
46019W        W11246   9.429  22.042  12.508
46020W        W11247  22.603  36.115   1.474
46021W        W11248  23.561  35.187   1.626
46022W        W11249  10.362  35.001   1.363
46023W        W11250   5.778  28.528  11.615
46024W        W11251  27.817  44.800   2.628
46025W        W11252  18.099   0.235   4.110
46026W        W11253  39.342   2.779   1.652
46027W        W11254  17.610  17.115  12.444
46028W        W11255   5.431  28.614   1.470
46029W        W11256  24.239  10.075  11.205
46030W        W11257  27.229   9.857  14.434
46031W        W11258  38.551   7.766   3.833
46032W        W11259  22.585  39.385  10.659
46033W        W11260  11.791  31.510  13.513
46034W        W11261  37.525  12.251  14.449
46035W        W11262  21.645  35.716  13.703
46036W        W11263   9.366  17.856   5.037
46037W        W11264  35.300  38.830   4.280
46038W        W11265  40.438  39.625  13.905
46039W        W11266  32.129   4.137  13.341
46040W        W11267  26.560  32.335   0.204
46041W        W11268  11.986  28.670  12.192
46042W        W11269  18.565  23.668  14.813
46043W        W11270  29.477   3.390   4.025
46044W        W11271  10.677  40.552  14.500
46045W        W11272  16.621  28.043   3.246
46046W        W11273  30.937  14.411   4.302
46047W        W11274  21.909  42.890   1.365
46048W        W11275  37.977  26.558   1.525
46049W        W11276  33.459  26.658  12.968
46050W        W11277  40.799   4.357  14.947
46051W        W11278   6.615  12.605  11.630
46052W        W11279  31.015  28.499  12.838
46053W        W11280  24.982  23.229   1.570
46054W        W11281  36.115  42.804   3.284
46055W        W11282  26.138  10.702   4.338
46056W        W11283  23.149  38.443   2.692
46057W        W11284  17.120   3.294   5.010
46058W        W11285  10.604  35.146   1.833
46059W        W11286  34.222  19.166  11.206
46060W        W11287  16.061  34.411  12.900
46061W        W11288  13.468  37.376  10.648
46062W        W11289   3.457  15.486   1.363
46063W        W11290  33.914   2.933  12.896
46064W        W11291  40.430  13.364   3.325
46065W        W11292  33.087   2.614   3.895
46066W        W11293  18.009  38.882  13.666
46067W        W11294  13.918  18.678   1.924
46068W        W11295   8.214  40.250  13.101
46069W        W11296  12.354  28.778   0.863
46070W        W11297  22.770  13.058   3.751
46071W        W11298  35.186  28.015   0.710
46072W        W11299  19.085  11.670   1.168
46073W        W11300   4.591  22.920  12.553
46074W        W11301  29.538  20.782   2.668
46075W        W11302  20.760  23.446  13.962
46076W        W11303  22.746  16.770  13.815
46077W        W11304  22.538  22.099   3.698
46078W        W11305  42.908  16.422   0.372
46079W        W11306  13.837  11.791  13.839
46080W        W11307  31.623  25.097  10.514
46081W        W11308  17.041  23.284  11.057
46082W        W11309  28.059  28.042  10.718
46083W        W11310  41.673  28.462  11.545
46084W        W11311  13.662  29.219   0.753
46085W        W11312  19.778  13.839  12.977
46086W        W11313  12.809  26.535   1.696
46087W        W11314  35.909  44.451   4.271
46088W        W11315  41.420  39.905  14.633
46089W        W11316  24.181  12.459  13.395
46090W        W11317   2.383   0.896  10.674
46091W        W11318   6.845  21.721  12.936
46092W        W11319   7.383  32.923  13.580
46093W        W11320  41.056  44.044  11.174
46094W        W11321   1.145  31.885   3.147
46095W        W11322   1.648   3.470   0.247
46096W        W11323  42.821   8.161   2.590
46097W        W11324   8.505   1.179   0.482
46098W        W11325  34.594  18.766   4.865
46099W        W11326  12.262  37.354  13.116
46100W        W11327  32.001  14.696  13.849
46101W        W11328  36.368   9.610  13.963
46102W        W11329   6.857  18.387   3.111
46103W        W11330  23.830  26.030  12.292
46104W        W11331  38.299  25.883  13.405
46105W        W11332   8.184   7.358   1.231
46106W        W11333  29.489  43.038   0.994
46107W        W11334  38.487   8.792   2.649
46108W        W11335  21.814  38.397  12.503
46109W        W11336   5.037  25.581   2.440
46110W        W11337  16.113  22.703  13.375
46111W        W11338  21.897   2.858  11.611
46112W        W11339  16.944  22.144   4.292
46113W        W11340  42.584  10.341  13.389
46114W        W11341  10.776   5.250  12.535
46115W        W11342  28.685  42.004   3.582
46116W        W11343   4.309  18.457   3.757
46117W        W11344  33.001   5.775  12.005
46118W        W11345   4.734  43.030   1.476
46119W        W11346  16.129  15.782  11.970
46120W        W11347  21.057   0.309   0.535
46121W        W11348  41.740  21.347  13.893
46122W        W11349  10.217  30.175  11.573
46123W        W11350  30.613  14.722   1.293
46124W        W11351   8.386  12.676   0.172
46125W        W11352  18.211  37.315   9.781
46126W        W11353   9.322  18.746   1.290
46127W        W11354  26.061   0.466  12.503
46128W        W11355  29.400  29.280   3.194
46129W        W11356  26.117  24.413  11.319
46130W        W11357   5.808  31.099   3.278
46131W        W11358  30.117   6.014   1.478
46132W        W11359  25.668   1.742  14.365
46133W        W11360  24.826  15.612  13.825
46134W        W11361   9.643  24.936  12.428
46135W        W11362  27.641   8.880  14.363
46136W        W11363  30.198  20.089  12.449
46137W        W11364  15.258  44.873  12.789
46138W        W11365   1.847   8.386   2.751
46139W        W11366   8.915  19.266  14.884
46140W        W11367  14.757   7.634   2.204
46141W        W11368   2.870   7.807  13.935
46142W        W11369  31.771   1.842   1.836
46143W        W11370  42.709  27.966  12.185
46144W        W11371   3.385  44.624   1.018
46145W        W11372   3.868  34.017   2.625
46146W        W11373  13.707  36.101  12.868
46147W        W11374  40.786  12.714   1.184
46148W        W11375  44.038   1.774  11.438
46149W        W11376  32.105  15.382  14.363
46150W        W11377  23.554  12.794   2.616
46151W        W11378  20.652   4.102   1.355
46152W        W11379  30.774  23.006  10.414
46153W        W11380   8.984  23.333   2.825
46154W        W11381  15.559  17.213  11.455
46155W        W11382  29.848  19.007   4.556
46156W        W11383  40.232  10.247   2.764
46157W        W11384  27.478  30.235  13.786
46158W        W11385  14.031  23.171   2.707
46159W        W11386  13.872  39.519  12.463
46160W        W11387   1.233   2.110   4.564
46161W        W11388  17.734   2.815   2.072
46162W        W11389  30.996  24.971   2.392
46163W        W11390  17.870  35.236  12.420
46164W        W11391   1.967   8.195  11.647
46165W        W11392  38.953   3.795  12.661
46166W        W11393  40.854  38.552   3.894
46167W        W11394  36.887   7.455   4.602
46168W        W11395   2.273   6.496  14.099
46169W        W11396   2.560  37.392  10.905
46170W        W11397  30.181  37.876   3.581
46171W        W11398  32.873   4.842  12.346
46172W        W11399  40.567  17.280  13.307
46173W        W11400  40.289  42.042  11.530
46174W        W11401  23.979  17.417  11.599
46175W        W11402  17.925  37.817   1.870
46176W        W11403  41.595  34.574   4.792
46177W        W11404  25.702   2.260  14.388
46178W        W11405  26.690  12.210  12.492
46179W        W11406  16.603  38.150   4.872
46180W        W11407  37.048  31.172   2.854
46181W        W11408  17.496  32.506   5.039
46182W        W11409  23.096  33.751   3.404
46183W        W11410  10.405  14.734  13.498
46184W        W11411   8.834  25.411  12.560
46185W        W11412  10.361  27.981   2.468
46186W        W11413  38.702  11.364   3.250
46187W        W11414   3.924  25.186   0.755
46188W        W11415  30.203   2.890   4.187
46189W        W11416  33.517  40.850   3.720
46190W        W11417  23.468  32.043   0.284
46191W        W11418  32.172   3.223   2.742
46192W        W11419  21.607   6.600  14.128
46193W        W11420   4.352  35.487   0.562
46194W        W11421  26.611  13.522  13.143
46195W        W11422  37.827   4.240   1.226
46196W        W11423  26.240  16.567  12.528
46197W        W11424  20.059  39.832   2.641
46198W        W11425  36.121  16.120  11.292
46199W        W11426  20.775  15.110  11.131
46200W        W11427  23.374  44.195   3.327
46201W        W11428  23.870  26.131  14.346
46202W        W11429  32.844  39.769   1.014
46203W        W11430  42.854  23.743   3.637
46204W        W11431   3.886  25.618  13.645
46205W        W11432  36.112  35.654   4.672
46206W        W11433  14.852  43.546  11.136
46207W        W11434   0.930  44.384   1.787
46208W        W11435  41.670  10.896   0.613
46209W        W11436  29.077  36.583   2.379
46210W        W11437  28.891  27.160   0.102
46211W        W11438  20.989   2.754   1.727
46212W        W11439  15.778  20.491  11.636
46213W        W11440   4.988  13.343   3.625
46214W        W11441  39.272  44.291   2.202
46215W        W11442  36.109  15.070  13.054
46216W        W11443  32.935  11.907   4.220
46217W        W11444  38.563   4.485  11.579
46218W        W11445   2.778  42.560   5.204
46219W        W11446  17.106  28.204  14.396
46220W        W11447  14.276  24.783  10.737
46221W        W11448  37.484  16.264   1.333
46222W        W11449  33.598   8.719   0.448
46223W        W11450  17.068  25.490  11.642
46224W        W11451  35.706  35.916   4.472
46225W        W11452  38.013  31.379  14.769
46226W        W11453  31.118  24.216  14.401
46227W        W11454  38.473  37.344   1.843
46228W        W11455  13.550   8.299   3.407
46229W        W11456  32.659  28.086   2.273
46230W        W11457  14.770  44.228   4.032
46231W        W11458  36.092  28.898  13.731
46232W        W11459   9.715  32.620   9.961
46233W        W11460  42.458  35.128  10.664
46234W        W11461  27.898  44.471  12.513
46235W        W11462  35.859  36.104   1.791
46236W        W11463  14.157  17.175  13.198
46237W        W11464  37.811  43.843   0.338
46238W        W11465   7.313  44.567  12.262
46239W        W11466   5.392  43.348  12.007
46240W        W11467  33.688  32.451   1.700
46241W        W11468  35.855  20.945  14.051
46242W        W11469  35.405  20.327   4.020
46243W        W11470   3.313  14.153   3.635
46244W        W11471  34.721  44.025  11.238
46245W        W11472  13.699   0.752  13.111
46246W        W11473  21.575  40.863   1.820
46247W        W11474  28.657  43.841  14.986
46248W        W11475  35.317  16.250   3.282
46249W        W11476  35.459  28.170   1.712
46250W        W11477  23.973  27.090   5.043
46251W        W11478   2.492  28.074  10.541
46252W        W11479  11.846  36.833  12.498
46253W        W11480  38.088  23.026  11.169
46254W        W11481  15.089  20.217   1.913
46255W        W11482  19.755  30.163   4.700
46256W        W11483  29.548  33.099  13.581
46257W        W11484  11.813   1.401  10.507
46258W        W11485  36.878  13.216  10.832
46259W        W11486   2.403  22.583  12.736
46260W        W11487  11.323  22.965  14.968
46261W        W11488   4.843  17.330  13.768
46262W        W11489   2.919  38.062   1.908
46263W        W11490  30.684   2.458  11.640
46264W        W11491  32.182  27.238  12.176
46265W        W11492  28.534  34.428  12.452
46266W        W11493  21.667  35.567   0.694
46267W        W11494  27.628  35.911  12.648
46268W        W11495  37.055  19.159   1.830
46269W        W11496  27.164  25.781  14.720
46270W        W11497   9.111   6.289   2.025
46271W        W11498  42.814  31.159  13.405
46272W        W11499  14.858  32.055   4.555
46273W        W11500  35.193  11.320  13.041
46274W        W11501  14.764   8.704   4.743
46275W        W11502  17.402  28.047   1.385
46276W        W11503  44.268  29.711  14.612
46277W        W11504   0.058  42.954  14.519
46278W        W11505  22.526  13.273  14.383
46279W        W11506   6.127  41.524  12.080
46280W        W11507  29.517  36.554   5.023
46281W        W11508  16.292   5.783   1.261
46282W        W11509  37.399   7.121   3.414
46283W        W11510   0.856   7.456   2.253
46284W        W11511  29.333   9.136  13.323
46285W        W11512   3.264  30.063   4.049
46286W        W11513  31.024  22.910  12.331
46287W        W11514  16.565   5.351   1.457
46288W        W11515  15.359  37.518   0.464
46289W        W11516  10.916   3.436   3.745
46290W        W11517  19.886  28.505  11.135
46291W        W11518  39.409   5.625   1.245
46292W        W11519  35.935   3.414   4.075
46293W        W11520  40.920  44.425   1.160
46294W        W11521  32.117   1.180  11.458
46295W        W11522  29.724   5.718   3.234
46296W        W11523  34.643  44.507   2.119
46297W        W11524  34.829  14.527   3.580
46298W        W11525  21.541   6.681  10.351
46299W        W11526  14.997   5.966  13.355
46300W        W11527  29.367   7.861  11.921
46301W        W11528  42.613  29.972  14.492
46302W        W11529  44.316  24.976  14.324
46303W        W11530  39.735  38.321  11.228
46304W        W11531  17.562  25.032   2.320
46305W        W11532  21.411  41.803  12.841
46306W        W11533  35.121  28.794   2.401
46307W        W11534   2.015   4.907   1.354
46308W        W11535  26.546   8.231   3.382
46309W        W11536  42.435  35.682   1.961
46310W        W11537   9.901  28.724  10.872
46311W        W11538  29.323  36.072   5.069
46312W        W11539  24.553  31.697   0.782
46313W        W11540  23.744  26.639  14.426
46314W        W11541  37.555  15.902  11.227
46315W        W11542  41.624  16.347   0.963
46316W        W11543  30.228  16.148  11.907
46317W        W11544  11.844  25.619   4.093
46318W        W11545   4.723  15.865   2.147
46319W        W11546  32.493  37.235  14.788
46320W        W11547  25.146   6.001   4.261
46321W        W11548  24.266  21.381  12.785
46322W        W11549  43.946   8.597   5.003
46323W        W11550  35.929  10.147   0.268
46324W        W11551  19.143  24.477   0.452
46325W        W11552  19.125   4.868   2.793
46326W        W11553   9.554  10.349   0.412
46327W        W11554  20.076  25.259  14.826
46328W        W11555  38.713  13.811   0.952
46329W        W11556  27.177   2.298   0.960
46330W        W11557  37.027  34.628   4.505
46331W        W11558   3.345  30.194   1.744
46332W        W11559  38.439  32.895  14.660
46333W        W11560  13.602  26.989   4.415
46334W        W11561  31.229  34.370  14.384
46335W        W11562   9.212  14.726   0.928
46336W        W11563  19.841  26.158   3.049
46337W        W11564  43.489  37.826   1.853
46338W        W11565  19.645   2.910   0.205
46339W        W11566  27.095  11.093   4.223
46340W        W11567  17.239  12.776  11.209
46341W        W11568  41.826  30.459   2.619
46342W        W11569  15.129  34.908   3.121
46343W        W11570  26.115   9.612  11.229
46344W        W11571  32.553  13.318   2.680
46345W        W11572   4.537  17.247  11.482
46346W        W11573  10.161   5.276   3.195
46347W        W11574   6.132  39.871   4.576
46348W        W11575   4.700  36.392   0.377
46349W        W11576  20.569  14.073   2.810
46350W        W11577  40.349  19.863   4.270
46351W        W11578  32.737   7.821   0.040
46352W        W11579  40.425  28.632   2.975
46353W        W11580  28.244  39.111  11.001
46354W        W11581   1.103  16.165   3.387
46355W        W11582  16.571  13.805  11.228
46356W        W11583  35.465   0.162   1.962
46357W        W11584  42.345  10.861  12.095
46358W        W11585  11.912  43.610  12.113
46359W        W11586  24.247  20.414   3.337
46360W        W11587  35.578  23.592  10.683
46361W        W11588  29.832   6.750  13.856
46362W        W11589  34.105  23.453  12.961
46363W        W11590  19.453  42.816   4.144
46364W        W11591  25.461   3.859  14.494
46365W        W11592  14.044  22.433  11.147
46366W        W11593  21.744  21.408   0.488
46367W        W11594  36.272  33.590   0.956
46368W        W11595  38.236  31.877  13.020
46369W        W11596  13.408  25.446  11.238
46370W        W11597   4.951  38.555   2.614
46371W        W11598  30.446  10.940  13.990
46372W        W11599  12.038  13.223   2.649
46373W        W11600  16.976  31.985  13.507
46374W        W11601  23.535  31.407  11.101
46375W        W11602  25.999  20.726  12.952
46376W        W11603  26.916  20.746   3.395
46377W        W11604  29.596   4.841  10.660
46378W        W11605  20.456  17.074   0.678
46379W        W11606  21.743   5.291  13.815
46380W        W11607  32.885  42.068   3.270
46381W        W11608   8.036   2.229   0.503
46382W        W11609  42.682  13.398   4.552
46383W        W11610  13.340   7.702   0.333
46384W        W11611  38.894   2.969  11.677
46385W        W11612  34.913  38.467  10.217
46386W        W11613  15.768  22.028   1.835
46387W        W11614  14.242  23.292  11.952
46388W        W11615  27.564  38.844  11.554
46389W        W11616  25.263  17.497  14.630
46390W        W11617  11.465  10.939   1.191
46391W        W11618  38.846  11.480  11.525
46392W        W11619  22.947  21.498   4.847
46393W        W11620  37.352   7.307   4.786
46394W        W11621  35.926  43.837   3.618
46395W        W11622  42.410   0.905   1.635
46396W        W11623  31.013   8.667  14.330
46397W        W11624  11.676  18.752   4.948
46398W        W11625  44.404   5.153   4.074
46399W        W11626   4.024  17.105  11.537
46400W        W11627  29.672  21.102   1.704
46401W        W11628  40.944  43.373   2.226
46402W        W11629  21.137  23.350  14.507
46403W        W11630  42.297  15.463   5.029
46404W        W11631  38.265  27.053  10.776
46405W        W11632  13.159   3.747  13.419
46406W        W11633  29.127  14.860  14.164
46407W        W11634  13.855  13.128  13.514
46408W        W11635   9.074  37.516   4.670
46409W        W11636  19.258   9.704   2.775
46410W        W11637  28.461  21.656  14.796
46411W        W11638   8.136  36.599   1.194
46412W        W11639  41.101  18.595  14.297
46413W        W11640  39.933  33.852   1.370
46414W        W11641   6.607   1.047   2.628
46415W        W11642  24.745  25.316  12.115
46416W        W11643  39.287  12.146   3.392
46417W        W11644  27.343  21.076  12.596
46418W        W11645   2.834  37.921   4.516
46419W        W11646  34.661   7.353   2.464
46420W        W11647  11.271   7.625   0.795
46421W        W11648  14.840   1.738   0.321
46422W        W11649  10.196  44.458   2.307
46423W        W11650   9.304  36.320   0.025
46424W        W11651  41.924  24.197  14.715
46425W        W11652  43.966  22.677  11.459
46426W        W11653  21.747   7.207  11.108
46427W        W11654   1.744  20.735   1.298
46428W        W11655   4.370   4.343   4.909
46429W        W11656  11.209   3.502  10.775
46430W        W11657  38.271  42.350  13.972
46431W        W11658  42.331  44.449  14.008
46432W        W11659  23.979  29.968  13.910
46433W        W11660  11.707  35.171   3.644
46434W        W11661  41.378  27.162   1.753
46435W        W11662  35.491  41.340  14.709
46436W        W11663   4.592  15.689  11.814
46437W        W11664   0.323  41.752  12.956
46438W        W11665  36.551   7.039   3.136
46439W        W11666  12.725  12.758  14.904
46440W        W11667  20.832  40.884  13.359
46441W        W11668  38.331   1.122  13.878
46442W        W11669  17.534  27.816  13.717
46443W        W11670  13.619  38.826   0.426
46444W        W11671  16.755  27.644   4.393
46445W        W11672  15.780  22.573   3.825
46446W        W11673  22.786  17.164   3.372
46447W        W11674  37.565  19.941  14.849
46448W        W11675  32.481  27.562  13.279
46449W        W11676  37.321  16.049   4.714
46450W        W11677  28.154  13.572  14.074
46451W        W11678  14.426   0.570   1.649
46452W        W11679  24.051   2.451   2.622
46453W        W11680   1.892  41.390   2.199
46454W        W11681  30.677  34.629  10.155
46455W        W11682  38.897   5.836  14.574
46456W        W11683   3.684  38.281  13.375
46457W        W11684  20.033  30.178  12.951
46458W        W11685   7.911  37.848   0.851
46459W        W11686   2.569  10.352   1.353
46460W        W11687  21.680  20.563   2.264
46461W        W11688  22.984  15.164  10.422
46462W        W11689  40.257  14.627   1.814
46463W        W11690  18.186  22.651  11.184
46464W        W11691  39.951  37.845  10.557
46465W        W11692  43.331  39.577  10.788
46466W        W11693  41.624   9.305  14.871
46467W        W11694  39.875  28.659  13.400
46468W        W11695   9.690  34.972  12.997
46469W        W11696  11.845   7.218   2.653
46470W        W11697   6.655  37.053   1.065
46471W        W11698  15.353   5.490   1.435
46472W        W11699  20.254  17.632  13.906
46473W        W11700   7.885  24.014  10.782
46474W        W11701  30.032   3.883  13.580
46475W        W11702   2.369  12.354   3.707
46476W        W11703  23.181  33.837   2.071
46477W        W11704  10.215  14.562  11.159
46478W        W11705  34.488  10.414  13.440
46479W        W11706  18.610  28.712   1.834
46480W        W11707  25.695  31.919   2.671
46481W        W11708  23.697  35.906  10.999
46482W        W11709  13.848  37.493   1.807
46483W        W11710  16.335   3.849   4.195
46484W        W11711  43.105  23.557  13.038
46485W        W11712  21.181   7.074  12.552
46486W        W11713   1.848  23.746   2.627
46487W        W11714  39.513  44.761  12.812
46488W        W11715  14.742   7.397   0.861
46489W        W11716  28.052  13.005   4.538
46490W        W11717  11.758  39.360  12.910
46491W        W11718  26.762   5.111   5.004
46492W        W11719  16.862  42.575  11.173
46493W        W11720  30.023  43.448   4.385
46494W        W11721  29.418  19.519   0.824
46495W        W11722   5.269  22.712  12.028
46496W        W11723  42.931  33.954   0.857
46497W        W11724  42.108  23.652  11.011
46498W        W11725  21.090   8.838  12.445
46499W        W11726  12.744  24.459   0.992
46500W        W11727   0.707  43.685   5.083
46501W        W11728  19.531  11.845  13.725
46502W        W11729  27.735  20.227   3.659
46503W        W11730   2.546  17.997  10.919
46504W        W11731  35.362  17.205   3.265
46505W        W11732  30.000  30.809  14.142
46506W        W11733   9.197  20.642   1.341
46507W        W11734   3.364  18.260  12.933
46508W        W11735   5.902  41.140   0.344
46509W        W11736  11.308  27.586   2.776
46510W        W11737  21.155  34.074   1.801
46511W        W11738   5.680   5.889  11.664
46512W        W11739  15.202  22.125   4.766
46513W        W11740  44.795   9.772  10.777
46514W        W11741  22.297  31.567  10.733
46515W        W11742  33.549  33.977   2.206
46516W        W11743  23.685  24.093  10.778
46517W        W11744  39.191  23.933   0.416
46518W        W11745  27.588  44.927  14.493
46519W        W11746  23.956  31.937  13.066
46520W        W11747  21.071  15.782  14.792
46521W        W11748  34.361  40.437   0.209
46522W        W11749  11.901  22.690  10.734
46523W        W11750  12.030  23.536   2.793
46524W        W11751  35.446  37.829   1.362
46525W        W11752  12.744  27.185   0.427
46526W        W11753  19.393  25.465   1.957
46527W        W11754   4.824  27.026  10.664
46528W        W11755   2.797  16.804   3.157
46529W        W11756  27.439   6.441   1.019
46530W        W11757   2.448   1.562   1.479
46531W        W11758  42.887  26.604  10.585
46532W        W11759  41.127  26.470   3.374
46533W        W11760  31.430  25.103   4.633
46534W        W11761   9.586  33.949  14.450
46535W        W11762   6.383  42.381  12.113
46536W        W11763   3.447  21.768  10.705
46537W        W11764   7.124   7.052  14.762
46538W        W11765   7.403   8.987  11.140
46539W        W11766  44.904  15.016  13.064
46540W        W11767   7.776  19.625   1.024
46541W        W11768  28.254  37.399  11.469
46542W        W11769   3.915   5.308  13.971
46543W        W11770  11.784   8.427  13.916
46544W        W11771   9.627   7.641   2.617
46545W        W11772  19.738   0.845   4.579
46546W        W11773  43.470  36.706  11.605
46547W        W11774  39.202   3.396  12.010
46548W        W11775  37.918   1.186  13.588
46549W        W11776  16.682  10.266   2.900
46550W        W11777   5.263  38.748   9.939
46551W        W11778  27.178  34.582  14.357
46552W        W11779  22.086  18.585  13.937
46553W        W11780  10.673   2.475  10.948
46554W        W11781   3.601  33.179   0.253
46555W        W11782   9.098  22.517   2.490
46556W        W11783  32.698  32.910  13.902
46557W        W11784   5.054   8.345   1.380
46558W        W11785  40.584   9.192  11.838
46559W        W11786  43.466  15.137   0.970
46560W        W11787  11.915  34.460  14.908
46561W        W11788  16.296  15.517   1.910
46562W        W11789   2.528  39.992   1.646
46563W        W11790  27.377  23.471   4.730
46564W        W11791   0.502  24.412  14.155
46565W        W11792  41.400   9.652   0.208
46566W        W11793  42.841  10.669   1.326
46567W        W11794  15.172  41.131   3.169
46568W        W11795  44.730  14.284   3.360
46569W        W11796  31.887  31.163  10.443
46570W        W11797   5.747  38.048   4.825
46571W        W11798   6.418  25.718  14.822
46572W        W11799  38.951  23.441   1.460
46573W        W11800  35.409  35.175   1.815
46574W        W11801   0.837  12.571  10.626
46575W        W11802  17.288  25.228  14.324
46576W        W11803  42.121  18.755  14.423
46577W        W11804  24.507  12.162   0.843
46578W        W11805  38.644  10.786  13.944
46579W        W11806  41.005   2.128   2.834
46580W        W11807  33.963  33.013   2.994
46581W        W11808  13.205  12.605  13.038
46582W        W11809   4.969  11.771   3.291
46583W        W11810  35.433  36.441  13.127
46584W        W11811   4.434  23.949  12.057
46585W        W11812  12.945  36.550   3.538
46586W        W11813  34.464  39.288  12.904
46587W        W11814   5.071   9.161  11.350
46588W        W11815  10.955   2.921  14.083
46589W        W11816  16.649  22.573  12.056
46590W        W11817   1.899  42.027  11.662
46591W        W11818  17.068  29.390   1.941
46592W        W11819  33.146   0.938   4.842
46593W        W11820  22.476  22.767  13.988
46594W        W11821  10.340   7.205   4.685
46595W        W11822  43.676  28.714  14.073
46596W        W11823  35.831  12.098   1.859
46597W        W11824  32.426  40.212   2.218
46598W        W11825  34.744  17.383  12.007
46599W        W11826   2.759   7.287   1.406
46600W        W11827  41.270   5.887   0.662
46601W        W11828   2.353   0.223   0.219
46602W        W11829  43.527  36.841   4.263
46603W        W11830   4.711  44.997  11.998
46604W        W11831   1.948  35.616   3.710
46605W        W11832   0.958   0.759   1.690
46606W        W11833  41.664   3.214   3.677
46607W        W11834  33.384  20.653   1.771
46608W        W11835  30.523   2.163   3.110
46609W        W11836  34.403   4.279  13.031
46610W        W11837  19.655  25.182   4.146
46611W        W11838  25.676   2.393   0.208
46612W        W11839  36.510  33.997  10.574
46613W        W11840  18.306  23.011  13.311
46614W        W11841   9.224   2.999  14.270
46615W        W11842   3.487  32.494  10.722
46616W        W11843  40.710  35.586  10.690
46617W        W11844  33.703   2.316  14.451
46618W        W11845   3.648  35.777  12.480
46619W        W11846  11.822   2.922  10.681
46620W        W11847  15.575  23.144   4.515
46621W        W11848  19.443  14.307   3.235
46622W        W11849  36.797  22.789  14.553
46623W        W11850  12.952  30.526  14.415
46624W        W11851   1.337   1.190   2.369
46625W        W11852  18.128   3.822  13.072
46626W        W11853  29.205  11.739   3.109
46627W        W11854   4.245  30.591  13.077
46628W        W11855  34.762  35.222  14.780
46629W        W11856  40.445  19.164   0.952
46630W        W11857  35.524  25.439   3.237
46631W        W11858  11.494  29.543  14.423
46632W        W11859  33.812  20.203   0.282
46633W        W11860  42.003   0.837   3.628
46634W        W11861   9.432  27.975  13.041
46635W        W11862  29.486  33.535   3.310
46636W        W11863   9.174  11.228  14.897
46637W        W11864  10.337  17.160   1.727
46638W        W11865  24.245  20.336  14.915
46639W        W11866  23.132   1.139  12.188
46640W        W11867  30.416  44.957  11.129
46641W        W11868  30.515  44.234   0.389
46642W        W11869  21.182  32.270   3.302
46643W        W11870  11.764  25.212   4.914
46644W        W11871   7.350   2.935   2.866
46645W        W11872  15.225  21.030   0.267
46646W        W11873   5.732  39.058   4.897
46647W        W11874  30.111   2.965   3.213
46648W        W11875  24.683   4.334  12.326
46649W        W11876   3.936  16.227   2.734
46650W        W11877  21.996  27.326  14.494
46651W        W11878  36.279  32.918   3.820
46652W        W11879  16.741  43.249  12.422
46653W        W11880  20.465  31.614   4.073
46654W        W11881  11.809   2.430  13.304
46655W        W11882  32.117  22.145  14.917
46656W        W11883   6.038   1.311   0.591
46657W        W11884  44.916   4.294  12.860
46658W        W11885  30.192  13.167  12.746
46659W        W11886   5.004  19.051   0.146
46660W        W11887  20.080   7.868  11.334
46661W        W11888   9.307  30.110   0.371
46662W        W11889  39.894  29.940   0.161
46663W        W11890   3.218  44.201   5.351
46664W        W11891  37.444   9.048  11.790
46665W        W11892  12.832  44.409   1.377
46666W        W11893   6.379  10.631   2.223
46667W        W11894  20.728   1.214  14.391
46668W        W11895   3.667   5.663   0.522
46669W        W11896  27.180  12.202  10.952
46670W        W11897  26.009  32.481   1.459
46671W        W11898  27.569  43.816  14.471
46672W        W11899  10.256  14.953   0.299
46673W        W11900  30.045  33.329   1.601
46674W        W11901   5.847  20.739   1.335
46675W        W11902   3.440  29.558   4.132
46676W        W11903  31.534  15.311  11.281
46677W        W11904  21.051   3.990  14.981
46678W        W11905   1.792  36.153  14.337
46679W        W11906  15.750  10.403   4.650
46680W        W11907  14.570  36.905   0.466
46681W        W11908  34.535   6.269   1.726
46682W        W11909  22.643  22.316  13.778
46683W        W11910   4.831  37.632  12.596
46684W        W11911  40.955  21.801  14.488
46685W        W11912  24.652  44.505   0.593
46686W        W11913  37.997  24.233  14.422
46687W        W11914  42.373  30.677  13.998
46688W        W11915  31.376  17.157  11.015
46689W        W11916  39.831  19.123   2.249
46690W        W11917  35.962  26.931   0.520
46691W        W11918  32.937   6.907  12.595
46692W        W11919  40.559  17.426  10.934
46693W        W11920  16.113  41.469   2.375
46694W        W11921   0.596   8.433  14.007
46695W        W11922  27.821  33.311   3.549
46696W        W11923  35.064   3.962   2.081
46697W        W11924  13.941  39.883   4.862
46698W        W11925   4.883  27.670   9.978
46699W        W11926  26.937  34.348   1.231
46700W        W11927  20.484  27.452  12.972
46701W        W11928  18.369  41.761  14.926
46702W        W11929  31.681   8.305  11.933
46703W        W11930  29.124  33.379   1.325
46704W        W11931  44.854  28.114   2.811
46705W        W11932   6.689  40.123  14.029
46706W        W11933   2.943  25.883   5.028
46707W        W11934  44.915  15.903   4.235
46708W        W11935  16.864  11.169   2.942
46709W        W11936  20.316  33.637   2.274
46710W        W11937  28.093  11.579  11.154
46711W        W11938   2.672  30.180  14.826
46712W        W11939   8.603  38.062  10.726
46713W        W11940  39.773  25.985   2.569
46714W        W11941  40.349  34.604   1.239
46715W        W11942  27.076  31.209   1.668
46716W        W11943  23.304  25.902   2.883
46717W        W11944  10.069  34.030  11.031
46718W        W11945  33.918  13.660  10.284
46719W        W11946  42.989  14.117   4.321
46720W        W11947  41.355  37.606  13.726
46721W        W11948  43.817   7.307   0.503
46722W        W11949   2.874   1.937  13.497
46723W        W11950  21.291  34.962   1.656
46724W        W11951   2.492  23.287   0.818
46725W        W11952  38.937  33.236   0.286
46726W        W11953  33.188   2.161  14.323
46727W        W11954  13.130  15.784   0.434
46728W        W11955  32.856   2.401  13.367
46729W        W11956   9.928  15.249  13.824
46730W        W11957  34.792  26.221   0.745
46731W        W11958  38.423   0.798   3.792
46732W        W11959   8.003  30.931   1.489
46733W        W11960  31.865  25.331   1.662
46734W        W11961  29.070  40.456   4.207
46735W        W11962  11.794   1.401  14.185
46736W        W11963   7.866   5.540   2.405
46737W        W11964  27.375  11.085   0.222
46738W        W11965  21.027  31.609  14.687
46739W        W11966   3.503  17.086  11.681
46740W        W11967  38.050  21.641   4.256
46741W        W11968  41.061  33.661  10.698
46742W        W11969  24.969   8.131   1.822
46743W        W11970  10.474  31.770   3.126
46744W        W11971  23.914  20.496  13.993
46745W        W11972  27.554   2.334   5.076
46746W        W11973  29.001  37.840  14.023
46747W        W11974  26.840  19.931  13.781
46748W        W11975   5.398   0.145  10.512
46749W        W11976   1.831  27.432  13.886
46750W        W11977  31.627  39.433  13.495
46751W        W11978  38.566  21.024  11.929
46752W        W11979  16.532   8.844   4.175
46753W        W11980   7.804  17.554  12.530
46754W        W11981   9.392  33.759  11.764
46755W        W11982  44.542  15.733  12.520
46756W        W11983  11.551  33.975  12.239
46757W        W11984  20.687  38.509   0.423
46758W        W11985  41.838  12.693   0.259
46759W        W11986  33.613  10.481   5.012
46760W        W11987   8.130  21.611  12.488
46761W        W11988  33.032   6.395  10.812
46762W        W11989  26.362  21.089   4.744
46763W        W11990   6.375  26.944   2.765
46764W        W11991  17.034  14.287  13.991
46765W        W11992  24.477   3.528  13.154
46766W        W11993  39.920   4.377  11.634
46767W        W11994  37.675  27.763  11.629
46768W        W11995  12.666  30.094  14.357
46769W        W11996   3.021  40.124  13.669
46770W        W11997  33.412  43.785   2.296
46771W        W11998  21.112   0.800   2.276
46772W        W11999  38.035   9.316   2.253
46773W        W12000  17.178  36.879   0.911
46774W        W12001  27.568   5.266   2.419
46775W        W12002   4.620  44.222  11.148
46776W        W12003  17.051  37.852   0.052
46777W        W12004  14.271  14.335  12.538
46778W        W12005  17.569  12.263   1.204
46779W        W12006  27.477  31.022  12.394
46780W        W12007  38.548  16.699  10.906
46781W        W12008  10.587   1.627  13.524
46782W        W12009   1.350  24.162  12.931
46783W        W12010  44.915  41.584  12.129
46784W        W12011  19.785   5.874  13.439
46785W        W12012  14.668  30.837  13.417
46786W        W12013  15.342  11.661   3.111
46787W        W12014  33.563  27.439  14.746
46788W        W12015  23.305   6.928  12.854
46789W        W12016  30.167  30.895   3.208
46790W        W12017  34.663   7.499  10.319
46791W        W12018  30.914  34.019  11.910
46792W        W12019  25.571  24.021   1.915
46793W        W12020  22.593  25.432  11.583
46794W        W12021   5.363   6.996  13.619
46795W        W12022  31.507  12.926   3.631
46796W        W12023  23.450   9.620  14.933
46797W        W12024  24.554   6.115   1.556
46798W        W12025  18.167  13.049   3.651
46799W        W12026  28.380   2.490   1.798
46800W        W12027  16.709  39.030   1.871
46801W        W12028  20.762   0.714  14.407
46802W        W12029  42.805  39.423   1.727
46803W        W12030  28.456  22.808   0.006
46804W        W12031  23.106  39.575  10.508
46805W        W12032  17.739  27.682   0.831
46806W        W12033   4.840  38.105  14.455
46807W        W12034  43.293   5.930  12.820
46808W        W12035   6.219  13.239   1.958
46809W        W12036  23.612  35.639   1.897
46810W        W12037  21.787  22.270   1.441
46811W        W12038   3.851  10.534   4.590
46812W        W12039  12.147  24.153  11.418
46813W        W12040   8.813  43.045   3.252
46814W        W12041  25.685  26.270   4.034
46815W        W12042  31.423  13.427  14.863
46816W        W12043  32.487  41.837  14.049
46817W        W12044  16.670  39.208   0.259
46818W        W12045   0.613  44.904   1.039
46819W        W12046   4.825  18.324  12.405
46820W        W12047  19.313  36.427  10.531
46821W        W12048  22.189  22.333  13.522
46822W        W12049   8.986  12.168   1.952
46823W        W12050   0.861  20.140   9.829
46824W        W12051  13.781  39.712  11.277
46825W        W12052  21.284  32.120   0.801
46826W        W12053   7.861   1.917   3.866
46827W        W12054  28.408  23.653  11.568
46828W        W12055  19.031   8.277  13.902
46829W        W12056   9.795  17.368   0.894
46830W        W12057  16.631  24.118   3.732
46831W        W12058  35.412  33.280  14.872
46832W        W12059  19.696  25.607  13.369
46833W        W12060   5.664  10.126   3.672
46834W        W12061   8.936  43.628   2.383
46835W        W12062  21.936  25.226   1.397
46836W        W12063  29.129  10.281  14.463
46837W        W12064   5.814  22.238  12.101
46838W        W12065  42.547  32.860  13.040
46839W        W12066  29.161  15.879   2.791
46840W        W12067   8.254   9.740  12.544
46841W        W12068  31.897  17.621  13.385
46842W        W12069  16.196   6.050  14.089
46843W        W12070  38.485  26.920   2.231
46844W        W12071  18.013  11.244   0.236
46845W        W12072  34.378   3.151   0.929
46846W        W12073  12.147   9.400   2.116
46847W        W12074  30.854  24.065  13.961
46848W        W12075   5.836  16.382   1.798
46849W        W12076  35.343   3.253   2.659
46850W        W12077  34.120   0.494   1.317
46851W        W12078  43.936  27.446  11.931
46852W        W12079  16.370  10.405  13.550
46853W        W12080   0.962  11.169   3.595
46854W        W12081  41.256  33.536   4.342
46855W        W12082   7.355  44.897   0.819
46856W        W12083   6.277  26.406  11.531
46857W        W12084   6.649  24.474   2.724
46858W        W12085  20.989   0.235   1.878
46859W        W12086  32.577  42.815   5.051
46860W        W12087  28.448  39.658  11.062
46861W        W12088  36.305  12.622   3.838
46862W        W12089  15.773   0.395   1.665
46863W        W12090   0.476  27.942  12.420
46864W        W12091  25.412  26.659   0.481
46865W        W12092   6.977  16.438  10.734
46866W        W12093  32.635  22.679  13.635
46867W        W12094  38.026  29.608   2.333
46868W        W12095  38.872  21.118   4.987
46869W        W12096   3.298  41.835  10.443
46870W        W12097  40.263  34.276  14.769
46871W        W12098   3.877  12.643  11.558
46872W        W12099  28.981   5.125   0.893
46873W        W12100  26.689   7.444   1.990
46874W        W12101  44.295  33.542   0.692
46875W        W12102  18.650  37.528   4.085
46876W        W12103  12.642  20.301   1.814
46877W        W12104  32.389  36.326  14.068
46878W        W12105  30.062   4.550   0.287
46879W        W12106  22.490   6.286   3.605
46880W        W12107  10.948   5.411   3.694
46881W        W12108  18.619   7.114   3.245
46882W        W12109   9.468  43.143   3.775
46883W        W12110  23.727  26.418   3.596
46884W        W12111  14.041  19.759   3.279
46885W        W12112  13.968  26.760  10.624
46886W        W12113  43.537  30.406   2.714
46887W        W12114  10.648   9.167   3.414
46888W        W12115  29.239  14.044  14.426
46889W        W12116  15.704  26.372   5.003
46890W        W12117   8.687  11.020   3.216
46891W        W12118  24.524  16.384  11.210
46892W        W12119   2.452  19.196  10.442
46893W        W12120  24.362  36.847  10.808
46894W        W12121  11.266  11.711   4.671
46895W        W12122  14.298  34.839   1.763
46896W        W12123  21.115  36.525  13.528
46897W        W12124  30.914  40.458  12.549
46898W        W12125  41.085  44.613  14.400
46899W        W12126  43.306   8.120  10.547
46900W        W12127  33.050   9.128  10.495
46901W        W12128  32.545  43.787   4.431
46902W        W12129  35.405  37.594  11.148
46903W        W12130  41.459  19.679   0.793
46904W        W12131  37.993  33.313  12.015
46905W        W12132  20.808  32.429  14.870
46906W        W12133  27.301  28.136  13.440
46907W        W12134  27.486  39.758  11.020
46908W        W12135  13.824  16.516  11.999
46909W        W12136  43.985  10.905   0.559
46910W        W12137  29.122  16.511  12.490
46911W        W12138  37.179   7.124   2.389
46912W        W12139  13.112   3.498  14.821
46913W        W12140  35.979   5.154  12.063
46914W        W12141  38.000  23.468   2.404
46915W        W12142  33.439  28.252  13.616
46916W        W12143  33.191  26.494  13.430
46917W        W12144   2.175  42.756   2.343
46918W        W12145  42.812   0.107   1.880
46919W        W12146  42.929  12.918  14.931
46920W        W12147  30.958  36.946  14.429
46921W        W12148  13.745  17.093  10.491
46922W        W12149  12.372  11.347   1.932
46923W        W12150  10.114   3.329  11.568
46924W        W12151  30.564  12.844   1.361
46925W        W12152  21.133  39.947   2.564
46926W        W12153  42.484   0.518  12.093
46927W        W12154   1.254  17.247   4.115
46928W        W12155  43.369  41.313  13.921
46929W        W12156  43.371   6.840   0.718
46930W        W12157  28.518  20.826  12.907
46931W        W12158  35.574  39.637   0.353
46932W        W12159  36.130  31.172   3.674
46933W        W12160  43.851  10.607  13.118
46934W        W12161  38.661  26.069   1.761
46935W        W12162  27.117  33.935  14.913
46936W        W12163  41.308  22.163  12.642
46937W        W12164  36.385  12.914   2.374
46938W        W12165  24.260  37.395  13.473
46939W        W12166   5.386  36.851  13.264
46940W        W12167   6.971  34.545  10.732
46941W        W12168  28.350  43.133   3.199
46942W        W12169  33.502  22.979  10.964
46943W        W12170  34.825  31.124   4.140
46944W        W12171  39.198  17.080  10.411
46945W        W12172  27.647  11.661   4.568
46946W        W12173  39.489  31.988   1.399
46947W        W12174   2.671   3.330  11.782
46948W        W12175  10.348  41.069  12.098
46949W        W12176  22.836  16.654   0.210
46950W        W12177  25.719  34.364  13.026
46951W        W12178  25.227  17.300   2.659
46952W        W12179  27.637  35.535  11.018
46953W        W12180   1.266   5.876  12.174
46954W        W12181  23.738  20.502   3.288
46955W        W12182   0.401  23.551   4.548
46956W        W12183   6.957   1.791  10.810
46957W        W12184  21.417   1.654   5.041
46958W        W12185  10.897   0.003  12.324
46959W        W12186  32.093  26.252  14.456
46960W        W12187  27.341  24.459  13.779
46961W        W12188  20.525  44.485  12.711
46962W        W12189  11.685  11.481   1.215
46963W        W12190  41.777   8.429  14.996
46964W        W12191   9.523   8.508  12.180
46965W        W12192  31.869  36.991  10.773
46966W        W12193   4.142  10.217  13.431
46967W        W12194  36.194   0.397  12.934
46968W        W12195  21.521  28.212   3.081
46969W        W12196  27.695  42.825  12.055
46970W        W12197  35.861  14.747  10.902
46971W        W12198  19.221  22.136  13.104
46972W        W12199  22.805   5.406  12.057
46973W        W12200  22.501  23.196  13.284
46974W        W12201  35.457  23.165   0.778
46975W        W12202  39.550  10.633  13.849
46976W        W12203   5.956  38.374   1.534
46977W        W12204  21.644  18.164   3.083
46978W        W12205  25.774   0.276   4.592
46979W        W12206  20.848   3.313   1.165
46980W        W12207  32.117  22.988   3.650
46981W        W12208  19.698  19.637   1.215
46982W        W12209  18.037  28.181   0.412
46983W        W12210  35.504  39.415   2.308
46984W        W12211   5.004   3.206   1.359
46985W        W12212  39.577  15.832   4.986
46986W        W12213   8.477  32.241  10.096
46987W        W12214   3.274   7.677   2.792
46988W        W12215  36.006  42.859   4.766
46989W        W12216   5.627  39.765   4.406
46990W        W12217  33.834  24.064   4.154
46991W        W12218   0.823  18.456   2.127
46992W        W12219  25.627  31.383  13.873
46993W        W12220  38.327  11.462   4.233
46994W        W12221  37.937   4.794  14.789
46995W        W12222  21.282  31.587  12.407
46996W        W12223  44.454  27.622  11.822
46997W        W12224  20.054  42.258   4.528
46998W        W12225  28.856  37.507  13.401
46999W        W12226  15.290  36.407  11.241
47000W        W12227   0.778  34.543   2.233
47001W        W12228  36.146  32.201  11.024
47002W        W12229  40.195   8.763   2.267
47003W        W12230  33.007  16.249   3.671
47004W        W12231  43.316  15.297  12.104
47005W        W12232  38.373  34.820   0.505
47006W        W12233   8.909   8.765  12.038
47007W        W12234  19.748  35.457  10.584
47008W        W12235   6.644  13.283   2.773
47009W        W12236   9.578  38.072  11.983
47010W        W12237  28.081   8.089  10.709
47011W        W12238  30.589  41.909  14.855
47012W        W12239  13.751  24.957  13.058
47013W        W12240   6.198  21.731   4.087
47014W        W12241  41.994  29.390  14.055
47015W        W12242  43.470  28.901  11.511
47016W        W12243  22.495  21.675  14.944
47017W        W12244   1.700  38.328   0.899
47018W        W12245  39.463  34.837   4.540
47019W        W12246  29.808  12.645  13.743
47020W        W12247  13.241  32.528   0.905
47021W        W12248   6.448  27.544  12.802
47022W        W12249   8.783   9.704  14.052
47023W        W12250  31.066  13.029   2.648
47024W        W12251  33.185  33.456  12.432
47025W        W12252  10.346  39.257  11.697
47026W        W12253  24.970   2.820   0.377
47027W        W12254  29.164  38.636  14.317
47028W        W12255   2.789  31.082  14.945
47029W        W12256  26.514  14.746  11.745
47030W        W12257  15.651  15.922  12.807
47031W        W12258  44.447  43.946  12.557
47032W        W12259  23.442   7.178  11.575
47033W        W12260  23.403  15.251   4.631
47034W        W12261  31.224  18.806   0.243
47035W        W12262  22.195   8.857  13.098
47036W        W12263  13.433  19.673  11.882
47037W        W12264  34.554  35.426  12.954
47038W        W12265  39.997  42.262   3.203
47039W        W12266  39.091  43.810  13.195
47040W        W12267   7.688  41.923   4.677
47041W        W12268  32.702  20.804  13.365
47042W        W12269   1.031  44.628   4.739
47043W        W12270  11.788  29.434  14.829
47044W        W12271  19.074  15.773  11.195
47045W        W12272  26.793  11.544  13.981
47046W        W12273  38.911  37.068   1.905
47047W        W12274  17.381  34.944  11.068
47048W        W12275   8.094  25.432   4.211
47049W        W12276  25.775  12.368   2.174
47050W        W12277  31.056  19.755  12.024
47051W        W12278  40.452   2.419  14.072
47052W        W12279  27.270  42.901  13.778
47053W        W12280   4.420   5.424   3.680
47054W        W12281  17.843   5.357   2.221
47055W        W12282  13.293  39.551  11.019
47056W        W12283  30.922  25.674   3.121
47057W        W12284  35.037   1.291   3.716
47058W        W12285  41.458  12.083  11.397
47059W        W12286  41.624   7.861  12.027
47060W        W12287  33.364  44.267  14.916
47061W        W12288  14.650  39.297  12.858
47062W        W12289  25.640  37.532  13.430
47063W        W12290  35.519  43.014  12.583
47064W        W12291  17.318  25.155   2.791
47065W        W12292  28.112   2.864   4.758
47066W        W12293  18.372  21.602   0.370
47067W        W12294  19.275  32.504   0.075
47068W        W12295  35.943   5.259  14.332
47069W        W12296  12.023  43.375   2.133
47070W        W12297  11.586  42.792  10.024
47071W        W12298  18.788  42.093   0.736
47072W        W12299  32.015  12.431   2.355
47073W        W12300  14.205  34.333   1.550
47074W        W12301   3.372  20.971  11.136
47075W        W12302  13.202  30.204  13.522
47076W        W12303  41.067  10.742  12.426
47077W        W12304  41.340  43.711  14.432
47078W        W12305   4.496  21.269  12.942
47079W        W12306  43.465  17.991   3.181
47080W        W12307  32.135   1.178   1.411
47081W        W12308  10.651  33.925  13.467
47082W        W12309  24.788  42.882   4.710
47083W        W12310  27.332  30.903  14.854
47084W        W12311  31.458  44.479  10.764
47085W        W12312  19.975  24.467   0.491
47086W        W12313  26.976  35.070  14.346
47087W        W12314  21.841   1.935   2.302
47088W        W12315   7.994  15.237  12.948
47089W        W12316  40.966  44.872   4.397
47090W        W12317  17.901  19.057   2.377
47091W        W12318  30.658  10.780  10.938
47092W        W12319   6.672  41.940  10.655
47093W        W12320  24.268  17.091  10.303
47094W        W12321  16.874  29.554  11.943
47095W        W12322  11.705   8.902   4.520
47096W        W12323  20.857  21.095  12.545
47097W        W12324  30.585  32.484   0.044
47098W        W12325  20.069  43.747  12.004
47099W        W12326  10.243  24.255   2.232
47100W        W12327  37.231   5.034   4.092
47101W        W12328  23.225  34.577  14.840
47102W        W12329  21.639  21.308  12.996
47103W        W12330  40.565  16.441  11.353
47104W        W12331  38.067  20.450   0.924
47105W        W12332  38.982  32.058  14.955
47106W        W12333  39.665  39.445   1.338
47107W        W12334  10.393   2.773   4.266
47108W        W12335   4.253  14.669  14.603
47109W        W12336  35.330   8.717  12.057
47110W        W12337  20.815  41.008   0.303
47111W        W12338  37.348  16.204  12.596
47112W        W12339  20.532  11.845  12.960
47113W        W12340  31.657  29.764  11.389
47114W        W12341  15.155  35.989  12.032
47115W        W12342   3.924  41.722  13.413
47116W        W12343  35.831  27.069   3.809
47117W        W12344  43.909   3.424  11.186
47118W        W12345  28.123  35.554   2.321
47119W        W12346   2.477  36.957   0.111
47120W        W12347  41.163  40.280  11.189
47121W        W12348  32.628  13.289   1.251
47122W        W12349  36.919  12.346   5.136
47123W        W12350  24.777  29.405  12.499
47124W        W12351  21.369  42.924  12.653
47125W        W12352  33.990   1.077   3.638
47126W        W12353  33.153  37.151   0.443
47127W        W12354  14.342   7.396   2.746
47128W        W12355  31.009  29.940  13.018
47129W        W12356  11.134  12.132   3.686
47130W        W12357  23.637  34.525  10.667
47131W        W12358  12.590   3.312  10.515
47132W        W12359   3.958   6.891   2.640
47133W        W12360  18.312  32.225   4.924
47134W        W12361  28.595   8.615  11.006
47135W        W12362   0.394  40.540  14.429
47136W        W12363  40.420  39.432   1.991
47137W        W12364  21.105  36.398  13.037
47138W        W12365   0.325  40.850   4.516
47139W        W12366  35.483  11.718  14.104
47140W        W12367  40.892  12.284  10.731
47141W        W12368  31.071  24.232   1.233
47142W        W12369  27.548  37.159   3.584
47143W        W12370  16.597  17.573  13.347
47144W        W12371  21.086  34.497   5.243
47145W        W12372  31.410  19.222   1.777
47146W        W12373  22.036  20.534   2.695
47147W        W12374  33.521  21.695   0.798
47148W        W12375  21.122  42.785   3.804
47149W        W12376  16.460  20.624   4.853
47150W        W12377   9.516  17.406   2.827
47151W        W12378  30.405  12.187  12.018
47152W        W12379  23.506  13.871   0.793
47153W        W12380   8.957  34.250  11.679
47154W        W12381   3.065  27.629  10.012
47155W        W12382  33.661  33.113   1.767
47156W        W12383  33.384  28.612  14.330
47157W        W12384  16.670  14.905   4.189
47158W        W12385  38.997  21.566  11.734
47159W        W12386   2.793  18.301   4.140
47160W        W12387   8.782   9.384   2.724
47161W        W12388  39.020   6.410   3.232
47162W        W12389  36.611  27.936   2.890
47163W        W12390   6.712  35.189   2.375
47164W        W12391  38.420   8.711  14.045
47165W        W12392  16.849   1.828   2.331
47166W        W12393  14.355  22.753  14.818
47167W        W12394  37.186  33.524  14.697
47168W        W12395  15.839  40.344   3.517
47169W        W12396  40.745  21.765  12.612
47170W        W12397   4.909  38.776   3.717
47171W        W12398   2.428   5.716   4.076
47172W        W12399  23.063  12.590  11.864
47173W        W12400  23.602  30.864   2.774
47174W        W12401   1.114  26.472   1.206
47175W        W12402  26.126  27.291   3.684
47176W        W12403  28.141  20.420   2.811
47177W        W12404  12.293  12.173  13.093
47178W        W12405  13.306  30.871   2.996
47179W        W12406  33.001   1.898  11.466
47180W        W12407  14.208  35.031  13.318
47181W        W12408  32.426   5.782   3.907
47182W        W12409   7.180  17.795   0.879
47183W        W12410  36.772  28.569   4.212
47184W        W12411  35.610  13.568  14.434
47185W        W12412  15.084  10.787   2.703
47186W        W12413   5.820  21.744   2.881
47187W        W12414   9.207  23.282   1.296
47188W        W12415  35.208  15.564   2.669
47189W        W12416   2.735  39.811   2.554
47190W        W12417  23.857  37.860  10.539
47191W        W12418  38.783  31.008   0.795
47192W        W12419   1.222  11.728   1.387
47193W        W12420   1.907  37.430  12.961
47194W        W12421   2.414  10.857   2.770
47195W        W12422  14.245  31.826   3.774
47196W        W12423   1.393  37.090   2.443
47197W        W12424  24.963  14.074  12.892
47198W        W12425  11.758  18.371  14.364
47199W        W12426   4.422  31.592  12.026
47200W        W12427  35.041  43.526   3.704
47201W        W12428  38.354  44.956   3.794
47202W        W12429  11.588  36.011   2.143
47203W        W12430  37.013  12.132  12.506
47204W        W12431  36.585   8.401   1.428
47205W        W12432  30.508   7.884  13.353
47206W        W12433  30.641  18.003   3.109
47207W        W12434  21.589  13.895  11.454
47208W        W12435   5.696   4.425   3.048
47209W        W12436   7.345  22.766  13.508
47210W        W12437  29.903  21.696  12.041
47211W        W12438  24.439  35.527   4.340
47212W        W12439  17.714  17.092  11.472
47213W        W12440  17.740  42.595  12.323
47214W        W12441  44.027  39.040   3.921
47215W        W12442   3.493   0.949   5.236
47216W        W12443  42.868  27.869  13.200
47217W        W12444  34.215  21.793   3.253
47218W        W12445   0.474  16.318  14.895
47219W        W12446  16.179  26.524   4.852
47220W        W12447  27.531  13.629   4.472
47221W        W12448  29.898  22.870   3.429
47222W        W12449  15.443  21.163   3.738
47223W        W12450  16.389  39.038   1.234
47224W        W12451   7.081  12.162   0.653
47225W        W12452   2.564  11.144  12.615
47226W        W12453  26.456  33.805   5.085
47227W        W12454  13.267   1.050  13.058
47228W        W12455  17.070  28.061   3.747
47229W        W12456  31.621  16.239   4.194
47230W        W12457  22.515  43.738   1.450
47231W        W12458  25.803  34.886  13.163
47232W        W12459  20.067  20.924   5.094
47233W        W12460  15.357   6.139   2.754
47234W        W12461  31.657  33.984   4.201
47235W        W12462   7.372   1.814   0.229
47236W        W12463   3.285   4.989  12.086
47237W        W12464   9.886  17.281  12.048
47238W        W12465  32.818   2.681  11.980
47239W        W12466  16.601   4.279   0.814
47240W        W12467  27.251  19.841  12.027
47241W        W12468  14.429  32.383  11.745
47242W        W12469   7.967  43.555   4.157
47243W        W12470   3.927  34.793  11.603
47244W        W12471  43.006   0.472  10.989
47245W        W12472   3.494   6.542   1.198
47246W        W12473  18.309  42.055  13.757
47247W        W12474  20.778  18.804   2.384
47248W        W12475  16.552  19.261   0.653
47249W        W12476  31.145  33.879   3.005
47250W        W12477  25.953  26.373  12.886
47251W        W12478  42.011  38.347  10.543
47252W        W12479  42.728  28.830  14.313
47253W        W12480   1.059  21.668   2.187
47254W        W12481   8.383  30.592   3.782
47255W        W12482  19.563  39.609  12.303
47256W        W12483  44.441   6.632   4.070
47257W        W12484  11.343  42.908  11.987
47258W        W12485  13.519   8.755  13.859
47259W        W12486  11.815  30.193  12.081
47260W        W12487   8.440  44.915   1.723
47261W        W12488  28.059  35.830   1.782
47262W        W12489   4.475   4.422  11.097
47263W        W12490  17.885  43.067   4.189
47264W        W12491  41.477  17.038  10.661
47265W        W12492  14.211  22.944   4.222
47266W        W12493  13.117  40.772  11.885
47267W        W12494   5.385  28.197  12.426
47268W        W12495  31.103  33.598   1.323
47269W        W12496   0.947  20.665  12.595
47270W        W12497  15.196  37.088   4.655
47271W        W12498  33.729  26.082  13.750
47272W        W12499  25.180  36.858  13.023
47273W        W12500  38.951  14.144  14.469
47274W        W12501  17.723  29.146  13.367
47275W        W12502   3.936  20.929  14.211
47276W        W12503  34.989  17.378  11.013
47277W        W12504  20.358  25.651  11.756
47278W        W12505  14.899  21.175   4.481
47279W        W12506  23.528  37.766   0.838
47280W        W12507  23.088   1.260  14.399
47281W        W12508  32.073  36.499  13.341
47282W        W12509  26.006   6.917  13.060
47283W        W12510  27.102  18.161  13.603
47284W        W12511  40.322  10.740  10.744
47285W        W12512  28.926  12.858   4.929
47286W        W12513  29.518  41.958   0.961
47287W        W12514   0.574  16.982   3.688
47288W        W12515  12.881   9.271  12.453
47289W        W12516  24.616   5.287  12.381
47290W        W12517  44.430  34.998  11.094
47291W        W12518  43.202   6.199   5.153
47292W        W12519  26.050  32.030  14.459
47293W        W12520  25.217  43.135   0.850
47294W        W12521  17.021  38.558   4.221
47295W        W12522   9.783   3.508  10.301
47296W        W12523  21.555  36.378  11.335
47297W        W12524  16.696   8.853   0.076
47298W        W12525  13.085  17.575   0.352
47299W        W12526  26.147   4.711   2.882
47300W        W12527  11.304  11.408  11.110
47301W        W12528  29.878  25.756   1.426
47302W        W12529   5.135   3.072   0.397
47303W        W12530  11.799  41.234   1.918
47304W        W12531  29.774  10.162   2.947
47305W        W12532  11.336   1.364   3.679
47306W        W12533  34.093  44.292  11.760
47307W        W12534  44.067  10.672   1.896
47308W        W12535   7.504  10.877  12.672
47309W        W12536  29.660  40.860  11.442
47310W        W12537   9.407  28.988   1.800
47311W        W12538  35.879  27.457   0.763
47312W        W12539  12.218   1.735   4.157
47313W        W12540  37.797  27.019   0.660
47314W        W12541  42.027  12.751  14.742
47315W        W12542  23.162  34.903  11.983
47316W        W12543  43.050  37.529  13.007
47317W        W12544  28.466  29.193  13.909
47318W        W12545  33.087  18.766  11.520
47319W        W12546  18.141  20.672  11.860
47320W        W12547   1.464  31.893  12.921
47321W        W12548  38.917  18.069  10.419
47322W        W12549  17.102   0.165  12.988
47323W        W12550  11.809   8.150  14.391
47324W        W12551  12.493  20.095  11.192
47325W        W12552   0.860  23.765   2.773
47326W        W12553  13.029  43.050  10.394
47327W        W12554  12.629  26.492   5.018
47328W        W12555  39.299  26.939  14.271
47329W        W12556  38.064  31.365  12.007
47330W        W12557  10.161   0.494   2.779
47331W        W12558  10.890  15.314   0.848
47332W        W12559   8.743   0.420  13.554
47333W        W12560  41.970  38.149   3.228
47334W        W12561  43.096  37.475   4.684
47335W        W12562   3.312  25.459  14.922
47336W        W12563  25.595  43.420   4.277
47337W        W12564  37.291  18.745   0.999
47338W        W12565   8.622  44.459   2.327
47339W        W12566  44.856   4.317   0.256
47340W        W12567  33.893  34.068   3.159
47341W        W12568  34.139  44.312   1.843
47342W        W12569  32.481  16.872   5.421
47343W        W12570   2.521   7.829  14.501
47344W        W12571  23.110  11.888  14.330
47345W        W12572  17.244  11.095  10.904
47346W        W12573   6.264  25.777   1.951
47347W        W12574  29.532  32.970   1.000
47348W        W12575  28.250   4.885   1.877
47349W        W12576   2.381  25.513  11.147
47350W        W12577   0.104  24.285  14.456
47351W        W12578  23.673  27.424  11.190
47352W        W12579  33.589   2.388   0.885
47353W        W12580  34.100  43.112   1.283
47354W        W12581   2.727   1.023   4.668
47355W        W12582  32.709   6.414  14.968
47356W        W12583   0.920  21.229   3.527
47357W        W12584  22.479  27.048   3.364
47358W        W12585  38.998  28.916   3.678
47359W        W12586  39.321  17.371   3.724
47360W        W12587  34.929  25.716  11.518
47361W        W12588  34.525  42.774   2.636
47362W        W12589  30.759  40.767  10.964
47363W        W12590  39.803  24.238   3.360
47364W        W12591  37.455   9.126  14.261
47365W        W12592  34.531   4.336   1.376
47366W        W12593   6.471   1.325   3.820
47367W        W12594  16.787  43.000   3.196
47368W        W12595  25.265  19.422   3.412
47369W        W12596  38.897  19.521  12.263
47370W        W12597  32.544  44.254   2.692
47371W        W12598  31.913  20.487   4.034
47372W        W12599  23.323  15.507  10.107
47373W        W12600  28.620  30.364  12.508
47374W        W12601  25.801  19.577  14.832
47375W        W12602  21.675   9.920  11.171
47376W        W12603   5.547  34.856   1.470
47377W        W12604   4.240   3.164  11.617
47378W        W12605  22.469   7.174   4.181
47379W        W12606  24.746  30.155   4.600
47380W        W12607  22.171  33.132  14.548
47381W        W12608   7.378   8.953  13.276
47382W        W12609  15.242  29.026  12.977
47383W        W12610  44.076  33.081   4.141
47384W        W12611  23.602  29.728   3.605
47385W        W12612  33.581  30.861  12.302
47386W        W12613  31.010  17.980   3.876
47387W        W12614  34.228   8.471  14.419
47388W        W12615   5.713  37.557  12.482
47389W        W12616  18.600   4.906   0.043
47390W        W12617  17.778  24.634   1.697
47391W        W12618  34.065   6.747  13.006
47392W        W12619   1.186  36.644   4.433
47393W        W12620  13.293  32.322  12.570
47394W        W12621  34.575  20.137   0.907
47395W        W12622  34.673  38.799  13.000
47396W        W12623  21.985  22.698  13.806
47397W        W12624  39.195   4.018  13.887
47398W        W12625  16.641  26.604   2.721
47399W        W12626  35.919  35.925   0.379
47400W        W12627   2.634  12.685   3.384
47401W        W12628  42.566  41.298  14.344
47402W        W12629  44.779  42.600   3.192
47403W        W12630   8.753  40.499  12.020
47404W        W12631   9.044   3.025  10.299
47405W        W12632  33.024  16.197   5.897
47406W        W12633  20.615  16.280  13.851
47407W        W12634  37.707  12.611   4.107
47408W        W12635  42.795  41.838   0.963
47409W        W12636   0.472  36.309   1.964
47410W        W12637  10.610  31.995  13.038
47411W        W12638   5.954  33.979   1.498
47412W        W12639  38.323  25.983  11.853
47413W        W12640  43.818   4.535   4.818
47414W        W12641  44.753  11.340   1.865
47415W        W12642  40.649   5.289  14.727
47416W        W12643   1.357  37.391   0.521
47417W        W12644   8.056  17.434   2.067
47418W        W12645  23.040  12.619  13.275
47419W        W12646   2.014   0.889   2.150
47420W        W12647  18.140  20.583   2.465
47421W        W12648  22.742  37.138   4.095
47422W        W12649  40.419  44.263   1.058
47423W        W12650  27.196  32.920   1.380
47424W        W12651  38.426   1.833   2.910
47425W        W12652   0.933   0.769  14.636
47426W        W12653  17.293  17.233   1.796
47427W        W12654  31.257   4.708   5.045
47428W        W12655  14.693  24.977  14.572
47429W        W12656  41.377  37.492  10.611
47430W        W12657   0.111  29.080   1.314
47431W        W12658  40.334  43.385   4.600
47432W        W12659  26.203  17.269   2.862
47433W        W12660  15.182   9.568   2.717
47434W        W12661  41.784   7.333   0.185
47435W        W12662   0.995  10.255   5.183
47436W        W12663  28.816   2.778  12.093
47437W        W12664  36.614  33.073  10.642
47438W        W12665   1.951   2.665  12.432
47439W        W12666   4.930  40.994  14.784
47440W        W12667  32.709  20.201  10.785
47441W        W12668  10.345   3.389   0.179
47442W        W12669   3.783  40.806   2.439
47443W        W12670  16.436  23.894   4.174
47444W        W12671  13.311   7.393   4.201
47445W        W12672   5.903  35.981  14.776
47446W        W12673  29.071  10.073   2.067
47447W        W12674  29.309  24.940   2.149
47448W        W12675   2.934  24.232   2.350
47449W        W12676  41.385  28.656  13.840
47450W        W12677  11.170  35.470  14.069
47451W        W12678  20.658  43.770   4.228
47452W        W12679  40.942  13.780   4.114
47453W        W12680  12.590  11.780  11.824
47454W        W12681  17.176  30.422  12.941
47455W        W12682  34.568  33.517   3.171
47456W        W12683   4.276  31.497  13.367
47457W        W12684  27.253  44.686   4.107
47458W        W12685  44.222  11.833   3.834
47459W        W12686  35.052  44.426   4.042
47460W        W12687  27.463  33.941  10.814
47461W        W12688  40.124  23.641  11.520
47462W        W12689   6.501  40.645   3.814
47463W        W12690  26.608  18.030   2.444
47464W        W12691  11.392  33.984   2.285
47465W        W12692   7.319  18.057  11.421
47466W        W12693  26.038   4.847   2.403
47467W        W12694  36.026  17.054   2.742
47468W        W12695  14.519  15.435  10.771
47469W        W12696  29.413  12.858  14.777
47470W        W12697  14.620  19.968  12.040
47471W        W12698  11.827  41.882  10.487
47472W        W12699  10.658  36.576  12.838
47473W        W12700  10.629  22.071  13.440
47474W        W12701   4.480  23.954  14.783
47475W        W12702  39.016  36.719   3.267
47476W        W12703   6.405  28.671   1.406
47477W        W12704  18.166  13.408  12.856
47478W        W12705  39.492  10.524   2.912
47479W        W12706   5.380  24.062   3.147
47480W        W12707  22.985   5.345  10.502
47481W        W12708  33.626  29.284  12.044
47482W        W12709   7.328  33.234   0.918
47483W        W12710  37.937  22.308   0.429
47484W        W12711  24.201  11.438   2.614
47485W        W12712  27.652  13.150   9.758
47486W        W12713  31.647  23.274   2.732
47487W        W12714  26.645  26.690   0.142
47488W        W12715  40.551  22.043   1.612
47489W        W12716  13.762  17.830  13.343
47490W        W12717  34.495  14.204   3.278
47491W        W12718  30.852  39.190  13.292
47492W        W12719  38.585  40.864  10.950
47493W        W12720  23.048  39.021   1.188
47494W        W12721  42.426   8.389  14.284
47495W        W12722  12.521   3.854  14.145
47496W        W12723  38.850  20.090  13.035
47497W        W12724  21.981  12.532   1.455
47498W        W12725  14.702  25.577  11.364
47499W        W12726  11.794  29.674  12.153
47500W        W12727  22.948  34.455   3.761
47501W        W12728  42.602  21.003   4.056
47502W        W12729  24.792  43.158   1.659
47503W        W12730  43.003   4.445   4.414
47504W        W12731  16.833   2.813   1.960
47505W        W12732  21.349  23.200   1.369
47506W        W12733  19.779  18.306   3.754
47507W        W12734  15.157   2.459   3.608
47508W        W12735  27.717   4.007   1.786
47509W        W12736  18.294  21.207   1.791
47510W        W12737  17.341  37.893  11.546
47511W        W12738  18.218  11.106  12.859
47512W        W12739  23.158  13.231  12.441
47513W        W12740  23.491  30.088  14.040
47514W        W12741   4.128   5.785  10.783
47515W        W12742  40.629  24.438   2.754
47516W        W12743  39.022   9.832  12.491
47517W        W12744  40.793  29.687   1.358
47518W        W12745  30.466  20.150   3.521
47519W        W12746   4.133   1.294   0.698
47520W        W12747  25.954  18.589   3.679
47521W        W12748  19.247  44.117  12.297
47522W        W12749  19.601  26.278   5.036
47523W        W12750  15.682   1.717  10.556
47524W        W12751  23.285   6.902  13.414
47525W        W12752  15.201  28.996  10.607
47526W        W12753   5.114  41.676   4.573
47527W        W12754  40.871  32.051   4.653
47528W        W12755  40.071   0.200  14.932
47529W        W12756   0.186   5.786  12.019
47530W        W12757  42.656  11.198  13.996
47531W        W12758  28.575  31.078  14.000
47532W        W12759   4.753  28.916   0.459
47533W        W12760  19.284  39.655  14.386
47534W        W12761  37.841  39.916   0.364
47535W        W12762  10.528   2.429  11.432
47536W        W12763  12.796   9.881  10.733
47537W        W12764   0.249  20.725  13.535
47538W        W12765  25.026  42.842  11.998
47539W        W12766  42.073   3.350   2.370
47540W        W12767  26.345  22.016  13.549
47541W        W12768  33.609   9.189  13.526
47542W        W12769  32.654   5.785  10.647
47543W        W12770  34.959   1.290   0.416
47544W        W12771   4.914  39.046  12.902
47545W        W12772  11.585  14.618   0.436
47546W        W12773  41.746  30.697  12.292
47547W        W12774  39.968  23.315   0.738
47548W        W12775  32.194   5.269   2.213
47549W        W12776  12.874  42.499   4.566
47550W        W12777  30.581  39.415  11.945
47551W        W12778  40.379  29.631  11.194
47552W        W12779  25.672  41.413  14.881
47553W        W12780  27.034  25.962   2.742
47554W        W12781  19.133  27.072  14.066
47555W        W12782  27.530   5.909  13.213
47556W        W12783  15.248   3.953   2.919
47557W        W12784  36.102  18.124   2.643
47558W        W12785  44.548  11.394  14.976
47559W        W12786   3.681  35.733  11.608
47560W        W12787   9.275  14.080   3.268
47561W        W12788  41.974   8.960   1.963
47562W        W12789  35.354  27.057  13.371
47563W        W12790   1.556  26.557  13.403
47564W        W12791   4.881  37.577   2.689
47565W        W12792  23.883  22.233   0.933
47566W        W12793   4.344  25.533   1.321
47567W        W12794  34.952   0.983   4.134
47568W        W12795  22.202  28.498  13.895
47569W        W12796  20.224  15.544  11.831
47570W        W12797   1.756  41.762   4.493
47571W        W12798  33.243  41.223  10.911
47572W        W12799   3.495   9.091  12.109
47573W        W12800  43.987  29.563   4.217
47574W        W12801   1.963  23.471   1.799
47575W        W12802  18.723  33.492  10.675
47576W        W12803  32.908  44.548   1.726
47577W        W12804   4.667  12.210  13.944
47578W        W12805  30.647   7.181  10.970
47579W        W12806  35.946   1.457  11.674
47580W        W12807  22.285  39.785   1.711
47581W        W12808  15.818  31.555   4.308
47582W        W12809  39.045  41.902  13.826
47583W        W12810  11.675  38.966   4.776
47584W        W12811   0.975  32.342   4.971
47585W        W12812  34.735   5.158  13.547
47586W        W12813  12.016  26.036   1.936
47587W        W12814  21.162  10.996   0.823
47588W        W12815  39.275  11.893  12.914
47589W        W12816  42.564  40.003  14.097
47590W        W12817  26.288  19.338   4.532
47591W        W12818   7.986   9.362   0.341
47592W        W12819  25.584  33.488   2.715
47593W        W12820  27.722  40.006  10.642
47594W        W12821  39.425  16.223   0.961
47595W        W12822  41.568  28.956   2.556
47596W        W12823  15.376  40.406  14.015
47597W        W12824  33.374  16.277   0.902
47598W        W12825  41.386   8.369  13.368
47599W        W12826  32.476   0.501   3.201
47600W        W12827  40.455  24.459  13.875
47601W        W12828   1.417  34.097  14.693
47602W        W12829  16.865  27.419   3.916
47603W        W12830  22.535  13.219   1.895
47604W        W12831  35.865   5.127  11.080
47605W        W12832  22.977   6.922   1.624
47606W        W12833  10.849  11.089   4.568
47607W        W12834   1.952  34.766  11.007
47608W        W12835  38.941  26.508   1.801
47609W        W12836  13.199  33.625  12.809
47610W        W12837  42.269  16.973   0.852
47611W        W12838  29.373  39.366   2.343
47612W        W12839  20.221  13.165  14.364
47613W        W12840  10.255  26.052  10.406
47614W        W12841   1.046  28.514  13.667
47615W        W12842   1.050  41.268   1.937
47616W        W12843  28.696   5.431  12.175
47617W        W12844  25.712   4.921   1.459
47618W        W12845   6.897   5.613   4.307
47619W        W12846  20.438  17.077   1.873
47620W        W12847  22.109   0.660  12.052
47621W        W12848  30.099  31.901  12.892
47622W        W12849  42.312   7.104  12.972
47623W        W12850  16.717  17.083  12.417
47624W        W12851  20.658  14.824   4.219
47625W        W12852   9.715  36.907  11.567
47626W        W12853  38.069  11.902  10.638
47627W        W12854  41.035  26.758  11.116
47628W        W12855   3.827  13.175  10.731
47629W        W12856   8.649  33.878  11.465
47630W        W12857   9.401  40.835   3.814
47631W        W12858  12.037  38.585   4.639
47632W        W12859  23.008  32.598  13.517
47633W        W12860  38.421   8.153  14.002
47634W        W12861  13.226   0.626  11.789
47635W        W12862  34.326  23.228  10.373
47636W        W12863  17.316   3.704   4.497
47637W        W12864  19.340  40.011  13.565
47638W        W12865  31.765  32.686  11.635
47639W        W12866  40.454   6.946   2.152
47640W        W12867  21.623   0.884  12.025
47641W        W12868  13.205  43.983   2.472
47642W        W12869  27.446  37.326   4.615
47643W        W12870  29.522  41.413   3.660
47644W        W12871   9.841  44.286  13.436
47645W        W12872  44.966  44.587  13.967
47646W        W12873  40.016  21.765   2.304
47647W        W12874  14.794   2.912  12.579
47648W        W12875   0.846   9.923  10.736
47649W        W12876  43.097  33.489   3.007
47650W        W12877   8.876  44.966  13.878
47651W        W12878  41.800  42.847   4.569
47652W        W12879  22.078   0.731   9.843
47653W        W12880  17.279  41.830   3.148
47654W        W12881   9.119   0.368   2.863
47655W        W12882  44.292   9.521  11.029
47656W        W12883  13.870  31.583   4.994
47657W        W12884  14.135  31.674   3.281
47658W        W12885  14.914  26.081   4.200
47659W        W12886  33.868  39.371   1.797
47660W        W12887  26.526  33.496  11.279
47661W        W12888   4.411  12.742   3.424
47662W        W12889  34.020  35.551   0.199
47663W        W12890  20.756  31.454   1.959
47664W        W12891  28.132  42.609   4.890
47665W        W12892  36.903  39.729  11.495
47666W        W12893  37.925  20.228  12.962
47667W        W12894  20.635  28.297   4.837
47668W        W12895  31.772   2.904   0.092
47669W        W12896  12.365  34.666  11.534
47670W        W12897  19.515  31.370  11.943
47671W        W12898  19.301  15.213   3.880
47672W        W12899  41.472   2.798   0.286
47673W        W12900  22.247  34.597  12.665
47674W        W12901  38.100  10.725  11.991
47675W        W12902   5.497   9.488  14.235
47676W        W12903  31.873  29.498  14.784
47677W        W12904   5.745  25.180   2.200
47678W        W12905  41.908  26.211   3.996
47679W        W12906  31.143   6.151   3.998
47680W        W12907   5.381  39.343  10.754
47681W        W12908   4.466  39.610  12.404
47682W        W12909  21.708  41.408   4.858
47683W        W12910  12.131  33.640   2.725
47684W        W12911  19.123  35.453  10.752
47685W        W12912  29.913  21.588  14.908
47686W        W12913  19.722  44.885  12.618
47687W        W12914  26.988   7.944  11.268
47688W        W12915  13.666  17.516  13.770
47689W        W12916  14.166  37.837  14.902
47690W        W12917  25.126   8.352   3.929
47691W        W12918   5.800  10.461  10.580
47692W        W12919  26.039  27.055  11.165
47693W        W12920  34.887  30.838   3.326
47694W        W12921  39.260  15.501   2.720
47695W        W12922  35.143  11.744   1.748
47696W        W12923  44.812  42.226  11.003
47697W        W12924  34.577  15.753  14.037
47698W        W12925  32.489   3.648  14.829
47699W        W12926  26.653  21.841   4.565
47700W        W12927  28.940   7.474  11.027
47701W        W12928   0.383  34.487  13.361
47702W        W12929  28.770  18.594   3.927
47703W        W12930  39.060  27.110  12.484
47704W        W12931  16.694  35.720  14.222
47705W        W12932  24.998  16.035   3.157
47706W        W12933  34.930  42.774   2.340
47707W        W12934  20.110  30.121  11.668
47708W        W12935   2.775  41.629  11.572
47709W        W12936  37.059   0.167   1.850
47710W        W12937  39.282   5.670  12.593
47711W        W12938  21.013  37.931   2.162
47712W        W12939  37.664  39.908  12.148
47713W        W12940   7.861  18.716   5.006
47714W        W12941  28.032  33.750   3.725
47715W        W12942   3.442   2.792   5.209
47716W        W12943  24.707  11.250  11.636
47717W        W12944  27.923  17.535   2.273
47718W        W12945  34.184  26.191  12.472
47719W        W12946  17.242  41.526   3.598
47720W        W12947  37.077  28.073   0.383
47721W        W12948  29.763  18.786   4.096
47722W        W12949   7.668  25.236  12.944
47723W        W12950   9.681  18.878  14.107
47724W        W12951  12.821  30.436   4.791
47725W        W12952  39.661  14.659  14.029
47726W        W12953   8.581  14.189  11.684
47727W        W12954  24.418  12.142  11.860
47728W        W12955  17.024  21.385  10.745
47729W        W12956  11.699  18.143   4.110
47730W        W12957  41.577  34.954  12.094
47731W        W12958  37.098   1.455  12.069
47732W        W12959  33.929  30.529  11.674
47733W        W12960   2.824  38.920   0.779
47734W        W12961  10.661  20.264  11.563
47735W        W12962  37.313  35.001   4.089
47736W        W12963  33.561   9.172   3.640
47737W        W12964   0.466   3.788  11.212
47738W        W12965  24.037  29.990   2.305
47739W        W12966  21.686  12.535  13.498
47740W        W12967  35.619  34.477  14.013
47741W        W12968  23.024  39.609  11.985
47742W        W12969   9.393  35.398  14.554
47743W        W12970  21.070  35.350   2.592
47744W        W12971   9.381  29.338   1.189
47745W        W12972  15.628   4.077  10.403
47746W        W12973  13.331  26.583   1.725
47747W        W12974  40.271  12.510   1.871
47748W        W12975  27.944  14.833  12.885
47749W        W12976  15.900  31.974  14.991
47750W        W12977  39.446  27.597   0.502
47751W        W12978   8.904  35.313  11.163
47752W        W12979  21.146  17.647  14.597
47753W        W12980  29.425  13.120   2.661
47754W        W12981   2.561  23.517   1.286
47755W        W12982  35.890  18.594  13.992
47756W        W12983  37.303  39.496   2.399
47757W        W12984   1.590  30.491   2.716
47758W        W12985  15.443  19.703   1.818
47759W        W12986   7.335  19.005   4.190
47760W        W12987  33.659  22.818  14.940
47761W        W12988   5.992  29.154   4.550
47762W        W12989  23.214  44.407  11.842
47763W        W12990  40.028  43.644   2.129
47764W        W12991  19.190   4.227  11.984
47765W        W12992  35.421   1.262   4.114
47766W        W12993  30.683  15.164  11.628
47767W        W12994  16.546  10.208  13.998
47768W        W12995   6.143   9.357  12.906
47769W        W12996  26.049   8.144  11.676
47770W        W12997  19.294  40.968  14.520
47771W        W12998   2.821   0.908  12.625
47772W        W12999   5.248  39.055  13.977
47773W        W13000  44.526   5.942  14.916
47774W        W13001  26.267  18.075   1.184
47775W        W13002  39.512   8.848  13.416
47776W        W13003  12.302  27.453  11.284
47777W        W13004  37.099  30.916   2.381
47778W        W13005  31.416  22.917   0.910
47779W        W13006  30.602  41.347   2.765
47780W        W13007  26.919  17.409   0.404
47781W        W13008  18.059   2.759   1.132
47782W        W13009   3.863  24.449  10.994
47783W        W13010  31.524  36.544   3.047
47784W        W13011  14.131   9.760  12.608
47785W        W13012  34.966  19.156   2.985
47786W        W13013  31.450  40.679  13.627
47787W        W13014   4.432  27.910   5.003
47788W        W13015  16.022  41.639  14.925
47789W        W13016  13.254   1.724   4.369
47790W        W13017  26.140  22.289  11.453
47791W        W13018  26.165  23.996   4.113
47792W        W13019  26.089  20.895  12.039
47793W        W13020   5.102  43.492  14.008
47794W        W13021  36.552  21.951   2.611
47795W        W13022  40.018   6.408  11.692
47796W        W13023  35.624  35.938  13.409
47797W        W13024  39.594  43.526  14.492
47798W        W13025  18.206   0.711   4.271
47799W        W13026   1.151  25.389  14.381
47800W        W13027   0.028  19.563   0.185
47801W        W13028  42.989  16.064   0.776
47802W        W13029   7.125  25.948  11.143
47803W        W13030   5.375  19.262   1.905
47804W        W13031  35.005  23.784   9.932
47805W        W13032  32.997   5.386   0.338
47806W        W13033  22.062  31.672  13.044
47807W        W13034  24.577  11.705   4.309
47808W        W13035  32.337  10.592   1.694
47809W        W13036   8.375  32.378  14.844
47810W        W13037  35.263  21.926  14.899
47811W        W13038  31.135  13.292   3.528
47812W        W13039  13.779   2.477   3.895
47813W        W13040  43.095  29.539  12.401
47814W        W13041  26.691  17.841   4.840
47815W        W13042  15.249  19.529   0.460
47816W        W13043  24.459  27.963  11.142
47817W        W13044  15.516  15.545  12.473
47818W        W13045  16.051   8.277   1.692
47819W        W13046   8.927  39.970   2.499
47820W        W13047  17.535  10.769  12.015
47821W        W13048  27.387  41.510   3.079
47822W        W13049   7.634   4.539   4.839
47823W        W13050  33.793   9.992   1.636
47824W        W13051  36.141  16.978   0.281
47825W        W13052  44.988  12.794  14.365
47826W        W13053   5.492   4.806  14.771
47827W        W13054  35.897  20.296   4.198
47828W        W13055   8.357  15.710  14.476
47829W        W13056   0.355  26.105  13.481
47830W        W13057  14.543  36.357   0.492
47831W        W13058   3.908  40.329  13.779
47832W        W13059  43.868   4.289  14.486
47833W        W13060  26.229  36.953  14.497
47834W        W13061  40.757  38.923  11.526
47835W        W13062  22.630   0.984  13.442
47836W        W13063   1.473   2.007   4.117
47837W        W13064   5.175  38.345   3.049
47838W        W13065  26.720   6.207  10.586
47839W        W13066  34.879  44.726  12.992
47840W        W13067  44.517  17.645   3.820
47841W        W13068  24.524  35.453   2.250
47842W        W13069  28.479  25.234  14.413
47843W        W13070  15.818   0.319   0.177
47844W        W13071  28.236   7.184  14.164
47845W        W13072  28.542  37.403   0.211
47846W        W13073  35.878   2.699  11.094
47847W        W13074  38.459   1.075   2.584
47848W        W13075  27.010  31.155   0.288
47849W        W13076  20.600  25.180   0.918
47850W        W13077  14.121  29.705  12.519
47851W        W13078  11.681  25.081  13.068
47852W        W13079  15.712  33.134  13.999
47853W        W13080  12.576  34.889  14.887
47854W        W13081  15.297  44.783  11.515
47855W        W13082   8.462   7.731   2.135
47856W        W13083  12.945  39.599  11.490
47857W        W13084  39.770   3.361   4.104
47858W        W13085  11.997  41.406   0.241
47859W        W13086  40.317   3.534  11.640
47860W        W13087   2.393   0.672  13.993
47861W        W13088  40.582   3.348  14.671
47862W        W13089   8.370   4.073  11.811
47863W        W13090   4.953  37.895   4.213
47864W        W13091  12.321  28.629  11.584
47865W        W13092  36.463  26.673   4.102
47866W        W13093  30.144  20.845   0.378
47867W        W13094   5.760  35.341   0.549
47868W        W13095  31.397  34.801   9.660
47869W        W13096   5.614  17.476   2.269
47870W        W13097  20.635   6.254   0.997
47871W        W13098  28.427  30.268   4.583
47872W        W13099  31.940  19.652   4.133
47873W        W13100  11.326  15.673  14.033
47874W        W13101   7.012  43.105  14.236
47875W        W13102   0.445  38.931   0.473
47876W        W13103  10.569  16.728  14.912
47877W        W13104  42.452   8.730  13.850
47878W        W13105  36.216  26.821  12.935
47879W        W13106   9.201  18.117  13.566
47880W        W13107   2.630  18.019   1.062
47881W        W13108   5.833  22.596   3.865
47882W        W13109  42.325  16.325  14.007
47883W        W13110  33.508   4.635   2.789
47884W        W13111   5.809  24.944  10.771
47885W        W13112  31.367  12.727   0.469
47886W        W13113  11.559   3.734  13.080
47887W        W13114  20.825   6.254   1.931
47888W        W13115   0.934  40.636  13.908
47889W        W13116  23.013   5.738   2.182
47890W        W13117  21.093   7.729  11.990
47891W        W13118  44.553  34.797   5.031
47892W        W13119  32.594  11.207  12.232
47893W        W13120  42.465  41.501   0.724
47894W        W13121  42.896  27.283   5.037
47895W        W13122  36.472   0.508   0.703
47896W        W13123   4.806   1.531   1.186
47897W        W13124  14.525   7.637  14.565
47898W        W13125   7.378  35.618   2.177
47899W        W13126  22.650  15.905   1.818
47900W        W13127   7.973   2.352  14.576
47901W        W13128  13.751   0.298  12.884
47902W        W13129  22.797   7.929  11.070
47903W        W13130  15.352  28.159   2.900
47904W        W13131  38.376  21.037   1.776
47905W        W13132   5.184  29.922   0.811
47906W        W13133  33.541  14.615  12.846
47907W        W13134  10.831  10.833   0.373
47908W        W13135  14.469  39.121   0.206
47909W        W13136  44.773  18.078   3.356
47910W        W13137   0.742  34.647  11.964
47911W        W13138  43.014   4.478   3.597
47912W        W13139   6.844   8.102  13.292
47913W        W13140   3.712  14.801   2.217
47914W        W13141  43.980   7.843   1.956
47915W        W13142  29.447  41.496   0.046
47916W        W13143  37.814   1.504   0.447
47917W        W13144  41.361  17.850  13.826
47918W        W13145  26.997   4.239   0.356
47919W        W13146  37.819   9.735   0.456
47920W        W13147  34.335  17.015   3.349
47921W        W13148  20.306   3.908  11.582
47922W        W13149   5.851  23.626   0.055
47923W        W13150  24.565  39.605   4.811
47924W        W13151  10.197  43.065  10.965
47925W        W13152  35.638  42.190   1.819
47926W        W13153  34.547  28.356  10.560
47927W        W13154  17.518  44.539  11.992
47928W        W13155  36.980  23.438   4.275
47929W        W13156   6.033  44.505   0.804
47930W        W13157   4.762  18.252   3.853
47931W        W13158  34.369  27.632  14.111
47932W        W13159  36.509  41.787   1.829
47933W        W13160  39.950  18.518   4.115
47934W        W13161   3.462  13.280  12.070
47935W        W13162  20.489   9.784   1.367
47936W        W13163  43.460  35.840  11.238
47937W        W13164  14.411  37.728   5.102
47938W        W13165  22.591  15.245  10.744
47939W        W13166  32.202  13.896  12.478
47940W        W13167  11.131  39.091   4.111
47941W        W13168   1.623  28.948  11.002
47942W        W13169  32.916  34.628  11.472
47943W        W13170  27.137   4.802  11.251
47944W        W13171   4.347  15.330   2.843
47945W        W13172  41.444   7.641   4.783
47946W        W13173  18.779  41.542  12.961
47947W        W13174  25.668  30.962   4.025
47948W        W13175   0.905  33.395   2.768
47949W        W13176  14.111  33.120   2.324
47950W        W13177   5.113  19.113  10.017
47951W        W13178  26.636  44.815  11.423
47952W        W13179  17.515  19.371   2.190
47953W        W13180  41.887  44.123  14.864
47954W        W13181  12.866  33.636  10.290
47955W        W13182  36.903  42.952   3.695
47956W        W13183  19.123  29.159   4.364
47957W        W13184  42.283  11.560   2.474
47958W        W13185  38.898   9.854  10.822
47959W        W13186  15.350   5.705  14.618
47960W        W13187   8.438  19.198  10.772
47961W        W13188  32.358  20.131   4.772
47962W        W13189  18.641  30.474   2.131
47963W        W13190  23.150  15.740  11.444
47964W        W13191  13.354  18.843   5.196
47965W        W13192  42.613  42.724   0.670
47966W        W13193  17.684   7.777   3.154
47967W        W13194  34.453  32.562  11.120
47968W        W13195   3.435  32.088   1.521
47969W        W13196  32.470   8.598   0.420
47970W        W13197  38.597  10.721  12.013
47971W        W13198  25.434  36.598  14.384
47972W        W13199  25.640  39.825  13.066
47973W        W13200  13.338  37.847  10.834
47974W        W13201  20.042  25.871   3.728
47975W        W13202   3.358  19.222  10.988
47976W        W13203  14.729  32.422   0.102
47977W        W13204  26.910  17.776  12.344
47978W        W13205  24.268  11.667   0.067
47979W        W13206  44.206   4.241   5.033
47980W        W13207  33.110   9.627  10.573
47981W        W13208  11.502  41.248   0.174
47982W        W13209  44.295   9.824  10.627
47983W        W13210   4.364  42.298  12.951
47984W        W13211   3.333  19.677  13.338
47985W        W13212  30.465  28.903   5.139
47986W        W13213   8.658  31.176  14.356
47987W        W13214  21.268  26.515  10.567
47988W        W13215  22.958  23.765   2.276
47989W        W13216   1.079  41.341  14.387
47990W        W13217   3.044   4.370  13.757
47991W        W13218  24.337   8.589   4.282
47992W        W13219   1.519  25.814   4.538
47993W        W13220  21.677  28.175  11.262
47994W        W13221  10.245   0.931   3.040
47995W        W13222  26.986  44.747   3.128
47996W        W13223   8.524  34.454   4.080
47997W        W13224   6.321  19.318  14.559
47998W        W13225  22.522  14.914   0.253
47999W        W13226  31.525  32.511  14.164
48000W        W13227  33.349  16.782   2.646
48001W        W13228  15.958  27.088  13.414
48002W        W13229  24.197   3.265  14.981
48003W        W13230  36.521  37.801   4.782
48004W        W13231  20.841  35.330  12.479
48005W        W13232  12.168  29.879  11.855
48006W        W13233  13.203  10.916  11.996
48007W        W13234  22.334  15.805  13.287
48008W        W13235  11.227   3.678  10.271
48009W        W13236  27.096  30.626   2.643
48010W        W13237  13.878  23.638   2.581
48011W        W13238  22.279  28.578   3.313
48012W        W13239   9.911   7.663   1.014
48013W        W13240   7.250  34.059   2.854
48014W        W13241  10.711   7.400   4.365
48015W        W13242  32.594  35.080   0.899
48016W        W13243  40.573  22.036  11.634
48017W        W13244   4.222  25.557  11.202
48018W        W13245  14.066  24.339  14.808
48019W        W13246  41.245  39.934  10.810
48020W        W13247  41.882  24.172   2.320
48021W        W13248  34.608  32.876   0.779
48022W        W13249  14.847   2.875   3.260
48023W        W13250  32.044  11.557  12.896
48024W        W13251  19.966  41.427   1.252
48025W        W13252  19.308  32.615   1.509
48026W        W13253  32.172  40.711  14.603
48027W        W13254  30.592  10.284  13.044
48028W        W13255  35.849  32.054   0.364
48029W        W13256  19.734  37.367  10.686
48030W        W13257  33.351  42.272  13.364
48031W        W13258  29.941  18.421  11.898
48032W        W13259  19.498   2.877   0.687
48033W        W13260   9.265   1.857  10.923
48034W        W13261  18.570   9.390   4.709
48035W        W13262  14.995   4.213  12.887
48036W        W13263   5.775  17.446  12.537
48037W        W13264  41.896  28.234   1.245
48038W        W13265  12.650   0.291   3.999
48039W        W13266  39.973  19.067  11.357
48040W        W13267  35.980  36.376   4.424
48041W        W13268  36.630   1.424   3.628
48042W        W13269  31.947  43.031   3.754
48043W        W13270  27.035  17.145   1.914
48044W        W13271  19.758  40.873  11.531
48045W        W13272  24.560  34.707   3.228
48046W        W13273  11.706  37.922   2.414
48047W        W13274  21.493  12.381   1.296
48048W        W13275  21.148  41.996   3.428
48049W        W13276   4.349  11.364   1.748
48050W        W13277  17.038  11.855  12.915
48051W        W13278   0.402  31.832  11.015
48052W        W13279  11.169  15.983  12.841
48053W        W13280  24.701   6.743   4.063
48054W        W13281  11.801  31.650   1.864
48055W        W13282  17.290  13.348   4.918
48056W        W13283  30.990  27.474  14.326
48057W        W13284  39.523   2.831  13.980
48058W        W13285   7.730  34.897   2.764
48059W        W13286  16.695  38.089  13.529
48060W        W13287  20.479  25.208   0.415
48061W        W13288  29.455   8.315  11.629
48062W        W13289  40.877  15.143   2.928
48063W        W13290  33.158  24.964   5.048
48064W        W13291   9.566  11.832  14.422
48065W        W13292  23.321  16.060  10.557
48066W        W13293   5.325  10.251   3.282
48067W        W13294  41.899  15.613  12.206
48068W        W13295  26.989  18.232  10.721
48069W        W13296  34.663  13.751  14.384
48070W        W13297  17.760  35.518   4.383
48071W        W13298  29.182  36.886  10.241
48072W        W13299  26.173  38.802  11.198
48073W        W13300  43.272  36.625  13.879
48074W        W13301  40.850  38.133   4.227
48075W        W13302  33.764  10.804  12.764
48076W        W13303  36.810  11.100  12.404
48077W        W13304   0.713  10.259   3.329
48078W        W13305   2.570   7.798   2.509
48079W        W13306  21.822  37.419  14.810
48080W        W13307  38.791  18.801  13.019
48081W        W13308  39.446  32.935  14.876
48082W        W13309  28.167   5.360  12.941
48083W        W13310   5.725  33.403   2.814
48084W        W13311  19.102  15.654   3.692
48085W        W13312   7.695  40.639  12.041
48086W        W13313  36.007  31.166  13.488
48087W        W13314  32.433  12.104   3.173
48088W        W13315   1.242  17.104  11.058
48089W        W13316   5.950  16.160   0.826
48090W        W13317  41.540   5.237  14.147
48091W        W13318  42.968   3.877   4.454
48092W        W13319  31.875  18.717   4.128
48093W        W13320  39.583   1.467  14.264
48094W        W13321  39.012  24.863   2.008
48095W        W13322  11.623  30.397  11.613
48096W        W13323  12.126  19.308   0.360
48097W        W13324  41.885   1.105   1.383
48098W        W13325  33.592  30.927   0.783
48099W        W13326  38.653   0.938   3.361
48100W        W13327   1.892   3.391   2.242
48101W        W13328  34.490   7.203   1.992
48102W        W13329  40.900  36.490   4.692
48103W        W13330  44.101  44.926  11.545
48104W        W13331  44.483  23.623   3.167
48105W        W13332   4.136  32.860   4.495
48106W        W13333  29.407  39.677  10.159
48107W        W13334  42.275  36.380   0.939
48108W        W13335   3.507  21.452  12.717
48109W        W13336  20.953  35.683  11.597
48110W        W13337  20.755  23.156  12.188
48111W        W13338  38.571  30.115  14.271
48112W        W13339  40.758   8.909  13.802
48113W        W13340  32.793   7.213   1.382
48114W        W13341  42.317  37.721   1.257
48115W        W13342  31.015  14.583  12.375
48116W        W13343   3.756  21.405  14.069
48117W        W13344   2.735  17.801  13.505
48118W        W13345  44.521  25.670   2.781
48119W        W13346  43.228  42.705  13.604
48120W        W13347   9.126  19.777   1.232
48121W        W13348  29.927  40.573  12.583
48122W        W13349   5.367  15.584   3.142
48123W        W13350   6.958   0.766  13.590
48124W        W13351   1.706  39.275   3.684
48125W        W13352  26.224  41.520  14.823
48126W        W13353  44.170  30.478  13.561
48127W        W13354  43.632   8.176   2.206
48128W        W13355  18.840  31.663   0.798
48129W        W13356  36.245  23.664  12.872
48130W        W13357  40.464   2.745  11.076
48131W        W13358  33.862  22.556  14.334
48132W        W13359  29.423  32.579  13.558
48133W        W13360  30.925  35.535   0.138
48134W        W13361  23.103   5.806  10.688
48135W        W13362  12.232  14.604   0.770
48136W        W13363  11.237  17.079  12.892
48137W        W13364  43.720  35.574  12.858
48138W        W13365   0.512  20.891   2.193
48139W        W13366   9.164  43.216  14.111
48140W        W13367  42.882  23.017  11.143
48141W        W13368   7.610  38.962   1.314
48142W        W13369  40.904  23.153  11.334
48143W        W13370  16.318   3.771  12.923
48144W        W13371  41.294  34.282   2.309
48145W        W13372  15.388  10.534   1.119
48146W        W13373   2.013   0.562   4.144
48147W        W13374  23.164  15.846   4.906
48148W        W13375   1.161  36.777   3.897
48149W        W13376  19.323  18.035   1.392
48150W        W13377  36.502   6.249   0.648
48151W        W13378  34.144   4.745  12.977
48152W        W13379  42.152  13.121  13.901
48153W        W13380   0.453   2.919   2.019
48154W        W13381  38.505  41.615  12.977
48155W        W13382  11.289  27.982  12.422
48156W        W13383  19.361  17.536   3.730
48157W        W13384  42.568  24.477  11.990
48158W        W13385   3.354  39.508   4.523
48159W        W13386  27.098  11.620   3.152
48160W        W13387   6.901   6.000  14.781
48161W        W13388   9.413   6.330   1.060
48162W        W13389   4.509  16.602   5.066
48163W        W13390  35.050  29.860   3.157
48164W        W13391  20.844  25.132   2.826
48165W        W13392   6.691  32.839   1.833
48166W        W13393  44.947   8.182  13.188
48167W        W13394  17.734  15.968   3.282
48168W        W13395   2.397  36.340  12.564
48169W        W13396  26.170  37.478   4.930
48170W        W13397  16.823  10.208   2.400
48171W        W13398   7.771  11.416   1.394
48172W        W13399  40.573  37.521   1.508
48173W        W13400   5.752   7.335  14.970
48174W        W13401  15.797  34.588   3.749
48175W        W13402  36.954  37.867  11.770
48176W        W13403   6.259  30.130   4.087
48177W        W13404  12.785  24.402   3.286
48178W        W13405  16.095  40.381  11.864
48179W        W13406  32.764  24.627   4.880
48180W        W13407  34.311  24.224   4.299
48181W        W13408  37.255  32.531  10.994
48182W        W13409   9.921   7.243   2.768
48183W        W13410   8.914  41.047   3.716
48184W        W13411  30.373  22.765  10.698
48185W        W13412  36.075   1.242   2.801
48186W        W13413  32.402  12.099  13.825
48187W        W13414  40.899   6.266   0.681
48188W        W13415  13.321  36.001  14.037
48189W        W13416  37.915  44.032  10.398
48190W        W13417  37.350  11.784  14.204
48191W        W13418  25.079   6.717  11.048
48192W        W13419  25.963  22.511  11.928
48193W        W13420  44.049  31.517   3.136
48194W        W13421   0.547  16.421   9.899
48195W        W13422   2.893  39.987   2.045
48196W        W13423   6.770  16.664   2.802
48197W        W13424  37.617  19.772   5.037
48198W        W13425  30.568  16.644   2.686
48199W        W13426  23.410  20.065  10.784
48200W        W13427  26.871  19.139  13.301
48201W        W13428  21.533  31.890  13.569
48202W        W13429  19.520  34.534  12.009
48203W        W13430   6.862   8.256  10.712
48204W        W13431  14.097  17.264   3.155
48205W        W13432  22.076  39.980   0.270
48206W        W13433  36.675   3.330  13.874
48207W        W13434  20.150  20.717  14.515
48208W        W13435  33.414  43.053  12.302
48209W        W13436  39.956  37.503   2.837
48210W        W13437  34.797  24.477   2.712
48211W        W13438  13.851   9.765  12.185
48212W        W13439   3.398  27.092  14.687
48213W        W13440  26.382  39.505  12.458
48214W        W13441  40.077  16.370  11.458
48215W        W13442   9.827  33.194  10.678
48216W        W13443   8.133  36.443  10.480
48217W        W13444  33.048  41.808  11.662
48218W        W13445   5.510   1.272   4.980
48219W        W13446  39.849   0.008   3.673
48220W        W13447  19.138  25.406   3.640
48221W        W13448  41.328   0.204  14.345
48222W        W13449   9.699  44.239  14.397
48223W        W13450   5.943  11.871  12.372
48224W        W13451  39.710  38.384  12.090
48225W        W13452  21.960  17.935   0.063
48226W        W13453  21.641  13.044  13.455
48227W        W13454  19.260  30.089  10.672
48228W        W13455  26.373  20.751  12.445
48229W        W13456   5.701  44.708  10.426
48230W        W13457  40.297  16.610   3.181
48231W        W13458  17.797   2.076  13.712
48232W        W13459  11.520  18.270  11.244
48233W        W13460   7.408   4.753   1.541
48234W        W13461  19.789   1.731  12.031
48235W        W13462  40.937  24.956  12.546
48236W        W13463  34.807  21.685  13.897
48237W        W13464   6.675   4.804   4.157
48238W        W13465  27.218  16.859   2.308
48239W        W13466  28.524  26.913   2.621
48240W        W13467  32.363  21.352  10.280
48241W        W13468  23.232  40.854  12.922
48242W        W13469  34.842  40.908  11.509
48243W        W13470   8.170  27.959  11.219
48244W        W13471   8.034  21.106   1.976
48245W        W13472  14.326   4.802  12.577
48246W        W13473  43.315  28.123  13.351
48247W        W13474   2.494  44.573   3.182
48248W        W13475  33.188   7.675  13.196
48249W        W13476   5.431  14.255  12.947
48250W        W13477  29.908   5.667   2.737
48251W        W13478  13.740  34.864   2.422
48252W        W13479   0.548   5.366  11.954
48253W        W13480  38.907  30.628   3.643
48254W        W13481  31.859  36.019  14.507
48255W        W13482  13.273   4.792  13.007
48256W        W13483  36.009   8.187   3.706
48257W        W13484  16.167  33.706   4.977
48258W        W13485  42.044   6.531   3.631
48259W        W13486   4.352  10.402   3.211
48260W        W13487  18.298  14.406  11.121
48261W        W13488  17.537  13.709   1.324
48262W        W13489   6.261  23.953   3.414
48263W        W13490   3.248  21.302  13.994
48264W        W13491  27.537  42.585  12.504
48265W        W13492  20.524  36.017   1.225
48266W        W13493  39.935  42.195   4.179
48267W        W13494   0.334  16.849   2.431
48268W        W13495  17.635  11.236  14.865
48269W        W13496  16.919  13.217  13.437
48270W        W13497   5.875   7.877  10.642
48271W        W13498  27.236  42.567  12.035
48272W        W13499  20.266  40.614  11.682
48273W        W13500  28.735   6.252   4.661
48274W        W13501  16.859  36.891   2.375
48275W        W13502  28.722  16.836  12.549
48276W        W13503  18.747  30.047   1.923
48277W        W13504  44.889  23.550   3.484
48278W        W13505  31.635  19.102   0.397
48279W        W13506  30.851  23.977  10.803
48280W        W13507   3.736  26.531  11.271
48281W        W13508  16.656  41.246   1.673
48282W        W13509  32.211  42.942   4.661
48283W        W13510  29.028  36.581   0.913
48284W        W13511  43.809  37.221   1.682
48285W        W13512  32.012  33.638   4.037
48286W        W13513  43.726  19.000   3.702
48287W        W13514  42.078   5.341  12.902
48288W        W13515   4.906  18.739   3.804
48289W        W13516  29.645  17.456  11.045
48290W        W13517  35.384  32.359  14.931
48291W        W13518  42.085  14.281  14.475
48292W        W13519  17.120  28.662  12.084
48293W        W13520   6.674  35.462  10.984
48294W        W13521  20.535  13.381  11.111
48295W        W13522  11.342   6.645  11.070
48296W        W13523  18.105  23.255  14.833
48297W        W13524  43.974  42.468  10.426
48298W        W13525  14.888  12.385  12.868
48299W        W13526   6.856   2.356   1.241
48300W        W13527  22.647  11.771  10.727
48301W        W13528  35.142   2.767   3.858
48302W        W13529  34.995  30.367   3.176
48303W        W13530  26.917  21.505  10.505
48304W        W13531  11.389   2.678  13.463
48305W        W13532   5.086  28.117   4.503
48306W        W13533  34.579   2.890   1.389
48307W        W13534  13.815  16.235  11.559
48308W        W13535  41.869  18.362  13.495
48309W        W13536  34.427  17.602   2.241
48310W        W13537  36.829  37.360  11.877
48311W        W13538   4.964  19.967   0.323
48312W        W13539   6.221  24.634   0.669
48313W        W13540  34.374  24.776   2.591
48314W        W13541   0.268   8.717   2.011
48315W        W13542  33.607  40.076  14.203
48316W        W13543  17.505  32.148  10.604
48317W        W13544  42.487  28.369   1.644
48318W        W13545   6.291  21.200   3.581
48319W        W13546  24.484  35.159  10.858
48320W        W13547   3.255  40.929  10.543
48321W        W13548  14.736  42.966  11.709
48322W        W13549   9.790  43.654  11.684
48323W        W13550  21.438  29.016  13.522
48324W        W13551  19.742  41.716  10.840
48325W        W13552  41.804  16.366  11.665
48326W        W13553  36.898  17.242   3.161
48327W        W13554  27.681   0.702   1.633
48328W        W13555  38.812  40.094  13.856
48329W        W13556  38.368  32.794   4.092
48330W        W13557  40.552  21.732  10.872
48331W        W13558  17.127  41.185  11.230
48332W        W13559  23.318  18.560   4.260
48333W        W13560  39.478   0.598  14.433
48334W        W13561  42.722  35.388  13.087
48335W        W13562  33.603  12.578  10.822
48336W        W13563  12.642  35.570   1.454
48337W        W13564  22.432  19.590   4.616
48338W        W13565  23.174  43.940   9.958
48339W        W13566  14.768  19.324  13.900
48340W        W13567  11.940  18.308   1.224
48341W        W13568  14.937  10.322   1.021
48342W        W13569   6.673  17.691   0.936
48343W        W13570  26.763   7.321   9.987
48344W        W13571  17.711  12.714  13.762
48345W        W13572  43.382  44.660  14.871
48346W        W13573   4.194  31.126   2.237
48347W        W13574  40.453   7.388   4.624
48348W        W13575  17.363  22.090   2.062
48349W        W13576  24.670   0.850  13.058
48350W        W13577  16.621  12.696  11.397
48351W        W13578  23.642  32.646  14.299
48352W        W13579  36.651  29.114   2.229
48353W        W13580  33.601  40.023   2.107
48354W        W13581  36.925  33.224   2.378
48355W        W13582  29.595   4.171   4.588
48356W        W13583  28.528   6.820  10.507
48357W        W13584  18.150  15.639   0.824
48358W        W13585  38.168  15.281  12.004
48359W        W13586  33.716  18.465  12.452
48360W        W13587  38.451  27.591   0.671
48361W        W13588   1.828  19.005   0.736
48362W        W13589  19.798   6.808   1.262
48363W        W13590  40.450  39.848   1.038
48364W        W13591   3.081   3.395  10.991
48365W        W13592  19.172   3.699   0.660
48366W        W13593  12.754   1.237  10.781
48367W        W13594  16.761  10.702   1.651
48368W        W13595   1.238  33.942   1.937
48369W        W13596  32.555  42.897   1.504
48370W        W13597  30.184  31.168  12.388
48371W        W13598  16.084  27.991   3.988
48372W        W13599  12.097  43.293  12.795
48373W        W13600  16.964  36.996   1.389
48374W        W13601  40.421  41.341  14.900
48375W        W13602   7.876   3.721   2.603
48376W        W13603  18.805  15.722   1.229
48377W        W13604  23.228  11.710   0.929
48378W        W13605  32.364  10.863  11.577
48379W        W13606  35.794   4.222   0.155
48380W        W13607   6.422  44.062   4.726
48381W        W13608   2.676  40.009  12.226
48382W        W13609  20.683  41.565   2.754
48383W        W13610  33.880   6.752  11.488
48384W        W13611   9.552  15.598  12.557
48385W        W13612   5.875   9.848   3.195
48386W        W13613  35.580  12.530  14.370
48387W        W13614  15.053  20.827   3.590
48388W        W13615  22.814  11.710   0.609
48389W        W13616  11.301  43.202  12.547
48390W        W13617  43.908  12.192  14.245
48391W        W13618  12.649  19.507   3.367
48392W        W13619  15.267  25.440   3.007
48393W        W13620   3.155  13.680  11.956
48394W        W13621  32.563   4.744  11.946
48395W        W13622  15.813  30.123  11.691
48396W        W13623  19.835  34.462  11.610
48397W        W13624  32.904  22.066  11.556
48398W        W13625  39.526  24.030   1.133
48399W        W13626  44.041  29.653   3.198
48400W        W13627  21.296  22.391   1.621
48401W        W13628  20.642  34.090  12.518
48402W        W13629  37.741   4.981  11.597
48403W        W13630   0.888  33.656   4.975
48404W        W13631  15.873  23.990   4.207
48405W        W13632  17.145  17.439  11.183
48406W        W13633  31.229   1.056  13.241
48407W        W13634  23.255   9.822  13.875
48408W        W13635  27.561  18.150   3.241
48409W        W13636  17.390  39.321   3.275
48410W        W13637  11.807  10.675  12.031
48411W        W13638  20.014  28.900  12.368
48412W        W13639  41.258  27.124  12.362
48413W        W13640  12.581  37.890   3.656
48414W        W13641  14.288   1.902   2.849
48415W        W13642  25.254   0.563  12.184
48416W        W13643  43.266  35.671   2.859
48417W        W13644  29.790  19.125  14.363
48418W        W13645  11.789  41.456   2.375
48419W        W13646  38.703  13.185   3.419
48420W        W13647   7.147  38.838   0.425
48421W        W13648  18.460  17.994   4.116
48422W        W13649  10.156   6.197   5.046
48423W        W13650  43.991  23.314  14.391
48424W        W13651  18.863  39.852  13.441
48425W        W13652   9.633  28.569  12.080
48426W        W13653   5.335  11.046   0.890
48427W        W13654  26.684  16.313  14.978
48428W        W13655  24.037  31.534   3.179
48429W        W13656  33.416  11.796  13.537
48430W        W13657  29.461  42.339  11.981
48431W        W13658  14.551  12.778  13.021
48432W        W13659  27.616  10.595   0.219
48433W        W13660   8.342   5.776   2.477
48434W        W13661  40.023  20.196  14.289
48435W        W13662  30.535   8.852   2.753
48436W        W13663  17.622   1.785   1.843
48437W        W13664  33.453   0.863  13.926
48438W        W13665   6.906  28.225  12.418
48439W        W13666  25.550  36.190   3.774
48440W        W13667  39.917   9.911  11.652
48441W        W13668  41.409  18.128  14.296
48442W        W13669  42.749   0.749   3.316
48443W        W13670  28.245  27.087  14.464
48444W        W13671  27.148  16.394  14.764
48445W        W13672  18.411  43.034   4.116
48446W        W13673  38.729  41.363   1.432
48447W        W13674   1.746  12.754   0.299
48448W        W13675   4.198  15.582   4.315
48449W        W13676   6.794  32.253  14.631
48450W        W13677   7.700   3.942   0.340
48451W        W13678  20.105  26.074  11.432
48452W        W13679  21.307  40.895   0.445
48453W        W13680  14.412  40.890   0.320
48454W        W13681  35.804  30.988   1.673
48455W        W13682  35.572  35.996   3.109
48456W        W13683   3.545   1.428   5.463
48457W        W13684  31.720  43.488  13.874
48458W        W13685   9.719  33.928  13.800
48459W        W13686   5.255  10.442   1.675
48460W        W13687  29.766  37.532   3.613
48461W        W13688  38.994  35.579   2.621
48462W        W13689  42.542   9.215   2.783
48463W        W13690  38.093   4.430  12.859
48464W        W13691  14.750  27.080  14.051
48465W        W13692   3.117  39.351   1.366
48466W        W13693  14.248  36.337  11.209
48467W        W13694   8.590  42.573  10.514
48468W        W13695  35.285   6.071   0.709
48469W        W13696  25.010  19.119   4.369
48470W        W13697  14.160   0.635  10.869
48471W        W13698  30.034   0.013   0.339
48472W        W13699  18.271  40.344  13.821
48473W        W13700  37.306  29.025   1.549
48474W        W13701  26.706   4.023  10.775
48475W        W13702  37.889   6.277   2.323
48476W        W13703  29.028  37.366  12.098
48477W        W13704  12.092  40.714  10.136
48478W        W13705  11.246   6.911  13.160
48479W        W13706  11.704  26.688   1.169
48480W        W13707  16.093  36.913   2.935
48481W        W13708  32.361   2.310  13.415
48482W        W13709  27.986  31.530   2.762
48483W        W13710   1.036  33.338   1.340
48484W        W13711  18.162  30.638  10.642
48485W        W13712  27.941  37.819  11.556
48486W        W13713  32.312  17.243   0.875
48487W        W13714  29.422  36.253   0.996
48488W        W13715  40.730  43.885   2.872
48489W        W13716  42.458  22.166   3.678
48490W        W13717  10.922   6.398  13.357
48491W        W13718  21.692  19.149   0.259
48492W        W13719  32.938  37.648   0.430
48493W        W13720  14.156  36.161  12.504
48494W        W13721  13.312   8.620   1.740
48495W        W13722  40.399  10.531   2.370
48496W        W13723  39.029  23.068  12.287
48497W        W13724  41.802  20.543  13.528
48498W        W13725  42.236  22.714   2.260
48499W        W13726  36.371  42.010  14.823
48500W        W13727   6.895  40.909  14.860
48501W        W13728  26.784  14.890  13.630
48502W        W13729  14.323  11.936  13.901
48503W        W13730  27.643  36.392   0.706
48504W        W13731  32.046  28.189   0.393
48505W        W13732   9.919  29.837  12.473
48506W        W13733  44.747  20.340   3.228
48507W        W13734  29.196  10.989  11.904
48508W        W13735   2.625  35.635  10.737
48509W        W13736  34.704  36.191  13.905
48510W        W13737   6.721  30.213  12.682
48511W        W13738   8.268  44.694   3.873
48512W        W13739   2.519  36.549  10.595
48513W        W13740  23.306  20.279   1.559
48514W        W13741   9.814  44.732  14.373
48515W        W13742   7.053  37.371   4.540
48516W        W13743   0.571  34.888  13.629
48517W        W13744   7.709  23.002  10.700
48518W        W13745  12.652  26.608  13.948
48519W        W13746   8.065  44.252  12.598
48520W        W13747  15.571  31.562  14.356
48521W        W13748   4.273  22.036   3.129
48522W        W13749  18.290  25.278  14.085
48523W        W13750  35.976  27.054   1.056
48524W        W13751  37.769  20.717  12.848
48525W        W13752   4.969  13.381  14.979
48526W        W13753  23.604  33.040   1.221
48527W        W13754  18.472   3.450   1.806
48528W        W13755  39.527  12.317  11.540
48529W        W13756   7.340  27.227   3.713
48530W        W13757   6.536  30.702   1.250
48531W        W13758  39.167  27.212   1.332
48532W        W13759  21.531  38.683   4.185
48533W        W13760  11.121  14.224  13.448
48534W        W13761   9.192  32.372  11.415
48535W        W13762  36.526  12.616   4.658
48536W        W13763   3.807  27.924  13.022
48537W        W13764  30.961  20.605  13.953
48538W        W13765   2.967  16.342  14.142
48539W        W13766  11.122   7.754  12.942
48540W        W13767  40.280  30.808   4.136
48541W        W13768  22.702   2.043   2.210
48542W        W13769  38.955   3.209   0.438
48543W        W13770  28.973  42.291  14.995
48544W        W13771  44.793  44.375   0.296
48545W        W13772   6.040  25.575   3.236
48546W        W13773  12.782  44.478  11.517
48547W        W13774  37.440  20.156   0.877
48548W        W13775  23.490  43.468   1.758
48549W        W13776  32.128  16.840   4.468
48550W        W13777  38.483   7.963   0.696
48551W        W13778  35.212  31.347  11.974
48552W        W13779  40.860  28.695  13.525
48553W        W13780  10.055  34.484   4.085
48554W        W13781   2.147  17.812  14.411
48555W        W13782  41.496  16.402  12.096
48556W        W13783  32.446  18.663  11.207
48557W        W13784  26.234  39.771  13.981
48558W        W13785  44.456   7.949   4.035
48559W        W13786  26.738  44.996   2.747
48560W        W13787   7.743  41.999  13.304
48561W        W13788  19.587   0.551   1.047
48562W        W13789  18.397  41.300   2.857
48563W        W13790  15.835  35.859   3.649
48564W        W13791  35.346   3.313   0.298
48565W        W13792  39.520  33.055  13.540
48566W        W13793  40.192  21.197   1.279
48567W        W13794  38.928   4.257  12.436
48568W        W13795  22.381  43.092   5.042
48569W        W13796  35.918  16.724  13.365
48570W        W13797  21.966  25.966  11.208
48571W        W13798  18.979  31.069   3.345
48572W        W13799  22.670  20.047   0.259
48573W        W13800  34.518  12.723   0.533
48574W        W13801  42.465  36.206   1.948
48575W        W13802   4.476  18.643  13.731
48576W        W13803  18.631  34.868  12.890
48577W        W13804   9.450  11.908   1.368
48578W        W13805   3.364  44.802   5.470
48579W        W13806  35.153   8.972   5.084
48580W        W13807   7.800  20.709  11.424
48581W        W13808  25.712   4.840  14.307
48582W        W13809  16.651  41.060  14.777
48583W        W13810  24.732  43.412  10.466
48584W        W13811  19.952  39.737   1.756
48585W        W13812  41.920  12.625   1.893
48586W        W13813  39.942  12.706  10.881
48587W        W13814  41.551  11.218  13.373
48588W        W13815   6.646  16.357   0.454
48589W        W13816   4.384   6.583   0.658
48590W        W13817  13.924  21.205  12.368
48591W        W13818  28.383   7.792   4.138
48592W        W13819  17.989  10.431  11.572
48593W        W13820  35.909  32.680  10.967
48594W        W13821  16.112  29.074   2.802
48595W        W13822  22.437  20.627  12.201
48596W        W13823   0.259  20.528   1.156
48597W        W13824  13.544   2.635   1.334
48598W        W13825  22.221   4.206   0.291
48599W        W13826   2.503   3.015  13.152
48600W        W13827  40.812  27.557   3.263
48601W        W13828  27.048  36.968   3.333
48602W        W13829  37.718  15.253  14.857
48603W        W13830  12.879  18.929  12.598
48604W        W13831  22.912  41.052   4.422
48605W        W13832  36.687   2.020  13.452
48606W        W13833   6.078  20.472  13.196
48607W        W13834   4.157  19.581   1.686
48608W        W13835  20.131  29.380   0.486
48609W        W13836  19.570   8.181   3.877
48610W        W13837  35.033  42.030   5.081
48611W        W13838  21.946   5.878   0.799
48612W        W13839  16.587  33.573  13.793
48613W        W13840  11.700  26.569  13.842
48614W        W13841  39.848  26.558  12.440
48615W        W13842  42.047  24.568  11.143
48616W        W13843  10.130  29.548   1.628
48617W        W13844  37.894   7.548  14.361
48618W        W13845  36.300   6.494  14.178
48619W        W13846  19.335  27.416  11.622
48620W        W13847  12.560   0.497   0.923
48621W        W13848  24.083  37.798  12.022
48622W        W13849  19.721  37.117   2.409
48623W        W13850  23.959  22.015   1.738
48624W        W13851  17.827   8.630   1.644
48625W        W13852  44.438  28.563  11.961
48626W        W13853  32.750   8.970  14.026
48627W        W13854  11.593  36.423  10.462
48628W        W13855  34.881  27.201  14.945
48629W        W13856   7.741  14.973  11.107
48630W        W13857  35.483  34.241   4.347
48631W        W13858  40.056  33.351   3.499
48632W        W13859  25.503   1.364   3.018
48633W        W13860  20.226  25.584  10.685
48634W        W13861  15.608  38.481  11.640
48635W        W13862  30.871  15.902   1.752
48636W        W13863  20.705  40.894  14.779
48637W        W13864  43.754  43.550  13.045
48638W        W13865  18.260  34.627   4.616
48639W        W13866  38.828   0.220   4.313
48640W        W13867  14.648  29.610  12.595
48641W        W13868  19.196  26.863   2.708
48642W        W13869  28.075  26.103  11.413
48643W        W13870  33.123   3.383   4.989
48644W        W13871  24.485   8.892   3.853
48645W        W13872  42.789  44.462   9.908
48646W        W13873  20.024  32.435   3.583
48647W        W13874   9.585  21.641  14.271
48648W        W13875   6.688  36.639  13.356
48649W        W13876  37.547   3.222  13.828
48650W        W13877  44.377  37.885   3.202
48651W        W13878   1.801  36.341  11.061
48652W        W13879  32.384   0.454   1.780
48653W        W13880  37.314   9.429  11.485
48654W        W13881  34.959  14.067  14.794
48655W        W13882  19.166   0.494  13.344
48656W        W13883   4.467  19.605   1.264
48657W        W13884   5.528   9.350  11.568
48658W        W13885   4.457  40.653   0.895
48659W        W13886  29.725  40.461  11.925
48660W        W13887  35.953  27.140  10.842
48661W        W13888  28.470  27.515  14.287
48662W        W13889  29.356   0.428  12.939
48663W        W13890  29.096  22.646   0.439
48664W        W13891   4.221  20.352   0.828
48665W        W13892  28.580  22.843  11.213
48666W        W13893  33.163  15.839   3.931
48667W        W13894   9.348   0.888   1.776
48668W        W13895  41.418  24.165  11.692
48669W        W13896  21.224  44.750  13.018
48670W        W13897  36.909  38.880  14.849
48671W        W13898  37.466  28.545  12.247
48672W        W13899  12.029   5.671   0.161
48673W        W13900   6.451   0.763   1.811
48674W        W13901  21.492   9.414  11.975
48675W        W13902   2.057  42.104   1.443
48676W        W13903  12.105   8.167  12.888
48677W        W13904  43.012  34.401   3.108
48678W        W13905  26.768  15.392  12.891
48679W        W13906  26.492  39.039   4.045
48680W        W13907  28.377  25.170   4.477
48681W        W13908  11.918  13.180  13.615
48682W        W13909  12.358  13.496  12.088
48683W        W13910  36.066  12.701  10.772
48684W        W13911  24.512   8.385   2.146
48685W        W13912  37.548  27.188   0.219
48686W        W13913   7.370  19.414  11.829
48687W        W13914  21.094  34.471  12.091
48688W        W13915  22.540  19.052   4.643
48689W        W13916   9.466  10.015  11.026
48690W        W13917  38.922  26.673  14.523
48691W        W13918  33.364  28.457  11.692
48692W        W13919  27.064  14.889   1.349
48693W        W13920   7.210  43.297  12.839
48694W        W13921  38.991  43.253   3.342
48695W        W13922  44.092  19.390  14.523
48696W        W13923  33.125  22.998  12.494
48697W        W13924   2.397   8.231   2.268
48698W        W13925  12.626   4.011  13.617
48699W        W13926  26.547  44.477   4.171
48700W        W13927  32.321  16.366   1.726
48701W        W13928   6.237  10.691   3.232
48702W        W13929  31.996   1.008   3.307
48703W        W13930  18.106  28.212  10.975
48704W        W13931   1.803  29.430  13.161
48705W        W13932  27.690   7.384   0.020
48706W        W13933  28.303  34.100   3.420
48707W        W13934   6.339   2.531  10.720
48708W        W13935  13.783  20.197   3.319
48709W        W13936  33.688  41.011   2.292
48710W        W13937  13.115   9.124  13.897
48711W        W13938  12.330  11.268   0.127
48712W        W13939  10.285   5.867  13.581
48713W        W13940  36.156  38.484   0.817
48714W        W13941  15.385  24.596   0.784
48715W        W13942   4.897  39.808   0.958
48716W        W13943   0.871  39.835  12.322
48717W        W13944   7.804  36.156  14.037
48718W        W13945  44.842   5.734  14.418
48719W        W13946   2.183  20.573  11.376
48720W        W13947   9.331  15.672   1.961
48721W        W13948   0.819  26.287   4.328
48722W        W13949  16.315  39.148  13.091
48723W        W13950  39.552   4.707   1.827
48724W        W13951  24.199  42.265   0.865
48725W        W13952  42.812   6.849   1.397
48726W        W13953   3.332   7.288   3.141
48727W        W13954  39.266  14.540  14.344
48728W        W13955   6.037   6.538  11.145
48729W        W13956  26.351  15.666   2.315
48730W        W13957  20.992  23.019  13.525
48731W        W13958  14.820  32.057   1.855
48732W        W13959  10.773   5.842   0.252
48733W        W13960  43.361  21.697   3.709
48734W        W13961   0.041   9.252   2.406
48735W        W13962  12.572  36.411  11.621
48736W        W13963  17.816  44.351   1.899
48737W        W13964  34.979   7.864   0.883
48738W        W13965  28.470  10.614   4.624
48739W        W13966   3.439   7.206  13.492
48740W        W13967   3.836  10.298   2.818
48741W        W13968  38.867   7.343   3.444
48742W        W13969  35.656   7.954   3.324
48743W        W13970  22.589  27.164   2.307
48744W        W13971   0.039  39.474  14.877
48745W        W13972   9.341  40.978   2.679
48746W        W13973  23.050  41.684  13.032
48747W        W13974   0.355   5.926   4.626
48748W        W13975   2.448  21.468  14.496
48749W        W13976  28.922   7.685  14.941
48750W        W13977   1.866  28.743  11.486
48751W        W13978  13.237  10.723   1.720
48752W        W13979  31.278  29.952  12.535
48753W        W13980  32.330   2.419   2.300
48754W        W13981   5.193  34.348   5.131
48755W        W13982  24.872  34.125   2.825
48756W        W13983  10.870  25.725  11.035
48757W        W13984  27.215  38.100  14.757
48758W        W13985  43.106  15.636   3.049
48759W        W13986   0.041  25.682   2.801
48760W        W13987   8.635  36.973  14.671
48761W        W13988   0.854  36.861   2.101
48762W        W13989  28.607  17.723   4.654
48763W        W13990  21.728  35.766  13.184
48764W        W13991  23.514  35.541  10.683
48765W        W13992  29.112  31.083  12.537
48766W        W13993  37.462  34.794  12.422
48767W        W13994  14.850  43.527  14.413
48768W        W13995   4.278  24.400  11.721
48769W        W13996  44.559  34.588  13.875
48770W        W13997  21.555   4.877   0.291
48771W        W13998  14.900  41.948   2.843
48772W        W13999   2.286  42.798  14.027
48773W        W14000  36.393  25.201   3.335
48774W        W14001   2.955  37.419  12.975
48775W        W14002   4.786   4.857   2.403
48776W        W14003   3.180   3.330   0.426
48777W        W14004  23.631   1.235   1.344
48778W        W14005  40.076  32.496   3.710
48779W        W14006   6.148   9.153   0.895
48780W        W14007  24.241   2.119   2.218
48781W        W14008  28.964  22.544  11.050
48782W        W14009   5.178  35.316  12.982
48783W        W14010  44.523  27.183  13.112
48784W        W14011  20.333  39.346  10.202
48785W        W14012  16.304   3.153   2.241
48786W        W14013   5.358  17.701   1.883
48787W        W14014  43.235  18.004   0.041
48788W        W14015  43.398  23.754   5.248
48789W        W14016  26.938  15.053   3.063
48790W        W14017  19.623  28.280   4.566
48791W        W14018  33.833  19.563  12.922
48792W        W14019  40.053  10.169   4.360
48793W        W14020  44.955  37.835   4.356
48794W        W14021  37.803  38.431   3.368
48795W        W14022  27.895  27.191  12.377
48796W        W14023  30.877  41.285   3.201
48797W        W14024  13.906  18.204   2.147
48798W        W14025  30.533  19.894  12.059
48799W        W14026  14.344  27.091   3.880
48800W        W14027  24.975  22.807   4.391
48801W        W14028  21.987  17.196  14.813
48802W        W14029   9.028  35.016   4.578
48803W        W14030   6.607   4.332  11.568
48804W        W14031  14.598  28.575  12.685
48805W        W14032  22.768   9.708   1.945
48806W        W14033  33.500  33.947  13.846
48807W        W14034  12.800  16.132  11.637
48808W        W14035  43.863  20.500   0.341
48809W        W14036  27.438  40.259   4.065
48810W        W14037  23.482  27.217  14.558
48811W        W14038  38.959  25.229  13.005
48812W        W14039  11.131  29.247  11.385
48813W        W14040   3.921  36.510   3.689
48814W        W14041  28.074  38.247   1.215
48815W        W14042  21.179  22.688  12.888
48816W        W14043  13.286  39.333  14.756
48817W        W14044   6.414  16.177  12.133
48818W        W14045   9.671  38.905   4.724
48819W        W14046  31.889  23.194   3.184
48820W        W14047   0.407  17.724   4.218
48821W        W14048   1.988   5.799   2.138
48822W        W14049  34.964  23.715   1.195
48823W        W14050  32.011  30.020   2.780
48824W        W14051  16.183  23.236   0.096
48825W        W14052   2.151   2.890   0.376
48826W        W14053  34.148   9.516  12.455
48827W        W14054  29.806  11.074  11.613
48828W        W14055  40.522  10.335   1.885
48829W        W14056   1.282   0.040   3.662
48830W        W14057   3.185   0.255  14.803
48831W        W14058   5.843   4.262  13.156
48832W        W14059  41.600  29.512  12.746
48833W        W14060  11.641  39.842  13.875
48834W        W14061   1.661  29.472   4.565
48835W        W14062  34.842  35.841   1.725
48836W        W14063   1.339  25.561  11.198
48837W        W14064  41.529   3.062  14.804
48838W        W14065  27.954   4.317   2.687
48839W        W14066  16.329   8.751   0.473
48840W        W14067  37.926  15.205   4.913
48841W        W14068  10.644  36.954  11.593
48842W        W14069  38.152  40.474   3.700
48843W        W14070  43.189  26.630   2.735
48844W        W14071   4.782  16.350   1.974
48845W        W14072   2.058  24.679   2.404
48846W        W14073  39.536   0.920   0.332
48847W        W14074   2.536  23.798  13.458
48848W        W14075   9.392   4.771   4.604
48849W        W14076   0.361  26.542   1.913
48850W        W14077  37.910  12.679   0.652
48851W        W14078  34.881  29.545  12.082
48852W        W14079  25.627  37.449  10.654
48853W        W14080  21.210  39.533   9.972
48854W        W14081  41.068  25.467   1.462
48855W        W14082   1.420  16.579   3.344
48856W        W14083  44.939  43.739   0.710
48857W        W14084  29.299  36.565  14.189
48858W        W14085   8.122  33.873  11.503
48859W        W14086  40.076   4.840   3.656
48860W        W14087  40.448   0.677  13.851
48861W        W14088  34.008  14.313   3.124
48862W        W14089  42.568  38.553   2.342
48863W        W14090  14.845  27.825  13.404
48864W        W14091  41.885  21.125   0.420
48865W        W14092   4.405  23.165  10.991
48866W        W14093   5.150  43.809   2.135
48867W        W14094  16.193  10.855  11.524
48868W        W14095   6.988  42.985  13.203
48869W        W14096  14.271  23.694  11.621
48870W        W14097  26.179  32.973   1.344
48871W        W14098  11.217  14.213   3.113
48872W        W14099  32.027  10.299  14.360
48873W        W14100  42.400  17.814  11.089
48874W        W14101  30.243  22.207  13.724
48875W        W14102  12.500  11.754  14.920
48876W        W14103   6.782  44.512   0.080
48877W        W14104  13.620   2.782  11.258
48878W        W14105  16.739  14.565  10.704
48879W        W14106  38.991  16.635  10.609
48880W        W14107  37.426  16.016   2.218
48881W        W14108  39.899   3.909  11.299
48882W        W14109  23.226  13.321  13.863
48883W        W14110  37.346   0.461  11.608
48884W        W14111  19.020  41.366   1.202
48885W        W14112  37.402  35.973   4.380
48886W        W14113  33.070  21.119  11.156
48887W        W14114  41.913  33.817  14.099
48888W        W14115  21.519  10.969   2.341
48889W        W14116  36.493  25.620   0.928
48890W        W14117  40.992  17.621  12.442
48891W        W14118  20.716  38.100  13.029
48892W        W14119  17.146  29.134   0.212
48893W        W14120  10.395  10.186  13.108
48894W        W14121   0.250   7.876   0.780
48895W        W14122  28.619   6.952  14.441
48896W        W14123  43.872  36.902  14.913
48897W        W14124  17.535  25.520   2.499
48898W        W14125  15.292  24.529  11.878
48899W        W14126  21.758   6.842   4.536
48900W        W14127  24.669   0.831   0.452
48901W        W14128   8.148  25.881  12.863
48902W        W14129  40.830  20.139   2.380
48903W        W14130  36.879  13.619  11.171
48904W        W14131  25.266   2.314   1.058
48905W        W14132  23.958  40.324   4.387
48906W        W14133  37.277   6.689  14.430
48907W        W14134  17.215  43.744   2.611
48908W        W14135  21.569  41.459  11.596
48909W        W14136  22.428   4.919  11.250
48910W        W14137  10.586   2.411  14.890
48911W        W14138  12.821   0.838  13.195
48912W        W14139  31.960   8.403   1.440
48913W        W14140  35.111  41.429  11.734
48914W        W14141  35.484  26.398  14.891
48915W        W14142  26.667  28.136  14.375
48916W        W14143   3.381  18.468  13.421
48917W        W14144  21.667  13.890  13.020
48918W        W14145  21.117  33.469  14.228
48919W        W14146  18.672  19.856  10.886
48920W        W14147  28.587  14.108   2.813
48921W        W14148  13.838   2.340   3.355
48922W        W14149  26.224  15.774  11.637
48923W        W14150  42.041  42.913   4.124
48924W        W14151  32.893  34.599  13.928
48925W        W14152  31.170  12.220  13.388
48926W        W14153  37.852  31.598  13.330
48927W        W14154   9.430  21.515   2.656
48928W        W14155  30.964  25.420  11.056
48929W        W14156  35.417  36.065   0.422
48930W        W14157  17.952  26.669   5.350
48931W        W14158  44.385  13.310  14.184
48932W        W14159  20.215  12.408   3.638
48933W        W14160  38.025  31.098  10.719
48934W        W14161  19.281   4.852   3.720
48935W        W14162   4.589  26.827  10.218
48936W        W14163  32.082  40.566   0.864
48937W        W14164  36.392  36.334  14.095
48938W        W14165  17.138   2.385   2.612
48939W        W14166  10.669  14.733  13.959
48940W        W14167  23.805  38.563  12.588
48941W        W14168  20.191  37.894  11.046
48942W        W14169  30.631  42.295   1.602
48943W        W14170  33.102  41.303   0.346
48944W        W14171  12.894   2.193  13.998
48945W        W14172   0.704  30.748   5.033
48946W        W14173   5.901  42.005   3.679
48947W        W14174  41.383  22.277   4.505
48948W        W14175  41.708  27.693  10.777
48949W        W14176  12.652  23.583   4.504
48950W        W14177   6.773  23.110   4.671
48951W        W14178  37.787  34.943  14.396
48952W        W14179  13.808  14.907  11.197
48953W        W14180  24.397   1.986   0.948
48954W        W14181  31.049  18.728   1.449
48955W        W14182  16.497  26.611  11.655
48956W        W14183  43.475  14.551  12.404
48957W        W14184  17.405  18.907   2.436
48958W        W14185  14.983  22.213  12.627
48959W        W14186  29.415  38.422  11.002
48960W        W14187  21.299  19.417  11.752
48961W        W14188  21.476  27.419  13.185
48962W        W14189  38.892  31.216   2.375
48963W        W14190  22.195  22.126   1.079
48964W        W14191  38.275  39.509  13.217
48965W        W14192   0.333   4.495  12.361
48966W        W14193  31.578   5.348  13.532
48967W        W14194  23.142  12.854  14.731
48968W        W14195  16.695  16.713   3.943
48969W        W14196  22.500  25.222   3.175
48970W        W14197   0.264  11.350   0.728
48971W        W14198  20.715  19.663   2.655
48972W        W14199  34.295  20.497   1.156
48973W        W14200   9.742  32.745   2.822
48974W        W14201  30.606   7.382  12.547
48975W        W14202   1.212  19.060  13.934
48976W        W14203  21.974  44.329   4.494
48977W        W14204  24.449   3.324  11.628
48978W        W14205  19.327  34.542   3.231
48979W        W14206  19.167  12.394   1.503
48980W        W14207  10.303  25.578  10.193
48981W        W14208  24.059   4.571   0.161
48982W        W14209  13.280   6.720   0.692
48983W        W14210  33.445  32.449  12.037
48984W        W14211   7.874  31.012  14.616
48985W        W14212  13.278  16.285   0.451
48986W        W14213   0.821  41.810  14.437
48987W        W14214  24.774   3.916   3.260
48988W        W14215  15.272  32.141   3.333
48989W        W14216  29.692  22.598   5.073
48990W        W14217  14.494  41.264  10.249
48991W        W14218  36.351  13.632  13.022
48992W        W14219  13.823  25.070  13.645
48993W        W14220  16.047  43.423  13.279
48994W        W14221  33.268  32.000  12.187
48995W        W14222  36.636  16.025  14.897
48996W        W14223  14.613  15.435   0.813
48997W        W14224  34.136  18.978   1.387
48998W        W14225  13.817  33.694   2.269
48999W        W14226  14.404  34.614   3.225
49000W        W14227  10.187   7.305   3.201
49001W        W14228   1.242  33.136  10.771
49002W        W14229  10.127   4.827   1.150
49003W        W14230   5.415   3.422  14.654
49004W        W14231  32.674   6.014  12.327
49005W        W14232   6.588  25.475   4.351
49006W        W14233  41.043  27.130  14.768
49007W        W14234  34.039  25.980   0.954
49008W        W14235   7.702  17.019  13.380
49009W        W14236  41.665  17.696   3.409
49010W        W14237   6.787  24.741  11.260
49011W        W14238  34.629  34.463  12.173
49012W        W14239  14.394  35.372  12.514
49013W        W14240  44.761   8.861   2.224
49014W        W14241  31.926  43.336  11.725
49015W        W14242  43.786  26.849   9.679
49016W        W14243   5.352   4.137  13.314
49017W        W14244  11.691  12.020   1.186
49018W        W14245   8.388  42.761  13.522
49019W        W14246   6.771  38.519   0.919
49020W        W14247  32.146  33.015  14.857
49021W        W14248  40.290  19.718   2.746
49022W        W14249   1.936   8.634  14.776
49023W        W14250   7.424   7.639   4.597
49024W        W14251  39.795  42.761  14.435
49025W        W14252  11.156   3.254  12.456
49026W        W14253  23.192  11.385   1.372
49027W        W14254  33.382   4.898   1.394
49028W        W14255  13.307  14.222  10.683
49029W        W14256  18.605  43.481   0.968
49030W        W14257  43.906   3.666   0.352
49031W        W14258   6.051  35.677   2.763
49032W        W14259  21.776  34.582  11.231
49033W        W14260   8.492  14.504   4.514
49034W        W14261  25.446  34.460  11.566
49035W        W14262   6.643   9.453   4.881
49036W        W14263  40.399  30.706  11.936
49037W        W14264   5.850  37.363   2.456
49038W        W14265  16.112  16.696  10.542
49039W        W14266   4.460  22.424  11.485
49040W        W14267   3.468  25.918   4.443
49041W        W14268  28.614  32.464  11.849
49042W        W14269   4.230   1.403   3.607
49043W        W14270  12.766  10.638  12.078
49044W        W14271   5.320  40.349   4.944
49045W        W14272  43.102  27.690   1.432
49046W        W14273  38.558   8.339  12.953
49047W        W14274  40.234  43.834   0.291
49048W        W14275  16.680  31.837   1.780
49049W        W14276  14.735  39.517   3.372
49050W        W14277   1.468  25.505  10.708
49051W        W14278  18.134   2.653  12.100
49052W        W14279  13.800   0.772   1.704
49053W        W14280  19.678  11.400  13.979
49054W        W14281  11.779  14.303  10.606
49055W        W14282  15.726   0.665  12.430
49056W        W14283  11.864   2.928  12.701
49057W        W14284   7.471   1.555   2.715
49058W        W14285   7.817  25.639   0.094
49059W        W14286  14.310   6.431  12.875
49060W        W14287   2.966  35.498   2.151
49061W        W14288  43.401  16.591   0.329
49062W        W14289  38.896   1.752   3.657
49063W        W14290   8.409   5.535  10.753
49064W        W14291  16.180  42.018   0.261
49065W        W14292   8.640  28.752   2.193
49066W        W14293  17.599   4.781  12.538
49067W        W14294  18.015  22.638   0.262
49068W        W14295  40.862  12.632   2.618
49069W        W14296  33.087  31.174  11.676
49070W        W14297  17.314  30.613   1.395
49071W        W14298   6.891  18.623  14.991
49072W        W14299  12.578  32.560   0.725
49073W        W14300  37.614  21.516   1.821
49074W        W14301  25.542  38.844  13.049
49075W        W14302  21.315  15.730   1.223
49076W        W14303  27.539  16.097   3.161
49077W        W14304  20.665  23.233  10.737
49078W        W14305  34.451  33.589  10.916
49079W        W14306  17.855  11.914  12.583
49080W        W14307   1.087   4.260   4.954
49081W        W14308   1.333  21.066   2.590
49082W        W14309   8.717  34.927   1.711
49083W        W14310  21.964  40.277  12.173
49084W        W14311   8.727  32.493   3.194
49085W        W14312  38.298  26.195   0.353
49086W        W14313  39.255   1.489   3.064
49087W        W14314   6.935  25.607  12.069
49088W        W14315  28.392  28.434  14.832
49089W        W14316  18.620  15.690  12.508
49090W        W14317  19.673  34.287  10.736
49091W        W14318  30.641  30.588  11.166
49092W        W14319  28.093  19.522   2.105
49093W        W14320   4.397  12.424  11.562
49094W        W14321  34.503  23.633  12.207
49095W        W14322  20.750  23.510  13.444
49096W        W14323  29.003  11.386   0.797
49097W        W14324  38.434  29.885   3.609
49098W        W14325   0.728  14.391   4.360
49099W        W14326  25.976  40.946  13.992
49100W        W14327  19.608   3.848  13.637
49101W        W14328   3.483  24.152  13.848
49102W        W14329   0.484  24.589  12.926
49103W        W14330  42.385   9.701   4.414
49104W        W14331   8.228  31.171   2.334
49105W        W14332  44.859  16.049   2.298
49106W        W14333   1.065  29.959  11.842
49107W        W14334  17.596  22.908  11.700
49108W        W14335  30.497   2.411  14.285
49109W        W14336   7.343  36.963   4.377
49110W        W14337   8.336  29.058   4.553
49111W        W14338  42.855  43.932  14.787
49112W        W14339  26.154   8.663   2.104
49113W        W14340  43.949  13.316  13.926
49114W        W14341  28.172  37.572  14.901
49115W        W14342  19.148   5.853   2.779
49116W        W14343  30.132  43.413  12.450
49117W        W14344  12.659  12.569   3.288
49118W        W14345   3.388  13.319  14.466
49119W        W14346  31.795   8.090  12.687
49120W        W14347  29.166  29.109  12.079
49121W        W14348  41.515  25.660   2.838
49122W        W14349   1.244  26.554   1.787
49123W        W14350  42.033   4.271   1.764
49124W        W14351  19.077   2.641  13.478
49125W        W14352   7.921  44.912   1.783
49126W        W14353   5.370  37.092   4.114
49127W        W14354  11.675  30.014   2.402
49128W        W14355  26.033  25.071  14.429
49129W        W14356   4.787  36.666   1.398
49130W        W14357  28.846  12.323  13.898
49131W        W14358  25.358  14.389   0.791
49132W        W14359  32.677  40.870  14.667
49133W        W14360  19.567  16.132  13.841
49134W        W14361   7.624  32.816  12.448
49135W        W14362  18.344  19.854   4.617
49136W        W14363  16.164  36.270  11.202
49137W        W14364  11.373  42.357   2.457
49138W        W14365  29.450   1.012  14.001
49139W        W14366  33.376   3.271  14.880
49140W        W14367  38.753  17.987  12.156
49141W        W14368  33.111  28.972  12.916
49142W        W14369   3.517  10.908  13.846
49143W        W14370  35.848  42.363   0.329
49144W        W14371  41.537  22.595  12.827
49145W        W14372   7.373  17.264  12.535
49146W        W14373  29.845  24.027   3.289
49147W        W14374  38.769   1.891  14.281
49148W        W14375  27.753  25.638  13.400
49149W        W14376  21.672  24.887   3.368
49150W        W14377   5.683  34.411   1.657
49151W        W14378   8.635  42.983  10.180
49152W        W14379  11.380  38.853   3.721
49153W        W14380   8.010  25.135   5.070
49154W        W14381  35.102  39.278  10.170
49155W        W14382  44.352  23.973   1.245
49156W        W14383  26.177  36.047   4.562
49157W        W14384   4.313   9.166   4.902
49158W        W14385   1.745  12.513  11.923
49159W        W14386  23.805  23.281  12.859
49160W        W14387  31.523  30.050  12.979
49161W        W14388  35.025   0.175  12.156
49162W        W14389   2.507   8.348  13.447
49163W        W14390  16.273  32.215  12.361
49164W        W14391  27.711  41.355  14.864
49165W        W14392  24.422  30.957  13.613
49166W        W14393  13.390   8.705   9.833
49167W        W14394  43.784  17.755  13.471
49168W        W14395  17.401  41.224  12.607
49169W        W14396  21.543  37.578  13.454
49170W        W14397  13.710  38.899  12.332
49171W        W14398   4.527  27.583   1.292
49172W        W14399  41.497  37.923  13.302
49173W        W14400  41.403   0.038   4.162
49174W        W14401  11.588  12.682  14.279
49175W        W14402  16.478  32.154  14.180
49176W        W14403  40.065  32.863  13.539
49177W        W14404  43.868  32.616  14.360
49178W        W14405  16.562   5.455   4.657
49179W        W14406  15.051  13.071   2.073
49180W        W14407   2.265  35.264  10.673
49181W        W14408  16.885  12.540  13.995
49182W        W14409   3.862  22.929  11.118
49183W        W14410  23.136   5.198  11.518
49184W        W14411   7.962  12.593   4.186
49185W        W14412  44.683  12.171  11.919
49186W        W14413  38.940  31.730  10.802
49187W        W14414  16.570   1.901   3.640
49188W        W14415  37.268   0.649   0.251
49189W        W14416  32.423   5.197   2.670
49190W        W14417  29.227  31.999  10.057
49191W        W14418   5.418  39.075   0.812
49192W        W14419  12.836   4.821   2.448
49193W        W14420  21.408  40.235   3.822
49194W        W14421   5.662   0.305   1.766
49195W        W14422  39.578  43.024  13.093
49196W        W14423  32.776  40.094   2.561
49197W        W14424  14.670   3.469  13.364
49198W        W14425  24.832   7.742  14.986
49199W        W14426   1.938  37.948  12.033
49200W        W14427  34.588  41.050  14.581
49201W        W14428  30.068   8.747   1.840
49202W        W14429  36.568  19.076  13.473
49203W        W14430  21.091   7.819  12.934
49204W        W14431  20.519  20.094   1.201
49205W        W14432  24.954  15.826  11.119
49206W        W14433  38.005  19.495   0.967
49207W        W14434  38.107  38.580  13.505
49208W        W14435  40.549  43.836  11.115
49209W        W14436  10.096  38.544  12.132
49210W        W14437  23.478  39.108   4.120
49211W        W14438  34.375  22.162  10.523
49212W        W14439  11.793  16.486   1.011
49213W        W14440   6.145  20.810   4.721
49214W        W14441   7.475  35.145   0.836
49215W        W14442  28.022  40.892   1.521
49216W        W14443  30.654  12.271  13.487
49217W        W14444  39.771  33.131   0.783
49218W        W14445  14.714  16.273   3.139
49219W        W14446  42.038  19.161  10.652
49220W        W14447  17.119   1.483   2.977
49221W        W14448  15.938  28.462   4.201
49222W        W14449  37.014  17.047   0.319
49223W        W14450   0.463  18.522  12.930
49224W        W14451   3.923  13.661  11.581
49225W        W14452  21.143  29.456   3.021
49226W        W14453   2.643  19.325  14.889
49227W        W14454  25.929  16.197  10.915
49228W        W14455  44.193   4.400   2.125
49229W        W14456  30.401  12.058  14.892
49230W        W14457  26.007  36.768   0.443
49231W        W14458  32.647  34.578   1.760
49232W        W14459  27.982   3.333  14.035
49233W        W14460  30.523  36.838   3.041
49234W        W14461  26.099   8.248   3.980
49235W        W14462  21.223   4.356   0.783
49236W        W14463  25.706  37.575   9.760
49237W        W14464  19.736  30.706   1.904
49238W        W14465  38.492   4.488  12.541
49239W        W14466  39.489  42.316   3.276
49240W        W14467  10.760   4.311   4.624
49241W        W14468  28.748  16.359   5.023
49242W        W14469  18.928  35.588  12.995
49243W        W14470  35.111  17.811   1.732
49244W        W14471   2.429  44.315  12.089
49245W        W14472  30.581  31.874  12.691
49246W        W14473   1.411  40.099   4.085
49247W        W14474   4.422  32.112  12.093
49248W        W14475  34.954  20.454  13.794
49249W        W14476  21.504  23.702   0.153
49250W        W14477   9.175  11.127  12.024
49251W        W14478  43.217  24.925  12.463
49252W        W14479  43.271  24.171   3.244
49253W        W14480  24.073  12.577   1.689
49254W        W14481  22.446   9.433   3.829
49255W        W14482  41.836   3.828  13.387
49256W        W14483  19.449  21.450  13.617
49257W        W14484  24.472  19.268   0.806
49258W        W14485  34.007  13.728  12.444
49259W        W14486  37.174   5.547  11.189
49260W        W14487  44.164  15.196   1.701
49261W        W14488  32.101  26.986  12.631
49262W        W14489  39.818   5.387  11.745
49263W        W14490  37.847  26.110   3.696
49264W        W14491  40.821   4.399   1.730
49265W        W14492   2.328  37.274   3.272
49266W        W14493  22.695  31.427   3.913
49267W        W14494   4.363  31.940   2.918
49268W        W14495  28.133  36.077   2.286
49269W        W14496  29.142  12.647   1.767
49270W        W14497  30.046  22.442   3.118
49271W        W14498  20.790  41.460  11.102
49272W        W14499  17.823  30.478   4.755
49273W        W14500  30.573  41.249   3.624
49274W        W14501  34.033   1.312   4.528
49275W        W14502   6.877   5.694  12.026
49276W        W14503   4.832   2.659  12.152
49277W        W14504  44.354  19.446   2.339
49278W        W14505  16.541  28.914  11.134
49279W        W14506   6.095  38.376  12.067
49280W        W14507  20.597  22.911   0.003
49281W        W14508   1.913  30.541   0.993
49282W        W14509  33.113  40.010   1.898
49283W        W14510  16.149  27.616  13.402
49284W        W14511  37.931  15.127  10.922
49285W        W14512   7.845   4.429   3.266
49286W        W14513   4.718   2.759   4.655
49287W        W14514  16.062  35.429  11.528
49288W        W14515   2.950  33.917  14.278
49289W        W14516   3.542  27.755   3.095
49290W        W14517  12.431  26.460  12.105
49291W        W14518  33.772   8.687  14.229
49292W        W14519   2.924  20.763  14.042
49293W        W14520   7.068  29.415  11.189
49294W        W14521  15.252  38.377  14.482
49295W        W14522  10.128  41.272  13.267
49296W        W14523  14.326   2.793  12.413
49297W        W14524   2.522  12.013  12.910
49298W        W14525  29.361  25.148   1.656
49299W        W14526   2.402  34.740  14.532
49300W        W14527   4.183   0.294   3.876
49301W        W14528   4.114   5.751   0.230
49302W        W14529   5.630  21.053  11.486
49303W        W14530  24.116  40.096   2.700
49304W        W14531  33.899   2.885  14.277
49305W        W14532  10.256  28.642   2.792
49306W        W14533  15.224  38.836  13.869
49307W        W14534  36.624  42.310  11.684
49308W        W14535  25.531  33.312  14.912
49309W        W14536  43.865  13.759   4.365
49310W        W14537  11.615  28.532   0.291
49311W        W14538  12.368  44.071  11.539
49312W        W14539  12.170  34.972  11.903
49313W        W14540  33.938  34.351  14.889
49314W        W14541  28.154   5.930   3.213
49315W        W14542  17.576  43.838  11.665
49316W        W14543   4.900  35.534  14.311
49317W        W14544  40.961   6.442  11.224
49318W        W14545   0.678  29.984  10.910
49319W        W14546  23.058  18.837   1.805
49320W        W14547  37.417  32.614   2.665
49321W        W14548  20.327  31.523   1.658
49322W        W14549   4.408   9.830  12.873
49323W        W14550  25.961  15.393   3.184
49324W        W14551   4.738   4.892  13.836
49325W        W14552   7.385   0.896   4.363
49326W        W14553  35.937  17.792   1.746
49327W        W14554   7.998  39.535  10.914
49328W        W14555  34.980  22.993   0.560
49329W        W14556  29.379  16.955   1.480
49330W        W14557  29.551  35.975  14.995
49331W        W14558  31.933  18.589  11.223
49332W        W14559  18.719  16.627  12.034
49333W        W14560  35.110   3.977   0.391
49334W        W14561  44.431   4.941  13.249
49335W        W14562  11.748  15.336  14.775
49336W        W14563   2.139  10.036   4.206
49337W        W14564  28.590   7.314   2.312
49338W        W14565  11.882  39.848  13.420
49339W        W14566   0.473  40.007   4.201
49340W        W14567  42.450  23.965  14.364
49341W        W14568  35.511   7.949  13.038
49342W        W14569  43.694  15.068  12.401
49343W        W14570  43.692  18.664   1.033
49344W        W14571  36.571   0.785   1.283
49345W        W14572  41.000  38.611  10.637
49346W        W14573   7.356  30.022  14.492
49347W        W14574  41.934  31.103  12.562
49348W        W14575  31.322   3.883  14.942
49349W        W14576   8.429  31.883  13.850
49350W        W14577  27.621  24.611   0.130
49351W        W14578  35.042  33.651   1.479
49352W        W14579  29.223  38.930   1.733
49353W        W14580  28.772  35.403  11.832
49354W        W14581  20.585   9.636   2.340
49355W        W14582  38.468  29.990  11.377
49356W        W14583  14.869  31.388  12.151
49357W        W14584   2.971  37.373  14.431
49358W        W14585  35.449  11.755  14.901
49359W        W14586   4.805  30.237   1.751
49360W        W14587  39.567  21.111   3.324
49361W        W14588   5.404   7.566  12.970
49362W        W14589  34.865  44.795  13.938
49363W        W14590  26.664  25.716  14.906
49364W        W14591  38.314  19.593  14.524
49365W        W14592  35.539  43.747  14.942
49366W        W14593  42.577  18.633   0.310
49367W        W14594  34.329  41.463  13.057
49368W        W14595   0.937   3.695  14.394
49369W        W14596  33.936  31.664   2.741
49370W        W14597  43.707  21.150   0.951
49371W        W14598  42.572  23.721  13.040
49372W        W14599  40.895  13.721   1.427
49373W        W14600  42.724  39.603  13.545
49374W        W14601  11.346  44.998   1.877
49375W        W14602  40.281  32.730   2.147
49376W        W14603  18.293   3.869   0.854
49377W        W14604  44.501  29.493   3.306
49378W        W14605  43.580  22.865   4.403
49379W        W14606  36.067   6.295   1.848
49380W        W14607  13.305  43.139   5.172
49381W        W14608  17.266  40.470  13.867
49382W        W14609  22.938  38.826   0.711
49383W        W14610  43.395  33.881  14.513
49384W        W14611  29.051   4.000   2.383
49385W        W14612  33.283  12.655   0.280
49386W        W14613  11.698   8.353   4.695
49387W        W14614   5.808  20.735  12.369
49388W        W14615   4.762  25.166  11.813
49389W        W14616  42.123  23.173  12.175
49390W        W14617   0.597  36.468   1.019
49391W        W14618  33.138  24.655  11.193
49392W        W14619  29.175  12.916   9.899
49393W        W14620  37.585  14.835  11.163
49394W        W14621  29.469  16.680   3.703
49395W        W14622  11.433  24.006   1.769
49396W        W14623  23.233   9.315   2.616
49397W        W14624  34.052  20.105  14.118
49398W        W14625  25.177  42.597   4.534
49399W        W14626  27.059  34.460  14.855
49400W        W14627   1.445  44.727   1.321
49401W        W14628  20.763  14.705  13.290
49402W        W14629  17.319  21.502   0.252
49403W        W14630  39.610  34.443   2.674
49404W        W14631  11.776   9.391   0.855
49405W        W14632   7.152   0.288   4.425
49406W        W14633  13.370  29.612  11.342
49407W        W14634  10.191  33.663   0.815
49408W        W14635   3.282  18.199   3.811
49409W        W14636  24.626   5.924  13.594
49410W        W14637  37.588  33.961  12.990
49411W        W14638  42.197   7.713  12.602
49412W        W14639   1.819  27.925  14.062
49413W        W14640  37.315  26.232  13.988
49414W        W14641  10.480  44.367   4.997
49415W        W14642   5.828  32.970   1.212
49416W        W14643  21.968  38.594  12.038
49417W        W14644  33.042   4.676   4.532
49418W        W14645  44.588  13.585  12.073
49419W        W14646  12.643  43.924   4.607
49420W        W14647  40.706  42.599   0.771
49421W        W14648  18.296  41.628  12.008
49422W        W14649  14.186  20.912   1.050
49423W        W14650  20.408   1.931   1.949
49424W        W14651  40.423  24.714  12.483
49425W        W14652   7.481  25.692   1.716
49426W        W14653   1.856   5.953  11.255
49427W        W14654   0.920  20.212  14.524
49428W        W14655   6.679  26.533  12.462
49429W        W14656   4.461  15.817   0.541
49430W        W14657  21.519   5.719   3.096
49431W        W14658  19.137   0.186  13.782
49432W        W14659  20.659  21.614   4.751
49433W        W14660   1.712  39.862   2.752
49434W        W14661  26.167  29.696  12.338
49435W        W14662  38.065  28.614  13.788
49436W        W14663  29.612  39.841   3.057
49437W        W14664  15.634   4.859   4.417
49438W        W14665   2.198  40.908  14.795
49439W        W14666  40.573  44.172  10.297
49440W        W14667  44.996  11.600   4.049
49441W        W14668   3.611   2.147  11.062
49442W        W14669  28.101  16.691   0.596
49443W        W14670  15.573  28.126  14.193
49444W        W14671  36.125  22.234  11.951
49445W        W14672  34.384   1.202  13.942
49446W        W14673  28.880  12.960  10.312
49447W        W14674  15.219  16.203  12.907
49448W        W14675  22.455  25.187  14.974
49449W        W14676  38.777   5.833   0.075
49450W        W14677  44.112  10.857  11.574
49451W        W14678   9.779  18.082  13.490
49452W        W14679  12.349  40.015   4.921
49453W        W14680  32.627  10.750  10.574
49454W        W14681  29.646  32.800  13.161
49455W        W14682  15.281   2.793   1.962
49456W        W14683  35.816  19.261  14.811
49457W        W14684  18.259  11.115   2.830
49458W        W14685  14.561  36.682   0.927
49459W        W14686  27.611  23.485  14.894
49460W        W14687  32.255  22.120   1.883
49461W        W14688   1.179  34.433  14.038
49462W        W14689  19.629  20.327  12.883
49463W        W14690  26.475  14.955   2.843
49464W        W14691  42.895  15.264   4.284
49465W        W14692  27.392  23.648   3.214
49466W        W14693   7.122  19.148   3.737
49467W        W14694  21.324  42.476   1.683
49468W        W14695  27.827  39.894   4.149
49469W        W14696   0.408   7.448   3.805
49470W        W14697  35.775  35.343  10.675
49471W        W14698   8.167  19.206   3.088
49472W        W14699  41.948   9.677   4.689
49473W        W14700  36.417  26.627  13.945
49474W        W14701  25.110  17.881  14.311
49475W        W14702  24.665  24.606  12.584
49476W        W14703  12.402   5.236   3.684
49477W        W14704  20.836  16.305  13.374
49478W        W14705  37.215  20.690  10.961
49479W        W14706  44.855  16.445   5.095
49480W        W14707   3.254  28.845   0.003
49481W        W14708  42.378  10.583  12.949
49482W        W14709  15.911  22.122   2.340
49483W        W14710   7.880  11.345   4.448
49484W        W14711  31.689  15.393   3.691
49485W        W14712  25.770   1.408  12.201
49486W        W14713  24.325  33.532  13.368
49487W        W14714   2.678  43.682   3.334
49488W        W14715  19.989  43.828  14.818
49489W        W14716   2.916   0.111   5.432
49490W        W14717  40.931  36.431  11.999
49491W        W14718  32.693  10.898   1.461
49492W        W14719  30.596  34.123  10.268
49493W        W14720  43.926  28.402  12.009
49494W        W14721  13.011  28.300  12.081
49495W        W14722  33.301  27.978   4.933
49496W        W14723  16.587  26.140  12.571
49497W        W14724  10.566   3.387  12.987
49498W        W14725  26.813  40.346   5.135
49499W        W14726   0.449  25.713   1.154
49500W        W14727  29.937  11.881   1.985
49501W        W14728   3.222   1.961   4.690
49502W        W14729  20.107  37.167   3.629
49503W        W14730  34.947  13.733   3.830
49504W        W14731  32.316  17.058  14.059
49505W        W14732  44.352  18.337   0.307
49506W        W14733   2.300  20.916   3.631
49507W        W14734  41.888  17.855   1.681
49508W        W14735  15.858  20.429   0.435
49509W        W14736  12.934   4.727  12.594
49510W        W14737  38.598  17.674   3.277
49511W        W14738  36.434  39.951  10.341
49512W        W14739  16.843  18.128  10.566
49513W        W14740  19.538   9.883  12.900
49514W        W14741   2.710  20.019   1.779
49515W        W14742  25.150  14.586  12.111
49516W        W14743  21.706   1.501   1.694
49517W        W14744   5.076   3.123  12.164
49518W        W14745  28.877  43.323   3.662
49519W        W14746  34.424  19.274   4.988
49520W        W14747  20.022  31.318  12.061
49521W        W14748   1.531  21.540   2.570
49522W        W14749   4.089   4.954  14.334
49523W        W14750  44.208  17.165   5.009
49524W        W14751  28.143   0.745  13.450
49525W        W14752  36.988  44.818  14.814
49526W        W14753  27.374  40.038  13.225
49527W        W14754  25.446  23.313   1.804
49528W        W14755  42.841  27.808   2.273
49529W        W14756  28.547  23.636  14.819
49530W        W14757  21.607  41.073  11.228
49531W        W14758  44.636  25.380  10.817
49532W        W14759  13.858  18.051   2.632
49533W        W14760  35.522  24.012   2.822
49534W        W14761  43.933  18.451   5.347
49535W        W14762   7.354  11.808  14.775
49536W        W14763  19.716   2.523  13.957
49537W        W14764  31.109  19.293   4.268
49538W        W14765  12.750  15.071  11.188
49539W        W14766  18.084  32.884  11.016
49540W        W14767  18.616   8.819  13.848
49541W        W14768  11.294   4.424   3.571
49542W        W14769   1.859  18.673  14.750
49543W        W14770   0.283  14.629   4.306
49544W        W14771  25.722  34.183   5.049
49545W        W14772   5.891  23.774   1.378
49546W        W14773  10.844  13.358   2.035
49547W        W14774  43.675  11.327  14.167
49548W        W14775  33.904  17.764   0.049
49549W        W14776  44.447   5.731  10.761
49550W        W14777  16.081  18.393  14.751
49551W        W14778  19.657  29.394  14.873
49552W        W14779  19.854  14.031  14.376
49553W        W14780  28.538  41.114   2.226
49554W        W14781   0.847  17.206   0.389
49555W        W14782  21.279   3.662  10.645
49556W        W14783   7.444   1.863  10.648
49557W        W14784  35.074   9.599  12.119
49558W        W14785  28.540  31.404  14.981
49559W        W14786   1.666  15.310  10.732
49560W        W14787  25.032  12.329   3.826
49561W        W14788  31.433   4.579   1.305
49562W        W14789  15.172  43.962   3.772
49563W        W14790  28.068  27.936   1.889
49564W        W14791  11.526  23.131   1.902
49565W        W14792  44.419  37.059  13.949
49566W        W14793   4.053  27.543   5.035
49567W        W14794  12.718  35.170   3.727
49568W        W14795  42.565  44.904  13.909
49569W        W14796   9.159  33.636  13.828
49570W        W14797   1.601  25.707   0.313
49571W        W14798   0.462  23.373  10.219
49572W        W14799  29.238  19.262   4.607
49573W        W14800  36.401  21.267   1.969
49574W        W14801  39.942  19.045   1.181
49575W        W14802  31.504  41.121   2.744
49576W        W14803   0.051  10.199  14.497
49577W        W14804  18.362  38.953  14.042
49578W        W14805  17.760  41.855   0.802
49579W        W14806  21.089  43.849   4.491
49580W        W14807   1.896  14.932   2.126
49581W        W14808  18.256  20.210   2.822
49582W        W14809  23.671  31.639  14.365
49583W        W14810  37.680  28.853   3.382
49584W        W14811  34.114  21.249   3.228
49585W        W14812   4.906  19.316  13.535
49586W        W14813  40.541   0.437   3.859
49587W        W14814  25.428   2.448  14.771
49588W        W14815  27.926  19.105  12.756
49589W        W14816  44.553  37.258   3.148
49590W        W14817  40.350  39.554  13.048
49591W        W14818  29.898  16.330   1.940
49592W        W14819  10.712   5.313   2.395
49593W        W14820  20.987   4.513   4.336
49594W        W14821  44.126  21.601   4.953
49595W        W14822   9.712  33.179  13.083
49596W        W14823  44.924  42.314   0.285
49597W        W14824  10.831  15.067   0.396
49598W        W14825   7.330  32.878  14.090
49599W        W14826   6.563  44.931  13.275
49600W        W14827  38.902  29.898   1.870
49601W        W14828  31.824  31.122   5.578
49602W        W14829   0.593  16.622  10.816
49603W        W14830  10.110  20.753   5.079
49604W        W14831  43.816  32.678  12.469
49605W        W14832  16.236   0.748   4.528
49606W        W14833   3.652  39.091   4.149
49607W        W14834   2.406  31.076  12.813
49608W        W14835   2.217  41.025   4.571
49609W        W14836  16.835  42.483   2.219
49610W        W14837  19.245  35.642  11.889
49611W        W14838   1.115  41.223  11.610
49612W        W14839  30.659  26.441   1.693
49613W        W14840  21.485  39.495   3.089
49614W        W14841  37.420  21.587  10.867
49615W        W14842  33.067   3.932  14.017
49616W        W14843  16.118  35.011   3.725
49617W        W14844  24.816  18.455  12.849
49618W        W14845  39.333  18.473  11.587
49619W        W14846  10.774  43.848  11.626
49620W        W14847   6.830   8.240   3.655
49621W        W14848  31.947  18.664  13.850
49622W        W14849   8.899  24.725  12.007
49623W        W14850  37.394   7.214   0.281
49624W        W14851  13.872   0.368   0.428
49625W        W14852   8.704  30.859   1.727
49626W        W14853  14.291  32.031   1.752
49627W        W14854   9.794   4.948   4.084
49628W        W14855  13.659   3.918  13.278
49629W        W14856  25.533  11.555   2.920
49630W        W14857  10.769  35.104  14.326
49631W        W14858  44.518  23.684  10.484
49632W        W14859  20.511  10.857  13.074
49633W        W14860  44.721  24.672  14.538
49634W        W14861  19.278   7.178  11.701
49635W        W14862   1.969  44.822   2.285
49636W        W14863   5.568  28.957  10.709
49637W        W14864  15.882  27.721  10.312
49638W        W14865   4.147  19.709   2.564
49639W        W14866  12.769   3.202  14.008
49640W        W14867   2.291  32.956   4.407
49641W        W14868  36.947  26.594  12.368
49642W        W14869  31.537  31.369   3.691
49643W        W14870  29.460  29.701  13.725
49644W        W14871  12.705  35.393   0.506
49645W        W14872   0.735  31.386   3.770
49646W        W14873   1.923  10.036   2.103
49647W        W14874  26.109  10.595   3.224
49648W        W14875  34.404   8.727   4.141
49649W        W14876  19.600  18.167  10.642
49650W        W14877   1.767  10.924  11.501
49651W        W14878  11.373  22.688   1.690
49652W        W14879  28.193   8.669   2.757
49653W        W14880  33.726  19.335  13.445
49654W        W14881  22.280  21.651  13.910
49655W        W14882  21.474  38.125  11.202
49656W        W14883   0.879   0.374   0.297
49657W        W14884   9.763  29.866   4.577
49658W        W14885   1.524  12.875  12.957
49659W        W14886  15.214  22.475  11.455
49660W        W14887  11.725  32.597   3.544
49661W        W14888  10.244  29.035   0.141
49662W        W14889  28.584  17.207  10.206
49663W        W14890  24.725  27.186  10.744
49664W        W14891  14.107   1.227   3.923
49665W        W14892   3.409  11.245   2.750
49666W        W14893  43.923  28.048  11.245
49667W        W14894  20.612  29.003   0.334
49668W        W14895  25.354  15.229  13.904
49669W        W14896   2.362  43.726   1.672
49670W        W14897  37.817   0.745  12.302
49671W        W14898  42.803  15.525  11.986
49672W        W14899  20.128  11.685  10.259
49673W        W14900  31.490   7.337   4.759
49674W        W14901  23.171  27.260   4.464
49675W        W14902  39.413  13.803  11.591
49676W        W14903  25.603  25.669  12.503
49677W        W14904  28.561  16.568  11.487
49678W        W14905   4.899  38.855   2.135
49679W        W14906  29.909  11.297   2.366
49680W        W14907  31.413  21.539   0.864
49681W        W14908   3.074  13.385  12.435
49682W        W14909  44.208  11.130  11.096
49683W        W14910  35.702  37.387  13.281
49684W        W14911  26.926  38.352   4.525
49685W        W14912  21.325  39.352  13.742
49686W        W14913  16.723  26.613   4.609
49687W        W14914  33.511  22.215   4.543
49688W        W14915  23.091  32.136  11.665
49689W        W14916  16.932   8.648  11.641
49690W        W14917   0.065  35.523   0.808
49691W        W14918  33.912  11.114   2.782
49692W        W14919  19.788  13.766  10.618
49693W        W14920   8.708  10.654   4.715
49694W        W14921  21.625   9.322   1.929
49695W        W14922   3.214   8.018   1.326
49696W        W14923  40.016  25.524   1.268
49697W        W14924  27.861  23.019   3.812
49698W        W14925   9.197  39.528  14.321
49699W        W14926  20.549  38.396   3.246
49700W        W14927   9.542  36.754  12.147
49701W        W14928  15.116   8.473   2.300
49702W        W14929  42.511  35.130  13.550
49703W        W14930  20.035  28.420   1.819
49704W        W14931   4.526  33.900  14.514
49705W        W14932  44.677  18.753   4.000
49706W        W14933  27.449  42.097   1.354
49707W        W14934  26.016  31.053   4.926
49708W        W14935   2.839  34.834  11.129
49709W        W14936  22.104   1.196   0.336
49710W        W14937   3.943  32.971   1.641
49711W        W14938  18.664  30.200  11.920
49712W        W14939   2.231  12.849   3.664
49713W        W14940  12.338  26.005  12.323
49714W        W14941  23.588  19.577  13.533
49715W        W14942  31.238  32.089  11.135
49716W        W14943  25.637  13.402   3.145
49717W        W14944   9.990  25.630   4.382
49718W        W14945  36.298  31.210  12.301
49719W        W14946  13.257  31.998   1.034
49720W        W14947   5.939  40.338  12.796
49721W        W14948  39.378  34.857   3.282
49722W        W14949  23.512  16.965   1.766
49723W        W14950   6.675  37.877  14.012
49724W        W14951  33.087  36.475  14.804
49725W        W14952  15.368   5.167   1.870
49726W        W14953  17.481  18.675  14.598
49727W        W14954  14.880  29.778   3.296
49728W        W14955  31.978  39.577   5.255
49729W        W14956   6.053  29.060  14.305
49730W        W14957  41.877  37.937  12.903
49731W        W14958  19.161  26.869  12.335
49732W        W14959   7.060  20.291   3.169
49733W        W14960  21.977  25.226   4.805
49734W        W14961  19.000  37.046   4.495
49735W        W14962  34.961  33.216   4.778
49736W        W14963   4.786  39.188  14.774
49737W        W14964  39.697   9.708  11.198
49738W        W14965  21.345  23.590  11.452
49739W        W14966  22.767   8.387   2.871
49740W        W14967  44.478  15.626  11.403
49741W        W14968  43.416  44.825  10.985
49742W        W14969  42.889  40.840   2.340
49743W        W14970  40.199  44.528   3.306
49744W        W14971  35.839  41.246   0.936
49745W        W14972  12.076  43.436   2.658
49746W        W14973  27.290  42.034   3.224
49747W        W14974  22.018   1.967   0.865
49748W        W14975  18.724  39.609  11.054
49749W        W14976  42.467  25.470   1.435
49750W        W14977  23.169  12.147   2.218
49751W        W14978  37.200  30.092   3.641
49752W        W14979   1.774  16.688  14.961
49753W        W14980  41.959   0.284  11.360
49754W        W14981  27.860  12.208  14.944
49755W        W14982  19.648  38.443   3.035
49756W        W14983  13.271  40.612  14.877
49757W        W14984  39.946  23.245   4.364
49758W        W14985   8.886   8.317   3.325
49759W        W14986  16.638  31.579  13.499
49760W        W14987  11.412  44.091   0.661
49761W        W14988  40.102  23.822   3.161
49762W        W14989   1.960  23.750  12.630
49763W        W14990  24.545  34.847   0.281
49764W        W14991  12.277  23.230   3.119
49765W        W14992  24.401   7.850  13.325
49766W        W14993  27.526  36.000   1.032
49767W        W14994  16.249  39.960   2.357
49768W        W14995  37.098  12.743  10.775
49769W        W14996  27.077  29.060   9.837
49770W        W14997  41.778  32.573   0.740
49771W        W14998  21.229   7.175  11.086
49772W        W14999  31.869  44.380   3.762
49773W        W15000  17.556  25.851   0.364
49774W        W15001  23.032  42.074   9.763
49775W        W15002  14.038   3.393  10.719
49776W        W15003   7.448  14.759   3.121
49777W        W15004  35.572  14.296   2.194
49778W        W15005  21.955  30.398   4.295
49779W        W15006  17.783  26.682  13.104
49780W        W15007   7.300  12.861  10.836
49781W        W15008   0.052  20.869   5.439
49782W        W15009  32.949  22.938  13.327
49783W        W15010  26.534  37.054   1.909
49784W        W15011  29.557  32.784   4.305
49785W        W15012  10.864   6.225  10.582
49786W        W15013  35.508  32.626  14.506
49787W        W15014  16.768   2.848  10.835
49788W        W15015  29.054  36.811  14.562
49789W        W15016  24.694  41.487   4.557
49790W        W15017  31.660  11.077  14.281
49791W        W15018  12.760  40.635  13.679
49792W        W15019  37.279   2.286  13.337
49793W        W15020  24.409  20.459   3.832
49794W        W15021   5.844  36.878   4.205
49795W        W15022   2.856  34.307  11.085
49796W        W15023  35.160   0.497   1.319
49797W        W15024  42.860   1.240  12.007
49798W        W15025  16.252  16.016  14.944
49799W        W15026  35.744  18.934   2.900
49800W        W15027  44.473  17.611  10.706
49801W        W15028  23.050  23.422  12.536
49802W        W15029  32.313  17.139  10.191
49803W        W15030  11.148  18.001  12.514
49804W        W15031   1.625  24.616  12.920
49805W        W15032  16.545   6.713  13.446
49806W        W15033  44.825  13.300  14.442
49807W        W15034  12.587  26.743  11.123
49808W        W15035  13.305  16.611  12.018
49809W        W15036  13.055  20.198  10.530
49810W        W15037  11.108  19.291   0.436
49811W        W15038  34.898   0.836   2.738
49812W        W15039  13.897   8.682   3.257
49813W        W15040  31.891  15.560   0.539
49814W        W15041  14.312  28.205  14.300
49815W        W15042  35.900  30.369   3.284
49816W        W15043  22.457   9.855  10.795
49817W        W15044  41.552  28.554   4.300
49818W        W15045  11.351  25.170  13.888
49819W        W15046  22.005  38.421   4.054
49820W        W15047  28.110   2.718   3.749
49821W        W15048  15.790  37.124   4.096
49822W        W15049   1.309   2.432  10.766
49823W        W15050   4.070  26.625   3.948
49824W        W15051  10.341  14.102  12.957
49825W        W15052  30.199   4.771  13.943
49826W        W15053  38.265  37.237  10.651
49827W        W15054  19.809  10.033   5.046
49828W        W15055  18.641  19.443  14.703
49829W        W15056  19.824  36.826  12.538
49830W        W15057   8.689  43.349  14.371
49831W        W15058  44.948  35.404  13.645
49832W        W15059  23.923  16.618   1.758
49833W        W15060   8.814   7.621  10.769
49834W        W15061  44.176  31.354  13.459
49835W        W15062  42.711  15.779   5.081
49836W        W15063  26.722   0.469  10.276
49837W        W15064  23.504  36.874   0.509
49838W        W15065  18.671   7.789   0.374
49839W        W15066  30.037  23.718   1.193
49840W        W15067  15.581   8.103   4.540
49841W        W15068  25.007  17.744   0.329
49842W        W15069  12.098  37.083   1.872
49843W        W15070   2.013   3.134  14.815
49844W        W15071  23.474   7.426   2.786
49845W        W15072  21.041  10.450  12.230
49846W        W15073  24.126  22.673   4.472
49847W        W15074  37.895  15.195   4.397
49848W        W15075   0.219  40.038  10.637
49849W        W15076   3.524  28.108   2.707
49850W        W15077  43.567  41.432   4.166
49851W        W15078  39.123  29.040  13.795
49852W        W15079  13.454  27.065   1.975
49853W        W15080  24.707  38.292   2.692
49854W        W15081  24.483   7.801   0.402
49855W        W15082   9.571   8.473   0.335
49856W        W15083  40.855  44.451  12.207
49857W        W15084  40.518   5.812  13.949
49858W        W15085  19.371  20.136   2.845
49859W        W15086   0.892  20.174  12.451
49860W        W15087   3.598  33.017  12.122
49861W        W15088  32.044  13.266   2.843
49862W        W15089  21.111   2.463   0.791
49863W        W15090  30.744  40.458  12.006
49864W        W15091  26.529  26.401   3.513
49865W        W15092  34.670  29.579   0.882
49866W        W15093  38.141  44.291   3.393
49867W        W15094  15.730   9.588   3.331
49868W        W15095  30.460  36.217  12.114
49869W        W15096   3.875   8.504   0.711
49870W        W15097  17.471  22.680   2.336
49871W        W15098  32.472  22.591  10.794
49872W        W15099  40.439  11.856   3.246
49873W        W15100  40.348   6.897   0.424
49874W        W15101  30.003  17.315   1.933
49875W        W15102  34.310   6.743   0.861
49876W        W15103  40.428  39.124  11.949
49877W        W15104   0.762  29.479   2.736
49878W        W15105  19.547  43.589   2.387
49879W        W15106  33.471  19.214   2.850
49880W        W15107  30.110   1.057   1.658
49881W        W15108  41.336   6.869  10.150
49882W        W15109  15.356  18.200  10.803
49883W        W15110  12.028  33.378   1.823
49884W        W15111  44.378   1.223  13.469
49885W        W15112  39.111  31.963   0.982
49886W        W15113  25.127  15.503  14.774
49887W        W15114  36.125   2.324   3.770
49888W        W15115  33.210  33.576   2.133
49889W        W15116  20.978  27.513  13.030
49890W        W15117  13.926  31.488   0.864
49891W        W15118   9.989   7.171   4.321
49892W        W15119  17.125  27.500   2.287
49893W        W15120  39.988  29.441   2.010
49894W        W15121  17.823   0.480  10.789
49895W        W15122  24.233  30.218  12.070
49896W        W15123  25.608  11.629  13.836
49897W        W15124  40.731   4.804  12.037
49898W        W15125  42.873   8.094   4.663
49899W        W15126   3.725  27.991   0.314
49900W        W15127  24.852  41.410   5.073
49901W        W15128  31.622  29.294   3.990
49902W        W15129   8.399  26.955  11.312
49903W        W15130   0.420  11.946  14.453
49904W        W15131  30.559   3.792   0.377
49905W        W15132  24.722  15.351   1.768
49906W        W15133  13.605  22.170  11.025
49907W        W15134  41.379  14.880  14.910
49908W        W15135  13.346   4.687  13.542
49909W        W15136  39.761  25.321   1.777
49910W        W15137  42.059  21.740  10.754
49911W        W15138  34.977  40.513  12.213
49912W        W15139  28.181  13.287   3.259
49913W        W15140   1.553  31.595   1.758
49914W        W15141  36.539  31.089  13.532
49915W        W15142  42.825  36.937   2.913
49916W        W15143   1.277  14.392  12.851
49917W        W15144  30.935  14.378  10.715
49918W        W15145  10.794   8.219  11.585
49919W        W15146  19.085   3.506   2.594
49920W        W15147   9.833  19.390   2.689
49921W        W15148  20.221  33.107   2.268
49922W        W15149  22.602   9.996   2.946
49923W        W15150  20.575  11.177  12.381
49924W        W15151   9.721  23.301  13.703
49925W        W15152  41.838  36.470  14.017
49926W        W15153   7.245   5.949   0.982
49927W        W15154  44.181   3.884   2.290
49928W        W15155   0.868  17.078  12.025
49929W        W15156  22.214  31.201  12.936
49930W        W15157   5.555  39.939   1.395
49931W        W15158  24.955  38.223  12.532
49932W        W15159  24.425  30.988   2.286
49933W        W15160  27.505  41.781   1.775
49934W        W15161  25.524  26.470   4.487
49935W        W15162  25.672  30.433  10.845
49936W        W15163   0.391  27.467   1.273
49937W        W15164  14.933  18.357   2.937
49938W        W15165  28.606   2.527   0.894
49939W        W15166   8.167  16.816  13.417
49940W        W15167  23.988  32.184  11.150
49941W        W15168  19.205   4.743   4.729
49942W        W15169  38.074   5.819  13.045
49943W        W15170  10.287  24.860   4.122
49944W        W15171   7.285   4.851  10.794
49945W        W15172  44.019  15.484   3.288
49946W        W15173  28.702  23.256   1.799
49947W        W15174  21.624  30.193   3.123
49948W        W15175   8.373  42.600  14.358
49949W        W15176   9.089  44.392  14.899
49950W        W15177   4.757  38.730  13.278
49951W        W15178  30.982  11.605   5.023
49952W        W15179   2.276   5.639  14.278
49953W        W15180  35.688  23.604   0.036
49954W        W15181  23.742   6.713   1.183
49955W        W15182  13.582  18.309  12.440
49956W        W15183   6.116  38.599  13.522
49957W        W15184  30.610   9.444  11.081
49958W        W15185  44.388  10.254  12.594
49959W        W15186  14.698   6.118   4.946
49960W        W15187  32.079  42.864  10.833
49961W        W15188  29.941  15.387   4.152
49962W        W15189  39.637   8.511  13.020
49963W        W15190  28.609  10.170  13.058
49964W        W15191  13.669  25.722  14.746
49965W        W15192  27.313  10.433  13.474
49966W        W15193  23.771  12.064  11.888
49967W        W15194   1.801  37.216   1.556
49968W        W15195  30.095   0.503   2.320
49969W        W15196  24.996  20.897   2.276
49970W        W15197  31.703  24.517  11.658
49971W        W15198   5.203  35.861   0.884
49972W        W15199  32.571   1.548   1.529
49973W        W15200  43.219  15.964  13.691
49974W        W15201  12.098  17.342   3.103
49975W        W15202  37.140  32.610   0.512
49976W        W15203  13.820  16.209  14.724
49977W        W15204  18.777  32.460  11.607
49978W        W15205  16.693   9.254   1.893
49979W        W15206  27.959  40.115   2.792
49980W        W15207   1.085   9.099  14.847
49981W        W15208  12.788  33.633  14.656
49982W        W15209  19.474   5.659   0.463
49983W        W15210  28.937  24.653  10.501
49984W        W15211  30.043  42.850   2.695
49985W        W15212  14.056  11.763  14.326
49986W        W15213   1.812  11.409   0.948
49987W        W15214  30.082  20.158   2.938
49988W        W15215  17.826   8.326   3.276
49989W        W15216  38.286   2.820  11.162
49990W        W15217  11.125  25.702  13.581
49991W        W15218   8.353   1.128   3.641
49992W        W15219   4.933  21.050  11.951
49993W        W15220   8.193  28.251  12.035
49994W        W15221  40.931  19.131  14.280
49995W        W15222   6.450   8.444   2.289
49996W        W15223  35.808  15.785   1.792
49997W        W15224  24.502  11.177   2.276
49998W        W15225  34.395   7.079  13.263
49999W        W15226  21.644  12.459  12.046
50000W        W15227  26.120  19.604   2.908
50001W        W15228   9.230   2.928  11.867
50002W        W15229  27.757  42.339  11.166
50003W        W15230  10.309  21.955  12.114
50004W        W15231  11.400   9.778   0.313
50005W        W15232  31.722   4.473  13.409
50006W        W15233  30.185  36.558   1.321
50007W        W15234  42.438   8.217  11.475
50008W        W15235  40.552  44.471  14.359
50009W        W15236  34.374  40.215  13.427
50010W        W15237  17.206  38.878   3.643
50011W        W15238  16.526  35.542   0.487
50012W        W15239  20.322  34.001   1.892
50013W        W15240   8.883   4.389   4.331
50014W        W15241  12.188  25.114   3.917
50015W        W15242   3.591  41.008  11.443
50016W        W15243  37.862  14.570  13.528
50017W        W15244  25.116  35.226  13.903
50018W        W15245  13.774  27.063   3.904
50019W        W15246  38.407  29.613  10.592
50020W        W15247  26.070   8.261  14.560
50021W        W15248  29.506  29.884  12.293
50022W        W15249  36.471  38.664   3.300
50023W        W15250   0.641   0.340   2.358
50024W        W15251  19.615  40.511   2.220
50025W        W15252  17.728   9.250  12.740
50026W        W15253  10.024  17.709  14.208
50027W        W15254  20.317   5.286  12.935
50028W        W15255   8.609  13.803   9.934
50029W        W15256   5.828   1.878  10.960
50030W        W15257  29.461  33.476   0.931
50031W        W15258  22.567  14.372   1.769
50032W        W15259  35.407   9.845   0.904
50033W        W15260   7.345  37.069  12.385
50034W        W15261  13.769  10.693   4.459
50035W        W15262  22.635  25.079   2.701
50036W        W15263  13.133  35.837   2.723
50037W        W15264  39.504  36.941  14.287
50038W        W15265   4.787  41.977  12.942
50039W        W15266  24.536  38.327   4.521
50040W        W15267  33.032   4.323  11.579
50041W        W15268  33.120  14.577   1.295
50042W        W15269  29.504   9.835  12.952
50043W        W15270  23.009   0.165  13.021
50044W        W15271  41.119   8.388   0.582
50045W        W15272  34.921   6.823   2.984
50046W        W15273   0.198  30.660   1.364
50047W        W15274   0.231  32.888   2.948
50048W        W15275   2.771  21.678  12.970
50049W        W15276  17.805  13.439   2.416
50050W        W15277  27.015   9.760  10.768
50051W        W15278  20.667  19.736   4.989
50052W        W15279  16.260   8.633   2.469
50053W        W15280  22.306  31.657   2.758
50054W        W15281  36.343  28.034   9.959
50055W        W15282  25.505  39.823   4.805
50056W        W15283  42.520  12.401   3.672
50057W        W15284  17.352  22.821   4.725
50058W        W15285  35.777  24.178   3.243
50059W        W15286   0.411  10.063   2.966
50060W        W15287  41.232   2.894   4.675
50061W        W15288  37.587  32.312   3.177
50062W        W15289  15.130  36.371   1.472
50063W        W15290  39.922  44.360  11.878
50064W        W15291  34.522   4.317   3.342
50065W        W15292  43.731  27.508  11.452
50066W        W15293  33.436  27.591   4.604
50067W        W15294  39.096   8.291   3.623
50068W        W15295  16.020  40.382   4.285
50069W        W15296  23.156  24.756  10.890
50070W        W15297  41.888  22.512   1.903
50071W        W15298  10.752  44.270   1.054
50072W        W15299  41.149  30.253  11.467
50073W        W15300  16.306   6.385  11.569
50074W        W15301  44.384   3.888   0.337
50075W        W15302   3.640  40.975  10.885
50076W        W15303  29.604   8.638   3.347
50077W        W15304   2.170  38.711   4.657
50078W        W15305  16.098   5.783   2.306
50079W        W15306   0.079  21.490  13.088
50080W        W15307   6.504  35.676   0.993
50081W        W15308  28.945  33.972  12.039
50082W        W15309  40.347  24.968  12.030
50083W        W15310   2.788  11.618   2.440
50084W        W15311   3.777  13.496   3.234
50085W        W15312   0.746  39.392   2.244
50086W        W15313  39.949   8.791  12.492
50087W        W15314  33.904  31.316   2.296
50088W        W15315  26.913  19.610  11.103
50089W        W15316  17.079  43.794  11.892
50090W        W15317  38.806  33.421   1.830
50091W        W15318  44.371   8.439  14.357
50092W        W15319   9.819  21.068   1.963
50093W        W15320   6.969  20.224   4.543
50094W        W15321  28.166  32.836   2.864
50095W        W15322  13.800  42.466   1.306
50096W        W15323  20.651  40.912   4.876
50097W        W15324  19.634   0.022  14.488
50098W        W15325  18.828  12.210  13.747
50099W        W15326   3.933  38.148   3.485
50100W        W15327   6.539  35.420   4.069
50101W        W15328  41.630   5.867  12.089
50102W        W15329  12.086  19.657   4.558
50103W        W15330  27.259  22.527   4.325
50104W        W15331  19.134  39.977  12.206
50105W        W15332  24.464   7.293   3.627
50106W        W15333  33.177   7.875  11.071
50107W        W15334  23.023  35.013   3.825
50108W        W15335   8.772  38.602   1.388
50109W        W15336  12.735  11.022   0.352
50110W        W15337  38.138  24.626   2.442
50111W        W15338  10.134   1.375  10.744
50112W        W15339  17.657  27.159  14.896
50113W        W15340  43.465  42.900   0.619
50114W        W15341  13.051  31.335  10.454
50115W        W15342  16.373  17.668   3.324
50116W        W15343  34.168   8.267   2.244
50117W        W15344  23.623  21.058  13.400
50118W        W15345  16.033  17.558  13.398
50119W        W15346  15.835  30.159  12.198
50120W        W15347   0.784  20.025   0.857
50121W        W15348  41.280  15.727  12.526
50122W        W15349  21.212  38.427  14.728
50123W        W15350  28.991  33.026  14.772
50124W        W15351   1.415   8.599  14.223
50125W        W15352   4.269   8.324  14.057
50126W        W15353  25.460  12.561   0.469
50127W        W15354   6.976  40.455   3.831
50128W        W15355  21.223  27.058   0.080
50129W        W15356   6.667  16.454   4.477
50130W        W15357  28.069  17.258   3.240
50131W        W15358  44.178  37.620  11.955
50132W        W15359  27.945  38.820   1.172
50133W        W15360  30.592  16.102   1.287
50134W        W15361  43.428  37.122  10.790
50135W        W15362  33.673   5.727   2.545
50136W        W15363  18.320  18.092   3.288
50137W        W15364  24.594  12.166   4.065
50138W        W15365  24.811  42.489  12.922
50139W        W15366   1.186  13.438   4.268
50140W        W15367  38.180  25.489   3.060
50141W        W15368  19.794   3.894   0.487
50142W        W15369  23.505  28.145   3.631
50143W        W15370  28.663  33.630  13.339
50144W        W15371  15.126  14.102   2.316
50145W        W15372  36.958  40.372   2.009
50146W        W15373   4.707   0.304  11.604
50147W        W15374  21.192  32.667  11.606
50148W        W15375   8.168  33.102  11.348
50149W        W15376  39.763  40.774  13.358
50150W        W15377  38.115  30.384  13.909
50151W        W15378   4.275  16.751  13.425
50152W        W15379  15.854  14.685  12.426
50153W        W15380   2.822  24.779   3.108
50154W        W15381  32.500   5.288   4.186
50155W        W15382   0.729   3.866   1.318
50156W        W15383  27.481  12.769   4.992
50157W        W15384  22.719  19.256  14.037
50158W        W15385  17.069  24.568  11.593
50159W        W15386  19.056   6.177   3.250
50160W        W15387  27.903  29.604   3.792
50161W        W15388   9.809  19.428  10.463
50162W        W15389  26.937   1.058  10.740
50163W        W15390  25.863  28.018   1.260
50164W        W15391  17.292   8.189   4.092
50165W        W15392  20.664  10.348  11.055
50166W        W15393  32.852  21.651  12.544
50167W        W15394  20.059  25.427  13.978
50168W        W15395   5.043  31.321   3.449
50169W        W15396  30.953  21.418   3.400
50170W        W15397   9.736  33.923   5.011
50171W        W15398  34.243  40.712  13.382
50172W        W15399   0.977   3.281  14.717
50173W        W15400   3.829   1.543   4.181
50174W        W15401  44.796   8.885   3.939
50175W        W15402  42.096  14.592   3.590
50176W        W15403   0.531  12.830  11.572
50177W        W15404  39.191  23.009   1.282
50178W        W15405  27.978  29.600   1.783
50179W        W15406  41.300  42.713  14.516
50180W        W15407   6.649   7.135   4.140
50181W        W15408   7.447  35.650   4.142
50182W        W15409  10.376  43.854  14.932
50183W        W15410  16.147  30.341  12.970
50184W        W15411  15.611  29.670  14.341
50185W        W15412   2.716  42.292   0.479
50186W        W15413  21.117  39.053  10.491
50187W        W15414  23.641  19.667  11.674
50188W        W15415  35.642  43.236  14.966
50189W        W15416  38.809  43.614   2.764
50190W        W15417  14.136   1.269  14.991
50191W        W15418  28.201  27.628  12.460
50192W        W15419  15.371   9.911   3.083
50193W        W15420  40.553  27.670  12.406
50194W        W15421  24.038  34.850  10.777
50195W        W15422  43.914  18.043  10.376
50196W        W15423  34.239  18.644   3.812
50197W        W15424   8.605  16.644   4.961
50198W        W15425  35.619  31.394  14.487
50199W        W15426  35.009  33.059  12.554
50200W        W15427   6.355  31.384  12.591
50201W        W15428  31.932   8.689   2.732
50202W        W15429   6.232  33.979  14.200
50203W        W15430   6.171  19.154   0.574
50204W        W15431   8.899   8.845  13.453
50205W        W15432  14.201  10.337   4.494
50206W        W15433  13.075  33.978   1.742
50207W        W15434  21.525  22.967  13.631
50208W        W15435   0.865  21.140   1.276
50209W        W15436  22.078  42.036  10.785
50210W        W15437  25.201  14.392   2.215
50211W        W15438  15.680  14.038  10.952
50212W        W15439  41.991  34.673  11.257
50213W        W15440  21.079  26.475   2.794
50214W        W15441  19.491  14.734   1.471
50215W        W15442  39.016  28.348   2.268
50216W        W15443   6.682   2.820   1.375
50217W        W15444  33.629  37.332   0.402
50218W        W15445  42.433   3.737  12.676
50219W        W15446  13.178  28.193  13.403
50220W        W15447  11.263  31.042   4.991
50221W        W15448   2.288  30.918   3.167
50222W        W15449   5.221  19.008   2.337
50223W        W15450  35.413  18.227   3.931
50224W        W15451  12.686  20.809  12.848
50225W        W15452   6.270  27.184  14.463
50226W        W15453  13.910  36.190   3.841
50227W        W15454  34.859  29.006  11.201
50228W        W15455  39.586   1.453   1.739
50229W        W15456   3.840  26.238   2.693
50230W        W15457   9.850  16.322  13.904
50231W        W15458  12.305  30.807   0.994
50232W        W15459   8.298  38.976   4.240
50233W        W15460   5.409   8.848   3.790
50234W        W15461  15.337  26.746   4.793
50235W        W15462  40.182  29.957   4.731
50236W        W15463  23.560  25.985   4.547
50237W        W15464  30.005  16.792  13.687
50238W        W15465  35.055   6.721   2.514
50239W        W15466   0.090   2.460   0.941
50240W        W15467   3.385  38.943  12.211
50241W        W15468   0.818  44.910  11.716
50242W        W15469  11.264  16.000  14.886
50243W        W15470   8.926  17.276   2.755
50244W        W15471  32.898  23.175   4.032
50245W        W15472  36.071  27.743   2.243
50246W        W15473   8.803  30.680  14.432
50247W        W15474  37.604  22.789  11.140
50248W        W15475  19.636  11.818   4.653
50249W        W15476  42.170   2.491   4.570
50250W        W15477  22.610  24.702  14.865
50251W        W15478  30.966  44.087   4.690
50252W        W15479   0.453  28.547   3.063
50253W        W15480  19.889  42.344  14.329
50254W        W15481  35.651  35.886   1.321
50255W        W15482  33.788   3.441  11.665
50256W        W15483  26.029  19.435   1.783
50257W        W15484  27.661  18.005   0.457
50258W        W15485  21.605  14.149   1.824
50259W        W15486  33.870  42.691   4.784
50260W        W15487  11.431  37.607  12.068
50261W        W15488   3.700  43.267   2.291
50262W        W15489   2.206  32.043   4.238
50263W        W15490  42.658  27.890   1.693
50264W        W15491  19.193  26.390  14.995
50265W        W15492   9.412  40.750  14.946
50266W        W15493  20.175   7.242  12.573
50267W        W15494  44.748  19.355  12.635
50268W        W15495  39.086  10.821   3.781
50269W        W15496  15.992  34.394   0.797
50270W        W15497  35.934  33.458  13.196
50271W        W15498  38.305  11.384   2.282
50272W        W15499  19.797  20.832  11.145
50273W        W15500   1.284  42.075  12.642
50274W        W15501  39.462  22.088   4.681
50275W        W15502  12.849  12.742   4.815
50276W        W15503  14.137  25.285  10.592
50277W        W15504  32.028  35.523   1.217
50278W        W15505  36.047  14.367   0.296
50279W        W15506   5.373  16.076  13.429
50280W        W15507  33.370   2.500  13.403
50281W        W15508  15.576  29.726  13.003
50282W        W15509  14.251  40.348  11.566
50283W        W15510  17.797  23.182   1.847
50284W        W15511  20.505  27.390  11.600
50285W        W15512  28.954  28.280  12.750
50286W        W15513   2.108  44.131  12.484
50287W        W15514  28.992  39.743  11.175
50288W        W15515  38.590  27.888   2.860
50289W        W15516  14.161  40.439   0.559
50290W        W15517   9.939   1.679  10.245
50291W        W15518  44.476   3.541   5.088
50292W        W15519  12.418  38.241   1.429
50293W        W15520  30.338  30.032  14.856
50294W        W15521  38.739  33.077  10.642
50295W        W15522  18.028  31.779   2.763
50296W        W15523  24.096   0.419   2.580
50297W        W15524  41.979  24.328   1.566
50298W        W15525  23.930  31.827  13.857
50299W        W15526  27.822  16.408   2.572
50300W        W15527  44.589  13.014   2.290
50301W        W15528  39.340  16.551  14.328
50302W        W15529  35.062  20.164  12.094
50303W        W15530  43.742  18.595  11.188
50304W        W15531   0.845   9.415   4.684
50305W        W15532  13.666   4.191  11.588
50306W        W15533  22.068  38.272  13.956
50307W        W15534  18.192  44.995  12.491
50308W        W15535  31.383  35.048   3.294
50309W        W15536   0.876  32.614  11.113
50310W        W15537  36.627  40.945  11.270
50311W        W15538  26.797   8.546   2.625
50312W        W15539  14.471  10.804  11.018
50313W        W15540  18.116  35.058   3.709
50314W        W15541  33.057   3.404   4.137
50315W        W15542  31.914  38.458   0.338
50316W        W15543  24.078  32.377   2.274
50317W        W15544   4.850  11.366   0.907
50318W        W15545  25.379  13.242   3.706
50319W        W15546  26.008   5.326   1.291
50320W        W15547  35.393   5.212   3.169
50321W        W15548  44.002  24.042   0.526
50322W        W15549  12.377  22.522  10.799
50323W        W15550   4.130   5.286  12.009
50324W        W15551  35.511  34.687   1.826
50325W        W15552  21.918   4.101  10.990
50326W        W15553   4.301   7.781  10.703
50327W        W15554  17.591  22.226  14.417
50328W        W15555  20.360  35.082  10.988
50329W        W15556  27.910  14.221   3.312
50330W        W15557   6.259  40.588   0.166
50331W        W15558  43.270  14.246  11.112
50332W        W15559   9.681  10.793  14.503
50333W        W15560   2.340  21.286  13.015
50334W        W15561  11.436  11.786   0.787
50335W        W15562  19.728  19.401   4.592
50336W        W15563  17.604  18.097   2.198
50337W        W15564   3.499  18.092  12.464
50338W        W15565  26.215  27.113   4.162
50339W        W15566  19.809  31.133  14.529
50340W        W15567  36.315  25.079   0.547
50341W        W15568  25.948  39.234  13.159
50342W        W15569  37.346  26.385  10.279
50343W        W15570  30.339   5.785  11.095
50344W        W15571  17.585  24.673  13.402
50345W        W15572  29.536  31.422  10.617
50346W        W15573  35.169  12.473   1.243
50347W        W15574  42.705  29.271  10.978
50348W        W15575  31.194   5.372  12.373
50349W        W15576  19.327   3.142   1.409
50350W        W15577  21.161  29.512  10.946
50351W        W15578  11.636  36.202   1.643
50352W        W15579  15.851   9.077   3.363
50353W        W15580  42.423  18.879   2.774
50354W        W15581  42.121  34.844  14.498
50355W        W15582  12.512   3.776  11.851
50356W        W15583  30.439  26.954   1.392
50357W        W15584  38.858  26.081  13.893
50358W        W15585  10.107  40.451   0.742
50359W        W15586  33.967  40.100   1.388
50360W        W15587  42.451  26.465   2.330
50361W        W15588  33.512  44.254   4.698
50362W        W15589  12.422   4.817  14.340
50363W        W15590  43.416   1.560   4.608
50364W        W15591  28.068  10.943  12.979
50365W        W15592  19.162  18.772   3.130
50366W        W15593  37.427  26.951   4.616
50367W        W15594  41.140  36.119  14.358
50368W        W15595  27.356  14.124   4.691
50369W        W15596  39.368   8.091  12.280
50370W        W15597  30.481  43.697  14.100
50371W        W15598  31.866  15.635   4.108
50372W        W15599   5.685  16.581   0.641
50373W        W15600   9.599  18.331   0.765
50374W        W15601  12.298  43.858   0.795
50375W        W15602  32.077  34.574  11.737
50376W        W15603  18.279  22.495   4.555
50377W        W15604   2.476   4.173  11.865
50378W        W15605  25.634   0.028   3.090
50379W        W15606  14.818  24.154  14.960
50380W        W15607  35.516  23.096  11.819
50381W        W15608   9.562  30.529   4.157
50382W        W15609   8.567  29.742   0.791
50383W        W15610  34.505  36.842  12.773
50384W        W15611   8.694  41.876  11.630
50385W        W15612  38.566  39.893  13.435
50386W        W15613  25.776  33.121  14.458
50387W        W15614  34.303   1.947  11.111
50388W        W15615  33.927  30.811   2.416
50389W        W15616  17.670  19.638   3.224
50390W        W15617  21.315   4.145   1.819
50391W        W15618   5.978  40.347   2.663
50392W        W15619  41.938  13.018   5.271
50393W        W15620   3.249  42.395   3.170
50394W        W15621   5.345  26.754   3.526
50395W        W15622  31.035  38.249   5.078
50396W        W15623  31.596  35.960  11.618
50397W        W15624  33.504  33.498  11.949
50398W        W15625   5.807  14.629   1.431
50399W        W15626  28.849  11.466  11.695
50400W        W15627   9.600  40.484   1.669
50401W        W15628  17.568  30.959  10.799
50402W        W15629  13.192  31.215  13.298
50403W        W15630   6.509   0.619   5.338
50404W        W15631   6.918  44.765  14.058
50405W        W15632  38.117  34.809  13.058
50406W        W15633  29.923  21.250  11.415
50407W        W15634   2.942   1.872  11.548
50408W        W15635  19.582  21.903  13.393
50409W        W15636  38.506   3.902  11.847
50410W        W15637   0.912   5.194  10.473
50411W        W15638  38.803  32.042  10.298
50412W        W15639  40.541  23.918   3.528
50413W        W15640   0.573  43.243  12.554
50414W        W15641   0.333   4.775   2.792
50415W        W15642  39.098  17.546   3.305
50416W        W15643  25.091  39.470  11.797
50417W        W15644  31.389  15.465   4.547
50418W        W15645  26.495  39.128   0.852
50419W        W15646  10.311  20.114   1.551
50420W        W15647  35.644   3.582  11.497
50421W        W15648  19.261  21.125  10.778
50422W        W15649   2.944  13.708  10.720
50423W        W15650   4.845  37.562  14.501
50424W        W15651  17.544  21.267  10.914
50425W        W15652  35.063  30.196  14.836
50426W        W15653   2.057  34.898   1.386
50427W        W15654  38.714  25.518   4.322
50428W        W15655  31.581  10.310  11.708
50429W        W15656  24.257   8.395  14.862
50430W        W15657  27.371  24.905  12.444
50431W        W15658   9.880  11.379  13.102
50432W        W15659  37.917  37.045  13.414
50433W        W15660  21.799   8.764  12.759
50434W        W15661  12.849  38.089  11.668
50435W        W15662  15.220   3.957   3.709
50436W        W15663  13.601  43.469   3.753
50437W        W15664  44.472  11.723   0.723
50438W        W15665   3.381  13.540  13.768
50439W        W15666   5.047  16.213  14.412
50440W        W15667  22.640  27.733  14.704
50441W        W15668  23.498  28.548  13.460
50442W        W15669  12.101  17.505   0.306
50443W        W15670  20.778  37.557  13.019
50444W        W15671   7.194  36.086   3.156
50445W        W15672  21.705  37.703  12.980
50446W        W15673  16.697   6.512   4.494
50447W        W15674  25.272  39.300  11.316
50448W        W15675  28.413  35.940  13.504
50449W        W15676   8.881  32.012  14.080
50450W        W15677  10.475  42.642  11.209
50451W        W15678  21.668  16.280  10.613
50452W        W15679   3.223  28.206   3.110
50453W        W15680  43.610  25.248  12.083
50454W        W15681  29.168  30.728  13.622
50455W        W15682  10.700  23.548   2.001
50456W        W15683   6.479  14.611   4.685
50457W        W15684  35.303  37.035  14.088
50458W        W15685  38.551  22.330  13.997
50459W        W15686   3.958  43.886  14.992
50460W        W15687  32.112  29.066   2.883
50461W        W15688   9.779  43.538   2.396
50462W        W15689  13.598  17.209   3.302
50463W        W15690  11.331  39.361   2.796
50464W        W15691  32.910  10.374  13.332
50465W        W15692   0.690  44.359   2.295
50466W        W15693  14.749  37.704   2.771
50467W        W15694  23.357  36.617  13.583
50468W        W15695  32.851  33.644   1.734
50469W        W15696  14.046  32.402  12.614
50470W        W15697  24.515  15.989   4.178
50471W        W15698  15.027   4.162   4.120
50472W        W15699  20.804   0.993  13.531
50473W        W15700   2.115  42.328  14.212
50474W        W15701  12.231  26.062  14.735
50475W        W15702  18.993  17.842  12.153
50476W        W15703  18.574  14.171  13.916
50477W        W15704  24.170  20.516   0.407
50478W        W15705  25.622  13.973  14.525
50479W        W15706  32.827   6.786  13.498
50480W        W15707  31.210  31.513  12.094
50481W        W15708  40.532   0.855  11.178
50482W        W15709  32.307  11.108   1.794
50483W        W15710  29.603  39.734  10.981
50484W        W15711  11.624  12.699  14.815
50485W        W15712  27.941  24.193  12.419
50486W        W15713  34.757   2.179  11.115
50487W        W15714  39.321  13.882  12.094
50488W        W15715  28.950  30.547   0.852
50489W        W15716  23.551  30.382   1.363
50490W        W15717  13.222  18.992  13.274
50491W        W15718   8.687  19.578  13.732
50492W        W15719  16.107   8.183  11.062
50493W        W15720  36.867  35.068  11.623
50494W        W15721  20.048  10.102   4.214
50495W        W15722  15.638  38.918   1.946
50496W        W15723   2.249  21.527   0.447
50497W        W15724   8.202  33.920  14.855
50498W        W15725   6.351  29.556  12.365
50499W        W15726   4.655  13.725   3.710
50500W        W15727  23.129   7.408  12.816
50501W        W15728  31.632   3.668   0.296
50502W        W15729   7.935  24.725  12.084
50503W        W15730  35.056  25.897  12.152
50504W        W15731  12.835  23.706  14.515
50505W        W15732   3.317  14.198  12.064
50506W        W15733  24.214   7.521   2.213
50507W        W15734  38.538   2.211  14.800
50508W        W15735  14.055  39.922  13.895
50509W        W15736  23.594  25.997  11.790
50510W        W15737  20.088  32.366   3.062
50511W        W15738  29.981   3.748   0.921
50512W        W15739  42.227  31.469   4.340
50513W        W15740  41.524  28.859   0.218
50514W        W15741  27.437  27.508  12.770
50515W        W15742  18.114  17.787   0.730
50516W        W15743  27.004   0.303  14.815
50517W        W15744  31.038  30.989  14.700
50518W        W15745  32.070  36.675  11.245
50519W        W15746  43.975  43.022   5.099
50520W        W15747  19.253   5.725   4.666
50521W        W15748   5.126  24.618  14.292
50522W        W15749  27.884  15.185  11.500
50523W        W15750  10.382   5.219  12.993
50524W        W15751  35.480  22.746   4.089
50525W        W15752   3.962  26.501   4.927
50526W        W15753  41.035  24.108   3.586
50527W        W15754  13.104  12.337   3.166
50528W        W15755  43.885  33.057  12.083
50529W        W15756   3.210  27.250  12.801
50530W        W15757   3.461  24.150  11.050
50531W        W15758   6.770  39.933  14.933
50532W        W15759  19.799  14.319  13.141
50533W        W15760  35.360  25.420  11.471
50534W        W15761  16.375  20.167   2.877
50535W        W15762   2.700  22.097  13.335
50536W        W15763  34.618  24.942   4.968
50537W        W15764  36.836  10.179  14.268
50538W        W15765  26.267  28.617  11.958
50539W        W15766   2.537   1.336  10.907
50540W        W15767  17.953  34.937  13.290
50541W        W15768  40.973  37.775   0.545
50542W        W15769  15.525  18.071   2.147
50543W        W15770  20.545  14.953   1.330
50544W        W15771  26.201  39.232   0.337
50545W        W15772  36.809  20.582   2.215
50546W        W15773  39.662  34.947   2.805
50547W        W15774  23.462  19.387  14.959
50548W        W15775  27.924  23.589  10.840
50549W        W15776  35.011  21.333  14.209
50550W        W15777  41.115   2.828   2.427
50551W        W15778   4.728   2.429  11.715
50552W        W15779  43.223  19.814   1.408
50553W        W15780  18.679  13.387  12.863
50554W        W15781  26.401   1.794  13.830
50555W        W15782  32.523  24.662  14.840
50556W        W15783  42.924  26.997   0.403
50557W        W15784  26.124   1.429  13.547
50558W        W15785   1.790  42.032  12.508
50559W        W15786  43.986  25.360  14.902
50560W        W15787  40.548   3.836   3.511
50561W        W15788  21.280  10.774   2.759
50562W        W15789  16.132   4.879  10.895
50563W        W15790  42.527  10.659  13.847
50564W        W15791  22.065  20.811   1.419
50565W        W15792  31.398  43.902   0.351
50566W        W15793  40.786  43.815   1.438
50567W        W15794  44.419  23.973   2.236
50568W        W15795  32.573   4.165  12.450
50569W        W15796  42.732  25.417   0.973
50570W        W15797  26.050  38.698  13.028
50571W        W15798  16.856  36.085  11.173
50572W        W15799  42.672  14.300  14.582
50573W        W15800   5.276  33.304  11.135
50574W        W15801  21.697   5.094   2.551
50575W        W15802  13.918  22.683  10.722
50576W        W15803  28.210  32.663   2.009
50577W        W15804  10.925   2.674   4.239
50578W        W15805  34.597  17.612  13.454
50579W        W15806  12.546  28.525   2.868
50580W        W15807  12.806  39.323  14.951
50581W        W15808  17.640  25.167  14.739
50582W        W15809  13.605  10.890   3.999
50583W        W15810  16.837  16.901   2.947
50584W        W15811  14.991  14.682  13.970
50585W        W15812  25.087   4.489  10.706
50586W        W15813  13.856  42.963  11.153
50587W        W15814  12.071   7.831  10.896
50588W        W15815  23.185  19.024   1.318
50589W        W15816  20.340  11.141  13.495
50590W        W15817  25.491  20.821  11.106
50591W        W15818  41.914  27.694  11.249
50592W        W15819  11.273  36.138   2.676
50593W        W15820  39.644  34.374   0.937
50594W        W15821  17.019  44.322  12.093
50595W        W15822   8.267  31.543  12.486
50596W        W15823  30.365  31.306  13.898
50597W        W15824  11.763  16.849   1.381
50598W        W15825  28.605   5.849  10.485
50599W        W15826  42.387   5.280   9.864
50600W        W15827  17.338  19.159  14.790
50601W        W15828  35.719  29.879  13.004
50602W        W15829  18.537  33.446   5.120
50603W        W15830  40.046  24.595   2.314
50604W        W15831  41.556   8.420  11.521
50605W        W15832  15.680  20.019  12.501
50606W        W15833  37.814  42.865  13.309
50607W        W15834  36.572  31.537  12.054
50608W        W15835  44.197  42.477   2.448
50609W        W15836  28.501  13.625  12.551
50610W        W15837  31.006  10.373  11.023
50611W        W15838   3.245  25.723  13.868
50612W        W15839  35.378   8.081   1.675
50613W        W15840  18.610   5.203  13.662
50614W        W15841  36.152  32.356   4.125
50615W        W15842   5.909  16.175  12.065
50616W        W15843   3.134  12.644  12.051
50617W        W15844  28.889  24.498  12.539
50618W        W15845  32.218  18.490  13.400
50619W        W15846  17.512  34.263   4.183
50620W        W15847  21.787  20.191   1.882
50621W        W15848   0.448  28.032   0.438
50622W        W15849   6.965  15.265  12.148
50623W        W15850   4.895  20.218  12.497
50624W        W15851  29.030   5.267   3.636
50625W        W15852  23.979  41.899  10.709
50626W        W15853  17.161  26.553   3.816
50627W        W15854   7.492  20.603  14.032
50628W        W15855  40.596  33.040  12.306
50629W        W15856  28.996  31.601   1.836
50630W        W15857  41.198  27.690   4.257
50631W        W15858  31.487  40.125  10.267
50632W        W15859  32.600   7.417  11.237
50633W        W15860  16.298   0.151  12.520
50634W        W15861  12.983  15.359  14.012
50635W        W15862   9.097  28.582  11.208
50636W        W15863   0.291  41.071   0.076
50637W        W15864  26.144  23.607  11.155
50638W        W15865   8.959  15.304   1.864
50639W        W15866   0.376  33.629  10.447
50640W        W15867  13.413   9.182   3.738
50641W        W15868  27.277   5.278  13.316
50642W        W15869  33.161   0.025   1.701
50643W        W15870  35.536  17.165   1.918
50644W        W15871  17.179  19.123   0.283
50645W        W15872  27.177  26.302   4.083
50646W        W15873  21.081  41.254  14.910
50647W        W15874   2.310  35.930   4.477
50648W        W15875  31.083  16.959  12.407
50649W        W15876  36.430  26.177  13.686
50650W        W15877  19.620  29.498  13.146
50651W        W15878  37.127   4.711   0.287
50652W        W15879  12.275  15.740  11.939
50653W        W15880  35.774  25.125  10.663
50654W        W15881  10.427  15.303   0.620
50655W        W15882  31.849  32.414   4.092
50656W        W15883  25.518  10.262  14.870
50657W        W15884  31.626  23.669  14.902
50658W        W15885  39.391  36.406  14.400
50659W        W15886  20.224   0.153  12.629
50660W        W15887  34.603  43.129   0.381
50661W        W15888  42.547  32.423   4.497
50662W        W15889  13.215   0.617   4.621
50663W        W15890  38.884  40.564   5.048
50664W        W15891  21.963  26.586   2.835
50665W        W15892  14.809  38.842  13.186
50666W        W15893  31.388  22.180   2.276
50667W        W15894  42.171  43.204  11.151
50668W        W15895  24.445   4.792   1.816
50669W        W15896   4.357  39.953  11.684
50670W        W15897   1.467  36.578  14.402
50671W        W15898  37.559  35.400   1.416
50672W        W15899   5.765  22.841   1.394
50673W        W15900  42.256  31.984   4.525
50674W        W15901  43.276  31.545  11.020
50675W        W15902  10.727  23.433  12.240
50676W        W15903  39.279  11.579  12.514
50677W        W15904  31.019  28.480   2.209
50678W        W15905   4.773  10.132   4.269
50679W        W15906  16.878  38.576  13.452
50680W        W15907  43.943  40.867  13.067
50681W        W15908  30.154  27.920  12.693
50682W        W15909  43.537  13.310  14.382
50683W        W15910  36.028   2.471   1.118
50684W        W15911   0.793  43.947  14.812
50685W        W15912  22.178   3.932  11.916
50686W        W15913  17.799  24.529   0.618
50687W        W15914  36.837  10.335   0.757
50688W        W15915  28.487   2.255   1.337
50689W        W15916   7.017  11.099   3.184
50690W        W15917  37.872  20.790   3.856
50691W        W15918  39.298  13.687  14.469
50692W        W15919  30.966   5.607   1.909
50693W        W15920   5.627  15.001   5.382
50694W        W15921  13.878  23.172  12.294
50695W        W15922  18.248  16.783   0.559
50696W        W15923  32.126   2.315  12.962
50697W        W15924  28.855   5.237  12.634
50698W        W15925  22.245  41.256   3.712
50699W        W15926  26.501  23.452  11.948
50700W        W15927  29.705   1.752  13.433
50701W        W15928  43.253  30.224   0.501
50702W        W15929   3.362  43.890  14.302
50703W        W15930  38.278  44.048  14.467
50704W        W15931  21.013  38.362   1.279
50705W        W15932  35.449  32.173   3.122
50706W        W15933   9.953  13.295   1.519
50707W        W15934   7.341  17.232   0.796
50708W        W15935  44.552   6.436  14.760
50709W        W15936  36.818   8.418   1.896
50710W        W15937  31.077  33.171  12.178
50711W        W15938  41.508   8.930  13.029
50712W        W15939   0.713  23.303   3.721
50713W        W15940  32.406  12.830  10.272
50714W        W15941  29.062   8.272  13.667
50715W        W15942  42.316  14.732   4.571
50716W        W15943  40.767  27.067   4.526
50717W        W15944   0.095  35.384  11.825
50718W        W15945  41.915  41.879  14.259
50719W        W15946  12.796   3.707   0.810
50720W        W15947  26.294  35.416   0.496
50721W        W15948  15.233  42.499  12.113
50722W        W15949  28.096   3.363   5.032
50723W        W15950   8.627  36.272   1.467
50724W        W15951  40.488   3.775  12.987
50725W        W15952   1.797  36.126  12.407
50726W        W15953  10.278   2.207   1.206
50727W        W15954   5.478  20.353   0.512
50728W        W15955   3.466  38.854  13.044
50729W        W15956  33.606  38.767   4.648
50730W        W15957  16.071  23.500  14.645
50731W        W15958  27.015   3.322   1.614
50732W        W15959  43.866  33.712  13.860
50733W        W15960  41.614   7.851  11.129
50734W        W15961  16.991  26.726  11.109
50735W        W15962   2.228  17.207   0.723
50736W        W15963  15.416  36.146   2.762
50737W        W15964  32.168  40.898   4.116
50738W        W15965  39.986  39.444  14.230
50739W        W15966  21.165  38.972  13.423
50740W        W15967   1.723  41.361   0.292
50741W        W15968  34.929  36.049  12.327
50742W        W15969  27.026   6.315  14.709
50743W        W15970  27.657  23.382   1.802
50744W        W15971  33.346  27.202   3.540
50745W        W15972  18.454   0.523   4.984
50746W        W15973   6.635  27.724  14.350
50747W        W15974  13.194   4.420  11.652
50748W        W15975  32.079  39.547   4.262
50749W        W15976  33.157  21.976   2.234
50750W        W15977  44.358  37.375  13.490
50751W        W15978  35.152   3.312  10.263
50752W        W15979  17.713   0.260   1.902
50753W        W15980   3.961   9.157   1.306
50754W        W15981  34.939  14.951  10.731
50755W        W15982  42.832  36.000   0.290
50756W        W15983   0.982   9.460  10.944
50757W        W15984  10.871  34.821  13.921
50758W        W15985  12.091  25.547   3.645
50759W        W15986   9.012   6.569  11.990
50760W        W15987   6.191  43.500  12.521
50761W        W15988  12.698  33.414  11.160
50762W        W15989  35.645  26.641  13.015
50763W        W15990  26.917  41.740  12.492
50764W        W15991  32.961  29.175  11.578
50765W        W15992  16.755  21.502   3.203
50766W        W15993   9.639  18.158   3.312
50767W        W15994  40.053  32.137   4.151
50768W        W15995  11.544  13.767   0.372
50769W        W15996  21.496  30.920   0.504
50770W        W15997   2.222  30.068   3.640
50771W        W15998  10.768  42.807  11.641
50772W        W15999  43.792  36.075   2.361
50773W        W16000   4.273  17.004   4.041
50774W        W16001   7.927  41.368  11.623
50775W        W16002  10.398   0.720  10.389
50776W        W16003  41.877  25.422   1.811
50777W        W16004  25.441  44.260  11.686
50778W        W16005  21.671  27.573  14.823
50779W        W16006   4.781  28.533   4.508
50780W        W16007  10.169  36.657  14.948
50781W        W16008   7.120  13.932  14.663
50782W        W16009  27.984  13.344   2.777
50783W        W16010  42.728  35.668   3.681
50784W        W16011   4.282  37.913   1.666
50785W        W16012  23.218  36.472  12.134
50786W        W16013  27.446  37.996  13.410
50787W        W16014  19.643  33.770   4.291
50788W        W16015  28.673  28.518   3.210
50789W        W16016   3.886  34.456   2.316
50790W        W16017  20.612  29.779  14.785
50791W        W16018  39.196  23.110  10.470
50792W        W16019  21.549  13.803  13.891
50793W        W16020  39.683   7.130   5.458
50794W        W16021   8.855  36.075   0.185
50795W        W16022   3.774  19.974  14.527
50796W        W16023  42.275  32.393   0.228
50797W        W16024  14.120  12.383   3.144
50798W        W16025  44.867  19.644  13.462
50799W        W16026   2.569  11.337  12.126
50800W        W16027  22.464   8.152  13.932
50801W        W16028  39.750  35.098  13.482
50802W        W16029  21.139  13.148  13.335
50803W        W16030  23.035   7.085   3.707
50804W        W16031  28.597  15.384  13.450
50805W        W16032   8.354  17.688   1.705
50806W        W16033  26.093   4.643  14.597
50807W        W16034   3.981   8.672  14.864
50808W        W16035  43.302  11.193  12.687
50809W        W16036  15.752  40.597  11.526
50810W        W16037   3.194  18.977  12.534
50811W        W16038  21.352   6.296   1.844
50812W        W16039  21.700   3.924   4.533
50813W        W16040   4.281  10.666   1.370
50814W        W16041   1.395   3.104   1.629
50815W        W16042  15.111  10.233   2.073
50816W        W16043  35.313  35.397   3.710
50817W        W16044  32.689  43.405  11.125
50818W        W16045  26.499   2.778  14.680
50819W        W16046  19.281  13.332  12.106
50820W        W16047  38.850  25.817   2.580
50821W        W16048  32.698   0.301   1.300
50822W        W16049  38.564  23.158  12.091
50823W        W16050  41.901  24.092  10.794
50824W        W16051  22.460  42.667  12.501
50825W        W16052   1.236  20.363   5.494
50826W        W16053  29.482  38.153   2.580
50827W        W16054  31.654  32.890   4.029
50828W        W16055   2.970   1.807  10.638
50829W        W16056  11.199  24.976   4.209
50830W        W16057  33.959  27.172   4.716
50831W        W16058  17.096   7.292   0.445
50832W        W16059  17.712  19.707  12.384
50833W        W16060  31.489   3.866   1.873
50834W        W16061  38.560  23.126  13.344
50835W        W16062  13.088  25.988  11.232
50836W        W16063   5.182   2.981   4.536
50837W        W16064  31.989  24.048   0.314
50838W        W16065  23.999  29.483  12.919
50839W        W16066   4.957   7.357  11.701
50840W        W16067  26.889  38.266   3.616
50841W        W16068  25.410  22.520   3.702
50842W        W16069  38.846   0.363   0.332
50843W        W16070  20.265  37.111  12.196
50844W        W16071   3.902  13.313  11.216
50845W        W16072  35.451  33.109   3.942
50846W        W16073  43.469  18.013   2.359
50847W        W16074  44.361  38.424  12.683
50848W        W16075  25.244  10.930   4.585
50849W        W16076  24.944   8.720  10.716
50850W        W16077   4.264  19.126   1.486
50851W        W16078  27.985  13.822  10.734
50852W        W16079  18.555  20.264   0.958
50853W        W16080   1.837  41.878  11.159
50854W        W16081  26.516  10.551  10.785
50855W        W16082   1.268  41.820   4.667
50856W        W16083   7.414  33.813   4.498
50857W        W16084  21.417  20.689   3.801
50858W        W16085  33.100  30.569  13.863
50859W        W16086  42.211  27.520  10.814
50860W        W16087  16.611  40.043  12.548
50861W        W16088   7.399  11.195  13.087
50862W        W16089  33.454  23.807  11.565
50863W        W16090  27.881  37.290  13.329
50864W        W16091   9.670   6.462  12.905
50865W        W16092   1.839   7.277   4.243
50866W        W16093  39.470  19.610   4.313
50867W        W16094  17.131  39.575   4.213
50868W        W16095  29.111  32.155  13.436
50869W        W16096  39.528  31.658   2.791
50870W        W16097  11.941  11.711   4.965
50871W        W16098  13.347  15.983   3.201
50872W        W16099  42.058   2.821   2.386
50873W        W16100  11.064  11.293   2.538
50874W        W16101  14.253  10.197   0.439
50875W        W16102   4.049  25.516  14.472
50876W        W16103  19.465  30.391   0.846
50877W        W16104  38.411  36.118  12.704
50878W        W16105  28.581  31.083  11.577
50879W        W16106   3.089  32.073   2.346
50880W        W16107   3.459  21.757   0.788
50881W        W16108  41.825  18.128   4.117
50882W        W16109  11.850  35.014   2.704
50883W        W16110  20.317  44.428  11.031
50884W        W16111  28.475  17.471   2.242
50885W        W16112   1.247   5.369   1.148
50886W        W16113  38.645  20.441  12.700
50887W        W16114  31.293  43.586  14.749
50888W        W16115  10.321  19.372  13.457
50889W        W16116  14.353   5.821  14.994
50890W        W16117   7.639  17.602   3.293
50891W        W16118  28.195  43.147   4.970
50892W        W16119  13.530  41.498  12.218
50893W        W16120  14.554  25.505   0.485
50894W        W16121  43.132  35.858   1.472
50895W        W16122  22.721  38.570   1.470
50896W        W16123   9.173  42.765   1.431
50897W        W16124  22.850  29.776   0.392
50898W        W16125  26.943  37.869  13.400
50899W        W16126  35.348  35.502   2.205
50900W        W16127   0.726  16.307   1.244
50901W        W16128  22.676   8.946   3.853
50902W        W16129   2.478  32.716   2.634
50903W        W16130  22.752   1.241   1.707
50904W        W16131  32.040  21.885   3.711
50905W        W16132  24.898  35.003  13.455
50906W        W16133   0.750   6.605  12.226
50907W        W16134  12.803  36.818   1.513
50908W        W16135  25.305  32.988  12.882
50909W        W16136  18.849  44.284   4.039
50910W        W16137   1.841  21.503   1.800
50911W        W16138   4.236  15.896   4.707
50912W        W16139  30.576  13.178  14.596
50913W        W16140   3.496  21.748   1.641
50914W        W16141  28.079  26.464   4.957
50915W        W16142   4.176   7.550   3.301
50916W        W16143   4.813   5.317  10.654
50917W        W16144   1.645  26.677   4.317
50918W        W16145  31.149  33.582   4.346
50919W        W16146   4.891   0.313  14.037
50920W        W16147  18.103  13.615  14.538
50921W        W16148   2.288  18.592   0.080
50922W        W16149  19.291   9.243  14.121
50923W        W16150   2.261  39.513   4.523
50924W        W16151  27.501   9.154  13.120
50925W        W16152  26.983  22.602  12.137
50926W        W16153  17.111  10.438   1.313
50927W        W16154  23.540  28.041   4.734
50928W        W16155   7.742  31.111   1.911
50929W        W16156   3.196  13.221   1.799
50930W        W16157  43.239  36.865  11.187
50931W        W16158  43.807  41.495   0.976
50932W        W16159  10.235  29.529  13.877
50933W        W16160  29.022   0.404  12.090
50934W        W16161   9.049  32.106   3.299
50935W        W16162  20.767  34.967   2.826
50936W        W16163  44.242  33.147  11.623
50937W        W16164  17.362  10.173  13.382
50938W        W16165  21.182   4.053  11.547
50939W        W16166  12.736  17.549  13.908
50940W        W16167   6.288  32.963   4.934
50941W        W16168  21.155  28.669  10.625
50942W        W16169   3.045   2.763  12.422
50943W        W16170  16.792  39.669  14.053
50944W        W16171  27.200   5.262  11.026
50945W        W16172  23.485  21.671  14.358
50946W        W16173  42.319   0.882   2.135
50947W        W16174  42.306  15.139   2.982
50948W        W16175  24.665   4.942   3.690
50949W        W16176   4.921  21.591   4.565
50950W        W16177   7.648   5.089   1.897
50951W        W16178  24.152  30.489   2.184
50952W        W16179  41.828  12.671   3.769
50953W        W16180   5.887   5.663  13.895
50954W        W16181  41.663  35.378   0.052
50955W        W16182   3.858  44.399   0.947
50956W        W16183  39.050  23.908   1.255
50957W        W16184   8.590  39.671   3.297
50958W        W16185   8.367  28.924  14.512
50959W        W16186  30.007  20.614   0.823
50960W        W16187  40.785  32.333   0.942
50961W        W16188   3.795  38.081  12.902
50962W        W16189   9.213  44.269   2.922
50963W        W16190  30.666  11.208  12.123
50964W        W16191   7.844  13.209  11.692
50965W        W16192  33.564  17.273  10.554
50966W        W16193  22.021  44.400   3.715
50967W        W16194  44.263  31.134   2.872
50968W        W16195  37.012  23.725   1.123
50969W        W16196  21.778  34.566   1.845
50970W        W16197  29.321   4.932  13.506
50971W        W16198  15.425  11.486   0.941
50972W        W16199  13.702  29.596  12.153
50973W        W16200  31.969  14.297  10.716
50974W        W16201  16.182  41.918   3.083
50975W        W16202   0.197  42.462   2.284
50976W        W16203  35.538  19.658   2.432
50977W        W16204  42.923   1.996  13.033
50978W        W16205  22.221  14.818   1.006
50979W        W16206   7.143   8.256  13.703
50980W        W16207  39.715   9.121  11.947
50981W        W16208   7.518  24.902   0.223
50982W        W16209  31.920  15.124   4.097
50983W        W16210  11.022  42.478   3.458
50984W        W16211  36.287  11.805   4.157
50985W        W16212  41.939  24.953  14.393
50986W        W16213  29.265   3.803  14.358
50987W        W16214  27.674  24.674   2.164
50988W        W16215   0.039   3.265   0.816
50989W        W16216  15.020  23.688  12.123
50990W        W16217  12.948  16.444  14.155
50991W        W16218  44.320  19.458  11.076
50992W        W16219  18.168  27.903  12.585
50993W        W16220  22.264  32.870   4.284
50994W        W16221  44.872  32.727   1.773
50995W        W16222  29.975  24.242   1.239
50996W        W16223  29.033  23.122  14.162
50997W        W16224  16.073  25.081   1.789
50998W        W16225   6.462  38.339  13.842
50999W        W16226  35.494  28.655   3.632
51000W        W16227   2.920  11.709   4.175
51001W        W16228  36.803   5.405  11.594
51002W        W16229  41.708  10.676  13.488
51003W        W16230  39.144   4.760   0.579
51004W        W16231  20.833  26.194   0.356
51005W        W16232  33.409  24.151  14.572
51006W        W16233  34.386   9.070  11.207
51007W        W16234  11.903   4.078   4.251
51008W        W16235  35.118  33.554  14.523
51009W        W16236   3.844  10.304  10.953
51010W        W16237   5.418  18.208   2.012
51011W        W16238  17.148  38.404   1.157
51012W        W16239  18.119  12.647   0.523
51013W        W16240  26.219  41.217   4.474
51014W        W16241  43.904   9.116   4.311
51015W        W16242  24.740  11.667  14.868
51016W        W16243   1.478  29.140   0.583
51017W        W16244  35.358  23.150  10.519
51018W        W16245  11.307  29.965   9.814
51019W        W16246  39.140  40.884  12.655
51020W        W16247   7.671  11.650   3.195
51021W        W16248  11.941  34.211  10.718
51022W        W16249  10.699  11.955   4.286
51023W        W16250   5.733  44.574   3.701
51024W        W16251  43.350  18.333  12.369
51025W        W16252   6.750  25.084  12.085
51026W        W16253  10.797   1.300   0.415
51027W        W16254  28.600  32.211  11.004
51028W        W16255  20.647  38.544   2.732
51029W        W16256  43.137  24.603   2.311
51030W        W16257  17.612  41.177  12.153
51031W        W16258  44.119   2.762   4.731
51032W        W16259  31.348  26.241   0.636
51033W        W16260  12.702   3.495  13.567
51034W        W16261  34.358   0.862   2.946
51035W        W16262  25.814  18.608   2.786
51036W        W16263  31.616  26.149  14.651
51037W        W16264  36.346   8.387  13.448
51038W        W16265  11.391  38.244  14.919
51039W        W16266   9.507  30.118  12.591
51040W        W16267  11.989  11.088   1.454
51041W        W16268  12.583  17.765  13.453
51042W        W16269  42.344  31.103  14.872
51043W        W16270  26.991  29.086   2.622
51044W        W16271  35.444   9.873   3.186
51045W        W16272  17.209  10.900  13.846
51046W        W16273  40.920  10.820   0.166
51047W        W16274  17.132   1.544  12.067
51048W        W16275  36.079   6.475  10.275
51049W        W16276  29.415  44.431   3.757
51050W        W16277   3.739  38.287  11.940
51051W        W16278   9.316   8.641   1.129
51052W        W16279  27.938  32.559  11.053
51053W        W16280  26.493   7.927  11.536
51054W        W16281  33.015   9.640  12.862
51055W        W16282   9.825  23.313   4.638
51056W        W16283  39.475  14.288  11.699
51057W        W16284  11.407  12.571  12.978
51058W        W16285  10.002  10.663   0.885
51059W        W16286  15.851  22.764  12.400
51060W        W16287  39.185   8.273   3.120
51061W        W16288  25.915  22.448  12.839
51062W        W16289  16.224  20.960  12.177
51063W        W16290   0.263  33.797  12.220
51064W        W16291  44.507  11.457   3.619
51065W        W16292  31.511   0.402  10.738
51066W        W16293  37.440   6.445   2.158
51067W        W16294  23.044  14.103   1.802
51068W        W16295  11.319  24.177   4.160
51069W        W16296  31.568  43.006  11.957
51070W        W16297  24.920  26.075   1.718
51071W        W16298  30.544  44.528   4.026
51072W        W16299  18.663  42.461   1.132
51073W        W16300   7.837  44.043  11.149
51074W        W16301   8.707   8.115   3.764
51075W        W16302  14.738  29.650  10.781
51076W        W16303  11.134  15.722   1.495
51077W        W16304   0.735  26.124   1.302
51078W        W16305  17.897  38.835   4.488
51079W        W16306  33.062  29.409   4.195
51080W        W16307  30.472  12.725  12.806
51081W        W16308  24.481  23.264  10.455
51082W        W16309  31.834   6.241  11.632
51083W        W16310   6.602  12.731  13.887
51084W        W16311  31.574  40.694  13.051
51085W        W16312  26.209  34.685  11.225
51086W        W16313  31.356  28.170   2.851
51087W        W16314  26.724  38.954  12.923
51088W        W16315  16.243  43.390   2.262
51089W        W16316  29.057   9.386   3.723
51090W        W16317  27.245  15.078  13.782
51091W        W16318  25.608  10.414   3.275
51092W        W16319   9.107  26.784  10.861
51093W        W16320   4.228  34.687  10.962
51094W        W16321  21.111  14.378   1.790
51095W        W16322  16.403  20.035   2.334
51096W        W16323  38.742  29.551  12.188
51097W        W16324   6.087  20.097   2.393
51098W        W16325  39.793  22.466   2.775
51099W        W16326  38.832  28.699  14.736
51100W        W16327  39.378   3.808  10.561
51101W        W16328  15.538  10.063  13.892
51102W        W16329  14.083  28.156   2.169
51103W        W16330  25.705   3.728  14.927
51104W        W16331  35.371   2.690  11.787
51105W        W16332  22.194  34.861   2.111
51106W        W16333  35.635  34.665  11.122
51107W        W16334  21.681  30.478   5.001
51108W        W16335  13.534  14.384  12.895
51109W        W16336  27.522  20.315  13.053
51110W        W16337  43.753  31.085  12.069
51111W        W16338  23.141  23.098  14.221
51112W        W16339  14.809  42.823   4.689
51113W        W16340  34.659  19.024   1.367
51114W        W16341   0.854  21.984   0.719
51115W        W16342  33.047  21.447   2.920
51116W        W16343  22.299  44.676  11.502
51117W        W16344  40.269  35.938  12.116
51118W        W16345  27.390  11.851   4.132
51119W        W16346  26.033  22.774  12.419
51120W        W16347  43.853  34.473   2.879
51121W        W16348   7.190  19.643  13.759
51122W        W16349  25.729   7.263   1.230
51123W        W16350  39.979  35.683   3.303
51124W        W16351  20.708  18.196   4.082
51125W        W16352  37.443  32.611   4.642
51126W        W16353  40.548   6.632   0.830
51127W        W16354  35.443  16.285  10.655
51128W        W16355   6.178  36.155   2.226
51129W        W16356  10.728  21.201   3.296
51130W        W16357  34.364  42.622  13.582
51131W        W16358  24.389   9.142  11.165
51132W        W16359  32.708  15.804  13.926
51133W        W16360   1.735   1.876  11.157
51134W        W16361  23.083   1.677  12.093
51135W        W16362  38.859  16.132  13.739
51136W        W16363  18.484  26.197  12.854
51137W        W16364   2.206  23.936   3.795
51138W        W16365  28.576  28.182   0.227
51139W        W16366   7.870  28.039   2.612
51140W        W16367  28.574  21.849  13.882
51141W        W16368  22.503  38.898   1.010
51142W        W16369  43.032  17.539  11.765
51143W        W16370  20.131   7.601   1.800
51144W        W16371  32.178   1.766  13.440
51145W        W16372  17.870  37.128  13.897
51146W        W16373  40.016  24.780  13.557
51147W        W16374  18.249   8.643   2.181
51148W        W16375  33.143  21.264   0.767
51149W        W16376   2.356  32.484  11.978
51150W        W16377  27.490  18.954   0.874
51151W        W16378  39.756   2.074  14.923
51152W        W16379  24.624  31.393   0.339
51153W        W16380  11.712  38.463   3.618
51154W        W16381  42.596  14.754   3.681
51155W        W16382  12.043  17.609  10.736
51156W        W16383  10.238  19.052   0.871
51157W        W16384  22.768  40.997   2.332
51158W        W16385  32.123  34.627  14.390
51159W        W16386  23.192  37.765  12.412
51160W        W16387  24.065  12.470  12.022
51161W        W16388  38.607  20.362   0.988
51162W        W16389   9.841   9.894  11.910
51163W        W16390  16.251  12.596   0.402
51164W        W16391  42.406  29.382  12.002
51165W        W16392   1.211  37.336  14.994
51166W        W16393  27.726   5.975  12.471
51167W        W16394  19.379  33.966   1.270
51168W        W16395  12.375  15.238   0.333
51169W        W16396  26.729  14.026  13.094
51170W        W16397   8.375  27.494   1.079
51171W        W16398  30.300   8.687  12.928
51172W        W16399  13.695  39.793   3.754
51173W        W16400  10.162  23.276  14.002
51174W        W16401  20.340  36.508   2.196
51175W        W16402  23.062  26.534  13.014
51176W        W16403   3.889  19.345   0.166
51177W        W16404  14.990  34.349   1.563
51178W        W16405  13.416  22.986  12.156
51179W        W16406   1.368  12.965   4.118
51180W        W16407  11.638   4.464   1.856
51181W        W16408   8.671  23.566  14.897
51182W        W16409  28.562  39.725   0.345
51183W        W16410  42.995  18.146  14.470
51184W        W16411  25.562   4.663   2.318
51185W        W16412  31.798  14.829   3.697
51186W        W16413  33.434  13.314  12.660
51187W        W16414  18.690  24.080   4.422
51188W        W16415  31.981  25.511   0.705
51189W        W16416  17.240  20.025   1.244
51190W        W16417   3.924  35.412  14.339
51191W        W16418  18.189  43.084   0.351
51192W        W16419  44.776  22.396  10.240
51193W        W16420   8.849  27.985  10.669
51194W        W16421  37.016  29.588  10.757
51195W        W16422  39.665  41.875   3.053
51196W        W16423  23.284  12.122  11.791
51197W        W16424  40.465  21.913  14.703
51198W        W16425  15.652  26.655  13.169
51199W        W16426  36.088   1.323   0.417
51200W        W16427  27.724  28.944   4.629
51201W        W16428  35.842   3.096  12.991
51202W        W16429  20.280  26.575  13.065
51203W        W16430  13.151  44.963   3.099
51204W        W16431   1.742  23.702  14.133
51205W        W16432   5.189  27.694  11.376
51206W        W16433  36.100  11.648   1.791
51207W        W16434  22.410  36.667   1.331
51208W        W16435  23.454  26.709  13.395
51209W        W16436   1.657   4.136   4.934
51210W        W16437  25.022  12.853   4.279
51211W        W16438  17.085   9.728  10.898
51212W        W16439  31.465  15.673  11.624
51213W        W16440  44.558  32.389   4.669
51214W        W16441   4.003  33.976   0.382
51215W        W16442  36.036  31.846  14.051
51216W        W16443   9.468  34.306  11.678
51217W        W16444  36.097  43.208  13.545
51218W        W16445   4.449  32.984  13.047
51219W        W16446  13.708  15.122   2.362
51220W        W16447  36.266  31.516   4.063
51221W        W16448  28.130  10.127   2.139
51222W        W16449   3.952  32.046  12.369
51223W        W16450  12.440   5.364  14.592
51224W        W16451  41.270  36.048   0.258
51225W        W16452   8.283  20.533   3.879
51226W        W16453   9.140  25.508  13.041
51227W        W16454  39.300  31.681   4.140
51228W        W16455  25.005  37.560  14.228
51229W        W16456  25.258  39.817  11.436
51230W        W16457  10.757  21.011  13.931
51231W        W16458  38.891  44.889  14.088
51232W        W16459  11.541  26.003   1.731
51233W        W16460  23.888  43.903  11.332
51234W        W16461  27.273  25.639  12.025
51235W        W16462   7.092  41.592  11.948
51236W        W16463  23.388  31.075  12.797
51237W        W16464  18.552  26.209  13.405
51238W        W16465   3.026   5.477   2.938
51239W        W16466  31.443  38.513   4.208
51240W        W16467  17.354  30.439  11.987
51241W        W16468   2.652  31.812  12.327
51242W        W16469  16.195  35.874  14.980
51243W        W16470  39.023  28.109   0.355
51244W        W16471   2.293   9.360   3.256
51245W        W16472  36.768  31.817  13.105
51246W        W16473  26.118  41.279   1.276
51247W        W16474  24.544   9.451   1.600
51248W        W16475  43.222  28.904  12.412
51249W        W16476  33.502  15.486   0.500
51250W        W16477  34.892  17.555  14.798
51251W        W16478  19.506  38.977  11.206
51252W        W16479  28.278  33.216   4.529
51253W        W16480  30.665  13.255   3.310
51254W        W16481  18.943  44.589   1.461
51255W        W16482   8.059  32.050  12.879
51256W        W16483  33.161  44.358   1.250
51257W        W16484  13.657  12.898   3.182
51258W        W16485  43.947  26.627  13.982
51259W        W16486   7.253  36.348  12.099
51260W        W16487  11.712  20.062   1.818
51261W        W16488  43.218  16.192  11.674
51262W        W16489  41.150  43.939  13.823
51263W        W16490   7.571  26.616  11.099
51264W        W16491  33.249  34.211   1.204
51265W        W16492   1.364   1.037   0.920
51266W        W16493  15.194  17.632  14.994
51267W        W16494   9.677   2.658  12.548
51268W        W16495  33.635  28.770  11.993
51269W        W16496  36.057  40.750   0.928
51270W        W16497  26.511  27.579   1.428
51271W        W16498   8.176   9.442   1.295
51272W        W16499  13.797  14.076   4.499
51273W        W16500  41.312   3.280   4.322
51274W        W16501  35.431  10.030   0.381
51275W        W16502  26.921  25.538   3.625
51276W        W16503  38.214  32.495  14.977
51277W        W16504   8.679  37.292   2.761
51278W        W16505   5.020  31.651  12.397
51279W        W16506   5.428  23.313   0.139
51280W        W16507  31.684   3.333   2.761
51281W        W16508  22.159  25.727   4.837
51282W        W16509  33.434  37.414  14.469
51283W        W16510  30.658   4.722  14.184
51284W        W16511  24.919   7.571  12.481
51285W        W16512  24.092  44.846  10.688
51286W        W16513  22.323  39.330  11.614
51287W        W16514  14.934  24.527  12.856
51288W        W16515  24.212  15.968   0.615
51289W        W16516   2.337  33.912   4.567
51290W        W16517  22.057  32.621   4.749
51291W        W16518  15.664  44.478   3.266
51292W        W16519  13.441  38.890   3.629
51293W        W16520   8.107  43.117   3.724
51294W        W16521  28.890  40.420  10.193
51295W        W16522  33.030  20.566   0.009
51296W        W16523  33.942  28.720  14.815
51297W        W16524  27.543  28.569  13.273
51298W        W16525  44.281  27.105  11.731
51299W        W16526   7.167  18.272   1.196
51300W        W16527  14.461  40.849   3.639
51301W        W16528  44.811  44.863  10.608
51302W        W16529  21.828  41.895  11.634
51303W        W16530  12.195   1.162  11.742
51304W        W16531   3.864   9.290  12.911
51305W        W16532  21.787  35.020  12.034
51306W        W16533  36.377   0.029  11.647
51307W        W16534  41.382  37.108  12.898
51308W        W16535  10.328   2.028  12.463
51309W        W16536  28.383  38.279   0.425
51310W        W16537  16.475  32.006   0.947
51311W        W16538  10.653  19.794   5.008
51312W        W16539  35.966  16.442  14.255
51313W        W16540  44.525  39.919  14.781
51314W        W16541  33.246  38.569   1.933
51315W        W16542   8.835  27.421   2.705
51316W        W16543   1.517   8.813   0.231
51317W        W16544  44.399  25.683   1.826
51318W        W16545  25.817  36.409   2.429
51319W        W16546  14.680   6.913  13.485
51320W        W16547  35.369  39.387   9.725
51321W        W16548  11.844  37.376  13.458
51322W        W16549  24.956  20.528   1.447
51323W        W16550  30.988  38.301  10.366
51324W        W16551  14.527  19.219   2.570
51325W        W16552   4.646   0.403   4.072
51326W        W16553  43.437  44.919  13.350
51327W        W16554   3.548   5.991   1.267
51328W        W16555   7.628   0.555   1.349
51329W        W16556   9.683  18.011  14.484
51330W        W16557  43.079  40.335   3.994
51331W        W16558   4.253  32.431   1.176
51332W        W16559  23.545  19.317  11.273
51333W        W16560   6.757   5.524   2.949
51334W        W16561  19.413  13.107  12.555
51335W        W16562   6.626   3.444   9.762
51336W        W16563  21.793  12.803  10.898
51337W        W16564  31.050  29.985  10.576
51338W        W16565  35.076   3.192  14.836
51339W        W16566  41.396  28.052  13.963
51340W        W16567  28.742  33.213  13.982
51341W        W16568  39.037  11.866   3.745
51342W        W16569  34.841   5.385   0.981
51343W        W16570  44.662   6.186  11.653
51344W        W16571  26.524   7.144  12.067
51345W        W16572  12.235  40.049  13.114
51346W        W16573   0.049   4.340   0.770
51347W        W16574   3.832  40.090  13.149
51348W        W16575  25.165  11.662  13.552
51349W        W16576  19.485  28.957  13.120
51350W        W16577  43.401  33.708  13.139
51351W        W16578  28.828  20.477  12.534
51352W        W16579  18.499   9.220  10.826
51353W        W16580   9.924   3.687   1.729
51354W        W16581  38.034  32.159   3.528
51355W        W16582   9.174  17.608   4.607
51356W        W16583  34.678  36.368  13.099
51357W        W16584  15.323  18.828  11.252
51358W        W16585   3.316  25.723   1.269
51359W        W16586  13.205  10.266   4.643
51360W        W16587  23.080   0.984  14.833
51361W        W16588  11.605  16.067  13.848
51362W        W16589  44.701  24.039   1.622
51363W        W16590   4.446  21.192  12.035
51364W        W16591  34.153  23.048  12.524
51365W        W16592  26.080  42.246   4.632
51366W        W16593  18.290   6.255   0.042
51367W        W16594  42.974  18.975  13.349
51368W        W16595   4.997   1.535  12.894
51369W        W16596   5.396  38.144   4.129
51370W        W16597  11.550   8.323   1.424
51371W        W16598  31.935  27.297   1.703
51372W        W16599   0.112  20.012  12.177
51373W        W16600  38.902  25.301   1.724
51374W        W16601  38.951  33.880   1.633
51375W        W16602  27.560  28.437   4.601
51376W        W16603  30.094  12.196  11.193
51377W        W16604  31.866  34.233  12.089
51378W        W16605   2.552  36.457   2.795
51379W        W16606  44.885  24.098  11.005
51380W        W16607  41.616  30.728  10.609
51381W        W16608   9.016  31.033   3.798
51382W        W16609  32.104  26.450   3.016
51383W        W16610  28.005   7.900   1.682
51384W        W16611  12.686  11.197   0.878
51385W        W16612  19.530  33.480   4.686
51386W        W16613   8.200  37.860  11.038
51387W        W16614  37.294  42.280  13.502
51388W        W16615  15.644  30.198   3.074
51389W        W16616  17.140  13.085  12.091
51390W        W16617  43.113  25.288   3.810
51391W        W16618   3.383  32.669   2.265
51392W        W16619  40.899  20.513  12.784
51393W        W16620  44.872   2.084  14.992
51394W        W16621  12.337   7.394   0.253
51395W        W16622  29.397  23.748   3.289
51396W        W16623  22.522   4.799  13.004
51397W        W16624   1.694  10.266   0.506
51398W        W16625   8.695  26.955  10.582
51399W        W16626  38.313   4.319  13.377
51400W        W16627  18.681  18.329  13.953
51401W        W16628  28.018  28.470  12.079
51402W        W16629  10.748  18.143   2.165
51403W        W16630  36.352  32.040  14.447
51404W        W16631  39.622  36.396   2.761
51405W        W16632  43.960   0.796   4.493
51406W        W16633  32.745  43.142  14.061
51407W        W16634  38.370  13.219   4.616
51408W        W16635  12.857  29.493  11.501
51409W        W16636   5.421  29.933  14.275
51410W        W16637  34.593  40.984   2.351
51411W        W16638   2.724  28.050   1.410
51412W        W16639  16.776  25.108   3.892
51413W        W16640  37.120  29.986   3.121
51414W        W16641  20.331   8.671  11.656
51415W        W16642  30.087  30.066   0.881
51416W        W16643  31.110  26.219   2.294
51417W        W16644   2.504   4.783   4.274
51418W        W16645   4.908  40.924   3.516
51419W        W16646  14.295  19.199   3.876
51420W        W16647  10.925  34.745  12.548
51421W        W16648  17.477   2.875  11.621
51422W        W16649  24.503  41.440   1.068
51423W        W16650  41.364  35.280  11.706
51424W        W16651  42.042   8.638   1.004
51425W        W16652  39.035  14.562  11.528
51426W        W16653  19.623  10.300   4.630
51427W        W16654  13.430  26.628   2.242
51428W        W16655  13.717   5.104  14.756
51429W        W16656  31.075  37.588   2.320
51430W        W16657  25.455  35.300   4.568
51431W        W16658  10.823  39.304  13.957
51432W        W16659  29.144  24.049   4.776
51433W        W16660   6.889   5.026   1.413
51434W        W16661  37.024  24.644   1.195
51435W        W16662  22.706  26.842   3.800
51436W        W16663  43.197   0.086   2.236
51437W        W16664  21.678  42.909  12.249
51438W        W16665  21.450  34.914  12.969
51439W        W16666  15.069  23.844  11.176
51440W        W16667   4.889  32.643  13.277
51441W        W16668  29.850  32.682   3.718
51442W        W16669  21.115   1.399  13.641
51443W        W16670  35.142  24.988  13.426
51444W        W16671   6.209  31.517  10.990
51445W        W16672  23.748   8.980   1.056
51446W        W16673  29.433  31.675  13.404
51447W        W16674  13.504  30.973   0.397
51448W        W16675  34.930   5.405   3.710
51449W        W16676  42.387   5.665  13.223
51450W        W16677  24.185  39.835   4.186
51451W        W16678  38.896   8.896   2.369
51452W        W16679  14.749  25.654   0.003
51453W        W16680  40.419   5.187   3.126
51454W        W16681  25.297  40.910  13.423
51455W        W16682  28.826   5.828   4.373
51456W        W16683  26.954  40.910   2.603
51457W        W16684  14.118  22.000   4.617
51458W        W16685   3.387  17.141  12.595
51459W        W16686   4.947   3.213  14.781
51460W        W16687  10.427  27.539   2.771
51461W        W16688  28.688  43.301  14.877
51462W        W16689   5.209  12.590  12.886
51463W        W16690  10.105  43.294  13.499
51464W        W16691  15.097   8.825  10.990
51465W        W16692  40.305  35.566   1.310
51466W        W16693  15.744  26.992  13.991
51467W        W16694  34.211  13.592  13.992
51468W        W16695  21.741  19.912   2.312
51469W        W16696  10.112  28.545   0.347
51470W        W16697  25.995  34.388   3.010
51471W        W16698  35.360   3.871   2.902
51472W        W16699   0.818  44.464   0.469
51473W        W16700  43.834   0.324  12.134
51474W        W16701  12.699  31.597  14.428
51475W        W16702  27.539   8.408   4.043
51476W        W16703  40.181   9.854  10.235
51477W        W16704  27.909  28.508   4.957
51478W        W16705  40.021   8.844  13.371
51479W        W16706  25.388  44.800  11.081
51480W        W16707  11.476  44.306   2.812
51481W        W16708   9.238   2.347  12.734
51482W        W16709  44.194   9.165   1.951
51483W        W16710  30.693  27.876   0.888
51484W        W16711   5.874  13.559  11.723
51485W        W16712   0.715  25.663  13.547
51486W        W16713  26.782   1.320  12.563
51487W        W16714  37.433  42.376  12.013
51488W        W16715  42.608   6.117  12.001
51489W        W16716  25.262  14.094  10.671
51490W        W16717  29.146  43.772   3.671
51491W        W16718   0.924   8.489  13.136
51492W        W16719  22.649  20.288   0.870
51493W        W16720   1.302  33.173  13.586
51494W        W16721  36.603  22.149  13.948
51495W        W16722  13.861   3.167  14.419
51496W        W16723  27.397  13.211  12.834
51497W        W16724  35.006  28.861  12.859
51498W        W16725   6.169   2.210   4.911
51499W        W16726  36.324  39.576  11.504
51500W        W16727  17.710  38.612  12.873
51501W        W16728  37.667  30.066  13.471
51502W        W16729  22.539  38.828  13.840
51503W        W16730  29.930  10.773   2.199
51504W        W16731   2.330  11.540   4.142
51505W        W16732  31.050   5.155  11.128
51506W        W16733  40.030   7.416  11.624
51507W        W16734   4.561  32.163  14.484
51508W        W16735   6.408  21.551  13.946
51509W        W16736  26.596  19.530   2.193
51510W        W16737  36.035  20.568  11.597
51511W        W16738  15.993  14.203  14.636
51512W        W16739   6.692  43.374   0.405
51513W        W16740  14.346  24.276   4.073
51514W        W16741  24.343   9.803  11.650
51515W        W16742  11.044  16.542  11.697
51516W        W16743  27.819  25.700  11.093
51517W        W16744  43.472   4.433   0.255
51518W        W16745  33.629  14.717   2.779
51519W        W16746  27.353  39.734   4.174
51520W        W16747  30.068  14.923   1.089
51521W        W16748  13.846  19.520  12.993
51522W        W16749  28.224  31.723  12.391
51523W        W16750  21.349  28.705   3.151
51524W        W16751  40.930  11.704   2.738
51525W        W16752  36.439   1.541  11.576
51526W        W16753  41.401  24.419   2.245
51527W        W16754  41.529  15.834  13.004
51528W        W16755   9.607   1.717  11.257
51529W        W16756   3.763  16.671  13.419
51530W        W16757  39.190  39.071   4.122
51531W        W16758  29.319  14.405   2.122
51532W        W16759  35.388  37.958   1.897
51533W        W16760  14.163  37.944   4.388
51534W        W16761   9.077  31.824   4.862
51535W        W16762  32.504  17.046  13.025
51536W        W16763  10.549  24.266  11.090
51537W        W16764  13.172   9.939   5.069
51538W        W16765   2.355   3.694   2.727
51539W        W16766  39.381   7.302  13.461
51540W        W16767   0.801   7.109  12.108
51541W        W16768  41.098  35.122   2.196
51542W        W16769   3.389  33.854   1.881
51543W        W16770  14.901  35.560  11.824
51544W        W16771  36.843  12.273  10.740
51545W        W16772  39.437   0.795  12.986
51546W        W16773  26.748   2.055  12.120
51547W        W16774  41.130   2.967  13.022
51548W        W16775   0.991  19.606   0.562
51549W        W16776   8.261  10.581   4.383
51550W        W16777   4.715  30.027  14.035
51551W        W16778  17.695  29.507  14.670
51552W        W16779  37.879  42.869   3.718
51553W        W16780  35.350  23.063  11.335
51554W        W16781  29.439   2.791   3.735
51555W        W16782   8.887   8.380   0.895
51556W        W16783   0.343   8.017  12.380
51557W        W16784   0.851  12.119   3.201
51558W        W16785  20.227  40.103  11.630
51559W        W16786   1.556   7.938   2.739
51560W        W16787  27.077   5.201   1.147
51561W        W16788  36.049   3.876  12.441
51562W        W16789  40.379  33.493  10.079
51563W        W16790  14.175   8.234   3.208
51564W        W16791  17.462   8.691   3.177
51565W        W16792  33.578  36.578  13.034
51566W        W16793  34.890  17.833  14.338
51567W        W16794  13.196   5.104  11.222
51568W        W16795  13.004   6.361   0.428
51569W        W16796  42.548  14.602   1.290
51570W        W16797  19.604   6.778   2.678
51571W        W16798  38.557   3.291  14.125
51572W        W16799  27.378  23.503   0.825
51573W        W16800  42.892  13.319   0.742
51574W        W16801   3.622  39.954   2.751
51575W        W16802  14.134   9.558   4.036
51576W        W16803  16.537  27.529  12.963
51577W        W16804  12.609  16.479  13.752
51578W        W16805  41.706  41.826  11.650
51579W        W16806  14.577   0.958  13.664
51580W        W16807   3.955  36.494   1.665
51581W        W16808  22.934  37.448  13.497
51582W        W16809  18.353  24.095  14.559
51583W        W16810  27.399  28.166   2.373
51584W        W16811  22.085  39.747  13.753
51585W        W16812  10.491  12.731  11.529
51586W        W16813   2.262  11.636  14.757
51587W        W16814  43.129  38.455  11.150
51588W        W16815  12.925   6.573   3.110
51589W        W16816  21.728  38.352   0.961
51590W        W16817  35.314  36.263   0.893
51591W        W16818   3.710  15.746  12.027
51592W        W16819  17.381  11.503   4.919
51593W        W16820  29.977  17.994  14.818
51594W        W16821  11.213  21.558  13.349
51595W        W16822  37.569  31.915   2.831
51596W        W16823  10.019  43.069   2.710
51597W        W16824  15.790   7.299   3.939
51598W        W16825  16.481  21.367  14.869
51599W        W16826  42.043  26.902   3.185
51600W        W16827  15.210  10.281  12.105
51601W        W16828  25.392  34.003   1.903
51602W        W16829  12.817  18.351  11.690
51603W        W16830  13.354  43.053  13.357
51604W        W16831   7.885  35.862   1.866
51605W        W16832  33.749  34.543  12.515
51606W        W16833  26.476  24.005  14.305
51607W        W16834  14.630  25.140   0.075
51608W        W16835  38.721  19.185  13.409
51609W        W16836  35.907   4.261   0.665
51610W        W16837  42.469  31.599   1.414
51611W        W16838  22.704  21.032  12.420
51612W        W16839  17.744   1.309  10.614
51613W        W16840   0.465   6.494   1.821
51614W        W16841  16.617  12.003  12.682
51615W        W16842  37.377  40.676  12.840
51616W        W16843  23.642  44.671   4.944
51617W        W16844   2.965  43.527  12.541
51618W        W16845  38.152  14.753   4.752
51619W        W16846  43.991   1.751  12.837
51620W        W16847  32.544  17.753  10.683
51621W        W16848  13.605  38.033  13.885
51622W        W16849  23.093  37.860   4.474
51623W        W16850   5.350  32.791  13.053
51624W        W16851   1.424  22.356  12.229
51625W        W16852  29.015  37.931   2.644
51626W        W16853   2.304  26.677   0.790
51627W        W16854   3.366   1.433  10.590
51628W        W16855   7.140  13.287  11.065
51629W        W16856  25.528  38.020  13.348
51630W        W16857   0.676  22.408   4.633
51631W        W16858  20.117  31.500  13.394
51632W        W16859  32.215  14.724  12.557
51633W        W16860   4.944  14.108   1.354
51634W        W16861  40.451  37.062  14.129
51635W        W16862   4.765  25.727  12.092
51636W        W16863  33.159  42.765  14.892
51637W        W16864  36.510   4.725   2.754
51638W        W16865  36.848  35.829   0.843
51639W        W16866  32.365  25.447  11.756
51640W        W16867  32.107   7.833   0.325
51641W        W16868  44.858   7.196  14.768
51642W        W16869  32.911  26.057  14.429
51643W        W16870  17.852   4.462   2.199
51644W        W16871  13.856  34.455   0.718
51645W        W16872   6.540  43.633  13.113
51646W        W16873  44.299  17.354   3.410
51647W        W16874  36.393  38.561  12.844
51648W        W16875  13.228  29.514   4.994
51649W        W16876  16.403  38.446  12.148
51650W        W16877  44.965   2.671  10.752
51651W        W16878  12.689   0.911   2.342
51652W        W16879   6.269   0.269  10.260
51653W        W16880  15.473  30.196  14.760
51654W        W16881  32.861  18.465   1.357
51655W        W16882  32.488  27.068  13.394
51656W        W16883  38.881  30.166   1.425
51657W        W16884  44.770  43.557  11.220
51658W        W16885   8.252   8.631   0.871
51659W        W16886  14.313   9.179   0.687
51660W        W16887  42.492   5.797  11.212
51661W        W16888  23.700  31.506   4.506
51662W        W16889  24.856  44.537   1.882
51663W        W16890  27.142  20.574  10.733
51664W        W16891  31.865  16.287   0.912
51665W        W16892  41.274  41.983   0.005
51666W        W16893  31.995  25.265  12.103
51667W        W16894  40.135  43.123  14.578
51668W        W16895  36.805  27.912   3.694
51669W        W16896  35.333  37.281  14.896
51670W        W16897  10.433  42.371  11.659
51671W        W16898  38.045  18.104   4.055
51672W        W16899  29.144  43.417   1.888
51673W        W16900  25.546  22.236  10.565
51674W        W16901   9.330   4.264   1.238
51675W        W16902   2.863   2.239   0.379
51676W        W16903  14.200   1.806  12.574
51677W        W16904  24.982  32.538  12.163
51678W        W16905   4.583  26.222  12.420
51679W        W16906  20.123   3.129  11.090
51680W        W16907  19.925  41.575  11.676
51681W        W16908  34.528  42.374  12.038
51682W        W16909  29.146  26.897   1.849
51683W        W16910  38.987  14.626   0.362
51684W        W16911  25.385  35.140   0.349
51685W        W16912  36.883   3.032   1.234
51686W        W16913  30.056  12.225  10.282
51687W        W16914  16.938   1.930  11.172
51688W        W16915  33.795  26.296   5.076
51689W        W16916   7.373  34.418  13.878
51690W        W16917  24.639   3.656   1.190
51691W        W16918  34.475  24.903  14.994
51692W        W16919  27.636  24.863   0.772
51693W        W16920  35.229  25.258   1.397
51694W        W16921  37.314   4.906  14.838
51695W        W16922  24.759   3.817  12.447
51696W        W16923  15.220  29.696   1.278
51697W        W16924   4.929   5.141   2.818
51698W        W16925  20.501  15.666   0.724
51699W        W16926  30.123  44.527  10.862
51700W        W16927  43.632  44.242  11.506
51701W        W16928  12.811  13.023  12.310
51702W        W16929  39.398  28.842   4.475
51703W        W16930   2.798  27.091   0.420
51704W        W16931  25.171  11.441  10.758
51705W        W16932  37.771  40.848  13.583
51706W        W16933   3.996  34.218   4.583
51707W        W16934  20.520  25.084  14.557
51708W        W16935  19.428  14.025  12.171
51709W        W16936   0.298   1.367  13.065
51710W        W16937  39.535  20.602  11.067
51711W        W16938  25.484  42.368   3.345
51712W        W16939  19.708  18.316   4.659
51713W        W16940  16.012   4.965   9.813
51714W        W16941  38.399   2.330   4.777
51715W        W16942   6.484  39.637   1.663
51716W        W16943  17.773   0.911   2.557
51717W        W16944  40.586  39.973  14.258
51718W        W16945   3.033  40.658  10.928
51719W        W16946   5.100  35.591   2.929
51720W        W16947   3.928  25.203  11.464
51721W        W16948  18.673  20.785  14.437
51722W        W16949  22.863  10.786  12.735
51723W        W16950  35.509  19.019  10.632
51724W        W16951   8.736  31.481  11.698
51725W        W16952  43.205  23.884  12.621
51726W        W16953   2.849  18.679   3.137
51727W        W16954   4.023  29.095   3.634
51728W        W16955  40.693  34.308   2.706
51729W        W16956   7.464  25.601  12.011
51730W        W16957  35.007  35.567   2.861
51731W        W16958  32.081  31.758   0.450
51732W        W16959  15.901  11.958   1.270
51733W        W16960  34.176  35.742   1.404
51734W        W16961  10.112  44.073   3.798
51735W        W16962  13.695  31.609  14.417
51736W        W16963   8.717  16.333   5.370
51737W        W16964   7.785  12.799  14.552
51738W        W16965  16.563  26.791   5.063
51739W        W16966  42.028  28.152   4.163
51740W        W16967  18.629  32.211  11.183
51741W        W16968  26.778   6.878   4.358
51742W        W16969  17.142   1.476  13.863
51743W        W16970  37.363   2.309  12.813
51744W        W16971  21.074  29.849  12.965
51745W        W16972  34.447  24.057   4.830
51746W        W16973  27.998   3.265   1.927
51747W        W16974  11.770  32.608  12.821
51748W        W16975  30.715  10.405   1.129
51749W        W16976  24.965  20.053  12.187
51750W        W16977  13.054  44.973   0.309
51751W        W16978  14.941  30.301  14.929
51752W        W16979   4.878  43.019   4.677
51753W        W16980   2.885  23.770   3.109
51754W        W16981  26.603  14.099  14.936
51755W        W16982  42.279  44.788   1.163
51756W        W16983  32.657  34.333  14.934
51757W        W16984   7.455  36.575  12.616
51758W        W16985   6.211  32.101  13.494
51759W        W16986  40.885  16.392  10.396
51760W        W16987  24.192  17.346   2.213
51761W        W16988  43.233  30.615  14.518
51762W        W16989  31.154  32.841   3.212
51763W        W16990   1.297  28.946  14.545
51764W        W16991   7.628   1.138   1.453
51765W        W16992  26.936  26.943   1.898
51766W        W16993  25.717  39.490   2.727
51767W        W16994   3.977  38.982   2.115
51768W        W16995  23.956  35.884   3.243
51769W        W16996   5.419  11.928  13.552
51770W        W16997  15.848   0.817   3.663
51771W        W16998  35.121  43.681  12.049
51772W        W16999  35.395  32.543  13.048
51773W        W17000  23.182  38.527  10.682
51774W        W17001   6.657  43.902   2.274
51775W        W17002  24.688   2.203  13.321
51776W        W17003  18.624  13.032  12.033
51777W        W17004  12.427  14.647   4.112
51778W        W17005  43.816  25.574   0.795
51779W        W17006  41.645  43.250  11.141
51780W        W17007   6.444  38.624  14.316
51781W        W17008  15.547  32.036  14.075
51782W        W17009  19.308  42.178  11.504
51783W        W17010  38.902  30.385   0.638
51784W        W17011   9.190  26.170   3.324
51785W        W17012  38.789  12.751   2.720
51786W        W17013  24.472  13.054  11.208
51787W        W17014  12.820  13.295  10.926
51788W        W17015  40.116   0.430   3.537
51789W        W17016  37.789  41.836  10.747
51790W        W17017   3.870  30.158   2.237
51791W        W17018   6.950  14.763   0.070
51792W        W17019   6.868  12.870   0.820
51793W        W17020  40.540  35.829   2.666
51794W        W17021  32.105   2.185   4.505
51795W        W17022   3.262   9.761   4.647
51796W        W17023  19.573  16.083  11.976
51797W        W17024  21.921  14.854   1.414
51798W        W17025   5.767  34.181  14.915
51799W        W17026   1.461  15.314   2.307
51800W        W17027  31.010  21.242  10.752
51801W        W17028  12.082   0.331   2.662
51802W        W17029   2.019  16.264  13.904
51803W        W17030   6.947  21.375   0.794
51804W        W17031  16.302  18.300   1.755
51805W        W17032   7.258  32.926   4.494
51806W        W17033  15.663  26.774   1.030
51807W        W17034  11.268  13.422  10.719
51808W        W17035  20.545   5.751   1.757
51809W        W17036  42.803  12.744   2.502
51810W        W17037   2.868   4.831   1.142
51811W        W17038  43.010  19.340   1.330
51812W        W17039  25.706  12.040   2.837
51813W        W17040  25.250  34.199   1.411
51814W        W17041  13.089  34.926   0.956
51815W        W17042  16.280  40.871   4.278
51816W        W17043   5.393  25.118  12.102
51817W        W17044  42.830   8.378  12.174
51818W        W17045  10.399  25.466  14.592
51819W        W17046  17.115  24.064   4.583
51820W        W17047  16.405  25.476  13.179
51821W        W17048   4.424  24.652   0.263
51822W        W17049   5.581  12.522  14.027
51823W        W17050   8.954   4.735  11.284
51824W        W17051  22.926   9.822  10.532
51825W        W17052  28.925   2.453  11.340
51826W        W17053  36.318  26.178  11.662
51827W        W17054  20.249   8.602  12.955
51828W        W17055  43.911  16.207  12.976
51829W        W17056  31.417  29.716  11.969
51830W        W17057  31.949   9.766  11.445
51831W        W17058  17.612   1.485   3.311
51832W        W17059  14.658   7.670   0.402
51833W        W17060   5.675  21.069   0.031
51834W        W17061  23.596   5.290   3.017
51835W        W17062  39.845  23.749   3.608
51836W        W17063   4.927  15.165  12.956
51837W        W17064  12.171  27.264   2.201
51838W        W17065  30.182  27.773  12.197
51839W        W17066  28.122   6.966  11.423
51840W        W17067   2.868  19.233  11.134
51841W        W17068  43.788  40.133  12.590
51842W        W17069  28.128  26.129  11.945
51843W        W17070  11.901   9.010  13.044
51844W        W17071  38.979  22.840  13.095
51845W        W17072  43.804  21.649  10.332
51846W        W17073  34.449  11.360   2.096
51847W        W17074  32.488   0.538  13.046
51848W        W17075  28.512   7.292  12.227
51849W        W17076  24.062  30.236   1.394
51850W        W17077   3.417  32.991  13.365
51851W        W17078  17.138  25.429   3.196
51852W        W17079  30.009  44.498   0.446
51853W        W17080  23.617  20.986   2.334
51854W        W17081   4.396  28.877   4.565
51855W        W17082  44.900   9.788   0.669
51856W        W17083  39.091  10.759  12.003
51857W        W17084   6.414  25.557   0.939
51858W        W17085   0.558  26.007  14.375
51859W        W17086  14.414  33.929  12.324
51860W        W17087   9.222  28.135  10.994
51861W        W17088  34.116  12.309  13.419
51862W        W17089   6.403  13.853  14.271
51863W        W17090  24.238  38.969   0.435
51864W        W17091  25.067  18.088   4.890
51865W        W17092  41.028   1.100  12.127
51866W        W17093  15.947  15.227  12.469
51867W        W17094  22.126  35.323   2.330
51868W        W17095  39.496  11.885   0.832
51869W        W17096  30.423  18.768  12.532
51870W        W17097  13.735  27.631  13.120
51871W        W17098  20.040  11.121  13.053
51872W        W17099  33.617  30.994   2.848
51873W        W17100  16.288  43.260   3.195
51874W        W17101  10.140  25.040  12.447
51875W        W17102  42.377   6.168   2.120
51876W        W17103  24.547  22.489   3.671
51877W        W17104  40.254  39.605  11.797
51878W        W17105  23.762  33.198   2.110
51879W        W17106  34.613  41.318   2.740
51880W        W17107  13.649  13.090  11.475
51881W        W17108  16.124  24.013   3.760
51882W        W17109  35.376  41.736   1.740
51883W        W17110  14.554  29.104  11.687
51884W        W17111  43.464   1.300   1.906
51885W        W17112  32.103  40.559  14.094
51886W        W17113  14.304  28.028  12.880
51887W        W17114   5.641  38.869   1.239
51888W        W17115  30.301  35.058   0.877
51889W        W17116   6.248  43.963  12.800
51890W        W17117   1.999  39.309   1.808
51891W        W17118   6.208  39.073   2.740
51892W        W17119  17.077   5.363  11.136
51893W        W17120   6.328  10.221  11.229
51894W        W17121  43.730   4.995  11.973
51895W        W17122   8.403  25.667  11.020
51896W        W17123  40.032   3.008  11.113
51897W        W17124  17.248   7.523   1.398
51898W        W17125  43.402  29.822  12.730
51899W        W17126   4.047  11.566  13.806
51900W        W17127  19.321   1.250  11.444
51901W        W17128  34.615  24.897  11.451
51902W        W17129  27.174  34.583  13.388
51903W        W17130  30.599  17.130   1.714
51904W        W17131  21.020  11.697  13.006
51905W        W17132   7.747  20.776   1.599
51906W        W17133  13.627  15.569  13.569
51907W        W17134  10.772  19.224   2.222
51908W        W17135  13.610  35.762   2.338
51909W        W17136  33.252  37.567  13.985
51910W        W17137  43.568  28.987   2.170
51911W        W17138  19.357  44.910   1.347
51912W        W17139  41.032  35.416  12.086
51913W        W17140  34.283  34.590   2.377
51914W        W17141  30.548  13.858  12.049
51915W        W17142  32.957   5.868   3.112
51916W        W17143  38.303  31.200   4.188
51917W        W17144   7.123   3.008  11.584
51918W        W17145  38.027  24.808   1.940
51919W        W17146  32.375  34.398   2.651
51920W        W17147   1.492   9.127  10.747
51921W        W17148  38.458  26.509   3.504
51922W        W17149  42.548  19.243  13.511
51923W        W17150  16.985  18.762  14.812
51924W        W17151  14.985  24.923  12.019
51925W        W17152   7.783  13.405   0.841
51926W        W17153  43.707  39.548  14.347
51927W        W17154  24.882  22.599  11.991
51928W        W17155  42.409  14.485  13.796
51929W        W17156  23.061  26.738  11.609
51930W        W17157   5.150  20.701  13.537
51931W        W17158  12.559  15.726  12.414
51932W        W17159  39.830  12.828   1.820
51933W        W17160  29.364  13.485   0.490
51934W        W17161  43.902  15.068  14.914
51935W        W17162  19.108  28.066  10.797
51936W        W17163  38.858  10.879  11.564
51937W        W17164  17.942  18.560  10.815
51938W        W17165  26.011  42.923  13.385
51939W        W17166  26.806  16.062   1.231
51940W        W17167   5.396  26.830   1.758
51941W        W17168  10.668  30.432  11.550
51942W        W17169  29.563  30.946  14.389
51943W        W17170  43.254  30.618  11.434
51944W        W17171  24.716  42.295  10.514
51945W        W17172  22.503   7.320  11.544
51946W        W17173  22.412   8.790   1.388
51947W        W17174   3.315  16.811   4.275
51948W        W17175  26.497  34.159  10.500
51949W        W17176  18.568   0.620  14.925
51950W        W17177  12.577  21.608   3.357
51951W        W17178  33.525  18.548  13.834
51952W        W17179  23.226  39.977   0.274
51953W        W17180  43.301  41.287  11.448
51954W        W17181  42.893  28.496  12.456
51955W        W17182  34.138  41.232   2.510
51956W        W17183  36.951   7.719  14.445
51957W        W17184  25.968  11.593  12.196
51958W        W17185   2.863  10.652  11.566
51959W        W17186  26.243   6.651  11.560
51960W        W17187   2.378  25.546   4.789
51961W        W17188   1.607  37.639   1.356
51962W        W17189  22.778   3.295  14.018
51963W        W17190  35.965   7.727  11.184
51964W        W17191  17.086   3.963   2.436
51965W        W17192  11.179  23.242   0.416
51966W        W17193  14.720  34.056   4.315
51967W        W17194   2.933  10.557  12.059
51968W        W17195   3.353   3.002  11.156
51969W        W17196  43.040   9.396  11.927
51970W        W17197   0.215  11.130   4.100
51971W        W17198  35.943  22.006  13.135
51972W        W17199  25.591  32.806  14.883
51973W        W17200  38.594  32.872  10.113
51974W        W17201  28.205  29.439   2.722
51975W        W17202  44.265  32.648   0.830
51976W        W17203  15.464  16.103   1.290
51977W        W17204  28.009  40.842  14.365
51978W        W17205   4.279  10.536  12.110
51979W        W17206  18.503   8.704   3.985
51980W        W17207  43.891  23.425  13.909
51981W        W17208  34.825  13.676  11.158
51982W        W17209  25.599  38.326  10.757
51983W        W17210   1.970  36.150   3.659
51984W        W17211  29.448  39.608   1.922
51985W        W17212  15.228  10.935  13.902
51986W        W17213  11.909   7.782  14.802
51987W        W17214  16.249  18.549   4.693
51988W        W17215  33.466  10.393   1.797
51989W        W17216  38.116  38.062  13.544
51990W        W17217  31.965  24.671  12.965
51991W        W17218  20.015  36.622   5.038
51992W        W17219  17.081  19.545  11.058
51993W        W17220  14.250  29.623   4.705
51994W        W17221   0.133  10.971  11.182
51995W        W17222  25.970  14.298  12.924
51996W        W17223  31.663  43.969  13.152
51997W        W17224  43.796  22.760   3.342
51998W        W17225  32.154  33.627   4.587
51999W        W17226  32.943  23.507   3.190
52000W        W17227   5.799   1.713  10.469
52001W        W17228  18.510   0.167   3.396
52002W        W17229  36.136   3.380   0.703
52003W        W17230  40.902  12.405   4.272
52004W        W17231   8.356  24.096  14.849
52005W        W17232   8.176  35.829   2.345
52006W        W17233  43.344  38.435  12.924
52007W        W17234   2.033   2.224  13.462
52008W        W17235  38.704  11.397  10.251
52009W        W17236  24.877  24.902  11.581
52010W        W17237  19.993   7.107  13.053
52011W        W17238   2.982  32.981   2.311
52012W        W17239   1.267   7.110   3.601
52013W        W17240  19.256   9.972   4.958
52014W        W17241  25.047  35.536  11.624
52015W        W17242  22.042   1.536  14.934
52016W        W17243   2.214  34.980   0.883
52017W        W17244  26.962  21.790   0.666
52018W        W17245   8.615  31.078  10.514
52019W        W17246  20.935  32.467  13.858
52020W        W17247  35.474  36.833   4.339
52021W        W17248  20.567  27.444   0.339
52022W        W17249   4.372  43.169   3.462
52023W        W17250  39.014  29.131  14.984
52024W        W17251  35.085  32.559   3.083
52025W        W17252   7.170  38.335   0.651
52026W        W17253  14.138  10.567  14.392
52027W        W17254  35.030  21.226   0.865
52028W        W17255  42.751  20.342  13.420
52029W        W17256  41.471  12.601  11.428
52030W        W17257  27.009   5.396   1.612
52031W        W17258  14.231  31.473   1.950
52032W        W17259  33.958   7.008  10.723
52033W        W17260   0.637  16.254   1.763
52034W        W17261  35.647  37.583  11.620
52035W        W17262  12.348  10.701   0.266
52036W        W17263  43.407  44.773   3.137
52037W        W17264   1.011  30.124  14.356
52038W        W17265   4.180  30.262  10.266
52039W        W17266  39.438  44.732   4.590
52040W        W17267  25.281   4.278   4.045
52041W        W17268  24.490  16.954  10.765
52042W        W17269  20.483   3.905  13.874
52043W        W17270   0.960  36.967  14.733
52044W        W17271  33.185   4.866   3.138
52045W        W17272  13.783  15.830   4.457
52046W        W17273  26.092  22.074   4.567
52047W        W17274  41.956   7.994   3.677
52048W        W17275  43.675  29.057   2.722
52049W        W17276  17.561  40.282  12.720
52050W        W17277  33.030  10.739  14.912
52051W        W17278  35.052  24.267   0.120
52052W        W17279  35.559  13.268  11.182
52053W        W17280  11.353   0.950   1.824
52054W        W17281   7.873  31.023  11.645
52055W        W17282  42.469  16.031   0.763
52056W        W17283  36.654  22.983   0.848
52057W        W17284  42.313   0.401   1.793
52058W        W17285  28.421  32.678  10.980
52059W        W17286   3.413  25.954   3.219
52060W        W17287   9.692  39.467  14.530
52061W        W17288  15.522  18.067   1.318
52062W        W17289  32.572  26.870  11.904
52063W        W17290  18.896   1.264  13.546
52064W        W17291  10.367  16.793   4.441
52065W        W17292  16.294  10.179   0.817
52066W        W17293  16.214  17.682   1.876
52067W        W17294  41.481  44.499   1.845
52068W        W17295  36.948  42.700   1.738
52069W        W17296  37.415  36.843  13.384
52070W        W17297  31.025   2.929   3.153
52071W        W17298  35.524  43.535  14.044
52072W        W17299  40.470  17.755  13.477
52073W        W17300  21.695  31.337   1.903
52074W        W17301  33.914  30.516   0.109
52075W        W17302  21.100   1.077  12.052
52076W        W17303   9.803   5.216  11.531
52077W        W17304  24.464  34.146   1.945
52078W        W17305   4.900  31.374  12.001
52079W        W17306   3.338  24.464  13.472
52080W        W17307  26.105  30.543   3.671
52081W        W17308  12.263  43.150  14.314
52082W        W17309  41.412  39.090   2.862
52083W        W17310  14.609  26.462   0.122
52084W        W17311   5.026  13.735   4.463
52085W        W17312  32.287  35.352   4.167
52086W        W17313  16.622  43.306   4.119
52087W        W17314  14.510  28.002  12.047
52088W        W17315  40.460  40.275  10.420
52089W        W17316  15.655  39.237  13.509
52090W        W17317   7.395  12.065   3.080
52091W        W17318  27.993  41.979   3.655
52092W        W17319  33.979  16.817  10.921
52093W        W17320  14.402  22.029  14.315
52094W        W17321   7.220  26.059  13.953
52095W        W17322  12.588  36.846  14.737
52096W        W17323  39.496   1.618   0.849
52097W        W17324  29.264   9.929   2.849
52098W        W17325  40.790  44.663   2.426
52099W        W17326  13.842  29.463   2.083
52100W        W17327   7.821  11.682   2.331
52101W        W17328  34.430  12.122   1.735
52102W        W17329  21.538  10.799  10.415
52103W        W17330  17.172  42.746   0.370
52104W        W17331  28.054  15.983   3.689
52105W        W17332  32.584  10.758   2.119
52106W        W17333   6.294   1.163  13.114
52107W        W17334  37.400  19.768   0.315
52108W        W17335  33.367  21.403   1.225
52109W        W17336  16.319  13.217  13.753
52110W        W17337  43.663   6.801  13.830
52111W        W17338  27.728   4.351   2.207
52112W        W17339  15.764  12.432  12.612
52113W        W17340   4.322   7.189   4.121
52114W        W17341  36.964  11.987  11.152
52115W        W17342  29.459  40.959   3.393
52116W        W17343  18.658   3.891  13.482
52117W        W17344  12.175  33.957  14.746
52118W        W17345  41.357  20.024   1.328
52119W        W17346   1.019  21.306  14.792
52120W        W17347  26.754  34.976  13.449
52121W        W17348   1.440   4.076   3.191
52122W        W17349  22.735  20.326  14.388
52123W        W17350  32.640  37.132   0.352
52124W        W17351  41.114   0.650  11.904
52125W        W17352  24.074   3.570   0.391
52126W        W17353  20.287  30.142   3.770
52127W        W17354  33.080  24.793   3.566
52128W        W17355  34.283   0.558  12.625
52129W        W17356  42.237  25.019   0.189
52130W        W17357  30.365  29.016   1.684
52131W        W17358  19.236  44.827  10.718
52132W        W17359  25.153  38.586   2.718
52133W        W17360  11.817  26.807   2.921
52134W        W17361  38.322  18.031  13.411
52135W        W17362  15.730  36.594  11.430
52136W        W17363  32.416  17.665  10.158
52137W        W17364  16.393  16.541  10.955
52138W        W17365  30.452   7.795   4.083
52139W        W17366  35.388  18.554  12.795
52140W        W17367  31.228  21.157  11.225
52141W        W17368  28.682  40.441  13.694
52142W        W17369  17.918  32.088   3.728
52143W        W17370  15.177  35.734  14.364
52144W        W17371  35.016   2.719  14.377
52145W        W17372  10.923   7.779   3.775
52146W        W17373  23.359  27.997  14.859
52147W        W17374  42.272  26.683   2.777
52148W        W17375   6.420  32.922   2.457
52149W        W17376  23.502  28.495   1.660
52150W        W17377  36.888  33.425  13.785
52151W        W17378  18.285  28.991  14.013
52152W        W17379  21.278   9.400  10.656
52153W        W17380   7.216   8.766  14.436
52154W        W17381   1.948   1.818   3.395
52155W        W17382   8.704  10.200   0.777
52156W        W17383   4.347  43.274  12.880
52157W        W17384  29.918  28.188   1.780
52158W        W17385  38.921  14.817  11.973
52159W        W17386  43.516  31.923   0.851
52160W        W17387   8.671  34.004   0.931
52161W        W17388  23.483   0.720   0.461
52162W        W17389  30.964  20.250  10.856
52163W        W17390   7.661   0.047   1.301
52164W        W17391  10.095  28.359  11.200
52165W        W17392  43.589  15.539  10.929
52166W        W17393  14.208  20.595  13.367
52167W        W17394   8.376  14.761  13.738
52168W        W17395  17.896  39.615   2.454
52169W        W17396  11.792  37.139  13.018
52170W        W17397   6.686  15.296   0.782
52171W        W17398  44.813  11.782   0.219
52172W        W17399  38.597  20.941   2.256
52173W        W17400  21.643   4.301   1.090
52174W        W17401   8.957   6.358   5.062
52175W        W17402  36.848   6.104  12.888
52176W        W17403   9.484   3.555  11.276
52177W        W17404  10.831   3.830   0.869
52178W        W17405   0.013  41.814   1.655
52179W        W17406  33.075  10.309  11.625
52180W        W17407  24.083  18.434  11.550
52181W        W17408  33.431  16.039   3.128
52182W        W17409  42.912  24.973   3.478
52183W        W17410  23.996  42.947   0.090
52184W        W17411  31.988  18.349   0.154
52185W        W17412  24.542  37.987  11.175
52186W        W17413  15.111   9.378   2.225
52187W        W17414  11.884  42.335  11.638
52188W        W17415  35.308  44.008  14.095
52189W        W17416  13.234  18.014  11.628
52190W        W17417   3.224  37.663   5.152
52191W        W17418  13.782   5.205   2.740
52192W        W17419  40.679   3.836  10.773
52193W        W17420  33.540  41.044  12.940
52194W        W17421   9.634  34.125   0.394
52195W        W17422  33.711  44.478   2.128
52196W        W17423   6.347  41.917  12.863
52197W        W17424   5.753  11.770   4.851
52198W        W17425  30.914  23.567   4.642
52199W        W17426   4.995  24.215  12.937
52200W        W17427  20.364  35.102   1.325
52201W        W17428  22.933  31.440   0.698
52202W        W17429  26.575  44.023   1.839
52203W        W17430  16.548  24.995  13.314
52204W        W17431   7.703  36.047   2.323
52205W        W17432   0.976  36.294  13.520
52206W        W17433  27.663  40.525  12.479
52207W        W17434  41.462  31.098  11.569
52208W        W17435  13.593  41.014  12.062
52209W        W17436  36.534  20.367   0.332
52210W        W17437  29.110   7.788   4.562
52211W        W17438   3.888   3.162  12.433
52212W        W17439  44.395  19.843  10.524
52213W        W17440  32.507   6.132   3.264
52214W        W17441   6.148  11.368   0.313
52215W        W17442  18.197  38.898   3.630
52216W        W17443  27.650   3.148  11.549
52217W        W17444  16.339  38.432   4.058
52218W        W17445  21.119  42.137  12.219
52219W        W17446  20.700  37.627  10.622
52220W        W17447  25.323  20.738   3.679
52221W        W17448  23.967  14.799  13.371
52222W        W17449  12.263   2.341   1.165
52223W        W17450  39.338   4.142   3.701
52224W        W17451  13.866   3.809  11.976
52225W        W17452   3.791  11.942   2.170
52226W        W17453   6.743   5.307  13.174
52227W        W17454  16.858   8.214  12.481
52228W        W17455  35.147  44.706  10.920
52229W        W17456   0.505  12.388   2.195
52230W        W17457  40.285  26.503  12.156
52231W        W17458  38.665   3.138  11.207
52232W        W17459  14.255  13.444  13.418
52233W        W17460  18.355   1.405  11.540
52234W        W17461   5.250  25.910   0.598
52235W        W17462   6.965  38.419  13.923
52236W        W17463  13.071  29.631  10.492
52237W        W17464  30.623   5.935  13.156
52238W        W17465   3.378  37.439  11.922
52239W        W17466  35.321  16.622  12.549
52240W        W17467  30.616   2.269   1.765
52241W        W17468  43.043  22.749   2.765
52242W        W17469  23.754  19.009   4.171
52243W        W17470  28.365  26.186  10.079
52244W        W17471  28.950   4.415   4.039
52245W        W17472   0.943  11.586   3.186
52246W        W17473  20.450  24.622   0.355
52247W        W17474  11.590  43.974  10.008
52248W        W17475   3.093  43.419  11.192
52249W        W17476   5.781  30.045  11.519
52250W        W17477  25.250   1.993  12.025
52251W        W17478  44.081  26.632  11.571
52252W        W17479  29.187   6.254  10.642
52253W        W17480  15.499  31.108  14.626
52254W        W17481  11.633  21.609   3.344
52255W        W17482  31.630  28.165  13.715
52256W        W17483  14.846  30.364  11.058
52257W        W17484  20.796  16.066  11.177
52258W        W17485  10.347  44.006   2.632
52259W        W17486  37.622   7.661   4.496
52260W        W17487  43.357  32.215  13.165
52261W        W17488  26.813  23.045  10.869
52262W        W17489  35.455  10.448  11.557
52263W        W17490  20.644  39.663  10.810
52264W        W17491  20.500  23.899   3.403
52265W        W17492  39.877   8.187   0.553
52266W        W17493  10.177  12.348   2.853
52267W        W17494  44.419  18.339   3.090
52268W        W17495  24.101  36.061  11.262
52269W        W17496  42.400  25.720  12.339
52270W        W17497  27.784  18.968  13.473
52271W        W17498  34.156  35.838  12.026
52272W        W17499  20.116   7.751   0.898
52273W        W17500  23.087  19.094   3.585
52274W        W17501  30.143   6.048   4.013
52275W        W17502   9.706   1.327   2.097
52276W        W17503  32.077  29.070   3.845
52277W        W17504  32.028  41.475   4.675
52278W        W17505  14.434  27.974  11.165
52279W        W17506  36.414  37.594   0.004
52280W        W17507  28.218   2.314  13.008
52281W        W17508  23.574  25.262  14.531
52282W        W17509  14.138  11.143   1.940
52283W        W17510   3.391  31.448  14.894
52284W        W17511  12.397  30.375  11.154
52285W        W17512   6.341  11.802   0.557
52286W        W17513  41.303  41.457  11.536
52287W        W17514   9.948  32.656   2.335
52288W        W17515   0.178   8.219   2.221
52289W        W17516   2.929  39.861  10.758
52290W        W17517   9.165  25.722   2.251
52291W        W17518  34.976   5.635  14.341
52292W        W17519  38.016  44.327   4.357
52293W        W17520  15.052  19.778  13.256
52294W        W17521  17.507  20.612  12.379
52295W        W17522  27.435  21.667   1.983
52296W        W17523  30.842  22.515  10.573
52297W        W17524  10.412  42.523   0.849
52298W        W17525  26.524  42.955   3.220
52299W        W17526  17.731  18.819   2.827
52300W        W17527  32.043  19.113  14.558
52301W        W17528   5.208  28.998   0.693
52302W        W17529   0.935  35.132  11.801
52303W        W17530  42.440  36.057  13.620
52304W        W17531  35.300  40.896  12.425
52305W        W17532  18.177  22.428  12.497
52306W        W17533  11.908  21.707  14.784
52307W        W17534  16.078  12.719   4.398
52308W        W17535  37.977   1.937   3.181
52309W        W17536  37.777  37.369   4.206
52310W        W17537   2.457  20.164   2.238
52311W        W17538  31.908   9.207  10.494
52312W        W17539  11.911  19.050  12.804
52313W        W17540  34.465  25.829   2.791
52314W        W17541  11.807  24.315   3.135
52315W        W17542  18.056   1.198   3.342
52316W        W17543  32.180  19.624  14.699
52317W        W17544  13.615  33.431  14.980
52318W        W17545  11.540   8.419   2.273
52319W        W17546  32.180  31.634  11.095
52320W        W17547  15.790   7.076   4.423
52321W        W17548  30.515  23.154   1.894
52322W        W17549  31.557  17.991   3.166
52323W        W17550  24.633  26.179  13.577
52324W        W17551  29.101   5.123   2.708
52325W        W17552  29.907  13.236  12.328
52326W        W17553  39.604  43.925  13.134
52327W        W17554  13.152   1.423  12.617
52328W        W17555  14.786  13.695  14.384
52329W        W17556  30.862  17.957  12.522
52330W        W17557  33.108  23.254   1.808
52331W        W17558   9.147   7.192   2.031
52332W        W17559  18.880  35.148  11.121
52333W        W17560  24.708  30.322  12.301
52334W        W17561  40.561   4.304  11.968
52335W        W17562   3.341  30.023   0.767
52336W        W17563  26.656  20.663  10.471
52337W        W17564  41.382  27.473  12.000
52338W        W17565  14.669  42.735  13.122
52339W        W17566  39.450  42.512  13.365
52340W        W17567  18.137   7.643   0.470
52341W        W17568   3.485  29.529  13.836
52342W        W17569  17.275  14.890  12.387
52343W        W17570  21.053  21.312   3.249
52344W        W17571  33.932  12.150  11.019
52345W        W17572  36.370   0.985  14.795
52346W        W17573   6.755  26.716   4.630
52347W        W17574   9.079  42.327  10.664
52348W        W17575  43.937  22.215   5.587
52349W        W17576  42.957  39.557   4.593
52350W        W17577  17.366  26.899   0.825
52351W        W17578  11.084  44.542  12.063
52352W        W17579   6.764   0.622   0.965
52353W        W17580  43.569  39.614   0.733
52354W        W17581  12.276  33.185   5.078
52355W        W17582  36.841  17.761   3.605
52356W        W17583  23.468  33.403  13.072
52357W        W17584  42.491   9.295   0.930
52358W        W17585   7.422  34.399  11.508
52359W        W17586  23.507  23.628  13.101
52360W        W17587  36.054   5.020   1.307
52361W        W17588  34.866  12.117   1.468
52362W        W17589  26.636  43.913  11.537
52363W        W17590  19.142  26.408   3.857
52364W        W17591  27.864  21.305   3.696
52365W        W17592  29.268  32.461  13.024
52366W        W17593   1.856  25.434   4.620
52367W        W17594  15.737   1.202  10.659
52368W        W17595  40.352   9.152   5.028
52369W        W17596  18.458   9.684   3.124
52370W        W17597  40.754  23.507  13.982
52371W        W17598  30.570  24.063  13.411
52372W        W17599  16.078  38.871   2.935
52373W        W17600  43.766  24.267   3.347
52374W        W17601  14.346  25.585   4.664
52375W        W17602  22.674  43.713  14.707
52376W        W17603   2.488  14.176  13.412
52377W        W17604  20.410  30.271  12.072
52378W        W17605  10.609  35.125   2.358
52379W        W17606  21.031  39.906  13.028
52380W        W17607  32.855  35.253  11.638
52381W        W17608  15.620  43.540  11.590
52382W        W17609   3.878  43.930  11.768
52383W        W17610   5.766   5.224  14.832
52384W        W17611  15.207   5.703  13.869
52385W        W17612  44.511   8.280  14.949
52386W        W17613  11.002   7.169  12.144
52387W        W17614   2.308  11.197   0.943
52388W        W17615  38.750   3.927  13.638
52389W        W17616   2.274  40.063  12.528
52390W        W17617   7.252  15.352   1.517
52391W        W17618  33.997  11.122   1.120
52392W        W17619   8.200  27.538   4.592
52393W        W17620   2.955  14.336  13.537
52394W        W17621   0.877   7.454   1.721
52395W        W17622  14.137  41.271   3.707
52396W        W17623   1.409   4.604   0.220
52397W        W17624  17.163   0.927   0.845
52398W        W17625  34.071  20.270   3.926
52399W        W17626  41.521  41.435  13.418
52400W        W17627  32.479   7.862   3.370
52401W        W17628  25.547   5.438  12.432
52402W        W17629  37.500  35.134  12.036
52403W        W17630  13.782  22.006  11.879
52404W        W17631  30.920  32.454   1.902
52405W        W17632  33.141  10.264   0.766
52406W        W17633   9.361  33.956  10.903
52407W        W17634  25.734  21.592   4.591
52408W        W17635   3.221  33.431   3.652
52409W        W17636  10.456  23.397  11.342
52410W        W17637  10.962  42.664  12.944
52411W        W17638  27.073   9.466  13.126
52412W        W17639   3.656  34.829   3.211
52413W        W17640  28.219  32.901   1.329
52414W        W17641  14.622  23.247   1.729
52415W        W17642  37.829   3.186  14.513
52416W        W17643  19.571   2.477  12.574
52417W        W17644  38.478   0.141  13.897
52418W        W17645   2.237  10.148   1.690
52419W        W17646  10.041  44.914   2.108
52420W        W17647  31.319  14.979   1.854
52421W        W17648  36.574  19.561  12.999
52422W        W17649  31.383  13.716   3.301
52423W        W17650  26.980   3.348   2.113
52424W        W17651  24.494  38.169  13.956
52425W        W17652  39.964  26.502  11.407
52426W        W17653  13.302  36.341  14.539
52427W        W17654   6.825  27.518   4.118
52428W        W17655   2.992   8.163   0.783
52429W        W17656  34.010  39.785  13.462
52430W        W17657  13.178  33.316   1.307
52431W        W17658  19.571  36.773  14.087
52432W        W17659  34.706   3.025   3.772
52433W        W17660  29.951   5.860  12.397
52434W        W17661  29.518  14.607   1.178
52435W        W17662  12.615  42.968   4.622
52436W        W17663  14.985  34.341  13.321
52437W        W17664  21.974  22.198   2.826
52438W        W17665   6.963  41.369   3.844
52439W        W17666  14.040   6.458   1.763
52440W        W17667  21.503  33.956   4.133
52441W        W17668  40.873  37.010  12.914
52442W        W17669  43.644   0.320   2.400
52443W        W17670  28.048  43.995   2.684
52444W        W17671  15.715  42.828  14.990
52445W        W17672  11.742  43.922   2.117
52446W        W17673  20.344   0.295  13.123
52447W        W17674  30.359  19.068   4.624
52448W        W17675  26.165  21.203   0.421
52449W        W17676  22.301  26.002  12.897
52450W        W17677  43.798   6.973  11.521
52451W        W17678   4.916  10.952  12.055
52452W        W17679  23.266  17.544   3.744
52453W        W17680  39.382  20.407  10.589
52454W        W17681   3.899   0.514  12.105
52455W        W17682  36.812  25.803   2.824
52456W        W17683  42.205  15.573   0.806
52457W        W17684  37.043   8.411  13.867
52458W        W17685   5.214   5.694  12.508
52459W        W17686  20.656  11.378   1.250
52460W        W17687  10.310  42.024   1.829
52461W        W17688  15.773  20.486  13.986
52462W        W17689   4.670  34.840   2.250
52463W        W17690  16.251  32.431  12.823
52464W        W17691  29.742  37.831  11.711
52465W        W17692  29.461  28.978  14.045
52466W        W17693  19.347  28.677   1.266
52467W        W17694  22.718   0.100   1.563
52468W        W17695  34.123  43.545   0.598
52469W        W17696  31.595   4.411   1.794
52470W        W17697  36.643   6.724   0.515
52471W        W17698  41.413  11.346  14.718
52472W        W17699  11.739  35.495   2.258
52473W        W17700  36.429  44.392   2.264
52474W        W17701   9.758  16.795  11.956
52475W        W17702   8.795  32.605   4.461
52476W        W17703  24.999  31.986  13.009
52477W        W17704  42.038  30.834  14.369
52478W        W17705  25.709   4.443  13.997
52479W        W17706   2.454  19.580   1.713
52480W        W17707  20.680  11.984   2.867
52481W        W17708  24.015  38.827   1.384
52482W        W17709  37.285  28.554   4.193
52483W        W17710   5.095  33.328   4.537
52484W        W17711  16.672  14.126   1.414
52485W        W17712  42.380  26.964  12.908
52486W        W17713  43.935   4.996   2.720
52487W        W17714   6.211  38.755  12.460
52488W        W17715   5.725  37.310  13.020
52489W        W17716  33.143  17.257  11.337
52490W        W17717  18.649   2.811   4.501
52491W        W17718   0.051  17.024  11.597
52492W        W17719  44.299  40.181   0.810
52493W        W17720  21.812  42.339   1.888
52494W        W17721   2.432   1.951   3.180
52495W        W17722   3.534  31.895  14.185
52496W        W17723  41.409   3.668   1.680
52497W        W17724  15.744  29.936  13.843
52498W        W17725  35.405   6.956   3.714
52499W        W17726  16.601  20.934   2.382
52500W        W17727  33.898   7.867   1.734
52501W        W17728  21.961  43.315  12.158
52502W        W17729  17.058  31.961   3.103
52503W        W17730  24.797   5.611  11.387
52504W        W17731   6.021  35.417   1.006
52505W        W17732  25.499  15.124  11.707
52506W        W17733  22.517  30.913  14.835
52507W        W17734  11.238  32.531   3.183
52508W        W17735  37.874  24.467  12.654
52509W        W17736  38.467   5.886   2.887
52510W        W17737  22.178  28.031   1.798
52511W        W17738  18.264  32.521  12.154
52512W        W17739  43.529  43.706   3.318
52513W        W17740  26.654  30.408   1.834
52514W        W17741   0.348   8.388   1.347
52515W        W17742  13.261  29.221  13.506
52516W        W17743   8.647   9.175  14.883
52517W        W17744   2.165  25.532   1.824
52518W        W17745  26.500  29.034   2.343
52519W        W17746  20.692  18.453  14.524
52520W        W17747  34.489  19.264  14.259
52521W        W17748  20.448  24.598   4.200
52522W        W17749  43.144  27.484  10.187
52523W        W17750   6.533   4.358  11.069
52524W        W17751  10.838   1.763   2.829
52525W        W17752  16.115   9.952  13.444
52526W        W17753   5.127  22.136   1.778
52527W        W17754  25.693   4.675  13.280
52528W        W17755  10.817  35.820  11.652
52529W        W17756  39.402  28.911  12.366
52530W        W17757  38.874  21.577  11.153
52531W        W17758  21.270  27.757   4.533
52532W        W17759  37.119  39.411   4.035
52533W        W17760  39.898   0.889   2.777
52534W        W17761  17.651  17.567  10.605
52535W        W17762  43.261  34.375  13.441
52536W        W17763  39.343  22.462  12.565
52537W        W17764  39.620  44.583  11.075
52538W        W17765  11.856   3.673  12.635
52539W        W17766  26.412  34.617   0.346
52540W        W17767  30.725  28.127  13.559
52541W        W17768  41.617  30.138   2.967
52542W        W17769  41.011  28.647   3.751
52543W        W17770  40.907  39.514   4.327
52544W        W17771   7.689  23.198   1.388
52545W        W17772  27.338   4.839  10.761
52546W        W17773  22.161  26.192   4.577
52547W        W17774  40.297  32.918  14.591
52548W        W17775   7.432  31.546  10.539
52549W        W17776  42.484  32.047   0.865
52550W        W17777   4.572  29.084  10.610
52551W        W17778  28.786   8.739   2.235
52552W        W17779  36.237  25.681  14.347
52553W        W17780   0.781   7.667  14.919
52554W        W17781  29.793   7.345   2.033
52555W        W17782   8.270  17.333  12.482
52556W        W17783  43.820   6.808  12.460
52557W        W17784  17.442  34.992  13.346
52558W        W17785  11.915   1.706  11.212
52559W        W17786  16.269  26.378  10.555
52560W        W17787  20.763  36.933   3.100
52561W        W17788  16.306   1.904  14.768
52562W        W17789  24.320  16.152  13.090
52563W        W17790  18.813  12.259   4.522
52564W        W17791  26.194  31.787   2.712
52565W        W17792  20.335   2.984   5.556
52566W        W17793  34.950  23.588   0.217
52567W        W17794  18.674  10.640   1.712
52568W        W17795  23.559  35.090   3.366
52569W        W17796   2.102   1.205  11.601
52570W        W17797   8.425  15.564   0.340
52571W        W17798  40.864  13.208  11.896
52572W        W17799  37.111  22.053  13.913
52573W        W17800   6.691  23.690   0.729
52574W        W17801  23.169  37.712   3.186
52575W        W17802  43.899  19.269  13.789
52576W        W17803  24.182  12.611  11.148
52577W        W17804   6.477   1.245  13.963
52578W        W17805  28.119  12.304   2.756
52579W        W17806  20.621   0.044  11.479
52580W        W17807  42.904  10.578   4.133
52581W        W17808  28.024  39.827  10.231
52582W        W17809   6.811  16.253   2.352
52583W        W17810  35.528  35.757   0.822
52584W        W17811  16.538  25.958  11.284
52585W        W17812   6.636  11.833  11.344
52586W        W17813  18.017  34.402   4.167
52587W        W17814  31.710  35.438  11.660
52588W        W17815  43.929  32.386  12.886
52589W        W17816   8.658   3.445   2.214
52590W        W17817   5.280  22.975   1.553
52591W        W17818  10.227  26.054   4.647
52592W        W17819  23.661   2.452  12.543
52593W        W17820  41.512   7.954   0.873
52594W        W17821  29.126  33.129   1.792
52595W        W17822  24.171  21.120   2.733
52596W        W17823  29.240   5.541   3.224
52597W        W17824  23.010  36.802  12.921
52598W        W17825  16.140   2.512  13.533
52599W        W17826   0.488  23.313   3.259
52600W        W17827  41.017  11.159   0.541
52601W        W17828  37.978   9.296   4.016
52602W        W17829  32.664  38.283   4.632
52603W        W17830  21.604  30.484  10.379
52604W        W17831  24.877  12.920  11.745
52605W        W17832  17.348  38.093   2.613
52606W        W17833  38.041  15.524   1.343
52607W        W17834   8.849  28.539   1.700
52608W        W17835  25.779   3.200  14.275
52609W        W17836  41.701  25.735   3.947
52610W        W17837  40.642   7.958   0.352
52611W        W17838  12.709   2.694  12.629
52612W        W17839  25.122  21.736   1.982
52613W        W17840  42.784  30.079  12.100
52614W        W17841  22.414  24.451  12.329
52615W        W17842  18.321  15.074   3.733
52616W        W17843  43.484  35.397  10.984
52617W        W17844  30.575  27.211  11.189
52618W        W17845  27.252  24.512   2.877
52619W        W17846   7.438  28.494  11.610
52620W        W17847  26.278   9.191   0.371
52621W        W17848   1.275  39.849   4.549
52622W        W17849  11.542  17.514  10.703
52623W        W17850  17.962   1.800  12.218
52624W        W17851  20.675  14.538   5.130
52625W        W17852   5.316  37.867   4.607
52626W        W17853  31.615  17.083   1.222
52627W        W17854  18.659   1.756  10.858
52628W        W17855   1.194  12.860  11.155
52629W        W17856  31.237  18.710  13.495
52630W        W17857  26.617  11.379   3.189
52631W        W17858  23.971  35.605  14.259
52632W        W17859  13.213   9.565  14.908
52633W        W17860   7.734   1.604  14.932
52634W        W17861   1.879  11.417   0.121
52635W        W17862  24.412  33.881  12.540
52636W        W17863  41.585  36.840  11.218
52637W        W17864  18.404   6.945   1.263
52638W        W17865  36.033  17.028  12.942
52639W        W17866  14.225   9.566   2.830
52640W        W17867  31.855  41.009  14.042
52641W        W17868  25.590   9.634  12.035
52642W        W17869  10.521   3.088   5.097
52643W        W17870   6.112   7.795  14.300
52644W        W17871  29.111  41.540  13.911
52645W        W17872  28.094   9.791   1.722
52646W        W17873   6.233  36.932   2.954
52647W        W17874   3.234   9.384   1.816
52648W        W17875   0.062  32.598  14.784
52649W        W17876   1.035   5.451  13.028
52650W        W17877  20.941  37.028  12.856
52651W        W17878  11.881  20.755  11.285
52652W        W17879  10.307  14.127   4.562
52653W        W17880  30.588  24.547  12.920
52654W        W17881  41.045  18.294  14.760
52655W        W17882  19.015  28.242   4.066
52656W        W17883  37.534  34.166   0.448
52657W        W17884  21.332  14.586   1.256
52658W        W17885  31.602   4.853  11.713
52659W        W17886   1.838   4.836  12.032
52660W        W17887  14.756  15.151   3.804
52661W        W17888  33.553  17.480   3.234
52662W        W17889  31.047  29.621  13.438
52663W        W17890  20.003  17.753  13.481
52664W        W17891  38.976  24.324   3.209
52665W        W17892  23.628  10.929  14.944
52666W        W17893  36.954   1.968   1.236
52667W        W17894  31.440   8.715  12.079
52668W        W17895  12.772  35.814  13.341
52669W        W17896  37.677  33.947  10.683
52670W        W17897  18.144   6.266   1.470
52671W        W17898  14.366  40.874   2.824
52672W        W17899  31.253  15.599  13.002
52673W        W17900  18.851  12.798   2.845
52674W        W17901   5.422  21.529  10.802
52675W        W17902   8.287  11.583  14.849
52676W        W17903  17.001  34.914  14.414
52677W        W17904  25.481  22.833   1.628
52678W        W17905  29.132  11.060  13.602
52679W        W17906   7.266   5.079   0.073
52680W        W17907  30.918   8.184  13.479
52681W        W17908   9.525   3.472   4.974
52682W        W17909   7.946  21.573  10.515
52683W        W17910  39.822   9.666   1.658
52684W        W17911  11.053   1.813   2.370
52685W        W17912   8.549  21.045   1.921
52686W        W17913  27.724  20.237   0.378
52687W        W17914  40.552  35.171  12.099
52688W        W17915  32.995  44.199   3.704
52689W        W17916  30.994   0.952   2.931
52690W        W17917  42.831  23.521  12.608
52691W        W17918  12.920   8.460   0.904
52692W        W17919  13.706  34.400  11.558
52693W        W17920  19.558  40.922  12.050
52694W        W17921  11.351  21.251  14.557
52695W        W17922   8.442  18.348  10.795
52696W        W17923   8.260  23.439  12.080
52697W        W17924  43.745  17.242   3.566
52698W        W17925   5.939  34.530   1.224
52699W        W17926   7.300  41.059   3.353
52700W        W17927   7.347  30.361  12.083
52701W        W17928  12.450  30.872  12.483
52702W        W17929  16.960  26.123  12.952
52703W        W17930  30.282  26.513   1.196
52704W        W17931  10.773   2.506   3.763
52705W        W17932  26.507  41.613   1.266
52706W        W17933  30.926   6.109  12.023
52707W        W17934  41.838  37.625   0.917
52708W        W17935  44.562   4.235   0.706
52709W        W17936  38.571  18.878   0.066
52710W        W17937  35.706  33.960   0.333
52711W        W17938  41.576  27.060  14.725
52712W        W17939  11.236  42.877   3.130
52713W        W17940  40.404   4.534  11.532
52714W        W17941  19.752   8.081   5.033
52715W        W17942   1.473  25.449  12.541
52716W        W17943  11.734  13.265   4.153
52717W        W17944  17.206  11.380   3.833
52718W        W17945  33.112  29.136   3.706
52719W        W17946  37.824   4.198  14.530
52720W        W17947  28.597  21.508  14.263
52721W        W17948   0.169   4.380  13.317
52722W        W17949   8.219  35.690  14.557
52723W        W17950  32.548   8.073   4.635
52724W        W17951  17.496  43.061  14.919
52725W        W17952  33.208  27.839  14.565
52726W        W17953  40.775  42.938  11.715
52727W        W17954  12.209  32.173   2.489
52728W        W17955   9.157   6.256  12.967
52729W        W17956  24.643  31.140  14.846
52730W        W17957  34.239  21.535  14.883
52731W        W17958   3.624  20.766   4.159
52732W        W17959  36.657  16.269  12.111
52733W        W17960  10.689  19.257  10.345
52734W        W17961  17.427  35.918   2.924
52735W        W17962  43.939  27.963  10.270
52736W        W17963  29.087   5.194  13.105
52737W        W17964  14.872  24.634   0.920
52738W        W17965  10.232   4.435  11.505
52739W        W17966  23.922  28.009   3.905
52740W        W17967  44.993   3.777   1.871
52741W        W17968  24.780  18.237   0.318
52742W        W17969   6.562   7.149  10.740
52743W        W17970  44.446  41.260   0.919
52744W        W17971  42.643  44.654  12.500
52745W        W17972   6.362   7.269   4.611
52746W        W17973  13.712  32.345   1.029
52747W        W17974  31.341  16.661   3.187
52748W        W17975  43.282  12.096   0.338
52749W        W17976  20.594  21.037  12.990
52750W        W17977  22.048   9.776   1.207
52751W        W17978  13.225  34.953  13.374
52752W        W17979  20.045  40.085   0.827
52753W        W17980  35.902  38.294   4.183
52754W        W17981  19.942  34.989  12.497
52755W        W17982  15.595  14.760  11.130
52756W        W17983  19.146  35.597   4.143
52757W        W17984  10.248  36.358  14.521
52758W        W17985  25.242  25.675   1.861
52759W        W17986  10.364   1.118   1.362
52760W        W17987  29.555  14.015   1.825
52761W        W17988  32.190  10.805   2.560
52762W        W17989  26.387   4.907  11.119
52763W        W17990   2.923  16.015   4.473
52764W        W17991  42.920  11.752   4.007
52765W        W17992  32.380  30.967   2.826
52766W        W17993  37.331   6.094  12.018
52767W        W17994  10.240  28.860  12.524
52768W        W17995  13.312  24.166   3.222
52769W        W17996   8.859  31.458   1.769
52770W        W17997  24.057   8.667  12.456
52771W        W17998  39.309  20.776  14.933
52772W        W17999  16.162  38.004  12.034
52773W        W18000   5.609  14.404   1.881
52774W        W18001   4.889  18.273  10.589
52775W        W18002   6.879  22.251   0.941
52776W        W18003   1.059  19.188  14.405
52777W        W18004  37.554  28.981   4.206
52778W        W18005  44.883  16.769   3.673
52779W        W18006  13.869  20.029  12.933
52780W        W18007  28.334   2.865   0.565
52781W        W18008  42.495   6.735  10.645
52782W        W18009  37.440   6.019   1.826
52783W        W18010  12.972  14.476   0.178
52784W        W18011  27.670   2.549   0.791
52785W        W18012  34.522  11.230  14.025
52786W        W18013  17.534  25.742   4.244
52787W        W18014   5.254  15.244   5.669
52788W        W18015  30.245  28.323   1.361
52789W        W18016  18.350  25.201  11.557
52790W        W18017   1.262  29.245  14.975
52791W        W18018  43.756  40.877  12.349
52792W        W18019  17.868  12.868  13.285
52793W        W18020   1.833  31.745  12.604
52794W        W18021  20.859  38.794   3.154
52795W        W18022  41.378   6.230  14.339
52796W        W18023  42.021  40.426   2.810
52797W        W18024   5.068   9.912   0.435
52798W        W18025   6.381  26.668   2.303
52799W        W18026  34.659  40.032  10.630
52800W        W18027  23.400  41.001   4.628
52801W        W18028   6.160  24.214  13.482
52802W        W18029   2.296  33.168   2.410
52803W        W18030   6.206   1.344   4.261
52804W        W18031  33.591  15.392  14.069
52805W        W18032  38.559  26.094   4.512
52806W        W18033  36.503   3.390   2.806
52807W        W18034  38.049  15.151  12.839
52808W        W18035   9.191  22.517  13.810
52809W        W18036   0.413  43.322   5.323
52810W        W18037  18.329  28.644   2.720
52811W        W18038  21.059   3.987  12.631
52812W        W18039  26.202   0.497  10.328
52813W        W18040  24.157  30.319   4.098
52814W        W18041  43.039  20.720   2.431
52815W        W18042  39.873  30.549   3.143
52816W        W18043  28.657  22.906   0.501
52817W        W18044  34.906  15.809   0.790
52818W        W18045   2.149  12.883  14.014
52819W        W18046   7.623  28.348  12.909
52820W        W18047  12.061  20.215  13.840
52821W        W18048   1.216   9.029  12.333
52822W        W18049  18.302  28.623   0.503
52823W        W18050  26.072  21.150  13.546
52824W        W18051  39.470   4.639  10.696
52825W        W18052   7.439  23.518   0.367
52826W        W18053  43.901  39.367   2.596
52827W        W18054   7.775  42.673  14.287
52828W        W18055  39.781   5.219   1.408
52829W        W18056  44.260  22.559  13.004
52830W        W18057   2.203  33.515  12.088
52831W        W18058  19.549  28.121  11.074
52832W        W18059  15.530  42.978  12.587
52833W        W18060  20.665   7.602  11.751
52834W        W18061  26.920  20.102  10.909
52835W        W18062  41.684  33.849   3.663
52836W        W18063  14.538  26.045  11.163
52837W        W18064  17.544  39.127  13.749
52838W        W18065  39.358   2.829   3.727
52839W        W18066   3.201  10.013  13.116
52840W        W18067  41.674  38.494   4.708
52841W        W18068  10.825  32.166   3.203
52842W        W18069   3.868  26.548  13.645
52843W        W18070   9.754  12.852  12.639
52844W        W18071  41.286   0.650   3.102
52845W        W18072  23.754  39.562   3.325
52846W        W18073  42.550   7.006   4.601
52847W        W18074   7.225  37.910   3.841
52848W        W18075  16.316  33.883   1.868
52849W        W18076  35.526  29.627   1.883
52850W        W18077  25.413  33.616   3.178
52851W        W18078   4.212  36.521  14.964
52852W        W18079  34.556  26.746   3.698
52853W        W18080   6.226  14.157  14.834
52854W        W18081   9.704  40.969   1.430
52855W        W18082   1.289   4.405   4.501
52856W        W18083   0.342  23.524   2.825
52857W        W18084  38.371  23.199   2.683
52858W        W18085  13.292  28.017  12.456
52859W        W18086  28.690   8.533   2.899
52860W        W18087  18.140  28.121  11.489
52861W        W18088   7.941  27.134   1.656
52862W        W18089  18.181  31.360   3.649
52863W        W18090  21.781  23.707   3.067
52864W        W18091   4.618  24.654  14.303
52865W        W18092  30.615  24.954   3.653
52866W        W18093  29.560  43.892   2.238
52867W        W18094  15.583   6.802  10.800
52868W        W18095  42.633  10.354   2.868
52869W        W18096  33.708  11.566  11.644
52870W        W18097  28.429  25.008  14.896
52871W        W18098  25.289  13.796  11.107
52872W        W18099  30.973  30.926  11.471
52873W        W18100  43.900   3.928   0.842
52874W        W18101  40.460  29.210   4.607
52875W        W18102  41.310  11.211   2.269
52876W        W18103  19.979  20.976   0.896
52877W        W18104  21.255  43.455   1.113
52878W        W18105  10.842  20.242  10.962
52879W        W18106  26.152  37.459   1.730
52880W        W18107  16.250   0.060   0.925
52881W        W18108  32.621   2.344   2.732
52882W        W18109  18.999  40.492   2.211
52883W        W18110  41.059   4.393  11.992
52884W        W18111  20.358  43.075   5.011
52885W        W18112   4.332   9.384  13.710
52886W        W18113  15.090  36.848   1.733
52887W        W18114  23.860  44.866  11.144
52888W        W18115  17.058  12.687   4.204
52889W        W18116   5.630  22.550   0.994
52890W        W18117  35.339   0.934   2.443
52891W        W18118   4.525  28.591   1.401
52892W        W18119  44.391  43.449  10.528
52893W        W18120  17.125  35.002  12.935
52894W        W18121   4.702   2.858  14.457
52895W        W18122  31.394  41.394   3.208
52896W        W18123  40.398   3.302   4.590
52897W        W18124   2.039  22.796  13.992
52898W        W18125  32.478   5.236  11.238
52899W        W18126  29.961  42.867   1.837
52900W        W18127  38.799   3.491   2.200
52901W        W18128  31.159   0.527   2.167
52902W        W18129   8.880  29.588   5.008
52903W        W18130  19.974  26.090  12.469
52904W        W18131  26.340  36.350   2.489
52905W        W18132  22.696  32.326   3.659
52906W        W18133   3.573  31.385   4.873
52907W        W18134   6.699   3.985  13.966
52908W        W18135  28.563  13.272  11.613
52909W        W18136  19.950  27.968   9.902
52910W        W18137  18.354  24.584  14.780
52911W        W18138   9.934  15.706  14.455
52912W        W18139  43.852   1.914  10.969
52913W        W18140  30.191   0.203   1.510
52914W        W18141  11.130  20.632   4.559
52915W        W18142  24.304  18.439  13.851
52916W        W18143  42.860  30.166  13.081
52917W        W18144  11.353  13.848  14.366
52918W        W18145  41.241  19.676  12.931
52919W        W18146   6.209  13.427   2.474
52920W        W18147  22.061  33.108  11.725
52921W        W18148  27.973  36.868  11.155
52922W        W18149  11.897  23.202  10.944
52923W        W18150  17.831  17.232  12.905
52924W        W18151   8.688   5.307  11.129
52925W        W18152  18.727  43.341   0.406
52926W        W18153  18.131  29.140  10.550
52927W        W18154   2.427   8.611  14.961
52928W        W18155   1.971  14.835   0.641
52929W        W18156   8.483  15.703   1.224
52930W        W18157  13.492   7.367   3.210
52931W        W18158  15.319  34.005   3.628
52932W        W18159  21.116  30.597   2.471
52933W        W18160  37.801  36.423   2.666
52934W        W18161  15.774  29.953   2.182
52935W        W18162  20.699  20.642   0.825
52936W        W18163   1.476   5.422  12.031
52937W        W18164  28.474  19.130   4.139
52938W        W18165  32.609   2.280   4.627
52939W        W18166  28.942  36.058   0.868
52940W        W18167  23.374  28.651   2.640
52941W        W18168  38.884  37.528   0.942
52942W        W18169  19.654  40.299  10.873
52943W        W18170   6.179  17.231   3.638
52944W        W18171  22.658  11.303   1.576
52945W        W18172  33.281  44.999  12.001
52946W        W18173  10.214  10.174  11.651
52947W        W18174  16.586   0.483   2.380
52948W        W18175  27.537  30.785   2.425
52949W        W18176  23.432  43.994   1.780
52950W        W18177  42.504  27.926   4.873
52951W        W18178   3.032  39.832  14.506
52952W        W18179  10.223  26.244   1.928
52953W        W18180  18.014  20.576  10.530
52954W        W18181   9.383   9.533  11.134
52955W        W18182  35.537   9.026   0.370
52956W        W18183  26.898  13.201  13.447
52957W        W18184  24.126  27.610   3.625
52958W        W18185  43.771  26.048   1.414
52959W        W18186  36.850  16.912   4.206
52960W        W18187  27.402  38.492  11.082
52961W        W18188  38.180  13.955  10.117
52962W        W18189  21.075  24.928  11.129
52963W        W18190  12.302  27.979  11.372
52964W        W18191   7.804   5.872   0.282
52965W        W18192  10.788  43.572  14.308
52966W        W18193  43.301   7.933  14.420
52967W        W18194  15.060  29.196   4.470
52968W        W18195  14.693   2.482   0.803
52969W        W18196  37.382  33.867  11.982
52970W        W18197  11.320  25.480  11.034
52971W        W18198  26.253  35.482   4.289
52972W        W18199  42.087  33.615  13.311
52973W        W18200  26.032  11.059  14.595
52974W        W18201  37.032  22.930   4.286
52975W        W18202   8.981  37.563  13.427
52976W        W18203  18.841  34.502   3.364
52977W        W18204   5.216  24.642   1.933
52978W        W18205  34.177  11.938   3.713
52979W        W18206  17.261   8.549  12.044
52980W        W18207   4.757  38.591   3.232
52981W        W18208  17.721   1.802   2.896
52982W        W18209   1.447  14.529   0.393
52983W        W18210  26.916  33.894   0.930
52984W        W18211  17.084  17.935  11.320
52985W        W18212  27.378  29.343   0.420
52986W        W18213  13.172   9.586  11.530
52987W        W18214  11.099  36.392   1.345
52988W        W18215  22.408  39.493   1.318
52989W        W18216  19.065  25.007  14.447
52990W        W18217  23.216  44.508   2.189
52991W        W18218  32.349   4.240   2.445
52992W        W18219  23.495   3.024  11.353
52993W        W18220  11.799  11.182   4.265
52994W        W18221  24.700   6.830   0.415
52995W        W18222  19.217  10.671   3.798
52996W        W18223  13.191  25.860   3.887
52997W        W18224  15.135   6.166  12.857
52998W        W18225   5.226  23.718  13.853
52999W        W18226  38.822  15.181   1.749
53000W        W18227  34.470  34.170  12.979
53001W        W18228   7.826  16.380  10.329
53002W        W18229  26.348  42.345  12.793
53003W        W18230  12.761   6.297  14.549
53004W        W18231  43.295  20.781  14.674
53005W        W18232  36.420  36.403   2.339
53006W        W18233  30.091  17.369   2.879
53007W        W18234  20.138  22.378   1.465
53008W        W18235  36.366  37.961  11.156
53009W        W18236  33.413  26.975   1.398
53010W        W18237  33.526  26.702  11.197
53011W        W18238  37.422  30.338   4.190
53012W        W18239   4.286   1.418  11.022
53013W        W18240  18.633  35.616   4.355
53014W        W18241  17.749  31.720  12.013
53015W        W18242  23.489  14.710  13.170
53016W        W18243   2.055  17.665   2.931
53017W        W18244  37.962  28.084  10.629
53018W        W18245  28.505  28.151  13.971
53019W        W18246  40.809  21.484  12.162
53020W        W18247  36.790  23.626  14.255
53021W        W18248   9.696  39.107  10.975
53022W        W18249   3.465  35.405   2.168
53023W        W18250  11.158   0.887   0.333
53024W        W18251  30.102  35.460  12.562
53025W        W18252  31.143  21.711  11.413
53026W        W18253  37.988   5.824   2.592
53027W        W18254  36.774  43.845   4.179
53028W        W18255  14.580   6.686   2.346
53029W        W18256  43.046  20.905   3.754
53030W        W18257  14.592  19.749   3.167
53031W        W18258  25.149   1.480   0.674
53032W        W18259  33.065   8.030   4.596
53033W        W18260  24.556  24.178   0.065
53034W        W18261  27.766  42.940   4.687
53035W        W18262  15.683   1.697   2.742
53036W        W18263   1.375  24.330  14.300
53037W        W18264  10.607  25.720  13.536
53038W        W18265  18.975  34.947  13.282
53039W        W18266  43.876  30.821   2.713
53040W        W18267  41.955   5.416  13.438
53041W        W18268  10.982   9.642  11.113
53042W        W18269  37.520  26.686  11.565
53043W        W18270  37.539  41.416  12.358
53044W        W18271  21.267  17.521   0.094
53045W        W18272  34.016   8.328  10.910
53046W        W18273  42.691  27.017  13.722
53047W        W18274   8.247  10.295  10.510
53048W        W18275  23.931  26.454  13.580
53049W        W18276   9.126   9.258  11.915
53050W        W18277  24.017  14.347   4.474
53051W        W18278  41.259  38.192   4.572
53052W        W18279  34.625   2.946  14.064
53053W        W18280  36.632   1.497  12.368
53054W        W18281  29.062   9.685   2.434
53055W        W18282   8.684  40.063  14.854
53056W        W18283   6.199   5.951  13.497
53057W        W18284   6.800  22.195   1.449
53058W        W18285  21.965  32.439  11.108
53059W        W18286  25.546  39.292   0.737
53060W        W18287  21.286  36.476  10.656
53061W        W18288  16.548  44.445  14.385
53062W        W18289   8.762  32.321   2.356
53063W        W18290  34.077  42.551  12.992
53064W        W18291   9.463  22.440   3.798
53065W        W18292  39.680   5.392   2.215
53066W        W18293  31.207  15.726   1.319
53067W        W18294  38.040  40.384   1.626
53068W        W18295  21.034  32.067  11.179
53069W        W18296  10.894   4.365  14.989
53070W        W18297  27.035   7.908  14.453
53071W        W18298  13.378   9.757   4.624
53072W        W18299  41.163  11.892   1.703
53073W        W18300   7.074  22.955   3.608
53074W        W18301  43.429  22.406   0.726
53075W        W18302  24.690  20.248   3.130
53076W        W18303   3.373  10.762  11.698
53077W        W18304   2.534  18.833   3.866
53078W        W18305   4.282  19.424   0.490
53079W        W18306  41.600   2.722   2.564
53080W        W18307  41.142   1.096  12.883
53081W        W18308  15.760  44.944   2.340
53082W        W18309  29.217   6.031   1.310
53083W        W18310  25.370  15.154   3.289
53084W        W18311  18.081  20.554   3.490
53085W        W18312   9.935  21.220  13.268
53086W        W18313  21.035  13.988   1.006
53087W        W18314  26.198  30.775   2.781
53088W        W18315   9.330   5.562   2.667
53089W        W18316  20.272  27.918  12.788
53090W        W18317  11.773  41.500  10.133
53091W        W18318   3.348  22.985  12.368
53092W        W18319  29.238   4.232  11.987
53093W        W18320   0.796  29.077   1.870
53094W        W18321   2.044  23.595  14.558
53095W        W18322   0.534  10.503  13.344
53096W        W18323  14.315   1.973  12.095
53097W        W18324  24.178  22.663   0.909
53098W        W18325  10.705   5.353   0.073
53099W        W18326   6.740  12.691   1.542
53100W        W18327  15.817  16.837   1.708
53101W        W18328  14.817  12.801  12.542
53102W        W18329  13.123   2.522   1.971
53103W        W18330   6.610  39.064  12.565
53104W        W18331  10.820  18.591   3.585
53105W        W18332  13.775  31.584  14.941
53106W        W18333  34.887  24.593  12.545
53107W        W18334  11.823  24.540   4.841
53108W        W18335   6.227   9.808   4.948
53109W        W18336   8.511   7.723  13.894
53110W        W18337  35.277  38.031  10.226
53111W        W18338  27.146  17.501  12.844
53112W        W18339  15.723   5.848   3.243
53113W        W18340  24.099   5.061  11.163
53114W        W18341  12.925  44.910   4.306
53115W        W18342  18.131  42.281  11.456
53116W        W18343   6.271  15.924   1.317
53117W        W18344   0.853  36.328  11.117
53118W        W18345   0.561   3.474   3.672
53119W        W18346  41.382  39.635   4.129
53120W        W18347  17.253   2.739   4.334
53121W        W18348   7.456  24.487  14.907
53122W        W18349   3.130   1.416   0.761
53123W        W18350  11.993  14.988  13.963
53124W        W18351   4.683   3.931  11.610
53125W        W18352  20.856  25.187   2.314
53126W        W18353  12.290  34.624   0.276
53127W        W18354   3.962  37.231  12.662
53128W        W18355  30.169  32.596  11.621
53129W        W18356  13.827   5.223  12.452
53130W        W18357  19.133   9.619  13.816
53131W        W18358  26.084  38.972   4.425
53132W        W18359   8.883   4.220  11.925
53133W        W18360   4.431  23.641   3.366
53134W        W18361   1.332   7.745   3.746
53135W        W18362  21.218  44.554   2.562
53136W        W18363  12.680  21.065   4.630
53137W        W18364  36.125  21.953  14.019
53138W        W18365  33.502  24.296  11.398
53139W        W18366  34.649  31.528  13.278
53140W        W18367  33.164   6.307   2.837
53141W        W18368  39.521  13.641   3.159
53142W        W18369   5.426  25.195   2.685
53143W        W18370  33.565   6.641  12.996
53144W        W18371  37.451   6.677  12.467
53145W        W18372  12.149  25.739   1.005
53146W        W18373  16.515  10.301  14.908
53147W        W18374  30.320  10.563   5.404
53148W        W18375   7.754  29.635   3.261
53149W        W18376   1.432  32.214  11.781
53150W        W18377   6.840  40.746   2.108
53151W        W18378  28.166  19.795  13.414
53152W        W18379  15.243  16.174   3.109
53153W        W18380  14.661  33.154  12.054
53154W        W18381  10.065  18.090   3.013
53155W        W18382  38.417  10.589  11.537
53156W        W18383   7.686  17.812   3.749
53157W        W18384  20.255  31.472  10.675
53158W        W18385  33.201  43.951  10.477
53159W        W18386   0.726  16.636   4.972
53160W        W18387  12.617   7.467   0.955
53161W        W18388   5.273  33.838  11.133
53162W        W18389  20.761  23.735   4.357
53163W        W18390  30.934  15.437   0.917
53164W        W18391  40.950  18.755  11.041
53165W        W18392   9.272  40.047  14.420
53166W        W18393  10.903  43.330   0.756
53167W        W18394  12.615   0.852  14.205
53168W        W18395  15.179  32.812  10.129
53169W        W18396  15.781  38.326  14.392
53170W        W18397  39.850  31.947   2.199
53171W        W18398  18.727  39.145   0.992
53172W        W18399  13.655  28.536   4.781
53173W        W18400  41.460  36.444   3.268
53174W        W18401  26.989  17.358   4.990
53175W        W18402  24.003   6.437  13.889
53176W        W18403  36.450   5.318   4.577
53177W        W18404  32.266   6.447   4.067
53178W        W18405  30.136  33.465   4.883
53179W        W18406  31.074  41.512  13.892
53180W        W18407   6.833  14.069   2.202
53181W        W18408  24.711  41.520   3.155
53182W        W18409  16.098  22.499   4.229
53183W        W18410  10.089  22.983  13.544
53184W        W18411  25.700  41.963   1.692
53185W        W18412  35.387  16.677   1.828
53186W        W18413  18.923  28.082   2.344
53187W        W18414  22.684   0.375  14.434
53188W        W18415   5.751  26.053   2.582
53189W        W18416  36.324   6.125  11.926
53190W        W18417   1.211  28.559   3.533
53191W        W18418  19.257  21.687  11.194
53192W        W18419  42.413  44.832   1.689
53193W        W18420  26.066  27.668   2.804
53194W        W18421  14.050  25.369  12.309
53195W        W18422  35.811  31.363   3.270
53196W        W18423  44.059  25.733  11.567
53197W        W18424   4.954  15.737  14.851
53198W        W18425  31.984  22.187  10.336
53199W        W18426  43.162  12.758   3.901
53200W        W18427   0.056  33.501  11.560
53201W        W18428  39.805  24.804   1.827
53202W        W18429  23.177  18.192   2.330
53203W        W18430  22.011  41.260  14.788
53204W        W18431   7.404   4.816   2.270
53205W        W18432  35.955  10.388  13.851
53206W        W18433  14.689  44.384  14.285
53207W        W18434  14.832   0.204   2.493
53208W        W18435  27.044  19.331  12.834
53209W        W18436  35.806   0.368  11.611
53210W        W18437   7.453  15.784   1.334
53211W        W18438  35.851  38.716  10.086
53212W        W18439  24.191  37.320  10.760
53213W        W18440  11.373  44.345  14.111
53214W        W18441  43.951  34.373  11.554
53215W        W18442  18.494   4.363  11.721
53216W        W18443  11.179  27.925   1.801
53217W        W18444   1.052  28.938   0.330
53218W        W18445  34.477  30.680  10.763
53219W        W18446  32.245   1.921  13.953
53220W        W18447  32.567  20.072   2.694
53221W        W18448  41.708  32.046   2.134
53222W        W18449  31.323  21.903   1.806
53223W        W18450   2.813  20.778   2.711
53224W        W18451  29.431  13.614   2.625
53225W        W18452  36.996   0.490   0.886
53226W        W18453  13.592  11.675   3.617
53227W        W18454   8.486  10.907  13.541
53228W        W18455   3.286  29.836   0.252
53229W        W18456   4.131  26.016   1.253
53230W        W18457   5.790  43.483  10.178
53231W        W18458   4.436  19.530   2.969
53232W        W18459   4.300  28.933   0.709
53233W        W18460  23.748  20.796   2.866
53234W        W18461  15.095  29.828  14.815
53235W        W18462  21.613  19.636   2.754
53236W        W18463  18.574  17.836  13.955
53237W        W18464   6.817   0.979   0.001
53238W        W18465  39.954  40.007  14.921
53239W        W18466  22.196  41.953   2.412
53240W        W18467  26.739  14.112  10.333
53241W        W18468  40.937  23.928   0.171
53242W        W18469  38.986  43.990  12.734
53243W        W18470  36.942  43.051   2.667
53244W        W18471  23.926  14.852  10.655
53245W        W18472  15.088  14.050   3.218
53246W        W18473  17.788  29.676  12.631
53247W        W18474  17.192  14.727  14.300
53248W        W18475  17.101  13.906  12.651
53249W        W18476  19.048  16.577  12.558
53250W        W18477  10.679  18.580   1.597
53251W        W18478  36.159  31.646   0.386
53252W        W18479  42.437   6.842   2.279
53253W        W18480   1.898  23.257   5.341
53254W        W18481  31.493  42.889   3.007
53255W        W18482  26.552  43.705   4.578
53256W        W18483  23.199  42.503   4.056
53257W        W18484  28.739  33.950   3.173
53258W        W18485  15.511  10.594   3.273
53259W        W18486  40.379  38.369   2.600
53260W        W18487  15.733   1.300   1.737
53261W        W18488   4.289  12.941  11.488
53262W        W18489  44.029  25.105   2.254
53263W        W18490  16.311  42.872   2.297
53264W        W18491  21.823  15.752   3.215
53265W        W18492  38.884  38.257  11.958
53266W        W18493  26.990  22.673   4.724
53267W        W18494   7.081  26.200  11.627
53268W        W18495  38.239  19.698   1.906
53269W        W18496   6.049  21.257   4.406
53270W        W18497  38.824   6.737  14.479
53271W        W18498  41.898  42.173  11.968
53272W        W18499   0.363  38.384  13.492
53273W        W18500  37.564  26.099  12.844
53274W        W18501  38.892  29.231   4.654
53275W        W18502  43.867   1.773   4.492
53276W        W18503  44.692  21.641  13.395
53277W        W18504  28.261  14.284  14.392
53278W        W18505   2.637   5.428   0.484
53279W        W18506  11.557  12.048  14.862
53280W        W18507  26.046  44.852  13.420
53281W        W18508  16.287  30.686  11.617
53282W        W18509   6.853  39.269   1.521
53283W        W18510  41.013   4.110   2.119
53284W        W18511  24.197  37.763   3.321
53285W        W18512  16.181  18.562   2.668
53286W        W18513  15.321  22.637   0.745
53287W        W18514  13.337   6.660   0.166
53288W        W18515   0.306  20.653   0.257
53289W        W18516  36.414  38.125   4.189
53290W        W18517  40.328  19.157   2.347
53291W        W18518  11.782   9.168   2.936
53292W        W18519  23.083  35.444   4.697
53293W        W18520  10.649   4.990  11.057
53294W        W18521   6.389  17.666  11.337
53295W        W18522  40.706   1.257   3.068
53296W        W18523   7.398  12.490  12.576
53297W        W18524  30.938   1.427   1.052
53298W        W18525  35.648  22.762   0.234
53299W        W18526   8.625  37.370   3.632
53300W        W18527  36.129   5.183  14.829
53301W        W18528  21.787  44.296  13.542
53302W        W18529  13.759  13.780   4.072
53303W        W18530  22.808  25.650   3.215
53304W        W18531  16.196  40.432   1.421
53305W        W18532  10.482  20.112   4.630
53306W        W18533  34.547  34.678  10.160
53307W        W18534  40.760   8.373  14.571
53308W        W18535  10.137  28.513  12.947
53309W        W18536  18.098  27.912  10.569
53310W        W18537  39.866  15.195   1.466
53311W        W18538   0.214  28.753   0.918
53312W        W18539  31.091  42.127   1.140
53313W        W18540  30.916  10.688  14.898
53314W        W18541  15.949  44.108  10.481
53315W        W18542   2.835   9.321  14.985
53316W        W18543  43.112  27.719  14.704
53317W        W18544  40.132   6.820   1.362
53318W        W18545   6.616   3.332   0.535
53319W        W18546  16.165  40.913  11.565
53320W        W18547   2.253   7.141   1.317
53321W        W18548  21.694   9.032  14.283
53322W        W18549  30.719  41.842   1.366
53323W        W18550  41.740  18.263  11.182
53324W        W18551  12.332  40.472   2.258
53325W        W18552   3.703  10.859  14.961
53326W        W18553   4.729  33.975  12.853
53327W        W18554  10.098  30.451   1.672
53328W        W18555  17.503  35.080   3.710
53329W        W18556  25.209  30.143  12.912
53330W        W18557   0.967   4.315  12.978
53331W        W18558  29.591  42.566   3.225
53332W        W18559   9.114  39.078  13.368
53333W        W18560   9.191  19.425  14.427
53334W        W18561   6.458   3.505  12.057
53335W        W18562  18.154  13.341   2.797
53336W        W18563  27.506  10.390  14.740
53337W        W18564  26.404  14.895   0.537
53338W        W18565  20.143   2.605  11.987
53339W        W18566  40.440   8.404  10.807
53340W        W18567  44.002  25.629   2.621
53341W        W18568  28.000  42.230   0.951
53342W        W18569  24.266  42.811   4.753
53343W        W18570  28.384   9.763   1.252
53344W        W18571  37.352   0.618  12.104
53345W        W18572  33.112  38.793  14.493
53346W        W18573  33.572   4.958  11.701
53347W        W18574  41.947  40.595   4.770
53348W        W18575  14.767  28.562  11.695
53349W        W18576  35.699  37.398   4.153
53350W        W18577   5.692   7.347   0.920
53351W        W18578  41.536  35.881  13.609
53352W        W18579  27.143  36.308   0.475
53353W        W18580   4.454  12.851  14.924
53354W        W18581   0.512   3.969  14.487
53355W        W18582  13.861  29.139  10.744
53356W        W18583   8.650  37.434   1.912
53357W        W18584  27.975   3.892  14.707
53358W        W18585  14.954  31.984   9.829
53359W        W18586  26.257   5.022   3.277
53360W        W18587  23.199  13.728   4.781
53361W        W18588  10.848   9.102   1.196
53362W        W18589  10.184  10.314   2.150
53363W        W18590  29.025  44.639  14.572
53364W        W18591  39.384  15.813   1.325
53365W        W18592  25.556  39.558   1.843
53366W        W18593  32.613  18.496  13.058
53367W        W18594  30.362   0.546   1.880
53368W        W18595  21.924   6.656   3.291
53369W        W18596   8.337   0.994  13.543
53370W        W18597  36.946   3.283  12.595
53371W        W18598   7.957  35.380   0.929
53372W        W18599  23.871  37.363  13.084
53373W        W18600  23.259  44.504   2.704
53374W        W18601  38.426  25.533   3.890
53375W        W18602  12.672  15.913   1.777
53376W        W18603   4.203  39.919  11.212
53377W        W18604  27.641  36.461   4.430
53378W        W18605  23.079  33.372   4.283
53379W        W18606  24.961  19.565   4.757
53380W        W18607  38.506  37.886  14.395
53381W        W18608  28.192  42.848   1.251
53382W        W18609  39.296  15.846   3.755
53383W        W18610  18.325  32.189  11.611
53384W        W18611   8.979   7.883   0.804
53385W        W18612  21.803  20.117  14.347
53386W        W18613   6.211  19.755   1.823
53387W        W18614  11.906  42.078  13.605
53388W        W18615  35.845   5.894  12.476
53389W        W18616   8.285  12.654  14.681
53390W        W18617  24.420  35.457  13.323
53391W        W18618  10.313  31.663  12.598
53392W        W18619   0.245  25.507  14.842
53393W        W18620  15.201  23.075  10.606
53394W        W18621   9.252   7.307   4.713
53395W        W18622  34.032  24.599   2.206
53396W        W18623  29.563  35.384  13.757
53397W        W18624  21.571  34.647   0.182
53398W        W18625  24.681  28.462  11.956
53399W        W18626   6.213   3.070   1.308
53400W        W18627  26.475  39.803  12.052
53401W        W18628   7.791   8.659   1.140
53402W        W18629   3.248  35.004  13.963
53403W        W18630   9.021  40.545  10.291
53404W        W18631  14.762  11.894  11.659
53405W        W18632  30.596  26.047  11.616
53406W        W18633  19.178  15.617   0.878
53407W        W18634  14.552  15.770  14.907
53408W        W18635  30.355  39.461   2.058
53409W        W18636  20.629  43.455  12.800
53410W        W18637  28.894  12.343  11.543
53411W        W18638  10.075  13.398   0.416
53412W        W18639  37.812  26.753   2.871
53413W        W18640  35.524  28.011  13.548
53414W        W18641  41.587   8.136   2.878
53415W        W18642  34.530  19.545   4.529
53416W        W18643  24.062   9.573  11.215
53417W        W18644  25.465   8.632  10.674
53418W        W18645  42.916   2.258  11.562
53419W        W18646  29.469  14.337  10.175
53420W        W18647   5.084   5.048  11.191
53421W        W18648  31.660  36.529  10.934
53422W        W18649   6.979   9.688   4.561
53423W        W18650  18.985  21.578  10.777
53424W        W18651   3.908  37.086  14.118
53425W        W18652  16.364  24.660   4.667
53426W        W18653  19.626  12.457  10.526
53427W        W18654   6.677   3.048   3.282
53428W        W18655  42.811  10.795   3.182
53429W        W18656  33.918  17.202  12.383
53430W        W18657  24.870   1.421  12.553
53431W        W18658  35.818  30.243  11.619
53432W        W18659  20.804  21.557  12.791
53433W        W18660  24.375   2.489  12.408
53434W        W18661   4.963  10.795  10.744
53435W        W18662  41.754  18.082   0.420
53436W        W18663  39.581  33.460  11.551
53437W        W18664  38.315  14.728  10.701
53438W        W18665   7.833  10.836   4.492
53439W        W18666  22.632  28.851   3.582
53440W        W18667  25.523  28.749  14.335
53441W        W18668  14.658   1.659   1.782
53442W        W18669  15.884  30.323   1.845
53443W        W18670  28.468   6.307  11.264
53444W        W18671   8.072  39.221   0.654
53445W        W18672  42.863  19.923   2.142
53446W        W18673  34.323  42.793   1.765
53447W        W18674  21.017   8.317  13.139
53448W        W18675  23.302  25.078   2.886
53449W        W18676  14.739  23.633  12.583
53450W        W18677  18.311   4.296  13.345
53451W        W18678  17.985  12.392  14.528
53452W        W18679  24.642  37.371  10.495
53453W        W18680  28.650  39.499  11.500
53454W        W18681  33.398  27.697  12.938
53455W        W18682  32.490  32.977   1.346
53456W        W18683  18.375  14.166   1.181
53457W        W18684  14.816   1.560  10.620
53458W        W18685   4.405  25.345  12.178
53459W        W18686  42.838  26.755  14.949
53460W        W18687  10.568  35.075  11.245
53461W        W18688  32.556  31.510   0.402
53462W        W18689  29.074  16.039   4.098
53463W        W18690  24.050   6.496   2.297
53464W        W18691  11.369  31.424   0.216
53465W        W18692   3.230  17.138  14.924
53466W        W18693  15.630  29.816  11.300
53467W        W18694  20.570   0.260   0.726
53468W        W18695   6.174  14.571   0.739
53469W        W18696  33.441  19.793   4.184
53470W        W18697  22.006  43.210  14.393
53471W        W18698   5.683  19.958  11.634
53472W        W18699  10.909  10.577   3.615
53473W        W18700  13.271  29.627   0.700
53474W        W18701  16.044  13.687  11.129
53475W        W18702  27.701  22.003  13.902
53476W        W18703  38.203  22.453   9.989
53477W        W18704  33.434  24.394   4.150
53478W        W18705  15.557   8.793  12.461
53479W        W18706  22.707   8.885  12.537
53480W        W18707   2.542  43.522  12.992
53481W        W18708  11.666  14.344   1.908
53482W        W18709  11.254  30.958  14.282
53483W        W18710  25.176  22.034   1.102
53484W        W18711  23.383  32.551   1.393
53485W        W18712   6.953  11.767   1.884
53486W        W18713  14.672  32.418   9.925
53487W        W18714  34.958  30.723  12.668
53488W        W18715  18.803  29.609  13.857
53489W        W18716  36.903  27.114  12.412
53490W        W18717   9.183  22.307  12.081
53491W        W18718  30.524  20.763  11.814
53492W        W18719  34.886   5.260   4.536
53493W        W18720  22.701  26.739  14.462
53494W        W18721  21.693   0.101   2.472
53495W        W18722   0.407   5.506  12.447
53496W        W18723  39.527   5.876  13.591
53497W        W18724  30.945   4.129   4.720
53498W        W18725  25.024  30.023  13.377
53499W        W18726  35.933  27.651  14.254
53500W        W18727   7.817  37.669  10.284
53501W        W18728   7.668   4.731   2.855
53502W        W18729  31.531  30.739  13.120
53503W        W18730  32.242  32.772   4.110
53504W        W18731  42.391  37.483   1.755
53505W        W18732   7.512   8.573   4.236
53506W        W18733  36.100  21.772  10.809
53507W        W18734  16.909  27.999   2.261
53508W        W18735  43.883  17.524  12.580
53509W        W18736  36.051  27.259  13.935
53510W        W18737  31.561  36.626  13.003
53511W        W18738  14.676   3.790  12.970
53512W        W18739  14.556  19.185  12.567
53513W        W18740   0.067  33.564   1.190
53514W        W18741  13.745  15.316   3.909
53515W        W18742  31.898  24.112  14.798
53516W        W18743  37.056  26.018  11.121
53517W        W18744  38.938  27.955   1.338
53518W        W18745  44.817  26.964   1.005
53519W        W18746  35.896  40.814  11.546
53520W        W18747  34.544   0.890  12.140
53521W        W18748  31.490  14.242   0.321
53522W        W18749  17.394  31.852   4.905
53523W        W18750  22.172  26.688   3.694
53524W        W18751  39.144  31.219   0.429
53525W        W18752  18.988  34.877   2.419
53526W        W18753  36.390   5.944   9.920
53527W        W18754   6.714  14.237  13.460
53528W        W18755  23.064  32.069  13.502
53529W        W18756   7.253  30.500  13.369
53530W        W18757  21.957  42.706  12.648
53531W        W18758  29.448  39.885  14.742
53532W        W18759  41.012  40.528   3.993
53533W        W18760  41.483  36.796   1.260
53534W        W18761   1.779  39.204   0.299
53535W        W18762  43.352   2.501  11.282
53536W        W18763  34.746   6.629  11.188
53537W        W18764   8.738  35.940  11.091
53538W        W18765  33.094  39.332   1.186
53539W        W18766  32.710  12.407  10.420
53540W        W18767   7.017  28.324   3.077
53541W        W18768  39.890  19.925  12.080
53542W        W18769  27.184  22.624  12.960
53543W        W18770  10.746  34.783  11.675
53544W        W18771   4.343  42.872   0.373
53545W        W18772  21.883   0.225   4.184
53546W        W18773   3.679  11.218  14.569
53547W        W18774  19.539  29.050  12.212
53548W        W18775  44.115   4.272   3.521
53549W        W18776  36.888  44.234   0.290
53550W        W18777  34.024  39.785  14.337
53551W        W18778  27.033  10.226   0.775
53552W        W18779  12.571  41.959   2.397
53553W        W18780  34.342  34.019  12.078
53554W        W18781  43.128   5.737   3.209
53555W        W18782   4.717  41.419  13.936
53556W        W18783  32.933  42.314   0.477
53557W        W18784  28.902  43.922  12.635
53558W        W18785   4.472  33.335   2.302
53559W        W18786  12.139  28.116   4.052
53560W        W18787  30.149  25.953   3.467
53561W        W18788  11.273   8.746  10.415
53562W        W18789   8.171   6.236   1.667
53563W        W18790   4.180  25.325  13.970
53564W        W18791  11.057  26.638   3.297
53565W        W18792  12.444  18.523   1.360
53566W        W18793  33.905  18.355   3.257
53567W        W18794  41.516  19.569  11.202
53568W        W18795  34.520  28.218   4.149
53569W        W18796  16.583  29.382   3.649
53570W        W18797  38.473  18.736   3.253
53571W        W18798   0.838  21.533   0.959
53572W        W18799  40.025  25.524  10.482
53573W        W18800   0.323  20.104   1.425
53574W        W18801  41.497   0.973   1.781
53575W        W18802  41.524  13.233   2.421
53576W        W18803  40.544  35.300   2.721
53577W        W18804  30.838   4.313   1.413
53578W        W18805  33.053  17.253   2.680
53579W        W18806  30.078  35.609  12.068
53580W        W18807  20.606   2.453   3.861
53581W        W18808  29.955  32.404   2.002
53582W        W18809  25.000  34.489   3.152
53583W        W18810  22.121  18.343   0.867
53584W        W18811  26.701   4.369   0.857
53585W        W18812  31.520  25.945  11.603
53586W        W18813  23.015  29.428   1.696
53587W        W18814   5.308  20.228   4.943
53588W        W18815  31.200   1.399   2.420
53589W        W18816  24.558  11.726   3.289
53590W        W18817  35.345  11.698   4.408
53591W        W18818  16.343  15.775   4.151
53592W        W18819  41.803   0.277  14.612
53593W        W18820   7.931  39.271   3.653
53594W        W18821   0.646  37.963  12.623
53595W        W18822  27.574  17.552   4.386
53596W        W18823  41.717  18.855  13.642
53597W        W18824   0.945  14.831   4.488
53598W        W18825  11.101  38.340   1.816
53599W        W18826  26.691  19.752   0.410
53600W        W18827  34.815  44.520  11.266
53601W        W18828  25.626  33.585   0.432
53602W        W18829  25.161   6.849   0.655
53603W        W18830  34.955  38.467  14.092
53604W        W18831  29.640   1.335   2.366
53605W        W18832   0.711  39.364   4.001
53606W        W18833  29.996  19.176  13.352
53607W        W18834  13.305  34.521   4.559
53608W        W18835  30.354   1.076   1.210
53609W        W18836   1.423   8.346   0.547
53610W        W18837  25.987  24.325  13.814
53611W        W18838   3.031   9.626  10.749
53612W        W18839  15.042  28.142  10.685
53613W        W18840  10.540  11.068   4.115
53614W        W18841  32.517  12.260  11.945
53615W        W18842  18.183  36.806   1.751
53616W        W18843   0.314  18.079   0.524
53617W        W18844  34.606   9.727  12.572
53618W        W18845   3.964  12.133  11.543
53619W        W18846  16.774  19.767  14.830
53620W        W18847   6.780  43.893  13.493
53621W        W18848   6.124  22.043   1.805
53622W        W18849  22.513   5.144   1.778
53623W        W18850   7.379  27.491  11.861
53624W        W18851   0.653  15.212  13.515
53625W        W18852   3.343   8.393  11.619
53626W        W18853  14.022   3.453   1.107
53627W        W18854  34.778   9.373   4.557
53628W        W18855  21.174   6.668  11.153
53629W        W18856  28.351  22.378  13.045
53630W        W18857  14.152  39.289  14.503
53631W        W18858  10.677  15.870   1.318
53632W        W18859  13.589  34.036  11.929
53633W        W18860  40.107  26.178   3.389
53634W        W18861  42.321  20.255  12.126
53635W        W18862  44.444  14.671   3.049
53636W        W18863  13.566  28.840  14.757
53637W        W18864   9.880  36.252  10.746
53638W        W18865   1.820  23.110   4.403
53639W        W18866  44.341  35.305  13.087
53640W        W18867   7.293  21.802   0.817
53641W        W18868  17.481  34.125   2.694
53642W        W18869  40.537   2.829  10.125
53643W        W18870  32.511  38.943   2.678
53644W        W18871  21.611  15.365   0.429
53645W        W18872  27.178  30.421  12.059
53646W        W18873  13.541  22.974   2.699
53647W        W18874  16.591  17.820   2.875
53648W        W18875  14.647  14.902   1.891
53649W        W18876   3.600  40.839  12.369
53650W        W18877  16.562   1.141   4.286
53651W        W18878   8.721  27.021   0.983
53652W        W18879  26.013  40.381  11.418
53653W        W18880  42.093  27.144  11.991
53654W        W18881  15.235  34.640   4.686
53655W        W18882   1.321  42.963   2.137
53656W        W18883  41.673  36.961   5.024
53657W        W18884  17.128   6.617   2.448
53658W        W18885   6.431  25.005  14.401
53659W        W18886  29.232  41.927   1.393
53660W        W18887  11.090  23.929  13.489
53661W        W18888   8.921  13.093  14.548
53662W        W18889  37.586  19.570  13.990
53663W        W18890  41.601  44.943  10.660
53664W        W18891  41.848  35.908   4.621
53665W        W18892  41.017  41.075   1.811
53666W        W18893  43.412  42.314   3.417
53667W        W18894  36.878  28.537   3.208
53668W        W18895  26.036   2.999   1.815
53669W        W18896  16.300   9.826   4.031
53670W        W18897   9.815  19.364   1.716
53671W        W18898   7.170  17.443   3.131
53672W        W18899  29.712  24.230  12.572
53673W        W18900  38.852   7.633   0.864
53674W        W18901  25.104  29.877   4.849
53675W        W18902   1.655   7.613  12.565
53676W        W18903  34.541   4.049  14.517
53677W        W18904  31.618  10.551  13.545
53678W        W18905  11.087  16.121  13.864
53679W        W18906  24.543  44.156   4.950
53680W        W18907  26.660  39.019   0.366
53681W        W18908  41.186  42.437   0.848
53682W        W18909   3.696  42.740  14.783
53683W        W18910  31.755   9.757   4.490
53684W        W18911  44.502   2.772  11.960
53685W        W18912  22.623  22.085   0.748
53686W        W18913   4.730  33.008  14.506
53687W        W18914   7.361  36.062  14.825
53688W        W18915  37.264   9.578  12.830
53689W        W18916   5.924   4.177   2.665
53690W        W18917  29.931  18.676   2.740
53691W        W18918  44.738  40.054  11.498
53692W        W18919  27.750  39.419   4.356
53693W        W18920  27.375  42.315  13.360
53694W        W18921  42.592  40.724  11.065
53695W        W18922  28.564  41.750  12.896
53696W        W18923  12.061  22.934  14.336
53697W        W18924   4.388   5.242   0.267
53698W        W18925  37.431  38.416   3.737
53699W        W18926  22.047  44.698   0.280
53700W        W18927  16.317  13.555   1.907
53701W        W18928  22.075  18.527   1.879
53702W        W18929   9.321  39.796  12.985
53703W        W18930   9.464  35.873  14.778
53704W        W18931  36.787   9.590   0.333
53705W        W18932  19.160  43.018   1.868
53706W        W18933  26.095  43.240   1.393
53707W        W18934  18.024   3.322  12.383
53708W        W18935   8.100   7.423   3.309
53709W        W18936  11.627   3.816   3.724
53710W        W18937  16.595  27.554   3.496
53711W        W18938  17.311  21.168   3.956
53712W        W18939  24.533  13.781   0.020
53713W        W18940  10.897  28.186  12.708
53714W        W18941  30.212   3.430   0.503
53715W        W18942  36.516  14.350   0.929
53716W        W18943  27.885  10.086   3.136
53717W        W18944  42.617   5.786   4.255
53718W        W18945  18.465  30.431   3.717
53719W        W18946   2.337   4.147  10.959
53720W        W18947  24.575  21.179   2.213
53721W        W18948   3.953   2.593  10.665
53722W        W18949  16.658   8.475  11.220
53723W        W18950  10.836  44.003   4.887
53724W        W18951   7.230   9.862   0.367
53725W        W18952   3.035   6.477  13.574
53726W        W18953  25.247  14.231  12.478
53727W        W18954  41.341  16.612  11.653
53728W        W18955   5.657  36.219  11.595
53729W        W18956  33.194  32.702   3.194
53730W        W18957  21.718  42.292  12.985
53731W        W18958  39.405  23.531   3.465
53732W        W18959  23.766  10.662  13.641
53733W        W18960   1.414  15.409  14.407
53734W        W18961  12.071  38.872  10.331
53735W        W18962  18.797   1.262   1.279
53736W        W18963   3.030  10.473   3.683
53737W        W18964  24.578  17.996  12.955
53738W        W18965   3.996  13.693   0.003
53739W        W18966  17.196  27.580   2.793
53740W        W18967   9.665  44.325   3.192
53741W        W18968   0.779  22.726  11.995
53742W        W18969  26.132  32.075  11.114
53743W        W18970   7.223  23.544  12.431
53744W        W18971  16.766  43.513   2.356
53745W        W18972  37.652  14.786   4.602
53746W        W18973  21.895  26.249  12.523
53747W        W18974  23.232   0.268   0.321
53748W        W18975  39.537  33.929  10.973
53749W        W18976  13.177  27.704  11.491
53750W        W18977  19.446  39.555   2.246
53751W        W18978  44.530  33.225   4.421
53752W        W18979   1.417  43.999  13.932
53753W        W18980  23.462  25.012  14.990
53754W        W18981  24.951  40.097   0.826
53755W        W18982  13.253   3.899  11.494
53756W        W18983  34.775  22.175   3.678
53757W        W18984  40.467   0.793  10.343
53758W        W18985  28.443  18.597  11.516
53759W        W18986   9.601  24.230   1.236
53760W        W18987  31.604  15.251   4.951
53761W        W18988  13.225  23.204   4.563
53762W        W18989  14.808  24.473   3.690
53763W        W18990  11.616  22.991  11.640
53764W        W18991   8.234  38.327   2.163
53765W        W18992  22.226  30.047   1.853
53766W        W18993  40.894   4.874   1.903
53767W        W18994  10.973  13.231  11.238
53768W        W18995  35.177   2.431  13.761
53769W        W18996  30.145   9.034   0.988
53770W        W18997  12.969  42.402  14.088
53771W        W18998  14.774  39.015   3.239
53772W        W18999  22.534  16.054   2.368
53773W        W19000  16.713  40.845   1.999
53774W        W19001   3.729   3.667   0.025
53775W        W19002  12.267  14.796   1.505
53776W        W19003  10.230  38.586   4.153
53777W        W19004  24.201  12.917  10.746
53778W        W19005  30.537   8.905   0.229
53779W        W19006  29.107  18.883   4.922
53780W        W19007  22.289  23.937  13.165
53781W        W19008  11.603  39.875   1.212
53782W        W19009  10.390   5.494   1.775
53783W        W19010  38.499  32.065  14.770
53784W        W19011  13.943  37.313  10.434
53785W        W19012  31.565  35.387  12.180
53786W        W19013  23.566   3.308   4.463
53787W        W19014  41.411  31.292  13.557
53788W        W19015  23.431  15.356   3.654
53789W        W19016   8.541   7.674   1.019
53790W        W19017  39.298  24.986   4.787
53791W        W19018  39.613  42.386   3.819
53792W        W19019  27.349   8.743   1.600
53793W        W19020  19.242  12.123  10.716
53794W        W19021   3.653  27.017  12.893
53795W        W19022  11.689  44.009  13.827
53796W        W19023  36.455  33.008  12.721
53797W        W19024   3.261   1.342   2.080
53798W        W19025  19.309  32.405  13.322
53799W        W19026   0.032  41.431  10.759
53800W        W19027  28.657  30.567  12.027
53801W        W19028   7.197  27.492   2.205
53802W        W19029  11.430  34.830  12.650
53803W        W19030  32.114  42.193  12.599
53804W        W19031  30.920  27.446  12.141
53805W        W19032  26.549  34.930   3.670
53806W        W19033  12.332   5.634  11.146
53807W        W19034  10.198  21.130  14.518
53808W        W19035   5.842   6.385  11.617
53809W        W19036   5.209   0.266  13.306
53810W        W19037   2.909  19.210   3.823
53811W        W19038   7.234  29.264   2.900
53812W        W19039  18.709  29.697  12.038
53813W        W19040  24.055  30.828  14.509
53814W        W19041  19.716  17.592  13.898
53815W        W19042  23.739  14.753   2.164
53816W        W19043   7.812  15.618  13.222
53817W        W19044   3.691  37.926  11.183
53818W        W19045   7.680  43.373   3.600
53819W        W19046  44.227  38.592  10.255
53820W        W19047  38.421   7.974   2.137
53821W        W19048  32.846  37.861  14.825
53822W        W19049  43.523  38.341  14.027
53823W        W19050  18.838  37.016   3.975
53824W        W19051  35.492  21.245  13.376
53825W        W19052   8.940  38.297  14.525
53826W        W19053  33.773  43.508   1.603
53827W        W19054  39.526  36.840  12.822
53828W        W19055  10.641  24.009   3.387
53829W        W19056  11.211   0.539   3.269
53830W        W19057  33.345  41.438   2.138
53831W        W19058  43.349  36.394   0.168
53832W        W19059  25.906   9.362   4.584
53833W        W19060  32.816  15.714   0.029
53834W        W19061   5.305  24.255   2.272
53835W        W19062   9.422  37.376   2.403
53836W        W19063  42.771  44.533   1.017
53837W        W19064   2.504  27.658   3.095
53838W        W19065  44.801  29.536   2.836
53839W        W19066  16.121  27.154  11.009
53840W        W19067  14.584  11.174  13.627
53841W        W19068  15.506  22.488   1.840
53842W        W19069  27.067   8.571  13.604
53843W        W19070  27.141  18.175   2.418
53844W        W19071   5.293  29.013   1.771
53845W        W19072  22.100  37.763   0.962
53846W        W19073   7.486  37.278  11.571
53847W        W19074  11.145  28.627  14.416
53848W        W19075  14.134   0.261   2.851
53849W        W19076  41.324  40.147   4.180
53850W        W19077  16.014   2.013  13.516
53851W        W19078  40.325  20.044   3.341
53852W        W19079  20.406  44.057  10.683
53853W        W19080  43.669  44.942  13.809
53854W        W19081  12.284   2.988   3.663
53855W        W19082  17.343  22.535   1.801
53856W        W19083  25.348  17.299   1.335
53857W        W19084   5.429  27.719   1.435
53858W        W19085  10.894  33.179   2.260
53859W        W19086  11.459   6.290   0.747
53860W        W19087  12.392  29.050  10.706
53861W        W19088  43.412  14.431  10.643
53862W        W19089  32.546   2.335   0.977
53863W        W19090  22.717  27.823   3.706
53864W        W19091   1.879  38.908  14.334
53865W        W19092  25.290  37.861  14.978
53866W        W19093   5.329  20.162  13.653
53867W        W19094  12.003  23.754  11.074
53868W        W19095   3.909  12.366  12.006
53869W        W19096  28.686  11.775   3.130
53870W        W19097  41.508  19.038   9.803
53871W        W19098  38.976  18.954   4.116
53872W        W19099   2.699  32.591  12.987
53873W        W19100  35.829  39.259  13.073
53874W        W19101  19.439  39.000  14.443
53875W        W19102  22.311  26.675   9.939
53876W        W19103   3.913  13.288   3.743
53877W        W19104  10.244  12.624  14.370
53878W        W19105  22.654   6.265   1.296
53879W        W19106  20.848  14.824   2.518
53880W        W19107  23.251  15.772   0.793
53881W        W19108   8.679   7.320   1.832
53882W        W19109   7.848  12.692  14.008
53883W        W19110  32.573   0.018   3.341
53884W        W19111  39.287  10.617  13.399
53885W        W19112  30.978  27.865   9.768
53886W        W19113  10.861   5.906   0.772
53887W        W19114  44.143  30.459   0.341
53888W        W19115  36.867  24.188  11.594
53889W        W19116  44.894  18.626  11.376
53890W        W19117  29.200  14.295  12.689
53891W        W19118   4.746  12.623  12.224
53892W        W19119  13.021  40.733   0.942
53893W        W19120  31.381  30.664   2.733
53894W        W19121  39.102  19.502  14.977
53895W        W19122  18.041  39.399   4.481
53896W        W19123  12.030  17.035   9.814
53897W        W19124  40.327   6.386   3.461
53898W        W19125  25.110   5.401   1.179
53899W        W19126  22.795  12.670   4.113
53900W        W19127  44.140  11.790  11.763
53901W        W19128  40.386  32.071   3.750
53902W        W19129   5.694  40.620   4.128
53903W        W19130  33.344   0.700   2.663
53904W        W19131  44.400  23.935  11.074
53905W        W19132  19.566  13.522   2.802
53906W        W19133  33.145   2.406  12.922
53907W        W19134  18.863  26.499  13.135
53908W        W19135  40.306  35.856  11.397
53909W        W19136  14.606  22.145   2.753
53910W        W19137   6.354   6.344   4.593
53911W        W19138  10.307  38.349   1.453
53912W        W19139  23.760  29.058   0.385
53913W        W19140  20.516  26.694   2.077
53914W        W19141  44.138  11.587  14.135
53915W        W19142   2.764   2.334  11.719
53916W        W19143  29.462   2.444   1.214
53917W        W19144  28.299  22.956  10.448
53918W        W19145   9.777   5.165  12.416
53919W        W19146   1.884  34.837  11.909
53920W        W19147  10.368  26.123   2.408
53921W        W19148  43.589  22.866   4.964
53922W        W19149  32.311  40.120  10.604
53923W        W19150  17.698  13.140   1.461
53924W        W19151  39.760  38.817  13.708
53925W        W19152  39.544  21.071  12.321
53926W        W19153  27.204  36.864   0.763
53927W        W19154   5.874   5.509  11.966
53928W        W19155   0.851   6.753  14.995
53929W        W19156  37.080   3.430   3.581
53930W        W19157  27.030  21.478  11.008
53931W        W19158  44.289  14.544  12.040
53932W        W19159  10.572  31.485   4.298
53933W        W19160  14.180  23.423  11.064
53934W        W19161   3.092  35.853  14.411
53935W        W19162  34.367  42.601  12.497
53936W        W19163   1.872  40.267   1.349
53937W        W19164   8.291   9.540  13.927
53938W        W19165   9.379  21.715  11.528
53939W        W19166  16.132  39.218  10.644
53940W        W19167  27.085   0.483   2.057
53941W        W19168  13.847  37.113   2.226
53942W        W19169  26.284  30.880   1.028
53943W        W19170   2.401  37.872  13.507
53944W        W19171  14.334  14.823   3.323
53945W        W19172  20.074   5.424   1.926
53946W        W19173  13.873  18.361   3.929
53947W        W19174  11.679  25.128   4.072
53948W        W19175  21.205   8.171  14.360
53949W        W19176  42.789  15.236  13.354
53950W        W19177  20.689   7.026  10.475
53951W        W19178  40.061  40.793   2.172
53952W        W19179   9.403   0.993   4.061
53953W        W19180  44.693  44.848   4.028
53954W        W19181  32.688   0.307   2.245
53955W        W19182   2.504   5.939   3.283
53956W        W19183  22.182  19.314   1.291
53957W        W19184  18.592  21.048  11.641
53958W        W19185  15.346   8.163  14.926
53959W        W19186  37.513   4.645   3.878
53960W        W19187  11.171   7.883   2.822
53961W        W19188  36.051  35.622  12.041
53962W        W19189  13.424  34.275   1.517
53963W        W19190  30.518  44.463  12.051
53964W        W19191  23.863  28.570   2.664
53965W        W19192  41.961  13.333  13.467
53966W        W19193   9.658  28.488  14.009
53967W        W19194  32.070  22.917  12.410
53968W        W19195   0.899  26.480   0.265
53969W        W19196  21.441   1.845   1.963
53970W        W19197  41.008  24.342  14.243
53971W        W19198  38.597  29.642  14.756
53972W        W19199   4.188  36.366   0.466
53973W        W19200  20.065  41.357  14.220
53974W        W19201  14.321  25.187  11.535
53975W        W19202   7.873  19.894   2.008
53976W        W19203  21.987  20.854  14.350
53977W        W19204  24.792   0.145  13.459
53978W        W19205  18.423  40.050   0.101
53979W        W19206  20.192  29.419   1.925
53980W        W19207  10.713  38.619  12.455
53981W        W19208  31.485  33.088   4.484
53982W        W19209  12.701   9.342  11.612
53983W        W19210  26.553  26.681  10.703
53984W        W19211   4.490  20.001  12.264
53985W        W19212   1.886  16.719   4.143
53986W        W19213  22.777  36.700   0.982
53987W        W19214   9.248  19.711   4.444
53988W        W19215  32.410   6.906  12.585
53989W        W19216  26.147  18.745  13.918
53990W        W19217   4.081  25.115  10.433
53991W        W19218   2.684   0.594  11.265
53992W        W19219   5.756   4.753  13.408
53993W        W19220  43.521  40.356   3.621
53994W        W19221  25.741  37.888   0.935
53995W        W19222   5.172  11.253  10.573
53996W        W19223  13.620   3.661   1.358
53997W        W19224  38.065  44.200   4.862
53998W        W19225   2.713   0.212   1.947
53999W        W19226  41.256  25.651   4.187
54000W        W19227  29.741  14.080  14.522
54001W        W19228   9.218   7.251   0.004
54002W        W19229   6.949  32.863  11.002
54003W        W19230  26.973  25.527   2.105
54004W        W19231  26.060   8.379   2.511
54005W        W19232  35.806  21.678  13.545
54006W        W19233  18.219  39.114  14.925
54007W        W19234  37.065   5.358  12.434
54008W        W19235  14.662  15.912  10.532
54009W        W19236   5.711   9.634   1.824
54010W        W19237   9.248  33.814   0.518
54011W        W19238   9.282  29.386  14.878
54012W        W19239  14.760  41.532  11.735
54013W        W19240  43.079  38.609   2.334
54014W        W19241  16.811  16.969   4.376
54015W        W19242  23.077   2.802  14.949
54016W        W19243  32.693  27.821  10.675
54017W        W19244   4.026  37.890  13.405
54018W        W19245  44.860  30.852  11.641
54019W        W19246  18.597   7.437  13.600
54020W        W19247   9.387  14.519   1.901
54021W        W19248  33.371  39.540  14.834
54022W        W19249  28.639  24.345   4.276
54023W        W19250  24.177  33.236   0.178
54024W        W19251  10.053  10.383   0.452
54025W        W19252  16.377  30.522  11.126
54026W        W19253  11.563  43.452   1.915
54027W        W19254  10.746  38.538  10.706
54028W        W19255  43.949  15.191   2.674
54029W        W19256   0.259  42.483  12.348
54030W        W19257  10.129  21.624   3.793
54031W        W19258  40.160  30.299  14.892
54032W        W19259   5.920  38.150  11.609
54033W        W19260  34.059   7.652  12.051
54034W        W19261   1.657  40.195   4.548
54035W        W19262  13.182  25.685  10.815
54036W        W19263  20.583   1.881  11.009
54037W        W19264  31.431  13.665  14.392
54038W        W19265   3.054  27.635  12.377
54039W        W19266  23.644   3.364   5.532
54040W        W19267  43.515   6.778   0.229
54041W        W19268  18.712   4.244  12.625
54042W        W19269  16.040  33.032  11.551
54043W        W19270  41.743   5.718   0.866
54044W        W19271  43.124  31.075  11.169
54045W        W19272   8.917  29.480  12.540
54046W        W19273  42.818  21.779   2.801
54047W        W19274   1.430  15.258   3.828
54048W        W19275  34.648  17.068   1.268
54049W        W19276  14.070   2.778   0.153
54050W        W19277  13.373  29.073   2.749
54051W        W19278   0.305  40.227  12.971
54052W        W19279  27.129   1.779  11.897
54053W        W19280  40.303  42.857   4.547
54054W        W19281   5.330  31.665  11.932
54055W        W19282  39.872  16.199  13.782
54056W        W19283  20.174   0.868   2.750
54057W        W19284  41.155  44.236   0.317
54058W        W19285   8.897  19.789   3.603
54059W        W19286  11.212  14.903   0.739
54060W        W19287   9.956  29.601  12.013
54061W        W19288  33.712   0.838  10.771
54062W        W19289   5.172  27.115   4.465
54063W        W19290  28.617  27.667   0.234
54064W        W19291  39.998  32.521  13.939
54065W        W19292  32.229   8.774  10.758
54066W        W19293  24.685   5.795  14.916
54067W        W19294  24.012  33.381   4.270
54068W        W19295  28.017  36.654   0.436
54069W        W19296  32.041  31.737   1.665
54070W        W19297  20.147  30.003   2.824
54071W        W19298  28.495  23.462  12.408
54072W        W19299  23.425  19.758   3.755
54073W        W19300  27.509  23.580  12.167
54074W        W19301  42.419  36.847   2.601
54075W        W19302  30.009   0.252  14.882
54076W        W19303  29.905  40.924  10.424
54077W        W19304  39.421  35.293  11.280
54078W        W19305  44.508  13.133   4.155
54079W        W19306  23.669  26.226   2.099
54080W        W19307  31.119  21.135  13.977
54081W        W19308  40.898  12.579   3.158
54082W        W19309  38.888   3.000   3.853
54083W        W19310  16.700  37.937   0.474
54084W        W19311  23.075   3.825   3.989
54085W        W19312  26.517  25.790   3.398
54086W        W19313  43.879  25.565   3.587
54087W        W19314  35.209  29.810   2.404
54088W        W19315  22.731  38.984  12.001
54089W        W19316   6.954   7.894   4.444
54090W        W19317  34.715  38.627   0.753
54091W        W19318  20.536  21.980   3.825
54092W        W19319   3.269  26.778   0.564
54093W        W19320  19.063  24.601   3.434
54094W        W19321  34.613  13.305   9.742
54095W        W19322  37.893  37.865   4.078
54096W        W19323  23.938  27.472  12.514
54097W        W19324   7.882  22.063  13.574
54098W        W19325  31.467  33.012   0.918
54099W        W19326  28.567  39.883   4.861
54100W        W19327  33.429  24.086   2.194
54101W        W19328  24.222  17.160   1.325
54102W        W19329  13.538  24.915  14.509
54103W        W19330  27.313  40.385   9.957
54104W        W19331  26.964   4.835   0.811
54105W        W19332  19.447   1.180  12.864
54106W        W19333   5.230  43.474   2.603
54107W        W19334   3.722  43.048  13.418
54108W        W19335  44.494   9.299  10.611
54109W        W19336   0.958  27.449   3.085
54110W        W19337   3.251  24.529  12.113
54111W        W19338  43.145  41.901   3.188
54112W        W19339  24.047  29.591  10.932
54113W        W19340  29.355  22.774  12.491
54114W        W19341  18.756  18.307  12.139
54115W        W19342  13.720   0.177  12.387
54116W        W19343  29.987  22.694   4.657
54117W        W19344  28.091  13.362   1.174
54118W        W19345  22.534  13.885  12.103
54119W        W19346  37.411  35.773  14.297
54120W        W19347   7.030  30.569   2.662
54121W        W19348  24.141  14.768  11.953
54122W        W19349   6.566  41.466   0.911
54123W        W19350  19.189  24.269  11.457
54124W        W19351  38.842  12.171   0.695
54125W        W19352  44.336  36.273   4.482
54126W        W19353  14.383  14.781   1.419
54127W        W19354   1.500  28.988  11.772
54128W        W19355  34.835  18.108   4.474
54129W        W19356   1.380   1.987   2.756
54130W        W19357  15.128  26.115   1.629
54131W        W19358  26.386   1.393  12.901
54132W        W19359  24.594   2.962  14.861
54133W        W19360  32.317  26.356   3.967
54134W        W19361   8.803  22.463   1.728
54135W        W19362  26.594  10.794  13.949
54136W        W19363   7.685  44.295   3.716
54137W        W19364   9.190   8.722  10.912
54138W        W19365   9.138  37.415   3.730
54139W        W19366  26.644   2.285   4.629
54140W        W19367  13.624  25.065  12.167
54141W        W19368  12.924  24.030  12.876
54142W        W19369  40.502   1.005   4.595
54143W        W19370  20.070  38.892  13.379
54144W        W19371  20.712   7.496  14.101
54145W        W19372   9.884  34.587  14.570
54146W        W19373  20.091  16.908   4.506
54147W        W19374  11.224  13.536  12.108
54148W        W19375  18.787  14.302  12.922
54149W        W19376  20.080  22.713  11.748
54150W        W19377  22.530  38.043   0.211
54151W        W19378   2.839   9.627  14.524
54152W        W19379  25.466   1.864   0.876
54153W        W19380   6.965  17.898   2.309
54154W        W19381  36.159   2.819   3.923
54155W        W19382  15.099   2.806  11.146
54156W        W19383  42.495  41.820   4.492
54157W        W19384  27.638  18.409   4.025
54158W        W19385  26.691  10.274  12.814
54159W        W19386  40.526   6.350  12.873
54160W        W19387  30.395  26.027  10.478
54161W        W19388  16.059  40.313  12.382
54162W        W19389  14.720  17.908   2.697
54163W        W19390  29.160  14.597   3.312
54164W        W19391  39.541  39.640  14.046
54165W        W19392  24.942   8.053  11.687
54166W        W19393   4.400  15.273   4.665
54167W        W19394  28.046  23.692  14.690
54168W        W19395  19.295  30.576  10.916
54169W        W19396   6.479  16.543   3.204
54170W        W19397   2.435  31.876  12.790
54171W        W19398   9.818  11.769  11.937
54172W        W19399  36.068   7.158   3.566
54173W        W19400  35.926   5.421   0.734
54174W        W19401   5.389   0.334  11.012
54175W        W19402  22.488  20.234  13.929
54176W        W19403   4.054  36.095  11.574
54177W        W19404  22.799  14.119  12.461
54178W        W19405  12.416  12.682   0.778
54179W        W19406   3.204  16.303  12.140
54180W        W19407  40.570  23.260   2.229
54181W        W19408  23.996  42.073   4.115
54182W        W19409   9.629  13.636  13.898
54183W        W19410  40.020  15.648  13.915
54184W        W19411  18.976  36.442   2.863
54185W        W19412  13.351  29.860   1.579
54186W        W19413  14.180  16.179   2.423
54187W        W19414  36.610  23.231  13.274
54188W        W19415  25.091  24.266   1.777
54189W        W19416  38.967  40.690   3.272
54190W        W19417  13.317  11.208  14.057
54191W        W19418  32.737  35.943  13.334
54192W        W19419   4.557  15.990   1.032
54193W        W19420   4.657   2.166  13.631
54194W        W19421  13.083   6.382  12.041
54195W        W19422  13.108  22.399   4.738
54196W        W19423   0.899  26.213   3.773
54197W        W19424  11.761  21.798  13.930
54198W        W19425  22.878  37.211   1.227
54199W        W19426  32.880  20.139   4.829
54200W        W19427  18.877  44.004  11.963
54201W        W19428   8.630  33.415   2.664
54202W        W19429  21.627  32.742  10.839
54203W        W19430   3.888  10.104   0.329
54204W        W19431  34.353  19.832  10.431
54205W        W19432  13.648  19.670   2.351
54206W        W19433  32.069  34.975  10.452
54207W        W19434  39.261  40.966   4.577
54208W        W19435   5.209  31.005  10.770
54209W        W19436  32.610   1.958   3.820
54210W        W19437  18.780  36.068  11.205
54211W        W19438  41.594   9.606   1.348
54212W        W19439  37.258  41.563  11.974
54213W        W19440  43.344  38.561   1.763
54214W        W19441   6.157  11.456   4.816
54215W        W19442  34.931  37.035  13.684
54216W        W19443  31.078   8.796   1.827
54217W        W19444  24.670  24.279  14.018
54218W        W19445  42.305   0.773   4.190
54219W        W19446  43.068   3.378   0.717
54220W        W19447  40.186   7.427   2.809
54221W        W19448  35.229  44.126   1.374
54222W        W19449  21.310  15.215   1.820
54223W        W19450  40.675  26.073   1.298
54224W        W19451  37.562   6.677  13.989
54225W        W19452  20.925  29.916   1.419
54226W        W19453  43.574   6.826  12.931
54227W        W19454   7.924  20.761  10.442
54228W        W19455  41.968  37.776  12.063
54229W        W19456  25.951  10.533  14.699
54230W        W19457   5.964  42.246   4.134
54231W        W19458  17.284   0.094   2.163
54232W        W19459  12.296  43.092  13.796
54233W        W19460  37.493  21.552   3.534
54234W        W19461  22.651  42.873   0.925
54235W        W19462   9.946  19.630  14.250
54236W        W19463  41.703  18.612   1.182
54237W        W19464  35.518  35.535   0.325
54238W        W19465  39.463   3.108  12.380
54239W        W19466   2.440  25.752  14.369
54240W        W19467   0.064   1.243   9.592
54241W        W19468  15.242  12.725   0.232
54242W        W19469   3.992  37.602  14.537
54243W        W19470  40.407  29.119   3.203
54244W        W19471  14.317  41.007  13.854
54245W        W19472  20.090  37.941   4.606
54246W        W19473  11.439   4.821   2.322
54247W        W19474  27.018  36.420   3.655
54248W        W19475  41.562  23.597   0.262
54249W        W19476  43.227  27.155   2.709
54250W        W19477   1.208  41.426   0.333
54251W        W19478   8.265  41.900  13.884
54252W        W19479  24.300  28.150   0.292
54253W        W19480  44.216   8.041   3.591
54254W        W19481   9.867  23.822   4.515
54255W        W19482   6.224   9.963   3.575
54256W        W19483  39.823  32.775   3.295
54257W        W19484  17.029  16.167   1.326
54258W        W19485  41.171  14.248   4.121
54259W        W19486  37.434  39.851   3.169
54260W        W19487  16.511  36.530   2.189
54261W        W19488  44.814  22.711   3.262
54262W        W19489  22.677   4.360  14.737
54263W        W19490   8.050  17.705  12.110
54264W        W19491   3.779  22.793  13.598
54265W        W19492  30.161  35.451  11.481
54266W        W19493  24.596  18.293   4.979
54267W        W19494  13.242  23.314   1.755
54268W        W19495  11.306   3.201  13.322
54269W        W19496  30.606   6.633  14.891
54270W        W19497   1.890  11.276  13.851
54271W        W19498  16.968  13.864   3.649
54272W        W19499  29.599   1.147   3.283
54273W        W19500  31.294  34.065   4.555
54274W        W19501  33.195  36.126   4.911
54275W        W19502  16.165  28.026   0.645
54276W        W19503   2.341  37.840  10.799
54277W        W19504  34.903   9.911   1.900
54278W        W19505  10.214  13.832   3.227
54279W        W19506  28.171  43.491  12.993
54280W        W19507  42.471  14.244   3.683
54281W        W19508  12.770  38.544   1.672
54282W        W19509  26.676  39.528   0.436
54283W        W19510  32.578   1.973   2.327
54284W        W19511  35.470  43.126   1.372
54285W        W19512  37.238  21.521  14.361
54286W        W19513  22.505   9.235  13.838
54287W        W19514  31.371  10.431  14.872
54288W        W19515  11.744  27.034   4.887
54289W        W19516  18.160  18.084  10.973
54290W        W19517  36.022  18.646   4.546
54291W        W19518  19.785  20.521   0.617
54292W        W19519  22.769  42.850   2.682
54293W        W19520  26.451  22.560  12.219
54294W        W19521  13.075  30.615   1.378
54295W        W19522  44.022   3.212  13.077
54296W        W19523  44.082  40.948  14.073
54297W        W19524   9.844   0.220   0.818
54298W        W19525  23.780  34.626  14.996
54299W        W19526  27.333  10.331   1.826
54300W        W19527  11.199  13.925   4.092
54301W        W19528   1.991  26.991   2.685
54302W        W19529   7.059  19.868  11.605
54303W        W19530  14.626  23.540  13.149
54304W        W19531  20.964  24.944   1.605
54305W        W19532  37.423   0.972  12.503
54306W        W19533  14.850  34.926  11.670
54307W        W19534   2.865  38.579  11.903
54308W        W19535  40.362  27.383   3.830
54309W        W19536  31.547  36.986   2.162
54310W        W19537  26.021  10.830  11.655
54311W        W19538  38.048  16.324   0.813
54312W        W19539  19.747  26.151  10.118
54313W        W19540  29.228  20.931  12.080
54314W        W19541  37.794  26.174  10.457
54315W        W19542  39.565  27.084   1.692
54316W        W19543   0.506  25.309   9.999
54317W        W19544  11.882  27.740  11.200
54318W        W19545  21.644  31.197   0.068
54319W        W19546   8.728  25.923   1.045
54320W        W19547  39.706  37.044   4.521
54321W        W19548  16.144  38.365   3.097
54322W        W19549   0.424  33.822  11.744
54323W        W19550  12.762  43.878  10.353
54324W        W19551  26.572  31.437  13.395
54325W        W19552   5.822  17.541   0.236
54326W        W19553  44.362   9.886  11.625
54327W        W19554  17.275  24.297  14.716
54328W        W19555   3.466  10.118   3.756
54329W        W19556  24.641  12.869   3.384
54330W        W19557  42.751  36.541   0.213
54331W        W19558   0.646  15.257  10.596
54332W        W19559   0.253  12.110  11.962
54333W        W19560  15.643  37.625   4.029
54334W        W19561  23.425  13.277  11.996
54335W        W19562  29.683   9.680   2.704
54336W        W19563   9.664  27.865   2.517
54337W        W19564  35.005  22.970  14.177
54338W        W19565   8.465   6.844   1.139
54339W        W19566   7.799  12.007  14.942
54340W        W19567  26.999  15.252   4.998
54341W        W19568  34.096  22.759  13.898
54342W        W19569   1.974   4.807   4.198
54343W        W19570   9.891  25.001   0.820
54344W        W19571  13.574  32.668   2.022
54345W        W19572  41.779  25.212   2.283
54346W        W19573  19.519   1.316  14.263
54347W        W19574   1.855  38.068   1.305
54348W        W19575   2.445  30.394  14.413
54349W        W19576  11.456  27.977  11.072
54350W        W19577  18.244  36.069  13.620
54351W        W19578  39.021   3.006  14.021
54352W        W19579  26.057   8.265  13.000
54353W        W19580  37.438  31.626  11.343
54354W        W19581  21.059  35.112  11.501
54355W        W19582   9.768  23.744   3.555
54356W        W19583   4.824  31.796   0.352
54357W        W19584   4.699   2.275   2.353
54358W        W19585   4.980   3.199   2.879
54359W        W19586   4.540  10.282  11.101
54360W        W19587  15.008  17.162  10.250
54361W        W19588  13.124  25.425   3.571
54362W        W19589  32.848   6.865   3.941
54363W        W19590   4.271  30.813  10.964
54364W        W19591  29.560  27.682  14.605
54365W        W19592  44.022  35.096   2.210
54366W        W19593  34.757  36.995  11.038
54367W        W19594  11.696  40.059   0.704
54368W        W19595  17.800  33.595   0.525
54369W        W19596   5.889  33.681  14.923
54370W        W19597  39.353  25.052   1.668
54371W        W19598  31.317   4.814  12.594
54372W        W19599  21.482  44.469   4.562
54373W        W19600   3.862  23.119   1.415
54374W        W19601  19.988  10.606   4.246
54375W        W19602  36.979  18.637   2.392
54376W        W19603  22.026  37.364   4.117
54377W        W19604   8.803  15.873   3.081
54378W        W19605  11.296  23.222  13.844
54379W        W19606  37.917  23.486  14.937
54380W        W19607  11.087  43.568   1.712
54381W        W19608   2.486  10.266  14.887
54382W        W19609   5.778  32.976   3.193
54383W        W19610  38.427  34.037   2.948
54384W        W19611  27.472  30.929   4.842
54385W        W19612  32.363  21.549  12.463
54386W        W19613  15.677  25.534   2.168
54387W        W19614  14.181  42.927  13.006
54388W        W19615  34.849  41.385  12.187
54389W        W19616  38.197  39.398  13.760
54390W        W19617  11.604  40.989   4.684
54391W        W19618  40.899   6.615   2.069
54392W        W19619  14.535   5.258   3.297
54393W        W19620  38.913  40.412  12.528
54394W        W19621  23.145   8.383  12.911
54395W        W19622  44.000  13.998  14.738
54396W        W19623   3.702  39.876   4.664
54397W        W19624  39.500  12.645   4.316
54398W        W19625   2.857  30.181   3.287
54399W        W19626   2.892  33.817   1.274
54400W        W19627   8.712   1.976   3.377
54401W        W19628  24.607  13.712   1.434
54402W        W19629  36.875   0.561  10.801
54403W        W19630  37.083  21.603  14.989
54404W        W19631  38.469  43.970   3.628
54405W        W19632  12.250  35.469   2.394
54406W        W19633  26.259   9.676   2.328
54407W        W19634  12.991  43.604  13.949
54408W        W19635  27.161  27.988   3.618
54409W        W19636  31.636  31.035   1.314
54410W        W19637   0.757  37.876  14.834
54411W        W19638  30.128   2.261   0.817
54412W        W19639   6.001  21.054   1.740
54413W        W19640  38.964  44.452   0.268
54414W        W19641  28.250  17.243   0.414
54415W        W19642  35.339  42.599  13.954
54416W        W19643   1.450  17.334   2.815
54417W        W19644  25.635   7.872  14.345
54418W        W19645  37.149  29.489   3.720
54419W        W19646  20.123  30.367  11.203
54420W        W19647   4.125  18.326  13.976
54421W        W19648  20.774   2.413   3.377
54422W        W19649  34.636   4.409  10.778
54423W        W19650  18.284  11.185  13.793
54424W        W19651  17.898   1.218  14.946
54425W        W19652  43.981  36.411   3.237
54426W        W19653   9.813  22.057  12.160
54427W        W19654   9.666  14.111   0.575
54428W        W19655   0.277  42.483   5.042
54429W        W19656   2.414  39.039  10.055
54430W        W19657   4.328  42.026   0.222
54431W        W19658   8.941  37.570   0.616
54432W        W19659  23.044  32.643  11.599
54433W        W19660  25.070   9.429   2.881
54434W        W19661   7.622  27.079  14.996
54435W        W19662   6.730  31.234  12.074
54436W        W19663  29.533  17.051  10.639
54437W        W19664  36.446  19.336   0.349
54438W        W19665  11.948   5.936   2.630
54439W        W19666  29.154  15.338  11.723
54440W        W19667   9.755   9.732   4.691
54441W        W19668  22.265  24.241  11.867
54442W        W19669  22.551   6.935   1.902
54443W        W19670  10.211  31.562   0.323
54444W        W19671  25.031  42.060   3.820
54445W        W19672  16.448   8.244   0.289
54446W        W19673  33.623  43.047  14.041
54447W        W19674  40.005  29.114  10.485
54448W        W19675   5.445  24.849  12.533
54449W        W19676   4.366   8.743   2.931
54450W        W19677  35.051   4.362   4.149
54451W        W19678   8.881  30.618   1.305
54452W        W19679  29.171  29.610   1.174
54453W        W19680  23.544  38.604  11.990
54454W        W19681  10.778  22.440  13.838
54455W        W19682  38.605  14.190   3.769
54456W        W19683  30.303  20.998  12.784
54457W        W19684  22.975   2.770   2.901
54458W        W19685  12.845   3.190   0.129
54459W        W19686  34.979  40.300   4.008
54460W        W19687   8.192  44.404  14.493
54461W        W19688  20.713   5.895   3.734
54462W        W19689  24.645  41.928  13.947
54463W        W19690  36.828   8.881   0.884
54464W        W19691  12.404  28.040   2.972
54465W        W19692  44.553  28.217  14.855
54466W        W19693  34.575  11.083  12.394
54467W        W19694  24.721  19.648  10.859
54468W        W19695  28.134  15.564  14.086
54469W        W19696  22.268   7.644   4.114
54470W        W19697  44.373  19.334   2.859
54471W        W19698  38.798  18.222   4.674
54472W        W19699   2.275  11.721  13.833
54473W        W19700  18.887  11.991   4.103
54474W        W19701  44.251  35.854  11.605
54475W        W19702  22.965  15.350   3.387
54476W        W19703  17.545  32.125  12.304
54477W        W19704  32.649  38.559   5.071
54478W        W19705  20.339  15.050  13.213
54479W        W19706   4.506  43.936   3.578
54480W        W19707  34.135  14.126   4.987
54481W        W19708  39.570  19.275  14.914
54482W        W19709  32.390   5.295   0.807
54483W        W19710  41.588  13.626   0.107
54484W        W19711  42.193  33.931   3.539
54485W        W19712  27.924   7.839  14.892
54486W        W19713   8.640   8.940   1.790
54487W        W19714  15.139  42.799  11.436
54488W        W19715   2.010  36.989  14.886
54489W        W19716   4.087  14.570   9.927
54490W        W19717  17.745  15.677  12.472
54491W        W19718   6.236  35.974   3.193
54492W        W19719  43.234   6.231   2.419
54493W        W19720  43.431  27.615  11.863
54494W        W19721  24.637  37.497  10.983
54495W        W19722   1.291  43.951  12.915
54496W        W19723  11.818  37.040   1.395
54497W        W19724  30.879  38.946  14.896
54498W        W19725  31.041   3.687  12.181
54499W        W19726  20.019  15.200   3.245
54500W        W19727  30.054   7.085   1.647
54501W        W19728  28.953  36.377   3.795
54502W        W19729  41.321  12.568   3.791
54503W        W19730   4.326  10.499   2.302
54504W        W19731   7.631  15.304   1.204
54505W        W19732  12.151   0.767  12.049
54506W        W19733  26.747  16.649   2.349
54507W        W19734   2.951  28.708  12.026
54508W        W19735  25.003  22.630   2.379
54509W        W19736  40.722  33.316   1.232
54510W        W19737   4.590   9.849   0.872
54511W        W19738   3.372  33.377  12.566
54512W        W19739  32.902  40.941  11.181
54513W        W19740  39.173  36.282   3.040
54514W        W19741  15.366  17.385   3.713
54515W        W19742  25.120   5.946   4.823
54516W        W19743  40.817  15.907   0.902
54517W        W19744  34.297   1.303   0.700
54518W        W19745   4.355   9.478   2.190
54519W        W19746  33.188  30.804   1.795
54520W        W19747  41.226  31.716   3.212
54521W        W19748  14.734  10.193   4.552
54522W        W19749  27.618   2.279   1.225
54523W        W19750  25.050  12.345   4.339
54524W        W19751  18.123  38.475  13.961
54525W        W19752  13.834  43.207   1.788
54526W        W19753  42.506   0.284   0.377
54527W        W19754  28.132  25.102   3.716
54528W        W19755  15.457  25.015  10.212
54529W        W19756  26.666  20.277   1.857
54530W        W19757  42.813  40.863  12.608
54531W        W19758  43.438   8.047   9.681
54532W        W19759  32.361   8.182   4.140
54533W        W19760  14.391  25.453   1.355
54534W        W19761  42.924  17.697   4.552
54535W        W19762  42.470   2.943   1.150
54536W        W19763   2.180  39.469  13.556
54537W        W19764   3.022  36.576   1.223
54538W        W19765  42.438  12.440  12.066
54539W        W19766  28.223  35.131  12.625
54540W        W19767  24.198  14.098  12.334
54541W        W19768   1.711  24.141   2.934
54542W        W19769  18.508  38.958  13.503
54543W        W19770  21.033  36.339   4.078
54544W        W19771   1.314  10.414   0.836
54545W        W19772  21.568  29.925  10.716
54546W        W19773  30.092  15.852   4.331
54547W        W19774  43.644  27.075  12.194
54548W        W19775  37.740  44.513  10.238
54549W        W19776  20.262  24.057  12.899
54550W        W19777   2.661  31.700  14.517
54551W        W19778  43.201  39.936  12.096
54552W        W19779   5.169  20.265   0.921
54553W        W19780   2.502  14.775   2.805
54554W        W19781  43.257  39.548  13.514
54555W        W19782   0.159  24.071   9.739
54556W        W19783  42.075   3.091  12.642
54557W        W19784  26.507   9.022  14.906
54558W        W19785  10.670  30.046   4.756
54559W        W19786  11.142  40.318  14.464
54560W        W19787  30.316  13.689   3.323
54561W        W19788  38.357  24.516   1.649
54562W        W19789  18.612  19.501   4.896
54563W        W19790  13.870  17.337   0.968
54564W        W19791  27.406   1.830  10.732
54565W        W19792  29.590   3.728   1.739
54566W        W19793  25.451  22.471   1.256
54567W        W19794   6.999  19.069   2.860
54568W        W19795  10.815  10.918  13.376
54569W        W19796  44.062  39.096  10.198
54570W        W19797   2.919   7.622   0.728
54571W        W19798  20.684  26.604  14.994
54572W        W19799  31.749  28.893  14.724
54573W        W19800  27.640   5.258  10.765
54574W        W19801  32.569  41.469  13.726
54575W        W19802  15.816   5.415  14.287
54576W        W19803  14.728  25.636  10.851
54577W        W19804  38.371  23.720   2.692
54578W        W19805   2.835  32.159  14.737
54579W        W19806  27.856  13.878  11.252
54580W        W19807  34.623  11.647   1.689
54581W        W19808  39.673  11.836   1.685
54582W        W19809  39.592   2.872  12.851
54583W        W19810  18.078  31.657   0.205
54584W        W19811   7.123  13.721   4.611
54585W        W19812   3.573  13.648   1.888
54586W        W19813  27.942  39.758  13.488
54587W        W19814  23.224  13.668   2.164
54588W        W19815  44.016  31.642  11.174
54589W        W19816  30.045  38.324   1.801
54590W        W19817  23.238   3.280   3.576
54591W        W19818  31.101  24.709   5.569
54592W        W19819  12.643  13.626   4.167
54593W        W19820   5.296  27.070   3.132
54594W        W19821  15.339  25.915   2.078
54595W        W19822  41.342  34.784  11.655
54596W        W19823  12.228  13.592   2.950
54597W        W19824  26.831   7.757   2.995
54598W        W19825   9.603   6.338   1.899
54599W        W19826  39.063  22.746  14.760
54600W        W19827  26.996  29.152  10.845
54601W        W19828  17.249  25.369   2.052
54602W        W19829  37.029   9.339  10.580
54603W        W19830  35.088  20.105   1.287
54604W        W19831  17.225  19.718   2.443
54605W        W19832   5.511  12.124  14.860
54606W        W19833  27.632   3.279  10.299
54607W        W19834   7.920  22.922   1.895
54608W        W19835  24.746   6.971   1.771
54609W        W19836  18.406   5.681   4.902
54610W        W19837   7.851  41.197  12.954
54611W        W19838  22.904  29.562  12.199
54612W        W19839  25.937  30.534   3.173
54613W        W19840   3.874  43.918   1.806
54614W        W19841  41.470  25.895   0.789
54615W        W19842  41.902   3.680  13.914
54616W        W19843   5.117  11.683  14.982
54617W        W19844  16.648   1.627   0.065
54618W        W19845  23.825  10.771  14.455
54619W        W19846   8.939  22.278   4.543
54620W        W19847  14.825  32.489  13.115
54621W        W19848  16.554   7.167   1.665
54622W        W19849   0.469  10.840  14.072
54623W        W19850  15.656   7.807   2.205
54624W        W19851  37.005   3.593  12.209
54625W        W19852  20.050   6.639  11.228
54626W        W19853  32.665   6.837  14.018
54627W        W19854  14.381  32.849  14.021
54628W        W19855  20.118  16.700  12.294
54629W        W19856  44.496  28.978   0.345
54630W        W19857  38.945  11.245  12.799
54631W        W19858   0.386  35.625   3.453
54632W        W19859  25.245  16.724  12.474
54633W        W19860  11.616  18.810   3.230
54634W        W19861  38.473  42.509   3.222
54635W        W19862  25.331   2.880   4.313
54636W        W19863  35.986  29.303  11.670
54637W        W19864  31.363  38.032   1.610
54638W        W19865  10.659  32.053  12.538
54639W        W19866  36.588   6.922   2.234
54640W        W19867   1.791  26.419   0.106
54641W        W19868   1.332  18.676  10.612
54642W        W19869  23.613  12.619  13.410
54643W        W19870  26.012  13.088  14.431
54644W        W19871  25.677   7.379   1.783
54645W        W19872  20.642   2.371   1.536
54646W        W19873  13.145  28.354   0.659
54647W        W19874  26.903  26.201  14.862
54648W        W19875  43.476  42.053  11.144
54649W        W19876  41.032  22.153   0.911
54650W        W19877  40.399  32.483  14.243
54651W        W19878  35.261  32.685  14.066
54652W        W19879  17.304  39.083  12.053
54653W        W19880  30.974  28.354  12.360
54654W        W19881  39.824  13.984  11.898
54655W        W19882  26.661   6.007   3.079
54656W        W19883  19.829  27.333  11.655
54657W        W19884   0.139  34.322   1.209
54658W        W19885   6.531   2.034  14.275
54659W        W19886  30.276  10.235   9.839
54660W        W19887  28.752  36.944   1.915
54661W        W19888   2.314  30.316  10.172
54662W        W19889  42.630  25.243  14.934
54663W        W19890  16.001  16.062  14.479
54664W        W19891  44.391  12.511  11.073
54665W        W19892   2.362  42.254  10.083
54666W        W19893  31.974  22.627  10.649
54667W        W19894   6.532  20.232   2.201
54668W        W19895   5.488  39.700  14.548
54669W        W19896  20.998  18.336   1.933
54670W        W19897  19.976  15.128   2.047
54671W        W19898  29.889  32.656  12.471
54672W        W19899  22.312  12.344  11.544
54673W        W19900  13.061  26.172   1.977
54674W        W19901  16.849  26.741  12.025
54675W        W19902  41.051  44.891  13.945
54676W        W19903  14.820  34.463  14.838
54677W        W19904   5.175  20.715   4.713
54678W        W19905  31.182  10.836  13.445
54679W        W19906  28.170  44.936  11.955
54680W        W19907  10.703  22.613  14.362
54681W        W19908  25.176   3.487   2.248
54682W        W19909  18.834   3.044  11.376
54683W        W19910  25.964  26.415   4.768
54684W        W19911  35.152  44.393  13.781
54685W        W19912   4.089  35.195  10.787
54686W        W19913  17.643  24.565  10.762
54687W        W19914  13.499  28.372  14.982
54688W        W19915  34.449  20.134  14.451
54689W        W19916   7.906   4.958   3.289
54690W        W19917  11.284  10.610  12.489
54691W        W19918  29.197   7.341  13.832
54692W        W19919  11.184  21.852  11.084
54693W        W19920   7.116  33.076  14.961
54694W        W19921  44.471  16.244  12.591
54695W        W19922  24.154  22.613  11.440
54696W        W19923  14.530  34.214  13.518
54697W        W19924  43.400  20.800   2.862
54698W        W19925  25.518  44.390  14.033
54699W        W19926  27.048  39.053   1.242
54700W        W19927  34.556  33.347  12.553
54701W        W19928  40.300  14.241  10.470
54702W        W19929  26.435  17.802  13.981
54703W        W19930  17.788   1.408   0.417
54704W        W19931  33.771  21.688  10.085
54705W        W19932  19.605   9.147  12.471
54706W        W19933   9.147  18.814  10.154
54707W        W19934  38.267   1.567  12.836
54708W        W19935  37.572  30.107   0.999
54709W        W19936  18.314  12.729  10.624
54710W        W19937  21.989  25.928   0.995
54711W        W19938  19.575   0.998   5.058
54712W        W19939  30.436  18.068  13.571
54713W        W19940  38.031  43.313  13.476
54714W        W19941  15.832  10.315  10.719
54715W        W19942  39.242  32.636  10.928
54716W        W19943  21.522  32.798   1.826
54717W        W19944   3.905  11.248   0.876
54718W        W19945  33.176  21.262  12.593
54719W        W19946  26.979  34.234  10.301
54720W        W19947  12.145   9.176   1.659
54721W        W19948  37.841   0.266  11.589
54722W        W19949  21.604  41.224   3.233
54723W        W19950   9.447  11.087  12.455
54724W        W19951  44.752  17.693   2.910
54725W        W19952   4.361  23.674  12.890
54726W        W19953  10.453  35.585   4.124
54727W        W19954  39.124  26.503  10.817
54728W        W19955  35.610   3.358   3.105
54729W        W19956   0.113  20.200  14.765
54730W        W19957  39.831   8.035  13.113
54731W        W19958   8.825  25.727  12.145
54732W        W19959  29.190  39.747  10.695
54733W        W19960  21.772   3.794   3.571
54734W        W19961  37.433  10.983   1.206
54735W        W19962  19.820   6.777   3.182
54736W        W19963   1.757  25.991   3.143
54737W        W19964  21.988   7.794   1.698
54738W        W19965  25.199  22.139   0.077
54739W        W19966  29.509  10.940   2.656
54740W        W19967  26.572  22.421  11.192
54741W        W19968  16.707  23.985   0.969
54742W        W19969  35.460  18.927   1.134
54743W        W19970  30.833  19.634   1.218
54744W        W19971  40.113   2.353   3.044
54745W        W19972  28.737  38.952   3.569
54746W        W19973  44.695  32.260  14.498
54747W        W19974  40.281   3.030  11.569
54748W        W19975   8.937  39.483   3.653
54749W        W19976   7.766  23.814   2.808
54750W        W19977   4.198  20.093   1.869
54751W        W19978  18.255  31.588   3.186
54752W        W19979  25.494  16.186   2.188
54753W        W19980  44.789  43.934   4.939
54754W        W19981  36.442  42.788  12.941
54755W        W19982   8.811  11.454   2.929
54756W        W19983   2.274   2.439  11.599
54757W        W19984  28.145  26.386   2.216
54758W        W19985  24.962  27.085   1.019
54759W        W19986   9.166  36.541   4.386
54760W        W19987  30.540  11.589   2.839
54761W        W19988  19.162  44.419   4.442
54762W        W19989   9.158  42.078  13.358
54763W        W19990  35.028  27.988  12.021
54764W        W19991  22.100  26.003  14.746
54765W        W19992  17.842  36.589   0.715
54766W        W19993  42.757  36.519  12.200
54767W        W19994  25.489   7.763   1.362
54768W        W19995  32.090   9.936   1.309
54769W        W19996  10.577  20.435   4.241
54770W        W19997  14.762  42.370  12.351
54771W        W19998  42.101  30.091   3.183
54772W        W19999   1.738  39.106  14.791
54773W        W20000  39.957  16.758   2.834
54774W        W20001  17.387  16.369  11.153
54775W        W20002   8.205  33.563   1.911
54776W        W20003  37.303  25.167   2.399
54777W        W20004  14.538  38.147  12.084
54778W        W20005   3.457  40.508   0.117
54779W        W20006  29.022   6.897   0.535
54780W        W20007  33.682  14.757   0.177
54781W        W20008  22.791  14.713  13.961
54782W        W20009  26.555  27.878   2.756
54783W        W20010   0.758  19.913   2.713
54784W        W20011  11.858   4.188  11.450
54785W        W20012  30.398  15.636   1.753
54786W        W20013   2.883  10.832  10.731
54787W        W20014  25.000  34.516  10.714
54788W        W20015  34.422   2.346  12.480
54789W        W20016  34.028  27.125  10.583
54790W        W20017  43.106   1.361  12.429
54791W        W20018  37.320   4.744  12.714
54792W        W20019  44.700   4.642   1.993
54793W        W20020   1.663   9.375  14.182
54794W        W20021  32.166  39.347  11.006
54795W        W20022  25.662  32.883   1.329
54796W        W20023  26.540  18.529   2.387
54797W        W20024  44.364   1.100  13.977
54798W        W20025  32.229  44.387   5.079
54799W        W20026  29.452  23.390  14.249
54800W        W20027  22.269  16.852   0.101
54801W        W20028  24.740  43.450  12.401
54802W        W20029  16.370   0.884  11.633
54803W        W20030  10.630  38.381   4.393
54804W        W20031  27.491  11.181  14.381
54805W        W20032  19.863   3.131   1.332
54806W        W20033  27.854  25.637   2.917
54807W        W20034  40.092  43.942   4.630
54808W        W20035  43.495  21.165  13.978
54809W        W20036  27.940  21.706   3.364
54810W        W20037  13.754  38.076  11.778
54811W        W20038  30.850   5.300   0.961
54812W        W20039  13.596  21.067   3.713
54813W        W20040  42.327   0.333  13.021
54814W        W20041  40.989  44.913   3.369
54815W        W20042   8.453  38.007  14.913
54816W        W20043   7.973  39.981   4.085
54817W        W20044  41.105  22.124  14.026
54818W        W20045  35.825  43.257  14.413
54819W        W20046   7.961  40.445  14.446
54820W        W20047  11.211  29.975  13.896
54821W        W20048   8.128  37.355  11.926
54822W        W20049  23.260  40.512   1.743
54823W        W20050   8.458  23.028   3.203
54824W        W20051   4.398  37.369  11.387
54825W        W20052  39.871  41.851  14.335
54826W        W20053  41.952   4.555   0.329
54827W        W20054  41.973   9.793   2.566
54828W        W20055  15.564   8.875  10.773
54829W        W20056  11.350  29.939  12.052
54830W        W20057  32.383  38.972  12.662
54831W        W20058  30.342  31.327  11.924
54832W        W20059  16.080   8.372  13.817
54833W        W20060  39.510  10.098   5.097
54834W        W20061  43.821  26.599  12.039
54835W        W20062  42.331   0.049   2.152
54836W        W20063  12.810  31.615   1.719
54837W        W20064  24.462  29.337  11.135
54838W        W20065  33.733  31.467   4.945
54839W        W20066  11.764  36.058  10.772
54840W        W20067   7.743  35.360  11.564
54841W        W20068  35.373  22.594  11.124
54842W        W20069   2.385   0.043   4.043
54843W        W20070  33.109  30.762   0.955
54844W        W20071  39.501  39.062  10.989
54845W        W20072  10.213  29.397  12.445
54846W        W20073   7.304  26.226  14.924
54847W        W20074  34.573  20.466   3.297
54848W        W20075  33.053  34.933   0.673
54849W        W20076   8.366  24.201  11.582
54850W        W20077  17.809  26.539  10.674
54851W        W20078  19.572  22.056   0.313
54852W        W20079   7.790  16.814   3.612
54853W        W20080   8.002  43.922   2.738
54854W        W20081  11.243  12.042   2.758
54855W        W20082  25.205  11.420  11.605
54856W        W20083  33.529  13.134  12.194
54857W        W20084  35.291  14.457   4.274
54858W        W20085  40.741   9.330   1.221
54859W        W20086  13.145  36.027  10.805
54860W        W20087  37.081   4.234   2.448
54861W        W20088   5.281  16.307   2.085
54862W        W20089  44.374  15.848   3.210
54863W        W20090   4.344  40.130   0.887
54864W        W20091  40.387  40.389  14.495
54865W        W20092  22.709  33.097   4.510
54866W        W20093   4.211  33.854  13.573
54867W        W20094  13.231   3.684   4.308
54868W        W20095  37.571  34.584   5.065
54869W        W20096   1.152  28.295   1.704
54870W        W20097   3.264   6.729  10.765
54871W        W20098   1.916  44.789  13.504
54872W        W20099  44.921   4.709  12.558
54873W        W20100  35.544  15.196   2.450
54874W        W20101  35.969   2.609   2.959
54875W        W20102  41.731   6.467  14.019
54876W        W20103   4.592  20.334  12.927
54877W        W20104  36.901  41.326  14.523
54878W        W20105  11.293  39.183   0.090
54879W        W20106  26.558   3.917   4.643
54880W        W20107  44.055  11.494  14.839
54881W        W20108  30.474  37.309  12.156
54882W        W20109  23.195  10.715   3.163
54883W        W20110  41.860  22.955   4.517
54884W        W20111  28.419   2.368  11.216
54885W        W20112  17.745  38.902  14.913
54886W        W20113  33.920  32.150  11.616
54887W        W20114   4.637  16.776   0.485
54888W        W20115  24.258   9.745   3.301
54889W        W20116  20.523  22.684   1.202
54890W        W20117  42.847   9.190   5.038
54891W        W20118   4.277  19.568   4.595
54892W        W20119  40.818   7.298  12.115
54893W        W20120  43.013  29.709   4.766
54894W        W20121  34.259  13.247   3.754
54895W        W20122   5.857   2.566   1.356
54896W        W20123  11.860   2.767   1.892
54897W        W20124  34.341  21.012  11.392
54898W        W20125  30.696  36.991   1.692
54899W        W20126   1.734  34.674   3.719
54900W        W20127  10.851  20.092  14.317
54901W        W20128  31.960  18.388   1.502
54902W        W20129  42.373  11.855   2.877
54903W        W20130  40.995  18.034   4.011
54904W        W20131  28.022  43.981  12.437
54905W        W20132  38.863  17.131   3.550
54906W        W20133  27.035   0.923  11.737
54907W        W20134  36.099  35.114   4.615
54908W        W20135  43.501  19.538   0.141
54909W        W20136  34.556  22.490   1.807
54910W        W20137  18.158  35.830   4.163
54911W        W20138  18.837  26.128  13.864
54912W        W20139  15.289  24.004   0.296
54913W        W20140  25.252   4.178  11.143
54914W        W20141  16.646  13.161  14.882
54915W        W20142  33.681  17.224   4.986
54916W        W20143  27.442  32.934   3.560
54917W        W20144   9.186  35.666  13.034
54918W        W20145   1.611  25.807  12.206
54919W        W20146  33.623  32.809  12.379
54920W        W20147  33.900  34.613   3.190
54921W        W20148  28.566  29.918   0.799
54922W        W20149  44.940  30.122   3.601
54923W        W20150  41.467  17.411  14.388
54924W        W20151  21.070   5.965   0.975
54925W        W20152   8.889   1.326  14.555
54926W        W20153  27.503  37.341   0.090
54927W        W20154  34.881  12.447   2.405
54928W        W20155  36.105   7.197  13.065
54929W        W20156  12.753  29.574  12.580
54930W        W20157  25.209  34.987  10.559
54931W        W20158  30.357  43.319   3.881
54932W        W20159  12.589  25.156   0.430
54933W        W20160   1.681  13.038   2.745
54934W        W20161   5.369   9.817  12.915
54935W        W20162  43.945  44.539  11.183
54936W        W20163  17.525  42.242   1.058
54937W        W20164  30.931   9.114   3.818
54938W        W20165  20.175  36.631   3.583
54939W        W20166  27.462  36.013   0.031
54940W        W20167  37.072  16.786  13.320
54941W        W20168  24.015  13.139  12.670
54942W        W20169  13.875  20.059   2.613
54943W        W20170  15.167  10.438  13.878
54944W        W20171  36.844  17.332   4.945
54945W        W20172  27.968  16.123  14.458
54946W        W20173  16.629  25.734   4.526
54947W        W20174  18.442  43.913  13.301
54948W        W20175   8.342   8.354   3.294
54949W        W20176  26.575   2.595   2.476
54950W        W20177  34.985  15.135  14.771
54951W        W20178  20.015  18.334  10.884
54952W        W20179  24.046  30.026  12.942
54953W        W20180  15.579  15.219   4.981
54954W        W20181  18.815  43.410  12.803
54955W        W20182  32.610  21.702  13.424
54956W        W20183  26.975  35.315   0.822
54957W        W20184  41.503  12.123   1.330
54958W        W20185   7.153   3.224  13.196
54959W        W20186  44.793  29.024  11.216
54960W        W20187  39.094  24.271  12.133
54961W        W20188  14.640  44.545  14.792
54962W        W20189   3.613   5.713  10.859
54963W        W20190   5.920  34.826   2.402
54964W        W20191  12.686  44.935  12.329
54965W        W20192  34.822   2.538   4.286
54966W        W20193  27.121  24.378   0.923
54967W        W20194  41.584   6.780   3.615
54968W        W20195  17.374  35.855   5.016
54969W        W20196   8.040  20.978  14.741
54970W        W20197  19.687  15.984   1.604
54971W        W20198   4.139  10.247   4.920
54972W        W20199  44.566  26.605  12.507
54973W        W20200  30.728  27.365   3.707
54974W        W20201  15.939   9.888   2.280
54975W        W20202  27.706  25.832   3.364
54976W        W20203  25.521   8.215   1.728
54977W        W20204  36.820  13.612  11.934
54978W        W20205  41.704  14.295   4.174
54979W        W20206  44.607  14.890   1.176
54980W        W20207  23.139  31.015   1.432
54981W        W20208  33.433  44.827   1.307
54982W        W20209  10.676  37.061   2.455
54983W        W20210  37.779  30.576  14.392
54984W        W20211  39.369  39.021   1.357
54985W        W20212  12.588   8.657  12.141
54986W        W20213   5.809  42.894  12.877
54987W        W20214  41.060  41.508  14.976
54988W        W20215  15.846  20.560  11.135
54989W        W20216   7.214  21.785  12.183
54990W        W20217  17.554  20.942   4.867
54991W        W20218   6.254  20.617   2.489
54992W        W20219   1.500  39.348  11.104
54993W        W20220  11.436  19.820  12.945
54994W        W20221   2.240  39.969   2.602
54995W        W20222  10.223  44.905  10.691
54996W        W20223  29.071  32.807  10.499
54997W        W20224  15.146  41.276   0.001
54998W        W20225  21.485  42.985   4.665
54999W        W20226   0.085  16.219   3.234
55000W        W20227  10.660   9.225   1.659
55001W        W20228  41.381  16.385   1.478
55002W        W20229  21.068  20.224  14.007
55003W        W20230  10.967   4.858   2.872
55004W        W20231  37.379  23.506  12.867
55005W        W20232  31.185   2.760   2.243
55006W        W20233   5.374  21.861   0.161
55007W        W20234  32.622  29.178  14.637
55008W        W20235  36.282  39.505   0.857
55009W        W20236   5.445  26.358   0.400
55010W        W20237   6.830   4.510   1.465
55011W        W20238  18.327  30.892   1.232
55012W        W20239  32.028  36.132  12.211
55013W        W20240  27.536  15.101   1.428
55014W        W20241  43.597  15.825  10.381
55015W        W20242   5.860  13.365  10.820
55016W        W20243   6.410   0.778  10.283
55017W        W20244   9.941  27.052   2.121
55018W        W20245  41.013  17.791  10.892
55019W        W20246  40.090  31.467   4.487
55020W        W20247   5.067  21.875  11.080
55021W        W20248  40.538  42.462  11.181
55022W        W20249   5.207  29.003  12.925
55023W        W20250   1.056   2.504   0.972
55024W        W20251   1.231  22.759   1.692
55025W        W20252  32.801  31.324   2.868
55026W        W20253  25.759  44.330  13.566
55027W        W20254  30.163  26.043  11.296
55028W        W20255  40.439  41.719   0.543
55029W        W20256  16.125  29.142   4.595
55030W        W20257  33.573  39.977  13.715
55031W        W20258  38.375   3.024  11.648
55032W        W20259  24.996   6.377  12.619
55033W        W20260   5.704   8.143  11.048
55034W        W20261   7.237   0.481  11.017
55035W        W20262   5.008  30.170   3.683
55036W        W20263  13.734  24.460  12.887
55037W        W20264   1.912  20.606   4.582
55038W        W20265  29.442   7.390   2.451
55039W        W20266  34.035  44.807   2.799
55040W        W20267  16.287   1.850   3.187
55041W        W20268  13.919  25.310   3.318
55042W        W20269  34.586  12.311  12.439
55043W        W20270  30.163   4.382  13.377
55044W        W20271  31.454  18.795  13.955
55045W        W20272   2.197  34.404   1.436
55046W        W20273  13.676  41.823  10.571
55047W        W20274  38.152  20.543  10.665
55048W        W20275   0.731   6.327   1.228
55049W        W20276  30.675  32.996  14.810
55050W        W20277  30.698  29.705   4.977
55051W        W20278  15.131  28.426   3.283
55052W        W20279  42.864  43.018   0.343
55053W        W20280  41.993  10.471  14.625
55054W        W20281  10.045  41.863  12.092
55055W        W20282  14.693  18.256   1.024
55056W        W20283  41.842   9.400  11.225
55057W        W20284   3.204  16.530   3.294
55058W        W20285  37.971  12.260   0.988
55059W        W20286  42.893  15.289   4.898
55060W        W20287  15.330  35.491  12.096
55061W        W20288  33.792  18.199   1.653
55062W        W20289  28.828  16.130   0.073
55063W        W20290  11.117  24.632   1.829
55064W        W20291  31.838  15.211  13.925
55065W        W20292  22.681  11.591  14.259
55066W        W20293   3.196  19.577   4.629
55067W        W20294  29.078  12.897   4.444
55068W        W20295  29.425   7.711  12.894
55069W        W20296   2.656  21.079  11.533
55070W        W20297  32.529  31.719   2.638
55071W        W20298   1.676   6.693   0.795
55072W        W20299  25.482  28.083  12.028
55073W        W20300  25.945  26.118   1.826
55074W        W20301  25.262   3.131  11.138
55075W        W20302  36.916  28.243  11.168
55076W        W20303  28.628  31.738  12.959
55077W        W20304  25.066  14.140   3.239
55078W        W20305  15.112  38.092   4.759
55079W        W20306  22.576  25.450   1.788
55080W        W20307  17.601  44.302   1.434
55081W        W20308  27.570  21.163   2.373
55082W        W20309   4.860  11.938   3.776
55083W        W20310  25.985  42.331  14.441
55084W        W20311  15.673   0.031  13.026
55085W        W20312   6.744  31.139  11.574
55086W        W20313   5.816   6.740  13.873
55087W        W20314   6.619   9.213  13.958
55088W        W20315   6.560  10.645  12.524
55089W        W20316  38.523  29.482  11.101
55090W        W20317  19.090   8.484   2.004
55091W        W20318  23.572  17.113  11.639
55092W        W20319  37.838  37.592   0.752
55093W        W20320  27.048  35.493   3.646
55094W        W20321  32.670  36.614  12.543
55095W        W20322   7.631  23.083   2.295
55096W        W20323  23.233  27.798   2.537
55097W        W20324  32.625  38.861  12.201
55098W        W20325  42.633  22.153  13.607
55099W        W20326   3.246  36.124  10.939
55100W        W20327   8.275  31.864  14.742
55101W        W20328  33.510  33.170   2.798
55102W        W20329  20.294   6.174   3.834
55103W        W20330  38.331  23.299  10.756
55104W        W20331  20.523  43.453   1.655
55105W        W20332  33.051  41.070   2.395
55106W        W20333  30.611  15.011  14.938
55107W        W20334  30.490  41.768  12.348
55108W        W20335  23.149  14.135   3.944
55109W        W20336  20.951  12.326   1.277
55110W        W20337  39.234  34.118  12.001
55111W        W20338  25.509  27.988   4.605
55112W        W20339   3.769  33.724   4.129
55113W        W20340  30.680  23.723   4.202
55114W        W20341  41.558   8.231   3.939
55115W        W20342   1.866  21.488  12.981
55116W        W20343   5.797   6.122  14.692
55117W        W20344  11.530  20.443   4.865
55118W        W20345  17.115  14.252   3.363
55119W        W20346  38.725  17.515   1.687
55120W        W20347  24.217  34.449  13.552
55121W        W20348  11.498  11.709  12.594
55122W        W20349  26.591  35.660  10.781
55123W        W20350  25.822   1.816   4.645
55124W        W20351  12.208  22.546   2.958
55125W        W20352  29.185  35.013   3.569
55126W        W20353  19.810  15.319  11.608
55127W        W20354  19.195  24.208  14.060
55128W        W20355  24.597  21.946   4.483
55129W        W20356  34.155  36.653   3.918
55130W        W20357   5.608   6.317   1.434
55131W        W20358  43.015   0.313   0.507
55132W        W20359   4.245   7.099  12.161
55133W        W20360  30.900  15.100   2.304
55134W        W20361  13.549  15.585  12.606
55135W        W20362  43.544  18.046  14.449
55136W        W20363  35.107   5.346  10.711
55137W        W20364   0.514  21.501  14.600
55138W        W20365  43.051  26.546  12.494
55139W        W20366  32.970  32.366   4.543
55140W        W20367  17.074  13.350   1.813
55141W        W20368  34.601  20.272  12.890
55142W        W20369   1.817   1.146   0.680
55143W        W20370  37.933  34.418  14.450
55144W        W20371   2.045  16.599  12.435
55145W        W20372   3.343   0.273  12.990
55146W        W20373  17.479   6.936   2.728
55147W        W20374   9.022  34.968  12.634
55148W        W20375  10.873  21.774  14.904
55149W        W20376  35.927  11.755  13.022
55150W        W20377  27.902  43.308  13.396
55151W        W20378  29.868  41.251  10.859
55152W        W20379  43.100  16.247   1.694
55153W        W20380  18.821  11.866   2.414
55154W        W20381  35.096   1.184   1.741
55155W        W20382  20.163   6.712  13.882
55156W        W20383   8.986  21.698   2.841
55157W        W20384  15.374  43.828  14.909
55158W        W20385  16.726  19.040   2.125
55159W        W20386  37.445  41.332   0.795
55160W        W20387  21.499  24.217  14.271
55161W        W20388   8.696   4.126  13.037
55162W        W20389  35.583  12.431  11.581
55163W        W20390   4.627  33.506  11.552
55164W        W20391  37.081  14.219   2.427
55165W        W20392  34.234   7.376   1.188
55166W        W20393  18.824  29.132   3.128
55167W        W20394  32.673  38.415   0.003
55168W        W20395   4.724  21.667  12.713
55169W        W20396  28.607  22.088  12.197
55170W        W20397  27.937  12.093   4.517
55171W        W20398  30.451  17.085  14.200
55172W        W20399  41.908  32.741  13.516
55173W        W20400  20.117  34.725   3.406
55174W        W20401  33.032   2.845   2.421
55175W        W20402  27.529  26.016   2.882
55176W        W20403  41.326   1.879  10.917
55177W        W20404  24.020  44.004   2.684
55178W        W20405  19.748  12.324  14.164
55179W        W20406  33.628  33.540   4.799
55180W        W20407  43.197   5.508   5.071
55181W        W20408  15.961  13.160   1.863
55182W        W20409  14.346  13.712   1.906
55183W        W20410  35.388  14.598   3.636
55184W        W20411  26.408  14.353   2.716
55185W        W20412  27.902   6.827  12.907
55186W        W20413  29.083   9.487   1.965
55187W        W20414   6.737  16.557   1.913
55188W        W20415   4.609  23.659  11.645
55189W        W20416   1.588  23.210  12.162
55190W        W20417  32.583  41.618  11.478
55191W        W20418   5.065  43.514   9.527
55192W        W20419   1.306   9.290  11.587
55193W        W20420  23.486  24.120  13.312
55194W        W20421  19.016   1.523  11.133
55195W        W20422  44.417  14.295  10.716
55196W        W20423  36.514  10.506  12.144
55197W        W20424  20.683  31.213   3.038
55198W        W20425  28.471  44.768  11.318
55199W        W20426  12.303  27.454   0.428
55200W        W20427  41.765  20.564   4.136
55201W        W20428  17.170  34.022   9.848
55202W        W20429  18.579  27.911  10.771
55203W        W20430  23.697  26.764   2.143
55204W        W20431  18.427   1.015  12.515
55205W        W20432   3.374  10.626   0.333
55206W        W20433  23.782  10.671   0.398
55207W        W20434  44.563  24.487   0.410
55208W        W20435  12.593   9.134   3.373
55209W        W20436  12.138  31.025  12.861
55210W        W20437  44.161  12.138   0.614
55211W        W20438  43.032  41.438  10.437
55212W        W20439  36.971  40.868  14.931
55213W        W20440   5.738  34.484   0.741
55214W        W20441  20.198  40.412   3.223
55215W        W20442  25.631   1.470  11.712
55216W        W20443  33.383  24.470   1.359
55217W        W20444  33.873  16.310  12.655
55218W        W20445  21.808  12.615   0.906
55219W        W20446  26.972  34.576  11.219
55220W        W20447  38.386  37.711  13.854
55221W        W20448  31.765  43.352   1.155
55222W        W20449  40.489  23.825  10.222
55223W        W20450  17.973  36.740  11.573
55224W        W20451  31.335   6.209   1.050
55225W        W20452   1.360  22.173   1.390
55226W        W20453  15.924  26.170   4.149
55227W        W20454  15.494   5.861  11.589
55228W        W20455  18.865  38.315  13.484
55229W        W20456  17.660   0.380  14.945
55230W        W20457  35.660  16.319   4.158
55231W        W20458   3.699   5.390  13.014
55232W        W20459   3.785   1.579   1.322
55233W        W20460  10.951  37.894  12.017
55234W        W20461  39.853  21.418   1.937
55235W        W20462  34.983  27.722   1.424
55236W        W20463   2.983  21.151  14.852
55237W        W20464   6.994  17.858  13.782
55238W        W20465  25.776   4.405   2.744
55239W        W20466   9.664  35.408   1.488
55240W        W20467  39.917  22.245  11.126
55241W        W20468   4.700  27.308  14.976
55242W        W20469  28.535  19.565   2.386
55243W        W20470  43.209   1.256   4.258
55244W        W20471  29.649  19.449  10.409
55245W        W20472  11.351   0.313   1.475
55246W        W20473  33.463  11.286  10.656
55247W        W20474  23.155  19.641   0.707
55248W        W20475  12.435  20.537  11.882
55249W        W20476  34.246  36.897  11.094
55250W        W20477  34.084   5.999  14.767
55251W        W20478   0.300  28.669   3.547
55252W        W20479  29.430  10.337  14.014
55253W        W20480   3.315   5.010   1.285
55254W        W20481  32.460   9.572  11.199
55255W        W20482  32.412  38.560   0.424
55256W        W20483   2.673  15.261  13.324
55257W        W20484  33.377  35.413   3.889
55258W        W20485  27.611  36.529  11.041
55259W        W20486  10.675  11.636   1.719
55260W        W20487  44.583  41.925   1.412
55261W        W20488  30.162  12.156   3.798
55262W        W20489  42.302  22.997  13.381
55263W        W20490  18.171  25.778  12.927
55264W        W20491  35.361  17.586  12.966
55265W        W20492   2.385  30.604  12.600
55266W        W20493   8.629  17.362  11.571
55267W        W20494  38.116  17.893   3.083
55268W        W20495  29.139   3.897   3.218
55269W        W20496  14.175  39.486  13.598
55270W        W20497  13.347  19.077  13.789
55271W        W20498  22.080  18.941  14.969
55272W        W20499  40.053  11.491   4.611
55273W        W20500  17.089   8.424   2.709
55274W        W20501  44.289  27.560  13.873
55275W        W20502   7.335  39.698   3.158
55276W        W20503  30.573   3.741   4.683
55277W        W20504  28.031  28.963   1.288
55278W        W20505  15.019   6.436   4.670
55279W        W20506  30.609  34.906   1.352
55280W        W20507  28.990  28.840   1.543
55281W        W20508  19.499  36.506  11.216
55282W        W20509   6.106  29.929  13.975
55283W        W20510  28.584  34.571  13.341
55284W        W20511  30.772   3.294   3.596
55285W        W20512   8.613  13.366   3.442
55286W        W20513  38.756  37.886   2.223
55287W        W20514  40.954  17.736   2.605
55288W        W20515   5.491  38.344  10.820
55289W        W20516   1.853   0.443   1.909
55290W        W20517  36.269  33.625   1.934
55291W        W20518  40.294  34.320   4.863
55292W        W20519  22.472   2.375  11.981
55293W        W20520  41.379  14.391   1.764
55294W        W20521  27.220  27.525   0.020
55295W        W20522  14.060  44.805  11.488
55296W        W20523  40.437   9.058   4.188
55297W        W20524  40.908   5.137   2.362
55298W        W20525  19.695  16.095   4.500
55299W        W20526   9.143  31.793  11.647
55300W        W20527   6.762  28.036  13.816
55301W        W20528  19.993  33.976   2.924
55302W        W20529  32.881  42.257   5.039
55303W        W20530  15.760  18.204   3.563
55304W        W20531  18.363  40.895   1.379
55305W        W20532  25.012  36.536  13.415
55306W        W20533  17.559  31.597  12.466
55307W        W20534  19.213  44.248   0.800
55308W        W20535  17.113  37.054   3.565
55309W        W20536  38.501  29.000   4.420
55310W        W20537  34.881   0.009  11.703
55311W        W20538  20.728  33.501   2.915
55312W        W20539  18.577  32.977  14.559
55313W        W20540  44.599   6.185   4.310
55314W        W20541  28.704  19.823  14.672
55315W        W20542  35.943  39.071  13.527
55316W        W20543   5.856  22.032  14.955
55317W        W20544  38.572  37.055   2.330
55318W        W20545  24.467  16.076   2.383
55319W        W20546  11.373  29.596   2.243
55320W        W20547  32.936   4.800  14.848
55321W        W20548   8.351  40.498   2.933
55322W        W20549  21.463  28.849   1.842
55323W        W20550   2.775  30.721   5.064
55324W        W20551  26.454  33.596  12.229
55325W        W20552  34.024  33.908   4.788
55326W        W20553  42.034  32.155  11.157
55327W        W20554  31.659  40.769  10.635
55328W        W20555  31.426  21.343  10.455
55329W        W20556   6.992  32.453  11.431
55330W        W20557   8.615  21.307   2.837
55331W        W20558  41.163  21.339  11.584
55332W        W20559  39.520  42.957   2.617
55333W        W20560   6.716  40.932   2.589
55334W        W20561  43.726   2.177  13.048
55335W        W20562  13.404  18.626   1.889
55336W        W20563  20.287  25.034  13.759
55337W        W20564   3.250  27.091   1.316
55338W        W20565  22.657  43.044  11.628
55339W        W20566  35.410  35.808   2.651
55340W        W20567  17.857  15.237  13.171
55341W        W20568  23.120  42.163  10.282
55342W        W20569  11.659  39.268   2.419
55343W        W20570  21.424   1.656  13.336
55344W        W20571  39.138  42.297   3.662
55345W        W20572  39.791  29.461  14.370
55346W        W20573  43.474  33.589  11.793
55347W        W20574  30.571  35.561  12.884
55348W        W20575  30.394  41.612  11.322
55349W        W20576   2.764   7.636  10.687
55350W        W20577  41.239   9.459  10.684
55351W        W20578  39.341  31.883   4.889
55352W        W20579  31.433   3.018  12.783
55353W        W20580   4.885  18.562  12.870
55354W        W20581  27.963  14.932   1.157
55355W        W20582  41.350  38.635  12.832
55356W        W20583   9.179  28.044   2.752
55357W        W20584  33.057  41.432  11.320
55358W        W20585  12.572   9.144  12.057
55359W        W20586  19.601   7.229  13.362
55360W        W20587  14.592  39.260  13.384
55361W        W20588  12.209  28.680   1.901
55362W        W20589   0.374  24.065   4.461
55363W        W20590  22.762   0.297   0.540
55364W        W20591   9.243  32.687   4.995
55365W        W20592  25.189  14.043   2.617
55366W        W20593  35.453  15.104   1.425
55367W        W20594  23.927   4.796   1.798
55368W        W20595   2.519  15.580   2.826
55369W        W20596   1.927   9.725   2.845
55370W        W20597  40.484   5.129   0.972
55371W        W20598   5.153   6.135  13.400
55372W        W20599   5.351  42.666  12.936
55373W        W20600  36.309  34.062   4.346
55374W        W20601  32.691  18.669   1.873
55375W        W20602  26.514  16.167   2.304
55376W        W20603   7.499   7.927   0.854
55377W        W20604  28.631  28.225   1.115
55378W        W20605   9.226  35.007   0.993
55379W        W20606   1.277  17.258  14.464
55380W        W20607  23.176  17.660   2.291
55381W        W20608  14.749  20.491  11.174
55382W        W20609  30.552   0.680  11.657
55383W        W20610  35.724  30.430  10.773
55384W        W20611  33.632   1.455   2.759
55385W        W20612  24.174  11.803   3.958
55386W        W20613   9.097  18.251  10.809
55387W        W20614   3.844  34.632  12.126
55388W        W20615   9.244   4.073   2.772
55389W        W20616  17.579  28.080   3.549
55390W        W20617   7.787   8.384   1.735
55391W        W20618  35.203  17.125  12.030
55392W        W20619  29.859  43.566   0.803
55393W        W20620   5.310   5.146  13.335
55394W        W20621  24.533  18.740   0.750
55395W        W20622  28.327  44.722  12.613
55396W        W20623  15.107  19.012   0.451
55397W        W20624  32.608  16.950   9.804
55398W        W20625  10.798   6.475  14.392
55399W        W20626  26.063  42.984  12.347
55400W        W20627  40.017  20.735   1.207
55401W        W20628  28.947  16.823   3.686
55402W        W20629  19.760   5.181   2.321
55403W        W20630  21.187  18.766  13.249
55404W        W20631  14.323   1.524  10.774
55405W        W20632  28.974  36.324   0.421
55406W        W20633  36.377  43.282  14.371
55407W        W20634  22.714  20.332   3.654
55408W        W20635  43.461  40.129   0.702
55409W        W20636  10.519  25.393   2.882
55410W        W20637  28.772  43.918  10.658
55411W        W20638   7.848   0.308  12.689
55412W        W20639   4.285  12.466   4.181
55413W        W20640   2.310  40.516   4.634
55414W        W20641   7.681  36.037  11.246
55415W        W20642  22.541  20.602   2.224
55416W        W20643  40.618  13.270  14.400
55417W        W20644  19.027  10.265   1.497
55418W        W20645  24.602  44.886  10.635
55419W        W20646  27.793   0.913   5.127
55420W        W20647  20.475  34.297   4.168
55421W        W20648  16.188  22.699   0.057
55422W        W20649  39.466  12.301  12.674
55423W        W20650   2.839  26.576   0.287
55424W        W20651   3.667  24.980   2.626
55425W        W20652  11.709  20.922   4.772
55426W        W20653  24.057  28.440  13.364
55427W        W20654  30.124  23.418   2.680
55428W        W20655  22.020  35.830   3.232
55429W        W20656  16.321  19.521   0.101
55430W        W20657  42.895  29.721   0.359
55431W        W20658   9.447  12.115  11.843
55432W        W20659  43.428  24.949   4.438
55433W        W20660   4.850  32.615  11.505
55434W        W20661   6.396  44.389   1.377
55435W        W20662  10.352  44.471  12.556
55436W        W20663  14.737  29.279   3.257
55437W        W20664  13.648  17.564   3.684
55438W        W20665  23.577  32.566   0.292
55439W        W20666  38.875   9.921   3.322
55440W        W20667  19.764  44.463  11.533
55441W        W20668  18.505   0.830   1.333
55442W        W20669  29.273  30.678   3.383
55443W        W20670  21.045  11.876   2.088
55444W        W20671  38.497  24.955  14.302
55445W        W20672  42.927   9.896   0.807
55446W        W20673   4.091  33.614  14.521
55447W        W20674  12.184  21.562  13.760
55448W        W20675  19.672  32.648   2.820
55449W        W20676  30.105   2.500   2.986
55450W        W20677   1.289  11.816  13.304
55451W        W20678  10.449  34.371  14.814
55452W        W20679   0.082  43.269  13.489
55453W        W20680   0.217   1.858   4.495
55454W        W20681  41.027   1.810  12.981
55455W        W20682   1.465  11.682   3.149
55456W        W20683  24.418  14.071   5.179
55457W        W20684   6.437  12.665   1.129
55458W        W20685   9.390   3.375  12.075
55459W        W20686  33.906   0.012   2.346
55460W        W20687   9.597  21.792   0.818
55461W        W20688  44.333  40.175  13.167
55462W        W20689  37.806  38.672   2.507
55463W        W20690   0.975  17.749   1.232
55464W        W20691  27.694  19.226   2.874
55465W        W20692  19.176  24.157   1.885
55466W        W20693  20.943   1.820   4.967
55467W        W20694  24.024  30.125  11.612
55468W        W20695   3.471   4.913  12.922
55469W        W20696  10.237  43.322   2.264
55470W        W20697  19.315  34.759   1.438
55471W        W20698  38.396  28.439   1.903
55472W        W20699  16.671  31.615   0.352
55473W        W20700   1.511   9.876  13.558
55474W        W20701  12.236  40.641   3.103
55475W        W20702  39.719   0.959   1.905
55476W        W20703  36.809  23.678   1.638
55477W        W20704  31.880  18.242  14.657
55478W        W20705  12.223  10.646   4.498
55479W        W20706  15.029  43.866   4.274
55480W        W20707  13.038  24.325  13.378
55481W        W20708  40.849  19.531   3.565
55482W        W20709  35.578  10.318  14.918
55483W        W20710  40.546  29.673  13.866
55484W        W20711  39.344  14.480  13.458
55485W        W20712  43.344  43.693  10.735
55486W        W20713  39.665  25.227  14.937
55487W        W20714  10.104  22.499   2.753
55488W        W20715  43.282  36.347   3.690
55489W        W20716  38.324  14.359  13.877
55490W        W20717   2.295  17.719   0.770
55491W        W20718  14.356  37.948  14.420
55492W        W20719  40.405  35.330  11.482
55493W        W20720  15.150   7.980   2.139
55494W        W20721   7.778  13.613  11.398
55495W        W20722   4.368  11.576   1.067
55496W        W20723  15.222  32.630  11.530
55497W        W20724  43.163  30.111   1.415
55498W        W20725  14.222   1.061   1.655
55499W        W20726  31.889   8.836   3.633
55500W        W20727  30.126   6.754  12.047
55501W        W20728  19.838  37.684  12.719
55502W        W20729  38.068  43.305   3.210
55503W        W20730  30.725   2.180  12.933
55504W        W20731   6.611  32.241   4.275
55505W        W20732  10.945  32.844   3.552
55506W        W20733  19.767  30.175   3.317
55507W        W20734  18.397   9.020  11.754
55508W        W20735  41.149  13.819   0.961
55509W        W20736   0.016  17.564  12.864
55510W        W20737  31.188   4.876   0.952
55511W        W20738  14.733  31.976  11.137
55512W        W20739  40.864   6.764  12.189
55513W        W20740  11.856  29.727  12.930
55514W        W20741  22.810  24.141   4.150
55515W        W20742   9.689  29.676  11.081
55516W        W20743  44.755  23.709  12.184
55517W        W20744  24.739  38.307  13.536
55518W        W20745  12.768  43.242  14.983
55519W        W20746   1.699  33.276  12.853
55520W        W20747  14.805  10.097   3.776
55521W        W20748  12.343  26.055  10.591
55522W        W20749   9.236  17.808   5.542
55523W        W20750   3.320  11.857   4.548
55524W        W20751  22.557  20.761  13.899
55525W        W20752  31.568  36.048   0.478
55526W        W20753  40.350   3.195   9.752
55527W        W20754  35.836  25.745   4.160
55528W        W20755  22.228   4.353  13.008
55529W        W20756   9.397   9.632   4.183
55530W        W20757  28.073   4.309  11.664
55531W        W20758  12.643  30.532   2.688
55532W        W20759  42.161   4.453   0.786
55533W        W20760  16.823   1.845  10.683
55534W        W20761  16.570  17.779  14.225
55535W        W20762   9.422  18.301   5.331
55536W        W20763  16.794  31.569   0.856
55537W        W20764   1.832  22.029   1.756
55538W        W20765  11.666  17.338   1.208
55539W        W20766   4.441   3.294   2.779
55540W        W20767  43.304  26.727  10.305
55541W        W20768  31.629  39.815  14.447
55542W        W20769  26.771  21.820  12.738
55543W        W20770  30.712  13.142  12.601
55544W        W20771  29.842  13.739   0.037
55545W        W20772  16.178   1.346  14.827
55546W        W20773  17.260  21.761  14.252
55547W        W20774  27.458   3.352  13.888
55548W        W20775   7.646  22.584   4.208
55549W        W20776   0.775   9.516  14.860
55550W        W20777  41.626  37.774   4.619
55551W        W20778   6.446  21.260  13.415
55552W        W20779   8.431   8.942  11.932
55553W        W20780   4.384  44.073   3.086
55554W        W20781  21.273   0.843   3.579
55555W        W20782  42.016   1.244   2.912
55556W        W20783  42.753   0.380  14.948
55557W        W20784  14.169  35.567   2.845
55558W        W20785  30.212  31.611   0.412
55559W        W20786   6.016  33.184  12.237
55560W        W20787   6.297  24.149   0.442
55561W        W20788  18.038  17.027   3.774
55562W        W20789  24.757   7.360   4.789
55563W        W20790   0.541  41.022  12.445
55564W        W20791  31.567   8.534  12.814
55565W        W20792  18.016   6.898   2.702
55566W        W20793   7.867   2.403  12.187
55567W        W20794   9.899  14.595  12.464
55568W        W20795   4.692  23.089   0.316
55569W        W20796  44.391  16.812   2.875
55570W        W20797  31.644  28.113   1.957
55571W        W20798  40.847  40.960   4.831
55572W        W20799  39.066  42.820   1.306
55573W        W20800   5.330  30.064   4.102
55574W        W20801  16.864  13.171   2.317
55575W        W20802   2.758  11.218   4.125
55576W        W20803  43.287  14.784  12.001
55577W        W20804  14.212  11.640   1.861
55578W        W20805   0.472  15.556   4.611
55579W        W20806  44.131   9.409   3.343
55580W        W20807  37.086  30.388   1.235
55581W        W20808  21.083   3.929   2.794
55582W        W20809   3.727  40.776   2.951
55583W        W20810  14.646  26.582  11.143
55584W        W20811  40.423  32.808   0.061
55585W        W20812  18.679  44.727   4.342
55586W        W20813  16.091   1.034   1.074
55587W        W20814  12.482  35.563  11.583
55588W        W20815  40.520  16.115   1.851
55589W        W20816  32.868  39.483   0.200
55590W        W20817  10.341  32.599   0.713
55591W        W20818  41.012  14.570  13.863
55592W        W20819  24.438  18.073  11.622
55593W        W20820   1.021  34.842  11.403
55594W        W20821  25.140  25.308   3.758
55595W        W20822  29.372   6.334  11.579
55596W        W20823   9.820  36.927   1.452
55597W        W20824  42.745  36.061   3.249
55598W        W20825  42.397   9.562   2.418
55599W        W20826  27.921  43.424   4.639
55600W        W20827  18.811  27.205   2.665
55601W        W20828   9.699  36.464  11.207
55602W        W20829  35.444  33.376  12.480
55603W        W20830  35.537   7.212   0.520
55604W        W20831  17.725  43.699   0.706
55605W        W20832  17.302  21.218   2.917
55606W        W20833  20.136  33.997  13.308
55607W        W20834  27.086  27.992  10.183
55608W        W20835   5.425  24.740  14.709
55609W        W20836  35.581   9.891  11.460
55610W        W20837  12.564  17.117  12.509
55611W        W20838  28.550  10.870   2.308
55612W        W20839  19.854  18.572   4.182
55613W        W20840  34.367  44.840  11.219
55614W        W20841  17.475  32.327  13.139
55615W        W20842  10.126  14.530  10.374
55616W        W20843  36.124  23.268   3.014
55617W        W20844  27.639  21.787   0.251
55618W        W20845  21.974  42.964  13.931
55619W        W20846  10.735  25.038  10.582
55620W        W20847  15.449  25.879   0.312
55621W        W20848  21.427  16.666  11.489
55622W        W20849  34.564   5.822   4.356
55623W        W20850  11.253   2.113  14.204
55624W        W20851  35.780  16.557   2.750
55625W        W20852   3.948  25.985  11.096
55626W        W20853  39.899   2.881  14.924
55627W        W20854  43.313  24.747  12.954
55628W        W20855  17.891   4.143   1.166
55629W        W20856  24.173  29.010   0.678
55630W        W20857  38.855  27.025   1.852
55631W        W20858  39.588  34.809  11.348
55632W        W20859  27.641  28.040   0.951
55633W        W20860  19.788   0.948  12.551
55634W        W20861  37.756   9.901   3.297
55635W        W20862  13.490  23.232  11.378
55636W        W20863  35.080  33.377   2.969
55637W        W20864  22.269   9.155   5.095
55638W        W20865  26.416  27.523  14.599
55639W        W20866  12.234  29.204   4.846
55640W        W20867  37.827  12.092   4.149
55641W        W20868   8.517  30.928   2.709
55642W        W20869  34.391  41.848  14.927
55643W        W20870   2.034  13.942  13.487
55644W        W20871  13.161  29.123  14.963
55645W        W20872  38.358   6.588   1.191
55646W        W20873  36.637  33.560  12.752
55647W        W20874  35.973  22.791   4.247
55648W        W20875  10.328   0.762   4.064
55649W        W20876  31.408  11.424   0.080
55650W        W20877  40.759  35.604  13.762
55651W        W20878  17.583  12.751  12.873
55652W        W20879  19.092  26.199   4.864
55653W        W20880  19.372   0.240  12.950
55654W        W20881  13.788  44.418  11.737
55655W        W20882  41.392   5.355   3.111
55656W        W20883  17.915  36.513  12.538
55657W        W20884  31.873  41.516  14.799
55658W        W20885   3.362  31.944  10.632
55659W        W20886  24.245  38.597  14.357
55660W        W20887   3.055  40.000   1.560
55661W        W20888   4.605  22.424  12.676
55662W        W20889  40.300  41.360  14.005
55663W        W20890   1.282  35.052   0.651
55664W        W20891  12.235  23.042  13.605
55665W        W20892  30.578  21.210  12.080
55666W        W20893   5.297  27.588   1.917
55667W        W20894  12.816  30.737   0.941
55668W        W20895  20.216  19.254   3.409
55669W        W20896   1.533  39.516  10.611
55670W        W20897  32.183  10.670   4.518
55671W        W20898  14.390  26.230   2.241
55672W        W20899  40.842  14.104   4.515
55673W        W20900  13.531  23.924  14.321
55674W        W20901  41.859   4.421   1.184
55675W        W20902  23.733  23.993   3.681
55676W        W20903  15.090   1.020  11.825
55677W        W20904   0.863  18.808   1.251
55678W        W20905  25.257  40.424   2.471
55679W        W20906  11.185  22.532  12.896
55680W        W20907   8.887  35.254  11.685
55681W        W20908  26.100  29.684  10.604
55682W        W20909  13.839  32.581   0.002
55683W        W20910  41.661  34.493   2.738
55684W        W20911  25.058  25.608   2.917
55685W        W20912   5.015  27.596   3.289
55686W        W20913  21.599  43.896   3.249
55687W        W20914  32.798  23.204  11.223
55688W        W20915  18.480   0.035  11.134
55689W        W20916  31.565  34.653  12.790
55690W        W20917  21.628  35.536   0.181
55691W        W20918   9.776  41.632   3.658
55692W        W20919  34.101  31.897   0.126
55693W        W20920  44.647  31.491   4.534
55694W        W20921  13.722   1.786  12.752
55695W        W20922  42.596  40.756  11.968
55696W        W20923  41.179  41.386  12.529
55697W        W20924  10.172   3.542  12.463
55698W        W20925  11.423  33.820  12.886
55699W        W20926  33.434  36.237   4.015
55700W        W20927   8.402  35.459   3.168
55701W        W20928  40.032  39.280   4.967
55702W        W20929  12.691  19.559  12.093
55703W        W20930  35.695  16.037  11.588
55704W        W20931   2.334  22.448   4.856
55705W        W20932  24.062  25.675  13.081
55706W        W20933   7.656  10.283   0.269
55707W        W20934  23.186   9.661  12.422
55708W        W20935  38.066  16.163   2.879
55709W        W20936  25.958   4.827   1.011
55710W        W20937  37.515  20.436   4.744
55711W        W20938   3.504   5.534  10.359
55712W        W20939  13.506  12.833   1.739
55713W        W20940  41.869  27.454  14.493
55714W        W20941  44.362  12.435  14.779
55715W        W20942  23.082   8.244  10.750
55716W        W20943   8.353  38.301  13.925
55717W        W20944  17.044  23.634  12.908
55718W        W20945  44.404  17.847  10.276
55719W        W20946  14.228   5.687   0.488
55720W        W20947  40.095  43.621  14.431
55721W        W20948   7.815   5.266  13.316
55722W        W20949  42.862  22.965  13.470
55723W        W20950   0.213  36.431  13.978
55724W        W20951  15.582  25.910   3.722
55725W        W20952   9.907  15.683  11.708
55726W        W20953  30.392  25.599   3.158
55727W        W20954   7.380  33.921  13.721
55728W        W20955  16.283  22.728   3.364
55729W        W20956  16.153  21.680   2.562
55730W        W20957  27.025  16.014   3.087
55731W        W20958  21.692  19.089  12.944
55732W        W20959  16.833  27.551   4.895
55733W        W20960  16.749   0.541  11.676
55734W        W20961  10.888  31.763  13.981
55735W        W20962  28.034  42.828  12.439
55736W        W20963  20.370  12.904  11.587
55737W        W20964  11.211  13.675   3.126
55738W        W20965   8.145  13.659   4.761
55739W        W20966   4.108   3.911   4.799
55740W        W20967  31.478   6.009   3.614
55741W        W20968  43.480   9.214  12.960
55742W        W20969  42.920  32.665   2.630
55743W        W20970  23.214  39.113   0.344
55744W        W20971  10.657  24.225   1.418
55745W        W20972  44.499  33.962  14.926
55746W        W20973  25.185   5.668  12.739
55747W        W20974  14.971  34.309  10.997
55748W        W20975  28.466  25.252   1.099
55749W        W20976  14.684  36.468  13.939
55750W        W20977  25.434  39.434   3.243
55751W        W20978  44.300  41.945  14.492
55752W        W20979  18.066  44.849   1.924
55753W        W20980  21.147  17.214   5.048
55754W        W20981  10.815  24.189   4.261
55755W        W20982  30.261  14.341  13.484
55756W        W20983  17.720   7.685  11.624
55757W        W20984  30.732  16.886  12.775
55758W        W20985  31.155  44.733   0.818
55759W        W20986   4.462  43.461   1.782
55760W        W20987  17.830  36.559   3.576
55761W        W20988  11.233  11.143  13.164
55762W        W20989   4.332  18.088  12.989
55763W        W20990  22.018  34.367   0.088
55764W        W20991  14.524  22.380   0.240
55765W        W20992  38.124  16.358   1.694
55766W        W20993  36.024  32.597  14.508
55767W        W20994  22.672  17.585   0.190
55768W        W20995  19.111  25.512   4.924
55769W        W20996  40.478  38.926  14.442
55770W        W20997   7.309  29.683  10.819
55771W        W20998  14.867   0.192   0.382
55772W        W20999  27.234   0.328   1.200
55773W        W21000   0.632  24.153  14.676
55774W        W21001  11.490  44.220   3.799
55775W        W21002  23.106  32.875  11.143
55776W        W21003  29.407  40.076   2.158
55777W        W21004  43.201   0.753  13.067
55778W        W21005  19.301  28.650   0.757
55779W        W21006  33.373   2.871  12.894
55780W        W21007  26.639  19.862  10.189
55781W        W21008  43.254  10.702  14.545
55782W        W21009   8.475   9.779   4.606
55783W        W21010  30.225  43.830   3.519
55784W        W21011  43.555  25.258   4.072
55785W        W21012  22.954  27.783  11.598
55786W        W21013  19.663  33.567  13.468
55787W        W21014  24.343  29.943   0.523
55788W        W21015  16.357  10.205  10.464
55789W        W21016  37.068  37.265   0.259
55790W        W21017  39.916  37.649   2.323
55791W        W21018  26.449  37.972  11.620
55792W        W21019  39.129   7.164  12.663
55793W        W21020   1.001   4.515   3.239
55794W        W21021  41.291  38.011   2.297
55795W        W21022  43.286  29.730  10.274
55796W        W21023  15.506   3.468  12.542
55797W        W21024   5.613  29.773  13.821
55798W        W21025   5.933  29.646   0.673
55799W        W21026  20.016  14.684  11.115
55800W        W21027  14.186  20.214  10.947
55801W        W21028  23.926   5.739   1.757
55802W        W21029  33.757  37.399   0.903
55803W        W21030   5.159   9.297   3.106
55804W        W21031   7.738  19.233  11.462
55805W        W21032  36.436  28.588  12.430
55806W        W21033  30.734  28.598   4.191
55807W        W21034  15.624  11.718   2.674
55808W        W21035  18.793  39.822  11.520
55809W        W21036  36.968  30.112  11.034
55810W        W21037  15.969  37.404   1.798
55811W        W21038   2.648   0.839  13.534
55812W        W21039  34.402  34.997  14.414
55813W        W21040   0.842  39.874  14.379
55814W        W21041   2.186  35.638  13.471
55815W        W21042  36.807  28.163   2.438
55816W        W21043  12.749  21.358   4.199
55817W        W21044  18.320   4.460   1.240
55818W        W21045  39.895  22.522  14.052
55819W        W21046  14.650  29.060   2.263
55820W        W21047   3.653  18.705   5.074
55821W        W21048  11.629  38.356   1.763
55822W        W21049  37.184  22.432  11.223
55823W        W21050  24.083   7.693   4.502
55824W        W21051  39.597  44.527  14.382
55825W        W21052   4.143   4.640  14.736
55826W        W21053  27.479  39.316  11.260
55827W        W21054  27.404  17.728  12.468
55828W        W21055  42.291  28.544  14.296
55829W        W21056   0.647   5.315   0.295
55830W        W21057  23.583  44.998  10.697
55831W        W21058  16.031  42.015   2.148
55832W        W21059  36.502  36.885   0.238
55833W        W21060  25.444   7.963  11.718
55834W        W21061  16.213  10.861  12.968
55835W        W21062  20.164  39.543   4.513
55836W        W21063  36.425  31.937   4.315
55837W        W21064   5.600  37.814  10.694
55838W        W21065  21.477  34.693  13.903
55839W        W21066  32.116  43.826  10.559
55840W        W21067  31.911  23.924   5.030
55841W        W21068  41.974  40.499  10.763
55842W        W21069  22.705  14.638   2.784
55843W        W21070  18.554  40.540   4.296
55844W        W21071  24.633  14.307  10.662
55845W        W21072  38.896   8.933   1.446
55846W        W21073  40.034  38.579   2.274
55847W        W21074  28.453  33.622  13.818
55848W        W21075  23.969  16.314  11.172
55849W        W21076  36.987   3.000  11.191
55850W        W21077  37.236  18.952  14.709
55851W        W21078  26.116  36.063  14.691
55852W        W21079  34.347  41.018  11.623
55853W        W21080  22.922  15.031   4.834
55854W        W21081  25.743   7.884  11.329
55855W        W21082   2.350  42.805   1.197
55856W        W21083   0.895   8.220   0.449
55857W        W21084  14.926  31.067   4.646
55858W        W21085  11.003  16.081   3.677
55859W        W21086  34.941  32.411   2.564
55860W        W21087  17.365  43.165   1.395
55861W        W21088  15.403  36.901  12.455
55862W        W21089   6.923  25.058  12.585
55863W        W21090  36.768  18.636  14.080
55864W        W21091   5.155  23.589   0.894
55865W        W21092  13.451  27.551  12.662
55866W        W21093  33.588  41.953  12.952
55867W        W21094  17.280  40.413   3.062
55868W        W21095  34.755  16.815   4.071
55869W        W21096  18.811  42.122   2.559
55870W        W21097   9.346  33.394  11.391
55871W        W21098  10.453  33.695   4.589
55872W        W21099  17.039  12.145  14.774
55873W        W21100   3.245   9.436   2.921
55874W        W21101  29.822  16.697   4.131
55875W        W21102  34.815  12.651  10.265
55876W        W21103  41.354  27.213   2.737
55877W        W21104  23.204  28.057   1.553
55878W        W21105  17.165  40.836   4.830
55879W        W21106  35.108  41.337   2.885
55880W        W21107   4.230  17.817   1.668
55881W        W21108   7.762  35.494  14.188
55882W        W21109  28.745   8.838  14.274
55883W        W21110  17.668  28.844   1.683
55884W        W21111  11.796   6.724   0.924
55885W        W21112  25.421   6.933  14.813
55886W        W21113  41.082  21.723   4.158
55887W        W21114  22.981  44.908   1.955
55888W        W21115  11.920  15.111  11.440
55889W        W21116  33.921   0.641   3.190
55890W        W21117  26.952  19.252   3.311
55891W        W21118  30.475  18.761  13.057
55892W        W21119  30.856  17.679   1.295
55893W        W21120  20.701  17.573   2.772
55894W        W21121   1.688  26.162   4.114
55895W        W21122  30.865  11.712   2.178
55896W        W21123  37.534  25.604   3.613
55897W        W21124  41.521   4.719  12.425
55898W        W21125  14.355   5.867  12.516
55899W        W21126  38.897   1.806  10.738
55900W        W21127   8.288  36.570  14.752
55901W        W21128  21.836  37.356   1.184
55902W        W21129  34.151   3.042  11.639
55903W        W21130  14.752  30.570  12.424
55904W        W21131  34.147   0.342   2.830
55905W        W21132  40.240  41.726   2.428
55906W        W21133  42.369  30.374  13.536
55907W        W21134   5.153  25.185  14.792
55908W        W21135  20.665  26.521   0.911
55909W        W21136   0.785  17.143  14.328
55910W        W21137  33.884   6.536   0.610
55911W        W21138  30.870  26.359   3.664
55912W        W21139  13.682  27.549   3.708
55913W        W21140   5.287  33.033   3.405
55914W        W21141  38.080  39.098   3.793
55915W        W21142   0.690   4.644  14.296
55916W        W21143  16.032  34.341  13.433
55917W        W21144  26.296  42.218  11.994
55918W        W21145  30.238  25.718   0.217
55919W        W21146  40.262  24.625   0.167
55920W        W21147  25.274   0.068   3.902
55921W        W21148  14.991  27.420  14.370
55922W        W21149  40.287   9.897   1.733
55923W        W21150  20.580  36.850  11.589
55924W        W21151  33.694  25.621   2.593
55925W        W21152  40.878  19.791  10.587
55926W        W21153  25.546  18.581   2.347
55927W        W21154  25.197  30.365   0.735
55928W        W21155  39.969  39.008  14.521
55929W        W21156  19.861  37.512  11.156
55930W        W21157  40.779  35.325  11.134
55931W        W21158  37.800  35.336   4.021
55932W        W21159  15.598  31.385   3.283
55933W        W21160  23.785   3.516   3.015
55934W        W21161  24.711  19.953  14.444
55935W        W21162  23.081  43.057   5.327
55936W        W21163  24.958  40.248  11.466
55937W        W21164  17.804  17.822   1.170
55938W        W21165  16.011   4.297  12.929
55939W        W21166  24.724  26.606   1.896
55940W        W21167  33.159  42.007   4.648
55941W        W21168  18.577  31.591  12.644
55942W        W21169   4.343   2.210  12.881
55943W        W21170  43.244   4.019   1.246
55944W        W21171  16.034  27.554   3.712
55945W        W21172  44.620  35.511  11.712
55946W        W21173  10.378  19.111   4.581
55947W        W21174  44.366  13.609   4.354
55948W        W21175  36.407  24.115   0.419
55949W        W21176  38.763   1.923   1.585
55950W        W21177  32.964  44.645  13.117
55951W        W21178   0.749  23.635  11.884
55952W        W21179  36.236  27.317  13.132
55953W        W21180  29.383   4.358   3.185
55954W        W21181  30.416  44.709  11.606
55955W        W21182   8.847  38.158  14.039
55956W        W21183  26.515  16.272  14.075
55957W        W21184  16.323  43.483  11.012
55958W        W21185  42.230  34.421  13.032
55959W        W21186  14.111  29.421   5.304
55960W        W21187  35.905  43.414  12.606
55961W        W21188  37.879  36.215  10.700
55962W        W21189  14.885   2.928  10.683
55963W        W21190  42.027  27.487   1.868
55964W        W21191  39.031  40.065   1.591
55965W        W21192   5.055  43.868  14.894
55966W        W21193  36.342   6.723   0.925
55967W        W21194  35.280   6.522  11.179
55968W        W21195  41.424  30.520   3.799
55969W        W21196  36.929  28.461  14.722
55970W        W21197  43.714  33.456   4.117
55971W        W21198  14.006  25.418  14.003
55972W        W21199  44.244   1.543   4.231
55973W        W21200  36.812  27.616  12.454
55974W        W21201  43.699   3.336  14.945
55975W        W21202  16.077  23.560   4.998
55976W        W21203  28.042  12.439  10.792
55977W        W21204  43.021  31.990  14.096
55978W        W21205  28.737  34.709   1.190
55979W        W21206  15.654  44.481  12.870
55980W        W21207   8.167  17.537  10.388
55981W        W21208   1.545   1.513  13.805
55982W        W21209  39.102   2.843  12.678
55983W        W21210  35.736  40.521   1.284
55984W        W21211  24.159  23.713   1.697
55985W        W21212  44.620   3.961  13.140
55986W        W21213  30.015  25.921   2.912
55987W        W21214   3.724  15.115  14.474
55988W        W21215  28.647  35.503  13.784
55989W        W21216  21.209  21.475   2.742
55990W        W21217   7.587  35.383   2.908
55991W        W21218   5.903  39.739  12.107
55992W        W21219  36.361  40.448  11.044
55993W        W21220  44.683   7.489   2.204
55994W        W21221  40.872  34.103   1.842
55995W        W21222   4.447  42.413  13.457
55996W        W21223  41.431  43.586   2.281
55997W        W21224  29.429  38.887   1.241
55998W        W21225  25.129  28.627   0.261
55999W        W21226  22.595  40.256  11.670
56000W        W21227   8.215  38.989  13.516
56001W        W21228  18.582  13.248  11.580
56002W        W21229  20.906  11.903   3.339
56003W        W21230  19.275  34.403   4.833
56004W        W21231  15.760  24.590  11.147
56005W        W21232  11.885   6.270   4.402
56006W        W21233  44.763  40.337   3.511
56007W        W21234  13.196  14.841  12.538
56008W        W21235  18.749   1.700  13.143
56009W        W21236   5.865   6.170  13.829
56010W        W21237   4.814  13.668   3.219
56011W        W21238  18.972   4.361  11.541
56012W        W21239  23.044  13.630  12.066
56013W        W21240   2.838  16.228   2.734
56014W        W21241  30.998  24.286   0.309
56015W        W21242  44.076  22.786   4.578
56016W        W21243   5.647   1.334   0.958
56017W        W21244   2.495   6.369  10.913
56018W        W21245   8.175  27.226  13.038
56019W        W21246  44.387  44.412   2.712
56020W        W21247  24.197   1.741   3.150
56021W        W21248  25.166  17.653   0.997
56022W        W21249   9.366   5.962   1.632
56023W        W21250  13.545  40.306  13.052
56024W        W21251  17.502   5.005   1.752
56025W        W21252  30.029  22.960   1.887
56026W        W21253   5.878   2.450   4.084
56027W        W21254  23.511  18.310   3.580
56028W        W21255   2.853  15.727   4.050
56029W        W21256  21.803  18.925   2.071
56030W        W21257  37.739  34.486   2.926
56031W        W21258  25.658  22.189  11.564
56032W        W21259   5.273  37.524  12.851
56033W        W21260  18.195  26.086  10.668
56034W        W21261  12.245  18.136   3.235
56035W        W21262  23.340  43.355   4.985
56036W        W21263  41.095   5.671  12.955
56037W        W21264   1.249  34.623   3.910
56038W        W21265  10.465  33.448   2.555
56039W        W21266   1.940  27.625   3.976
56040W        W21267  31.821  38.967   0.763
56041W        W21268  15.209  20.043   1.452
56042W        W21269  34.247   2.375  14.584
56043W        W21270  24.139  11.836  11.540
56044W        W21271  39.157  39.067  13.880
56045W        W21272  37.304  26.890  12.610
56046W        W21273  38.826   0.833  14.789
56047W        W21274  41.254  34.846  14.343
56048W        W21275  34.769  26.453   1.209
56049W        W21276  25.178  33.870  14.310
56050W        W21277  44.546   4.487  14.880
56051W        W21278   8.158  29.088  10.498
56052W        W21279   7.217  10.310   0.988
56053W        W21280   1.393  41.327  14.853
56054W        W21281   5.851   7.709   1.246
56055W        W21282   4.234   0.280   4.386
56056W        W21283   7.406  29.497   3.805
56057W        W21284  14.330  21.526  14.297
56058W        W21285  26.993  33.616  11.099
56059W        W21286  18.747  10.731   3.566
56060W        W21287  18.109  24.540  14.313
56061W        W21288  17.373  23.698  11.071
56062W        W21289   5.883   2.090  14.814
56063W        W21290  42.500  22.625  14.937
56064W        W21291  12.080   6.395   2.919
56065W        W21292  13.533  36.444   0.017
56066W        W21293  23.474  35.573   2.387
56067W        W21294   9.168  26.744   2.229
56068W        W21295  37.291  44.428   3.213
56069W        W21296  21.546  41.767   1.269
56070W        W21297   3.430  42.276   2.284
56071W        W21298  33.869   3.444  14.216
56072W        W21299   8.860  36.285   2.773
56073W        W21300  20.326  20.905  13.852
56074W        W21301  32.822  10.059  12.385
56075W        W21302   1.507  14.766   2.418
56076W        W21303  21.563  39.507   1.602
56077W        W21304  14.241  18.806   3.242
56078W        W21305   5.077   9.993  13.542
56079W        W21306  43.377  28.714   4.260
56080W        W21307  36.891  32.076   4.026
56081W        W21308  44.670   5.778  13.000
56082W        W21309   6.743  38.649  12.842
56083W        W21310   0.832   0.577  13.376
56084W        W21311   2.925  19.205  10.628
56085W        W21312  26.831  23.185  12.990
56086W        W21313  30.174   8.811  10.625
56087W        W21314  12.522   4.725   1.207
56088W        W21315  18.789  40.675   0.659
56089W        W21316  23.214   2.793   3.360
56090W        W21317  15.004  11.653  11.233
56091W        W21318  12.865  37.255   4.467
56092W        W21319   9.564  44.036  10.448
56093W        W21320   6.884  16.606  14.330
56094W        W21321  10.760  33.702   0.430
56095W        W21322  20.193   5.943  14.974
56096W        W21323  35.455   0.393  11.245
56097W        W21324  10.594   3.491  11.597
56098W        W21325   9.358  37.720   5.095
56099W        W21326   4.988  33.631   4.941
56100W        W21327  35.360  43.412  14.579
56101W        W21328  44.313  15.739   0.784
56102W        W21329  17.122  33.022  11.599
56103W        W21330  15.442  44.953  10.253
56104W        W21331  13.065  22.754   4.360
56105W        W21332  31.363  44.253   0.772
56106W        W21333  29.864  36.860   0.065
56107W        W21334  36.492  23.051  14.963
56108W        W21335   6.469  15.098   1.682
56109W        W21336  24.311   4.322   4.104
56110W        W21337  20.082  10.416  13.984
56111W        W21338  13.199   5.558  13.305
56112W        W21339  11.346  22.499  11.574
56113W        W21340   0.294  39.812  13.287
56114W        W21341  39.640   1.050   4.155
56115W        W21342  28.001  37.720   1.381
56116W        W21343  25.187  39.469   2.678
56117W        W21344  31.064  39.532  11.786
56118W        W21345  16.062  18.210  11.498
56119W        W21346   2.825  21.704   4.778
56120W        W21347   4.006  40.629  10.678
56121W        W21348  13.742   8.779   3.765
56122W        W21349   1.733  38.272   0.389
56123W        W21350  36.015  28.736  14.221
56124W        W21351  31.850  30.561  13.990
56125W        W21352  28.418  35.292   3.267
56126W        W21353  35.925  41.732   3.140
56127W        W21354  15.598   7.131  13.592
56128W        W21355  32.559   5.931  12.839
56129W        W21356  36.352  29.511  12.547
56130W        W21357  14.812   6.455   4.163
56131W        W21358  26.725  41.493  13.546
56132W        W21359  40.013  37.859   3.205
56133W        W21360   9.230   1.843  13.956
56134W        W21361  34.924   4.674  11.165
56135W        W21362  13.857  40.793   4.648
56136W        W21363  40.296  22.137  12.540
56137W        W21364  35.881  40.278   4.090
56138W        W21365  31.364  27.447   0.311
56139W        W21366  29.695   0.940   0.803
56140W        W21367  15.233  23.363   1.243
56141W        W21368  39.807  11.102   3.292
56142W        W21369  11.568  25.090   0.354
56143W        W21370  15.408   0.804  11.510
56144W        W21371  39.235  19.761   1.913
56145W        W21372  12.809   5.904   1.743
56146W        W21373   0.387  32.967   4.445
56147W        W21374  12.574   6.784   4.085
56148W        W21375  21.161  37.642   3.616
56149W        W21376  31.715   3.386  11.594
56150W        W21377  16.152  15.283   1.053
56151W        W21378  24.069  41.955  14.868
56152W        W21379  41.982  34.866  13.135
56153W        W21380  33.545  26.182  11.075
56154W        W21381   5.516  19.328  11.214
56155W        W21382  25.911  28.965   3.126
56156W        W21383  11.267  13.696  11.208
56157W        W21384  23.631   6.415   2.604
56158W        W21385  26.581  32.336   4.866
56159W        W21386  23.462  35.544   0.678
56160W        W21387  31.015  18.773  13.016
56161W        W21388  40.440  34.086   0.221
56162W        W21389  40.404  23.984   2.761
56163W        W21390  11.415  28.155  14.330
56164W        W21391   9.070  16.679   1.782
56165W        W21392   7.445  36.528  14.580
56166W        W21393  30.013  43.925  12.603
56167W        W21394  22.357  23.268   1.162
56168W        W21395  35.461  15.825   4.212
56169W        W21396  33.397  43.155  11.815
56170W        W21397  39.799   6.472   2.773
56171W        W21398  42.217  32.032   1.314
56172W        W21399  21.218  25.961   1.284
56173W        W21400  14.743  20.742  14.027
56174W        W21401  21.177  44.220   4.077
56175W        W21402   5.522  26.387  13.619
56176W        W21403  37.291  25.199  10.282
56177W        W21404  16.057  12.760  13.035
56178W        W21405  10.856  16.650  14.013
56179W        W21406  26.097  32.144   0.329
56180W        W21407  22.459  31.301  11.150
56181W        W21408  28.981  39.498   3.609
56182W        W21409  21.785  37.294   0.299
56183W        W21410  29.370   3.848  11.006
56184W        W21411  18.769   5.274   2.399
56185W        W21412   7.497  14.270  10.334
56186W        W21413  12.428  37.445   1.591
56187W        W21414  17.403  24.958  13.867
56188W        W21415  28.774  34.400  12.895
56189W        W21416  17.274   6.691   1.382
56190W        W21417  35.163  22.696  11.621
56191W        W21418  23.741  36.419  12.129
56192W        W21419  11.155  22.596   0.292
56193W        W21420  36.224  26.363  11.177
56194W        W21421   6.410  19.500  12.064
56195W        W21422  32.940  19.792   0.470
56196W        W21423  22.283  42.974   4.093
56197W        W21424  16.504  29.437   2.769
56198W        W21425  20.662  38.325   4.653
56199W        W21426  43.556  25.142   3.566
56200W        W21427  30.068   1.992  12.041
56201W        W21428  38.829  34.947  13.430
56202W        W21429  35.034  23.985   2.623
56203W        W21430  23.420  29.756  12.445
56204W        W21431  43.047  44.305   1.406
56205W        W21432  28.352   0.782   3.360
56206W        W21433  33.602  25.392  10.654
56207W        W21434  11.365  37.901   0.553
56208W        W21435  18.704   4.366   0.047
56209W        W21436  19.366  42.471  14.338
56210W        W21437  38.917  24.717   0.018
56211W        W21438  30.665  43.910  11.120
56212W        W21439  11.232   8.739   4.275
56213W        W21440  26.923   5.161   0.314
56214W        W21441  10.900  22.230   2.323
56215W        W21442  38.074   2.012  12.980
56216W        W21443   5.007  36.346  12.243
56217W        W21444   9.674  32.529  11.318
56218W        W21445  19.532  13.247   3.282
56219W        W21446  23.249   7.162   2.386
56220W        W21447  36.367  18.543   1.770
56221W        W21448  35.056  40.907  12.915
56222W        W21449   3.336  18.763   2.971
56223W        W21450  17.272  12.198   0.771
56224W        W21451  35.051  28.169   4.690
56225W        W21452  24.241  29.364  13.353
56226W        W21453  19.077  28.251  11.272
56227W        W21454   7.532   9.893  11.643
56228W        W21455  18.665  33.626  13.791
56229W        W21456   6.739  20.716  12.548
56230W        W21457   3.884  18.816   1.245
56231W        W21458  30.382  12.111  10.705
56232W        W21459   2.314  16.016   3.047
56233W        W21460  12.853  42.413   2.377
56234W        W21461  38.477   9.792  10.181
56235W        W21462  27.437  21.672   2.612
56236W        W21463  28.550  28.873  13.480
56237W        W21464  40.760   6.701  14.776
56238W        W21465  22.132  13.542   4.564
56239W        W21466  37.153  15.339   1.338
56240W        W21467  44.796  36.698   0.235
56241W        W21468  37.343  25.538   4.094
56242W        W21469  13.451  32.925   2.847
56243W        W21470   1.325  41.850  11.109
56244W        W21471  42.265  38.300   3.651
56245W        W21472   8.157  43.273   0.031
56246W        W21473   8.484  38.528  14.377
56247W        W21474  24.152  42.629  14.100
56248W        W21475  16.016  32.674   0.293
56249W        W21476  15.128  34.579  12.405
56250W        W21477   8.993  33.346   1.327
56251W        W21478   3.954  25.471   3.879
56252W        W21479   3.045   8.150   5.047
56253W        W21480  40.818  33.386  11.046
56254W        W21481   1.959  29.514   4.122
56255W        W21482   2.825  43.359  14.829
56256W        W21483  37.062  17.457  12.040
56257W        W21484  16.802   5.143   2.429
56258W        W21485  15.118  44.456  13.076
56259W        W21486   1.552  32.237   0.787
56260W        W21487   8.188  29.603  13.883
56261W        W21488  22.052  14.678  12.954
56262W        W21489  34.266   4.325   0.271
56263W        W21490   2.485  42.227   4.018
56264W        W21491  30.487  22.168   3.235
56265W        W21492   1.186  41.381   1.414
56266W        W21493   3.931   8.473  10.773
56267W        W21494  29.073  41.374   3.404
56268W        W21495  37.885  11.393   1.417
56269W        W21496  38.526   3.054   0.697
56270W        W21497  12.027  39.349  10.564
56271W        W21498   3.349  12.224  13.077
56272W        W21499  44.947   1.339   3.611
56273W        W21500  23.577  40.018   4.069
56274W        W21501  41.963  30.237   0.838
56275W        W21502   7.294  12.629   3.113
56276W        W21503  29.845  11.773  11.089
56277W        W21504   2.813  10.397   0.445
56278W        W21505  21.068  33.621   4.259
56279W        W21506  18.773  25.285  11.854
56280W        W21507   0.840  34.438  13.614
56281W        W21508   9.026   1.966   2.488
56282W        W21509  44.469  31.351   1.924
56283W        W21510  15.548  37.986  12.081
56284W        W21511  35.694   2.269  12.892
56285W        W21512   0.206  11.120   3.188
56286W        W21513  16.279  27.516   4.580
56287W        W21514   9.797  32.591  13.039
56288W        W21515   1.975  34.857   2.675
56289W        W21516   5.975  32.828   3.727
56290W        W21517  15.946  32.877   4.562
56291W        W21518  24.719  15.119   0.263
56292W        W21519  26.357  17.222   1.241
56293W        W21520  43.959   8.308   1.720
56294W        W21521   6.422  14.275   0.328
56295W        W21522  23.944  39.078  12.674
56296W        W21523   5.460  11.859  14.047
56297W        W21524  37.391  20.821  11.896
56298W        W21525  29.008  17.174  12.005
56299W        W21526  15.841  10.864   2.302
56300W        W21527  36.068  21.034   2.328
56301W        W21528   6.503   7.151   1.791
56302W        W21529   4.768  44.817  12.815
56303W        W21530   0.354  10.044  10.852
56304W        W21531  34.083  15.854   1.667
56305W        W21532  14.863  12.238   1.865
56306W        W21533  38.414  42.305   0.657
56307W        W21534  35.079  13.359   0.210
56308W        W21535   2.279  18.349   2.382
56309W        W21536  36.967  11.428   4.981
56310W        W21537   9.416  19.539  13.476
56311W        W21538   5.858  42.076   2.079
56312W        W21539  23.993  31.257  14.848
56313W        W21540  10.159  21.576  14.264
56314W        W21541  12.578   9.376   4.671
56315W        W21542  14.445  31.386   3.605
56316W        W21543  41.704  33.532  10.151
56317W        W21544  12.101  13.747  10.739
56318W        W21545  11.896  11.255  14.361
56319W        W21546  36.296  15.162  12.550
56320W        W21547  10.625  41.473   2.221
56321W        W21548  43.547  37.787   4.678
56322W        W21549  27.030  12.778   0.002
56323W        W21550  15.065  19.941  14.488
56324W        W21551  32.547  40.833   0.976
56325W        W21552  40.063   8.707   1.541
56326W        W21553  11.928   6.200   0.934
56327W        W21554  40.205  27.414   1.421
56328W        W21555  23.538  15.600   0.373
56329W        W21556   8.122  38.020  10.539
56330W        W21557  32.699  23.462   2.216
56331W        W21558  43.997  20.305   4.115
56332W        W21559  30.916  44.780  11.043
56333W        W21560  32.956  33.489  12.908
56334W        W21561   2.832  11.709  12.523
56335W        W21562   6.668  12.832  13.000
56336W        W21563  26.521  37.411  11.941
56337W        W21564   4.724  30.746  14.309
56338W        W21565  39.350  24.550   1.808
56339W        W21566  21.668  38.916  12.444
56340W        W21567  30.104  15.258   0.681
56341W        W21568  28.988  41.768   0.899
56342W        W21569  32.698  34.026   4.321
56343W        W21570  17.702  20.722  11.421
56344W        W21571  32.114  43.511   2.654
56345W        W21572  31.661  39.086  10.222
56346W        W21573  20.544  41.377  14.471
56347W        W21574   2.101  19.970   4.016
56348W        W21575  34.048  11.680  14.001
56349W        W21576   8.667  43.990  12.822
56350W        W21577  35.332  32.361  10.655
56351W        W21578  26.441   5.190   2.220
56352W        W21579  32.392  37.821  12.118
56353W        W21580   2.454   4.151   2.352
56354W        W21581  37.430   4.651   2.400
56355W        W21582  18.158  41.231   4.097
56356W        W21583  38.818   3.249   1.317
56357W        W21584   3.531  34.148   0.426
56358W        W21585   0.575   9.906   4.773
56359W        W21586  36.800  17.973  12.437
56360W        W21587   5.722  32.426   1.887
56361W        W21588  30.682  26.656  13.452
56362W        W21589  17.819  20.198  12.429
56363W        W21590  41.002  37.820  13.395
56364W        W21591  23.171   5.325   0.822
56365W        W21592  43.902  10.647   4.868
56366W        W21593  10.912  31.863   1.913
56367W        W21594  14.850   6.031   0.772
56368W        W21595   9.697  43.720   4.566
56369W        W21596  19.267  15.326   2.771
56370W        W21597  36.176  24.203  14.509
56371W        W21598  17.831   2.356   3.769
56372W        W21599   1.324   2.657  11.233
56373W        W21600  32.604  26.526  11.169
56374W        W21601  21.091  13.908  11.673
56375W        W21602  13.390  34.880  12.457
56376W        W21603  21.686   2.906   1.349
56377W        W21604  23.109  11.649   2.257
56378W        W21605  36.060   3.904  11.588
56379W        W21606   7.322  42.672  12.956
56380W        W21607  30.629  25.432  13.876
56381W        W21608   4.387   9.813  10.912
56382W        W21609   8.483   4.879  11.358
56383W        W21610  15.812   1.199   0.658
56384W        W21611  23.164  29.169  11.887
56385W        W21612  13.167  13.086   3.792
56386W        W21613  40.064   4.902   4.487
56387W        W21614  32.278  28.219  14.407
56388W        W21615  14.284  21.803  13.057
56389W        W21616  20.543  21.625   2.343
56390W        W21617  20.707  20.569  13.921
56391W        W21618  41.954   0.951  10.058
56392W        W21619  33.866  11.189  13.984
56393W        W21620  14.374  31.433  12.023
56394W        W21621  33.955  41.604   1.162
56395W        W21622  10.919  30.075  12.886
56396W        W21623   9.406  25.606   1.360
56397W        W21624  43.773   0.436  14.052
56398W        W21625  16.297  10.594  14.500
56399W        W21626  36.489  21.924   4.167
56400W        W21627  32.984  25.283   3.682
56401W        W21628  20.707  12.890   4.144
56402W        W21629  11.794  37.454   2.147
56403W        W21630  21.457  43.990   4.839
56404W        W21631  13.073  28.620   2.911
56405W        W21632   9.812  35.508  11.167
56406W        W21633  22.921  10.423  11.983
56407W        W21634   7.819   5.491  14.330
56408W        W21635  11.725  33.093   0.101
56409W        W21636  16.055  17.162   2.288
56410W        W21637  12.039  32.272   3.828
56411W        W21638  11.909  44.959   4.790
56412W        W21639  24.156  28.471  11.946
56413W        W21640  38.005  39.711   9.806
56414W        W21641  16.423   0.079   2.692
56415W        W21642  23.816  28.968  13.563
56416W        W21643  22.691  15.332  13.128
56417W        W21644  34.193  11.832  10.686
56418W        W21645   2.198  31.639  11.506
56419W        W21646  10.658  39.688   1.474
56420W        W21647   4.743  26.675  14.018
56421W        W21648  17.334  35.948  13.518
56422W        W21649  40.516  18.748  10.772
56423W        W21650   0.737   9.978   0.102
56424W        W21651  44.285   1.675  11.894
56425W        W21652   7.955   3.076   4.968
56426W        W21653  19.557   2.682  14.477
56427W        W21654  27.575  42.237  14.454
56428W        W21655  21.563  18.468  11.479
56429W        W21656  44.234  38.973  13.908
56430W        W21657  15.090  20.792   0.741
56431W        W21658  41.898  21.079   0.931
56432W        W21659  14.393   5.213   4.061
56433W        W21660  21.279  23.525  12.576
56434W        W21661  18.233  37.556  10.535
56435W        W21662   9.835  21.147   1.149
56436W        W21663  24.952  36.297  11.284
56437W        W21664  16.017  30.114  11.136
56438W        W21665  29.033  23.682   1.802
56439W        W21666  29.545   8.387  10.663
56440W        W21667   0.406  32.849  11.094
56441W        W21668  36.814  23.070  14.097
56442W        W21669   2.372  30.075   1.794
56443W        W21670  28.249  26.860  13.987
56444W        W21671  21.764  21.663  11.248
56445W        W21672  28.985  24.519   1.261
56446W        W21673   5.740  42.967  11.919
56447W        W21674   4.416   0.509   3.488
56448W        W21675  18.841  26.626  14.009
56449W        W21676   4.924  11.701   5.135
56450W        W21677   4.913  38.392   4.060
56451W        W21678  43.556  28.959  12.806
56452W        W21679  12.390  40.647  11.446
56453W        W21680  39.754  40.942   3.685
56454W        W21681  20.998   3.177   3.898
56455W        W21682  22.795  12.637   1.054
56456W        W21683  29.859  19.799  13.119
56457W        W21684  18.765  27.377  14.349
56458W        W21685  25.167  39.871   3.223
56459W        W21686  25.648  33.620  14.487
56460W        W21687  20.776  10.583   2.692
56461W        W21688  15.059  39.987   1.410
56462W        W21689  17.122  12.212   3.728
56463W        W21690  44.967  42.906   0.431
56464W        W21691  41.947  34.377   0.805
56465W        W21692  13.152  35.373  12.439
56466W        W21693  42.160  42.803   3.167
56467W        W21694   6.243  38.285   3.748
56468W        W21695  44.304   6.404   2.721
56469W        W21696  24.205  39.579   1.807
56470W        W21697  22.188  33.823   3.082
56471W        W21698  31.642  18.796  10.819
56472W        W21699  15.593  15.636   4.645
56473W        W21700  42.663   0.717  13.164
56474W        W21701  23.277  42.423  14.889
56475W        W21702  42.766  15.846   1.670
56476W        W21703  16.680  23.047   2.891
56477W        W21704  11.343  36.867   1.307
56478W        W21705  11.419  42.062  14.850
56479W        W21706  11.229   1.924  14.698
56480W        W21707  24.290  26.355  10.416
56481W        W21708  18.225  30.410   1.392
56482W        W21709  41.083  38.456   1.354
56483W        W21710   2.245  30.649  10.559
56484W        W21711  20.259  25.694  12.290
56485W        W21712  21.475   8.312   0.654
56486W        W21713  28.484  14.727  14.576
56487W        W21714  29.951  43.487   0.291
56488W        W21715  36.819  11.689   4.155
56489W        W21716  20.823  18.775  10.749
56490W        W21717   1.479   1.899  14.558
56491W        W21718  27.114  18.939   3.717
56492W        W21719  26.142  23.981  10.797
56493W        W21720  33.483  29.590   3.977
56494W        W21721   8.397  29.144  14.048
56495W        W21722   4.836  16.067   0.284
56496W        W21723  11.839   4.429  14.531
56497W        W21724  33.166   8.456  11.001
56498W        W21725  10.591  29.675   0.424
56499W        W21726  41.165  24.640  11.724
56500W        W21727  15.789  24.906   3.704
56501W        W21728  17.552  14.287  14.918
56502W        W21729  25.018  20.729  12.905
56503W        W21730  32.883  25.400  11.426
56504W        W21731  28.662  23.811  10.986
56505W        W21732  41.996  33.607  14.743
56506W        W21733   5.768  25.921  13.802
56507W        W21734  17.025  12.126  14.275
56508W        W21735   1.983  14.229  11.202
56509W        W21736   9.423  40.779   4.350
56510W        W21737   1.812  31.715   4.161
56511W        W21738  34.116  31.245   3.663
56512W        W21739  34.883  35.074   2.792
56513W        W21740  23.646  12.877  14.831
56514W        W21741  38.417   1.604   2.451
56515W        W21742  43.770   0.888   3.537
56516W        W21743  13.436  28.916   1.711
56517W        W21744  42.430  37.944  12.161
56518W        W21745   9.538   7.671  13.910
56519W        W21746  44.278  18.185  13.084
56520W        W21747  25.234  25.320   4.706
56521W        W21748  25.357   2.394  12.606
56522W        W21749  44.767  13.158   3.171
56523W        W21750   0.351  32.269  13.904
56524W        W21751  17.042   9.279  10.568
56525W        W21752  31.079  24.528  13.907
56526W        W21753  28.169  20.508   0.306
56527W        W21754  18.225  30.715   1.857
56528W        W21755  41.820  14.249   0.289
56529W        W21756  29.670   7.788  12.428
56530W        W21757  16.726  39.962   2.514
56531W        W21758   0.525  11.671  12.116
56532W        W21759   9.119  41.434  12.182
56533W        W21760  11.686  37.200   4.978
56534W        W21761  10.173  27.522   0.299
56535W        W21762  42.624   7.292  11.634
56536W        W21763  21.154  35.857  13.999
56537W        W21764   5.983  11.947  10.556
56538W        W21765  17.058  35.041  10.635
56539W        W21766  25.028   9.339  14.944
56540W        W21767  37.055  15.791   0.113
56541W        W21768  20.237  29.865   0.407
56542W        W21769  35.877  10.698  11.674
56543W        W21770   5.518  41.133  10.770
56544W        W21771  40.335  41.830   0.044
56545W        W21772  28.834  29.588  12.163
56546W        W21773  28.372  12.216  13.653
56547W        W21774  43.908  22.145  10.195
56548W        W21775   0.850  22.639  14.896
56549W        W21776  43.620  34.458  11.972
56550W        W21777  15.725  38.606   3.274
56551W        W21778  32.831  27.304   0.763
56552W        W21779  22.070  34.950  13.031
56553W        W21780  28.596  27.875   2.558
56554W        W21781  40.541  26.618  11.202
56555W        W21782  27.450  33.459  12.464
56556W        W21783   8.121   6.704  14.838
56557W        W21784  43.540  13.893   2.743
56558W        W21785  26.505  21.640  12.333
56559W        W21786   6.891  23.071   1.866
56560W        W21787  28.791  21.541   2.383
56561W        W21788  31.985  22.137  13.947
56562W        W21789   9.016   3.554   5.008
56563W        W21790  25.520   2.317   2.644
56564W        W21791  34.586  32.829   1.799
56565W        W21792   4.284  30.797  10.419
56566W        W21793  42.501   8.081  12.418
56567W        W21794  16.655  36.587  13.275
56568W        W21795  32.974  12.618   1.004
56569W        W21796  28.004  37.426   3.635
56570W        W21797   4.800  35.588  12.428
56571W        W21798  23.049  25.829   4.628
56572W        W21799  40.038  20.987   0.728
56573W        W21800  32.005  34.458  13.555
56574W        W21801  39.801  41.419   1.412
56575W        W21802  15.620  14.218   0.034
56576W        W21803   8.116   1.934  12.166
56577W        W21804   4.463   8.523  13.273
56578W        W21805  20.722  13.341  14.356
56579W        W21806   9.724  16.119  13.439
56580W        W21807  35.105   0.722   3.209
56581W        W21808  44.899  25.132   4.384
56582W        W21809  11.682   4.923   1.642
56583W        W21810  15.324   9.576  13.713
56584W        W21811  34.613   5.281   4.099
56585W        W21812   4.806   9.097  12.570
56586W        W21813  33.433  33.599   1.675
56587W        W21814  24.466  27.109   4.835
56588W        W21815  36.714  16.349   1.536
56589W        W21816  36.398  38.065   0.972
56590W        W21817   1.401  11.266  12.589
56591W        W21818  32.976  24.570  12.628
56592W        W21819  38.518   3.146   0.166
56593W        W21820  25.692  34.535  13.516
56594W        W21821   9.639  44.322  11.096
56595W        W21822   9.121   5.246  13.023
56596W        W21823  40.973  36.884  14.961
56597W        W21824  22.106  34.489   2.821
56598W        W21825  44.839  34.467  13.451
56599W        W21826  11.552  34.868  14.856
56600W        W21827  25.514  16.585   3.642
56601W        W21828  12.296  33.452  14.605
56602W        W21829   2.417  37.517  13.070
56603W        W21830  43.262  33.028  13.459
56604W        W21831   9.725  24.969  11.551
56605W        W21832  39.838   9.457   1.169
56606W        W21833  27.516  28.701  12.780
56607W        W21834  32.901   0.475   1.782
56608W        W21835   4.659  11.280  10.638
56609W        W21836   0.590  16.478  11.484
56610W        W21837   4.398  28.181  14.094
56611W        W21838  36.653   9.063  11.032
56612W        W21839   1.320  22.113  12.712
56613W        W21840  32.456  21.875   2.386
56614W        W21841  27.701  42.028  13.979
56615W        W21842  22.014  37.837  10.781
56616W        W21843  33.636  26.853   0.458
56617W        W21844  28.994   2.674   2.858
56618W        W21845  28.489  13.845   0.065
56619W        W21846  35.910  18.213   3.237
56620W        W21847   7.003  24.988  10.842
56621W        W21848   0.075  35.361   4.178
56622W        W21849  33.858   2.929   4.212
56623W        W21850  40.411   0.326  14.229
56624W        W21851  36.022  12.670   1.037
56625W        W21852  10.333  44.848  14.565
56626W        W21853  21.058  23.948  13.401
56627W        W21854  40.087  44.478  14.618
56628W        W21855   6.846   9.789   3.562
56629W        W21856   3.358  28.659   2.117
56630W        W21857  25.182  37.219  12.611
56631W        W21858  30.978  44.299   4.205
56632W        W21859  32.402   6.554   2.406
56633W        W21860   7.170   2.973   1.152
56634W        W21861   0.902  42.561  11.560
56635W        W21862  38.570  14.433   4.814
56636W        W21863  38.935  17.222   0.459
56637W        W21864  42.388  44.771   3.237
56638W        W21865  21.339  23.647  10.094
56639W        W21866  26.201  11.090   3.337
56640W        W21867  39.799  19.621   0.480
56641W        W21868  23.684   0.681   1.369
56642W        W21869  26.717  36.251   3.287
56643W        W21870  36.681  39.137   0.956
56644W        W21871  16.726  13.121   1.292
56645W        W21872  31.692  17.776  13.837
56646W        W21873  44.656  17.792   1.594
56647W        W21874  29.013  19.857  14.247
56648W        W21875   9.956  20.624   2.169
56649W        W21876  32.564  21.583  10.729
56650W        W21877  43.266  27.459   4.276
56651W        W21878  37.902  39.478   4.316
56652W        W21879   8.363  26.131   3.693
56653W        W21880   6.598  11.659   4.147
56654W        W21881  20.761  15.683  12.893
56655W        W21882  21.726  28.645  13.769
56656W        W21883  44.811  17.327  14.293
56657W        W21884  33.550   5.634  10.412
56658W        W21885  36.005   7.890   4.114
56659W        W21886  38.072  27.116   1.305
56660W        W21887  15.628   0.430   2.170
56661W        W21888  29.103   4.227  14.614
56662W        W21889  21.150   8.629  11.123
56663W        W21890  21.980   6.286  11.976
56664W        W21891   9.103  20.017  10.683
56665W        W21892  26.023  12.061   1.219
56666W        W21893  24.802  11.445  12.497
56667W        W21894   9.186  23.632  10.759
56668W        W21895  16.213  13.179  14.267
56669W        W21896  29.908  32.083   1.587
56670W        W21897  36.589  26.408  12.032
56671W        W21898   4.670   9.462  11.190
56672W        W21899  21.557  30.643  12.525
56673W        W21900  27.689  19.571  12.128
56674W        W21901  31.557  32.119   1.019
56675W        W21902   6.534  18.482  11.259
56676W        W21903  38.526  20.773  10.930
56677W        W21904  33.953   8.991   4.073
56678W        W21905  31.941  38.601   1.723
56679W        W21906  26.464  11.740   2.377
56680W        W21907  12.874  16.155   0.148
56681W        W21908  23.462  19.083  12.943
56682W        W21909  29.101   9.684  11.576
56683W        W21910  13.324  38.815  12.684
56684W        W21911  10.161   7.972  12.360
56685W        W21912  23.352  23.011  11.767
56686W        W21913  20.114   9.571  12.909
56687W        W21914  23.548  34.664   1.697
56688W        W21915   6.425  28.699  14.437
56689W        W21916  24.085  10.529   2.781
56690W        W21917  18.434  33.502   2.683
56691W        W21918  28.155  30.564   0.378
56692W        W21919   4.759   2.449   5.109
56693W        W21920  11.726  29.939   1.351
56694W        W21921  26.820   4.855  12.526
56695W        W21922  42.821  42.530  10.511
56696W        W21923  43.136  42.844  10.807
56697W        W21924  13.321  38.592   2.335
56698W        W21925  17.005  38.996  11.660
56699W        W21926   0.729  16.678   2.032
56700W        W21927  11.114   3.738  13.365
56701W        W21928  20.644  20.203   3.528
56702W        W21929  41.836   2.841  13.507
56703W        W21930  24.963  21.108   1.354
56704W        W21931  39.142  27.474   2.042
56705W        W21932  41.813   7.913  12.958
56706W        W21933  36.490  33.428   2.881
56707W        W21934  15.229  32.564  10.638
56708W        W21935  41.699   0.365   2.510
56709W        W21936  33.061  39.109  14.902
56710W        W21937   5.035   1.179  11.907
56711W        W21938  39.597  42.812  13.944
56712W        W21939  35.302   3.598   0.724
56713W        W21940  37.550  33.485  13.174
56714W        W21941   6.726  19.915  12.051
56715W        W21942  34.523  25.604  11.167
56716W        W21943  25.190  39.489  14.115
56717W        W21944  26.444  36.469  14.441
56718W        W21945  27.155  31.722   1.652
56719W        W21946  31.316   5.775  11.097
56720W        W21947  12.120  25.588  12.539
56721W        W21948  40.204  20.118   3.851
56722W        W21949  28.601  16.743  10.434
56723W        W21950  26.112  11.315  11.501
56724W        W21951  40.035   9.933   1.268
56725W        W21952  25.955  34.089  13.384
56726W        W21953  15.717  11.381   1.349
56727W        W21954   4.925  23.595   1.886
56728W        W21955  18.152  34.552  11.617
56729W        W21956  20.023  13.698   1.335
56730W        W21957  23.120  30.078   1.363
56731W        W21958  32.086  31.665  10.120
56732W        W21959  12.870  22.534  12.421
56733W        W21960  23.101  16.258  11.390
56734W        W21961  31.518  22.237  13.060
56735W        W21962   9.262   4.303   4.811
56736W        W21963  12.535  16.565  11.500
56737W        W21964  19.696  33.520  10.614
56738W        W21965  37.074  33.033  14.055
56739W        W21966  30.739  21.507   2.449
56740W        W21967  37.654  32.376   1.712
56741W        W21968   3.591   0.411   0.763
56742W        W21969  26.196   4.052   3.105
56743W        W21970   0.210  27.831  14.330
56744W        W21971  10.284  27.595  13.203
56745W        W21972  36.311  21.550   3.856
56746W        W21973  28.948  35.837  12.076
56747W        W21974  27.838  14.196  13.480
56748W        W21975  35.464  19.982  12.883
56749W        W21976  32.348   2.995  11.114
56750W        W21977   9.762  28.996   1.397
56751W        W21978  26.570  32.844   4.634
56752W        W21979  40.055  17.611  11.986
56753W        W21980  38.461  16.858  11.414
56754W        W21981  37.914  21.690  14.418
56755W        W21982   1.747  25.801  10.153
56756W        W21983   2.769  30.683  10.672
56757W        W21984  20.300  10.840   4.646
56758W        W21985  42.381  23.675  14.806
56759W        W21986  44.031  27.556  11.048
56760W        W21987  41.270  38.129  13.736
56761W        W21988  30.888  17.438  12.549
56762W        W21989  20.062  32.720  13.781
56763W        W21990  20.650   8.632   2.226
56764W        W21991  36.344  35.701  12.461
56765W        W21992  26.587  36.657  13.162
56766W        W21993  34.926  29.092   0.015
56767W        W21994   6.400  17.228  11.045
56768W        W21995   8.288  28.953  12.698
56769W        W21996   4.919  33.123   1.769
56770W        W21997  24.436  24.004   3.164
56771W        W21998  16.752  11.272  12.129
56772W        W21999  17.234   2.773  13.398
56773W        W22000  30.440  38.860   0.151
56774W        W22001  21.675  34.823   3.027
56775W        W22002  31.715  36.802   1.681
56776W        W22003  21.490  25.398   4.927
56777W        W22004  35.608  19.058   3.678
56778W        W22005  38.884  44.837  13.576
56779W        W22006  35.970  17.168   0.749
56780W        W22007  20.188  16.152   1.859
56781W        W22008  43.660  18.766  10.717
56782W        W22009  19.054  22.945  12.610
56783W        W22010  42.765  11.845   2.538
56784W        W22011  21.916   8.639   1.265
56785W        W22012  35.622  32.183  11.060
56786W        W22013  44.541   1.433  14.330
56787W        W22014  34.366  17.038  12.118
56788W        W22015  23.523  21.315  13.911
56789W        W22016   6.376  36.183  10.834
56790W        W22017  29.405  25.772   4.996
56791W        W22018  20.579   2.407   4.381
56792W        W22019  30.432  40.540   3.163
56793W        W22020  20.500  24.160   4.568
56794W        W22021  10.865  34.337  13.237
56795W        W22022  21.315  30.891   1.308
56796W        W22023  37.048  38.332  12.487
56797W        W22024   1.462   4.282   1.059
56798W        W22025  12.338   1.995   2.002
56799W        W22026   5.277   4.354   3.860
56800W        W22027   9.197  12.892   1.343
56801W        W22028  38.487  44.823  11.563
56802W        W22029  17.563   7.651  14.820
56803W        W22030   9.374   5.354  10.683
56804W        W22031   7.905  38.768   0.877
56805W        W22032  13.961  43.856  12.380
56806W        W22033   0.349  28.502   1.353
56807W        W22034  44.264  18.668  11.218
56808W        W22035  16.711  27.549  14.676
56809W        W22036  36.602   6.905  13.885
56810W        W22037  17.677  14.742  12.021
56811W        W22038  41.352   0.534  13.924
56812W        W22039   8.645  41.704  12.670
56813W        W22040   3.814  40.376  14.735
56814W        W22041  39.358  25.683   0.808
56815W        W22042  23.989  25.535   0.938
56816W        W22043  25.620   6.628   0.807
56817W        W22044  15.150   0.561   2.306
56818W        W22045  38.620  35.531   1.808
56819W        W22046   4.752   6.101   1.953
56820W        W22047  16.261  41.828  13.704
56821W        W22048  30.714  12.754  10.274
56822W        W22049  28.333   8.219  12.688
56823W        W22050  29.030  18.442   2.875
56824W        W22051  22.975  33.813   0.359
56825W        W22052  38.329  44.850   0.775
56826W        W22053  42.509  30.986   0.362
56827W        W22054  16.390  10.428   3.353
56828W        W22055  20.185   4.650  12.115
56829W        W22056  42.594  38.181   4.462
56830W        W22057  15.673  23.309  10.768
56831W        W22058  40.951  28.043   3.163
56832W        W22059  27.714  44.689  12.070
56833W        W22060  15.724  30.436   2.370
56834W        W22061  34.524  33.671  10.402
56835W        W22062  40.433   5.158   2.628
56836W        W22063  19.801  38.712  11.526
56837W        W22064  30.871  16.797   3.286
56838W        W22065  18.437  23.659   0.741
56839W        W22066   0.204  25.598  13.508
56840W        W22067  27.061  26.624   1.291
56841W        W22068   4.471  44.365   0.343
56842W        W22069  37.861  20.006  13.974
56843W        W22070  40.927   5.236   3.300
56844W        W22071   7.601  27.003   2.740
56845W        W22072  38.775  43.970   1.206
56846W        W22073  20.239   0.012  13.914
56847W        W22074  27.057  11.702   1.397
56848W        W22075  37.815  12.651  14.290
56849W        W22076  30.155  21.622   3.760
56850W        W22077   1.700   4.218   2.737
56851W        W22078   1.223   6.251   1.354
56852W        W22079  29.948  13.096  13.200
56853W        W22080  38.355  38.009   2.601
56854W        W22081  42.027  11.625   3.721
56855W        W22082   6.036  11.631  12.830
56856W        W22083  18.580  12.477   4.101
56857W        W22084   1.984  32.390  14.832
56858W        W22085   4.662  21.707   4.147
56859W        W22086  32.678  15.145   0.616
56860W        W22087  32.861  17.091  13.986
56861W        W22088  18.465  39.116  11.029
56862W        W22089  34.411   5.816  10.421
56863W        W22090  25.627  18.504   3.252
56864W        W22091  17.684   4.333  14.257
56865W        W22092  34.236  19.591   2.860
56866W        W22093  22.635  36.141  13.172
56867W        W22094  10.429  39.999  12.463
56868W        W22095  32.624  33.900  12.991
56869W        W22096  31.884  10.000  10.075
56870W        W22097  36.947  14.409   4.205
56871W        W22098   8.385  16.032  13.089
56872W        W22099  21.213   1.961   2.794
56873W        W22100  41.852  40.377   3.336
56874W        W22101  35.916  21.764   2.746
56875W        W22102  15.710  11.283   5.071
56876W        W22103  16.018   5.210  12.962
56877W        W22104  33.034  28.026   0.055
56878W        W22105   7.811  30.293   4.879
56879W        W22106  10.639   4.254   3.300
56880W        W22107  30.604  17.208   0.701
56881W        W22108  39.826  20.262   1.290
56882W        W22109   7.223  23.957  12.111
56883W        W22110  19.008  31.477  11.915
56884W        W22111   7.271  14.328  14.968
56885W        W22112  35.426  16.848  11.621
56886W        W22113  37.797   7.472   0.531
56887W        W22114  37.879  17.775  13.099
56888W        W22115  41.721   6.931  11.104
56889W        W22116  17.579  39.903  10.391
56890W        W22117   2.988  20.610   9.821
56891W        W22118  12.563   0.550   2.713
56892W        W22119  41.029  11.314  13.528
56893W        W22120  15.442   7.879  12.520
56894W        W22121  10.186  31.855  14.897
56895W        W22122  34.036  33.264  14.104
56896W        W22123  36.519  37.643  11.562
56897W        W22124  26.225  44.488   1.700
56898W        W22125  17.723  28.224  14.963
56899W        W22126   5.609   9.017  13.939
56900W        W22127  31.539   8.304  13.752
56901W        W22128   7.344  25.407   4.692
56902W        W22129   7.784  32.661   2.212
56903W        W22130  41.947  41.960   3.736
56904W        W22131   0.890  24.426   0.462
56905W        W22132  39.466  38.393  13.598
56906W        W22133   4.810  19.990  11.472
56907W        W22134   6.976   5.772   3.818
56908W        W22135   0.057  38.376  12.135
56909W        W22136  22.948   9.234   2.191
56910W        W22137  28.587  12.404  12.036
56911W        W22138  24.648  26.174   2.610
56912W        W22139  15.289  10.744   1.865
56913W        W22140  22.412  10.301  13.004
56914W        W22141  34.495  35.886   3.886
56915W        W22142  22.576  24.937  12.408
56916W        W22143  27.322  31.080  13.139
56917W        W22144   8.922  10.360  12.475
56918W        W22145  19.124  22.249   4.092
56919W        W22146  36.389  36.401   1.334
56920W        W22147  43.865  27.929   0.900
56921W        W22148   2.393   1.156   2.424
56922W        W22149  23.215  10.316   4.120
56923W        W22150  29.422  28.573   1.622
56924W        W22151  10.011  15.584   2.674
56925W        W22152  13.405  40.397   0.803
56926W        W22153  26.550  43.604   4.046
56927W        W22154  29.623  12.385  14.575
56928W        W22155  30.607   5.620  14.839
56929W        W22156  14.158  23.926  11.028
56930W        W22157   6.730  25.405  11.650
56931W        W22158  10.388  27.754  14.879
56932W        W22159   1.739   4.775  14.266
56933W        W22160   6.469  26.184  13.639
56934W        W22161  31.023  15.810  14.929
56935W        W22162   1.460  29.494   0.976
56936W        W22163   3.747   2.485  11.965
56937W        W22164  21.599  37.131   4.316
56938W        W22165  10.274  35.962   1.331
56939W        W22166  24.794  27.534   4.848
56940W        W22167  16.300  38.307   3.567
56941W        W22168  18.463  30.181  14.573
56942W        W22169  20.770   6.699  11.511
56943W        W22170  44.776  44.376   4.262
56944W        W22171  27.641   8.833   3.165
56945W        W22172  34.320  44.952   1.404
56946W        W22173  29.104  33.806   2.777
56947W        W22174  11.052  10.362   4.136
56948W        W22175   5.938  14.216  12.962
56949W        W22176  40.382  24.788   3.069
56950W        W22177  43.041  28.498   2.525
56951W        W22178  16.196  26.060   4.582
56952W        W22179  23.636  24.073  14.365
56953W        W22180  19.311  12.754  14.201
56954W        W22181   0.066  16.726  10.767
56955W        W22182  34.963  27.546  12.915
56956W        W22183   0.043  43.852  14.356
56957W        W22184  37.343  16.168   0.370
56958W        W22185  41.053  44.044   4.733
56959W        W22186   3.720   4.651  12.505
56960W        W22187  18.647   2.542   4.048
56961W        W22188   2.414   7.654   0.004
56962W        W22189  43.289   9.570  13.503
56963W        W22190  25.643  14.740   3.362
56964W        W22191  13.340   0.820   4.171
56965W        W22192   2.811   0.973  14.072
56966W        W22193  11.978  35.286   3.188
56967W        W22194  27.733  37.511   2.329
56968W        W22195   3.201  30.554   5.358
56969W        W22196  11.905  26.321   3.761
56970W        W22197  26.220  37.823  12.073
56971W        W22198  31.473  40.393   2.116
56972W        W22199  11.355  31.578   3.643
56973W        W22200  20.678  13.560   2.778
56974W        W22201  17.481  23.901  14.415
56975W        W22202  44.966   8.936  13.942
56976W        W22203  36.367  39.975   0.669
56977W        W22204  37.223   0.241   2.769
56978W        W22205  39.015  31.132   3.666
56979W        W22206  41.276  12.593  10.534
56980W        W22207  19.568  24.599   2.214
56981W        W22208  26.580  19.086  12.823
56982W        W22209  30.250  39.060   3.343
56983W        W22210   5.656  14.166  12.487
56984W        W22211   3.667  34.984  14.440
56985W        W22212  19.483   7.824   4.657
56986W        W22213   3.462   5.904  14.538
56987W        W22214  41.481  17.274   4.216
56988W        W22215  16.196  41.154  14.984
56989W        W22216  34.087   0.875   0.498
56990W        W22217  27.012  25.034  13.505
56991W        W22218  44.915  44.773  11.740
56992W        W22219  26.835   9.734  11.660
56993W        W22220   0.724   6.215  11.489
56994W        W22221  18.661  35.687   1.102
56995W        W22222  11.283   0.017   3.203
56996W        W22223  33.151  14.106   5.538
56997W        W22224  33.995  39.810   2.376
56998W        W22225  19.388   7.730  13.408
56999W        W22226  44.369  20.586   1.257
57000W        W22227   8.724   7.768  14.393
57001W        W22228  39.568  40.521   3.467
57002W        W22229  17.628  43.808   1.205
57003W        W22230  35.171  31.263  11.120
57004W        W22231  10.453  21.094   3.769
57005W        W22232  16.791  21.653  11.138
57006W        W22233  36.423  30.875  11.257
57007W        W22234  13.900  28.752   0.930
57008W        W22235  41.879  23.159   3.314
57009W        W22236  43.705  31.087  13.389
57010W        W22237  26.975  17.382   1.393
57011W        W22238  15.134   2.015  14.967
57012W        W22239   2.500  42.913   1.682
57013W        W22240  43.524   6.916  14.317
57014W        W22241  22.233  14.716   2.297
57015W        W22242  15.278  34.335  14.556
57016W        W22243   4.493  21.906  11.525
57017W        W22244  33.157  16.244   2.669
57018W        W22245  43.246  36.054  10.837
57019W        W22246  43.437  21.230  12.582
57020W        W22247  42.493  38.361  13.985
57021W        W22248  26.582  16.287   3.198
57022W        W22249  31.678  17.111   4.222
57023W        W22250  41.161  18.631   3.930
57024W        W22251  23.482   4.191  13.467
57025W        W22252   4.071   5.870   4.314
57026W        W22253  13.278  26.231  10.837
57027W        W22254  38.901   7.175   1.858
57028W        W22255  40.365  18.699   1.295
57029W        W22256   4.312   3.182   4.221
57030W        W22257  41.930  33.557   3.300
57031W        W22258  15.682   6.471   3.627
57032W        W22259  22.975  16.829  12.915
57033W        W22260  27.801   2.301  10.016
57034W        W22261   7.879  41.717  12.013
57035W        W22262   6.600  10.354  12.088
57036W        W22263  24.892   0.337  11.888
57037W        W22264  26.131  27.357  12.912
57038W        W22265  37.587   4.343  14.033
57039W        W22266  44.515  14.329  13.694
57040W        W22267  23.630  13.429   4.779
57041W        W22268  26.916  42.843   1.686
57042W        W22269   0.347  24.143  10.723
57043W        W22270  38.783  38.449  10.981
57044W        W22271  22.579   0.274   3.626
57045W        W22272   7.343   4.151  12.817
57046W        W22273  23.652  16.748   4.016
57047W        W22274   6.604  23.206   1.446
57048W        W22275  18.395   1.102  14.881
57049W        W22276  10.605  40.618   4.098
57050W        W22277   4.809  14.830   2.260
57051W        W22278   3.213  44.934   3.691
57052W        W22279  10.033   2.879  10.494
57053W        W22280   2.750  20.687   1.238
57054W        W22281  30.417  12.365   3.187
57055W        W22282   1.653  37.985   3.567
57056W        W22283  32.413   5.119   1.767
57057W        W22284   1.730   2.970   1.241
57058W        W22285  39.261   3.752   3.323
57059W        W22286  11.639  40.655  14.791
57060W        W22287  38.201  17.821  11.691
57061W        W22288  39.179  25.857  13.531
57062W        W22289  14.636   1.133   0.065
57063W        W22290  31.938  15.093   1.435
57064W        W22291  23.564  36.272   4.132
57065W        W22292  33.172  22.726  10.521
57066W        W22293  26.898  32.654   2.381
57067W        W22294  30.330  40.795   3.644
57068W        W22295  44.434   5.814   4.666
57069W        W22296  42.065  40.626  13.740
57070W        W22297  25.079  43.333   2.567
57071W        W22298  44.922   5.641   1.798
57072W        W22299  29.974  36.993  14.589
57073W        W22300  26.255  15.179   1.223
57074W        W22301  38.938  12.639  13.382
57075W        W22302  37.398  24.223   4.568
57076W        W22303  40.808  27.849  12.836
57077W        W22304  26.563  19.118  14.718
57078W        W22305  24.220  37.576  12.467
57079W        W22306  38.552  37.514   0.211
57080W        W22307  11.036  31.361   4.066
57081W        W22308  13.215  41.985  12.879
57082W        W22309   5.674  29.762   1.558
57083W        W22310  43.067  43.177  13.506
57084W        W22311  18.811   8.963   0.811
57085W        W22312   5.216   5.181  12.480
57086W        W22313  20.942  40.132   1.784
57087W        W22314   2.910   6.346  11.192
57088W        W22315  37.574  17.837  10.733
57089W        W22316  19.355  37.430  11.045
57090W        W22317  23.801  25.895   3.731
57091W        W22318  15.562  32.162  10.585
57092W        W22319  23.109  20.099  12.947
57093W        W22320  37.638   2.815   0.343
57094W        W22321  34.594  39.543  10.592
57095W        W22322  36.720  15.623  10.845
57096W        W22323  28.640  34.087  13.605
57097W        W22324  13.815  28.130  11.619
57098W        W22325  40.046  28.062  14.403
57099W        W22326  11.585  21.611   2.274
57100W        W22327  43.051  15.177   2.788
57101W        W22328  16.277  37.741  13.884
57102W        W22329  21.274  16.014   4.315
57103W        W22330  26.691   1.920   3.772
57104W        W22331  26.628  38.531   0.203
57105W        W22332  23.691  12.674   4.188
57106W        W22333   4.059   4.532   2.768
57107W        W22334  32.233  23.897  12.384
57108W        W22335  33.510  12.189   0.268
57109W        W22336  15.622  24.659   3.273
57110W        W22337  35.010  44.087  13.410
57111W        W22338  19.502  15.817   0.504
57112W        W22339  33.160   7.636  11.926
57113W        W22340  35.640   8.813  14.371
57114W        W22341  42.233   0.452  13.516
57115W        W22342  37.486  44.916  11.511
57116W        W22343  35.180  38.045  13.780
57117W        W22344  31.965  19.253  10.643
57118W        W22345  20.024  35.974  10.630
57119W        W22346  39.583  22.085  12.012
57120W        W22347   1.763   5.637  14.460
57121W        W22348  13.715   7.720  10.603
57122W        W22349  33.536  18.197  12.025
57123W        W22350   3.817  20.323   3.875
57124W        W22351  34.057  42.352  10.758
57125W        W22352  29.058   9.356   4.563
57126W        W22353  22.240  12.208  13.945
57127W        W22354  44.730   4.701   0.991
57128W        W22355   8.673  44.970   2.207
57129W        W22356  23.369  44.674   5.372
57130W        W22357   3.888  42.844  11.890
57131W        W22358  33.385  23.742  13.324
57132W        W22359  22.126  19.565   1.763
57133W        W22360  22.216   6.453   2.620
57134W        W22361  25.317  42.395  12.841
57135W        W22362  40.604   4.622   0.933
57136W        W22363  38.932  40.248   4.639
57137W        W22364  29.520  15.831  11.902
57138W        W22365  13.729  35.588  11.059
57139W        W22366   2.215  13.201   0.720
57140W        W22367   6.235  31.979   4.057
57141W        W22368  22.024  32.153   3.919
57142W        W22369  28.257  12.416   1.411
57143W        W22370  28.599   8.368  11.461
57144W        W22371  44.449  24.393  13.536
57145W        W22372  44.797  29.917  13.895
57146W        W22373  41.418  13.618   4.708
57147W        W22374  18.297  34.825   4.129
57148W        W22375  31.717   9.319   3.586
57149W        W22376  10.752  14.644  11.136
57150W        W22377  43.895  40.995   0.758
57151W        W22378  15.793  26.318  10.743
57152W        W22379  25.104  17.737   1.992
57153W        W22380  14.566  37.260  11.264
57154W        W22381  36.882   5.814   1.657
57155W        W22382  10.212  29.382   3.334
57156W        W22383  10.791  24.656  14.919
57157W        W22384  40.113   1.669   4.030
57158W        W22385  11.550  39.562  10.628
57159W        W22386  43.589  34.637   1.364
57160W        W22387   5.908  43.833  14.525
57161W        W22388  27.482  44.554   2.291
57162W        W22389  22.426  14.101   2.172
57163W        W22390  23.255  12.396   4.091
57164W        W22391  21.340  20.936  10.452
57165W        W22392   1.172   5.048   1.594
57166W        W22393  27.398  26.222   1.473
57167W        W22394  36.093   7.162   1.547
57168W        W22395  11.666  22.301  12.831
57169W        W22396  43.033  23.693  14.295
57170W        W22397  11.829  30.921   0.524
57171W        W22398   3.769   4.756   0.544
57172W        W22399   4.811   5.399  12.681
57173W        W22400  34.079  16.691  11.826
57174W        W22401  41.321  21.303   4.646
57175W        W22402  28.420  41.274  10.199
57176W        W22403  36.776  39.638   0.893
57177W        W22404  32.662  33.575  12.344
57178W        W22405  24.779  29.435   3.783
57179W        W22406  21.667  35.904  11.592
57180W        W22407  11.186   5.268   2.222
57181W        W22408  15.267  35.265  11.625
57182W        W22409   6.407  38.979  13.340
57183W        W22410   3.421  43.839  11.097
57184W        W22411  13.388  22.236  11.580
57185W        W22412  35.613  11.446  12.745
57186W        W22413  15.722  35.655   1.745
57187W        W22414  29.286  19.929   1.347
57188W        W22415   1.527  26.036  11.336
57189W        W22416  43.299  44.171  14.918
57190W        W22417  32.900   0.617  11.196
57191W        W22418   8.260  34.935   1.959
57192W        W22419   8.628   1.913   1.651
57193W        W22420  21.328  13.315  13.801
57194W        W22421  24.305  30.558  10.888
57195W        W22422   6.611  43.771  10.462
57196W        W22423  31.375  14.719  11.562
57197W        W22424  36.076   3.373  10.686
57198W        W22425   7.930  43.957  13.318
57199W        W22426   3.796  37.042   4.513
57200W        W22427  16.715  15.641   1.618
57201W        W22428  18.141   2.535   4.150
57202W        W22429  32.843   6.243  11.854
57203W        W22430  31.844  20.932   1.301
57204W        W22431  11.519  38.485   4.588
57205W        W22432  32.946  14.888  14.461
57206W        W22433  23.761  26.191  12.817
57207W        W22434   3.973  19.940   4.206
57208W        W22435  10.378  20.303  14.272
57209W        W22436  44.817  44.182   3.070
57210W        W22437  32.167  42.635  14.212
57211W        W22438  32.649  35.462   1.276
57212W        W22439  16.821  13.016  11.022
57213W        W22440  12.789  20.304   0.418
57214W        W22441  16.053  27.856  10.798
57215W        W22442  15.646  16.621  13.978
57216W        W22443  39.874  40.202   4.540
57217W        W22444   0.983  31.518   0.932
57218W        W22445  33.901  33.368  11.034
57219W        W22446  12.203   9.132   0.712
57220W        W22447  16.716  15.622   2.603
57221W        W22448  40.750   5.980  13.475
57222W        W22449  24.942  17.307  11.221
57223W        W22450  10.117  17.231  14.396
57224W        W22451  44.961  31.776   4.828
57225W        W22452  29.171  12.352  14.884
57226W        W22453  20.148  38.328   4.241
57227W        W22454   0.343  30.823  10.965
57228W        W22455  30.253  40.887  14.087
57229W        W22456  41.981  15.881   5.075
57230W        W22457   5.162  36.559   0.546
57231W        W22458  28.490  18.824  13.563
57232W        W22459  29.445  37.264  13.101
57233W        W22460  32.432  41.336   3.051
57234W        W22461  35.291  22.209  11.479
57235W        W22462  17.400  15.612   0.831
57236W        W22463  26.796   0.141   1.424
57237W        W22464  30.127  44.700   3.764
57238W        W22465  37.332   3.676   4.351
57239W        W22466  33.860  10.693  11.755
57240W        W22467  29.118  36.947   4.900
57241W        W22468   4.224  27.568   3.653
57242W        W22469   5.201  31.097   2.643
57243W        W22470  44.583  22.460   3.672
57244W        W22471  42.819  29.162   1.709
57245W        W22472  37.921  26.869  11.164
57246W        W22473  31.025  11.619  10.502
57247W        W22474   4.024   2.459   1.160
57248W        W22475   1.980  20.944  12.882
57249W        W22476  37.032  37.907   1.746
57250W        W22477  25.905  33.630   2.305
57251W        W22478   0.484  14.775  14.009
57252W        W22479  17.796  30.575  13.730
57253W        W22480  35.902  20.735   2.724
57254W        W22481   0.693  28.858   3.851
57255W        W22482  25.390   6.976   3.656
57256W        W22483  40.744   7.750  12.374
57257W        W22484  17.131  44.682  14.323
57258W        W22485  29.579  43.456  14.576
57259W        W22486  33.521  30.691   3.264
57260W        W22487  35.104   1.702  14.200
57261W        W22488  31.808   9.602   4.005
57262W        W22489   1.088  10.798   1.479
57263W        W22490  19.414  14.059   4.590
57264W        W22491   3.701  15.116   4.019
57265W        W22492   1.032  23.227  12.038
57266W        W22493  29.629  33.503  12.019
57267W        W22494   2.282   2.373   0.358
57268W        W22495  13.329  42.377   2.169
57269W        W22496  18.570  36.402   2.537
57270W        W22497   4.789  27.147   3.131
57271W        W22498  37.978   0.899   1.922
57272W        W22499  15.989  15.785  10.595
57273W        W22500  13.119  37.479  14.367
57274W        W22501  22.112   6.234   2.156
57275W        W22502  20.840  13.159  13.777
57276W        W22503  32.585  27.453   0.251
57277W        W22504  28.892  16.396  10.206
57278W        W22505  26.716   1.655   4.206
57279W        W22506  10.226  16.505   2.491
57280W        W22507  36.181   0.427   2.188
57281W        W22508  33.004  35.657   0.281
57282W        W22509  28.964  13.588  14.319
57283W        W22510  24.287  20.318  10.692
57284W        W22511   6.737   8.164   3.156
57285W        W22512   8.631  23.256   2.419
57286W        W22513  13.724   7.878   3.698
57287W        W22514  16.211  11.363  13.609
57288W        W22515  15.570  10.571  11.928
57289W        W22516   4.491  12.140   0.178
57290W        W22517  19.811  27.562  13.455
57291W        W22518  42.093  38.286  11.976
57292W        W22519   2.579   6.764   0.292
57293W        W22520  10.127  31.192  12.365
57294W        W22521  12.332  19.120  14.485
57295W        W22522  16.770  42.021  11.121
57296W        W22523  18.268  27.414   0.755
57297W        W22524   0.384  26.838  14.152
57298W        W22525   1.453  19.540   3.289
57299W        W22526  16.787  15.539  14.869
57300W        W22527  23.522  27.569   0.446
57301W        W22528  36.594  37.623  13.480
57302W        W22529  34.322   6.343  11.088
57303W        W22530  22.165  38.509  12.956
57304W        W22531  10.948  16.371   2.581
57305W        W22532  18.886   5.480   4.963
57306W        W22533  10.222   0.817  13.703
57307W        W22534  40.992  31.128  12.318
57308W        W22535  17.448  25.172  13.389
57309W        W22536  31.651  10.090   3.885
57310W        W22537   9.943   6.859  11.211
57311W        W22538   9.247  36.528   3.406
57312W        W22539  30.240  25.371   3.596
57313W        W22540  32.012  20.734   1.753
57314W        W22541  41.217  18.302  11.108
57315W        W22542  44.946   7.019   2.207
57316W        W22543  34.114  10.408  12.088
57317W        W22544  39.754  15.867   0.416
57318W        W22545  25.677  10.131  12.991
57319W        W22546  35.044  18.758  13.544
57320W        W22547  36.926   8.831   3.034
57321W        W22548  32.851  25.386   1.239
57322W        W22549  12.333  31.302   4.570
57323W        W22550  11.339   9.326   0.552
57324W        W22551  13.982   5.011  14.338
57325W        W22552  15.500   5.743  13.449
57326W        W22553  17.765  18.087  13.279
57327W        W22554  11.182  34.174  11.905
57328W        W22555  11.914   4.915  14.299
57329W        W22556  44.053  34.215  12.984
57330W        W22557  38.802  44.037  14.444
57331W        W22558  18.813  26.206  10.607
57332W        W22559   9.372  17.134   4.691
57333W        W22560  41.114  19.394   9.791
57334W        W22561   4.266  10.769   3.648
57335W        W22562  30.242  12.298   1.925
57336W        W22563  10.629  42.371   3.833
57337W        W22564  25.224   0.857   2.910
57338W        W22565   3.992  30.366   2.700
57339W        W22566  22.746  36.847   3.651
57340W        W22567   8.260  19.895  11.223
57341W        W22568  42.981   4.677   2.670
57342W        W22569  34.605  17.181  13.728
57343W        W22570  37.901  22.957  10.702
57344W        W22571  18.794  18.049  13.531
57345W        W22572   9.374  42.495   2.728
57346W        W22573  43.547  32.446   1.321
57347W        W22574   7.361  38.368   2.638
57348W        W22575   7.849  35.759   4.593
57349W        W22576   3.468  24.933   0.695
57350W        W22577  22.237  18.599   4.562
57351W        W22578  24.578  23.456  12.446
57352W        W22579  21.395  41.561   0.813
57353W        W22580  15.734   2.718   1.626
57354W        W22581  16.824  35.087  12.515
57355W        W22582  42.529  25.621   4.460
57356W        W22583  44.106  33.355  14.692
57357W        W22584  10.794  20.951  12.574
57358W        W22585  38.839  16.368  13.266
57359W        W22586  42.081  28.991   2.603
57360W        W22587  13.377  38.929  10.413
57361W        W22588   5.424  14.573  10.328
57362W        W22589  22.751  15.871   3.150
57363W        W22590   8.996   3.094   3.593
57364W        W22591   8.637   0.983  11.184
57365W        W22592  21.244  28.169  10.685
57366W        W22593   2.344  37.949   0.047
57367W        W22594  26.885  44.369  11.578
57368W        W22595  42.037  15.778  13.143
57369W        W22596  28.342   3.272   2.338
57370W        W22597  35.559  35.369  14.765
57371W        W22598  12.199  22.491  12.897
57372W        W22599  32.464  27.967   5.356
57373W        W22600  35.418   4.432   0.416
57374W        W22601  32.403  41.484  10.543
57375W        W22602   5.961  14.806   4.970
57376W        W22603  28.110  36.550   4.082
57377W        W22604  32.576  39.919  10.199
57378W        W22605  22.506  23.061   2.442
57379W        W22606  12.735   4.839  13.940
57380W        W22607  33.519  39.990   1.594
57381W        W22608  30.802   5.059  13.268
57382W        W22609  16.224  42.869  14.047
57383W        W22610  24.986  10.257   4.043
57384W        W22611  20.973  17.585   3.274
57385W        W22612   5.949  21.626   4.742
57386W        W22613   1.257   3.340  13.463
57387W        W22614  42.409  26.707  13.400
57388W        W22615  39.761  39.679   4.684
57389W        W22616  28.696  31.183  12.889
57390W        W22617   5.192  36.349  14.157
57391W        W22618  29.852  40.045   3.829
57392W        W22619  13.336  41.585  10.929
57393W        W22620  12.459   7.028   0.580
57394W        W22621  33.814  24.161  12.766
57395W        W22622  16.361  36.594  10.831
57396W        W22623   6.413  34.465  14.961
57397W        W22624  33.456  12.844  10.361
57398W        W22625  42.291  21.307   3.276
57399W        W22626   1.417   1.927  10.739
57400W        W22627  30.920   4.247  12.041
57401W        W22628   8.781   4.701  11.767
57402W        W22629  28.008  25.220  11.162
57403W        W22630  30.964  22.597  11.063
57404W        W22631  10.589  14.587   0.416
57405W        W22632  27.724  10.091   0.309
57406W        W22633  32.079  41.695   2.573
57407W        W22634  41.780  21.583   0.776
57408W        W22635  20.158  41.610  12.500
57409W        W22636  32.910  22.452   2.360
57410W        W22637   3.380  31.571   4.123
57411W        W22638   2.814  34.469  12.896
57412W        W22639  14.107  19.231   2.904
57413W        W22640  10.623   0.245  10.607
57414W        W22641  35.595  14.627  13.823
57415W        W22642  37.997  19.663   2.363
57416W        W22643  28.266  35.362  13.478
57417W        W22644   1.077   4.891   4.673
57418W        W22645  38.562  13.799  12.534
57419W        W22646   1.486   9.793   3.107
57420W        W22647  11.213  33.462  14.310
57421W        W22648   7.355   0.752  13.258
57422W        W22649  23.389  21.608  13.023
57423W        W22650   1.070  24.186   3.705
57424W        W22651  32.989  12.882  13.892
57425W        W22652  42.549   5.684   1.845
57426W        W22653  37.351  30.886  14.507
57427W        W22654  33.351  35.988   3.102
57428W        W22655   7.743  14.373  14.741
57429W        W22656  21.677  42.524   0.836
57430W        W22657  18.421  18.205   2.781
57431W        W22658   7.313  44.893   4.151
57432W        W22659  22.759   9.075  14.255
57433W        W22660   5.555  40.680  12.483
57434W        W22661  22.111  40.244   4.239
57435W        W22662  20.086  22.511   3.269
57436W        W22663  44.887  30.922  14.075
57437W        W22664  26.972  41.891   0.267
57438W        W22665  22.250  20.631   0.899
57439W        W22666   9.766  20.983   4.286
57440W        W22667  30.991  10.095  12.800
57441W        W22668   8.752  35.845   4.538
57442W        W22669   2.516   4.330  13.788
57443W        W22670   8.582   9.881  14.501
57444W        W22671   7.865  42.992  12.351
57445W        W22672  27.241   0.893   2.782
57446W        W22673   7.129  43.893   0.899
57447W        W22674  26.637  37.566  14.994
57448W        W22675  33.134  34.955   4.186
57449W        W22676  19.542   3.492  11.593
57450W        W22677   2.793   8.593   5.063
57451W        W22678  34.948  33.988  12.909
57452W        W22679  33.337  10.163   4.282
57453W        W22680  34.026  31.399   0.322
57454W        W22681  18.786  30.639   3.107
57455W        W22682  28.695  38.659   0.612
57456W        W22683  26.718   3.364   2.842
57457W        W22684  22.771   4.898   3.635
57458W        W22685  19.019  30.733   2.348
57459W        W22686  20.024   4.940  14.047
57460W        W22687  42.874  10.340   2.324
57461W        W22688  24.648  10.134   0.931
57462W        W22689  10.598  41.989  13.492
57463W        W22690   8.364   5.026  10.675
57464W        W22691  20.734  10.864   1.439
57465W        W22692   1.515  27.442  11.549
57466W        W22693  17.241  17.676  13.929
57467W        W22694   0.981  29.124  11.871
57468W        W22695  16.713  36.392   3.654
57469W        W22696  15.648  36.532   5.057
57470W        W22697  22.964  44.370  10.335
57471W        W22698  13.940  39.226  11.211
57472W        W22699  14.609   4.689   3.323
57473W        W22700  31.055  42.006   3.698
57474W        W22701   9.373  10.344  14.389
57475W        W22702  43.158  13.803   0.029
57476W        W22703  41.167  44.541   3.717
57477W        W22704   6.225   8.649   0.300
57478W        W22705  35.200  33.990  13.749
57479W        W22706   0.954   9.294   3.610
57480W        W22707  38.084   1.376   4.183
57481W        W22708   0.821  18.732   5.373
57482W        W22709  33.478  32.497   4.657
57483W        W22710   7.009  32.125  12.996
57484W        W22711  28.445  39.387   3.595
57485W        W22712  24.578  31.548   3.123
57486W        W22713  31.142  35.144   1.291
57487W        W22714  17.267   2.178  12.853
57488W        W22715  29.067   0.864  10.978
57489W        W22716  38.074  17.075  12.423
57490W        W22717   9.084  21.105   2.759
57491W        W22718  40.636  11.736  12.022
57492W        W22719  29.055  39.920   4.663
57493W        W22720  37.529  26.568   3.657
57494W        W22721  15.136  23.019  12.980
57495W        W22722  38.931   2.241  11.046
57496W        W22723  12.171  32.625  13.388
57497W        W22724  21.733   4.784  12.574
57498W        W22725   9.522  29.039  11.864
57499W        W22726   3.133  13.179  12.923
57500W        W22727  26.188  42.113  14.003
57501W        W22728   7.174  31.904  12.553
57502W        W22729  10.567  39.788  14.876
57503W        W22730  38.458  33.365   0.420
57504W        W22731  23.297  21.190  14.372
57505W        W22732  20.604  26.255  10.653
57506W        W22733  24.138  18.263  13.027
57507W        W22734   3.894  43.138  13.901
57508W        W22735  18.119  15.121   0.754
57509W        W22736  40.836  35.524   2.364
57510W        W22737  26.062  11.690   1.658
57511W        W22738  32.459  36.150  12.534
57512W        W22739  35.954  31.637  13.022
57513W        W22740   8.214  40.337   0.790
57514W        W22741  43.124   0.297   3.311
57515W        W22742   9.240  25.997   4.940
57516W        W22743  41.526   1.865   3.715
57517W        W22744  25.482  20.564  13.137
57518W        W22745   6.786  12.539  12.106
57519W        W22746   0.828  19.267   1.543
57520W        W22747  35.340  36.369   2.121
57521W        W22748  37.916  11.351   1.933
57522W        W22749  43.318  35.966   4.984
57523W        W22750  36.499  36.798  11.068
57524W        W22751   9.439   7.614   0.772
57525W        W22752  37.394  33.947  13.900
57526W        W22753  15.718  43.552   0.956
57527W        W22754  28.014  24.570   0.465
57528W        W22755  22.979  12.168  10.642
57529W        W22756  34.631  26.242   3.056
57530W        W22757  12.241  21.747   0.195
57531W        W22758  44.224  36.603  11.993
57532W        W22759  24.666  10.168  10.885
57533W        W22760  29.793   8.787  12.902
57534W        W22761  25.906   0.835   3.623
57535W        W22762  30.321  16.692   1.840
57536W        W22763  41.878   1.996  14.464
57537W        W22764  17.230  33.935  14.202
57538W        W22765   9.912   0.867   1.346
57539W        W22766  41.248  43.873   2.893
57540W        W22767  40.801  43.843  11.569
57541W        W22768  24.165  18.231   4.292
57542W        W22769  19.766  20.414   3.635
57543W        W22770   0.232   7.070   3.477
57544W        W22771  15.185  38.780  11.629
57545W        W22772  12.413  43.749  12.002
57546W        W22773   1.407   6.587   3.636
57547W        W22774  22.718  11.721   3.118
57548W        W22775  43.520  42.581  14.027
57549W        W22776   3.540  40.827   4.198
57550W        W22777  31.040  32.621  14.760
57551W        W22778  19.942  19.073  10.810
57552W        W22779   5.817   6.906  11.991
57553W        W22780  42.702  12.628  11.692
57554W        W22781   6.920   7.032  11.129
57555W        W22782  37.878  37.856  13.959
57556W        W22783  19.454  16.258  12.790
57557W        W22784  36.097   3.326  12.176
57558W        W22785  14.307  37.418   2.650
57559W        W22786   4.340  14.210  10.228
57560W        W22787  19.843  18.188   1.299
57561W        W22788  27.032  33.080   4.507
57562W        W22789  44.323   7.073   0.616
57563W        W22790  43.775  13.790   3.865
57564W        W22791  44.876  22.916  10.235
57565W        W22792  34.918  10.685  14.466
57566W        W22793  15.047  22.512   1.569
57567W        W22794   8.107  18.006  14.491
57568W        W22795  20.537  35.995  11.602
57569W        W22796  10.481  15.768   2.717
57570W        W22797  14.674   5.472  11.575
57571W        W22798  34.187   4.025   2.643
57572W        W22799  26.578  41.959   0.912
57573W        W22800  25.432   5.834  13.314
57574W        W22801  14.348  27.731   3.337
57575W        W22802  29.286  13.611  11.560
57576W        W22803  41.287  42.278   2.254
57577W        W22804  18.409  15.491   1.988
57578W        W22805  25.004  27.757   1.716
57579W        W22806  35.299  24.241  13.310
57580W        W22807   9.754   3.435  13.847
57581W        W22808  37.809  40.826   1.860
57582W        W22809   4.649  25.662  13.001
57583W        W22810  19.526   6.407   4.161
57584W        W22811  16.655  33.418   4.370
57585W        W22812  37.629  24.081  12.906
57586W        W22813  41.507  44.573   0.488
57587W        W22814  33.318  39.602   3.250
57588W        W22815  41.286  30.411   2.678
57589W        W22816   1.976  18.281  13.098
57590W        W22817  19.578  42.374   3.633
57591W        W22818  12.593  18.071   1.647
57592W        W22819   5.893  25.376  13.710
57593W        W22820  15.335  38.481  12.076
57594W        W22821  31.422  23.584   3.703
57595W        W22822   9.264  34.513   4.578
57596W        W22823  21.000  26.603  12.396
57597W        W22824   4.224  17.377   4.489
57598W        W22825  36.730  40.366   1.367
57599W        W22826  40.243  38.056   2.218
57600W        W22827  34.128  22.513  11.593
57601W        W22828  42.530   7.892  14.851
57602W        W22829   8.833  34.414   1.803
57603W        W22830  25.991  26.625   4.280
57604W        W22831  18.984  40.388  13.411
57605W        W22832  33.526  13.862  13.581
57606W        W22833   1.153  23.584  14.858
57607W        W22834  14.861  17.725  12.044
57608W        W22835  13.782  36.124  11.086
57609W        W22836   7.523  30.686  10.810
57610W        W22837  31.936   9.890   0.439
57611W        W22838  28.064   5.714  11.190
57612W        W22839  10.911  11.685   3.826
57613W        W22840  32.347   1.753   2.784
57614W        W22841  32.922  16.383  13.368
57615W        W22842  13.089   9.344  11.978
57616W        W22843  16.246   8.680  14.458
57617W        W22844  35.733   2.267   4.648
57618W        W22845   8.457  11.167  10.503
57619W        W22846  42.325   2.844  14.151
57620W        W22847  26.437  26.552   4.009
57621W        W22848  44.720   1.424   3.126
57622W        W22849  36.805  31.196  11.260
57623W        W22850  30.798  42.230   2.893
57624W        W22851   7.280  18.641   3.808
57625W        W22852  12.979  18.282   1.936
57626W        W22853  30.162  23.989   4.855
57627W        W22854   3.717   3.842  11.644
57628W        W22855  29.452  41.435  14.539
57629W        W22856  16.567  36.953  11.600
57630W        W22857  20.815  39.850  12.562
57631W        W22858  10.799  39.902  13.396
57632W        W22859   4.222  17.272  14.788
57633W        W22860  17.388   1.428   3.859
57634W        W22861  16.000  20.314   4.172
57635W        W22862   8.788  34.445  12.747
57636W        W22863  27.437  34.635   1.259
57637W        W22864  21.252  14.159  12.091
57638W        W22865  43.253   7.042  11.042
57639W        W22866   1.184   8.496  12.319
57640W        W22867  42.375  35.478   1.431
57641W        W22868   5.732  43.870   4.354
57642W        W22869  42.769  30.604   3.804
57643W        W22870  11.788   1.483  13.117
57644W        W22871  32.073  36.720  12.885
57645W        W22872   2.388  32.418  14.041
57646W        W22873  25.490  20.997  12.865
57647W        W22874  24.855  42.404   4.166
57648W        W22875  15.800   0.701  10.764
57649W        W22876  14.761  41.196   4.573
57650W        W22877  24.408  18.601   0.271
57651W        W22878   3.463  42.828  13.826
57652W        W22879   4.772  36.523   5.023
57653W        W22880  32.824  33.281  11.465
57654W        W22881  20.796  42.607  14.773
57655W        W22882  43.001  34.579  11.177
57656W        W22883   7.931  12.475   1.322
57657W        W22884  36.098  20.250  14.545
57658W        W22885  20.708   0.114   0.215
57659W        W22886  39.646   2.349  10.597
57660W        W22887   0.843  26.518  11.948
57661W        W22888   4.897  20.130  11.982
57662W        W22889   0.242  16.218  13.408
57663W        W22890   0.305  32.439   0.915
57664W        W22891  24.043   6.384  11.227
57665W        W22892   7.000  27.987   2.122
57666W        W22893  34.011  21.231  10.002
57667W        W22894   2.377  42.001   3.581
57668W        W22895   3.900   0.617   4.562
57669W        W22896  32.933   7.288  11.611
57670W        W22897  15.351   1.444   2.337
57671W        W22898  10.204   6.730  13.058
57672W        W22899  26.444  42.417   2.300
57673W        W22900  30.391   9.294  10.641
57674W        W22901  23.281  23.047  11.240
57675W        W22902   6.718  31.002  12.538
57676W        W22903  43.773   7.209   4.032
57677W        W22904   2.198   5.812  12.652
57678W        W22905  19.008  33.709  14.229
57679W        W22906   0.248  24.525   4.656
57680W        W22907  34.168   4.490  10.598
57681W        W22908  33.004   0.877  11.627
57682W        W22909  34.176  43.752   0.064
57683W        W22910  34.751  13.303   3.609
57684W        W22911  30.614  34.967  12.108
57685W        W22912  38.051   9.534   3.561
57686W        W22913   1.387  39.334  13.985
57687W        W22914  42.366  18.222  13.502
57688W        W22915  25.065  39.051   0.726
57689W        W22916  29.100  18.483  10.334
57690W        W22917  26.969  29.140   2.116
57691W        W22918  36.864   3.034   2.837
57692W        W22919  31.349  34.404   2.810
57693W        W22920  18.577  28.585  13.925
57694W        W22921   1.762  31.473   1.301
57695W        W22922  24.609  42.160   1.805
57696W        W22923  20.225  37.026   2.219
57697W        W22924  11.800  12.244   1.900
57698W        W22925  44.247   5.571   3.786
57699W        W22926   8.752  32.893   9.731
57700W        W22927  43.389  33.911  13.610
57701W        W22928  16.571   8.235  13.837
57702W        W22929   3.925  25.680  10.638
57703W        W22930  23.798  34.957   4.209
57704W        W22931  38.346  37.572   3.255
57705W        W22932  14.557  18.366   3.282
57706W        W22933   5.178  42.782   1.315
57707W        W22934  19.727  36.568   2.995
57708W        W22935   6.255  37.774   3.665
57709W        W22936  21.553  17.149   0.753
57710W        W22937  44.136   3.595  14.898
57711W        W22938  15.128  38.427   4.327
57712W        W22939  29.561  19.746  12.347
57713W        W22940  40.795  21.512   2.758
57714W        W22941  31.759  23.337  12.362
57715W        W22942  36.536  24.532  12.477
57716W        W22943  28.484   7.715   1.784
57717W        W22944   9.697   3.183  12.525
57718W        W22945  41.348  18.300   4.307
57719W        W22946  26.409  43.215   4.538
57720W        W22947   9.109   3.254  11.118
57721W        W22948  39.504  14.226   4.583
57722W        W22949  33.657  24.186   3.688
57723W        W22950  42.757  13.555  12.978
57724W        W22951  41.457  30.337   4.285
57725W        W22952  16.076  24.096   2.817
57726W        W22953  31.544  13.923  14.878
57727W        W22954  43.559   0.809   2.176
57728W        W22955   1.368  18.529  12.066
57729W        W22956  44.335   3.708  11.950
57730W        W22957  21.381  15.485   4.974
57731W        W22958   0.789  18.356  14.773
57732W        W22959  23.971  35.956   4.173
57733W        W22960  21.095  10.623  11.045
57734W        W22961   0.285  28.858   1.747
57735W        W22962  27.545  40.111   2.196
57736W        W22963  12.077   2.049  10.855
57737W        W22964   2.291  38.055   2.721
57738W        W22965  16.779  32.083   1.340
57739W        W22966  22.264  41.278  10.668
57740W        W22967  20.865  39.398  13.496
57741W        W22968  18.523  26.914   4.086
57742W        W22969  34.917  29.104   1.423
57743W        W22970  21.025   5.882  11.761
57744W        W22971   6.413  18.995   4.877
57745W        W22972  42.727  30.821  14.687
57746W        W22973  34.074  37.065   3.555
57747W        W22974  13.131  40.001   4.838
57748W        W22975  16.641   4.375   3.557
57749W        W22976  34.771  35.054   0.914
57750W        W22977  32.251  33.804  11.575
57751W        W22978   9.854  13.121  10.915
57752W        W22979  25.453  18.060  11.551
57753W        W22980  41.528  12.697  14.848
57754W        W22981  25.703  30.061   3.443
57755W        W22982  19.854  38.289  11.844
57756W        W22983  21.539  18.819  14.452
57757W        W22984   7.451   1.339  11.038
57758W        W22985   8.391  25.611   1.323
57759W        W22986   3.227  34.446   4.819
57760W        W22987  15.320   8.821  11.944
57761W        W22988  35.225  36.828  14.591
57762W        W22989  29.922  31.113   3.908
57763W        W22990  23.685  40.522  13.409
57764W        W22991  39.412  11.454  12.037
57765W        W22992  37.179   9.488   4.974
57766W        W22993  44.047  27.129  13.998
57767W        W22994  18.676   9.856  13.772
57768W        W22995  31.534  29.682   4.321
57769W        W22996  33.853   6.398  12.558
57770W        W22997  38.940  27.070   4.732
57771W        W22998  35.542  34.705  11.889
57772W        W22999   8.634  23.592  13.943
57773W        W23000  12.837  10.949  13.889
57774W        W23001  35.027   0.160  14.287
57775W        W23002  21.997   0.032   3.251
57776W        W23003  32.540   3.736   4.497
57777W        W23004   0.819  11.586   4.498
57778W        W23005  26.600  17.923  10.820
57779W        W23006  39.106  29.449  11.833
57780W        W23007  18.752   7.000   0.810
57781W        W23008   2.207   3.372  11.487
57782W        W23009   5.850  33.639  14.020
57783W        W23010  37.051  39.478   0.213
57784W        W23011  29.086  23.536  13.826
57785W        W23012  13.797  11.692   1.327
57786W        W23013  30.438   1.430  13.350
57787W        W23014  19.813  23.641   2.248
57788W        W23015  21.140  35.750   1.374
57789W        W23016  35.826   0.364  12.569
57790W        W23017  15.298  11.138  13.430
57791W        W23018  25.179  29.192  14.692
57792W        W23019  37.099   5.390  13.881
57793W        W23020  36.407  14.856   0.974
57794W        W23021  43.989  13.129   1.367
57795W        W23022  39.953  43.006   0.839
57796W        W23023  41.238  39.130  12.790
57797W        W23024  23.749  11.877  12.900
57798W        W23025  19.204  29.656   1.439
57799W        W23026  41.520  32.647   4.847
57800W        W23027  32.947  40.443  14.972
57801W        W23028  21.001  38.925   0.431
57802W        W23029  28.449  29.443  10.618
57803W        W23030  24.054  34.613   1.448
57804W        W23031  42.638  25.348  10.692
57805W        W23032   5.914   1.448   2.368
57806W        W23033  10.562  42.376  13.894
57807W        W23034  13.803  20.707   3.370
57808W        W23035  26.053  30.623  12.185
57809W        W23036  13.707   6.508   3.309
57810W        W23037  37.882  30.597   2.149
57811W        W23038  18.813  10.676   0.293
57812W        W23039   8.940  37.875   1.881
57813W        W23040  21.780  23.064  14.086
57814W        W23041  17.621  39.356   0.692
57815W        W23042   4.326  36.337  14.480
57816W        W23043   2.422  35.255   1.293
57817W        W23044  35.524   7.639   4.193
57818W        W23045  38.351   1.245   3.068
57819W        W23046   7.846   2.378   1.448
57820W        W23047  10.861  32.672  13.742
57821W        W23048  13.831  32.856   1.637
57822W        W23049  34.829  24.955   3.688
57823W        W23050  32.043  43.068  12.161
57824W        W23051  24.280  34.624  14.883
57825W        W23052  30.388  17.573   3.225
57826W        W23053  44.494  31.620   2.875
57827W        W23054   4.787   2.350  14.615
57828W        W23055  30.233  42.442  12.979
57829W        W23056   2.904   3.439   4.248
57830W        W23057  17.518  37.510   1.877
57831W        W23058   9.566  11.120   4.212
57832W        W23059  14.581  35.937  13.973
57833W        W23060  12.435  16.603   5.254
57834W        W23061  26.334  37.777   3.260
57835W        W23062  12.679  29.625  13.603
57836W        W23063  44.264  16.703  10.624
57837W        W23064  27.791  43.983  14.930
57838W        W23065  30.519  24.101   0.461
57839W        W23066  11.828   5.626   1.777
57840W        W23067  27.161  37.961   1.232
57841W        W23068  37.139  33.703   2.209
57842W        W23069  22.014   8.768  12.236
57843W        W23070  25.634  35.827   0.943
57844W        W23071   7.338  39.359   2.116
57845W        W23072  26.210  18.485  11.447
57846W        W23073  16.219  18.639  13.027
57847W        W23074  24.103   6.362  14.916
57848W        W23075  41.456  34.586   0.809
57849W        W23076  28.038  18.504   0.329
57850W        W23077   4.974  16.390  13.559
57851W        W23078  32.044   2.709   4.576
57852W        W23079  21.871  17.307   3.273
57853W        W23080  31.201  12.324   0.928
57854W        W23081  15.911  31.142  14.297
57855W        W23082  37.143  11.823   2.872
57856W        W23083  20.265  43.719   0.258
57857W        W23084   7.266  13.811  10.287
57858W        W23085  14.187   2.448   0.958
57859W        W23086  14.216  36.100  14.779
57860W        W23087  43.543  39.784  13.875
57861W        W23088  12.077  30.062   4.766
57862W        W23089  29.584  29.688   3.422
57863W        W23090   0.639  36.897   0.757
57864W        W23091  17.092  44.657  13.078
57865W        W23092  30.168  17.731   0.530
57866W        W23093  30.547  17.234   3.621
57867W        W23094   8.186  26.375   3.168
57868W        W23095  10.903  24.735   1.377
57869W        W23096  28.539  23.312  14.181
57870W        W23097  10.228  12.871   3.046
57871W        W23098  16.761  21.518   4.695
57872W        W23099   0.811   6.274   0.219
57873W        W23100  20.340  37.431   1.449
57874W        W23101  42.493   3.877  12.195
57875W        W23102   9.677  35.359   4.687
57876W        W23103  16.272  17.731  11.607
57877W        W23104  11.241  13.081   1.778
57878W        W23105   8.299  39.387   2.240
57879W        W23106  28.382   5.709  13.452
57880W        W23107  36.542   4.721  12.843
57881W        W23108   3.276   5.971  11.147
57882W        W23109  12.325  15.897   1.405
57883W        W23110  19.663  36.414  12.263
57884W        W23111  15.587   8.498   1.601
57885W        W23112  18.839  41.002  12.974
57886W        W23113  27.631  40.937   2.829
57887W        W23114   7.871  27.648   4.073
57888W        W23115   1.713  32.600   0.483
57889W        W23116  32.314  41.324   3.887
57890W        W23117  35.917  15.590   2.448
57891W        W23118   8.664   3.702  14.984
57892W        W23119  18.148  44.512  11.669
57893W        W23120  20.531   8.340  13.313
57894W        W23121  16.408  29.924   2.850
57895W        W23122  13.560  19.694   4.712
57896W        W23123  16.140  25.760   2.940
57897W        W23124  43.298  39.860   1.120
57898W        W23125  31.629   5.618   3.260
57899W        W23126  16.003  40.048   3.902
57900W        W23127  37.392  11.510   3.215
57901W        W23128  32.499  31.254   2.411
57902W        W23129  35.113  30.618   1.214
57903W        W23130  40.037  28.574  12.904
57904W        W23131   9.870  17.066   0.420
57905W        W23132  12.103  22.585  11.978
57906W        W23133  31.516  19.623   0.417
57907W        W23134  31.773  15.422  13.008
57908W        W23135   6.650  14.321   2.789
57909W        W23136  26.669   0.314   4.390
57910W        W23137  14.487   8.618  10.287
57911W        W23138  27.595  10.878   4.135
57912W        W23139  14.844  28.927  12.069
57913W        W23140  21.572  12.947   0.558
57914W        W23141   1.085  16.306   2.100
57915W        W23142  42.994  42.854   2.345
57916W        W23143  14.436  37.586  11.654
57917W        W23144  35.190  16.042  11.188
57918W        W23145  43.916  20.814  11.091
57919W        W23146  12.645  32.898   2.393
57920W        W23147  23.229  31.916   1.827
57921W        W23148  12.365   5.481   2.782
57922W        W23149   6.355  28.147   1.363
57923W        W23150  41.342  12.353  10.991
57924W        W23151  24.142  21.112  14.614
57925W        W23152  33.119  20.947   1.288
57926W        W23153  21.642  11.186   1.310
57927W        W23154   1.988  38.644  11.495
57928W        W23155  38.260   7.893  14.430
57929W        W23156  24.657   9.325   4.782
57930W        W23157   4.322  36.340   2.269
57931W        W23158  28.511   9.433  12.375
57932W        W23159   5.288  36.581  11.878
57933W        W23160  44.213  31.375   0.585
57934W        W23161   7.308  43.461  10.702
57935W        W23162  28.587  10.173   4.367
57936W        W23163   9.643  39.382  12.868
57937W        W23164  14.367  32.164   4.686
57938W        W23165  11.880  28.236   4.515
57939W        W23166  23.950  26.700  11.605
57940W        W23167  21.795  41.400  10.870
57941W        W23168  14.018  15.790  12.479
57942W        W23169  32.094  30.738   0.350
57943W        W23170  40.104  32.475  10.497
57944W        W23171  38.787  43.981  13.596
57945W        W23172   8.382  19.307   0.777
57946W        W23173  19.571   6.295   3.293
57947W        W23174  38.022  22.514   1.335
57948W        W23175  12.287   7.426   2.832
57949W        W23176  43.308  22.012   2.202
57950W        W23177  24.434  33.336  12.002
57951W        W23178  31.126  17.704   4.856
57952W        W23179  29.338  23.512   4.744
57953W        W23180   0.421  18.526   4.490
57954W        W23181  21.507  16.213  12.836
57955W        W23182  10.432   6.365  13.477
57956W        W23183  23.311   7.953  11.115
57957W        W23184  41.973  35.840  10.585
57958W        W23185  12.664   8.829  12.625
57959W        W23186   6.313  28.511  14.936
57960W        W23187   0.119  16.241   1.837
57961W        W23188  24.212  10.707  13.391
57962W        W23189   9.803  43.999  12.084
57963W        W23190  11.558   6.176   1.776
57964W        W23191  31.449  44.141  12.702
57965W        W23192  24.304  24.076   4.210
57966W        W23193  41.417  14.700  13.556
57967W        W23194  29.871   0.589   1.806
57968W        W23195  23.906   8.336  13.998
57969W        W23196   9.620   5.231   4.817
57970W        W23197  36.181   2.191  12.732
57971W        W23198   0.134  25.397   1.487
57972W        W23199  27.884  40.675   4.803
57973W        W23200   1.889   2.502  13.863
57974W        W23201   1.000  34.077   2.393
57975W        W23202   4.459  19.780   4.146
57976W        W23203  14.258   2.627   3.217
57977W        W23204  33.256  30.154  10.597
57978W        W23205  11.622   7.897  10.584
57979W        W23206  28.556  32.650   4.279
57980W        W23207  28.455  23.997   1.028
57981W        W23208  27.534  41.718  14.524
57982W        W23209  43.926  23.189  11.262
57983W        W23210  34.115  38.139   1.288
57984W        W23211  34.076   8.841   4.578
57985W        W23212   6.328  22.495  10.276
57986W        W23213  25.932  37.840  11.634
57987W        W23214  18.973  19.048  11.112
57988W        W23215  11.353  25.980  11.234
57989W        W23216   6.758  34.484  13.168
57990W        W23217   6.293   6.862   3.872
57991W        W23218   5.347  32.077   3.706
57992W        W23219   4.107  25.080   1.240
57993W        W23220  35.961  38.595   1.707
57994W        W23221  37.171  11.857  10.699
57995W        W23222  20.209  20.522   0.998
57996W        W23223  39.886  21.792   0.969
57997W        W23224  16.058  40.146  13.750
57998W        W23225  23.777   7.297   1.416
57999W        W23226  13.087  35.566   0.167
58000W        W23227   5.204  15.609  13.275
58001W        W23228  36.852  10.237   4.487
58002W        W23229  13.582  38.301  13.387
58003W        W23230  23.715   2.974  11.829
58004W        W23231  29.484  17.973  13.418
58005W        W23232  30.086  38.769  13.952
58006W        W23233  42.980   2.508   4.183
58007W        W23234  23.903  33.320   0.629
58008W        W23235  21.114  37.910  12.121
58009W        W23236  28.760  39.957   2.786
58010W        W23237  42.938   8.626   2.768
58011W        W23238  17.256   5.850  11.621
58012W        W23239  11.648  35.612  14.369
58013W        W23240  29.684  12.766   1.908
58014W        W23241  10.273  11.694  10.678
58015W        W23242  14.881   9.893  14.440
58016W        W23243  43.406  32.826  14.448
58017W        W23244   6.821  43.278  10.436
58018W        W23245  17.738  40.397   4.257
58019W        W23246   2.059  28.529   0.392
58020W        W23247   6.087  40.577  13.573
58021W        W23248  27.920  14.265   2.334
58022W        W23249   8.858  35.399   0.911
58023W        W23250   9.205  38.024  13.558
58024W        W23251   1.710  41.289   1.305
58025W        W23252  44.625  38.507   4.551
58026W        W23253  18.983  26.101  12.837
58027W        W23254  32.560  26.883   1.405
58028W        W23255  22.119  33.085  13.626
58029W        W23256  31.693  19.545   3.680
58030W        W23257  29.126  37.136  11.649
58031W        W23258  28.638   9.336   1.345
58032W        W23259  34.965  36.394  10.492
58033W        W23260   6.392  44.348  11.124
58034W        W23261  24.024  34.000  13.406
58035W        W23262  31.577  24.216   2.406
58036W        W23263  28.114  32.547   0.696
58037W        W23264   0.821  34.582   1.724
58038W        W23265  12.616   9.090   1.392
58039W        W23266  43.727  43.547  14.353
58040W        W23267   3.949  34.283  11.760
58041W        W23268  17.748   5.958   2.650
58042W        W23269  42.985   2.847   1.935
58043W        W23270  41.931  13.130   1.429
58044W        W23271  33.417  38.346   3.696
58045W        W23272  17.624   7.437   0.291
58046W        W23273   4.032  40.971   0.903
58047W        W23274   6.832  18.697  14.474
58048W        W23275  20.622  35.658  14.014
58049W        W23276  33.476  21.834  13.699
58050W        W23277  34.205  18.795   4.492
58051W        W23278   9.949   4.791   3.043
58052W        W23279  39.755   9.162   2.662
58053W        W23280  27.447   3.847  12.968
58054W        W23281  28.308   8.805   2.022
58055W        W23282  19.042   1.490  12.748
58056W        W23283  17.905  35.453  11.824
58057W        W23284  42.987  16.158  14.879
58058W        W23285   2.675  37.832  11.221
58059W        W23286   7.755  21.716  14.443
58060W        W23287  17.195  28.213   4.229
58061W        W23288  11.429  23.781  11.105
58062W        W23289  41.530  29.628   0.812
58063W        W23290  26.197  30.668   1.747
58064W        W23291   5.402  15.340  10.710
58065W        W23292  28.885  21.286  12.185
58066W        W23293  11.637  10.464  11.607
58067W        W23294  44.394  21.213   0.499
58068W        W23295  26.361   1.446   4.965
58069W        W23296   6.234   5.026   4.011
58070W        W23297  38.871  11.857   3.237
58071W        W23298  30.550  33.961   2.809
58072W        W23299   2.105  12.549  10.220
58073W        W23300  33.616   9.643  14.576
58074W        W23301   1.848  15.867   3.121
58075W        W23302  23.768   3.557  14.986
58076W        W23303  22.812  40.979   3.888
58077W        W23304  40.018   9.422  12.892
58078W        W23305  35.568  34.462   1.355
58079W        W23306   9.273  42.763   3.172
58080W        W23307  15.651  38.759  14.629
58081W        W23308  15.543   3.904   4.598
58082W        W23309  30.643   5.884   0.293
58083W        W23310  19.726  35.553   2.983
58084W        W23311   4.579  43.994   1.205
58085W        W23312  36.560   5.586   3.671
58086W        W23313  38.569  21.265   2.646
58087W        W23314   5.009   2.631  13.068
58088W        W23315   4.791  16.498  10.231
58089W        W23316   5.980   4.306   0.800
58090W        W23317  10.671  34.097   4.334
58091W        W23318  30.974  41.419   4.537
58092W        W23319  30.296  30.410  10.177
58093W        W23320  31.090  29.669  14.431
58094W        W23321   1.396  41.908   0.467
58095W        W23322   3.754   2.486  14.364
58096W        W23323  30.767  15.742  12.153
58097W        W23324  15.627  35.398  14.368
58098W        W23325  20.329  18.703  11.041
58099W        W23326   5.237  28.569  14.973
58100W        W23327  33.795  14.611  14.241
58101W        W23328  33.088   6.433   3.795
58102W        W23329  23.909  32.238   0.494
58103W        W23330  19.360  43.875   2.774
58104W        W23331  13.512  17.183   4.633
58105W        W23332  11.170  41.129   3.845
58106W        W23333  42.716  33.519   1.667
58107W        W23334  25.963   4.343  12.126
58108W        W23335  43.584  14.210   0.038
58109W        W23336  39.392  10.681  10.687
58110W        W23337  19.894  26.012   1.446
58111W        W23338  38.679  35.404   3.612
58112W        W23339  13.593  44.965   0.281
58113W        W23340  41.955   3.712  10.769
58114W        W23341   8.812   8.953   0.341
58115W        W23342  21.172  20.449  13.516
58116W        W23343   4.388  44.519   2.198
58117W        W23344  24.530  42.894   1.292
58118W        W23345  32.442  31.872   1.358
58119W        W23346  19.506   0.158  12.094
58120W        W23347  31.137  25.314  11.593
58121W        W23348  30.109  24.219  13.058
58122W        W23349  35.226  22.561   2.809
58123W        W23350  25.774  32.063  13.550
58124W        W23351   3.956   9.290   3.653
58125W        W23352  38.228  10.220   0.618
58126W        W23353  19.743  34.349   2.638
58127W        W23354   8.849  38.479   4.911
58128W        W23355  18.112   4.474   2.680
58129W        W23356  14.281  19.682  11.658
58130W        W23357  41.764  27.350  13.294
58131W        W23358  36.606  15.625  11.631
58132W        W23359  18.615  42.559   4.064
58133W        W23360  24.573  15.565   0.471
58134W        W23361  11.703  23.796   0.159
58135W        W23362  23.172  29.792   4.161
58136W        W23363  20.557  42.767   2.207
58137W        W23364  20.862   8.210  11.151
58138W        W23365  24.112  27.916   1.936
58139W        W23366  27.421   1.864   3.283
58140W        W23367   0.252  20.840   0.761
58141W        W23368  14.717  36.963   3.205
58142W        W23369  38.944  29.923   3.754
58143W        W23370  14.898  41.015   1.955
58144W        W23371  15.755  16.178  14.927
58145W        W23372  12.343   8.935   2.214
58146W        W23373  23.520  22.325  13.232
58147W        W23374  40.344  38.499  11.299
58148W        W23375  10.248  18.037   2.029
58149W        W23376  14.245  29.895  14.493
58150W        W23377  31.521  18.560  14.876
58151W        W23378   6.729  29.173   1.796
58152W        W23379  22.761  38.903   0.207
58153W        W23380  27.720  32.230   4.225
58154W        W23381  27.371   9.452  13.606
58155W        W23382  16.677  15.688  11.503
58156W        W23383   6.859  19.271   4.668
58157W        W23384  25.068   5.539  12.249
58158W        W23385  30.938  23.194   1.098
58159W        W23386  35.269  12.067   0.272
58160W        W23387   2.072  23.456   4.717
58161W        W23388   2.498   3.371  12.777
58162W        W23389   4.355  31.929   1.346
58163W        W23390  37.794  11.400   2.885
58164W        W23391  25.251  37.434   0.290
58165W        W23392  17.155  16.182  13.953
58166W        W23393   9.725  38.211  13.069
58167W        W23394  39.250  43.187   3.786
58168W        W23395  22.704   4.080   3.224
58169W        W23396  38.121  15.339   2.309
58170W        W23397  33.557  10.195   0.430
58171W        W23398  43.404  29.676  11.899
58172W        W23399  35.469  20.327  12.425
58173W        W23400  18.911  44.340  11.335
58174W        W23401  42.364   6.229  11.541
58175W        W23402   8.741   6.818   0.696
58176W        W23403  29.679  42.889   3.611
58177W        W23404  17.074   0.052   4.057
58178W        W23405  32.965  11.819   1.402
58179W        W23406  29.472   1.549  14.988
58180W        W23407  37.416  32.828  12.555
58181W        W23408  20.936  16.148  14.273
58182W        W23409  32.124  27.527  14.869
58183W        W23410  42.896  13.818   4.757
58184W        W23411  24.990  14.785  13.511
58185W        W23412   8.470  13.217   4.588
58186W        W23413  36.851  34.119   0.048
58187W        W23414  40.047  15.859  12.954
58188W        W23415  20.304  18.464  14.881
58189W        W23416  26.140  24.552  14.446
58190W        W23417  17.555  24.753   3.604
58191W        W23418  37.367  37.769  14.557
58192W        W23419   3.955  26.735  11.687
58193W        W23420   6.772  35.415  12.478
58194W        W23421  42.915  16.146  13.320
58195W        W23422   1.071  32.509  11.573
58196W        W23423  39.982  15.835   4.186
58197W        W23424  15.394  41.861   2.726
58198W        W23425  22.106   2.458  10.710
58199W        W23426   9.340   2.665   1.420
58200W        W23427  40.696  19.991   3.747
58201W        W23428  40.484  28.082  11.229
58202W        W23429  16.341  14.704   2.374
58203W        W23430  41.482  42.434  14.939
58204W        W23431   0.917  17.854  13.384
58205W        W23432  22.705  10.143  11.576
58206W        W23433  39.265  20.183  13.318
58207W        W23434  34.633  43.807  14.819
58208W        W23435  12.866  13.063   1.223
58209W        W23436  41.817  13.620  13.854
58210W        W23437  40.069  16.649   1.053
58211W        W23438  24.526  43.541  14.883
58212W        W23439  39.412  11.429  14.385
58213W        W23440  28.087  43.784   4.298
58214W        W23441  42.901  10.292  11.671
58215W        W23442  13.760  23.453  13.018
58216W        W23443  14.726  10.731  13.879
58217W        W23444  37.765  24.846  11.929
58218W        W23445  29.169   1.897  14.519
58219W        W23446  37.639   8.997  13.396
58220W        W23447  41.645  22.899  11.101
58221W        W23448  12.221  19.487   1.795
58222W        W23449  37.865   8.855   3.790
58223W        W23450   6.963  43.322  12.395
58224W        W23451   4.674  36.476  14.009
58225W        W23452  22.778  34.015  12.184
58226W        W23453  27.679  13.778  14.007
58227W        W23454  13.116  44.253  11.077
58228W        W23455  19.673  14.322  10.828
58229W        W23456  18.289  15.656   1.332
58230W        W23457  33.625  29.040  12.904
58231W        W23458  32.399  34.646  12.662
58232W        W23459  41.884  43.805   2.493
58233W        W23460  43.485   5.182  11.571
58234W        W23461  25.489  19.520   1.711
58235W        W23462  13.676   6.750  10.972
58236W        W23463  29.957  38.428   2.697
58237W        W23464  15.852  31.944  12.346
58238W        W23465  16.083  21.189  11.727
58239W        W23466  22.932  15.487   4.545
58240W        W23467  29.172  30.141   0.446
58241W        W23468  23.542  31.146  13.289
58242W        W23469  30.661  24.916   5.430
58243W        W23470  41.136  19.412  13.896
58244W        W23471  12.589   1.655   1.392
58245W        W23472   6.418  42.052  11.105
58246W        W23473  36.922  16.549   0.219
58247W        W23474  14.619  19.245  11.659
58248W        W23475  28.575  35.006  14.984
58249W        W23476  27.679  42.311  12.063
58250W        W23477   3.609  17.311  11.185
58251W        W23478  16.636  35.604  13.369
58252W        W23479  23.895   5.360  10.349
58253W        W23480   8.943  35.302   3.062
58254W        W23481  24.158  32.036  14.273
58255W        W23482  42.919   1.284   3.817
58256W        W23483  12.733   2.682  14.802
58257W        W23484  33.335   2.661  11.986
58258W        W23485   8.983  44.999  11.980
58259W        W23486  42.085   5.412  10.281
58260W        W23487   5.326  28.558  10.941
58261W        W23488   1.871  13.442  14.829
58262W        W23489  29.139   1.452   2.287
58263W        W23490  13.617  10.415  13.301
58264W        W23491  39.057   1.736   9.913
58265W        W23492  33.444  26.098   4.744
58266W        W23493  25.961   0.674   0.498
58267W        W23494  27.753  30.240  12.816
58268W        W23495   9.382  29.264   2.722
58269W        W23496   6.457  43.857  14.724
58270W        W23497  38.956   7.954  13.032
58271W        W23498  36.314  40.413  14.390
58272W        W23499  37.961  12.108  11.288
58273W        W23500   6.234  26.916  11.537
58274W        W23501  42.388   3.795   1.693
58275W        W23502  41.499  28.678   1.777
58276W        W23503  12.888  27.996   1.482
58277W        W23504  28.136   2.712  10.076
58278W        W23505   9.633   5.453   0.209
58279W        W23506  32.890   6.780  11.705
58280W        W23507  32.870  32.038  11.855
58281W        W23508   8.434   1.926  10.323
58282W        W23509  34.238   6.510   1.321
58283W        W23510  42.253  38.045  13.661
58284W        W23511   0.492  20.396  10.130
58285W        W23512  30.923   3.034  10.273
58286W        W23513  43.017  39.796  13.122
58287W        W23514  12.865  41.570  11.596
58288W        W23515  32.378   9.681  11.692
58289W        W23516  38.926  22.233   3.686
58290W        W23517  34.665   0.454   3.190
58291W        W23518  10.748  38.813   1.262
58292W        W23519  27.633  36.433  12.822
58293W        W23520  29.517  41.413  13.605
58294W        W23521  34.001  15.675   2.172
58295W        W23522  12.661  21.151  14.877
58296W        W23523   9.260   0.381  11.743
58297W        W23524  17.560   4.246   4.113
58298W        W23525  27.197  44.348  12.965
58299W        W23526  20.278  39.988   4.754
58300W        W23527  41.361   5.719  14.238
58301W        W23528  29.511  41.207  10.181
58302W        W23529  20.585  27.579   1.665
58303W        W23530  41.543   1.951   1.537
58304W        W23531  15.798  38.766  12.440
58305W        W23532  31.563   0.209   2.268
58306W        W23533  34.017  39.211  14.272
58307W        W23534  30.952  15.285  10.728
58308W        W23535   4.260  38.002   3.832
58309W        W23536   2.837  18.230  11.632
58310W        W23537   8.646  11.467   1.824
58311W        W23538  22.485  34.574  11.621
58312W        W23539  32.011  19.345  12.003
58313W        W23540   9.308  10.206   3.165
58314W        W23541  29.832  23.711  14.367
58315W        W23542   4.410  33.613  12.021
58316W        W23543  31.176  24.522   2.216
58317W        W23544   4.720  17.730  13.358
58318W        W23545   7.250  41.351   4.278
58319W        W23546  20.022  13.119   1.451
58320W        W23547  22.298   9.312   1.332
58321W        W23548   3.056   8.334  13.505
58322W        W23549   6.335  32.112  14.421
58323W        W23550  17.587  30.096  12.982
58324W        W23551   0.777  32.406  10.650
58325W        W23552   6.347  16.277   1.704
58326W        W23553   2.672  37.660  12.599
58327W        W23554  44.475  35.578   3.557
58328W        W23555   9.691   5.737  11.548
58329W        W23556   8.276  34.355   3.400
58330W        W23557  32.779  36.967   2.951
58331W        W23558  35.643  20.120   0.232
58332W        W23559   6.720  41.938  14.717
58333W        W23560  26.957  27.935  13.833
58334W        W23561  27.700  40.793   1.919
58335W        W23562  36.165   0.293  14.877
58336W        W23563  17.580  10.395   1.861
58337W        W23564  13.312  29.382   1.910
58338W        W23565   5.097  33.503   1.447
58339W        W23566  44.343  12.777   2.671
58340W        W23567  21.225  22.254   1.106
58341W        W23568  36.727  25.101  10.841
58342W        W23569   3.933  23.870  12.178
58343W        W23570  14.093   6.890  12.895
58344W        W23571  10.718  10.479   3.102
58345W        W23572  27.557  15.203   5.321
58346W        W23573   1.543  39.843  13.191
58347W        W23574  20.624  31.166  11.096
58348W        W23575  17.242  14.121  10.197
58349W        W23576  17.302  44.992  13.455
58350W        W23577  18.980  38.833  12.677
58351W        W23578  18.316  37.549   1.341
58352W        W23579  44.127  11.655   3.337
58353W        W23580  27.671   1.403  12.379
58354W        W23581   6.295  41.310   4.598
58355W        W23582  28.438  34.870  12.234
58356W        W23583  20.048  26.055   0.944
58357W        W23584  44.497  22.246  13.760
58358W        W23585  20.939  20.668   3.536
58359W        W23586   7.166  10.120  13.968
58360W        W23587  14.289  21.617  11.707
58361W        W23588   3.709  27.554   3.566
58362W        W23589  41.421  20.349  13.997
58363W        W23590  12.651  26.238  11.018
58364W        W23591   0.432   0.016   1.559
58365W        W23592  16.053  40.528  14.518
58366W        W23593   4.237  23.177   1.758
58367W        W23594   7.776  21.339   2.810
58368W        W23595  26.535  39.287   4.495
58369W        W23596  17.156  32.448   9.928
58370W        W23597  38.205  11.115   1.108
58371W        W23598  29.304   4.746   1.074
58372W        W23599  32.981  16.652  10.703
58373W        W23600  31.437  25.648  14.783
58374W        W23601  12.153  37.800   4.593
58375W        W23602  26.440  35.409  13.407
58376W        W23603   7.208   5.934   1.489
58377W        W23604   9.595   3.739   0.859
58378W        W23605  29.719  13.182   2.222
58379W        W23606  43.799  22.161  11.590
58380W        W23607  19.360  41.025  12.892
58381W        W23608  40.993  43.841   2.429
58382W        W23609  42.809  26.600  12.046
58383W        W23610  38.855  13.889   4.105
58384W        W23611  12.321  40.890  13.603
58385W        W23612  30.438   1.906   4.518
58386W        W23613  28.552  15.553  10.986
58387W        W23614  41.499  39.868  11.242
58388W        W23615  33.280   3.003  13.848
58389W        W23616   1.404  21.202  14.428
58390W        W23617  41.510   2.536   5.009
58391W        W23618  14.202   4.693  11.026
58392W        W23619  38.860   2.957   1.753
58393W        W23620  37.537  24.795  12.471
58394W        W23621  40.727   6.403   2.687
58395W        W23622   0.863  32.876  13.415
58396W        W23623   5.828  37.670   2.886
58397W        W23624  35.451  12.248   3.171
58398W        W23625  44.634  29.061   3.058
58399W        W23626  18.362  17.066  12.108
58400W        W23627  23.524  35.492  13.088
58401W        W23628  34.933   8.314  10.492
58402W        W23629  19.032  33.508   4.883
58403W        W23630  33.736  19.247  11.082
58404W        W23631  40.879  41.365   4.074
58405W        W23632  15.095  29.955  10.539
58406W        W23633  24.998  25.800   3.924
58407W        W23634  33.258  22.585   0.469
58408W        W23635  31.613  13.271  12.583
58409W        W23636  14.782  42.679  14.956
58410W        W23637   3.012   9.796  11.229
58411W        W23638   0.802  31.631  14.985
58412W        W23639  15.632  22.133   0.137
58413W        W23640   7.602  12.081  10.380
58414W        W23641  19.737   4.318   3.063
58415W        W23642  43.305  24.604   2.882
58416W        W23643  13.331  15.339   9.847
58417W        W23644  35.773  17.460   3.649
58418W        W23645   8.823  26.029  11.731
58419W        W23646  27.152  11.588  14.447
58420W        W23647  36.480   5.848   0.326
58421W        W23648  33.131  25.852  11.322
58422W        W23649  38.021  20.681   4.766
58423W        W23650  25.040  18.964   3.291
58424W        W23651  27.333  20.782  12.157
58425W        W23652  36.885  44.571   2.716
58426W        W23653  44.280   1.743   1.853
58427W        W23654  35.306   5.635   3.453
58428W        W23655  19.674   4.797  12.130
58429W        W23656   0.891   1.208  14.371
58430W        W23657  16.707  37.598   4.630
58431W        W23658  11.102   2.331  14.981
58432W        W23659   2.508  43.415   3.738
58433W        W23660  44.335  13.002  11.253
58434W        W23661  13.848  17.158   0.430
58435W        W23662  32.856  14.754   1.748
58436W        W23663   1.337  10.924  13.095
58437W        W23664  21.689  11.371  13.041
58438W        W23665  10.688  23.308   0.995
58439W        W23666  39.378  41.452   3.096
58440W        W23667  43.682   7.103   2.336
58441W        W23668  35.518  18.487   1.381
58442W        W23669  43.325  43.795   2.034
58443W        W23670   0.065   8.824  14.789
58444W        W23671   8.136   4.485  14.972
58445W        W23672  17.940  30.376  11.920
58446W        W23673   3.873  25.167   4.750
58447W        W23674   4.922  43.922  14.349
58448W        W23675   7.476  33.601   5.040
58449W        W23676  14.105  25.715   3.641
58450W        W23677  42.459  11.579   4.175
58451W        W23678  15.794  32.920  11.999
58452W        W23679  25.155  23.981   1.311
58453W        W23680  28.991  19.762   2.515
58454W        W23681  36.582  30.613  13.834
58455W        W23682  33.678  11.756   1.666
58456W        W23683   9.398  12.152  12.339
58457W        W23684  44.242  24.493  14.431
58458W        W23685  30.245   9.555  14.924
58459W        W23686  19.029  16.526   3.060
58460W        W23687   6.270  23.756   1.022
58461W        W23688   2.904  36.632  12.467
58462W        W23689  12.608  17.197   3.116
58463W        W23690   5.730  35.077   3.871
58464W        W23691  23.346  41.830  12.639
58465W        W23692  23.553   6.806  12.351
58466W        W23693   8.886   8.051   2.888
58467W        W23694  15.280  10.212  14.320
58468W        W23695  12.326  11.727  10.616
58469W        W23696  24.243  12.120  14.781
58470W        W23697   5.456  31.825   0.650
58471W        W23698  31.688   0.408  13.351
58472W        W23699  39.944  23.695  12.416
58473W        W23700  43.330  12.483   1.888
58474W        W23701  13.900  26.675  14.496
58475W        W23702  29.181   3.953   3.994
58476W        W23703  22.625   1.436  12.237
58477W        W23704   6.618  19.032  13.341
58478W        W23705  40.988   0.226  13.086
58479W        W23706   4.921  30.627  11.563
58480W        W23707   0.002  41.414   4.305
58481W        W23708   5.149  41.500  10.782
58482W        W23709  34.188  39.706   4.669
58483W        W23710   0.508  11.375   2.211
58484W        W23711  27.141  44.664  10.412
58485W        W23712  38.324   2.778   2.673
58486W        W23713  19.801  26.573   4.641
58487W        W23714   3.538  16.636  10.249
58488W        W23715  31.608  28.984  13.955
58489W        W23716  18.722  11.315  12.924
58490W        W23717   2.019  31.138  10.424
58491W        W23718  17.855  28.656   0.756
58492W        W23719  12.545  30.868   4.709
58493W        W23720  28.403  20.831   1.914
58494W        W23721   1.275  28.927  10.498
58495W        W23722  24.443  44.471  12.616
58496W        W23723  40.223  34.082   3.967
58497W        W23724  24.012  38.763  12.163
58498W        W23725  20.771   5.362   2.791
58499W        W23726   9.390  23.618   4.520
58500W        W23727  42.587   5.298  11.940
58501W        W23728  42.705  31.560  11.921
58502W        W23729  44.780  22.241  10.735
58503W        W23730  29.475  21.988  12.011
58504W        W23731  33.231   5.868   0.381
58505W        W23732  28.807  24.092  14.011
58506W        W23733  27.112  37.519  12.389
58507W        W23734  42.909   8.308   0.940
58508W        W23735   1.512   1.473   1.759
58509W        W23736   6.079  29.173  11.637
58510W        W23737  15.790   1.320   3.625
58511W        W23738  25.195  25.549  14.073
58512W        W23739   9.417   6.252  14.880
58513W        W23740  35.164  26.267   2.135
58514W        W23741   6.437  35.883   1.878
58515W        W23742   2.409  39.789   2.111
58516W        W23743   0.605  13.390   3.598
58517W        W23744  38.483   0.711   0.302
58518W        W23745   8.299   5.409  12.063
58519W        W23746  13.655  18.034  11.994
58520W        W23747  14.286  38.863  14.784
58521W        W23748   5.274  30.429   0.803
58522W        W23749  13.983   6.027  12.198
58523W        W23750   1.232  32.492   4.189
58524W        W23751  16.706  43.562   0.939
58525W        W23752  41.613  11.199  11.483
58526W        W23753  36.277   4.696  14.916
58527W        W23754  34.142  18.620   0.064
58528W        W23755  44.972   2.966   2.212
58529W        W23756  30.069  36.130  10.133
58530W        W23757  27.672  15.151   2.457
58531W        W23758  32.438   6.252  10.939
58532W        W23759  31.611  14.182   3.210
58533W        W23760  42.853  34.902   1.800
58534W        W23761  17.221  38.826   2.583
58535W        W23762  32.960   8.055   0.802
58536W        W23763   0.508   5.435  12.983
58537W        W23764  17.887  24.086  10.697
58538W        W23765  18.903  41.128   3.673
58539W        W23766   8.255  15.927  12.369
58540W        W23767  14.361  19.596   1.056
58541W        W23768  14.041   7.525  14.412
58542W        W23769  14.833  33.548  14.994
58543W        W23770  24.282  17.286  13.399
58544W        W23771  24.959  25.289  14.462
58545W        W23772   0.440   6.267  11.926
58546W        W23773  28.447  20.048  10.737
58547W        W23774  10.520   8.412   1.365
58548W        W23775  32.305  33.641  13.337
58549W        W23776  35.964   9.276   3.148
58550W        W23777  10.715  12.324   4.684
58551W        W23778  18.501   8.477  14.872
58552W        W23779  12.441  40.748  14.099
58553W        W23780  21.159  30.568  14.743
58554W        W23781  38.417  27.256  12.117
58555W        W23782  27.051  22.151   4.634
58556W        W23783   5.847   6.815   4.108
58557W        W23784   3.727  13.602   4.159
58558W        W23785  33.678  19.151   1.221
58559W        W23786  11.654  39.989  11.845
58560W        W23787   2.942   1.250   2.725
58561W        W23788  20.182  15.257   0.499
58562W        W23789  21.252   7.798  14.737
58563W        W23790   6.997   7.454   2.687
58564W        W23791  42.914   0.770  12.271
58565W        W23792  11.130  26.520  12.528
58566W        W23793  44.407  27.083  12.625
58567W        W23794  23.223  28.703  11.006
58568W        W23795   1.887  36.329   0.477
58569W        W23796  35.550   5.436  12.038
58570W        W23797   4.647  19.172  13.950
58571W        W23798  29.077   2.730  12.636
58572W        W23799  21.094   8.671  14.426
58573W        W23800  31.845   8.930  13.016
58574W        W23801   1.449  18.241   3.762
58575W        W23802   1.600  26.429   1.442
58576W        W23803  19.124  21.479  12.067
58577W        W23804  18.602  27.426  12.143
58578W        W23805   2.244  32.992  12.124
58579W        W23806  29.010   9.932  11.134
58580W        W23807   7.630  12.855   1.506
58581W        W23808  21.628  34.983  11.536
58582W        W23809  13.631  30.693  11.560
58583W        W23810   2.433  10.354   4.553
58584W        W23811  28.366  16.831  13.248
58585W        W23812  25.145  32.163  12.464
58586W        W23813  39.481  12.807   4.801
58587W        W23814  21.844   9.629  11.679
58588W        W23815  39.029  33.400   3.835
58589W        W23816  22.055  13.641  12.166
58590W        W23817  14.677  17.496  11.598
58591W        W23818  19.569  32.788  12.017
58592W        W23819  19.675  44.522  14.389
58593W        W23820   7.628  33.295   0.427
58594W        W23821  36.230  42.444  12.580
58595W        W23822   9.131  37.639  11.448
58596W        W23823  26.975  29.162  10.341
58597W        W23824  40.770   7.831   4.442
58598W        W23825  32.391  18.096  12.438
58599W        W23826  17.948  35.528   1.803
58600W        W23827  39.729  24.523  12.665
58601W        W23828  40.751  39.204   2.885
58602W        W23829  38.930  13.237   2.911
58603W        W23830  43.473  41.069  13.020
58604W        W23831  40.266  19.516  13.045
58605W        W23832  42.954  26.125  11.403
58606W        W23833   8.809   2.943   0.416
58607W        W23834  41.496  13.673  11.500
58608W        W23835  19.650  19.542   0.719
58609W        W23836   5.678  10.762  13.726
58610W        W23837  27.579   1.849  12.646
58611W        W23838  32.574  27.000  12.413
58612W        W23839  31.511  38.409   1.958
58613W        W23840  37.771  42.665  11.099
58614W        W23841  25.706  30.122   4.279
58615W        W23842   8.811  35.122  10.621
58616W        W23843  21.209  11.987   0.325
58617W        W23844   8.924  20.711  14.928
58618W        W23845   9.259  37.889   0.380
58619W        W23846  18.418  19.810   4.111
58620W        W23847  18.767  23.729   0.309
58621W        W23848  37.660  35.613   3.627
58622W        W23849  43.456  36.047  10.376
58623W        W23850  13.252  31.911  14.368
58624W        W23851  44.484  17.102   3.831
58625W        W23852   2.388   4.737   1.013
58626W        W23853   5.386  39.324  12.604
58627W        W23854  30.616  21.310  13.093
58628W        W23855   1.767  20.079   4.424
58629W        W23856  20.086  22.260   4.474
58630W        W23857  12.306  31.487   1.741
58631W        W23858  31.010  14.228  13.914
58632W        W23859  10.967   6.437   0.737
58633W        W23860  16.091  37.419  13.461
58634W        W23861  14.713   3.333   2.468
58635W        W23862  31.272  42.871   2.548
58636W        W23863  38.590   6.140  13.867
58637W        W23864  32.969  11.571  11.120
58638W        W23865   2.891  39.575   3.026
58639W        W23866  33.377  26.613   4.029
58640W        W23867  43.427  20.056   0.985
58641W        W23868  22.527   2.343  13.360
58642W        W23869  15.756  41.653  12.280
58643W        W23870  26.656  32.546  14.404
58644W        W23871  33.564  17.593   0.449
58645W        W23872  33.148  20.668   2.292
58646W        W23873   8.966  33.990  12.505
58647W        W23874  16.219  35.724   1.873
58648W        W23875  22.145  30.881  13.342
58649W        W23876  35.022  22.962   4.192
58650W        W23877   4.919  36.626   2.864
58651W        W23878  10.878  19.765   2.332
58652W        W23879  17.056  37.389   0.864
58653W        W23880  20.870   8.603   4.122
58654W        W23881  40.825   3.735  14.383
58655W        W23882  41.233   4.678  13.177
58656W        W23883  20.959  20.298  11.235
58657W        W23884  21.226  11.443  14.019
58658W        W23885  44.868  43.423  10.750
58659W        W23886  27.103   6.823  13.383
58660W        W23887  21.095  20.367  12.068
58661W        W23888  32.765   2.073  14.040
58662W        W23889  37.027  32.878   4.245
58663W        W23890  10.218   1.781   4.673
58664W        W23891   0.109  17.059  13.936
58665W        W23892   5.121  32.052   4.559
58666W        W23893  17.398  14.260  11.204
58667W        W23894  37.604  14.191   2.398
58668W        W23895  42.873  12.139  11.783
58669W        W23896  26.638  21.772  13.224
58670W        W23897   4.251   3.435   4.831
58671W        W23898  28.031   9.900  10.784
58672W        W23899   1.912  34.192   4.406
58673W        W23900   7.489   6.332  13.492
58674W        W23901  19.171   3.946   2.301
58675W        W23902  37.021  27.938  14.548
58676W        W23903   9.213  15.600   0.704
58677W        W23904  44.689  43.017  10.491
58678W        W23905  44.365  29.714   0.980
58679W        W23906  24.991  26.728  11.589
58680W        W23907   9.002  15.200   0.953
58681W        W23908   6.648  37.610   4.895
58682W        W23909   1.647  25.628   1.660
58683W        W23910   6.163   6.862  13.091
58684W        W23911   0.327  41.233  12.966
58685W        W23912  41.600   3.482   2.152
58686W        W23913  21.211   1.320   0.517
58687W        W23914  36.206  10.736   1.845
58688W        W23915  33.891  18.607  12.927
58689W        W23916  25.703   6.452  10.717
58690W        W23917  17.461  34.364  10.420
58691W        W23918   0.494  36.372  12.534
58692W        W23919  14.874   4.291   0.381
58693W        W23920   3.585  24.342  13.027
58694W        W23921  34.016  15.229  11.958
58695W        W23922  17.117   7.928  12.851
58696W        W23923   9.749   6.298   4.438
58697W        W23924  15.776  25.974  14.909
58698W        W23925  29.593  30.031   3.797
58699W        W23926  43.456  31.500  10.527
58700W        W23927  26.052   9.891   4.118
58701W        W23928   1.299  32.658   2.789
58702W        W23929  40.486  15.989  11.542
58703W        W23930  16.801  17.245  14.934
58704W        W23931  38.071  23.565   1.347
58705W        W23932  28.132   2.203  10.405
58706W        W23933  30.692  33.980  11.023
58707W        W23934  36.851  24.351  13.751
58708W        W23935  26.505  25.165   1.716
58709W        W23936  42.468  28.899  11.862
58710W        W23937   9.644  16.677  11.463
58711W        W23938  41.315   7.159   0.323
58712W        W23939  40.875  39.578   4.849
58713W        W23940   4.447  43.068  14.580
58714W        W23941  28.646  25.031   3.727
58715W        W23942  31.113   9.517  11.479
58716W        W23943  38.986   2.485   3.735
58717W        W23944   5.915  27.596  13.757
58718W        W23945  36.688  34.376  12.092
58719W        W23946  41.128   8.242  11.236
58720W        W23947  38.579  44.435  13.439
58721W        W23948  40.248   3.172   4.115
58722W        W23949  39.756   3.585   3.197
58723W        W23950   7.199  29.849  12.036
58724W        W23951  12.850   7.440  13.978
58725W        W23952  31.630  41.312   3.679
58726W        W23953   0.287  14.904  14.931
58727W        W23954   9.384  23.097   4.442
58728W        W23955   9.662   6.742   4.147
58729W        W23956  15.237  11.946  13.798
58730W        W23957  22.739   4.247   2.006
58731W        W23958  39.527  14.388   0.230
58732W        W23959  34.504   8.822  13.472
58733W        W23960  31.110  28.761   3.644
58734W        W23961  39.447   1.824  10.782
58735W        W23962  30.468  18.244   1.748
58736W        W23963  39.955  33.311  13.763
58737W        W23964  30.960  13.879   4.225
58738W        W23965  10.054   8.701   2.729
58739W        W23966  19.632  44.978   4.733
58740W        W23967  15.884  40.622   3.088
58741W        W23968  20.014  42.537  13.489
58742W        W23969  33.529   0.182  11.588
58743W        W23970   3.841   7.463   0.763
58744W        W23971  14.620  25.137   2.271
58745W        W23972  31.893  42.980  14.719
58746W        W23973  11.810  18.053  13.925
58747W        W23974  11.795  38.681  14.488
58748W        W23975   2.814  25.653  13.569
58749W        W23976  13.324   9.385  13.499
58750W        W23977  39.860  42.814  13.481
58751W        W23978   3.352  27.702  14.345
58752W        W23979  38.385  17.415   3.666
58753W        W23980   1.809  24.072   0.058
58754W        W23981   8.837  26.050   4.246
58755W        W23982  42.471   6.252   3.589
58756W        W23983  27.264   1.399  12.707
58757W        W23984   5.789  25.625  11.477
58758W        W23985   8.624  20.066  14.479
58759W        W23986  39.369  11.930  14.432
58760W        W23987  24.109  38.533   2.690
58761W        W23988  15.671  12.634  13.527
58762W        W23989   3.232  32.654  12.119
58763W        W23990  16.399  29.979  14.854
58764W        W23991  13.056  31.176  11.984
58765W        W23992  25.842  41.902  14.829
58766W        W23993  23.664   3.063   3.354
58767W        W23994  37.274   7.921  11.640
58768W        W23995   7.002   5.426  11.602
58769W        W23996  12.989   2.553  11.194
58770W        W23997  38.874  17.305   2.125
58771W        W23998  37.066   8.390  11.564
58772W        W23999  43.955  28.931  14.901
58773W        W24000  13.194   5.745   3.332
58774W        W24001   8.955  13.179   0.085
58775W        W24002  24.597  44.274  12.163
58776W        W24003  30.109  17.631   2.334
58777W        W24004  35.127   9.296   2.742
58778W        W24005   8.713  22.058  10.741
58779W        W24006  42.324   6.886  13.771
58780W        W24007   4.224  30.406   0.034
58781W        W24008  43.608  27.563   1.491
58782W        W24009  23.049  16.761   1.636
58783W        W24010  24.694   8.246   3.146
58784W        W24011  25.514  22.734  13.847
58785W        W24012  17.976  16.545   4.560
58786W        W24013  28.088  10.748   4.287
58787W        W24014   0.898   3.124  11.617
58788W        W24015  43.094  22.482   1.733
58789W        W24016  35.954  12.318  11.235
58790W        W24017   4.866  26.531   2.688
58791W        W24018   4.322  38.021  13.003
58792W        W24019  29.616  23.132   2.660
58793W        W24020   0.026  37.538  11.659
58794W        W24021   0.180   4.463   1.258
58795W        W24022  32.195  41.812  12.964
58796W        W24023  15.362  35.599   3.608
58797W        W24024  20.618  10.795  12.041
58798W        W24025   4.314   1.367   3.098
58799W        W24026  17.129  24.109   0.693
58800W        W24027  15.109  19.851  11.205
58801W        W24028  36.667  16.227   2.801
58802W        W24029  43.375  30.383   1.849
58803W        W24030  41.910  30.756   0.741
58804W        W24031  24.242  29.838   3.234
58805W        W24032  24.250  43.788  11.728
58806W        W24033   2.065   1.387   2.741
58807W        W24034  44.304  32.172   1.547
58808W        W24035   1.919   4.514   1.020
58809W        W24036  42.410  37.625   0.300
58810W        W24037  20.277  34.739  11.822
58811W        W24038  26.177  10.334   2.770
58812W        W24039   2.007  39.947  13.420
58813W        W24040   6.900  12.051   2.334
58814W        W24041  15.172  27.454  12.915
58815W        W24042  26.522  18.121  12.440
58816W        W24043  14.273  35.793  14.375
58817W        W24044  29.929  22.151  11.252
58818W        W24045   8.436  24.398   3.230
58819W        W24046  33.892   5.812   3.024
58820W        W24047  26.239  38.016   0.811
58821W        W24048  40.965  30.616   2.306
58822W        W24049   6.212  23.519  12.372
58823W        W24050  12.270   6.302  14.381
58824W        W24051  16.106  29.720   1.821
58825W        W24052   6.835  18.022  14.827
58826W        W24053  17.751  44.210   3.289
58827W        W24054   0.055   3.643  10.611
58828W        W24055  42.317   9.355  13.493
58829W        W24056  33.202  11.283  13.382
58830W        W24057  11.224  24.048   0.892
58831W        W24058  44.075  16.632  14.856
58832W        W24059   9.127  22.050   4.113
58833W        W24060  40.042  27.215   1.865
58834W        W24061  38.420   7.177   1.679
58835W        W24062   3.191  40.003   4.635
58836W        W24063   0.006   3.312   4.763
58837W        W24064  36.503  39.144   4.186
58838W        W24065  25.303  43.259   1.693
58839W        W24066  43.993  23.668   4.361
58840W        W24067   5.469  32.272  13.050
58841W        W24068  20.655  44.543  11.399
58842W        W24069  25.713  35.876  13.921
58843W        W24070  32.938  43.822  11.414
58844W        W24071   8.709  27.898   3.516
58845W        W24072  39.464  40.013   3.411
58846W        W24073  21.951   9.814  10.756
58847W        W24074   2.859   5.912  11.447
58848W        W24075  16.096  39.389   3.210
58849W        W24076  11.627   9.241  10.395
58850W        W24077  10.816  27.061   2.181
58851W        W24078  15.407   6.917   1.283
58852W        W24079  35.519  12.263  14.841
58853W        W24080  22.187  19.708  13.445
58854W        W24081  14.067  25.957  13.948
58855W        W24082  39.806  41.297   3.313
58856W        W24083  19.725   4.413  14.910
58857W        W24084   9.615  39.767  14.101
58858W        W24085  36.136  42.801   4.237
58859W        W24086  10.767  16.092  12.489
58860W        W24087  43.947  35.511  13.496
58861W        W24088  10.223  23.966  13.407
58862W        W24089  29.501  41.554   3.142
58863W        W24090  10.603   4.544  10.756
58864W        W24091  35.012  22.648   1.953
58865W        W24092  30.683  11.611  14.886
58866W        W24093  14.184   6.689  11.124
58867W        W24094  10.772   3.261  14.458
58868W        W24095  32.909   8.547   4.704
58869W        W24096  15.470  23.536   0.803
58870W        W24097  20.962   1.876  13.389
58871W        W24098  40.265   4.423   0.316
58872W        W24099  41.423  41.877   3.645
58873W        W24100  37.762  21.366  10.520
58874W        W24101   0.454   7.323   4.709
58875W        W24102  10.079  30.412   4.194
58876W        W24103  16.106  35.072   1.232
58877W        W24104   0.758  11.145  13.364
58878W        W24105  30.181   5.892   0.467
58879W        W24106  37.495   8.762  12.188
58880W        W24107  23.808   6.934  13.394
58881W        W24108  28.717  13.299   9.845
58882W        W24109   2.400  35.107  14.905
58883W        W24110  10.334  32.743   1.753
58884W        W24111  25.163  19.235   3.887
58885W        W24112  11.711  43.245   3.731
58886W        W24113   1.891  27.352   3.512
58887W        W24114  10.098  25.663   3.802
58888W        W24115   6.869  20.651   4.228
58889W        W24116  24.797  35.909   2.355
58890W        W24117  28.031  31.666   1.749
58891W        W24118  14.671  35.970   3.297
58892W        W24119  37.555  25.110   1.928
58893W        W24120  11.203   7.231   1.183
58894W        W24121  33.540  12.602  12.145
58895W        W24122  32.063  40.323  12.191
58896W        W24123  42.704  22.815   4.028
58897W        W24124   3.531  38.391   3.695
58898W        W24125   5.479  25.470  13.977
58899W        W24126   2.866  41.930   1.850
58900W        W24127   7.855   4.648   3.748
58901W        W24128   6.697  11.096  14.423
58902W        W24129  39.597  15.891   2.764
58903W        W24130   3.304  10.918  12.721
58904W        W24131  39.843  41.271  13.125
58905W        W24132   1.287  44.255   0.548
58906W        W24133   8.038  32.550   2.704
58907W        W24134   0.385  20.723  12.595
58908W        W24135  23.508   2.549  12.047
58909W        W24136   8.297   8.397  14.337
58910W        W24137  25.102  36.784  11.277
58911W        W24138  27.437   5.882   3.611
58912W        W24139  40.321  29.089  14.447
58913W        W24140  14.405  34.955   0.217
58914W        W24141  31.904  33.971  13.393
58915W        W24142  22.102  33.740   1.729
58916W        W24143  33.826   7.870   2.771
58917W        W24144  38.918  21.773   2.326
58918W        W24145  32.306  25.050  13.043
58919W        W24146  33.674   6.209   2.775
58920W        W24147  13.356   3.263   0.227
58921W        W24148  38.362   3.787  13.310
58922W        W24149  23.166  13.415  11.570
58923W        W24150  10.662  23.869  11.450
58924W        W24151  19.137  34.193  11.966
58925W        W24152  42.476  24.004  13.488
58926W        W24153  42.999  32.714  14.756
58927W        W24154  24.078  26.753   2.803
58928W        W24155  31.178  44.233  13.965
58929W        W24156  11.250  15.526  12.059
58930W        W24157  17.015  34.773   0.777
58931W        W24158  34.058  42.523  14.414
58932W        W24159  36.788  31.087  13.966
58933W        W24160  38.896  18.837   1.928
58934W        W24161  25.792  24.785  14.036
58935W        W24162  39.270  29.427  10.549
58936W        W24163  10.882  33.058  14.465
58937W        W24164  35.523  27.067   1.869
58938W        W24165  26.952   5.944   3.893
58939W        W24166  43.285  13.678   4.416
58940W        W24167   5.183  12.826   1.177
58941W        W24168   6.165   3.152   3.437
58942W        W24169  42.135   0.405   3.378
58943W        W24170   1.436  28.040   0.847
58944W        W24171   1.523   7.853   0.415
58945W        W24172  14.234  19.685   4.122
58946W        W24173  21.081  35.321  14.027
58947W        W24174  22.301  21.113  10.559
58948W        W24175  26.567  29.358  10.618
58949W        W24176  42.802  26.188   3.411
58950W        W24177  18.608  15.692   4.602
58951W        W24178  40.005  18.743   0.280
58952W        W24179   0.215  26.380   5.405
58953W        W24180  28.849  19.677   1.527
58954W        W24181  35.096  24.046  11.665
58955W        W24182  13.244  41.919  12.373
58956W        W24183  27.078  25.304   4.080
58957W        W24184   2.399  41.128   2.886
58958W        W24185  13.855  39.027  12.802
58959W        W24186  36.041   0.177   3.678
58960W        W24187   0.232  14.240   1.005
58961W        W24188  26.543  11.991  14.000
58962W        W24189  34.886  24.677   3.246
58963W        W24190  30.903  32.583   3.599
58964W        W24191   8.814   7.562   4.642
58965W        W24192  12.851  11.612   1.201
58966W        W24193  40.522  18.089   3.771
58967W        W24194  39.260  23.818   2.674
58968W        W24195  18.637   4.733  13.427
58969W        W24196  16.314  32.880  12.009
58970W        W24197  31.380  39.036  14.824
58971W        W24198   0.456   0.544   2.815
58972W        W24199  24.596   0.733   1.302
58973W        W24200   3.143  22.638   4.255
58974W        W24201  43.513  17.684   3.667
58975W        W24202  39.101  14.714   3.227
58976W        W24203  26.625  40.346  14.962
58977W        W24204  32.587  22.267  14.794
58978W        W24205  22.176  28.638  14.937
58979W        W24206  42.720  20.810  10.300
58980W        W24207  25.433  35.335   1.748
58981W        W24208  42.506  18.530  12.609
58982W        W24209  38.318  41.242   1.722
58983W        W24210   2.747  12.756  13.394
58984W        W24211  29.625   5.243   3.431
58985W        W24212  34.264  30.202   3.599
58986W        W24213  37.126  43.265  13.322
58987W        W24214  34.855  16.055  11.592
58988W        W24215   7.352  37.695  11.131
58989W        W24216  20.256  10.805  14.495
58990W        W24217   4.933  40.427  10.707
58991W        W24218  14.167  29.684  13.428
58992W        W24219  11.434   9.802   0.825
58993W        W24220  11.737  33.326   2.788
58994W        W24221  39.505  20.914   0.748
58995W        W24222  14.470  33.434  11.076
58996W        W24223  39.255  37.373  14.462
58997W        W24224  35.926  31.902   4.106
58998W        W24225   9.796  14.643   2.212
58999W        W24226  40.084  30.440   2.073
59000W        W24227  35.584   9.642  11.937
59001W        W24228   4.243  35.686  10.692
59002W        W24229  33.168  18.195  13.777
59003W        W24230   6.661  15.771   2.724
59004W        W24231  12.093  28.102   1.558
59005W        W24232  25.218  17.206  13.141
59006W        W24233  15.816  43.993  13.033
59007W        W24234  41.870  36.455   4.713
59008W        W24235  10.116  34.549  12.878
59009W        W24236  44.495  11.540   2.938
59010W        W24237  10.689  11.587   3.359
59011W        W24238   7.675  14.071  11.644
59012W        W24239   1.801  27.109   3.957
59013W        W24240  19.361  38.563   0.454
59014W        W24241  35.311   3.839   3.412
59015W        W24242  42.730  40.524  13.284
59016W        W24243   4.958  12.377   1.864
59017W        W24244  44.920   0.584   2.873
59018W        W24245  28.707  34.434   3.323
59019W        W24246  35.621   1.980   2.249
59020W        W24247  13.069  31.430  11.548
59021W        W24248  13.298  38.517   1.446
59022W        W24249   1.508  42.360   3.719
59023W        W24250  28.489   0.271   4.110
59024W        W24251   0.790  44.474  11.436
59025W        W24252   2.930  32.987  11.485
59026W        W24253  18.531  28.026  12.974
59027W        W24254  22.906   8.088   4.199
59028W        W24255   0.211  12.421   4.532
59029W        W24256   8.474  41.002   2.822
59030W        W24257   4.404  20.344   4.113
59031W        W24258  19.180  16.909  12.081
59032W        W24259  40.712  10.638  14.380
59033W        W24260  13.683  13.660   3.573
59034W        W24261  20.407   8.891   3.178
59035W        W24262  41.337  32.876   3.582
59036W        W24263  23.381  23.547  11.118
59037W        W24264  33.911  12.582  13.879
59038W        W24265   3.052  41.442  14.940
59039W        W24266  17.848  21.589   0.236
59040W        W24267   8.256   0.246  13.102
59041W        W24268  25.183   5.001  10.761
59042W        W24269  19.624  37.618   5.200
59043W        W24270   3.169  28.227   2.329
59044W        W24271  28.504  30.692  12.928
59045W        W24272   4.284  14.105  13.911
59046W        W24273  13.286  37.829   1.979
59047W        W24274  44.696  37.717   3.914
59048W        W24275  25.154  37.314   1.736
59049W        W24276   8.389  19.520  11.563
59050W        W24277  19.758  17.510   2.770
59051W        W24278  27.049  27.468  14.042
59052W        W24279  26.168  22.141   0.465
59053W        W24280  38.890  39.102   0.709
59054W        W24281  44.514  17.281   1.493
59055W        W24282  17.521  13.776   0.385
59056W        W24283  31.982   3.512  12.794
59057W        W24284  29.018  18.603  10.859
59058W        W24285  16.251   4.816  11.405
59059W        W24286  17.842  35.843  13.367
59060W        W24287  36.593  22.324  14.440
59061W        W24288  18.370  33.014   0.940
59062W        W24289  42.322  37.489  10.440
59063W        W24290  37.517  43.197   4.007
59064W        W24291   6.946  25.042  14.361
59065W        W24292   3.765  36.883  10.984
59066W        W24293   7.794   7.699  13.468
59067W        W24294  38.065  10.260  11.784
59068W        W24295  26.016  24.598  12.913
59069W        W24296  29.594  17.354   3.240
59070W        W24297  20.490   7.815   4.677
59071W        W24298  23.410  37.287   4.184
59072W        W24299  18.247  37.498  12.085
59073W        W24300  34.218  39.828  10.855
59074W        W24301  23.155   9.367   4.491
59075W        W24302  23.737  23.725  13.557
59076W        W24303   8.144   3.493  13.127
59077W        W24304  43.152  12.519  11.483
59078W        W24305  29.484   5.794  10.657
59079W        W24306  22.226   2.396  12.646
59080W        W24307   5.451  27.434  12.984
59081W        W24308  11.685  42.332  10.246
59082W        W24309  36.551  38.263   2.346
59083W        W24310  19.256   7.752   3.350
59084W        W24311  10.166  28.039   0.229
59085W        W24312  10.254  34.363   3.622
59086W        W24313   7.673   3.000  12.527
59087W        W24314   0.343  22.446  13.689
59088W        W24315  41.384  20.545   1.427
59089W        W24316  33.445  39.776  11.393
59090W        W24317  14.721  36.211  13.494
59091W        W24318  30.412  20.766  14.588
59092W        W24319  30.877  19.296   2.030
59093W        W24320  13.907  42.850   0.110
59094W        W24321  10.182  21.981   0.766
59095W        W24322  14.881   1.261   0.521
59096W        W24323   0.802  17.413   0.869
59097W        W24324   7.770  17.811  10.842
59098W        W24325  43.830  17.198  13.519
59099W        W24326  17.334  24.225  13.444
59100W        W24327   2.793  36.162  11.682
59101W        W24328   7.249  36.097   4.284
59102W        W24329  38.004  36.038   3.609
59103W        W24330  41.829  28.181  13.070
59104W        W24331  25.289  27.005   3.285
59105W        W24332  17.760  27.339   3.681
59106W        W24333  10.004  24.984  13.494
59107W        W24334  33.979  37.874   0.836
59108W        W24335   1.797   3.330  14.352
59109W        W24336  37.553  18.581   4.699
59110W        W24337  39.061  40.997   1.303
59111W        W24338  39.655  11.923  12.366
59112W        W24339  13.801  36.687   3.765
59113W        W24340  34.621  32.084  11.207
59114W        W24341  40.286  21.949   0.675
59115W        W24342  42.065   4.658   3.451
59116W        W24343   8.318  38.569  12.466
59117W        W24344  19.068  19.140   1.344
59118W        W24345   1.815  25.445  14.897
59119W        W24346  13.920  44.427  13.135
59120W        W24347  10.152  42.562   3.673
59121W        W24348  42.825  33.651  12.621
59122W        W24349   6.823   3.073  14.155
59123W        W24350  35.388  30.433  12.592
59124W        W24351  40.269  31.849   3.265
59125W        W24352  30.546  39.982  12.151
59126W        W24353  25.642   7.116  12.192
59127W        W24354  31.045   7.358   1.312
59128W        W24355  28.231  33.298  10.360
59129W        W24356  43.536  31.551  12.053
59130W        W24357  25.582  43.426   2.778
59131W        W24358  12.316  24.188  13.879
59132W        W24359  19.890   5.123   5.073
59133W        W24360  19.130  30.212  12.205
59134W        W24361  40.928  39.095  12.389
59135W        W24362   6.124  28.052   2.749
59136W        W24363   2.175  10.244   0.764
59137W        W24364  32.927  22.886   4.491
59138W        W24365  26.123  38.583   4.773
59139W        W24366  35.527   8.985   3.048
59140W        W24367  44.861  18.195   0.251
59141W        W24368  25.701   5.253  13.382
59142W        W24369   8.809   5.027   0.307
59143W        W24370  34.949  42.260   2.387
59144W        W24371  23.759  28.696   0.808
59145W        W24372   6.375   8.954  14.823
59146W        W24373  28.034  14.197  12.077
59147W        W24374  28.468  14.269  12.996
59148W        W24375   9.731  11.417  11.568
59149W        W24376   1.518  14.470  14.262
59150W        W24377  24.846  40.671  13.466
59151W        W24378   9.698  30.469   3.241
59152W        W24379   1.483  15.769  12.530
59153W        W24380   4.387  26.890   4.915
59154W        W24381  13.584  27.446  11.291
59155W        W24382  12.696   5.441  13.339
59156W        W24383  41.793  23.945   0.598
59157W        W24384  28.967  43.160  11.968
59158W        W24385  29.430  30.180   3.267
59159W        W24386  30.720  41.993   2.435
59160W        W24387  28.524  20.593   0.985
59161W        W24388  27.907   7.504  12.214
59162W        W24389   8.232  28.941  13.206
59163W        W24390  11.663  44.944  13.775
59164W        W24391  37.834  11.587   4.105
59165W        W24392  14.280  11.698  11.648
59166W        W24393   6.644  33.634   0.408
59167W        W24394  41.756  17.145  11.377
59168W        W24395  20.268  22.724  12.686
59169W        W24396   1.919  34.924  10.509
59170W        W24397  16.260  29.230   2.326
59171W        W24398   6.133   6.638  14.943
59172W        W24399  22.552  14.345  12.873
59173W        W24400  40.502  29.565   3.771
59174W        W24401  28.070  41.229   1.923
59175W        W24402  13.597  13.591  11.287
59176W        W24403  31.956  15.610  10.029
59177W        W24404  28.886  14.267  11.691
59178W        W24405  44.473   9.826   3.271
59179W        W24406  22.169  10.762   1.816
59180W        W24407  33.679  22.573   4.158
59181W        W24408  20.546  23.946   2.288
59182W        W24409  41.284  42.711   4.580
59183W        W24410  17.217   5.407  13.993
59184W        W24411  13.825  28.073  14.436
59185W        W24412  21.069   8.907   1.287
59186W        W24413   2.767  36.428  11.251
59187W        W24414   7.218  40.050  13.909
59188W        W24415   3.607  11.613   0.417
59189W        W24416  43.339  23.308   2.215
59190W        W24417   5.994  18.742   2.608
59191W        W24418  30.886  40.202   1.573
59192W        W24419   5.418   6.459  13.725
59193W        W24420  22.549  14.395   0.326
59194W        W24421  41.271  30.027   3.905
59195W        W24422  13.811  22.720  13.661
59196W        W24423  30.956  10.915  14.039
59197W        W24424  41.880  33.448   4.639
59198W        W24425  35.458  38.758   2.718
59199W        W24426  11.721  19.931  13.475
59200W        W24427  31.830   9.280   4.925
59201W        W24428  22.642  19.809   5.062
59202W        W24429  23.411  29.513   3.187
59203W        W24430  18.012  15.892   2.843
59204W        W24431   1.172  31.402  12.972
59205W        W24432  10.305  18.740  14.434
59206W        W24433  13.933  35.288   1.022
59207W        W24434   9.360  37.916   3.394
59208W        W24435  28.651  21.706  13.077
59209W        W24436  39.581  22.826  11.741
59210W        W24437  24.495  41.901  10.771
59211W        W24438   3.979  19.245   2.317
59212W        W24439  36.334  10.103  13.055
59213W        W24440  26.519  41.114   0.328
59214W        W24441  37.275  37.316   4.206
59215W        W24442   4.491  17.452   3.948
59216W        W24443  22.996  17.789   0.542
59217W        W24444  17.437   1.412   4.682
59218W        W24445  10.184  14.621   0.719
59219W        W24446  28.435  34.511  13.841
59220W        W24447  37.298  36.511  12.376
59221W        W24448  17.797  32.825  13.089
59222W        W24449  25.946  33.577   3.260
59223W        W24450  14.942  15.127  14.293
59224W        W24451   3.839  29.028   4.491
59225W        W24452  26.069  27.623  10.735
59226W        W24453   0.924  32.412   3.771
59227W        W24454  41.110   4.412  14.506
59228W        W24455  29.056  37.074   2.313
59229W        W24456  31.550  39.829   0.396
59230W        W24457  26.636  35.556  14.817
59231W        W24458  25.131   9.193   3.338
59232W        W24459  13.190  27.745  14.419
59233W        W24460  14.817  11.991  12.544
59234W        W24461  43.928  15.789   3.701
59235W        W24462  25.243   6.005  12.342
59236W        W24463  22.667  14.942  13.515
59237W        W24464  19.780  12.254   3.901
59238W        W24465  10.373   1.190  12.048
59239W        W24466  34.557  11.443   3.065
59240W        W24467   1.758  41.062  13.947
59241W        W24468  29.126   1.948  12.150
59242W        W24469   0.929  41.491   2.383
59243W        W24470   5.432  32.332   0.725
59244W        W24471  25.591  13.388   2.242
59245W        W24472   3.058  20.961   4.137
59246W        W24473   6.856  34.485   0.281
59247W        W24474  11.181  36.352   2.192
59248W        W24475  35.440  39.027  10.857
59249W        W24476  27.400   2.207  12.333
59250W        W24477   8.193  23.481   3.410
59251W        W24478   1.526  19.175  10.688
59252W        W24479  40.561  39.457   2.481
59253W        W24480  38.387   3.672   2.776
59254W        W24481  39.801  21.936   2.766
59255W        W24482  16.062  44.536   3.578
59256W        W24483  42.647  43.303   1.410
59257W        W24484   3.332  10.500  13.025
59258W        W24485   7.303  44.148  11.345
59259W        W24486  37.988  28.952  13.398
59260W        W24487  26.881   4.488   1.763
59261W        W24488  19.647  41.773  12.568
59262W        W24489  23.158   6.647   9.679
59263W        W24490  23.944  14.635  14.307
59264W        W24491  33.032  10.436   2.211
59265W        W24492  18.757   6.303   3.649
59266W        W24493  38.535  19.571   5.082
59267W        W24494  19.934  18.786   1.373
59268W        W24495  35.289  19.496  10.557
59269W        W24496   0.489  28.528  13.604
59270W        W24497  20.275   2.718   4.656
59271W        W24498  44.732   8.750   0.190
59272W        W24499  17.529  22.446  11.999
59273W        W24500  38.252  13.269  10.598
59274W        W24501  37.405  18.687   3.138
59275W        W24502  36.027  32.145   4.583
59276W        W24503  35.841  25.303  11.167
59277W        W24504   4.487  22.142  14.417
59278W        W24505   6.720  21.842  14.294
59279W        W24506  34.383  32.144   2.362
59280W        W24507  40.939   3.420   4.664
59281W        W24508  21.297   9.866   3.705
59282W        W24509  43.532  33.956   4.243
59283W        W24510  21.734   5.451  12.056
59284W        W24511  41.074  11.854  13.819
59285W        W24512  20.821   3.244  13.194
59286W        W24513  44.809  44.992  12.950
59287W        W24514  15.469  36.332   4.341
59288W        W24515  13.139  39.489   4.682
59289W        W24516  22.995  35.688  13.894
59290W        W24517  28.995  11.732   3.591
59291W        W24518  14.221   5.474   3.648
59292W        W24519   2.928  26.465  10.290
59293W        W24520  30.200  30.665   3.684
59294W        W24521  36.255  19.246   2.335
59295W        W24522  20.626  31.617   0.463
59296W        W24523  17.286  37.398  10.752
59297W        W24524   5.412  25.518   1.439
59298W        W24525  21.745   7.716  14.872
59299W        W24526  21.491   8.773  14.769
59300W        W24527  19.192  40.998   4.578
59301W        W24528  41.393  42.653   0.407
59302W        W24529   4.925   2.433   4.225
59303W        W24530   6.265  25.453  14.043
59304W        W24531  22.246  33.080   3.743
59305W        W24532  14.199   7.702  11.832
59306W        W24533   7.458  26.455  10.584
59307W        W24534   8.324  34.192   0.314
59308W        W24535  31.040   8.763   0.253
59309W        W24536   2.699  29.642  11.609
59310W        W24537  16.148  40.470   2.397
59311W        W24538  42.003  26.356  13.450
59312W        W24539  41.386   4.906   2.342
59313W        W24540  26.792  33.306   9.941
59314W        W24541  11.244  35.593  14.916
59315W        W24542  14.264  39.312  12.027
59316W        W24543  42.095  42.497  12.327
59317W        W24544  30.636  25.203   5.004
59318W        W24545  37.894  37.590  10.926
59319W        W24546  13.271   6.394  10.878
59320W        W24547  43.995  18.008   2.266
59321W        W24548  11.849   9.323   0.349
59322W        W24549  29.208  20.401  12.099
59323W        W24550  39.489  12.421  14.537
59324W        W24551  16.276  32.632  10.697
59325W        W24552  25.369  34.523  10.357
59326W        W24553  33.575  35.076  11.048
59327W        W24554   7.265  28.007   3.401
59328W        W24555   4.445  43.680  12.508
59329W        W24556  12.656  44.658   0.651
59330W        W24557  28.399  22.447  12.503
59331W        W24558  29.571  27.054   3.307
59332W        W24559  38.571  19.240   3.945
59333W        W24560   8.688  22.512   4.096
59334W        W24561   7.575  25.381   4.202
59335W        W24562   5.273  38.823   4.925
59336W        W24563   9.785   5.842   4.135
59337W        W24564   0.743  11.650   3.670
59338W        W24565  18.749  40.936   2.371
59339W        W24566  31.194   3.234  12.373
59340W        W24567   2.718  28.984  12.381
59341W        W24568   2.499  20.077  12.998
59342W        W24569  15.677  10.592  13.883
59343W        W24570  25.005  34.796   0.495
59344W        W24571  28.768  42.146   1.209
59345W        W24572  39.776  40.207  11.193
59346W        W24573  14.366  34.220   3.981
59347W        W24574  19.267  13.626   0.988
59348W        W24575  15.265  34.480   1.992
59349W        W24576   3.378  29.469   3.246
59350W        W24577  21.566  17.145  11.550
59351W        W24578  41.290  41.725  11.967
59352W        W24579  33.080  11.016   3.554
59353W        W24580  13.508  27.317  13.449
59354W        W24581   3.251   1.582   1.610
59355W        W24582  28.867  19.600  12.870
59356W        W24583  32.894  16.631  14.777
59357W        W24584  25.635  33.314   4.623
59358W        W24585  41.241  34.503  10.749
59359W        W24586  16.497   1.181   2.355
59360W        W24587  16.258  15.144  13.948
59361W        W24588  19.787   4.657   2.213
59362W        W24589  12.690  40.816   0.488
59363W        W24590  40.103  14.555   3.812
59364W        W24591  14.149  13.150   5.041
59365W        W24592  15.210  27.231   3.527
59366W        W24593  31.620  38.910  12.126
59367W        W24594  25.289  11.214   1.914
59368W        W24595  36.989  14.942   4.003
59369W        W24596  23.502  35.466   0.177
59370W        W24597  16.224  10.296   0.326
59371W        W24598  43.917  40.602   3.332
59372W        W24599  27.812   6.827   1.141
59373W        W24600  37.989  21.142   4.410
59374W        W24601  24.762  40.819  11.614
59375W        W24602   4.336   6.078  10.414
59376W        W24603  13.986  18.357  14.828
59377W        W24604   3.954   6.490   0.904
59378W        W24605  39.384  19.714  11.999
59379W        W24606   7.089   8.299   4.102
59380W        W24607  21.241   0.695   9.826
59381W        W24608  25.125  39.009   1.958
59382W        W24609   4.883  16.121  11.755
59383W        W24610  26.647   0.060   0.468
59384W        W24611  36.496  23.826  11.525
59385W        W24612  31.870  13.134  13.705
59386W        W24613  27.717  38.906  11.054
59387W        W24614  43.343  37.336   0.515
59388W        W24615   2.684  32.890   3.277
59389W        W24616  35.150  17.792   4.106
59390W        W24617  29.532   5.723  14.303
59391W        W24618  16.251  42.509  14.817
59392W        W24619  22.003  11.039  12.116
59393W        W24620  18.242  27.748  11.147
59394W        W24621  36.717   6.646  11.163
59395W        W24622  25.054  41.555   3.766
59396W        W24623   6.010  36.330   4.170
59397W        W24624   3.454   6.826   3.395
59398W        W24625  38.940  23.345  13.046
59399W        W24626  13.303   9.371  11.085
59400W        W24627  36.318   5.926  13.810
59401W        W24628  13.628  19.194   0.173
59402W        W24629  11.861  36.836  11.164
59403W        W24630  17.725  25.857  12.686
59404W        W24631  21.181  40.941  11.529
59405W        W24632  18.191   9.117  13.874
59406W        W24633  34.175  22.728   4.156
59407W        W24634  18.756  37.292   0.384
59408W        W24635  31.361  21.342  11.685
59409W        W24636  25.913  36.823   3.103
59410W        W24637  39.075  27.430  10.744
59411W        W24638   9.552  19.789  14.552
59412W        W24639  24.407  14.260  11.907
59413W        W24640  29.931  32.783  13.767
59414W        W24641  23.859  23.560   4.441
59415W        W24642   2.497  22.533  10.153
59416W        W24643  16.693   4.646   2.547
59417W        W24644   5.589  23.540  11.676
59418W        W24645  34.930  43.918   4.094
59419W        W24646  11.107  18.763   0.764
59420W        W24647  40.474   7.881  14.438
59421W        W24648   9.402   2.785   1.936
59422W        W24649  11.188  10.056  13.337
59423W        W24650  12.832  14.288  10.398
59424W        W24651  40.086  11.132  13.414
59425W        W24652  43.654  38.875  12.916
59426W        W24653  43.921  14.719  11.502
59427W        W24654  13.717  20.990   2.747
59428W        W24655  17.225  34.453  11.269
59429W        W24656   5.794  32.911   2.658
59430W        W24657  14.113  34.983  13.847
59431W        W24658  38.464   9.815   1.146
59432W        W24659  26.362  16.850  14.873
59433W        W24660  26.626   5.937  14.788
59434W        W24661   8.597  28.698  11.188
59435W        W24662  22.204  37.602   1.467
59436W        W24663  34.849  31.454  14.022
59437W        W24664  35.332  34.921  14.051
59438W        W24665  17.129  37.781  13.703
59439W        W24666  22.049   3.183   2.329
59440W        W24667  22.308  26.597  10.795
59441W        W24668  30.582   9.259  11.948
59442W        W24669   7.364  19.859   4.570
59443W        W24670   5.189  19.115   1.446
59444W        W24671  35.072   6.680  12.909
59445W        W24672  29.608  13.275   1.290
59446W        W24673  38.574  42.126  12.923
59447W        W24674   2.859  41.539  10.566
59448W        W24675  34.162  35.576   3.110
59449W        W24676  42.344  41.120   2.513
59450W        W24677  14.224  13.694   3.718
59451W        W24678  23.694   6.200   3.613
59452W        W24679  41.035  22.244   2.760
59453W        W24680  29.838  34.723   2.697
59454W        W24681  36.235  30.984  13.928
59455W        W24682  33.470  35.870   3.636
59456W        W24683  32.244  43.729   2.054
59457W        W24684  38.860   9.209  13.434
59458W        W24685  18.834  13.006  14.433
59459W        W24686   8.723  28.954  10.524
59460W        W24687  20.341  41.643   3.595
59461W        W24688  10.034  25.176   5.303
59462W        W24689   5.445  13.671  10.695
59463W        W24690  15.767  10.918   4.670
59464W        W24691  23.347  28.560   4.765
59465W        W24692  44.289  37.631  14.329
59466W        W24693  36.081  23.617   4.601
59467W        W24694   4.880  11.294  13.739
59468W        W24695   9.949  31.889   3.109
59469W        W24696  25.080  37.439  14.763
59470W        W24697   7.204  32.972  11.676
59471W        W24698  17.235  17.204  13.715
59472W        W24699  27.905   0.222   1.715
59473W        W24700  18.395  11.884   3.429
59474W        W24701   5.435  18.956  14.852
59475W        W24702   3.851  24.710   3.373
59476W        W24703  40.761  42.884   2.931
59477W        W24704  22.223  26.195   0.271
59478W        W24705  10.378  40.259   0.344
59479W        W24706  19.186  23.966   0.532
59480W        W24707   3.540  26.431   4.581
59481W        W24708  34.838   0.031  11.200
59482W        W24709  39.500  10.347  11.141
59483W        W24710  18.859  28.670  11.052
59484W        W24711  14.829  28.205   0.308
59485W        W24712  32.775  22.755   0.538
59486W        W24713  11.725  35.304  12.495
59487W        W24714  25.066  21.409   2.376
59488W        W24715  16.999   5.127   4.613
59489W        W24716  33.575  35.611   1.494
59490W        W24717  39.835  23.688  11.104
59491W        W24718   3.756  23.554  11.534
59492W        W24719  14.465   5.159   1.496
59493W        W24720  29.417  21.481  12.091
59494W        W24721  34.308   1.342  13.400
59495W        W24722  32.657  14.242   1.887
59496W        W24723  32.369  34.176   0.813
59497W        W24724  19.263  20.575   1.379
59498W        W24725  19.022   9.699  12.894
59499W        W24726  44.465  30.845  11.104
59500W        W24727   4.618  38.553  10.999
59501W        W24728   8.742  11.161   4.583
59502W        W24729  24.675  36.694  13.021
59503W        W24730  17.715  32.496   3.414
59504W        W24731  40.871  40.506  14.892
59505W        W24732  15.239   0.059   2.216
59506W        W24733  10.454   8.685   0.039
59507W        W24734  19.750  32.672  13.314
59508W        W24735  31.152  17.187  12.907
59509W        W24736   0.961   2.928  12.513
59510W        W24737  28.894  12.819  14.938
59511W        W24738   2.956  22.137  14.378
59512W        W24739  22.639   8.682  11.691
59513W        W24740  33.737  35.870  11.119
59514W        W24741  17.267   7.238  14.955
59515W        W24742  24.079  28.803   4.336
59516W        W24743   4.310  11.824   2.050
59517W        W24744  26.560  36.040   2.860
59518W        W24745  18.839  10.243  11.996
59519W        W24746   7.127  24.407  11.668
59520W        W24747  11.291  23.977  14.909
59521W        W24748  39.081  19.701   1.421
59522W        W24749  36.138  44.260   3.838
59523W        W24750   5.728  21.765   4.284
59524W        W24751  38.479  42.206   1.154
59525W        W24752  32.076  18.790   5.112
59526W        W24753  28.569  18.136   4.110
59527W        W24754  38.321  22.517  14.478
59528W        W24755  42.876  33.621  14.371
59529W        W24756  36.291   5.180   0.384
59530W        W24757  34.275  35.899  12.953
59531W        W24758  36.834  27.646   4.153
59532W        W24759  10.340  19.761   4.153
59533W        W24760  14.100  10.964   2.413
59534W        W24761   3.445  24.986  11.551
59535W        W24762  30.214  19.104   0.395
59536W        W24763  31.340  20.773   3.445
59537W        W24764  33.604   5.804  11.422
59538W        W24765   4.296  12.568  13.910
59539W        W24766  15.234  35.505   2.296
59540W        W24767  30.032  34.776  13.051
59541W        W24768  22.698  20.051   4.582
59542W        W24769  19.327  38.479  10.623
59543W        W24770  29.591  34.024   0.151
59544W        W24771  28.011   1.150   1.710
59545W        W24772  11.941   3.332  11.978
59546W        W24773  20.029  38.776   0.514
59547W        W24774   5.382  10.748   0.043
59548W        W24775  35.603   4.766   3.392
59549W        W24776  11.623  23.405   3.408
59550W        W24777  22.438  13.049   3.348
59551W        W24778  29.727  35.850   0.859
59552W        W24779  41.064  16.750  10.757
59553W        W24780  17.267   3.438  14.010
59554W        W24781  43.269  26.446  14.446
59555W        W24782  39.408   3.620  12.464
59556W        W24783   2.958  29.520  11.188
59557W        W24784  37.667  14.498   2.814
59558W        W24785   7.384  33.178   2.723
59559W        W24786   5.387  30.530   1.694
59560W        W24787  21.650   4.692  14.294
59561W        W24788  15.062   0.427   3.982
59562W        W24789  15.323  33.364   1.292
59563W        W24790   0.065   1.176  14.816
59564W        W24791  12.347  24.653   3.734
59565W        W24792  24.685   2.677  13.504
59566W        W24793   7.664  27.511   0.845
59567W        W24794   7.861  19.739  11.521
59568W        W24795   7.775  33.405   3.767
59569W        W24796  20.216   3.404  11.547
59570W        W24797   8.394  40.537  13.488
59571W        W24798  17.284  33.332  14.003
59572W        W24799   6.795  11.790  12.812
59573W        W24800  24.817  38.364   4.090
59574W        W24801   2.652   0.863   1.338
59575W        W24802  18.085  36.436   2.737
59576W        W24803  27.603  29.664   0.773
59577W        W24804  40.869  41.619   4.872
59578W        W24805  26.231   4.356  13.969
59579W        W24806  14.710  22.946  10.777
59580W        W24807   7.950  22.395   1.887
59581W        W24808  27.664  44.771  11.547
59582W        W24809  26.599  43.741  13.372
59583W        W24810  43.890  30.841  10.748
59584W        W24811  28.604   9.830   2.192
59585W        W24812  35.540  31.420   3.706
59586W        W24813  15.825  22.280  10.697
59587W        W24814   2.795  35.924  12.147
59588W        W24815  42.486  32.127   4.076
59589W        W24816  17.878   8.150  11.712
59590W        W24817  22.164  16.572   3.619
59591W        W24818  22.425  16.749  10.175
59592W        W24819   4.980  15.846   0.743
59593W        W24820   9.414   7.134   2.893
59594W        W24821  26.973   1.107   3.462
59595W        W24822   9.171  28.502   0.276
59596W        W24823  18.166  35.327   4.176
59597W        W24824   6.256  35.205   0.365
59598W        W24825  16.650   6.326  13.978
59599W        W24826  20.112  31.088   1.882
59600W        W24827  43.321   3.743  13.204
59601W        W24828  19.084  40.814   1.801
59602W        W24829  34.063  30.166   2.823
59603W        W24830  11.566   1.705   0.020
59604W        W24831   6.013  15.233   9.881
59605W        W24832  20.535  39.422  12.051
59606W        W24833  17.375  14.190  10.694
59607W        W24834  31.148   8.423   2.408
59608W        W24835  31.306  36.898  14.830
59609W        W24836   2.328  33.037   0.511
59610W        W24837  34.074  23.283  12.057
59611W        W24838  23.244   7.277   1.358
59612W        W24839  43.427   3.107   3.939
59613W        W24840   2.999  11.151  12.364
59614W        W24841  15.292  20.564  12.993
59615W        W24842  43.357   9.535  12.580
59616W        W24843  23.787  21.159   3.840
59617W        W24844   7.408  25.732  14.786
59618W        W24845   7.753  15.515   1.661
59619W        W24846  27.290  41.481  12.753
59620W        W24847  25.603  15.090  11.178
59621W        W24848  32.622  37.096  14.297
59622W        W24849  14.469  23.040   0.820
59623W        W24850  28.600   5.782   2.978
59624W        W24851  25.168   0.058  12.239
59625W        W24852  29.667  33.276   4.144
59626W        W24853  17.179  13.173  11.550
59627W        W24854  39.184  30.212  11.158
59628W        W24855  18.714  25.053   2.888
59629W        W24856  25.453   5.201   4.075
59630W        W24857   5.202   1.886  14.882
59631W        W24858  19.148   6.628   0.535
59632W        W24859  33.497  36.653  13.990
59633W        W24860  26.917  22.498  10.809
59634W        W24861  17.661  17.063  14.399
59635W        W24862  30.262   7.545   2.601
59636W        W24863   1.412  25.081   0.750
59637W        W24864  44.841  33.107   2.672
59638W        W24865  35.977   7.930   4.641
59639W        W24866  44.637  33.592   1.714
59640W        W24867  24.216  27.620  13.945
59641W        W24868  12.812  20.294  11.555
59642W        W24869  19.565   6.142  14.921
59643W        W24870  21.271   3.991  12.135
59644W        W24871  33.507   9.609  13.816
59645W        W24872  28.744  35.339   4.118
59646W        W24873  27.890  37.375  11.112
59647W        W24874  40.203  25.622   4.043
59648W        W24875   4.649   9.224  11.675
59649W        W24876   9.853  11.126   4.644
59650W        W24877  11.038  26.279  12.992
59651W        W24878  34.514  32.818  11.555
59652W        W24879  38.941  12.835  13.877
59653W        W24880   7.261  33.951  13.233
59654W        W24881   6.257  35.514  12.639
59655W        W24882  28.669  12.908  11.957
59656W        W24883  16.685  20.895  11.353
59657W        W24884  16.115   3.897  10.494
59658W        W24885  41.751  26.639  14.451
59659W        W24886   4.910  14.166  14.339
59660W        W24887  36.558  35.743  11.184
59661W        W24888  43.690  37.783  11.600
59662W        W24889  38.718  15.410  11.150
59663W        W24890  12.332  11.353  14.628
59664W        W24891  44.643  23.788  11.690
59665W        W24892   3.870  24.646  14.564
59666W        W24893  18.225  26.880   0.761
59667W        W24894  39.531   3.395   2.610
59668W        W24895  42.991  32.275   0.010
59669W        W24896  12.217  11.627   2.588
59670W        W24897  34.963   6.377  14.824
59671W        W24898   9.426  21.513  12.440
59672W        W24899  17.108  13.640   2.229
59673W        W24900  31.608  15.236  14.398
59674W        W24901  30.720  30.883  13.941
59675W        W24902  23.121  22.139   0.568
59676W        W24903  32.290  43.301  14.889
59677W        W24904  36.664  22.091   1.166
59678W        W24905  33.907  21.622  12.432
59679W        W24906   0.287  17.233   4.191
59680W        W24907  30.314   3.219   2.266
59681W        W24908  15.149  10.901  12.972
59682W        W24909  38.024  40.865   1.398
59683W        W24910  36.986   8.891   4.235
59684W        W24911  38.058  20.620  13.254
59685W        W24912  37.594  32.531  11.407
59686W        W24913  19.832   2.832   3.791
59687W        W24914   7.144   6.900   3.298
59688W        W24915   5.090   9.606   2.694
59689W        W24916  22.755  40.081  13.418
59690W        W24917  43.462  11.445  10.621
59691W        W24918   6.212  12.852   0.301
59692W        W24919  43.767  17.722  11.251
59693W        W24920  10.632   3.477  10.730
59694W        W24921   9.944  21.790   4.499
59695W        W24922  40.072  35.644   4.450
59696W        W24923   7.759  40.682   5.131
59697W        W24924  23.999  14.194   3.984
59698W        W24925  13.287  11.814  11.526
59699W        W24926  29.925  14.691  10.172
59700W        W24927   6.716  34.508   1.895
59701W        W24928  24.198   5.180   3.647
59702W        W24929  26.518   4.935   4.572
59703W        W24930   0.970  36.387   1.374
59704W        W24931  39.358  10.926  14.259
59705W        W24932   9.338  24.183  14.850
59706W        W24933   6.716  35.649   0.512
59707W        W24934  18.041   8.329  10.868
59708W        W24935  33.957  12.635  11.219
59709W        W24936  14.219  17.776  13.073
59710W        W24937  28.105  12.576  11.963
59711W        W24938   7.532  27.012   3.276
59712W        W24939  17.679   4.782   2.777
59713W        W24940   1.029  22.766   2.336
59714W        W24941   9.067  35.503  10.320
59715W        W24942   6.165   9.352   4.695
59716W        W24943   1.358  34.565  12.986
59717W        W24944   1.267  24.110   4.193
59718W        W24945  20.025  41.547   2.137
59719W        W24946  10.092  26.553   4.676
59720W        W24947   9.163  18.624  14.843
59721W        W24948  14.094  16.812  10.775
59722W        W24949  23.987  19.566  11.047
59723W        W24950  14.573  14.392  14.985
59724W        W24951  38.432   0.037   4.617
59725W        W24952  33.884  28.316  10.214
59726W        W24953   4.251  18.386  11.207
59727W        W24954  44.587  20.988   2.239
59728W        W24955  30.996  19.628  12.509
59729W        W24956  32.567  42.189  12.951
59730W        W24957   4.611  13.351  12.542
59731W        W24958  40.306  23.697   1.332
59732W        W24959  31.621  34.881   2.876
59733W        W24960  26.453  10.551  13.467
59734W        W24961  19.864  12.224  13.641
59735W        W24962  20.967   8.720  14.927
59736W        W24963   7.411   6.080  13.031
59737W        W24964   0.353  29.160  14.794
59738W        W24965   9.715  36.703   3.253
59739W        W24966   5.486  15.741   4.991
59740W        W24967   1.434  32.585  12.495
59741W        W24968  42.167  29.383   4.959
59742W        W24969  14.050  24.339   1.903
59743W        W24970   2.820  26.497  14.324
59744W        W24971  20.658  12.167   4.687
59745W        W24972  30.966  12.717  14.124
59746W        W24973  10.791  42.333   1.634
59747W        W24974  39.003  40.298  13.015
59748W        W24975  26.697  25.487   0.385
59749W        W24976   5.889   8.659   3.789
59750W        W24977  19.635  11.340   2.395
59751W        W24978  19.207  18.248  11.895
59752W        W24979  12.289  16.096  11.544
59753W        W24980  30.500   3.304   4.022
59754W        W24981   5.717  44.327  14.250
59755W        W24982  12.289  15.337   3.658
59756W        W24983  31.255   6.195  10.744
59757W        W24984  41.714  41.087   0.316
59758W        W24985  25.929   7.392   4.155
59759W        W24986  15.815  36.396   2.983
59760W        W24987  31.063  31.199  10.562
59761W        W24988   5.288  25.643  12.160
59762W        W24989  37.359  23.796  12.417
59763W        W24990  27.084  17.616  14.964
59764W        W24991  42.476  14.616   2.262
59765W        W24992   5.633  15.050   3.836
59766W        W24993  32.878  42.997  14.535
59767W        W24994  18.996  43.726  11.557
59768W        W24995  31.544  22.718  14.970
59769W        W24996  17.013  22.442   2.259
59770W        W24997  14.194  43.354  11.196
59771W        W24998  44.377  23.454   4.085
59772W        W24999  21.246  39.430  13.165
59773W        W25000   8.622   4.297   1.720
59774W        W25001   5.225  16.930  10.805
59775W        W25002  20.697  34.331  10.603
59776W        W25003  12.257  15.492   2.310
59777W        W25004  15.574   5.723   1.011
59778W        W25005  21.587  22.408  13.610
59779W        W25006  31.196  20.220  12.697
59780W        W25007  13.275   5.390  14.693
59781W        W25008   8.436  41.522   2.771
59782W        W25009  21.195  43.152  12.226
59783W        W25010  11.257  12.783   3.093
59784W        W25011   4.531  36.008   1.737
59785W        W25012  34.572  16.707   3.009
59786W        W25013  11.265  39.743  11.023
59787W        W25014  30.981   2.800  12.183
59788W        W25015  20.547  43.119   1.233
59789W        W25016  25.364  15.758  13.889
59790W        W25017  36.864  28.087  11.661
59791W        W25018  20.522   6.483  11.120
59792W        W25019  29.866  16.017   0.011
59793W        W25020  38.682  44.778   1.191
59794W        W25021  14.043  35.431  13.565
59795W        W25022  42.506   4.442   4.580
59796W        W25023  33.158  44.490   0.324
59797W        W25024  34.853  32.571  10.772
59798W        W25025   6.520   4.154   3.351
59799W        W25026   6.870  41.818  11.113
59800W        W25027  40.244   5.885   0.451
59801W        W25028  22.107  20.551   4.531
59802W        W25029  33.802  19.007   4.726
59803W        W25030  22.467   7.813   1.911
59804W        W25031   6.873   9.150  13.445
59805W        W25032  33.279  29.976   1.429
59806W        W25033  16.612  11.905  14.533
59807W        W25034  28.956  23.244  12.933
59808W        W25035  21.532   6.474   3.693
59809W        W25036  34.436  20.285   4.777
59810W        W25037  38.488   5.257  14.119
59811W        W25038   4.836  17.097  14.240
59812W        W25039   3.872  33.853   1.624
59813W        W25040  15.013  25.535  13.310
59814W        W25041  33.951  13.353   1.801
59815W        W25042  27.479  27.428  11.245
59816W        W25043  19.695  25.959  14.975
59817W        W25044  40.348  10.324   0.391
59818W        W25045  26.854  25.459   2.625
59819W        W25046  44.551  36.898  13.461
59820W        W25047   3.668  10.778  11.260
59821W        W25048  28.518  13.366   3.683
59822W        W25049   5.322  28.421   2.468
59823W        W25050  43.153   1.936   2.409
59824W        W25051  40.435  33.613   3.743
59825W        W25052  39.615  20.041   4.056
59826W        W25053  36.161  15.622   1.389
59827W        W25054  28.927  12.865  11.527
59828W        W25055  38.639   3.983   0.335
59829W        W25056  26.570   7.856  13.918
59830W        W25057  44.725  26.735   1.733
59831W        W25058  37.816  22.862  13.906
59832W        W25059  34.662  18.593   4.334
59833W        W25060  37.903  16.523   0.325
59834W        W25061  24.564  44.846  12.977
59835W        W25062  33.024   4.275  14.978
59836W        W25063  43.874  36.459   1.602
59837W        W25064   0.043  43.329  14.903
59838W        W25065  38.875  36.242  13.887
59839W        W25066  27.425  16.996  14.077
59840W        W25067   2.769  30.198   5.071
59841W        W25068   7.556   2.759  10.432
59842W        W25069   7.214  14.331  11.651
59843W        W25070  13.937  39.453   4.546
59844W        W25071  29.883   8.041  14.041
59845W        W25072  39.813   2.417   2.115
59846W        W25073  11.794  41.408  11.768
59847W        W25074  42.926  39.009   3.095
59848W        W25075  16.900  19.771   4.399
59849W        W25076  20.414  35.398   0.894
59850W        W25077   4.921  34.111  14.252
59851W        W25078  17.800  14.697   1.910
59852W        W25079  17.985  25.372   2.263
59853W        W25080   1.559  14.155  12.504
59854W        W25081   9.820  32.424  12.564
59855W        W25082  42.801  39.157  14.965
59856W        W25083  22.699   8.172   3.362
59857W        W25084   2.264  23.311  12.708
59858W        W25085  22.985  16.349   2.376
59859W        W25086  15.651  41.309   3.677
59860W        W25087  34.250  38.107   4.395
59861W        W25088  26.915   9.271  11.236
59862W        W25089  15.029  37.883   4.276
59863W        W25090  41.681  42.556  13.126
59864W        W25091  13.704  20.588   4.391
59865W        W25092  13.495  37.699   3.600
59866W        W25093   5.381   5.977  12.103
59867W        W25094  41.757  39.934  11.699
59868W        W25095   3.287  17.277   0.986
59869W        W25096  41.108  21.946  12.232
59870W        W25097  38.089  44.838   4.263
59871W        W25098   4.313  36.004  11.996
59872W        W25099  24.674  35.618  14.802
59873W        W25100   4.363   9.064  11.116
59874W        W25101  41.085   4.934   2.820
59875W        W25102  18.730  28.642  14.831
59876W        W25103  21.159  29.002   2.739
59877W        W25104  33.504  12.421   2.743
59878W        W25105  13.094  10.828   0.717
59879W        W25106  42.871  10.387  14.360
59880W        W25107  16.485  26.926  14.247
59881W        W25108  36.331   4.841   0.819
59882W        W25109  41.017  25.132   3.593
59883W        W25110   6.596  32.394   1.497
59884W        W25111   2.883  11.256   2.838
59885W        W25112  31.180  36.608   2.156
59886W        W25113  16.165   2.892   0.745
59887W        W25114   1.888   7.691  10.425
59888W        W25115  20.352   5.981  14.465
59889W        W25116  37.392  15.740  14.730
59890W        W25117   4.408   2.996   5.018
59891W        W25118   2.651   7.804  11.150
59892W        W25119  40.006   9.412  11.633
59893W        W25120  44.471  18.703  11.690
59894W        W25121  31.422   9.583  14.389
59895W        W25122  30.826  35.030   0.884
59896W        W25123  31.875  29.455  11.764
59897W        W25124   6.267  36.735   2.093
59898W        W25125  26.602   4.672  13.799
59899W        W25126   7.533  31.975   0.425
59900W        W25127  23.526  20.749   0.152
59901W        W25128  26.942   0.941  12.247
59902W        W25129  30.887   1.980  11.588
59903W        W25130  42.736  15.043   1.490
59904W        W25131  11.221   2.118   0.460
59905W        W25132   2.396  41.768  14.385
59906W        W25133   7.004  36.456  11.654
59907W        W25134  34.896  20.186  11.154
59908W        W25135  30.308  37.065   2.634
59909W        W25136   4.022   8.057   3.352
59910W        W25137  27.712  33.117  14.292
59911W        W25138  38.737  29.753  13.362
59912W        W25139  29.513   1.038  11.125
59913W        W25140  39.819  44.971  14.534
59914W        W25141  15.795  40.942   1.751
59915W        W25142  33.420  29.513   1.626
59916W        W25143  28.932   2.655  10.717
59917W        W25144  30.916  21.200   2.083
59918W        W25145  44.695  21.650  12.119
59919W        W25146  28.138  13.814   2.591
59920W        W25147   6.543  11.077   3.425
59921W        W25148  19.565  39.673   3.186
59922W        W25149  33.404  21.718  14.895
59923W        W25150   7.789  19.692   2.480
59924W        W25151  20.613   1.504   1.726
59925W        W25152  14.804  33.362   4.975
59926W        W25153  12.554   1.236  13.439
59927W        W25154  34.246  24.940  11.791
59928W        W25155  42.263   6.191   4.964
59929W        W25156  24.876  44.829  11.069
59930W        W25157   6.380  25.054  11.538
59931W        W25158   7.283  26.656   0.899
59932W        W25159  34.555   6.795  10.729
59933W        W25160  29.922   0.232   4.255
59934W        W25161  19.500   9.239  10.708
59935W        W25162  43.661   4.421   1.221
59936W        W25163  40.116  38.921   4.118
59937W        W25164  38.918  31.960   2.605
59938W        W25165  15.253  31.061   1.442
59939W        W25166  44.296  38.991  12.128
59940W        W25167  35.751  31.033   0.755
59941W        W25168  10.261  23.291  12.601
59942W        W25169  13.638  34.486   2.113
59943W        W25170   0.359   2.884  14.996
59944W        W25171   8.094  18.673   3.297
59945W        W25172  25.161  20.138  13.667
59946W        W25173  24.132  41.575  12.263
59947W        W25174   0.990  21.231  11.109
59948W        W25175  27.449  26.871   1.930
59949W        W25176  39.565  21.067   2.828
59950W        W25177  31.918  39.277   1.165
59951W        W25178  43.011   1.671   0.268
59952W        W25179  15.539   9.325  11.662
59953W        W25180  17.113  28.958   0.696
59954W        W25181   4.446  21.232   3.175
59955W        W25182  40.633  33.608  11.484
59956W        W25183  21.331  38.326  13.360
59957W        W25184   3.936  37.470  11.182
59958W        W25185   6.585  43.955   0.208
59959W        W25186  21.120  11.389   4.772
59960W        W25187   4.276  21.058   3.641
59961W        W25188   3.257   3.837   0.304
59962W        W25189  31.822  20.899   3.635
59963W        W25190  31.972  29.565   3.594
59964W        W25191  43.120   4.474  12.747
59965W        W25192   7.579  22.124   0.431
59966W        W25193  23.588  15.687   4.378
59967W        W25194  13.100  19.285  11.957
59968W        W25195  32.101  20.113   0.903
59969W        W25196   3.744   0.322  11.621
59970W        W25197  43.467  24.720  14.871
59971W        W25198  23.258  28.583   0.817
59972W        W25199  37.607  25.105  11.095
59973W        W25200  12.581  25.080  14.524
59974W        W25201  32.640  21.085  12.485
59975W        W25202   2.411  13.862  14.531
59976W        W25203   9.753  12.395   3.655
59977W        W25204   2.010  35.993  12.909
59978W        W25205  37.620  20.236  11.632
59979W        W25206  38.919  41.208  11.262
59980W        W25207  43.207  38.545   3.712
59981W        W25208  13.099  18.277  14.064
59982W        W25209  38.598  27.380   2.703
59983W        W25210  36.472  22.673  14.082
59984W        W25211  44.150  28.571  11.543
59985W        W25212  19.704  13.921   0.960
59986W        W25213  11.146  18.975   3.122
59987W        W25214  24.813  24.987   4.015
59988W        W25215  10.401  39.569  12.139
59989W        W25216  31.549   6.248  12.097
59990W        W25217  38.535   9.668   1.614
59991W        W25218  12.131  26.271  13.734
59992W        W25219   0.369  31.891   4.454
59993W        W25220  44.466  26.579   2.851
59994W        W25221  18.159  36.558  13.412
59995W        W25222  42.747   7.864   0.710
59996W        W25223  19.673  40.048   1.341
59997W        W25224  13.383  39.563   4.109
59998W        W25225  22.672  32.827   3.563
59999W        W25226  29.453  38.293   0.716
60000W        W25227  44.864  23.229  14.270
60001W        W25228  14.029  26.068  11.711
60002W        W25229  21.872  43.626  13.082
60003W        W25230  20.979   3.683  11.073
60004W        W25231  39.568  10.211   4.248
60005W        W25232  24.051  19.709  13.874
60006W        W25233  33.781  40.863  12.499
60007W        W25234  23.742  12.786  12.952
60008W        W25235   2.857  43.875   1.742
60009W        W25236  33.411  40.266  11.294
60010W        W25237  15.730  25.501   4.657
60011W        W25238  18.300  33.999  13.798
60012W        W25239  35.725  38.565  11.288
60013W        W25240  30.511  18.068   4.635
60014W        W25241   7.267  31.987  10.325
60015W        W25242  34.326  23.011  13.445
60016W        W25243  10.584  30.731  12.916
60017W        W25244  20.322  18.406   1.284
60018W        W25245   8.877   4.520   1.301
60019W        W25246  13.022   4.304   0.445
60020W        W25247  29.453  31.479  13.891
60021W        W25248  36.830  10.135   0.276
60022W        W25249  13.797  19.880  11.598
60023W        W25250   4.531  39.123  12.548
60024W        W25251  19.093  28.837   1.733
60025W        W25252   4.911  33.129  13.985
60026W        W25253  21.642  27.973  13.356
60027W        W25254  13.311  44.315   4.247
60028W        W25255  36.073  12.640   1.973
60029W        W25256  38.796  27.883  11.732
60030W        W25257  36.581   5.508  14.003
60031W        W25258  42.928  35.890  10.460
60032W        W25259  41.799  21.221  14.901
60033W        W25260  20.759  18.370   3.226
60034W        W25261   7.249  23.464  11.378
60035W        W25262  39.054  22.436   0.681
60036W        W25263  39.051   1.984  12.981
60037W        W25264  14.146   4.473  13.005
60038W        W25265  14.769  23.483  10.309
60039W        W25266  40.575  15.416   0.568
60040W        W25267  36.557   8.348  11.494
60041W        W25268  41.861  17.648  10.949
60042W        W25269  44.831  11.305   0.408
60043W        W25270  37.971   8.403  11.641
60044W        W25271  17.334  40.859   1.429
60045W        W25272  31.849   7.716  13.420
60046W        W25273  33.627  27.634   2.293
60047W        W25274  16.831  24.691  11.154
60048W        W25275  37.067  11.407  13.604
60049W        W25276  44.522  27.955  12.619
60050W        W25277   9.807   0.307   0.313
60051W        W25278  14.123  25.011  14.891
60052W        W25279  26.953  23.592   2.951
60053W        W25280  43.525  35.792   0.693
60054W        W25281  23.768   4.863   3.731
60055W        W25282  34.391  30.561  14.445
60056W        W25283  11.347  39.880  14.295
60057W        W25284   2.463   1.329  13.461
60058W        W25285  19.112  31.051  13.593
60059W        W25286  42.636   3.673  11.054
60060W        W25287  27.281  28.792   3.795
60061W        W25288  11.603  26.429   3.327
60062W        W25289   8.401   9.359   2.195
60063W        W25290   6.450  44.231   1.915
60064W        W25291  13.057  23.011  12.556
60065W        W25292   3.300  42.002  12.005
60066W        W25293  26.334  14.274  13.321
60067W        W25294  25.646   1.491   3.520
60068W        W25295  39.660  31.330   0.429
60069W        W25296   8.747  24.627   1.288
60070W        W25297   7.411  12.284   0.236
60071W        W25298  36.879  13.598   1.269
60072W        W25299  26.875  25.851  11.106
60073W        W25300  22.265  43.408  14.833
60074W        W25301  37.821  29.845  11.104
60075W        W25302  25.129  31.434   1.422
60076W        W25303  37.528   6.193   3.071
60077W        W25304  43.342   2.809   2.694
60078W        W25305  28.171  24.145  11.625
60079W        W25306   4.889  43.201  11.992
60080W        W25307  30.971  31.997   1.631
60081W        W25308  14.408  27.976  10.221
60082W        W25309   2.860   8.508  13.060
60083W        W25310  43.033  19.370   0.014
60084W        W25311  20.475   1.994   4.087
60085W        W25312  15.341  13.874   1.905
60086W        W25313   1.034  22.674   5.128
60087W        W25314  23.511  35.608   3.427
60088W        W25315  36.170   0.791  14.322
60089W        W25316  28.748   9.805   2.885
60090W        W25317  38.536   6.030  12.927
60091W        W25318  38.664  20.357  10.651
60092W        W25319   7.311   3.564   0.462
60093W        W25320  22.691  36.910  14.784
60094W        W25321  13.611  11.852  12.197
60095W        W25322  36.548   4.489  12.368
60096W        W25323  20.631  40.693  10.591
60097W        W25324   2.324  32.652   3.600
60098W        W25325  15.189  18.546  11.664
60099W        W25326  20.682  29.565   2.195
60100W        W25327  33.541  29.017  10.604
60101W        W25328  31.898  34.935  11.394
60102W        W25329  43.295  26.432  11.157
60103W        W25330  21.976  33.036  10.601
60104W        W25331  41.022  14.830  14.351
60105W        W25332  23.707   0.842   3.177
60106W        W25333  42.938  33.200   2.598
60107W        W25334   5.914  27.192  12.457
60108W        W25335  36.922  15.368   1.821
60109W        W25336  10.649   5.226  12.006
60110W        W25337  22.124  30.106  11.589
60111W        W25338  26.581   7.865   4.575
60112W        W25339  25.976   3.295  14.796
60113W        W25340  43.554  26.537   4.694
60114W        W25341  22.599  23.056   4.670
60115W        W25342   2.656  33.133  12.959
60116W        W25343   5.694  40.371  10.977
60117W        W25344   8.910  11.101  12.504
60118W        W25345  21.108   1.722   2.363
60119W        W25346  34.098  13.160  11.527
60120W        W25347  10.248  11.633   4.988
60121W        W25348  10.464  41.378   4.507
60122W        W25349  16.624   4.991   2.914
60123W        W25350   7.741   7.628   0.442
60124W        W25351   9.154   4.214   2.265
60125W        W25352  25.122  39.665   3.687
60126W        W25353  24.542  44.432   4.114
60127W        W25354  21.741  19.119  11.078
60128W        W25355   9.190  36.085   1.312
60129W        W25356  32.423  17.270   4.559
60130W        W25357  38.006   7.912  12.147
60131W        W25358  34.867  27.505  11.967
60132W        W25359  13.621  14.671   1.001
60133W        W25360  26.496   5.189   4.128
60134W        W25361  22.570  17.229   2.811
60135W        W25362  17.673  35.991   4.190
60136W        W25363   9.268  37.008  12.528
60137W        W25364  29.565  11.519   1.979
60138W        W25365  19.723  37.312  12.387
60139W        W25366  41.276  29.851  13.524
60140W        W25367  40.816  34.153  13.466
60141W        W25368  16.268  38.499  14.348
60142W        W25369  32.243  21.841  10.029
60143W        W25370  17.830  31.045   0.358
60144W        W25371  12.851   2.697  13.870
60145W        W25372  30.052   2.979  11.696
60146W        W25373  44.488  38.511  12.185
60147W        W25374   3.732  13.570   4.696
60148W        W25375  10.111  20.226   4.214
60149W        W25376   7.321   6.068   4.603
60150W        W25377  34.692  42.843  14.962
60151W        W25378   2.448  13.563   2.923
60152W        W25379  34.423  28.058  13.825
60153W        W25380  32.466  38.490  12.572
60154W        W25381  31.830  10.015   2.200
60155W        W25382  17.245   0.233   1.646
60156W        W25383  31.003  19.251   3.306
60157W        W25384   5.507  21.207   0.857
60158W        W25385  41.433  23.276   3.608
60159W        W25386  32.599  29.255   0.917
60160W        W25387  13.766  30.838   3.221
60161W        W25388  36.546  33.086   4.241
60162W        W25389  22.167  33.326   2.857
60163W        W25390  37.843  40.746  12.064
60164W        W25391  37.656  35.895  12.392
60165W        W25392   2.114  26.337   1.395
60166W        W25393  44.442  18.090  14.861
60167W        W25394  23.280  39.624   4.220
60168W        W25395  37.902  11.423   3.384
60169W        W25396  27.975  25.295   1.984
60170W        W25397  29.104  18.762  12.385
60171W        W25398  35.848   3.813   3.171
60172W        W25399  35.264  12.858  13.691
60173W        W25400   5.639  25.928   1.129
60174W        W25401  38.033   9.951   1.469
60175W        W25402  19.712  31.438   4.525
60176W        W25403  11.624  40.311  13.638
60177W        W25404  19.049  11.783  13.905
60178W        W25405  42.975  24.598   4.420
60179W        W25406  30.646  22.627   4.122
60180W        W25407  29.753   5.699   4.148
60181W        W25408   7.100   2.100  13.711
60182W        W25409   6.220  18.748  11.584
60183W        W25410  19.064  29.224  14.409
60184W        W25411  22.583  18.092  13.283
60185W        W25412  35.404  16.839   0.416
60186W        W25413  41.887  43.105  13.822
60187W        W25414  26.207  31.241   1.881
60188W        W25415  11.643  21.071  11.658
60189W        W25416  20.161  23.477  13.383
60190W        W25417  28.925   4.600   3.226
60191W        W25418  34.381  42.048  11.669
60192W        W25419  44.567   0.997   0.770
60193W        W25420  42.504  34.673  11.221
60194W        W25421  14.912  11.277   2.406
60195W        W25422  38.438  41.490  12.131
60196W        W25423   5.813  26.689   0.264
60197W        W25424  18.317  33.057   0.412
60198W        W25425  17.895  36.054   3.729
60199W        W25426   6.583   2.221   0.208
60200W        W25427  18.379  44.348  14.912
60201W        W25428   9.576  31.940   4.643
60202W        W25429   8.924  11.655   4.633
60203W        W25430   0.986  22.257  11.983
60204W        W25431  30.960  38.088  11.982
60205W        W25432  15.403  20.626   1.694
60206W        W25433  22.558  29.202  12.593
60207W        W25434  18.740  34.411   4.743
60208W        W25435   3.197   4.423  11.160
60209W        W25436   3.791  32.777   4.071
60210W        W25437  14.072  16.015   4.855
60211W        W25438  42.096  42.485   3.825
60212W        W25439  43.266  44.917   3.651
60213W        W25440  21.740  28.780   1.405
60214W        W25441  21.487   2.798  13.591
60215W        W25442  18.799   3.174   1.473
60216W        W25443  13.746   4.444   4.150
60217W        W25444  15.799  15.689   3.161
60218W        W25445  34.165  24.038   3.770
60219W        W25446   5.211  26.539   3.085
60220W        W25447  34.245  34.894  10.587
60221W        W25448  44.965  28.084  13.886
60222W        W25449   6.264  34.927   4.707
60223W        W25450  32.045  16.705  13.077
60224W        W25451  15.453  10.510  14.712
60225W        W25452  25.984  10.245  12.527
60226W        W25453   5.900  37.040  13.976
60227W        W25454  35.918  12.211   0.788
60228W        W25455  33.923  17.476   1.144
60229W        W25456  25.227   8.185  11.294
60230W        W25457   3.260  41.955  13.868
60231W        W25458  23.429  26.916  11.949
60232W        W25459  20.787  27.759   3.431
60233W        W25460   7.473  40.523   3.778
60234W        W25461  11.832   6.555  12.367
60235W        W25462  15.957   8.397   0.318
60236W        W25463   5.948   2.614  13.112
60237W        W25464  33.834  24.272   1.831
60238W        W25465  38.623  31.312  13.780
60239W        W25466  21.700  38.617  11.169
60240W        W25467  36.874  14.450   1.486
60241W        W25468   9.692  16.807   3.257
60242W        W25469   4.350   6.080   0.582
60243W        W25470  39.048   2.873  12.161
60244W        W25471  35.171  18.598   4.248
60245W        W25472  38.873  12.779  12.050
60246W        W25473  23.642  42.936  11.908
60247W        W25474  37.842  17.060   0.365
60248W        W25475  25.122  36.846  12.171
60249W        W25476  34.446  39.046   3.359
60250W        W25477   3.746  29.831   1.806
60251W        W25478  35.208  35.053   4.355
60252W        W25479   0.200  40.440   2.721
60253W        W25480  31.625   8.059   0.300
60254W        W25481  31.595   3.391  14.465
60255W        W25482  11.971  37.316  12.586
60256W        W25483   3.952  29.431   4.091
60257W        W25484  11.583  23.733   3.007
60258W        W25485   7.158  17.914  13.114
60259W        W25486  37.827  44.291  11.612
60260W        W25487  37.143  38.438   4.202
60261W        W25488  31.153   0.000  14.854
60262W        W25489   6.406  12.158  11.746
60263W        W25490  23.095  11.062   3.555
60264W        W25491  44.141  18.049  11.217
60265W        W25492  40.572  32.972  13.303
60266W        W25493  14.240  39.840  11.530
60267W        W25494  20.844   8.367  12.337
60268W        W25495  44.424  15.048   4.886
60269W        W25496   9.089  17.016   0.330
60270W        W25497  42.531  23.086  14.680
60271W        W25498  27.279  20.559  12.638
60272W        W25499   2.191  32.175   0.985
60273W        W25500  14.287  23.535   2.281
60274W        W25501  42.590   8.031  10.998
60275W        W25502  20.055  30.114  14.405
60276W        W25503  41.596  44.896  11.954
60277W        W25504   8.162  37.579   3.583
60278W        W25505  38.021  38.354   2.853
60279W        W25506   9.259  38.906   3.375
60280W        W25507  33.479  43.941  13.613
60281W        W25508   0.633  40.852  11.957
60282W        W25509   0.017  16.557   9.924
60283W        W25510  17.883   8.720   4.543
60284W        W25511  21.392   3.982  11.050
60285W        W25512  31.558  27.644   1.689
60286W        W25513   9.094   0.700   1.010
60287W        W25514  29.773  20.275  10.913
60288W        W25515  37.775  21.650  11.854
60289W        W25516  31.750  37.148   4.467
60290W        W25517  27.602  26.257   4.819
60291W        W25518  12.178  43.980  14.019
60292W        W25519  20.781  22.529  11.659
60293W        W25520   4.977  15.607  11.482
60294W        W25521  42.540  31.610   4.736
60295W        W25522   4.033  19.099   4.574
60296W        W25523  12.361   7.813   2.284
60297W        W25524   4.918  28.463  14.253
60298W        W25525  38.626  27.657  10.640
60299W        W25526  16.169  27.286  11.505
60300W        W25527  16.325  21.065  13.044
60301W        W25528  43.982  21.002  13.708
60302W        W25529  10.977  10.333  10.355
60303W        W25530  21.771  21.082   3.834
60304W        W25531  38.860  23.830   1.819
60305W        W25532   2.727   4.614   3.625
60306W        W25533  22.244   3.539   3.766
60307W        W25534  20.956   3.703   3.248
60308W        W25535   5.818  27.248  13.343
60309W        W25536  28.197  44.067   3.891
60310W        W25537  27.007  34.042   4.866
60311W        W25538  41.861   2.678  12.424
60312W        W25539   7.859  26.010   3.522
60313W        W25540  35.025   4.120   1.159
60314W        W25541  17.950  27.954   3.173
60315W        W25542  15.679  16.242  11.220
60316W        W25543  28.394   2.449   2.656
60317W        W25544  25.583  15.873   0.849
60318W        W25545  17.878  39.792   3.313
60319W        W25546  16.044  37.938  10.981
60320W        W25547  34.424  34.084  11.233
60321W        W25548  11.131   5.639  14.957
60322W        W25549   6.092   5.459   2.374
60323W        W25550  39.868  27.070  13.410
60324W        W25551  37.908  15.598  13.060
60325W        W25552  41.303  37.096   0.399
60326W        W25553   3.823   5.016   1.911
60327W        W25554   2.013  13.944  14.862
60328W        W25555  32.428  19.869  13.347
60329W        W25556  22.537  39.173  12.446
60330W        W25557   4.771  22.073  11.939
60331W        W25558  29.735  20.191  13.898
60332W        W25559  27.008   5.477  12.932
60333W        W25560   3.799  37.026   1.210
60334W        W25561  27.481  27.639   1.225
60335W        W25562  27.085  32.709   0.401
60336W        W25563  15.313  12.342   0.913
60337W        W25564  23.803  38.375   1.514
60338W        W25565  42.532  29.331  13.575
60339W        W25566  25.430  24.169  11.552
60340W        W25567  10.881   2.696   0.798
60341W        W25568  10.843  17.812   4.225
60342W        W25569   7.205  38.973  11.693
60343W        W25570  21.897  24.544  10.518
60344W        W25571   9.768   0.697  12.493
60345W        W25572  24.173  36.362   2.240
60346W        W25573  21.644   9.690   0.837
60347W        W25574  15.576  12.811  14.316
60348W        W25575  34.081  25.190   1.229
60349W        W25576  29.439  31.051   2.454
60350W        W25577  22.094  36.956  10.735
60351W        W25578  30.005  42.265  10.957
60352W        W25579  26.415  33.469   1.338
60353W        W25580  31.358  17.318  13.934
60354W        W25581   8.564  14.163   3.619
60355W        W25582  11.030   4.892   1.387
60356W        W25583  32.117   3.439   1.305
60357W        W25584  25.576  22.530  12.391
60358W        W25585  33.160  28.636  13.825
60359W        W25586  25.762  10.614   2.811
60360W        W25587   0.677   8.222  11.585
60361W        W25588  18.961  30.575  12.931
60362W        W25589  29.563  32.322   5.202
60363W        W25590  20.525   5.013  11.949
60364W        W25591   0.368   3.248   3.246
60365W        W25592  25.221  36.121   0.119
60366W        W25593  17.769  11.837  11.591
60367W        W25594  13.199  38.329   1.920
60368W        W25595  14.603   9.378   2.076
60369W        W25596   7.570  17.084  14.516
60370W        W25597   8.674  38.551   2.342
60371W        W25598  34.718   7.531   0.445
60372W        W25599   2.374  10.530  11.498
60373W        W25600  11.158   7.817  10.853
60374W        W25601   8.013  27.885   0.890
60375W        W25602   1.890  39.759  12.382
60376W        W25603  36.337  20.567   3.082
60377W        W25604   7.116  22.676  12.006
60378W        W25605   7.710  23.050  13.277
60379W        W25606   3.013   9.262  13.580
60380W        W25607  25.800  16.200   1.224
60381W        W25608  18.060   0.383   0.772
60382W        W25609   0.082  40.387   4.531
60383W        W25610   0.965  10.178  13.390
60384W        W25611   7.329  41.822  14.450
60385W        W25612  26.894  15.080  11.220
60386W        W25613  42.078  25.000   3.484
60387W        W25614  11.477  29.613  10.288
60388W        W25615  37.431  33.108   0.401
60389W        W25616  22.109  19.735   0.866
60390W        W25617  13.844  31.915   4.085
60391W        W25618  43.752  26.576  10.104
60392W        W25619  44.849  39.549  13.138
60393W        W25620   7.656  44.977   0.383
60394W        W25621  43.011   2.396   1.708
60395W        W25622  18.297  26.242  11.494
60396W        W25623  42.154   4.246  13.407
60397W        W25624  39.786  34.927   4.152
60398W        W25625   1.129  10.324  14.877
60399W        W25626  14.900  26.168   2.142
60400W        W25627  23.535  26.915   1.247
60401W        W25628  28.919   6.679  10.825
60402W        W25629  17.356   5.169  10.758
60403W        W25630  11.970  20.913   2.997
60404W        W25631  20.715  44.968   2.559
60405W        W25632   6.979  25.040   0.287
60406W        W25633  13.830  39.889   2.822
60407W        W25634  37.399   0.398  13.401
60408W        W25635  39.601  12.818   0.858
60409W        W25636  16.317  11.261  11.226
60410W        W25637   5.835  26.380  10.777
60411W        W25638  39.845   0.355   2.572
60412W        W25639  11.741  35.966  12.528
60413W        W25640  14.095   8.854  10.561
60414W        W25641   0.153  21.308   4.179
60415W        W25642  24.099  25.439   3.871
60416W        W25643  12.333  29.816   0.738
60417W        W25644  19.287  24.172  11.949
60418W        W25645  31.840  34.823  14.808
60419W        W25646   3.400   6.197  11.634
60420W        W25647  35.932  26.513  11.635
60421W        W25648   9.259  11.695  11.558
60422W        W25649   9.104  35.856   0.786
60423W        W25650  25.499   9.144   4.877
60424W        W25651  26.310  42.914   4.999
60425W        W25652  23.535  15.819   3.874
60426W        W25653  12.687  36.837   3.207
60427W        W25654  34.539  29.150   1.790
60428W        W25655  33.799  10.099   4.622
60429W        W25656  39.800  35.577  10.794
60430W        W25657  39.862  38.342  13.923
60431W        W25658  38.143  36.459  14.956
60432W        W25659  22.206  32.471   0.162
60433W        W25660  29.048   8.708  12.456
60434W        W25661  43.404  22.801  13.484
60435W        W25662  36.776  28.642   1.803
60436W        W25663  26.610  39.790   3.662
60437W        W25664   4.518  38.376  14.772
60438W        W25665  33.947  39.834   2.885
60439W        W25666  32.385  10.608   0.612
60440W        W25667   6.180   7.775   2.809
60441W        W25668  15.619   1.947  11.378
60442W        W25669   6.274  44.032  13.325
60443W        W25670  29.096  13.984  10.361
60444W        W25671  42.784  37.339   4.272
60445W        W25672  33.345   8.869  13.211
60446W        W25673  17.502  26.023   1.256
60447W        W25674  11.842   5.100  11.616
60448W        W25675  12.922  35.539  12.897
60449W        W25676  37.997  30.221   4.991
60450W        W25677  26.990  24.157  14.032
60451W        W25678  21.714   6.170  14.825
60452W        W25679   9.897  43.224   0.974
60453W        W25680   5.594  42.899   2.112
60454W        W25681  27.191  44.818   1.365
60455W        W25682  26.028  17.850   2.947
60456W        W25683   2.294   9.933   1.170
60457W        W25684  13.159  38.817   2.777
60458W        W25685  27.967  35.938   0.739
60459W        W25686  13.303   5.826   1.663
60460W        W25687   0.027   0.070   2.652
60461W        W25688  28.092  38.994  10.104
60462W        W25689   5.326  42.928   4.988
60463W        W25690   8.612  19.687  14.986
60464W        W25691  25.144  43.823  11.711
60465W        W25692  24.243  44.118  13.722
60466W        W25693   2.941  33.855   3.590
60467W        W25694  36.601  20.295  14.429
60468W        W25695  31.582  44.914  12.141
60469W        W25696  24.603   0.854  14.026
60470W        W25697  36.836  20.766  11.946
60471W        W25698  17.306  25.675  13.488
60472W        W25699   4.245  26.795  13.926
60473W        W25700  41.786  22.931  13.542
60474W        W25701  11.388  32.652  13.765
60475W        W25702   3.271   5.065   3.130
60476W        W25703  11.625  29.206   4.431
60477W        W25704  27.979  10.559   3.282
60478W        W25705  10.153  22.790  14.395
60479W        W25706  25.046  37.821   2.884
60480W        W25707  26.131   3.429  11.474
60481W        W25708  15.131  23.070  14.053
60482W        W25709  24.954  12.434   1.881
60483W        W25710   9.661  21.502  12.916
60484W        W25711  17.767  40.468  13.767
60485W        W25712  42.705  44.975  12.887
60486W        W25713  19.246   7.672   0.991
60487W        W25714   0.412  35.494  12.807
60488W        W25715  28.131   3.221   3.744
60489W        W25716  12.129  22.614  14.941
60490W        W25717   1.024   7.706   0.372
60491W        W25718  44.791  32.208   1.764
60492W        W25719  31.570  37.335  13.471
60493W        W25720   7.376  41.940   2.757
60494W        W25721   1.545  39.504  14.530
60495W        W25722   5.677  25.938   4.100
60496W        W25723  33.395  17.039  13.404
60497W        W25724  14.577  41.416   2.752
60498W        W25725  26.349  19.856   1.823
60499W        W25726   6.895  34.430  14.761
60500W        W25727  34.112  33.054   0.832
60501W        W25728  16.203  39.711  13.967
60502W        W25729  24.959  37.487   4.235
60503W        W25730   3.721  27.103   3.281
60504W        W25731  33.940  41.721  11.027
60505W        W25732  24.974  39.097  14.924
60506W        W25733  43.525  33.337   1.470
60507W        W25734  40.593  25.680  14.367
60508W        W25735  44.014   5.787   2.257
60509W        W25736   8.887  37.614   4.147
60510W        W25737  31.779  14.608   4.177
60511W        W25738   2.918  15.151  11.975
60512W        W25739   2.119  40.472  10.515
60513W        W25740   5.376  36.366   2.706
60514W        W25741  34.380  40.081  14.573
60515W        W25742  29.868  30.266  14.950
60516W        W25743   2.834   1.064   2.188
60517W        W25744  35.088   8.181  12.803
60518W        W25745  22.150  28.202  11.554
60519W        W25746  18.497  15.302   3.296
60520W        W25747  16.827  17.067   0.872
60521W        W25748   6.115   2.790   0.374
60522W        W25749  33.413  12.514   5.457
60523W        W25750   1.886  38.790   4.225
60524W        W25751   5.731  31.883   0.225
60525W        W25752  26.491  10.610  11.660
60526W        W25753  19.512  25.301   4.658
60527W        W25754  32.062  34.914   3.147
60528W        W25755  21.807  22.379  12.412
60529W        W25756  10.608  42.108  11.250
60530W        W25757  10.788  11.207   0.756
60531W        W25758  25.187  38.481  11.593
60532W        W25759  42.723  17.269   3.602
60533W        W25760  41.804  29.506  14.528
60534W        W25761  40.753   6.722  13.885
60535W        W25762   2.185   2.149  11.154
60536W        W25763  36.126   0.779  12.503
60537W        W25764  26.426  43.801  11.085
60538W        W25765  23.498  39.031  13.604
60539W        W25766  10.269  39.995   3.677
60540W        W25767  36.441  42.271  14.371
60541W        W25768  40.540  19.087  12.943
60542W        W25769  27.013   5.125   3.215
60543W        W25770   1.733  15.842   3.988
60544W        W25771  14.211  38.829   1.308
60545W        W25772  26.140  30.611  14.117
60546W        W25773   3.286  32.953  10.534
60547W        W25774  18.186  22.925  12.455
60548W        W25775  26.301   8.158  12.522
60549W        W25776  12.653  44.091   1.762
60550W        W25777  12.104  44.094   1.214
60551W        W25778  38.030  42.836  14.290
60552W        W25779  32.706  19.996   1.625
60553W        W25780   2.743  18.101   2.309
60554W        W25781  29.874  39.966  11.795
60555W        W25782  21.461   3.504  12.049
60556W        W25783  18.154   1.241  13.933
60557W        W25784  18.802  14.553   0.327
60558W        W25785  41.102  42.276   3.612
60559W        W25786  18.632   7.029  12.291
60560W        W25787  31.083  27.311  11.299
60561W        W25788  29.159  18.979  11.172
60562W        W25789  15.606  35.231   2.025
60563W        W25790  32.536  40.938  10.339
60564W        W25791  15.481   2.899   2.427
60565W        W25792  38.827  13.219   4.899
60566W        W25793   6.880  25.955  14.841
60567W        W25794  40.864   0.376  12.487
60568W        W25795  42.743  41.339   3.218
60569W        W25796  42.598  10.225   1.047
60570W        W25797  34.266  12.790  13.476
60571W        W25798   9.865   5.908   1.802
60572W        W25799  24.567  36.310  11.670
60573W        W25800  26.977  32.682   3.561
60574W        W25801  11.544   9.229  11.648
60575W        W25802  28.198  20.182  13.820
60576W        W25803  10.805  18.700   2.085
60577W        W25804  32.432  40.827   3.674
60578W        W25805  29.564  23.525   1.693
60579W        W25806   9.215  43.465   4.703
60580W        W25807   2.260   3.959   4.520
60581W        W25808  28.117  31.698   3.573
60582W        W25809  23.677  22.622  11.654
60583W        W25810  15.380  27.039  14.878
60584W        W25811  22.575  32.629   4.651
60585W        W25812  21.056  18.874   2.820
60586W        W25813  10.676  29.415  11.530
60587W        W25814  42.080  43.898   1.997
60588W        W25815  36.412  27.416   1.524
60589W        W25816  33.305  36.502   0.736
60590W        W25817  15.139  26.201   3.726
60591W        W25818  24.219   6.216   4.516
60592W        W25819  10.125  43.094  13.995
60593W        W25820  38.210  38.907  12.383
60594W        W25821  32.999  16.668   3.387
60595W        W25822  22.963  14.260  11.461
60596W        W25823  20.140  18.906   4.464
60597W        W25824  41.464  24.430   0.868
60598W        W25825  30.151  31.164  10.724
60599W        W25826  13.784   1.719   4.184
60600W        W25827   3.355  37.775   4.332
60601W        W25828   7.313  41.479   0.212
60602W        W25829  28.488  42.026  14.295
60603W        W25830  13.588  39.071  11.872
60604W        W25831  33.874  42.774  12.548
60605W        W25832  35.304  25.514   0.193
60606W        W25833  15.252  37.501   2.643
60607W        W25834  38.567  40.904  10.450
60608W        W25835   7.942   0.758  12.432
60609W        W25836  15.974   4.977  10.398
60610W        W25837  38.894  17.782  10.935
60611W        W25838  29.194  27.431   1.405
60612W        W25839  15.416  22.320  11.007
60613W        W25840   7.059  39.477  11.445
60614W        W25841  34.416   0.786   1.932
60615W        W25842  10.208  19.362   3.316
60616W        W25843  21.618  31.660  14.036
60617W        W25844  43.806  11.767   1.981
60618W        W25845  40.973  26.251  12.029
60619W        W25846  40.833   0.787   2.836
60620W        W25847   9.173  38.040  12.352
60621W        W25848  13.122  22.761   2.920
60622W        W25849  11.944  26.275  12.097
60623W        W25850   6.618  32.176   0.240
60624W        W25851   5.120  18.172  10.088
60625W        W25852  42.766   8.017  14.385
60626W        W25853  14.156  16.560   3.998
60627W        W25854  23.286  12.662   2.167
60628W        W25855   2.711  37.319  13.450
60629W        W25856  19.321  33.932  13.268
60630W        W25857  10.636  18.946   1.209
60631W        W25858   8.330  27.735  11.999
60632W        W25859  17.850  15.382   1.150
60633W        W25860  20.779  35.613   0.327
60634W        W25861  20.157  22.773   0.256
60635W        W25862  39.031  27.958   1.861
60636W        W25863  24.455   5.713   5.415
60637W        W25864  27.421  27.233   4.984
60638W        W25865  42.397   3.960  11.684
60639W        W25866   3.135  31.454   4.585
60640W        W25867  20.244   3.262   9.645
60641W        W25868   7.598  27.512   1.747
60642W        W25869  31.148  32.396  11.578
60643W        W25870  26.323  28.445  11.169
60644W        W25871  35.924  12.295  11.988
60645W        W25872  24.257  23.916   2.165
60646W        W25873  31.485   7.471  11.170
60647W        W25874  13.642  20.653   4.905
60648W        W25875   0.456  32.545   4.808
60649W        W25876  36.495  16.407   3.260
60650W        W25877  36.301  23.564   1.722
60651W        W25878  13.863  23.959  12.967
60652W        W25879  29.649  31.915   3.758
60653W        W25880  17.216  44.656   1.382
60654W        W25881  42.556   6.469   4.119
60655W        W25882   1.693  42.381   1.177
60656W        W25883   4.901   8.348  14.468
60657W        W25884  13.365  35.404  14.170
60658W        W25885  41.297  43.830   1.451
60659W        W25886  42.409  43.593  13.866
60660W        W25887  11.659  28.604  14.281
60661W        W25888  19.294   6.269  12.921
60662W        W25889  11.375   5.732   2.004
60663W        W25890  16.313  12.742  14.899
60664W        W25891  37.000   0.686  12.589
60665W        W25892  41.076  35.865   0.791
60666W        W25893   3.265  44.447   1.475
60667W        W25894  28.473   7.602   2.743
60668W        W25895  32.699  21.437   3.296
60669W        W25896   1.271  33.832   0.559
60670W        W25897  21.586  35.590  11.985
60671W        W25898  16.295  14.462   2.851
60672W        W25899  32.562  40.000   1.365
60673W        W25900  22.382  29.799  13.115
60674W        W25901  15.655  22.166  11.620
60675W        W25902  11.764   1.883  11.673
60676W        W25903  18.073   5.826   3.425
60677W        W25904  30.080  36.292  10.630
60678W        W25905  15.845   7.317   2.310
60679W        W25906  39.559  13.715   4.650
60680W        W25907   4.143  41.415  12.006
60681W        W25908  44.230  11.546   5.077
60682W        W25909  18.548  22.578   0.434
60683W        W25910   0.413  19.028  13.679
60684W        W25911  16.249  19.262  10.766
60685W        W25912   7.627  29.556   0.596
60686W        W25913  23.445   7.823   3.431
60687W        W25914  18.290  44.951   2.455
60688W        W25915  35.403   9.647   1.845
60689W        W25916  14.289  38.617   4.448
60690W        W25917   0.756   3.641   2.885
60691W        W25918  12.565   7.639  14.345
60692W        W25919  15.742  40.778   4.498
60693W        W25920  12.156   5.501   1.415
60694W        W25921  36.831  13.913   4.195
60695W        W25922   3.980  39.288  11.534
60696W        W25923  19.596  28.500  13.851
60697W        W25924  19.759   5.661   1.326
60698W        W25925   4.973  11.258   2.431
60699W        W25926  27.105  40.538  11.172
60700W        W25927  17.316   1.356  11.635
60701W        W25928   8.265   6.729  11.567
60702W        W25929   8.445  26.158  11.182
60703W        W25930  12.059  30.564  12.391
60704W        W25931   9.893  28.102  14.275
60705W        W25932  28.183  18.694  11.018
60706W        W25933   6.149  44.763  11.365
60707W        W25934   6.198  29.682  14.458
60708W        W25935  17.840  22.662   1.948
60709W        W25936  33.487  15.815   2.675
60710W        W25937  40.871  16.196  11.878
60711W        W25938  44.455  35.419   3.063
60712W        W25939  22.715  18.379  11.978
60713W        W25940  19.191   5.767   0.023
60714W        W25941  35.142  26.565  13.537
60715W        W25942  21.438  16.978  11.054
60716W        W25943  30.071  43.076  13.172
60717W        W25944  17.760   6.191  14.282
60718W        W25945  16.355  34.850  13.904
60719W        W25946  32.830  40.522   2.852
60720W        W25947  16.277  43.556   1.734
60721W        W25948   1.707  26.534  12.927
60722W        W25949  17.239  28.579   1.519
60723W        W25950  23.260  42.707   4.977
60724W        W25951  34.901   3.250   0.659
60725W        W25952  30.851   7.909  11.866
60726W        W25953  20.104  22.770   3.720
60727W        W25954   3.499  28.569  12.406
60728W        W25955  29.182   6.285   3.713
60729W        W25956  38.603  30.128  10.511
60730W        W25957  36.914   4.404  11.524
60731W        W25958   0.013  12.735   1.039
60732W        W25959  43.038   6.744  14.384
60733W        W25960  36.645  18.215  10.407
60734W        W25961  42.028   8.738   1.510
60735W        W25962   1.877  21.756  11.762
60736W        W25963  15.008  19.236   2.339
60737W        W25964  33.888   3.678  14.958
60738W        W25965  24.096  32.751   0.414
60739W        W25966  14.393   0.786   5.103
60740W        W25967   2.145  32.552   4.095
60741W        W25968   5.162  41.297   3.777
60742W        W25969  22.316  17.669   4.639
60743W        W25970   3.192  26.747  12.877
60744W        W25971   0.944  13.787   0.862
60745W        W25972  24.689  26.273  14.116
60746W        W25973  18.188  29.600   0.436
60747W        W25974  33.183  36.837  13.271
60748W        W25975  13.798   4.199   1.708
60749W        W25976  15.246  10.140  11.117
60750W        W25977   0.567  23.647   2.365
60751W        W25978  37.270  40.797   1.817
60752W        W25979  42.797  37.728  13.431
60753W        W25980   8.875  21.577  13.730
60754W        W25981  12.710   6.137   1.305
60755W        W25982  42.497   4.917   3.355
60756W        W25983  15.621  43.720   1.433
60757W        W25984   8.524   6.403  14.374
60758W        W25985  11.195  18.213   4.249
60759W        W25986  12.086   9.195   3.361
60760W        W25987  10.738  13.591   2.482
60761W        W25988  18.423  23.516  12.968
60762W        W25989  41.549  10.175  14.593
60763W        W25990  44.228  44.207   1.695
60764W        W25991   5.915  10.936   1.510
60765W        W25992  26.712   6.383   3.560
60766W        W25993  36.930  29.363  14.349
60767W        W25994  35.048  37.935   0.204
60768W        W25995  19.785  35.445   4.000
60769W        W25996   3.515   1.563  12.953
60770W        W25997  19.128   5.403  13.088
60771W        W25998  18.835  26.632  10.927
60772W        W25999  32.533  14.171  12.770
60773W        W26000   6.510   9.834  12.067
60774W        W26001  33.895   5.133   0.171
60775W        W26002  17.014  12.361  11.431
60776W        W26003  35.057  10.457   3.722
60777W        W26004  22.672  17.889  11.795
60778W        W26005  28.413  43.565  14.019
60779W        W26006  15.518  14.169   1.493
60780W        W26007   0.309   2.125   0.323
60781W        W26008   2.679  18.496   0.846
60782W        W26009   6.890  10.554   2.291
60783W        W26010  22.289  11.318  10.684
60784W        W26011  43.777  31.277  13.861
60785W        W26012  20.514  35.487  11.284
60786W        W26013   2.695  21.455   4.117
60787W        W26014  15.093  26.672  12.192
60788W        W26015  16.027  17.267  11.624
60789W        W26016  38.392  33.840   0.573
60790W        W26017   3.734  24.040   0.211
60791W        W26018  41.286   9.443  12.597
60792W        W26019  18.048  38.784   2.736
60793W        W26020  29.231  40.541   0.939
60794W        W26021  43.553   9.119  13.473
60795W        W26022  11.163   7.183   4.534
60796W        W26023  36.613  21.653   1.702
60797W        W26024  18.658  20.276   4.492
60798W        W26025  26.028  43.501   0.944
60799W        W26026  16.517  19.234   3.274
60800W        W26027   3.474  31.174   3.801
60801W        W26028  38.147  16.187  11.910
60802W        W26029  20.378  38.247   1.899
60803W        W26030  31.290  31.451   1.303
60804W        W26031  30.377  32.661   3.705
60805W        W26032  26.526  18.846  12.011
60806W        W26033  14.164  13.554  12.092
60807W        W26034  32.207   2.646   0.163
60808W        W26035   4.027  23.661  14.994
60809W        W26036  13.824   5.194   1.831
60810W        W26037   2.937  40.948   0.765
60811W        W26038  27.275  19.285  14.541
60812W        W26039  25.162  17.652  13.385
60813W        W26040  40.058  10.557   1.719
60814W        W26041  38.993  19.577  13.810
60815W        W26042   2.656  17.694  14.513
60816W        W26043  40.587   4.685   2.781
60817W        W26044   0.542  10.197   1.265
60818W        W26045   2.121  26.010  10.478
60819W        W26046  39.270  24.528  10.977
60820W        W26047  38.101  20.490  12.525
60821W        W26048  20.845   4.399  10.186
60822W        W26049  26.158  25.351   2.090
60823W        W26050  30.149   4.449  14.350
60824W        W26051  20.698  18.584   3.698
60825W        W26052  15.758  44.032  11.529
60826W        W26053  40.749  34.013   3.901
60827W        W26054  44.726  21.946   2.659
60828W        W26055  23.739  39.402  13.886
60829W        W26056  24.476  32.636   4.332
60830W        W26057   3.824  42.719   2.271
60831W        W26058  40.971  39.125  10.601
60832W        W26059  32.489  23.930   1.996
60833W        W26060   5.045  22.981   2.936
60834W        W26061   7.280  16.578   2.778
60835W        W26062   2.690  24.576  14.086
60836W        W26063   6.828  36.065   4.589
60837W        W26064  38.407  17.054  14.819
60838W        W26065  19.773  14.931   0.492
60839W        W26066  32.168  28.719   4.624
60840W        W26067  10.283  25.084  11.961
60841W        W26068  44.992   0.962   2.255
60842W        W26069  39.949  15.655  12.053
60843W        W26070  42.378  18.525   3.654
60844W        W26071  42.892  36.031  11.874
60845W        W26072   2.502  18.662   5.440
60846W        W26073   3.072   4.925   2.665
60847W        W26074  32.263  32.608   2.570
60848W        W26075   9.841   8.081   2.418
60849W        W26076  13.620  39.450  12.923
60850W        W26077  11.629   6.987   1.356
60851W        W26078   0.408   0.908   4.535
60852W        W26079   7.871  28.181   2.094
60853W        W26080  25.602  37.202  12.895
60854W        W26081  27.172   8.295  10.620
60855W        W26082  44.909  17.532  10.473
60856W        W26083  30.383  28.514  14.822
60857W        W26084  29.033  43.868   2.138
60858W        W26085  20.666  21.072   3.746
60859W        W26086  16.787  11.464  10.802
60860W        W26087  26.757  15.207   1.085
60861W        W26088   3.594  13.277  12.580
60862W        W26089  33.900  43.017  14.463
60863W        W26090   7.429  22.475   1.857
60864W        W26091  44.818   9.702   2.201
60865W        W26092  40.542  15.577  13.863
60866W        W26093  40.077   8.278   2.466
60867W        W26094  11.434  36.980   4.524
60868W        W26095  12.939  35.431   1.876
60869W        W26096  24.514  29.960   5.024
60870W        W26097  12.093  35.337   4.510
60871W        W26098  20.917  29.102  13.464
60872W        W26099  39.621   6.027   0.319
60873W        W26100  10.807  41.885  14.853
60874W        W26101  39.365  42.753   3.534
60875W        W26102  36.312  27.718  12.411
60876W        W26103  44.901  37.128  13.771
60877W        W26104  17.402  17.224  13.237
60878W        W26105  14.579  32.518   1.910
60879W        W26106  16.084  33.002   2.439
60880W        W26107  15.202  28.849  14.475
60881W        W26108  42.783  22.040   2.239
60882W        W26109   3.468  34.893  12.355
60883W        W26110  13.650  18.746  14.914
60884W        W26111  35.623  41.495   2.150
60885W        W26112  29.027  38.341  11.721
60886W        W26113  18.049  10.713  12.006
60887W        W26114   9.873  39.466   4.308
60888W        W26115  18.450  42.480   0.655
60889W        W26116  23.666  42.412   1.678
60890W        W26117   1.938  43.740  11.733
60891W        W26118  41.952  20.171  11.743
60892W        W26119  27.595  38.987   0.253
60893W        W26120  40.999  29.341   4.638
60894W        W26121   4.286  12.263  14.325
60895W        W26122  21.328  36.862  13.156
60896W        W26123  24.269  21.595   1.867
60897W        W26124  42.811  30.841   4.803
60898W        W26125  26.154  36.695   2.150
60899W        W26126  26.674  27.120  14.387
60900W        W26127  22.261   4.265   1.803
60901W        W26128  37.881  35.160   3.255
60902W        W26129  33.563   1.744   0.308
60903W        W26130  29.380   2.316  12.398
60904W        W26131  39.964  41.696  12.063
60905W        W26132  22.525   5.425   3.597
60906W        W26133  12.729  24.960   4.834
60907W        W26134  18.585  28.943  11.833
60908W        W26135  43.767  24.268   2.027
60909W        W26136  18.231  27.722   1.465
60910W        W26137   4.191   0.574   1.957
60911W        W26138   2.769  10.423   2.788
60912W        W26139   1.536  39.365   3.201
60913W        W26140  21.720  17.656   0.894
60914W        W26141  40.232   9.424  12.109
60915W        W26142  20.035  37.494   3.207
60916W        W26143   0.375  36.929  13.838
60917W        W26144  39.894   0.463   3.072
60918W        W26145  44.783  19.881  12.991
60919W        W26146  19.731  11.229   4.954
60920W        W26147  29.898  21.617   2.878
60921W        W26148  32.645  17.008   4.952
60922W        W26149  18.182  19.829  12.564
60923W        W26150  18.266  36.419  10.403
60924W        W26151  10.131  23.314   0.506
60925W        W26152   0.761   9.753   3.856
60926W        W26153   5.278  34.302  13.907
60927W        W26154  11.896  34.386  13.501
60928W        W26155  14.872   5.310  10.723
60929W        W26156   0.293  11.806   2.801
60930W        W26157  26.027  39.493   2.254
60931W        W26158  41.123   7.462   3.150
60932W        W26159  35.441  29.416  10.827
60933W        W26160   2.340   3.212   1.920
60934W        W26161  37.460  19.417  14.880
60935W        W26162   0.974  43.634   2.715
60936W        W26163  19.173   9.243  13.126
60937W        W26164   4.664  40.494   1.400
60938W        W26165   3.674  30.243   3.104
60939W        W26166   1.799   1.725  13.343
60940W        W26167  38.296  15.506   3.719
60941W        W26168  27.696   5.132  12.154
60942W        W26169   8.364  16.585  11.189
60943W        W26170  32.930  25.407  13.834
60944W        W26171  27.635  40.580   1.384
60945W        W26172  12.744  24.738  12.548
60946W        W26173  34.512  11.936   3.279
60947W        W26174  13.788  28.990  14.319
60948W        W26175  29.243   0.174   0.899
60949W        W26176  30.822  31.049   2.591
60950W        W26177   7.413  15.131  12.345
60951W        W26178  30.620  10.846   0.317
60952W        W26179   6.725  12.036   0.295
60953W        W26180   4.417  26.633  10.675
60954W        W26181  20.155  44.253   4.642
60955W        W26182  32.004  20.013   3.750
60956W        W26183  10.175  30.944  11.119
60957W        W26184   8.351  43.324   3.188
60958W        W26185  29.438   3.250   1.885
60959W        W26186  44.898  31.416   3.145
60960W        W26187  40.370  14.066  13.789
60961W        W26188   5.736  41.302   1.368
60962W        W26189  33.891  36.879  14.803
60963W        W26190  24.033   9.433   4.352
60964W        W26191  27.155  43.893  11.533
60965W        W26192  11.809  22.738  13.728
60966W        W26193  38.500  40.965   3.235
60967W        W26194   3.857  33.899  11.420
60968W        W26195  39.908  17.145   1.275
60969W        W26196   2.888  10.756   1.416
60970W        W26197  28.762  30.461  13.465
60971W        W26198  38.815   1.994   4.635
60972W        W26199   0.666  18.735   0.371
60973W        W26200  12.008  23.316   1.752
60974W        W26201  29.959  22.976  12.861
60975W        W26202  18.263  35.868   2.015
60976W        W26203   9.432  39.804   0.318
60977W        W26204   8.358  38.916  12.025
60978W        W26205   1.923   0.858   1.622
60979W        W26206  10.360  29.347   4.247
60980W        W26207  32.943  29.633   3.757
60981W        W26208  41.324  20.602  12.074
60982W        W26209  21.053  16.612  12.177
60983W        W26210  22.767  38.650   3.303
60984W        W26211  22.078   0.132  11.635
60985W        W26212  36.394  25.043  14.005
60986W        W26213  16.296   0.556   3.627
60987W        W26214  42.301  13.269   1.776
60988W        W26215  20.657  33.579   0.430
60989W        W26216  35.441  40.398   2.119
60990W        W26217  14.852  30.552  11.890
60991W        W26218  18.999  20.603   4.157
60992W        W26219  40.424  16.571   2.672
60993W        W26220  15.085   5.965   2.164
60994W        W26221  38.755  44.343   2.202
60995W        W26222  24.212  10.739  12.549
60996W        W26223  18.094  38.150   4.447
60997W        W26224  10.667  28.875  14.435
60998W        W26225  19.803  21.907   0.777
60999W        W26226  16.270   8.197  14.274
61000W        W26227  36.920  35.345   3.120
61001W        W26228  15.859   3.151   4.512
61002W        W26229  19.285  22.610  12.922
61003W        W26230  40.869  25.763  12.096
61004W        W26231   8.666   4.902  13.417
61005W        W26232  27.458  37.581   2.774
61006W        W26233  44.754  28.507  10.462
61007W        W26234  33.350   8.758   2.722
61008W        W26235  38.912  17.011   1.734
61009W        W26236   0.868  38.773   1.707
61010W        W26237  42.124  43.411   1.443
61011W        W26238  32.611  24.960   1.492
61012W        W26239   7.301  26.593   1.412
61013W        W26240  19.141   5.619   4.158
61014W        W26241  38.234  17.326  10.319
61015W        W26242   4.262  42.784  13.109
61016W        W26243  35.549  34.916   2.994
61017W        W26244   9.990  36.473  12.294
61018W        W26245  33.471  44.409  10.467
61019W        W26246   4.944  29.702   4.157
61020W        W26247   0.450  16.265  13.878
61021W        W26248  27.399  19.733  13.793
61022W        W26249  11.584  31.424   4.088
61023W        W26250  13.111  24.094   1.016
61024W        W26251   4.294  38.141  10.961
61025W        W26252  31.934  17.906  11.686
61026W        W26253  17.286  22.850  12.371
61027W        W26254  34.627  32.074   3.687
61028W        W26255  30.900  10.668   0.714
61029W        W26256  22.966  33.308  13.034
61030W        W26257  19.152  18.255  10.877
61031W        W26258  25.903  20.093  12.337
61032W        W26259   4.157   1.472   1.659
61033W        W26260  41.757  32.016   3.513
61034W        W26261  23.395  31.928  13.054
61035W        W26262   4.944  19.609   4.194
61036W        W26263  31.969  25.037   0.277
61037W        W26264   2.293  43.795  12.098
61038W        W26265  23.753   0.363  14.458
61039W        W26266   6.771  26.306  14.023
61040W        W26267  29.634  33.621  13.594
61041W        W26268   6.268  30.954   1.868
61042W        W26269  23.097   1.763   2.356
61043W        W26270  39.778  20.676  11.580
61044W        W26271  17.100   2.357   1.758
61045W        W26272  33.173  24.892  14.046
61046W        W26273  11.254   6.971  11.475
61047W        W26274  15.334  21.782  11.161
61048W        W26275   9.572  32.968   5.300
61049W        W26276  11.296  12.261   2.163
61050W        W26277  21.258  34.859   2.682
61051W        W26278  41.899   3.781   1.864
61052W        W26279  21.786  36.731   4.062
61053W        W26280   4.481  15.705  11.293
61054W        W26281  43.970   1.329  11.190
61055W        W26282  31.885   7.110   3.609
61056W        W26283  34.324  25.791  13.153
61057W        W26284  18.788  10.597  13.339
61058W        W26285   5.322  32.455  13.525
61059W        W26286  19.195  20.682   2.786
61060W        W26287  34.852  31.408  14.942
61061W        W26288  44.941   0.404   3.773
61062W        W26289  21.077  24.702  10.655
61063W        W26290   0.344   6.344  12.843
61064W        W26291  11.742  11.162   3.722
61065W        W26292   6.705  30.853   0.377
61066W        W26293   4.075  26.471  10.303
61067W        W26294  34.878  32.595  13.263
61068W        W26295  35.451  33.137   2.159
61069W        W26296  25.205   6.209   2.803
61070W        W26297  17.872  38.846   0.814
61071W        W26298  12.554  26.511  10.442
61072W        W26299  25.235  33.151   4.357
61073W        W26300  28.464  27.586  12.891
61074W        W26301  39.030  38.879  13.044
61075W        W26302  16.066   7.893  13.578
61076W        W26303  20.523  20.469  13.073
61077W        W26304  31.629  26.746  12.498
61078W        W26305  28.665  11.183   4.130
61079W        W26306  17.267  25.263  12.072
61080W        W26307  26.734  28.116   0.907
61081W        W26308  18.090  41.161  12.003
61082W        W26309  15.724  42.436  14.650
61083W        W26310  35.816  32.703   3.877
61084W        W26311   5.301  28.709  12.502
61085W        W26312  11.766  28.224  12.104
61086W        W26313  35.652  22.259   4.110
61087W        W26314  32.133  22.848  11.100
61088W        W26315  29.826  41.153   1.322
61089W        W26316   9.767  18.510   1.232
61090W        W26317  15.310   3.754  12.980
61091W        W26318  18.771   8.524   4.890
61092W        W26319  14.835  34.453  11.474
61093W        W26320  19.775  31.892   3.111
61094W        W26321  22.668  27.701   4.203
61095W        W26322   0.178  17.220  10.845
61096W        W26323  33.029  16.909  11.686
61097W        W26324  24.483  41.555  14.247
61098W        W26325   9.772  35.533   0.427
61099W        W26326  20.622  19.082   4.212
61100W        W26327  36.531  26.896   2.805
61101W        W26328  12.453   7.532   1.462
61102W        W26329  35.145  26.179  13.150
61103W        W26330  32.571   2.788  10.696
61104W        W26331  11.907   5.388  14.533
61105W        W26332  19.747   7.003  11.040
61106W        W26333  29.052  31.678   0.593
61107W        W26334  35.564  33.100  13.868
61108W        W26335  24.108  27.189   0.713
61109W        W26336  15.217  14.685   4.580
61110W        W26337  22.066  29.724   4.824
61111W        W26338  20.152  26.075  11.968
61112W        W26339  11.287  19.105   4.529
61113W        W26340   1.039  41.897   1.322
61114W        W26341  23.323   9.839  12.883
61115W        W26342  22.198  16.001  11.522
61116W        W26343  17.991  16.716  13.495
61117W        W26344  20.626   7.167   4.390
61118W        W26345  26.767  27.478  11.337
61119W        W26346   0.218  33.801   0.549
61120W        W26347  28.089   7.175  11.887
61121W        W26348  32.450  26.261   2.267
61122W        W26349  30.631  30.159   1.190
61123W        W26350  24.683  14.229  11.434
61124W        W26351  24.749  28.726  13.634
61125W        W26352  10.900  28.154   3.242
61126W        W26353   9.872  44.060   2.396
61127W        W26354  27.339  32.106   2.472
61128W        W26355  44.442  28.080  10.366
61129W        W26356  22.636  21.681   4.471
61130W        W26357  44.474   0.968   3.198
61131W        W26358  16.750   8.780   2.418
61132W        W26359  41.279  37.851  11.014
61133W        W26360   0.443   9.793   3.413
61134W        W26361  31.540  17.752  10.676
61135W        W26362   4.259   0.207  14.893
61136W        W26363  34.331  11.506   9.911
61137W        W26364  37.226  33.969   2.908
61138W        W26365  38.385  30.599  14.313
61139W        W26366  23.604  31.824   3.061
61140W        W26367  22.819  41.701  12.555
61141W        W26368  37.006  28.171   1.868
61142W        W26369  30.645  20.827   0.523
61143W        W26370   9.148  43.524  14.562
61144W        W26371   4.769  24.360   1.949
61145W        W26372  31.570  25.385  14.352
61146W        W26373  19.663  39.401  14.732
61147W        W26374   8.256   4.271   2.195
61148W        W26375   5.137  39.606   3.579
61149W        W26376   0.413   2.598   0.483
61150W        W26377  27.488  26.724  14.357
61151W        W26378  12.326  15.426  11.084
61152W        W26379  17.576  10.277  14.856
61153W        W26380  21.352  14.745   2.597
61154W        W26381   4.395  22.058  10.637
61155W        W26382  20.144  16.393   1.407
61156W        W26383  40.455   1.947   2.268
61157W        W26384  22.498  43.684   0.904
61158W        W26385   6.189  35.661   0.577
61159W        W26386  30.593  30.704   4.574
61160W        W26387  14.037  31.881  13.852
61161W        W26388   4.695  15.803  14.375
61162W        W26389   1.383  32.179   3.793
61163W        W26390  44.469  38.450  10.715
61164W        W26391  22.029  11.109   0.931
61165W        W26392   8.897  19.040   1.966
61166W        W26393  44.971  20.154  13.406
61167W        W26394  28.526  12.470   0.094
61168W        W26395  41.075  33.048  12.622
61169W        W26396  43.352  34.610   2.248
61170W        W26397  29.186  42.441   1.310
61171W        W26398  23.686  27.612  14.833
61172W        W26399  44.723  10.170   1.885
61173W        W26400   1.298  17.678  14.784
61174W        W26401  40.517   3.244  11.180
61175W        W26402  17.136  37.720  11.983
61176W        W26403  26.535  41.619   0.225
61177W        W26404  38.937  42.736   3.253
61178W        W26405  44.978  34.804   0.483
61179W        W26406  34.058   5.572   2.209
61180W        W26407  20.355  12.611  10.717
61181W        W26408  18.896   2.303   0.271
61182W        W26409  10.676  24.910   4.783
61183W        W26410  18.519  25.871   0.320
61184W        W26411   9.298  11.741  14.878
61185W        W26412  17.672   9.587   4.152
61186W        W26413  26.757  10.629   0.977
61187W        W26414  24.372  44.512   9.744
61188W        W26415   6.866   0.446   3.260
61189W        W26416  16.727  12.900  14.433
61190W        W26417  16.178   3.253  12.971
61191W        W26418  12.564  19.567   1.409
61192W        W26419   3.896  17.193  12.556
61193W        W26420   1.419  22.027   3.623
61194W        W26421  27.893   9.841  11.723
61195W        W26422   6.975  16.173   2.833
61196W        W26423  40.373   2.786   4.457
61197W        W26424  20.535  15.203   3.264
61198W        W26425  17.241  37.229  12.112
61199W        W26426  23.616  14.296   3.173
61200W        W26427  29.601  18.232  11.566
61201W        W26428  20.972  19.639   4.575
61202W        W26429  17.488   8.682   4.136
61203W        W26430   3.796  11.647   1.722
61204W        W26431   5.476  11.166   2.357
61205W        W26432  37.124  18.289   0.756
61206W        W26433  23.681  36.423  13.946
61207W        W26434  28.964   0.992   1.143
61208W        W26435   5.242  23.226  12.587
61209W        W26436  31.974  43.822  13.558
61210W        W26437  28.564  23.686  13.799
61211W        W26438  26.258  12.071  14.481
61212W        W26439  39.438  38.099   1.341
61213W        W26440   1.762   2.490  12.862
61214W        W26441   1.005   2.363   1.727
61215W        W26442  18.867  10.655   3.064
61216W        W26443   0.865  38.891   3.120
61217W        W26444  34.423  10.462   2.178
61218W        W26445  38.660  13.805   0.432
61219W        W26446  40.943  31.643  12.406
61220W        W26447  20.761  25.286  11.692
61221W        W26448  41.396   6.897   4.092
61222W        W26449  35.065   6.344  13.428
61223W        W26450  39.896  43.894  10.910
61224W        W26451   1.775  33.666  13.165
61225W        W26452   4.717  40.248  11.495
61226W        W26453   6.756  15.687  13.387
61227W        W26454  42.462  29.791   4.118
61228W        W26455   5.271  16.336   0.427
61229W        W26456  19.513  25.399  14.819
61230W        W26457  38.571  20.106  14.442
61231W        W26458  25.476  20.188  12.062
61232W        W26459  18.115   0.287  12.060
61233W        W26460  16.932  32.047   4.146
61234W        W26461  43.606  28.578   0.031
61235W        W26462   7.764  36.194   9.891
61236W        W26463   1.140  19.548  13.783
61237W        W26464  29.968  27.613  13.080
61238W        W26465  43.893   3.925   3.204
61239W        W26466   2.867  29.035   0.757
61240W        W26467  10.888  27.900   1.358
61241W        W26468   6.019  37.393   4.378
61242W        W26469  19.773   4.294   0.856
61243W        W26470  17.615  37.420   0.033
61244W        W26471  16.506  14.700  11.151
61245W        W26472  17.028  28.969   3.687
61246W        W26473   7.748   7.872   2.586
61247W        W26474  32.376  16.311   0.884
61248W        W26475  21.440  26.891  14.188
61249W        W26476   8.928  41.784   1.902
61250W        W26477  42.845  15.026  12.015
61251W        W26478  31.927  40.777   2.803
61252W        W26479   1.259   9.556  13.919
61253W        W26480  20.733   7.937   3.258
61254W        W26481  11.162   2.246   1.833
61255W        W26482  39.040   9.342  11.631
61256W        W26483  15.455  13.669   3.233
61257W        W26484  20.733  28.594   3.124
61258W        W26485  12.263  10.214   2.674
61259W        W26486   0.426  44.500   1.692
61260W        W26487  39.121  38.371   4.596
61261W        W26488  25.220  28.437   4.663
61262W        W26489  13.408  34.573   3.310
61263W        W26490   3.011  39.976  11.856
61264W        W26491  29.482  26.269  12.026
61265W        W26492  27.551  27.733   0.394
61266W        W26493  17.533  17.676  13.053
61267W        W26494  13.684   4.197   4.612
61268W        W26495  29.688  11.816   1.137
61269W        W26496  12.923   2.090   3.643
61270W        W26497  39.453  16.360  12.601
61271W        W26498  17.698  31.830  11.038
61272W        W26499   6.877  38.467   2.332
61273W        W26500  20.764  12.682   4.629
61274W        W26501  42.554  12.107  14.034
61275W        W26502  38.297   6.451  14.780
61276W        W26503   6.121  22.653  11.191
61277W        W26504  22.037  37.911  12.603
61278W        W26505  24.831  41.053   0.942
61279W        W26506  32.188  40.692   2.289
61280W        W26507  27.428  42.285   1.875
61281W        W26508  43.243  27.127  11.812
61282W        W26509   9.328  41.950  10.920
61283W        W26510  33.544   3.893  11.656
61284W        W26511  32.138  30.261  14.313
61285W        W26512   3.250  32.497   4.257
61286W        W26513   0.273  14.121   4.625
61287W        W26514  18.916  39.956   1.808
61288W        W26515  39.630  29.100  13.710
61289W        W26516   1.269  38.517   0.324
61290W        W26517  44.288  18.756  13.878
61291W        W26518  11.594  30.450   1.368
61292W        W26519   9.963  23.422   0.025
61293W        W26520  23.148  15.813  13.813
61294W        W26521   4.199  26.145  10.680
61295W        W26522   0.946  14.395   1.447
61296W        W26523  16.143  18.600   3.180
61297W        W26524  17.695   6.234  13.750
61298W        W26525  25.039  18.375  12.388
61299W        W26526  35.047  28.382  10.661
61300W        W26527  43.961  31.187  12.547
61301W        W26528  16.056  19.279   4.254
61302W        W26529   7.921  14.075  12.093
61303W        W26530  16.093   2.826  11.972
61304W        W26531   0.230   3.918  14.012
61305W        W26532  20.455   4.785  12.916
61306W        W26533  17.261  16.776   3.233
61307W        W26534  21.294  15.515   4.084
61308W        W26535  24.704  15.155   2.252
61309W        W26536   9.230  17.715   9.604
61310W        W26537  32.133  18.602   3.687
61311W        W26538  28.227  12.955  11.075
61312W        W26539  38.320  17.339  11.584
61313W        W26540   4.863  24.327   3.075
61314W        W26541   0.188  41.838   3.182
61315W        W26542  32.174  40.383   3.679
61316W        W26543  34.538   4.143   0.908
61317W        W26544   5.855  27.051   2.802
61318W        W26545  18.027  34.127   2.830
61319W        W26546   9.615  26.361   4.633
61320W        W26547  21.656   2.312  10.487
61321W        W26548   3.847  16.861   3.757
61322W        W26549  12.459   2.971   5.027
61323W        W26550  24.727  22.575  13.450
61324W        W26551   9.860  33.616   5.403
61325W        W26552  21.589   4.701  11.608
61326W        W26553   5.208  32.950  12.534
61327W        W26554  43.947  32.915  10.684
61328W        W26555   3.255   3.693   4.625
61329W        W26556  21.445  16.302  11.931
61330W        W26557   0.649   1.981   1.661
61331W        W26558   3.291  29.546   2.743
61332W        W26559  36.834  37.041   2.715
61333W        W26560  32.214  20.728   2.274
61334W        W26561  16.965  10.388  11.684
61335W        W26562  12.083  32.849  12.458
61336W        W26563  39.606   1.552   4.066
61337W        W26564  28.201  26.699   5.403
61338W        W26565  18.022   9.816  12.078
61339W        W26566   5.371   7.162  11.412
61340W        W26567   8.649   6.306   4.156
61341W        W26568  16.841  33.418  14.755
61342W        W26569  33.426  16.013   2.208
61343W        W26570   8.878  17.205  14.868
61344W        W26571  19.059  38.226   2.232
61345W        W26572  21.091  35.387  11.996
61346W        W26573   9.967  13.676  12.518
61347W        W26574  31.510  16.175  10.680
61348W        W26575  10.078  36.473   1.334
61349W        W26576  23.428   3.296  10.446
61350W        W26577  43.373  20.197  14.046
61351W        W26578   4.976   8.149  12.447
61352W        W26579  23.251   2.254   1.230
61353W        W26580  21.056  29.672  10.463
61354W        W26581  40.692  42.390  13.004
61355W        W26582   8.202   6.010  10.885
61356W        W26583  37.457  15.145  10.712
61357W        W26584  44.213  44.262   2.227
61358W        W26585  17.837  33.492   3.624
61359W        W26586  28.082  27.826  14.031
61360W        W26587   3.718  15.068   1.732
61361W        W26588   4.941   6.668   3.747
61362W        W26589  40.975  26.256  14.720
61363W        W26590  24.988  20.010   1.293
61364W        W26591  19.048   2.649   3.753
61365W        W26592  38.683  23.144  10.390
61366W        W26593  20.739  30.516   2.131
61367W        W26594  24.478  43.317  11.948
61368W        W26595  35.457  37.138  11.417
61369W        W26596  10.097   1.735  11.167
61370W        W26597  29.410   5.622  11.144
61371W        W26598   4.867  20.421  11.184
61372W        W26599  37.853  38.171   1.806
61373W        W26600  22.645  43.965  14.255
61374W        W26601  29.706   8.236   5.025
61375W        W26602  26.238  43.315   0.494
61376W        W26603  39.317  20.128  11.003
61377W        W26604  35.033  42.810   0.411
61378W        W26605  26.755  27.157   3.172
61379W        W26606  40.533  26.959   4.069
61380W        W26607   0.604  36.235  14.292
61381W        W26608  36.553  19.281   3.767
61382W        W26609  40.606  24.944   2.621
61383W        W26610   8.211  14.126   4.985
61384W        W26611   1.333  24.440  13.781
61385W        W26612  18.531  11.147   1.181
61386W        W26613  25.810  20.783   1.631
61387W        W26614   1.840  42.687   0.364
61388W        W26615  42.755  18.366  11.943
61389W        W26616  14.391  28.035   1.193
61390W        W26617  28.185  41.109  14.822
61391W        W26618  12.810  36.315  11.153
61392W        W26619   4.485   0.044   2.231
61393W        W26620  39.725  29.438   0.275
61394W        W26621  21.296   2.834   0.451
61395W        W26622  26.962  37.204  11.088
61396W        W26623  38.383  20.154   4.374
61397W        W26624  21.473  37.032  11.519
61398W        W26625  22.593   3.159  13.074
61399W        W26626  40.675  40.633   0.958
61400W        W26627   5.026  35.155   0.085
61401W        W26628  20.730  17.620  11.239
61402W        W26629   9.800   2.141  10.455
61403W        W26630  16.809  30.365  14.011
61404W        W26631  28.057  24.873  10.344
61405W        W26632  33.989   2.594   3.390
61406W        W26633  30.338  26.254  13.493
61407W        W26634  30.388  40.923  12.163
61408W        W26635  15.013  14.599  11.914
61409W        W26636  18.803   8.897  13.321
61410W        W26637  17.676  28.134  12.749
61411W        W26638   8.393  29.156   1.333
61412W        W26639  11.828  11.388   2.851
61413W        W26640  35.900  28.369   3.375
61414W        W26641  16.973  26.184  14.313
61415W        W26642  41.759  27.349  11.606
61416W        W26643  18.782  16.383   0.053
61417W        W26644  17.531  23.934  13.060
61418W        W26645  14.610  42.758   2.482
61419W        W26646  28.775   7.453  13.541
61420W        W26647   5.278   0.049   4.705
61421W        W26648   1.880  30.984  13.088
61422W        W26649   8.163  13.606   3.273
61423W        W26650  16.099  12.111   0.277
61424W        W26651  18.280  12.938   1.447
61425W        W26652  13.884  21.290  11.462
61426W        W26653   1.419  40.902   1.912
61427W        W26654  10.031  39.082  12.986
61428W        W26655   6.450  24.979   0.343
61429W        W26656  12.661  28.549   1.193
61430W        W26657  26.925   3.443  11.453
61431W        W26658  44.251  19.728   1.264
61432W        W26659  14.554  40.053  13.931
61433W        W26660  11.905  27.186  12.926
61434W        W26661  34.559  14.408   5.132
61435W        W26662  18.832   4.703   1.324
61436W        W26663  18.525   0.593   1.836
61437W        W26664  35.709  40.903   4.141
61438W        W26665  36.777   8.827   3.514
61439W        W26666  21.807  20.220  11.452
61440W        W26667  26.649  13.572   0.007
61441W        W26668  42.433  44.170   4.136
61442W        W26669  37.364  42.257   2.747
61443W        W26670   7.038  26.255   3.783
61444W        W26671  18.581  10.702  11.978
61445W        W26672  26.847   9.670   1.394
61446W        W26673  14.734  40.244  13.462
61447W        W26674  19.148   7.350  13.135
61448W        W26675   8.094  15.055   5.122
61449W        W26676  25.877  14.871   1.464
61450W        W26677   1.572  18.082  11.184
61451W        W26678  15.494  19.781  12.076
61452W        W26679  30.433  27.303  12.178
61453W        W26680  18.347  25.339   0.846
61454W        W26681  19.960   8.621   9.922
61455W        W26682  36.023  16.605   3.234
61456W        W26683  13.742  17.049   3.772
61457W        W26684   6.197  18.301   2.790
61458W        W26685   4.966  41.783   2.274
61459W        W26686  41.933  42.872   1.232
61460W        W26687  10.056   5.905   3.686
61461W        W26688   3.363  16.144   3.652
61462W        W26689  14.098  21.996  10.864
61463W        W26690   1.424  15.787  11.560
61464W        W26691  19.646  24.036   3.302
61465W        W26692  17.814   6.481   4.554
61466W        W26693  37.642  18.522   2.194
61467W        W26694  13.021  25.434  12.068
61468W        W26695   7.040  21.196   3.507
61469W        W26696  14.149  23.009  14.411
61470W        W26697  23.095  25.458   4.272
61471W        W26698  37.453  20.849   1.285
61472W        W26699  27.915  40.783   1.006
61473W        W26700  24.617   3.202   0.319
61474W        W26701  41.367   5.032   5.023
61475W        W26702  25.669  19.263  11.443
61476W        W26703  33.853   6.137  12.996
61477W        W26704  44.795  39.636   4.632
61478W        W26705  33.855  20.469   1.467
61479W        W26706  43.390  10.083  10.926
61480W        W26707  29.743   3.427  13.057
61481W        W26708  24.515  13.852  12.652
61482W        W26709  43.917  28.942  11.839
61483W        W26710  20.004   9.337  10.666
61484W        W26711   0.920  19.510   2.416
61485W        W26712   0.493   0.566  12.536
61486W        W26713   5.703  14.674  13.096
61487W        W26714  39.961  29.474   2.517
61488W        W26715  25.970  38.451   2.280
61489W        W26716  40.137   5.909   3.559
61490W        W26717  42.718   2.962  13.177
61491W        W26718  39.342  21.456  12.649
61492W        W26719  44.288  41.987   4.176
61493W        W26720  11.216  22.321   3.502
61494W        W26721  24.628  10.149  12.956
61495W        W26722   2.005  21.658   2.331
61496W        W26723  41.015  44.336   4.289
61497W        W26724  34.405  39.637   0.945
61498W        W26725  35.462  29.397  14.386
61499W        W26726  33.102  30.944   0.065
61500W        W26727  44.551  33.531  12.523
61501W        W26728  15.774  31.423   5.058
61502W        W26729  44.899  31.016   5.420
61503W        W26730  27.088  31.668   0.329
61504W        W26731  19.986   2.893   1.854
61505W        W26732  15.671  16.802   0.450
61506W        W26733  28.131  20.968  11.581
61507W        W26734  21.266  37.434   0.316
61508W        W26735  18.752  27.065  11.190
61509W        W26736  20.552  21.561   1.480
61510W        W26737   2.057  31.906   1.413
61511W        W26738  26.375  43.050  14.836
61512W        W26739  17.285  29.770   0.973
61513W        W26740  15.704  14.862  12.901
61514W        W26741   6.396  42.568   5.109
61515W        W26742  15.349  23.506   2.903
61516W        W26743  42.733  34.422  12.976
61517W        W26744  17.005  43.526  14.827
61518W        W26745  42.740  27.891   3.670
61519W        W26746  30.125   3.552  14.024
61520W        W26747  39.614  44.497   1.792
61521W        W26748  44.233  25.847   1.352
61522W        W26749   7.184  42.953  10.667
61523W        W26750  15.007  15.236   1.669
61524W        W26751  10.423   2.750   2.787
61525W        W26752  10.933  42.636  14.333
61526W        W26753  36.273  22.810  14.530
61527W        W26754   2.259   3.700  11.872
61528W        W26755  33.350  38.613   3.080
61529W        W26756   3.255   3.282   4.953
61530W        W26757   7.324  23.409   1.088
61531W        W26758  29.863  39.534   3.689
61532W        W26759  10.789  17.142   0.212
61533W        W26760   9.294  28.986  13.923
61534W        W26761  43.834  29.586  14.343
61535W        W26762  31.836   3.866  12.459
61536W        W26763  31.952  44.974   2.577
61537W        W26764  35.140  30.991   3.743
61538W        W26765   1.294   7.222  11.915
61539W        W26766  28.939   1.096   4.090
61540W        W26767  31.551  42.252   3.760
61541W        W26768  23.706  21.388  11.035
61542W        W26769  22.498  13.589  11.215
61543W        W26770  34.634  35.886   3.018
61544W        W26771  15.108  17.480  12.909
61545W        W26772  26.698  10.184  11.836
61546W        W26773  39.933  18.558  12.630
61547W        W26774  18.523  11.894   2.923
61548W        W26775  41.772  26.017  11.664
61549W        W26776  39.765  16.139  11.125
61550W        W26777  43.740   2.479   2.322
61551W        W26778  16.473  22.132   2.269
61552W        W26779  34.879  28.596  10.224
61553W        W26780   0.536   3.809  10.697
61554W        W26781  20.264   0.812  14.404
61555W        W26782  39.098  39.323  11.183
61556W        W26783  32.641  31.376  11.543
61557W        W26784   0.968   1.831   4.130
61558W        W26785   0.517   4.446  13.812
61559W        W26786  36.975  38.270   1.011
61560W        W26787  30.684  23.746   3.286
61561W        W26788   0.152  38.721   4.630
61562W        W26789   2.382   7.774  12.112
61563W        W26790  36.150  38.572  11.002
61564W        W26791  37.534  39.430   0.414
61565W        W26792  39.601  38.610  10.750
61566W        W26793  31.200  25.761   0.578
61567W        W26794  19.232  19.866   1.921
61568W        W26795  43.253  20.583   1.963
61569W        W26796  29.369  36.164  13.273
61570W        W26797  24.756   9.276  13.313
61571W        W26798  22.926   6.946   0.291
61572W        W26799  29.561   2.054  11.029
61573W        W26800  22.960   0.223   3.255
61574W        W26801  12.777  44.477   4.596
61575W        W26802  10.363   7.612   1.335
61576W        W26803  40.447  23.514   1.799
61577W        W26804   3.416  21.492   2.456
61578W        W26805  24.309  16.770   3.404
61579W        W26806  24.928  20.984   0.483
61580W        W26807  13.289  11.162   2.779
61581W        W26808  33.564   8.480  10.173
61582W        W26809  19.223  16.274  14.787
61583W        W26810  41.403  10.267  12.427
61584W        W26811   5.802  43.782  12.987
61585W        W26812   1.324  15.329  11.147
61586W        W26813  22.477  13.230   4.174
61587W        W26814   0.867  24.916   1.470
61588W        W26815  42.505   1.895   1.819
61589W        W26816  19.439  41.856  10.438
61590W        W26817  10.735  41.122   4.121
61591W        W26818  11.559   7.509   1.418
61592W        W26819   5.188  14.850   3.584
61593W        W26820   5.035  17.468  11.429
61594W        W26821  34.910  43.344   2.350
61595W        W26822  30.479  39.429   3.017
61596W        W26823  13.869   7.928   1.630
61597W        W26824  14.770  26.948   3.630
61598W        W26825  19.292  32.276   2.884
61599W        W26826  16.184  21.991  14.516
61600W        W26827  21.572  38.063   1.946
61601W        W26828   6.252  20.105  12.018
61602W        W26829   2.841   0.475  13.859
61603W        W26830  21.993  37.599   3.654
61604W        W26831   4.276  22.957   2.286
61605W        W26832  17.170  31.558  13.703
61606W        W26833   9.495  15.520   2.659
61607W        W26834  14.719   4.027  14.964
61608W        W26835  21.281  11.709   0.761
61609W        W26836  16.906  28.686   0.282
61610W        W26837  39.712  23.002   2.683
61611W        W26838  29.891  19.134   1.861
61612W        W26839  24.490  36.784  14.399
61613W        W26840  31.663   1.930   4.325
61614W        W26841  31.206  27.924  13.496
61615W        W26842  24.256  19.496  12.988
61616W        W26843  43.999  37.798   1.754
61617W        W26844  14.935  16.777  12.012
61618W        W26845  20.590  26.177  11.180
61619W        W26846  35.192   6.623   2.028
61620W        W26847  35.293  10.165   4.111
61621W        W26848  35.534   0.235   0.942
61622W        W26849  44.699  30.075  12.408
61623W        W26850  30.191   4.555  12.522
61624W        W26851  12.636  36.087  12.907
61625W        W26852  25.405  22.196  11.076
61626W        W26853  22.645   8.874   0.551
61627W        W26854  29.813   2.301   2.172
61628W        W26855  21.197  11.013  14.412
61629W        W26856  43.155   6.608   5.453
61630W        W26857  27.418   8.337   3.256
61631W        W26858  18.527   1.376   4.534
61632W        W26859  28.549   3.954  10.713
61633W        W26860  35.223   0.810  11.443
61634W        W26861  10.543   4.715   1.441
61635W        W26862  18.606   2.916   1.888
61636W        W26863  43.868  35.131  13.175
61637W        W26864  29.879  36.920   3.581
61638W        W26865  20.218   3.601   0.552
61639W        W26866  23.520  36.384   1.280
61640W        W26867  26.547   9.269  13.234
61641W        W26868  27.161   3.698  12.045
61642W        W26869  24.217   2.009  13.157
61643W        W26870  36.350  18.207  12.599
61644W        W26871  11.323  43.045  13.046
61645W        W26872  29.361   4.460   4.957
61646W        W26873  36.924  22.159  11.602
61647W        W26874  24.481  42.817   2.456
61648W        W26875  30.985  30.390  11.535
61649W        W26876   1.447  21.894  10.662
61650W        W26877  20.111  34.904  14.715
61651W        W26878  23.705   5.339   3.547
61652W        W26879  18.493  30.046   0.953
61653W        W26880  29.995  31.663  10.690
61654W        W26881  10.922  15.650  13.301
61655W        W26882  35.393  44.893  11.911
61656W        W26883   5.149  26.970  12.011
61657W        W26884  32.377   4.709  12.447
61658W        W26885  40.138  24.395   0.635
61659W        W26886  24.676  27.560   2.315
61660W        W26887   0.139  22.821  12.954
61661W        W26888   4.400  19.282  11.702
61662W        W26889  34.421  30.327  11.586
61663W        W26890  23.974  25.015   0.954
61664W        W26891   8.290   9.230  11.497
61665W        W26892  22.947  43.943  11.616
61666W        W26893  26.354  23.461   1.893
61667W        W26894  37.081  21.510   4.554
61668W        W26895  18.598   6.427  14.180
61669W        W26896  23.077  15.651   2.029
61670W        W26897  27.485   2.686  11.683
61671W        W26898  18.571  20.445  14.942
61672W        W26899  40.589  20.239  11.614
61673W        W26900  28.899  22.754   1.892
61674W        W26901  35.406   2.616  11.265
61675W        W26902  17.152  32.237   0.042
61676W        W26903  39.742  28.679   3.636
61677W        W26904  20.951  15.755  12.415
61678W        W26905  22.421  29.925  13.780
61679W        W26906   8.518   1.722   4.616
61680W        W26907  35.076  34.886  11.098
61681W        W26908  17.434  32.060  11.808
61682W        W26909  38.282  40.780   0.948
61683W        W26910   0.856  16.031  11.568
61684W        W26911  40.724  30.214   0.094
61685W        W26912  27.705   5.784  10.825
61686W        W26913  27.518  36.115   2.916
61687W        W26914  36.375  25.020   4.703
61688W        W26915  18.036  22.742  14.756
61689W        W26916  11.198  31.965   1.003
61690W        W26917  41.424   2.036  14.860
61691W        W26918  31.393   4.256  11.262
61692W        W26919  13.329  14.860  11.407
61693W        W26920  19.271  16.001   1.216
61694W        W26921   0.628  17.087  13.826
61695W        W26922  15.695   7.258   0.928
61696W        W26923   0.830   1.269   2.377
61697W        W26924  43.283  33.033   4.699
61698W        W26925  28.496  18.657   4.350
61699W        W26926  31.705  29.041  10.667
61700W        W26927  20.731  19.471  14.415
61701W        W26928   5.769   0.079   1.291
61702W        W26929  36.830  18.326   1.610
61703W        W26930  17.113  16.954  10.314
61704W        W26931   7.278   3.456   0.974
61705W        W26932  22.725  25.165  11.992
61706W        W26933   0.093  39.814  12.754
61707W        W26934   2.772  21.307  13.792
61708W        W26935   5.831  37.562   1.069
61709W        W26936   5.439   0.919   3.222
61710W        W26937  10.837   4.051   0.399
61711W        W26938  14.965   2.833   2.379
61712W        W26939  33.854  11.642  12.673
61713W        W26940  34.704  34.869   3.299
61714W        W26941  37.321  23.644  14.363
61715W        W26942  40.784  16.536   3.073
61716W        W26943  37.120  33.359   0.775
61717W        W26944  40.895  17.694   4.750
61718W        W26945   5.464  22.532  10.641
61719W        W26946  42.102  16.269   3.705
61720W        W26947  43.836  29.779  13.872
61721W        W26948  19.640   2.692   4.256
61722W        W26949   5.219  32.502   4.069
61723W        W26950  26.881  16.111   0.491
61724W        W26951   8.608  41.506  10.994
61725W        W26952   3.947  18.763  12.280
61726W        W26953  31.162  38.183  14.297
61727W        W26954  30.585  20.130   2.255
61728W        W26955  27.008  32.163  14.418
61729W        W26956  33.605   7.410  12.057
61730W        W26957  33.506  23.438   0.336
61731W        W26958  29.121  32.875   1.308
61732W        W26959   2.234  29.551   3.650
61733W        W26960   4.509  35.532  12.005
61734W        W26961  29.660  38.570  11.915
61735W        W26962  35.505   0.788  11.923
61736W        W26963   0.128  32.030   4.013
61737W        W26964  37.024  19.687   1.227
61738W        W26965  34.832  13.241  13.296
61739W        W26966  17.592  21.553   4.160
61740W        W26967  27.185  16.438   1.347
61741W        W26968  10.644  26.477   4.715
61742W        W26969  11.399   8.100  12.164
61743W        W26970   0.194   0.244  14.696
61744W        W26971  23.265  35.875   2.732
61745W        W26972  10.618  25.941   0.753
61746W        W26973  20.526   3.075  10.747
61747W        W26974  14.178  20.349   0.648
61748W        W26975  42.725  13.405  11.202
61749W        W26976   3.246   2.713  14.302
61750W        W26977  20.779   1.661   2.776
61751W        W26978   5.669  26.394   1.347
61752W        W26979  38.032  35.147  14.805
61753W        W26980  10.566  22.179   1.896
61754W        W26981  12.684  44.227   5.045
61755W        W26982  44.400   4.239   3.095
61756W        W26983  22.101  39.079   1.317
61757W        W26984  28.787  25.007  11.538
61758W        W26985  19.812  34.970  13.838
61759W        W26986   5.630  15.172  14.915
61760W        W26987  43.000  28.887  11.787
61761W        W26988   2.336  40.617  14.391
61762W        W26989  18.106  40.840  13.906
61763W        W26990  10.165  27.029   0.407
61764W        W26991  17.229  18.756   2.935
61765W        W26992  19.467  29.922   1.083
61766W        W26993   3.178  43.271   2.184
61767W        W26994   4.188  14.434   5.007
61768W        W26995  27.574  32.502  12.599
61769W        W26996   5.182  24.263  14.709
61770W        W26997   4.516  19.312  12.206
61771W        W26998   0.355   3.506  12.543
61772W        W26999  21.084  10.004   4.582
61773W        W27000   1.477  15.148  12.247
61774W        W27001   9.728  13.726  12.069
61775W        W27002  13.747  42.444  14.802
61776W        W27003   0.643  31.930   2.903
61777W        W27004  37.360  29.161   1.038
61778W        W27005  29.543  34.580  10.672
61779W        W27006  26.608  10.661   5.051
61780W        W27007  42.224  33.604   1.603
61781W        W27008  18.579  14.724  12.072
61782W        W27009  24.613  36.303   0.354
61783W        W27010  36.595  25.514   0.410
61784W        W27011  10.947  29.939   3.298
61785W        W27012  31.407  17.004  12.006
61786W        W27013  40.077  21.979  12.040
61787W        W27014   1.306   0.975   2.840
61788W        W27015   0.779  18.767  13.925
61789W        W27016   4.318  41.825   3.715
61790W        W27017  33.547   3.646  14.575
61791W        W27018  17.117   4.364   2.771
61792W        W27019  15.075  11.620  14.322
61793W        W27020   3.389  16.848   1.908
61794W        W27021  42.188  10.868   0.664
61795W        W27022  29.501  37.322   2.249
61796W        W27023  42.084  17.901  11.889
61797W        W27024   3.534  11.422   3.624
61798W        W27025   1.349   7.453  11.054
61799W        W27026  39.334  15.660   0.667
61800W        W27027  23.621   3.680  14.525
61801W        W27028  34.369  19.420  11.639
61802W        W27029   8.330  34.346  10.390
61803W        W27030  20.095   6.763   4.582
61804W        W27031  30.950  18.251   4.846
61805W        W27032  43.063  26.589  11.601
61806W        W27033  16.784  34.646   0.316
61807W        W27034  23.118  23.184   2.805
61808W        W27035  24.584  36.191  13.001
61809W        W27036  25.100   4.652  11.223
61810W        W27037  25.406  12.347  14.295
61811W        W27038  20.062   6.529   1.633
61812W        W27039  14.873  15.349   4.273
61813W        W27040   3.123  18.457  12.527
61814W        W27041  15.146  38.515  12.981
61815W        W27042  29.559  35.908  13.740
61816W        W27043  33.614  16.522  11.700
61817W        W27044  10.598   6.724  13.951
61818W        W27045  33.081   4.378   1.834
61819W        W27046  41.522  31.427  14.567
61820W        W27047   7.610  21.997   1.713
61821W        W27048  22.732  37.846  13.741
61822W        W27049   8.458   2.907   1.876
61823W        W27050  21.960   0.426  10.350
61824W        W27051  35.044  39.041   4.720
61825W        W27052  31.629  19.532  11.206
61826W        W27053  13.345  26.559   4.285
61827W        W27054  31.455   0.535  14.864
61828W        W27055  15.382   9.174   3.671
61829W        W27056   9.750   9.245   4.490
61830W        W27057  14.478  26.632  10.444
61831W        W27058  12.517  40.389   2.726
61832W        W27059  10.962  28.031  11.203
61833W        W27060  36.365  36.869   2.653
61834W        W27061  32.124  12.359  13.420
61835W        W27062  42.998  33.458  11.702
61836W        W27063  38.930  19.362  10.604
61837W        W27064   1.314  11.114   1.824
61838W        W27065   4.340  10.857  14.287
61839W        W27066  38.475   7.438   2.125
61840W        W27067  17.578  11.793  14.014
61841W        W27068  22.304  29.104  10.773
61842W        W27069  30.588  42.408   0.596
61843W        W27070  21.189  32.965   2.301
61844W        W27071  32.060  20.236  13.353
61845W        W27072  44.247  32.603  11.580
61846W        W27073  30.806  29.677  12.597
61847W        W27074  25.781  12.315   3.655
61848W        W27075  24.476   3.428  12.646
61849W        W27076  28.196  24.648  13.535
61850W        W27077  27.861  28.433   3.066
61851W        W27078   9.739  24.276  12.162
61852W        W27079  22.193  43.032  13.414
61853W        W27080  24.559  42.476  14.651
61854W        W27081  39.142   3.779   5.131
61855W        W27082  20.422   6.233  13.965
61856W        W27083  16.087  41.726  13.228
61857W        W27084  32.087  11.851  13.326
61858W        W27085  30.621  24.005   4.623
61859W        W27086  24.780  24.230   0.527
61860W        W27087   3.079  33.467  14.535
61861W        W27088   1.398  19.740   2.333
61862W        W27089  19.009  20.682  14.841
61863W        W27090  23.397  35.396   2.905
61864W        W27091  44.345  10.934   4.348
61865W        W27092  36.069  24.971   2.122
61866W        W27093  23.923  22.084  13.503
61867W        W27094  35.588  39.246   4.082
61868W        W27095  32.093  23.010  13.388
61869W        W27096  26.583  18.994   2.193
61870W        W27097   4.231  25.093   3.400
61871W        W27098  34.403   9.299  10.751
61872W        W27099  19.857  15.717  13.863
61873W        W27100  30.739  29.210  12.344
61874W        W27101   4.946  23.259  10.885
61875W        W27102  26.461  33.590   3.102
61876W        W27103  15.723   0.755   0.419
61877W        W27104   9.412  30.133   3.570
61878W        W27105   6.960  41.050  13.037
61879W        W27106  24.428   4.378  14.841
61880W        W27107   9.544  18.047   1.218
61881W        W27108  40.377  33.499  11.928
61882W        W27109  33.025   4.511  10.707
61883W        W27110  22.170   1.926  12.858
61884W        W27111  43.358  30.193   3.159
61885W        W27112   0.550  13.179   5.031
61886W        W27113  37.682  36.314   4.101
61887W        W27114  12.416  32.484  12.103
61888W        W27115   4.438  15.585   5.057
61889W        W27116  31.038  28.933  13.176
61890W        W27117   5.286  34.895   3.397
61891W        W27118  40.855  18.786   0.269
61892W        W27119   6.231   7.401  13.948
61893W        W27120   2.948  35.826  14.972
61894W        W27121  12.419  16.141   0.387
61895W        W27122  10.816  21.216   4.601
61896W        W27123  28.297  39.689   2.762
61897W        W27124  18.909  33.263   2.696
61898W        W27125  19.646  20.181  13.856
61899W        W27126   4.737  25.968   3.663
61900W        W27127   9.424  24.976   4.281
61901W        W27128  33.231  44.880  13.982
61902W        W27129  37.574   5.315  10.704
61903W        W27130  26.965  41.818   2.866
61904W        W27131  41.798  10.669   4.424
61905W        W27132  22.946  20.519   1.271
61906W        W27133  17.656  15.887   2.458
61907W        W27134  30.124  27.433  14.686
61908W        W27135   8.358  18.535   1.385
61909W        W27136  22.480  30.989   2.244
61910W        W27137  32.110  12.920  14.512
61911W        W27138  24.943   7.339  13.920
61912W        W27139  14.613   6.899  12.958
61913W        W27140  14.413  16.592   2.751
61914W        W27141  26.490  23.053  12.431
61915W        W27142  31.362  38.023   4.710
61916W        W27143  24.368  19.513  10.210
61917W        W27144  33.590  14.080  11.549
61918W        W27145  13.630  42.842  13.799
61919W        W27146   5.661  19.763   4.258
61920W        W27147  20.261  22.267  14.152
61921W        W27148  11.204   8.383   0.562
61922W        W27149  32.996  18.136  14.268
61923W        W27150  22.910  21.971   0.121
61924W        W27151  34.697  15.665   2.748
61925W        W27152  18.325  44.310   1.766
61926W        W27153  28.582   3.482  11.898
61927W        W27154  10.298  34.329   1.859
61928W        W27155  28.892   1.301   1.882
61929W        W27156  39.121  16.676  10.083
61930W        W27157  11.674   6.739   1.810
61931W        W27158  33.586   4.645  12.119
61932W        W27159  38.060   4.836  13.428
61933W        W27160  35.321   8.505  14.017
61934W        W27161  39.952  15.643   2.438
61935W        W27162  17.727  18.795   1.381
61936W        W27163  36.882   1.275   4.807
61937W        W27164  25.130  18.750  11.034
61938W        W27165  43.822   9.963  13.991
61939W        W27166   7.383  38.113  12.494
61940W        W27167  35.779   4.951   1.786
61941W        W27168   6.214  24.929  13.945
61942W        W27169  37.555  16.651  14.870
61943W        W27170  10.682  41.806   4.691
61944W        W27171  21.212  43.785  11.677
61945W        W27172  37.975  13.869  11.651
61946W        W27173  18.034  18.552  13.337
61947W        W27174  43.985  37.828   0.922
61948W        W27175  23.575  35.134   2.148
61949W        W27176   9.768  31.432   4.777
61950W        W27177   9.139  30.871  12.139
61951W        W27178  38.209  24.066   4.243
61952W        W27179  34.777  15.013  13.859
61953W        W27180  32.982   0.348   0.019
61954W        W27181   0.458  10.186   3.781
61955W        W27182  25.599  39.301  10.642
61956W        W27183   0.054  10.129   1.466
61957W        W27184  35.831  32.590  13.332
61958W        W27185   1.768  36.861  11.941
61959W        W27186  36.930  21.116  10.911
61960W        W27187  10.844  11.428  13.388
61961W        W27188   1.792  35.350  11.882
61962W        W27189  39.382  26.098  13.967
61963W        W27190  16.266  44.861   2.216
61964W        W27191  21.969  32.838   2.769
61965W        W27192  44.281  13.727  13.907
61966W        W27193  40.048   7.018   4.733
61967W        W27194   8.771  34.963  13.079
61968W        W27195   9.943  11.685  11.060
61969W        W27196   7.601  37.240   2.782
61970W        W27197  43.496  34.103  14.062
61971W        W27198  16.157   5.380  11.176
61972W        W27199  24.989   2.220   3.467
61973W        W27200  30.511  28.567  12.108
61974W        W27201  20.342  19.650   0.354
61975W        W27202  23.575  40.708  14.353
61976W        W27203  42.098  28.660  14.980
61977W        W27204  14.895  30.408   2.614
61978W        W27205  10.070  44.938   4.063
61979W        W27206  18.019   3.808   2.470
61980W        W27207  17.863  32.668   2.379
61981W        W27208  15.786   5.728  12.103
61982W        W27209  25.715  33.098  11.671
61983W        W27210  36.630  28.893  14.756
61984W        W27211  30.926  25.444   2.217
61985W        W27212  24.704  28.959   3.580
61986W        W27213   9.706  30.615  13.390
61987W        W27214  27.577  32.143  12.052
61988W        W27215   7.378  16.610  14.517
61989W        W27216   5.430  33.192   2.425
61990W        W27217  36.904  12.187   2.597
61991W        W27218  31.926  11.059  12.917
61992W        W27219  31.644   6.858   2.806
61993W        W27220  20.464  28.214  14.895
61994W        W27221  33.979  20.649  13.946
61995W        W27222  11.818  15.167   3.667
61996W        W27223  15.560  25.618  11.738
61997W        W27224  37.553  38.026   0.832
61998W        W27225  18.063   2.383   2.125
61999W        W27226  25.458  20.046  13.215
62000W        W27227  14.994  27.031   1.776
62001W        W27228  28.444  44.326  10.700
62002W        W27229   0.267  28.758   4.139
62003W        W27230  24.278   4.305   2.583
62004W        W27231  12.296  17.755   2.856
62005W        W27232   8.213  39.964   4.579
62006W        W27233  33.059  34.943   2.186
62007W        W27234   9.688  22.191  11.234
62008W        W27235  22.447   3.873  12.925
62009W        W27236   4.484   3.842  12.074
62010W        W27237   6.371  43.005  11.081
62011W        W27238  42.221   2.031  12.046
62012W        W27239  32.376  30.250   4.431
62013W        W27240  10.740  33.940  12.061
62014W        W27241   8.370  34.888   4.639
62015W        W27242  34.993   2.446  11.495
62016W        W27243   1.976  13.261   4.682
62017W        W27244  10.415  19.793  14.417
62018W        W27245   5.130  28.571   5.528
62019W        W27246  16.065  24.542  11.602
62020W        W27247  28.460  20.584  14.040
62021W        W27248  11.305   3.590   1.741
62022W        W27249  43.044  30.502  11.907
62023W        W27250  15.147  32.945   2.693
62024W        W27251  28.978  28.077   3.218
62025W        W27252  10.799  37.841  10.680
62026W        W27253   7.308  44.182  13.017
62027W        W27254  18.157  42.710   4.442
62028W        W27255  18.650  31.398  13.118
62029W        W27256   4.489  12.614   1.032
62030W        W27257  30.901  30.440   4.204
62031W        W27258   3.975  20.424   4.388
62032W        W27259  42.340  17.026   2.260
62033W        W27260  32.842  24.902   0.503
62034W        W27261  22.770  20.597  10.722
62035W        W27262  44.816  39.667   2.789
62036W        W27263  39.051  37.104  14.028
62037W        W27264  34.629   1.501  14.304
62038W        W27265  16.707  19.026  10.731
62039W        W27266  33.406  20.214   2.084
62040W        W27267  38.341  42.920  13.327
62041W        W27268  43.433  34.365   0.451
62042W        W27269   8.916  31.645   3.034
62043W        W27270  32.603   3.318  13.524
62044W        W27271   6.074  22.184   2.676
62045W        W27272  37.033  44.246  14.285
62046W        W27273  39.513  26.971   0.214
62047W        W27274  44.700  36.409   1.226
62048W        W27275  29.508  40.296  12.381
62049W        W27276  11.456  13.251   0.425
62050W        W27277  26.682  31.487   1.860
62051W        W27278   6.238  14.384   1.217
62052W        W27279  23.659  33.831   1.361
62053W        W27280  41.416  15.702   4.010
62054W        W27281   0.672  41.149   2.682
62055W        W27282  34.169  38.832  12.109
62056W        W27283  29.513  16.794   0.984
62057W        W27284  25.977  41.008  10.865
62058W        W27285  31.891  21.163  13.535
62059W        W27286  38.212  25.229  11.908
62060W        W27287  27.056  28.580   2.836
62061W        W27288  33.595  42.437   2.869
62062W        W27289  35.710  17.356  11.984
62063W        W27290   2.779  39.294   4.502
62064W        W27291  33.193  36.220  14.013
62065W        W27292  43.981  10.131   0.726
62066W        W27293  18.184  31.431  12.042
62067W        W27294   3.826  23.096   5.077
62068W        W27295  21.912   4.498   3.646
62069W        W27296  25.005  20.298  13.187
62070W        W27297  42.756  24.283  14.059
62071W        W27298  28.785  35.075  14.423
62072W        W27299  31.239  43.284  13.897
62073W        W27300  32.694  15.567   3.716
62074W        W27301  30.412  44.318   3.566
62075W        W27302   4.388   5.823   2.921
62076W        W27303  24.730   9.483   0.335
62077W        W27304   3.199  30.103  14.812
62078W        W27305  31.933   0.798  14.007
62079W        W27306   0.676   9.700  12.874
62080W        W27307  10.819  24.961   0.805
62081W        W27308  35.748  32.413   2.247
62082W        W27309  35.642   7.453  13.133
62083W        W27310  26.593  18.647   4.487
62084W        W27311  38.250  31.745  11.144
62085W        W27312   4.618  25.042   1.303
62086W        W27313  37.551  32.828  10.668
62087W        W27314  16.097  13.197  11.870
62088W        W27315  26.029  41.088   2.194
62089W        W27316  39.123  39.388  14.271
62090W        W27317  11.053  41.846   0.316
62091W        W27318  37.552  18.823  13.508
62092W        W27319  34.813  22.007   4.177
62093W        W27320   0.882  41.842   0.358
62094W        W27321  12.572   9.226   4.176
62095W        W27322  28.788  24.597  13.400
62096W        W27323  23.145  44.971   9.715
62097W        W27324  42.311  18.807  14.901
62098W        W27325  24.489  22.662   1.325
62099W        W27326   1.696  24.734   2.027
62100W        W27327  42.978  27.948  14.232
62101W        W27328  42.345   7.628  13.096
62102W        W27329  25.605  29.889   2.015
62103W        W27330   4.607   7.216   3.203
62104W        W27331  27.774  34.706   4.533
62105W        W27332   2.413  10.043   0.347
62106W        W27333  18.742  22.508   1.318
62107W        W27334  23.614  44.256  12.181
62108W        W27335  20.787  33.429  12.000
62109W        W27336   1.385  32.749   4.636
62110W        W27337  12.573   8.856   4.594
62111W        W27338  40.049  23.720  10.634
62112W        W27339  23.545  38.768   3.742
62113W        W27340  18.193  35.096  14.424
62114W        W27341   7.422   3.703   2.866
62115W        W27342   4.643  19.856   1.677
62116W        W27343  38.645  24.663   2.290
62117W        W27344  43.914  19.503  12.613
62118W        W27345  33.353  29.233   2.431
62119W        W27346  18.106  31.719  11.627
62120W        W27347   9.351   0.266   2.425
62121W        W27348  27.649  12.749   0.521
62122W        W27349  36.648   8.653  14.072
62123W        W27350  35.377  24.655   4.149
62124W        W27351  19.253  17.850  12.854
62125W        W27352  40.872  39.976  10.455
62126W        W27353  34.595  28.912  11.996
62127W        W27354  10.509   5.128   2.825
62128W        W27355   5.747  18.711   4.150
62129W        W27356  28.100  13.954   1.659
62130W        W27357  17.975  25.004   1.037
62131W        W27358  22.624  13.384  10.723
62132W        W27359  29.914  28.486   3.157
62133W        W27360  42.922  22.258   2.681
62134W        W27361  24.938  13.409   0.743
62135W        W27362   0.250  40.317   1.844
62136W        W27363   6.302  34.809   3.642
62137W        W27364  37.394  12.276   4.385
62138W        W27365  42.373   4.506  10.648
62139W        W27366  12.937  11.691   4.892
62140W        W27367  27.651  29.881   0.295
62141W        W27368  10.548  25.118  14.233
62142W        W27369  22.152   8.720   0.407
62143W        W27370  34.932  12.974   5.177
62144W        W27371   5.914  22.740  10.732
62145W        W27372  14.911  27.646  11.917
62146W        W27373  30.133  31.767  14.024
62147W        W27374  40.092  41.766   3.313
62148W        W27375  20.931  29.324  13.011
62149W        W27376  31.398  12.059  12.053
62150W        W27377  40.945  42.216   3.139
62151W        W27378  36.112  31.389  10.620
62152W        W27379  29.755  16.728  14.726
62153W        W27380  18.202  31.907  11.167
62154W        W27381  35.425  29.536   4.843
62155W        W27382  36.025  10.262  10.952
62156W        W27383  20.519  39.862   0.900
62157W        W27384  20.285   5.856  13.644
62158W        W27385  37.007  41.800   2.091
62159W        W27386  28.638  14.269   9.823
62160W        W27387  36.392  29.188  13.398
62161W        W27388  32.051  25.767  11.486
62162W        W27389   8.590  44.312   4.613
62163W        W27390  17.191  22.531   3.818
62164W        W27391  36.981  30.837  13.530
62165W        W27392   2.113  11.107  11.996
62166W        W27393  15.557   3.211   4.077
62167W        W27394   8.447  12.209  14.453
62168W        W27395  10.610   4.664   1.950
62169W        W27396  34.298  42.422   3.229
62170W        W27397  12.726  38.897  12.017
62171W        W27398  40.983  40.236  14.447
62172W        W27399  10.673  29.214  13.983
62173W        W27400  30.318  30.023  12.634
62174W        W27401  24.285  11.649  14.568
62175W        W27402  43.058  35.500  12.134
62176W        W27403  11.431  14.512  11.863
62177W        W27404  36.497  19.850  11.481
62178W        W27405  35.051  33.051   1.625
62179W        W27406   3.970   0.819   5.048
62180W        W27407  27.389   6.557  11.143
62181W        W27408   8.906   5.094  10.733
62182W        W27409  19.547   9.376  13.479
62183W        W27410  17.582  10.201  12.474
62184W        W27411  31.892  31.411   0.767
62185W        W27412  22.573   6.021   2.271
62186W        W27413  28.685  18.228   1.215
62187W        W27414  18.572  17.713  12.432
62188W        W27415  39.309   7.608   1.270
62189W        W27416  34.004  16.208   3.661
62190W        W27417  26.061  20.778   4.019
62191W        W27418   0.681  13.322   0.685
62192W        W27419  22.219  16.840  11.006
62193W        W27420  15.249  14.788   1.826
62194W        W27421   0.963  15.209  12.140
62195W        W27422  26.712  35.559  12.966
62196W        W27423  22.803   2.560   1.186
62197W        W27424  32.078  15.826   0.966
62198W        W27425  25.768  10.861  11.174
62199W        W27426  14.651   6.670  10.913
62200W        W27427  13.494   7.214   0.794
62201W        W27428   0.338   8.100  13.730
62202W        W27429  16.120   5.715   4.494
62203W        W27430  24.634   8.649  11.136
62204W        W27431  16.987  29.263  11.534
62205W        W27432  25.180  25.589  13.536
62206W        W27433  16.813   0.878  14.313
62207W        W27434  30.973  35.661  13.338
62208W        W27435  43.456   5.767  11.079
62209W        W27436  43.168  43.320   2.170
62210W        W27437  12.126   7.401   0.747
62211W        W27438  30.386  43.105   4.345
62212W        W27439  37.093   8.802   2.554
62213W        W27440  27.590   8.902   2.637
62214W        W27441  21.831  11.582   3.059
62215W        W27442  33.383  24.886  12.472
62216W        W27443   6.292  22.320   2.217
62217W        W27444   6.146   0.820   2.685
62218W        W27445  19.231  23.503  10.475
62219W        W27446  13.624  10.051   3.137
62220W        W27447  20.625  34.040  13.419
62221W        W27448  33.872   4.936  13.414
62222W        W27449   7.019  34.754   2.335
62223W        W27450  20.541  25.742   3.621
62224W        W27451  44.875  38.508  12.587
62225W        W27452  12.739  43.993  12.353
62226W        W27453  17.297  20.582  11.095
62227W        W27454  44.066  12.940   2.254
62228W        W27455   8.312  27.088   3.671
62229W        W27456  36.476  33.820   4.769
62230W        W27457  23.035  43.563   4.575
62231W        W27458   4.434  14.092  12.113
62232W        W27459   4.271   9.105  14.691
62233W        W27460   5.730  12.376   0.327
62234W        W27461  24.853  39.547  11.156
62235W        W27462  17.757   2.954   1.494
62236W        W27463  12.281  33.964   3.718
62237W        W27464   2.240   6.703  13.605
62238W        W27465  17.504  43.011  10.759
62239W        W27466  18.508  26.384   0.348
62240W        W27467  28.736  15.512  12.953
62241W        W27468  38.507  10.108  10.597
62242W        W27469  25.168   9.719  14.222
62243W        W27470   0.264  41.472   1.200
62244W        W27471  40.416  19.577  10.498
62245W        W27472  37.444   2.092  14.654
62246W        W27473   8.098  31.802   3.073
62247W        W27474  35.692  34.170   0.963
62248W        W27475  13.639  37.518   4.110
62249W        W27476   3.205   9.591   0.216
62250W        W27477   8.365  12.257   0.459
62251W        W27478  26.497  18.634   0.398
62252W        W27479   2.929  33.003   3.715
62253W        W27480  31.546   2.897  14.636
62254W        W27481   6.383  30.063  12.276
62255W        W27482  39.441  40.449  14.788
62256W        W27483  13.273   5.443   2.865
62257W        W27484  43.881  18.537  12.433
62258W        W27485   7.813  43.284  11.507
62259W        W27486   4.517  29.065  14.266
62260W        W27487  11.517  36.463  12.587
62261W        W27488  14.287  36.801  14.016
62262W        W27489   1.491  36.512  12.169
62263W        W27490  14.572  41.435  12.222
62264W        W27491  22.999  36.544  13.944
62265W        W27492   6.210  43.608   0.438
62266W        W27493  37.228  43.376   3.567
62267W        W27494  29.295   5.047   4.361
62268W        W27495   7.145  23.278   2.273
62269W        W27496   1.730  26.422  11.640
62270W        W27497  44.006  32.880  12.966
62271W        W27498  20.945  24.076   3.197
62272W        W27499  31.410  15.309   0.763
62273W        W27500  17.201  13.569  11.865
62274W        W27501   1.529  13.125  10.851
62275W        W27502  20.088  15.847   3.680
62276W        W27503  33.101   7.271   2.445
62277W        W27504  12.835  32.397  11.782
62278W        W27505  34.843  17.280   3.316
62279W        W27506  21.158   9.497   4.544
62280W        W27507  17.659  29.616  13.164
62281W        W27508  39.070   5.307   3.162
62282W        W27509  42.401  11.696  11.611
62283W        W27510   4.299  35.349  14.013
62284W        W27511  26.718  20.331   5.018
62285W        W27512  35.592  43.364  13.480
62286W        W27513  44.874  42.136   2.901
62287W        W27514   7.195   2.050  13.209
62288W        W27515  29.474   0.816   1.261
62289W        W27516  16.639  35.202   2.721
62290W        W27517  14.831  41.012   4.080
62291W        W27518  36.084   8.654   2.226
62292W        W27519  15.610  39.407  10.913
62293W        W27520  24.509  37.446   0.913
62294W        W27521   9.646   0.435   2.828
62295W        W27522  32.923  20.652   4.276
62296W        W27523  36.303  22.639   1.782
62297W        W27524   7.891  34.903  12.820
62298W        W27525  10.149  16.856  11.571
62299W        W27526  28.117  40.985  12.951
62300W        W27527  32.799   5.737   0.682
62301W        W27528  21.002  42.301   2.526
62302W        W27529  35.212  40.458  13.122
62303W        W27530  32.436  21.560   3.723
62304W        W27531  41.928   7.635  13.405
62305W        W27532  27.385  38.574   0.527
62306W        W27533  25.633  41.028   3.283
62307W        W27534   0.828  17.839   4.524
62308W        W27535   5.588   2.391  11.178
62309W        W27536  22.921  23.833  11.192
62310W        W27537  44.329  31.642  10.721
62311W        W27538  23.457  27.396  10.715
62312W        W27539  29.608   5.435  12.433
62313W        W27540  35.465  35.793  14.450
62314W        W27541  11.561  30.448  12.474
62315W        W27542  24.808  16.446   1.398
62316W        W27543  27.318   7.440   1.958
62317W        W27544  18.641  40.818  14.798
62318W        W27545  20.330  32.975   4.723
62319W        W27546  13.133   2.192   0.075
62320W        W27547  25.717  40.614  13.441
62321W        W27548  26.517  12.123  11.619
62322W        W27549  31.716  27.224  11.934
62323W        W27550  36.835  34.829   4.069
62324W        W27551  40.490  31.695   4.237
62325W        W27552  37.123  27.940  10.743
62326W        W27553  41.035  44.287  14.815
62327W        W27554  23.567  31.418  13.896
62328W        W27555  26.386  15.815  11.115
62329W        W27556  42.816  24.823  10.696
62330W        W27557  23.479  44.419  14.078
62331W        W27558  33.446  26.432   3.288
62332W        W27559   9.548   9.744   2.598
62333W        W27560  23.588   4.864   4.221
62334W        W27561  25.224  30.938   1.829
62335W        W27562  13.446  16.205   3.680
62336W        W27563  31.372  31.622   9.287
62337W        W27564   5.437  25.730  10.778
62338W        W27565  11.369  11.406  12.202
62339W        W27566  13.095  24.365  12.405
62340W        W27567  26.517  40.489  11.611
62341W        W27568  12.547  39.147   2.086
62342W        W27569  19.767  15.214   4.149
62343W        W27570  41.851  12.138   2.019
62344W        W27571  38.275  33.804  13.618
62345W        W27572  24.291  37.070  13.014
62346W        W27573   5.238  37.884   0.898
62347W        W27574  28.563  17.111  14.697
62348W        W27575  10.185  20.740   4.101
62349W        W27576   4.264  31.600   3.824
62350W        W27577  30.210  13.854   2.337
62351W        W27578  10.569  31.672  11.648
62352W        W27579  10.578   8.831   0.847
62353W        W27580  33.144  27.420   2.357
62354W        W27581  31.640  39.012   1.649
62355W        W27582   9.936  10.133  11.216
62356W        W27583  35.349  12.884   2.572
62357W        W27584   1.304  25.400   2.401
62358W        W27585  26.715  18.284  11.189
62359W        W27586   9.197  28.237   3.254
62360W        W27587  12.761  17.659   1.367
62361W        W27588  26.144   5.511   3.248
62362W        W27589   4.176  17.068   0.945
62363W        W27590  20.827  14.370  14.588
62364W        W27591  28.655  25.571   2.014
62365W        W27592  29.676   4.821   3.086
62366W        W27593   0.961   0.888  10.893
62367W        W27594  25.186   6.357  14.047
62368W        W27595  32.104   1.229  13.736
62369W        W27596  18.170   9.604  10.764
62370W        W27597   3.121   0.093   4.589
62371W        W27598  27.198   5.719  13.559
62372W        W27599   3.800  33.753  13.295
62373W        W27600  36.683  25.962  14.534
62374W        W27601   9.130  26.595   3.603
62375W        W27602  35.805  27.558   4.034
62376W        W27603  25.954  10.602   2.304
62377W        W27604  22.951  12.137   0.937
62378W        W27605  43.266  11.574   3.244
62379W        W27606  15.335   8.655  13.999
62380W        W27607  42.032   7.917   0.953
62381W        W27608  18.000  41.255  11.513
62382W        W27609   7.953  35.142  11.982
62383W        W27610  26.530  35.968  12.035
62384W        W27611  12.366  20.549  11.385
62385W        W27612  44.719  26.871   3.181
62386W        W27613  35.669  42.755  14.790
62387W        W27614  27.438   5.404   3.355
62388W        W27615   9.245  36.916   4.025
62389W        W27616  16.177  10.588   1.450
62390W        W27617  12.062  31.763  11.506
62391W        W27618  25.016  23.868  11.650
62392W        W27619  38.822  24.642  14.042
62393W        W27620  26.712   5.347  11.165
62394W        W27621  42.246  29.465   2.453
62395W        W27622  23.368   8.990  11.218
62396W        W27623  11.049  24.434  12.511
62397W        W27624  27.527   7.224  13.991
62398W        W27625  41.997  13.886  11.617
62399W        W27626  17.126  16.785  14.517
62400W        W27627   3.373   7.935   3.906
62401W        W27628   5.935  33.176  14.864
62402W        W27629  16.177  15.154   3.151
62403W        W27630  26.622  11.681  14.467
62404W        W27631   8.071  26.541   3.635
62405W        W27632  29.423  29.058   2.352
62406W        W27633  21.998  24.195   3.654
62407W        W27634  21.978  40.188   2.842
62408W        W27635  22.487   3.437   2.441
62409W        W27636   9.329   5.934  10.422
62410W        W27637  43.301  10.735  11.946
62411W        W27638  34.798  11.582  11.212
62412W        W27639  41.067   3.989  11.136
62413W        W27640  30.874  38.012  14.742
62414W        W27641  29.448   2.925  14.043
62415W        W27642   5.166  22.591   1.225
62416W        W27643  15.401  26.679   0.289
62417W        W27644   7.064  34.053   3.698
62418W        W27645  15.675  32.413   4.664
62419W        W27646  29.088   0.908   1.623
62420W        W27647  29.318  12.078  12.471
62421W        W27648  20.270   4.447   2.245
62422W        W27649  18.566  40.489   1.102
62423W        W27650  10.483  13.271   3.280
62424W        W27651  19.128  33.487  13.489
62425W        W27652   5.212  12.891  13.846
62426W        W27653  44.693  19.637  11.982
62427W        W27654  28.098  31.955   4.017
62428W        W27655  20.735  40.358   3.295
62429W        W27656  13.636   4.480   5.079
62430W        W27657  15.752   2.222   5.058
62431W        W27658  27.539  34.266  14.861
62432W        W27659  33.420   5.178   0.934
62433W        W27660  39.396   3.180   0.696
62434W        W27661  28.583  18.222   2.670
62435W        W27662  11.716  38.102  11.514
62436W        W27663  20.602  17.622   4.307
62437W        W27664  30.669  19.514   4.730
62438W        W27665  33.203  30.038  13.851
62439W        W27666  23.951   7.196  11.469
62440W        W27667  34.093  19.308   4.380
62441W        W27668  17.537  25.534  10.811
62442W        W27669  14.327  44.380   2.844
62443W        W27670  16.464   6.630   1.699
62444W        W27671  38.440  15.753  12.347
62445W        W27672  35.088  19.910   2.320
62446W        W27673  41.078  12.322  14.074
62447W        W27674  31.540  25.049  11.946
62448W        W27675   9.344  16.860   5.214
62449W        W27676  39.573  16.307  14.904
62450W        W27677  28.178  38.571   0.796
62451W        W27678  18.672  26.611   0.833
62452W        W27679   5.208   7.113  13.119
62453W        W27680  44.336   5.336  11.304
62454W        W27681  44.467  14.105  14.208
62455W        W27682  22.295   0.211   5.190
62456W        W27683   7.403  30.935  11.247
62457W        W27684  10.995  18.157  13.989
62458W        W27685  44.973  21.171  13.489
62459W        W27686   1.638   0.214  13.621
62460W        W27687   7.812  25.295   1.569
62461W        W27688  35.149  35.522   4.652
62462W        W27689  23.707  37.472   1.290
62463W        W27690  18.641  25.015  14.781
62464W        W27691   6.995  15.032  12.653
62465W        W27692  37.790  26.635   0.272
62466W        W27693   6.903  25.579  10.820
62467W        W27694  37.498   1.878  13.817
62468W        W27695  22.714  24.950   1.823
62469W        W27696   9.815  32.001  14.569
62470W        W27697  29.573  19.587   1.714
62471W        W27698  33.374  33.265   4.305
62472W        W27699  23.711  44.368   0.482
62473W        W27700   1.034   8.459   3.896
62474W        W27701  28.633   8.501   0.669
62475W        W27702  29.888   2.455   4.298
62476W        W27703  11.810  13.513   1.324
62477W        W27704  32.024  28.001  14.005
62478W        W27705  21.124   5.379  10.964
62479W        W27706  24.414   3.693  10.424
62480W        W27707  40.300   3.775  14.480
62481W        W27708  28.658  20.134   3.830
62482W        W27709  15.518   3.590  14.932
62483W        W27710  13.101  11.050   4.112
62484W        W27711  19.556   9.024   3.205
62485W        W27712   4.219  43.493  14.771
62486W        W27713  30.233   7.856  11.700
62487W        W27714  40.276   0.351  11.963
62488W        W27715  36.056  38.383   3.216
62489W        W27716   1.490  28.934   1.072
62490W        W27717  40.995  20.607  13.283
62491W        W27718   6.961  30.528   5.006
62492W        W27719  23.186  22.964   0.854
62493W        W27720  31.454  25.580  11.243
62494W        W27721  19.182  38.006   4.455
62495W        W27722  39.450  38.606  14.096
62496W        W27723  29.024  28.290  14.022
62497W        W27724  16.810   2.324   2.195
62498W        W27725   1.732  16.475  11.727
62499W        W27726  17.286   3.084   2.239
62500W        W27727  26.492  34.503   3.094
62501W        W27728  26.422  20.322   2.810
62502W        W27729   3.563  11.738  12.093
62503W        W27730  22.102  17.470   2.814
62504W        W27731   7.089  38.298  13.001
62505W        W27732  33.886  16.930   0.319
62506W        W27733  11.195  41.830  12.558
62507W        W27734   2.762  30.157   4.171
62508W        W27735   1.008   9.103   0.382
62509W        W27736  27.658   1.836  11.154
62510W        W27737   4.428  25.621  10.711
62511W        W27738   9.713  22.607  12.915
62512W        W27739  22.217  38.454   0.783
62513W        W27740  42.716  33.177  12.073
62514W        W27741   6.487  27.060  11.134
62515W        W27742  16.227  34.642   4.065
62516W        W27743  31.597  35.660   4.078
62517W        W27744  26.736  22.079  14.823
62518W        W27745  24.631  37.091  12.076
62519W        W27746   3.861   4.340   3.193
62520W        W27747  22.670   7.195  12.650
62521W        W27748  22.228   9.223   0.460
62522W        W27749   4.043  39.871  13.590
62523W        W27750  25.684   6.110  14.776
62524W        W27751   8.692  37.395  12.616
62525W        W27752  36.453   4.069  12.697
62526W        W27753  37.512  10.486   2.646
62527W        W27754  17.109  28.358   1.067
62528W        W27755  28.460  44.030  12.015
62529W        W27756  37.924  11.436   4.634
62530W        W27757  31.461  41.910   3.354
62531W        W27758  18.763  31.904  13.545
62532W        W27759  33.429  21.484   2.590
62533W        W27760  27.453  38.456  14.185
62534W        W27761  32.970  37.316   2.159
62535W        W27762  23.543  24.083   4.721
62536W        W27763  18.732  35.748   3.874
62537W        W27764  32.604  40.710  14.195
62538W        W27765  37.910  23.245   0.490
62539W        W27766   3.351  17.240  13.103
62540W        W27767  22.084  21.733   0.283
62541W        W27768  29.487  11.036   2.146
62542W        W27769  14.665  41.068  11.572
62543W        W27770  14.103  22.311  12.172
62544W        W27771  32.636  28.278  14.799
62545W        W27772  18.205  30.887  13.870
62546W        W27773  23.795  40.450  12.499
62547W        W27774  37.804   5.904  11.977
62548W        W27775  22.751  28.406  13.004
62549W        W27776  17.517  22.471   2.984
62550W        W27777  39.505  25.020  13.409
62551W        W27778  30.410  15.165   4.607
62552W        W27779  10.224   0.202  10.273
62553W        W27780  26.468  32.083   3.076
62554W        W27781  28.601  36.481   4.176
62555W        W27782   1.666  28.842  13.952
62556W        W27783   7.241  44.688  11.456
62557W        W27784  35.786  35.559   3.764
62558W        W27785  39.342  14.130   3.224
62559W        W27786  29.391  30.132  14.986
62560W        W27787  16.098  24.552   2.309
62561W        W27788  10.086  39.986  12.095
62562W        W27789  28.444  11.927   3.576
62563W        W27790  33.385  43.976  11.209
62564W        W27791   9.247  17.508  11.549
62565W        W27792  30.560   4.984   2.667
62566W        W27793   9.587  14.213   2.872
62567W        W27794  32.899  15.707  14.506
62568W        W27795   8.667  17.952   0.804
62569W        W27796  28.395  39.925   0.886
62570W        W27797  14.272  18.696   4.039
62571W        W27798  37.552   9.532  10.664
62572W        W27799  19.339   3.411  12.879
62573W        W27800  40.028  17.703   4.763
62574W        W27801  23.456   3.791  14.065
62575W        W27802  33.817  12.695   3.093
62576W        W27803   8.674   7.227  13.804
62577W        W27804  22.559   3.936  13.423
62578W        W27805  16.907   3.860   1.893
62579W        W27806  32.462  28.272  13.916
62580W        W27807  10.362  29.983   1.929
62581W        W27808  14.764   7.911   0.848
62582W        W27809  18.011  24.530   3.778
62583W        W27810   6.975  27.644   0.325
62584W        W27811  12.337   1.319  11.272
62585W        W27812   3.864  11.628   4.378
62586W        W27813  39.141  23.659  11.641
62587W        W27814  33.415  29.462  11.606
62588W        W27815   9.440  39.360   3.581
62589W        W27816  29.558  28.581   4.259
62590W        W27817  16.294   7.413   1.214
62591W        W27818   2.811  13.261   1.248
62592W        W27819  25.721  34.554   2.603
62593W        W27820  26.055  22.565   0.190
62594W        W27821  27.092   8.111  13.980
62595W        W27822  37.121  44.147   1.773
62596W        W27823  29.640   4.529  11.900
62597W        W27824  12.688   6.687  13.608
62598W        W27825  36.585  25.746  13.925
62599W        W27826  41.398  16.403  14.695
62600W        W27827  20.098  33.332  14.407
62601W        W27828   1.901  37.131   2.686
62602W        W27829   8.308  20.416  11.221
62603W        W27830  22.563  31.187   0.287
62604W        W27831  43.445   6.464   3.693
62605W        W27832  39.155  44.807   1.538
62606W        W27833  16.524  18.518  12.628
62607W        W27834  44.495  11.050   2.731
62608W        W27835  33.741  14.822   4.649
62609W        W27836  44.421   9.920  12.150
62610W        W27837   1.396   8.578   4.228
62611W        W27838  29.267  43.839   4.581
62612W        W27839  21.778  44.860  14.348
62613W        W27840  39.525  24.537   3.718
62614W        W27841  10.937   0.367   4.135
62615W        W27842  31.136  19.192  14.438
62616W        W27843   3.468  33.547  12.096
62617W        W27844  14.180  28.393  10.458
62618W        W27845  30.009  40.147  12.256
62619W        W27846  26.037   3.811  12.731
62620W        W27847  34.435  26.161   1.532
62621W        W27848   8.504  16.224  10.797
62622W        W27849  16.687  32.526  12.419
62623W        W27850  40.004  18.019  13.529
62624W        W27851  10.705   9.193   3.937
62625W        W27852  43.133  38.142  14.913
62626W        W27853  34.970  27.950   4.211
62627W        W27854  36.780  33.746   0.913
62628W        W27855   0.923  25.164  13.965
62629W        W27856  27.196  12.345  14.482
62630W        W27857  24.952  18.338  14.521
62631W        W27858  40.871  23.219   0.735
62632W        W27859   7.224  44.550  14.797
62633W        W27860  23.942  28.066   9.376
62634W        W27861  18.233  22.245   3.840
62635W        W27862  16.915  38.361   0.233
62636W        W27863  12.340   1.762   2.744
62637W        W27864  29.404  42.102   4.156
62638W        W27865  22.964  41.090  11.867
62639W        W27866  44.641  28.076  12.135
62640W        W27867   5.508  30.098   3.593
62641W        W27868  21.744  40.797  14.278
62642W        W27869  24.513  13.301   4.344
62643W        W27870  39.876  29.504   3.996
62644W        W27871  20.327   2.839  12.410
62645W        W27872  12.112  23.260   3.611
62646W        W27873   1.030  21.544  13.348
62647W        W27874  21.318  22.299   3.405
62648W        W27875  11.832  15.055  13.452
62649W        W27876   6.588   2.589  14.281
62650W        W27877  29.679   5.363  10.450
62651W        W27878  22.099  37.852   3.190
62652W        W27879  37.271  20.722  12.729
62653W        W27880  15.050   3.248   4.182
62654W        W27881  35.354   0.260   3.290
62655W        W27882  22.745  39.990   3.467
62656W        W27883  37.443  12.231   3.828
62657W        W27884  38.414  43.532  14.706
62658W        W27885  43.997  27.416  12.433
62659W        W27886  18.126  22.709  12.931
62660W        W27887   3.481   3.375  12.995
62661W        W27888  18.946  37.005   1.272
62662W        W27889  28.918  11.733   4.096
62663W        W27890  11.567   6.770  10.606
62664W        W27891  36.779  30.322   5.040
62665W        W27892  40.418  43.635   3.244
62666W        W27893   7.955  18.288  10.652
62667W        W27894  33.977   7.403   0.304
62668W        W27895   2.815  43.535  14.291
62669W        W27896  41.491  19.659   1.980
62670W        W27897  11.605   3.599   2.625
62671W        W27898  22.890  29.330   2.186
62672W        W27899   5.397  35.980  14.965
62673W        W27900  21.971  13.121   0.233
62674W        W27901  37.587  24.218  11.144
62675W        W27902  31.565  15.702   2.238
62676W        W27903   3.486   7.228  12.563
62677W        W27904   8.129  25.387   2.365
62678W        W27905   2.278  11.070  13.020
62679W        W27906  19.707   4.761  10.613
62680W        W27907  32.525   5.615  12.001
62681W        W27908   8.878  42.339   2.736
62682W        W27909  35.785  24.798  11.055
62683W        W27910  36.972  39.203   2.684
62684W        W27911  36.856  22.367  13.524
62685W        W27912  11.929  39.756   1.607
62686W        W27913   0.573  20.392  14.890
62687W        W27914   4.441  15.156   4.169
62688W        W27915  12.447  39.345  14.269
62689W        W27916  10.099  37.811   3.920
62690W        W27917   4.592  31.550   4.780
62691W        W27918  39.930  44.997   2.160
62692W        W27919  17.054  15.227   4.219
62693W        W27920  36.138  33.067   2.618
62694W        W27921  31.560   0.152  12.672
62695W        W27922  15.114  17.301   1.008
62696W        W27923  40.289  13.922  11.705
62697W        W27924   3.669  24.589   2.003
62698W        W27925  25.082  30.339   3.961
62699W        W27926  34.675  25.140   2.422
62700W        W27927  38.918   8.661   4.010
62701W        W27928  40.931   6.481  14.345
62702W        W27929  24.991  19.152   1.340
62703W        W27930  27.574  17.258   1.543
62704W        W27931  13.388  23.120   3.217
62705W        W27932  40.161   1.118  13.935
62706W        W27933   1.501   4.691  13.825
62707W        W27934  26.510  41.511   4.788
62708W        W27935   3.015  44.964  12.065
62709W        W27936  22.267  17.079   1.381
62710W        W27937  27.390  16.013   4.457
62711W        W27938  16.134  32.097   1.994
62712W        W27939   1.139  28.155  11.111
62713W        W27940  14.916  19.687   1.753
62714W        W27941  40.029  10.352  14.964
62715W        W27942  18.522  41.920   4.470
62716W        W27943  14.496   8.267   3.640
62717W        W27944   7.243   8.736   4.689
62718W        W27945  36.957  13.614   2.827
62719W        W27946  17.639  12.884  12.379
62720W        W27947   3.588  27.060   5.390
62721W        W27948  29.258  34.248   4.045
62722W        W27949  21.046  16.758  13.196
62723W        W27950  32.446  22.730   1.479
62724W        W27951  42.295  16.268   2.969
62725W        W27952  28.859   2.321   1.844
62726W        W27953  20.488  42.320   0.169
62727W        W27954  35.573   3.897  14.074
62728W        W27955  20.537  37.976   4.278
62729W        W27956  42.787  14.137   1.360
62730W        W27957  14.367  37.504   0.868
62731W        W27958  39.829  30.082  11.715
62732W        W27959  42.995  23.415  10.430
62733W        W27960   1.810   5.537   4.742
62734W        W27961  10.317  19.604   0.763
62735W        W27962  24.552  39.782   0.964
62736W        W27963   1.239  33.723  10.667
62737W        W27964  40.451  29.969   2.599
62738W        W27965  17.558  27.408   0.357
62739W        W27966  31.743  17.239  14.791
62740W        W27967   9.811   8.258   4.397
62741W        W27968  32.575  23.904  14.534
62742W        W27969   8.805  34.374  12.152
62743W        W27970  33.958   6.161  13.870
62744W        W27971  28.996  18.613  11.892
62745W        W27972   7.020  12.236  14.879
62746W        W27973  10.854  24.178  14.711
62747W        W27974  17.216  25.070   4.216
62748W        W27975  38.985  35.060   4.509
62749W        W27976  16.878   6.359  14.834
62750W        W27977  30.154  38.960  11.115
62751W        W27978  27.223  28.458   4.226
62752W        W27979   7.107  19.522  10.359
62753W        W27980  36.026   5.673   3.691
62754W        W27981  44.989  15.809   0.393
62755W        W27982  39.418  42.273   4.326
62756W        W27983   9.392  41.787  14.128
62757W        W27984  39.044  12.206  14.710
62758W        W27985  35.990  20.231   1.012
62759W        W27986  39.023   5.868  13.021
62760W        W27987  28.402  16.971  11.199
62761W        W27988  23.203  15.599  13.356
62762W        W27989  15.265  43.058   4.723
62763W        W27990   9.389  23.085  12.525
62764W        W27991  40.126  30.621   0.697
62765W        W27992  12.155  29.109   4.330
62766W        W27993   3.319  31.374   1.284
62767W        W27994   8.159  13.839   3.759
62768W        W27995  10.635  44.833  13.858
62769W        W27996  29.558  38.337   3.967
62770W        W27997  31.431  40.851   1.869
62771W        W27998  11.661  32.546  13.328
62772W        W27999  41.266  23.020  13.063
62773W        W28000  14.143  30.837   2.820
62774W        W28001  15.806  33.366   3.278
62775W        W28002  10.471  40.131   4.143
62776W        W28003  40.619  43.454   0.346
62777W        W28004   6.912  22.456  13.635
62778W        W28005  19.207   9.813   3.583
62779W        W28006  36.880  44.980   0.849
62780W        W28007   9.233   7.725  11.047
62781W        W28008  36.620  44.756   3.186
62782W        W28009  21.279  41.946   2.903
62783W        W28010   5.704  10.018  14.380
62784W        W28011  35.662  29.150   4.251
62785W        W28012  16.618  41.808  13.358
62786W        W28013  28.747  10.343  10.635
62787W        W28014   2.868  40.812   3.451
62788W        W28015  34.158  32.275   3.552
62789W        W28016  13.715  13.209  10.459
62790W        W28017  10.367  33.320  12.462
62791W        W28018   3.509  40.037  14.447
62792W        W28019  15.400  29.432  14.965
62793W        W28020   8.859  32.650   5.369
62794W        W28021  44.887  12.477  14.930
62795W        W28022   6.805   1.638  11.471
62796W        W28023  33.510  16.270   3.577
62797W        W28024  40.470  35.452   1.783
62798W        W28025  34.617  44.090   2.856
62799W        W28026   3.973  32.335   4.642
62800W        W28027  43.478  27.099   0.739
62801W        W28028  15.628  31.413  11.123
62802W        W28029  27.992  28.151  10.218
62803W        W28030  34.649  23.997   1.519
62804W        W28031  44.061  27.109   3.015
62805W        W28032  32.505   3.718  10.597
62806W        W28033  24.202  18.625  14.776
62807W        W28034  34.055   1.887   0.064
62808W        W28035   9.702  13.322  12.860
62809W        W28036   7.176  11.573   3.137
62810W        W28037   8.888  21.599   4.272
62811W        W28038  40.192  17.683   3.672
62812W        W28039  21.083  43.283   0.527
62813W        W28040   6.327   3.006  14.952
62814W        W28041   9.239  38.286  12.887
62815W        W28042   2.347  34.366  13.091
62816W        W28043  38.540  32.433   1.489
62817W        W28044  12.746  22.573   3.663
62818W        W28045  44.313  38.285   4.114
62819W        W28046  22.052  37.900   4.084
62820W        W28047  41.986  21.521  12.497
62821W        W28048  20.111  30.710  13.784
62822W        W28049   1.329  34.578  13.556
62823W        W28050  24.662  31.124  12.997
62824W        W28051  17.749  35.445   4.885
62825W        W28052   1.576   2.623   5.048
62826W        W28053  19.636  29.187   0.373
62827W        W28054  33.604  20.061  10.754
62828W        W28055  13.126  18.143  13.064
62829W        W28056   6.118  41.475  13.030
62830W        W28057   4.350  35.099  11.759
62831W        W28058  31.426  16.158   3.295
62832W        W28059  43.267  19.093   1.715
62833W        W28060  24.319  34.579   3.832
62834W        W28061  42.867  13.883  11.064
62835W        W28062  16.949  32.256  13.950
62836W        W28063  33.435  19.874   0.402
62837W        W28064  41.859  22.909   3.759
62838W        W28065  19.499  15.222   2.278
62839W        W28066   3.472  23.444  13.264
62840W        W28067  24.865  15.130   3.388
62841W        W28068  34.931   9.634   2.331
62842W        W28069  18.786   4.300  13.144
62843W        W28070  17.297  35.404  14.851
62844W        W28071  25.175  13.875   2.103
62845W        W28072   8.425   0.278  14.994
62846W        W28073  31.539  40.926   0.949
62847W        W28074  33.962  35.362   1.752
62848W        W28075   9.780   4.505   1.373
62849W        W28076  12.170   2.486   3.613
62850W        W28077  10.360  33.532  13.307
62851W        W28078   8.165  32.940  13.061
62852W        W28079  28.150  21.944  14.181
62853W        W28080  43.144   8.360   2.225
62854W        W28081  14.813  25.122  11.581
62855W        W28082   2.296  10.561   0.314
62856W        W28083  18.664  35.686  10.847
62857W        W28084  28.311  33.368  11.913
62858W        W28085  27.809  36.768  14.459
62859W        W28086   7.500  40.316  12.402
62860W        W28087   3.937  17.137   2.758
62861W        W28088   9.935  35.819   0.028
62862W        W28089  20.742  21.297   2.833
62863W        W28090   3.410   3.245  14.961
62864W        W28091   9.340  18.409  14.347
62865W        W28092   9.929  20.120  12.060
62866W        W28093  13.260   6.276   1.387
62867W        W28094  14.726  10.612  12.935
62868W        W28095  29.291  28.572  13.017
62869W        W28096  21.511  43.262  10.436
62870W        W28097  22.696  33.538   2.190
62871W        W28098  13.697  28.902  11.192
62872W        W28099  19.824  16.996  13.053
62873W        W28100  32.215  24.682   3.053
62874W        W28101  29.971  29.648   3.777
62875W        W28102  17.171  30.406  14.367
62876W        W28103  29.184  38.148   3.665
62877W        W28104  17.317  38.386   3.812
62878W        W28105  41.141  30.252  14.295
62879W        W28106  22.830  35.885   4.534
62880W        W28107  37.585   7.348   2.142
62881W        W28108  21.340  12.813   4.962
62882W        W28109  44.802  13.529  13.943
62883W        W28110   0.763  41.497   1.125
62884W        W28111   7.665  12.048  11.168
62885W        W28112  28.086  16.276   0.250
62886W        W28113  10.741   2.063  10.648
62887W        W28114  34.556  38.523  10.595
62888W        W28115  26.055  20.545   2.512
62889W        W28116  23.097  24.861  12.514
62890W        W28117   6.502   0.918   4.107
62891W        W28118  44.445  35.435  13.556
62892W        W28119  34.086  16.560  10.488
62893W        W28120  10.654   1.586   5.107
62894W        W28121   5.877  34.137   4.218
62895W        W28122  35.904  37.038   4.550
62896W        W28123   7.780  35.485   2.447
62897W        W28124  26.975   3.929   0.792
62898W        W28125  15.158  27.524  14.895
62899W        W28126  18.577   6.478   4.083
62900W        W28127  21.723  24.512  11.247
62901W        W28128  14.482  13.619  12.545
62902W        W28129  36.927   6.709  13.524
62903W        W28130   3.626  30.253  10.346
62904W        W28131   6.428  18.735   0.310
62905W        W28132  39.909  19.630  13.428
62906W        W28133   9.334  43.269   3.279
62907W        W28134  10.828  31.535  13.097
62908W        W28135  18.668  15.913   1.706
62909W        W28136  27.097  25.075  14.523
62910W        W28137  39.935  42.709   1.876
62911W        W28138  26.439  23.554  10.766
62912W        W28139   0.998  38.853  12.891
62913W        W28140  34.080  41.074   1.173
62914W        W28141  26.893   1.273  13.087
62915W        W28142  15.398  36.180  14.261
62916W        W28143  24.733  31.156  10.735
62917W        W28144  39.750  17.326  12.968
62918W        W28145  11.252  43.065   1.713
62919W        W28146  21.495   5.789   2.448
62920W        W28147  20.265   0.658   2.285
62921W        W28148  26.495  24.513  13.381
62922W        W28149  19.209   2.200  13.773
62923W        W28150  17.170  39.035  10.794
62924W        W28151   8.960  42.398   4.846
62925W        W28152   7.626  32.621   1.279
62926W        W28153  30.367   4.313  10.752
62927W        W28154  14.422  38.563   3.748
62928W        W28155  15.338  29.150  12.048
62929W        W28156  12.992  27.226   3.455
62930W        W28157  24.046  32.659  10.970
62931W        W28158  16.468   9.461  11.446
62932W        W28159  43.487  32.556  13.554
62933W        W28160  21.582  21.847   2.751
62934W        W28161   5.766  16.101   3.543
62935W        W28162  17.290   1.331   1.721
62936W        W28163  26.503  15.709  14.875
62937W        W28164   8.656  23.788  11.464
62938W        W28165  20.290  42.491   1.851
62939W        W28166  29.683  18.572   3.615
62940W        W28167   2.513  28.128  14.559
62941W        W28168  44.554  10.693   1.713
62942W        W28169  11.694  24.225  11.115
62943W        W28170  28.319  30.936  12.032
62944W        W28171  44.388  16.760  12.640
62945W        W28172  27.083  41.437  14.456
62946W        W28173  29.772   3.255   2.311
62947W        W28174  28.771  13.144   4.102
62948W        W28175   2.063  41.454   5.296
62949W        W28176   8.500   9.417   0.317
62950W        W28177  32.021  33.583   3.525
62951W        W28178  32.692  41.953  12.494
62952W        W28179   7.457   2.479  12.485
62953W        W28180  42.297   9.765  14.850
62954W        W28181  26.879  20.110   2.795
62955W        W28182  19.519  18.076   0.905
62956W        W28183   9.702  20.653   1.209
62957W        W28184  40.288  42.989  12.478
62958W        W28185  42.362  17.890   2.018
62959W        W28186  25.507   5.706   0.376
62960W        W28187  10.429  21.064  11.065
62961W        W28188  12.665  35.171  14.442
62962W        W28189  41.364  32.891  11.719
62963W        W28190  32.397  21.299  14.984
62964W        W28191  33.506  25.478   3.053
62965W        W28192  44.987  10.728  10.430
62966W        W28193  31.040  39.890  10.170
62967W        W28194  42.370  30.719  11.676
62968W        W28195  38.993  16.881   0.877
62969W        W28196  15.529  34.681   0.731
62970W        W28197  35.652   3.239   0.767
62971W        W28198  32.172  36.588  12.410
62972W        W28199  39.733  36.489  14.016
62973W        W28200  33.130   9.704   4.594
62974W        W28201  12.616  12.868   1.686
62975W        W28202  40.553  33.568  12.984
62976W        W28203  14.360   2.965  10.659
62977W        W28204  20.656  23.086  13.123
62978W        W28205   6.892  23.011  13.596
62979W        W28206  35.433  17.572  11.149
62980W        W28207  15.102  16.123   4.070
62981W        W28208  21.638  15.669   0.838
62982W        W28209   1.456   4.660   4.932
62983W        W28210   1.975  10.555  12.719
62984W        W28211  13.336  36.002   4.695
62985W        W28212  14.350  21.242   9.870
62986W        W28213   2.945  15.747   1.967
62987W        W28214   0.696  23.740  13.423
62988W        W28215   6.899  12.127  11.654
62989W        W28216  42.376  20.859   0.848
62990W        W28217  13.806  37.102  11.890
62991W        W28218   8.715  10.735   4.180
62992W        W28219  33.395   7.178  12.512
62993W        W28220  40.358   2.220  13.586
62994W        W28221  29.009  23.350   0.485
62995W        W28222  31.417  34.998  11.551
62996W        W28223   6.179   1.012   2.210
62997W        W28224  17.688  15.633  10.736
62998W        W28225  33.027  21.800   0.743
62999W        W28226   3.180   1.645  11.960
63000W        W28227   4.113  35.880   1.420
63001W        W28228  11.686  27.073  10.756
63002W        W28229  43.359   4.210   4.706
63003W        W28230  23.601  32.055  13.510
63004W        W28231   4.185   5.152  14.820
63005W        W28232  39.959  26.741   2.773
63006W        W28233  27.590  17.771   1.366
63007W        W28234  24.089   6.952  13.990
63008W        W28235  37.535  43.402  13.593
63009W        W28236   6.433   4.646  12.832
63010W        W28237  17.691  39.207   1.177
63011W        W28238  38.977  39.889  11.942
63012W        W28239   5.235  40.549  13.853
63013W        W28240  12.073  42.029   1.476
63014W        W28241  37.267  10.420   4.027
63015W        W28242  14.203  39.719   3.727
63016W        W28243  25.950  15.358  11.495
63017W        W28244   2.256   0.658  12.226
63018W        W28245   7.786  44.385  13.016
63019W        W28246  18.212  26.020   4.663
63020W        W28247   1.364  41.764  14.568
63021W        W28248  11.441   5.231  10.701
63022W        W28249  28.864  18.837   0.434
63023W        W28250  11.683   2.250   1.847
63024W        W28251  33.462   1.193  11.686
63025W        W28252   6.943   5.253  13.641
63026W        W28253  17.676  25.178   4.933
63027W        W28254  36.067  26.324  12.930
63028W        W28255  35.662  29.358  11.299
63029W        W28256  27.194  24.602  13.274
63030W        W28257   8.074  13.473   0.382
63031W        W28258  33.318   3.000   3.319
63032W        W28259  13.733  36.389  14.218
63033W        W28260  16.105  32.465  13.783
63034W        W28261  10.241  22.749  12.825
63035W        W28262   6.641  18.690  10.799
63036W        W28263  20.699  33.321   1.485
63037W        W28264   1.481  39.101   1.919
63038W        W28265   6.485  21.632  10.376
63039W        W28266  33.548  11.867  11.240
63040W        W28267   2.857  30.121   1.589
63041W        W28268  33.466  19.608   3.238
63042W        W28269  36.658  35.950   1.311
63043W        W28270  19.791  23.138  11.863
63044W        W28271  39.947  21.896   4.646
63045W        W28272   2.947  24.986   4.086
63046W        W28273   5.507   4.428   0.429
63047W        W28274  29.699   8.804   4.206
63048W        W28275  24.819  17.219   4.746
63049W        W28276  16.590   9.829  11.095
63050W        W28277  28.679  32.126   1.409
63051W        W28278  13.566  34.878   1.280
63052W        W28279  39.896  10.207   3.848
63053W        W28280  10.443  15.610  13.482
63054W        W28281  19.467  20.954  14.865
63055W        W28282   1.738  41.177   4.475
63056W        W28283   7.766   6.317   4.708
63057W        W28284  35.390  12.196   0.767
63058W        W28285  24.506  15.844   2.897
63059W        W28286   6.783  26.706   0.295
63060W        W28287  14.942  28.605   2.270
63061W        W28288  42.850   3.646  12.960
63062W        W28289   2.919   5.253   0.016
63063W        W28290  31.585   1.796   3.815
63064W        W28291  23.975  29.173  11.243
63065W        W28292  31.870  18.713   3.249
63066W        W28293   3.986   4.204  14.971
63067W        W28294  29.048  31.313   2.252
63068W        W28295  25.507  20.483  10.678
63069W        W28296  32.282   1.983   1.879
63070W        W28297  38.610   8.106  10.996
63071W        W28298  25.454  37.973   3.148
63072W        W28299  16.700  43.875   2.764
63073W        W28300  15.059  40.064  13.820
63074W        W28301  36.486  43.705  10.740
63075W        W28302  20.947   9.665  14.254
63076W        W28303  25.660   3.429  11.269
63077W        W28304  43.774  41.096  10.794
63078W        W28305  39.460  32.242   0.716
63079W        W28306   6.347   6.301  13.975
63080W        W28307   9.185   1.705   3.297
63081W        W28308  29.095  33.882   1.356
63082W        W28309   6.389  32.001  12.160
63083W        W28310   1.543  35.534   0.953
63084W        W28311   4.332   6.720  11.640
63085W        W28312  27.298   6.832  14.305
63086W        W28313  11.522  43.533   1.407
63087W        W28314  37.094  44.972   4.461
63088W        W28315  26.497   6.187   1.253
63089W        W28316  23.069  21.080   0.957
63090W        W28317  34.547   1.892   1.309
63091W        W28318   9.226  18.910  14.388
63092W        W28319   7.653  16.548   1.803
63093W        W28320  13.911  15.415   0.210
63094W        W28321  14.693  37.884  12.522
63095W        W28322  26.462  20.204  10.652
63096W        W28323  29.471   7.709   1.818
63097W        W28324  44.683  25.445  12.088
63098W        W28325   0.010   2.706   3.840
63099W        W28326  40.529  42.680   0.243
63100W        W28327  43.178  18.627  14.572
63101W        W28328  31.510  32.084   4.298
63102W        W28329  17.845  11.192   4.670
63103W        W28330  41.572  32.401  14.876
63104W        W28331  42.249  42.978   3.655
63105W        W28332  37.239  32.371  12.368
63106W        W28333   5.405  26.696  14.478
63107W        W28334   5.884   9.800  13.036
63108W        W28335  13.325  20.715   4.071
63109W        W28336   9.443  11.616   2.231
63110W        W28337  18.262  11.149   3.669
63111W        W28338  22.729  44.371  12.607
63112W        W28339  41.922  32.972   4.861
63113W        W28340  27.081  21.607  13.454
63114W        W28341  23.121  35.870  11.563
63115W        W28342  19.211   6.058   1.922
63116W        W28343  26.613   6.884   3.388
63117W        W28344   8.944  24.532   3.357
63118W        W28345  15.743  22.162   3.536
63119W        W28346  36.793  34.999  12.978
63120W        W28347   4.203  44.335  14.876
63121W        W28348   3.383  23.945   3.230
63122W        W28349  35.065  24.775  13.906
63123W        W28350  25.965  37.398  11.944
63124W        W28351   5.875  13.653   0.426
63125W        W28352  28.019  37.637  10.657
63126W        W28353  33.373  32.053   1.797
63127W        W28354  26.512  12.496   1.890
63128W        W28355  33.075  33.880   4.753
63129W        W28356  35.471  30.206   4.273
63130W        W28357   5.704  30.270  13.959
63131W        W28358  13.450  30.510  14.259
63132W        W28359  44.987  12.740   1.558
63133W        W28360  12.326  26.897   0.321
63134W        W28361  13.731  41.869  13.060
63135W        W28362   8.440  31.633   0.576
63136W        W28363  24.474  16.260  12.089
63137W        W28364   3.933  22.790   1.955
63138W        W28365  25.612  10.881  14.379
63139W        W28366  43.340  11.645   4.580
63140W        W28367  31.905   3.501   1.809
63141W        W28368  43.909   7.202  14.584
63142W        W28369  38.799  16.710   0.425
63143W        W28370   1.669  31.486  10.694
63144W        W28371  13.826  21.163   2.274
63145W        W28372  36.333  28.285   4.601
63146W        W28373  35.488   1.703  11.522
63147W        W28374  29.242  44.931   3.685
63148W        W28375  43.021  40.332   0.484
63149W        W28376  25.067  42.068  13.171
63150W        W28377  38.791  20.319   2.261
63151W        W28378  44.995   7.275  11.224
63152W        W28379   9.868  24.449   0.772
63153W        W28380  16.190  44.508   0.934
63154W        W28381  43.035   3.214  12.768
63155W        W28382  22.652   9.293  14.714
63156W        W28383  26.690   0.314  13.830
63157W        W28384   0.141  19.935   1.876
63158W        W28385  17.933   6.648   0.505
63159W        W28386  42.420   5.328   5.474
63160W        W28387  33.392  25.477  14.934
63161W        W28388  22.336   0.729   3.472
63162W        W28389   0.056  34.288  13.022
63163W        W28390   0.759  29.490  11.570
63164W        W28391  39.088   6.143   1.903
63165W        W28392   1.813  12.605  13.758
63166W        W28393  16.885  26.161   4.405
63167W        W28394  30.043  42.158  14.952
63168W        W28395   0.721  38.127  11.589
63169W        W28396  32.412  21.077   1.879
63170W        W28397   2.857   8.819   0.733
63171W        W28398   1.982  15.811  10.735
63172W        W28399  22.107   6.273  13.510
63173W        W28400  15.376  33.462   4.152
63174W        W28401  26.423   8.654   1.333
63175W        W28402  38.306   4.524   3.211
63176W        W28403  17.585  32.416   0.402
63177W        W28404  36.106  25.631   3.346
63178W        W28405  28.409  19.808  12.931
63179W        W28406  21.198   5.154   3.777
63180W        W28407  23.821  20.999  14.219
63181W        W28408   0.862  15.681   0.047
63182W        W28409  24.741  13.741   4.444
63183W        W28410  29.176  16.303  13.937
63184W        W28411  12.722  35.501   2.746
63185W        W28412  21.052  42.407  11.208
63186W        W28413   9.188  29.858  13.497
63187W        W28414   4.530  18.106   3.405
63188W        W28415  29.446  10.279   1.703
63189W        W28416  35.287  17.713   3.131
63190W        W28417  32.738  37.557  13.987
63191W        W28418  41.519  29.924  14.422
63192W        W28419  27.716  13.357  11.908
63193W        W28420  20.580   9.319  12.796
63194W        W28421  40.282  14.934  14.834
63195W        W28422  25.909  20.852   0.117
63196W        W28423  29.544  29.694   1.922
63197W        W28424  43.213  30.101  10.630
63198W        W28425  32.170   2.859  13.795
63199W        W28426  41.355  19.542  10.663
63200W        W28427  30.798  37.769   2.731
63201W        W28428  42.713  16.664   4.371
63202W        W28429  40.774  10.708   3.569
63203W        W28430  40.282  30.380   2.886
63204W        W28431  33.899  34.094   3.680
63205W        W28432  27.125  37.273   0.446
63206W        W28433  11.690  39.485   3.977
63207W        W28434  10.124  38.885  13.452
63208W        W28435   6.915   8.252  14.853
63209W        W28436  23.120  20.295   2.144
63210W        W28437  41.458  28.695  11.925
63211W        W28438  26.527  22.528  11.718
63212W        W28439  21.612  33.664   2.274
63213W        W28440  38.489   8.730   1.177
63214W        W28441  44.394  25.046  12.375
63215W        W28442  42.956  27.505  12.031
63216W        W28443  14.637  39.501  10.523
63217W        W28444   4.469  32.401  14.939
63218W        W28445  41.937  29.506   4.513
63219W        W28446   7.694  34.653  11.173
63220W        W28447   7.353  24.772  12.541
63221W        W28448   7.276  17.179  12.040
63222W        W28449  34.569  11.885  10.224
63223W        W28450  12.357  23.213  13.095
63224W        W28451  38.638  39.002   3.439
63225W        W28452  35.422  19.186   3.217
63226W        W28453   6.784  31.351   4.471
63227W        W28454   8.135  17.572   0.421
63228W        W28455   9.337  17.477   0.391
63229W        W28456  11.742  39.139  11.500
63230W        W28457   7.352  24.934  14.041
63231W        W28458  37.048  40.999   3.224
63232W        W28459   7.480  37.031  12.863
63233W        W28460  25.568  28.068   1.710
63234W        W28461   9.233   6.769   3.338
63235W        W28462   5.430  24.066  10.499
63236W        W28463  41.074  20.607   0.303
63237W        W28464  44.161   6.688  13.776
63238W        W28465   7.161   9.005  11.620
63239W        W28466  42.396   5.160  13.308
63240W        W28467  28.169  24.507   2.273
63241W        W28468   7.407   7.142   2.748
63242W        W28469  25.037  16.837  13.461
63243W        W28470   7.165  22.611  12.535
63244W        W28471  30.398  19.705  11.480
63245W        W28472  23.625  40.279  10.716
63246W        W28473  29.208  13.027  13.101
63247W        W28474  44.307   5.886  12.126
63248W        W28475  29.257   0.004   1.937
63249W        W28476  28.935  41.751  14.339
63250W        W28477  13.109   8.348  13.791
63251W        W28478  16.079   0.424  12.132
63252W        W28479  33.976  12.396   3.874
63253W        W28480  30.880  31.401  13.885
63254W        W28481   3.401  28.239  12.823
63255W        W28482  38.075   6.624   3.188
63256W        W28483   4.611   7.839   4.076
63257W        W28484  40.309  19.206  10.909
63258W        W28485   7.508  36.382  11.625
63259W        W28486  21.256  30.837  12.898
63260W        W28487  29.145  27.180  12.921
63261W        W28488   5.807  23.111  11.234
63262W        W28489  28.029  13.658   0.186
63263W        W28490  30.178  11.624   1.102
63264W        W28491  38.772  44.340  12.442
63265W        W28492  37.573  42.757  12.312
63266W        W28493  12.760  43.270  14.450
63267W        W28494  37.373  40.577  14.779
63268W        W28495  33.473  15.717  12.141
63269W        W28496   1.928   7.983   3.095
63270W        W28497   2.375  30.893   2.235
63271W        W28498   7.307  31.392   2.133
63272W        W28499   4.394  32.021   1.879
63273W        W28500  21.535  20.111  12.963
63274W        W28501  23.496  44.516  14.997
63275W        W28502  23.721  11.300   1.450
63276W        W28503  21.486  28.049  14.707
63277W        W28504  36.311  12.248  10.671
63278W        W28505  38.026  26.921  12.050
63279W        W28506   2.319   1.669  14.086
63280W        W28507  42.857  30.977   3.183
63281W        W28508  38.343  23.764  12.628
63282W        W28509  13.952  28.204  13.850
63283W        W28510  27.727   9.708  14.596
63284W        W28511   7.904   4.038  11.587
63285W        W28512  20.735  12.515   2.829
63286W        W28513  12.135  15.119  10.661
63287W        W28514  20.957   3.284  14.419
63288W        W28515  33.448  21.587   2.097
63289W        W28516  43.010  13.636   1.386
63290W        W28517  22.022  11.937  12.512
63291W        W28518  25.663  22.750  14.917
63292W        W28519  16.175   9.156   1.158
63293W        W28520  31.053  40.017  12.004
63294W        W28521   9.250  25.496  11.163
63295W        W28522  42.591  36.603  14.507
63296W        W28523  34.545  20.061  12.435
63297W        W28524  14.634  20.444   4.598
63298W        W28525  37.817  25.054   2.372
63299W        W28526  38.248  22.944  14.198
63300W        W28527  14.072   2.730  13.260
63301W        W28528  34.277  30.977  11.129
63302W        W28529  21.251  37.952  13.687
63303W        W28530  15.389  22.220   3.964
63304W        W28531   1.513  40.007  12.652
63305W        W28532  39.529   9.408   3.861
63306W        W28533  41.416  31.314   4.528
63307W        W28534  16.599  10.706   1.154
63308W        W28535  20.121  26.559   0.861
63309W        W28536   8.281  12.014   4.041
63310W        W28537   0.331  30.579  11.404
63311W        W28538  11.821   3.564   4.137
63312W        W28539  25.397  13.201   4.806
63313W        W28540  11.359   5.656  12.095
63314W        W28541  36.750   1.791  14.302
63315W        W28542  32.911  14.847   2.322
63316W        W28543  41.245  44.568  10.826
63317W        W28544  31.816  43.469  13.093
63318W        W28545  36.509  17.816  11.575
63319W        W28546  13.999  29.369   2.581
63320W        W28547  29.657  43.195   2.760
63321W        W28548   5.362  12.178  11.147
63322W        W28549  31.358  11.845   2.353
63323W        W28550   4.052  21.028  11.231
63324W        W28551  44.133  12.069  11.028
63325W        W28552  26.154  42.207   3.663
63326W        W28553  34.660   7.662   3.223
63327W        W28554  34.923  12.725  11.313
63328W        W28555  12.849  34.571  14.554
63329W        W28556  44.501  20.843   4.544
63330W        W28557  32.424  13.748   1.834
63331W        W28558  40.065   0.802  13.492
63332W        W28559  19.641  15.791  14.825
63333W        W28560  11.907  33.870  12.612
63334W        W28561  28.466  20.313  12.890
63335W        W28562   3.944  41.733   0.368
63336W        W28563  23.565  12.870   3.599
63337W        W28564  15.699  43.586   4.213
63338W        W28565  27.104  28.634   1.392
63339W        W28566  23.773  44.347   4.505
63340W        W28567  42.855   2.202   3.401
63341W        W28568  36.777  31.067  12.179
63342W        W28569  26.571  35.901  13.347
63343W        W28570  12.680  44.003  13.811
63344W        W28571  27.385  39.045  13.432
63345W        W28572   4.000   8.473  11.534
63346W        W28573  15.358  30.176   1.433
63347W        W28574  23.077  41.101  13.832
63348W        W28575  34.424   3.458   3.691
63349W        W28576  41.190   0.003   2.328
63350W        W28577  18.065  24.926   2.023
63351W        W28578   4.714  16.609  13.148
63352W        W28579   4.375  28.085  11.516
63353W        W28580  37.131  21.883  11.224
63354W        W28581  43.033  23.645   4.890
63355W        W28582  42.491   1.933  11.628
63356W        W28583  35.904  11.627   0.412
63357W        W28584  23.210  16.631  12.490
63358W        W28585  11.098  36.392   4.504
63359W        W28586   7.391  11.680   2.672
63360W        W28587   3.170  29.440  13.389
63361W        W28588  19.087   1.419   1.920
63362W        W28589  37.822  13.221  13.325
63363W        W28590  37.053  41.479   4.466
63364W        W28591  29.889   2.087   0.386
63365W        W28592  12.817  37.881  14.886
63366W        W28593  34.206   2.887   1.798
63367W        W28594  18.370   4.838  12.069
63368W        W28595   7.601  34.438   2.925
63369W        W28596  14.191  10.188  12.325
63370W        W28597   3.125  43.874   3.654
63371W        W28598   8.262  28.431   2.285
63372W        W28599  29.035  36.353  10.769
63373W        W28600  43.692  30.452  14.380
63374W        W28601   4.719  29.153   0.016
63375W        W28602  38.507   6.317   3.180
63376W        W28603   7.146  29.642   0.817
63377W        W28604  26.206  14.696   1.013
63378W        W28605   5.866  13.644   0.942
63379W        W28606   7.259  32.911   0.456
63380W        W28607  43.704  36.764   4.772
63381W        W28608  22.447  25.761  11.227
63382W        W28609  20.797  10.165  12.594
63383W        W28610  37.602   4.327  12.609
63384W        W28611  35.488  13.059  12.989
63385W        W28612  39.404  36.997  11.878
63386W        W28613  37.611   1.957   0.672
63387W        W28614  31.453  17.840   4.068
63388W        W28615  43.986   9.238  10.711
63389W        W28616   6.548  42.793  13.392
63390W        W28617  22.285  36.286   1.967
63391W        W28618  41.376   3.734  14.546
63392W        W28619  42.907  21.168  12.805
63393W        W28620  33.239   0.975  14.390
63394W        W28621   9.637  38.716  12.904
63395W        W28622  21.958  26.197   3.221
63396W        W28623  40.527  30.331   4.935
63397W        W28624  19.846   2.518  14.897
63398W        W28625  12.313  31.750  10.248
63399W        W28626  22.153   1.525   3.034
63400W        W28627  17.151  43.320  11.063
63401W        W28628  24.920  25.668   0.832
63402W        W28629  34.659  40.443  11.357
63403W        W28630  39.300  28.789   2.432
63404W        W28631  38.700  39.995  10.066
63405W        W28632  17.673  23.254   4.742
63406W        W28633  26.636  44.186   2.404
63407W        W28634   9.333  11.625  12.060
63408W        W28635  25.197  26.197   4.179
63409W        W28636  32.656  24.660   2.797
63410W        W28637  24.598  12.833   1.574
63411W        W28638  31.475  24.313   0.863
63412W        W28639  37.433  30.535   1.848
63413W        W28640  15.613  23.915   3.764
63414W        W28641  14.138  37.659   0.404
63415W        W28642  24.713  18.067   2.147
63416W        W28643  36.892  37.120  11.082
63417W        W28644  37.928  27.954  14.789
63418W        W28645  27.472  20.305  12.036
63419W        W28646  12.276  44.275  13.599
63420W        W28647  28.646  23.995  12.412
63421W        W28648  12.726  20.075  12.013
63422W        W28649   0.345  39.035  11.201
63423W        W28650  36.370  10.421  14.385
63424W        W28651  12.222  30.570   1.764
63425W        W28652  12.163   8.089   4.728
63426W        W28653  32.253  35.837  11.316
63427W        W28654  22.003  34.375   0.590
63428W        W28655  40.326  25.837   0.969
63429W        W28656  38.658  39.082   9.916
63430W        W28657  44.072  28.401  14.942
63431W        W28658  30.976  19.055  11.455
63432W        W28659  25.822  12.469  10.312
63433W        W28660  35.947  29.193  12.443
63434W        W28661   8.440  19.050   1.642
63435W        W28662  21.698  12.050   1.626
63436W        W28663  12.500  40.324   1.382
63437W        W28664  44.240  34.761   3.177
63438W        W28665   1.852  10.905   1.177
63439W        W28666  35.967  32.131  13.156
63440W        W28667  42.834  13.815   3.600
63441W        W28668  14.291  44.832   3.156
63442W        W28669  27.613   6.352  11.686
63443W        W28670   4.398  10.651  13.379
63444W        W28671   4.895   5.199   3.684
63445W        W28672  33.173  25.676  12.352
63446W        W28673   9.091  14.150   3.762
63447W        W28674  10.605  25.167   1.286
63448W        W28675  29.332   2.783   0.346
63449W        W28676   9.165   1.561  14.924
63450W        W28677   0.340   3.954   3.734
63451W        W28678   8.092   2.680   4.618
63452W        W28679  39.182  39.624   1.337
63453W        W28680  37.309  11.127  12.118
63454W        W28681   1.236  38.358   3.823
63455W        W28682  14.825  37.417   4.564
63456W        W28683  43.886  16.517   1.644
63457W        W28684  33.854   2.738  11.985
63458W        W28685  13.494   6.284  13.036
63459W        W28686  35.292  42.825   0.906
63460W        W28687  38.063  16.528   3.733
63461W        W28688  44.052  22.972  12.144
63462W        W28689  24.244  16.478  12.530
63463W        W28690  39.676  41.482  11.671
63464W        W28691  42.484  23.282   4.110
63465W        W28692  26.816  42.845  11.998
63466W        W28693  15.780   9.114  12.966
63467W        W28694  16.067   4.365   4.154
63468W        W28695   4.938   0.893  13.642
63469W        W28696  16.557   3.407  12.630
63470W        W28697   5.681  35.778  10.710
63471W        W28698  30.140  38.694  13.027
63472W        W28699  11.850  30.220   1.770
63473W        W28700   6.365   5.952   3.804
63474W        W28701  26.960   6.264   2.077
63475W        W28702  13.027  38.974   4.543
63476W        W28703  23.958  13.200  13.187
63477W        W28704  23.963  24.200   3.255
63478W        W28705  36.382  33.015  14.559
63479W        W28706  22.679  17.984   3.246
63480W        W28707  41.971  37.354  12.973
63481W        W28708  33.939  43.290   2.657
63482W        W28709  37.446   7.794  14.287
63483W        W28710   6.807  16.191  13.402
63484W        W28711   9.315  17.169   0.823
63485W        W28712  36.950  34.360  13.420
63486W        W28713   0.540  14.396  13.263
63487W        W28714  23.165  19.548  11.535
63488W        W28715   1.254  36.418  13.091
63489W        W28716  36.737  30.055   2.197
63490W        W28717  34.974   5.844   0.022
63491W        W28718  14.664  11.789   1.696
63492W        W28719   1.491  13.247   0.265
63493W        W28720  36.944  16.022  10.575
63494W        W28721  23.124  24.220   2.842
63495W        W28722   0.955  18.846  12.081
63496W        W28723   2.235  23.419  11.037
63497W        W28724  33.365  25.395   1.332
63498W        W28725  22.818  15.516   5.065
63499W        W28726   7.645   1.464   4.363
63500W        W28727   9.404  33.818   9.927
63501W        W28728   3.667  10.396  10.491
63502W        W28729  39.905  30.327  14.422
63503W        W28730  43.897  17.585  14.473
63504W        W28731  30.053  16.242   4.001
63505W        W28732  22.334  28.665  14.388
63506W        W28733  28.053  24.611  10.786
63507W        W28734  34.934  25.459   3.723
63508W        W28735  10.677  10.804  14.480
63509W        W28736   2.311   8.792  14.475
63510W        W28737  32.692   0.857  12.059
63511W        W28738  13.618  12.713  13.337
63512W        W28739  43.245  13.738  12.865
63513W        W28740  19.742  42.406  12.071
63514W        W28741  37.366  38.242   4.649
63515W        W28742   4.735  40.159  13.224
63516W        W28743  16.150  20.388  13.632
63517W        W28744   7.503  44.177  13.498
63518W        W28745  27.304  22.489   1.637
63519W        W28746   3.545  42.476   1.410
63520W        W28747   3.905  30.309   3.577
63521W        W28748  22.275  34.898  13.929
63522W        W28749   0.805  24.295   2.781
63523W        W28750  44.021  31.423   1.136
63524W        W28751  30.185  28.063   2.259
63525W        W28752  32.198  39.323   2.362
63526W        W28753  12.571  35.642  13.792
63527W        W28754   6.103  16.694  12.031
63528W        W28755  33.753  28.622   1.869
63529W        W28756  14.209  16.134   4.355
63530W        W28757  23.668   2.554   3.277
63531W        W28758  19.694  23.248   1.857
63532W        W28759  42.102  34.007   0.482
63533W        W28760  17.749  41.555   4.119
63534W        W28761  10.666  28.413   2.474
63535W        W28762  31.633  29.594  12.737
63536W        W28763  12.107  43.780   4.401
63537W        W28764  19.593  42.781  12.427
63538W        W28765  19.299  16.298   4.767
63539W        W28766  34.528  22.581   4.825
63540W        W28767  11.315   0.945  11.933
63541W        W28768  41.350  43.890  13.335
63542W        W28769  35.208  30.701   4.989
63543W        W28770  24.808  21.097  10.309
63544W        W28771  24.677  12.471   2.535
63545W        W28772   6.822  20.131  14.942
63546W        W28773   2.748  15.299   0.790
63547W        W28774  14.485   9.428   1.576
63548W        W28775   4.671   1.215  11.330
63549W        W28776  17.263  28.961  13.244
63550W        W28777  31.303  38.061  10.693
63551W        W28778  12.620  12.146   3.007
63552W        W28779   1.040  14.988   2.320
63553W        W28780  19.799   3.933  11.614
63554W        W28781  23.643   0.818   2.187
63555W        W28782  43.886   4.839  11.438
63556W        W28783  28.714  26.586  10.022
63557W        W28784  42.042   6.521   2.394
63558W        W28785  16.773  33.866   4.126
63559W        W28786  20.117  29.683   0.930
63560W        W28787  36.808  32.458  13.412
63561W        W28788  30.526  40.249   1.931
63562W        W28789  12.875   3.972   3.150
63563W        W28790  20.486  10.256   3.468
63564W        W28791  19.765  19.119   4.163
63565W        W28792  25.714  18.534  14.083
63566W        W28793  10.546  44.818   2.136
63567W        W28794   0.417  39.821   3.394
63568W        W28795  26.459  33.092   2.762
63569W        W28796   3.489  42.831  12.540
63570W        W28797  31.918  44.521  14.959
63571W        W28798   0.545  35.584   0.298
63572W        W28799   1.878  29.913   4.594
63573W        W28800  15.064  28.040  14.869
63574W        W28801  18.528   8.753   1.183
63575W        W28802   6.271  31.378  14.952
63576W        W28803  21.139   6.149   3.812
63577W        W28804  42.321  27.501   0.288
63578W        W28805  34.029  18.222  13.242
63579W        W28806  41.112  26.427   1.332
63580W        W28807  23.866  17.073   4.732
63581W        W28808   6.669  44.220   3.616
63582W        W28809  36.912  26.585  13.787
63583W        W28810  25.605   9.308   2.111
63584W        W28811   6.185  19.700   0.369
63585W        W28812  37.017  44.530  12.124
63586W        W28813  13.868  23.132  13.988
63587W        W28814   9.492  43.319  12.850
63588W        W28815   3.779  36.541  11.435
63589W        W28816  34.102  13.226   2.334
63590W        W28817   6.887  36.175   1.797
63591W        W28818  28.185  42.392   2.922
63592W        W28819  31.170  29.861  11.535
63593W        W28820  35.469  20.115   4.478
63594W        W28821  34.545  19.097   3.586
63595W        W28822  34.355   1.352  14.735
63596W        W28823  31.453   2.372   4.083
63597W        W28824  30.035  43.737   4.856
63598W        W28825  38.776  37.110   4.990
63599W        W28826  43.552  13.140  12.503
63600W        W28827   1.193   4.825  14.289
63601W        W28828  30.124  21.712  11.534
63602W        W28829  31.698  29.970   3.193
63603W        W28830  15.508   6.299   2.239
63604W        W28831  38.903  27.280  14.355
63605W        W28832  19.703   4.118   1.368
63606W        W28833  44.327  21.683   0.305
63607W        W28834  24.490  21.327   1.345
63608W        W28835   6.547  22.757   0.824
63609W        W28836  38.026  34.724   9.983
63610W        W28837   9.779  19.264  11.518
63611W        W28838  39.257  33.511   2.837
63612W        W28839  26.351  43.464  11.510
63613W        W28840  34.510  33.378   0.809
63614W        W28841   1.302   2.830   2.920
63615W        W28842  32.884  20.676  11.635
63616W        W28843  12.617  43.369  10.685
63617W        W28844  41.925  44.762   0.751
63618W        W28845  11.564  39.410  13.412
63619W        W28846  39.329  29.140  12.817
63620W        W28847   8.280  18.157   2.919
63621W        W28848  17.885  15.672  14.422
63622W        W28849  16.629  17.700  14.725
63623W        W28850  38.250  40.984   3.697
63624W        W28851   9.158  13.070  13.434
63625W        W28852  10.157  42.282   1.354
63626W        W28853  23.086  11.611  12.955
63627W        W28854  10.081  24.211   1.461
63628W        W28855  28.162  42.893  10.712
63629W        W28856  23.433  23.619   2.165
63630W        W28857  25.422  41.750  13.977
63631W        W28858   8.185   4.492  11.552
63632W        W28859  31.581   3.652   4.485
63633W        W28860  28.285   3.578   4.091
63634W        W28861  21.115   8.220   1.814
63635W        W28862  28.034   2.004   1.354
63636W        W28863  12.686  40.390   3.212
63637W        W28864  11.029  12.705  11.248
63638W        W28865  39.521  17.084  13.450
63639W        W28866  40.000   6.179  12.157
63640W        W28867  11.729  31.035  14.503
63641W        W28868  37.875  22.204   3.153
63642W        W28869  38.237  22.127  11.688
63643W        W28870  32.031  29.150   2.379
63644W        W28871  26.910   3.688  13.905
63645W        W28872  40.917   2.571   1.989
63646W        W28873  30.690  37.374  13.060
63647W        W28874  39.355  31.540   0.047
63648W        W28875  30.933  29.506  10.742
63649W        W28876  37.895   5.780  14.917
63650W        W28877  38.002  13.383  13.834
63651W        W28878  31.562  13.224   3.210
63652W        W28879  18.585  31.169  14.888
63653W        W28880  20.602  37.008   1.284
63654W        W28881  16.140   4.141   4.610
63655W        W28882   8.130   6.792   3.299
63656W        W28883  19.490  13.787  11.588
63657W        W28884  36.118   7.247  12.560
63658W        W28885  43.132  28.045  10.838
63659W        W28886   6.365  21.588   1.822
63660W        W28887  40.676  24.011  13.991
63661W        W28888  28.961  41.833   1.850
63662W        W28889  41.350   7.694   2.727
63663W        W28890   3.996   1.768  11.644
63664W        W28891  22.197   6.757   4.280
63665W        W28892  18.001  35.514  11.326
63666W        W28893  21.053  41.869   4.876
63667W        W28894  38.378   1.809  12.386
63668W        W28895  27.824  23.061  14.021
63669W        W28896  35.286  19.247  14.766
63670W        W28897   2.443  29.130   0.021
63671W        W28898  41.020  27.742   3.760
63672W        W28899  29.537  43.753  13.346
63673W        W28900   5.375   2.871  13.975
63674W        W28901  37.903   2.504  11.112
63675W        W28902  43.907  21.001   0.485
63676W        W28903  12.740   4.924  11.941
63677W        W28904  44.972  34.415   4.147
63678W        W28905  40.374  19.664   1.132
63679W        W28906  17.639  34.480   2.334
63680W        W28907   5.121  32.137   3.237
63681W        W28908   3.174  20.012   3.307
63682W        W28909  39.620  19.298  11.706
63683W        W28910  28.829  26.528   2.796
63684W        W28911  18.052  41.540   1.495
63685W        W28912   0.329  14.073  14.638
63686W        W28913  11.768  10.185   1.500
63687W        W28914  19.666  14.284  13.957
63688W        W28915  29.664  21.067  12.304
63689W        W28916  38.819  40.252  11.047
63690W        W28917  34.510  39.299   1.350
63691W        W28918   4.126  37.632   2.380
63692W        W28919  36.369  10.280   0.512
63693W        W28920  25.408  14.827  14.468
63694W        W28921   1.732   9.649   2.377
63695W        W28922  30.328  28.183  11.817
63696W        W28923  10.948  43.867   0.775
63697W        W28924  26.515  18.564   3.143
63698W        W28925  41.630  44.029  14.048
63699W        W28926  35.942   7.390   0.243
63700W        W28927  21.560  42.415  12.464
63701W        W28928  31.508  17.971  12.908
63702W        W28929  36.986  34.352  11.184
63703W        W28930  27.378  37.330   0.926
63704W        W28931  12.483  37.019  13.828
63705W        W28932   5.712   6.722  13.345
63706W        W28933  36.279  18.207   2.156
63707W        W28934   6.220  36.762   3.450
63708W        W28935  26.563  14.414  12.192
63709W        W28936  22.264  23.650   2.823
63710W        W28937  20.143  12.672  12.100
63711W        W28938  38.566  19.224   3.423
63712W        W28939  19.760   6.211   1.333
63713W        W28940  31.517  43.890   1.870
63714W        W28941   0.844  32.854  12.432
63715W        W28942  11.553   7.691  14.363
63716W        W28943   0.603   1.060   1.920
63717W        W28944  33.108  40.574  11.556
63718W        W28945  10.503   7.474   1.899
63719W        W28946  30.217  11.277  11.872
63720W        W28947  27.026  31.010  12.693
63721W        W28948  26.760  30.755   0.823
63722W        W28949  32.089  11.753   3.855
63723W        W28950  22.663  41.981  14.725
63724W        W28951   3.284  25.210  13.963
63725W        W28952  16.739  42.368  11.622
63726W        W28953  36.488  31.458  14.861
63727W        W28954  37.600   7.826   0.224
63728W        W28955  43.069   5.668   1.767
63729W        W28956  36.940  11.451  14.094
63730W        W28957  35.482  28.368  10.933
63731W        W28958  21.840  24.211   1.350
63732W        W28959  41.886   0.723  11.657
63733W        W28960  36.909   0.769   4.049
63734W        W28961   6.152   7.507  13.015
63735W        W28962   3.323  42.356  11.637
63736W        W28963  40.553  14.246   3.788
63737W        W28964   3.960   3.225  12.926
63738W        W28965   8.486  21.765   2.618
63739W        W28966   9.074  26.939   4.405
63740W        W28967   6.743  15.564  14.495
63741W        W28968  25.623  32.167  12.644
63742W        W28969  13.334  36.691  12.589
63743W        W28970   4.833  21.602  14.304
63744W        W28971  32.864  22.629  14.580
63745W        W28972  19.505   8.455  14.018
63746W        W28973  22.835  29.617  14.562
63747W        W28974  41.541  26.513  11.687
63748W        W28975  17.547  16.537  14.310
63749W        W28976   8.385  31.483  13.518
63750W        W28977  10.218  24.718  12.849
63751W        W28978  21.605  11.926  12.162
63752W        W28979   2.218  33.462  13.975
63753W        W28980  27.246  36.560   1.453
63754W        W28981  24.861  37.003  10.853
63755W        W28982  34.920  32.004  11.602
63756W        W28983  16.806  19.091  13.934
63757W        W28984  19.905  14.506   1.230
63758W        W28985  35.323  39.335  14.837
63759W        W28986  44.420  23.062  11.158
63760W        W28987  28.993  31.491   4.788
63761W        W28988   6.110  30.563  14.210
63762W        W28989  12.522  42.725   3.150
63763W        W28990   6.730  16.548   3.653
63764W        W28991  44.121  38.903   2.530
63765W        W28992   5.976   1.426  14.048
63766W        W28993   5.487  24.051  12.879
63767W        W28994  22.911  43.356   0.791
63768W        W28995   7.331  39.089  11.213
63769W        W28996  23.040  41.093   2.751
63770W        W28997  28.198  22.380  12.021
63771W        W28998  17.221  16.369  14.852
63772W        W28999   9.580  30.387   1.812
63773W        W29000  10.458   2.251  13.597
63774W        W29001  11.581  38.940  14.082
63775W        W29002  37.092   4.930  13.592
63776W        W29003   8.931  37.664  13.943
63777W        W29004   8.925  41.065   4.543
63778W        W29005  32.995  30.924  10.865
63779W        W29006  20.202  44.980   2.974
63780W        W29007  20.705  29.278  10.927
63781W        W29008  39.415  34.561   1.429
63782W        W29009  17.494  16.130   4.144
63783W        W29010  17.911  13.239   3.246
63784W        W29011  44.381  14.817  14.836
63785W        W29012   5.485   1.706   2.167
63786W        W29013  15.505  36.187  11.675
63787W        W29014  36.452  31.672   1.234
63788W        W29015  40.458  38.111  11.661
63789W        W29016  22.140  14.158  13.117
63790W        W29017  31.397  21.181   5.059
63791W        W29018  11.282  24.583  14.305
63792W        W29019  37.319  18.211   4.414
63793W        W29020  43.912  41.007  13.573
63794W        W29021  16.577  33.020  12.470
63795W        W29022  32.658  24.640   4.364
63796W        W29023  21.150  16.582   0.529
63797W        W29024  36.614  20.819  14.459
63798W        W29025   4.668   9.826  14.489
63799W        W29026  13.299   3.247   2.521
63800W        W29027   8.417  20.751  13.550
63801W        W29028   9.478  12.077   1.858
63802W        W29029  35.506  25.947   3.105
63803W        W29030  44.074  16.092   4.119
63804W        W29031  30.455  22.163   0.366
63805W        W29032  41.304   2.895   3.473
63806W        W29033   8.323  20.846  13.034
63807W        W29034   4.491  38.403  11.509
63808W        W29035  31.554  38.553  14.950
63809W        W29036  23.654  42.762   3.080
63810W        W29037  21.869  39.417   4.839
63811W        W29038  18.950   4.205   3.944
63812W        W29039  12.868  30.557  12.473
63813W        W29040   4.778  40.845  13.874
63814W        W29041  36.424  36.432  13.555
63815W        W29042  31.422   2.265  13.859
63816W        W29043   8.836   2.904  14.575
63817W        W29044  37.587  30.454  13.905
63818W        W29045  15.342   3.705   4.135
63819W        W29046  41.454   6.674   0.341
63820W        W29047  28.446  28.877   3.544
63821W        W29048  10.191  16.492  13.426
63822W        W29049  30.889   8.638  11.586
63823W        W29050  31.406  13.095   1.324
63824W        W29051  35.500  16.780   2.323
63825W        W29052  39.928  12.551   4.720
63826W        W29053  32.367  11.429   3.598
63827W        W29054  19.831  43.182   4.134
63828W        W29055   5.480  38.570   2.715
63829W        W29056  17.350   6.357  11.767
63830W        W29057  26.954   8.267   3.054
63831W        W29058  42.464  25.525   2.434
63832W        W29059  30.632  23.570  13.990
63833W        W29060  26.528  15.626   3.654
63834W        W29061  44.800  19.041   2.836
63835W        W29062  33.351  23.477  12.443
63836W        W29063   7.753  39.145  13.747
63837W        W29064  16.415  20.131  13.029
63838W        W29065  15.687  16.724  12.460
63839W        W29066  34.571   9.975   0.323
63840W        W29067  25.164  36.035  13.512
63841W        W29068  36.017  21.234  11.057
63842W        W29069  31.590   7.353   2.703
63843W        W29070  42.863   5.173  13.914
63844W        W29071  44.201  21.060   0.028
63845W        W29072   9.865  30.847   1.401
63846W        W29073   5.205  41.582  13.939
63847W        W29074   0.920  33.588   0.889
63848W        W29075  28.493  31.905   1.833
63849W        W29076  27.310   4.430  14.890
63850W        W29077  28.689  31.593   1.422
63851W        W29078  32.160  12.114   1.008
63852W        W29079   0.481   0.323   3.705
63853W        W29080  26.898  11.253   4.897
63854W        W29081  22.463  28.765  10.329
63855W        W29082  40.584  31.171  13.503
63856W        W29083  37.686   4.698   1.933
63857W        W29084  30.155  10.875  13.569
63858W        W29085  36.506   7.733  14.159
63859W        W29086  26.213  17.525   3.733
63860W        W29087  27.239   4.809   4.207
63861W        W29088  44.507  13.310  14.889
63862W        W29089  19.634  44.639   2.214
63863W        W29090  21.073   2.662   3.942
63864W        W29091  12.516  29.160   3.196
63865W        W29092   0.659   7.648  13.594
63866W        W29093  38.558  13.184  14.522
63867W        W29094  28.647  39.662   4.397
63868W        W29095  17.766   8.618  12.171
63869W        W29096  15.700  24.308   0.407
63870W        W29097  12.355   5.248   0.094
63871W        W29098  37.417  17.017  12.960
63872W        W29099  31.950   9.747   1.771
63873W        W29100  24.434  30.577   4.475
63874W        W29101  25.150   5.523   4.420
63875W        W29102   2.213  39.023   1.333
63876W        W29103  16.884  41.524   3.245
63877W        W29104   8.028  10.060   3.143
63878W        W29105  12.498   8.218  10.962
63879W        W29106  30.396  16.636  11.927
63880W        W29107  34.632  43.088   4.218
63881W        W29108  31.408   6.617  13.831
63882W        W29109  30.649  13.727   3.816
63883W        W29110  13.480   8.601  11.309
63884W        W29111  37.669   3.566   0.812
63885W        W29112  41.783  11.344  14.311
63886W        W29113  10.305  16.954  13.996
63887W        W29114   5.306  17.243  14.030
63888W        W29115  26.470   3.791  14.210
63889W        W29116  39.333  44.306  12.943
63890W        W29117   5.151   1.770  13.923
63891W        W29118  19.816  30.593  14.505
63892W        W29119  25.370  19.018  13.382
63893W        W29120  13.715  35.958   0.331
63894W        W29121  33.088  16.072  11.978
63895W        W29122  11.123  22.548  14.754
63896W        W29123   4.286  11.514   3.066
63897W        W29124  36.710   1.916   3.496
63898W        W29125  30.400  10.507   0.718
63899W        W29126  44.836  23.431   2.768
63900W        W29127   9.359  20.471  12.509
63901W        W29128   2.723  31.541  13.121
63902W        W29129   1.719  24.126  10.484
63903W        W29130  16.561  31.703  14.473
63904W        W29131   6.858  38.906   0.007
63905W        W29132   6.690   5.293   3.883
63906W        W29133  31.013  18.746   3.392
63907W        W29134   9.113  11.637  13.536
63908W        W29135  36.832  26.104  12.494
63909W        W29136   2.456  23.335  13.672
63910W        W29137  35.645  30.646   2.775
63911W        W29138  44.303  27.543  12.827
63912W        W29139  29.423   9.423  14.278
63913W        W29140  33.478  40.566   4.209
63914W        W29141  13.574  43.380   1.363
63915W        W29142  34.217  26.269   0.378
63916W        W29143  14.847  38.851  12.678
63917W        W29144  28.465   1.138  13.251
63918W        W29145  42.808  24.624  14.437
63919W        W29146  19.812  34.432   3.137
63920W        W29147   3.482  38.618   0.948
63921W        W29148  43.409   2.191  10.849
63922W        W29149  26.827  32.977  10.789
63923W        W29150  42.884  23.682  11.891
63924W        W29151  32.652  23.900  12.056
63925W        W29152  36.591  12.584   1.357
63926W        W29153  25.144  20.453   3.278
63927W        W29154  30.616  43.212  12.419
63928W        W29155  44.887   3.735  12.145
63929W        W29156  19.309  40.546   0.496
63930W        W29157  24.521  43.550  12.856
63931W        W29158  43.886   3.361  13.569
63932W        W29159   3.710  21.341  10.964
63933W        W29160  16.731  24.456  14.527
63934W        W29161  12.816  25.187   1.364
63935W        W29162   8.296  42.360  11.320
63936W        W29163  24.154  39.051   2.666
63937W        W29164  39.484   4.704  13.362
63938W        W29165  22.921  31.985   1.362
63939W        W29166   7.639  15.001  13.268
63940W        W29167  40.265  27.021   0.326
63941W        W29168  37.552   3.269   2.542
63942W        W29169  23.924   1.553  14.591
63943W        W29170  29.560  33.058   1.495
63944W        W29171  10.498  37.071  12.928
63945W        W29172   4.915  36.236  12.819
63946W        W29173  36.747  16.639   2.068
63947W        W29174  19.493  31.158  13.265
63948W        W29175  27.925  28.365  12.954
63949W        W29176  44.573   1.595   1.115
63950W        W29177  31.878  40.285  14.494
63951W        W29178  18.614   3.009   0.994
63952W        W29179  25.454  36.393  12.538
63953W        W29180  31.366  42.071   0.044
63954W        W29181   0.186  23.117  10.604
63955W        W29182  42.464  18.754  14.039
63956W        W29183  26.759  20.760   4.493
63957W        W29184   2.928  37.690   0.311
63958W        W29185   2.696   6.763  13.872
63959W        W29186   4.400  18.383  10.722
63960W        W29187  35.653  22.290   2.140
63961W        W29188   8.689  14.112  12.616
63962W        W29189  17.240  34.120  12.794
63963W        W29190  21.716  25.596  14.286
63964W        W29191  42.882  26.542  13.525
63965W        W29192  30.690  28.066   2.233
63966W        W29193  36.593  16.963   0.027
63967W        W29194  19.128  15.113   0.728
63968W        W29195  28.644  36.958   4.028
63969W        W29196  27.712  36.745   1.634
63970W        W29197   4.829  38.627  10.204
63971W        W29198  40.821   0.051  14.403
63972W        W29199  35.897  43.333  11.218
63973W        W29200   6.804  23.135  10.795
63974W        W29201  28.635  18.654  12.580
63975W        W29202  12.155  26.043   4.151
63976W        W29203  15.170  41.870  12.828
63977W        W29204  28.541  43.032   0.906
63978W        W29205   3.192  30.855  14.304
63979W        W29206   5.060  33.645  13.053
63980W        W29207  35.600  43.962   4.775
63981W        W29208  21.737  38.208  12.990
63982W        W29209  26.668  33.140   2.287
63983W        W29210  30.654  15.517   3.069
63984W        W29211  32.562   7.548   2.127
63985W        W29212  36.563   0.437   0.154
63986W        W29213  30.067  10.406  12.333
63987W        W29214   8.150  10.376   0.541
63988W        W29215  13.883   6.532   2.804
63989W        W29216  26.961   8.616   3.445
63990W        W29217  26.028  32.127   3.598
63991W        W29218  12.161  15.583  14.981
63992W        W29219  10.365  17.159  11.193
63993W        W29220   1.530  39.592   1.787
63994W        W29221  43.563  44.278   1.376
63995W        W29222   1.291  23.164   3.061
63996W        W29223  32.643  21.649  14.334
63997W        W29224   9.880  14.768  13.498
63998W        W29225  31.448  27.733  13.068
63999W        W29226   5.876   6.922   3.118
64000W        W29227   0.883   2.045   1.226
64001W        W29228  13.100  26.648  14.860
64002W        W29229  39.840  19.564   0.983
64003W        W29230   8.848  42.905  13.335
64004W        W29231   0.427   3.953   2.305
64005W        W29232  22.760  32.995   3.081
64006W        W29233  40.381  34.194   1.565
64007W        W29234  42.063  20.754   0.108
64008W        W29235  33.596  42.295  11.127
64009W        W29236  14.537  34.295  12.993
64010W        W29237  23.668  21.793   4.517
64011W        W29238  42.159  41.415   4.546
64012W        W29239  38.308   5.780  11.960
64013W        W29240   7.268  20.669  11.605
64014W        W29241  20.966  44.857   0.867
64015W        W29242  17.639  42.381  14.524
64016W        W29243   5.382  18.671  12.795
64017W        W29244  29.998  35.247  14.953
64018W        W29245  21.223  41.764  11.901
64019W        W29246  17.197  44.017   4.620
64020W        W29247  19.223  35.430   0.288
64021W        W29248  43.784  41.644   1.502
64022W        W29249  18.099  12.415  12.497
64023W        W29250  43.677  10.972  10.702
64024W        W29251  37.131  23.543   0.280
64025W        W29252   8.892   9.152   2.226
64026W        W29253  19.791   3.397  13.832
64027W        W29254  26.966  39.522   2.318
64028W        W29255  25.592   0.507   0.850
64029W        W29256  23.565  41.248   0.676
64030W        W29257  14.173  11.066  13.314
64031W        W29258  25.041  12.886  12.231
64032W        W29259  13.086  22.678   2.419
64033W        W29260  20.138   4.410  14.042
64034W        W29261  37.067   6.825   4.043
64035W        W29262  12.490  15.766   2.710
64036W        W29263  24.986  27.942   0.802
64037W        W29264  16.257   5.372  11.683
64038W        W29265  35.545  25.694  11.048
64039W        W29266  43.309  41.676   0.942
64040W        W29267  39.252  29.427  12.335
64041W        W29268  11.719   8.147   3.837
64042W        W29269   3.623  24.224  11.962
64043W        W29270  33.165  38.459   4.615
64044W        W29271  21.402  24.655   3.713
64045W        W29272  39.958   8.835   4.297
64046W        W29273  14.813   6.879   4.466
64047W        W29274   4.705   6.366  13.451
64048W        W29275  34.915  22.797   2.451
64049W        W29276  42.039   9.560  10.251
64050W        W29277  42.725  25.553  11.939
64051W        W29278   9.776  32.037  11.155
64052W        W29279   0.565  12.589   3.296
64053W        W29280  33.918  19.570   1.425
64054W        W29281  35.407  29.949  10.679
64055W        W29282  21.701  30.517  13.020
64056W        W29283  26.139  26.954  14.098
64057W        W29284   1.809  35.103  12.338
64058W        W29285   4.989  20.531  14.584
64059W        W29286  22.643  21.968  11.393
64060W        W29287   6.818  31.461   3.454
64061W        W29288   3.722  29.063  13.862
64062W        W29289  19.209  26.967   3.615
64063W        W29290  44.262  10.757  12.794
64064W        W29291   3.639   3.204   9.862
64065W        W29292  11.351  19.647  13.929
64066W        W29293  38.443  11.790  11.436
64067W        W29294  17.087  28.007  10.522
64068W        W29295   2.720   9.440   2.801
64069W        W29296  12.350   1.821  12.518
64070W        W29297  19.509  22.219   1.708
64071W        W29298  14.290   3.430   2.811
64072W        W29299  33.499  30.630   2.194
64073W        W29300  19.526  23.756   1.812
64074W        W29301  41.539  15.358   3.223
64075W        W29302   0.235  27.074  13.470
64076W        W29303  21.606   5.883  10.746
64077W        W29304  22.800  18.738  14.233
64078W        W29305  38.454  12.070   0.266
64079W        W29306  36.310   8.997   0.878
64080W        W29307   8.070  27.970  14.709
64081W        W29308  32.837  14.244   0.844
64082W        W29309  35.388  15.101  11.689
64083W        W29310   2.092  28.850   2.710
64084W        W29311  40.283  29.508  12.521
64085W        W29312   1.217  30.054  12.326
64086W        W29313   6.422  13.349  14.368
64087W        W29314   3.339  14.564   0.515
64088W        W29315  11.632  23.082   3.802
64089W        W29316  39.533  19.250   3.529
64090W        W29317   3.772  31.212  13.495
64091W        W29318  19.537   3.388   0.451
64092W        W29319  41.470  18.808  11.933
64093W        W29320  40.443  36.504  14.284
64094W        W29321  43.275  22.338   3.046
64095W        W29322  32.043  34.034  11.171
64096W        W29323  12.339  43.254   0.294
64097W        W29324  32.528  33.427  13.769
64098W        W29325  10.241  37.689  11.463
64099W        W29326  41.390   1.516  14.844
64100W        W29327  33.041  21.072  12.118
64101W        W29328   7.855  31.610   5.003
64102W        W29329  37.580  38.531  11.524
64103W        W29330  28.439  21.647   0.809
64104W        W29331  35.900  37.112   2.641
64105W        W29332  33.381  20.260  12.112
64106W        W29333  40.102  44.721  10.726
64107W        W29334  27.119  35.442  10.921
64108W        W29335   2.818  27.083  13.097
64109W        W29336  28.155  14.652  11.889
64110W        W29337  23.616  44.697   4.060
64111W        W29338  19.689  26.621  10.377
64112W        W29339  43.411  29.170  12.008
64113W        W29340  12.701   9.856  11.600
64114W        W29341  18.519  40.469   1.640
64115W        W29342  38.029   8.762   2.448
64116W        W29343   5.347   7.553   1.332
64117W        W29344   9.858  25.920   1.712
64118W        W29345   8.141   7.049  11.203
64119W        W29346  24.013  12.082  11.087
64120W        W29347   3.793  14.589  14.340
64121W        W29348  37.490  13.142  11.799
64122W        W29349  30.855  34.926   2.666
64123W        W29350  32.256  14.755   3.935
64124W        W29351  19.776   9.882   1.053
64125W        W29352  10.391  27.973  14.423
64126W        W29353  19.702   7.777   1.221
64127W        W29354  28.129  17.748  10.751
64128W        W29355  22.130  37.328  11.581
64129W        W29356  26.129  20.368   1.783
64130W        W29357  42.503  40.250   2.781
64131W        W29358  39.346  29.745  10.983
64132W        W29359  35.841  43.974   4.144
64133W        W29360  20.011  40.472   4.046
64134W        W29361  39.072  16.801  13.460
64135W        W29362  26.163  44.045   2.607
64136W        W29363  37.585  39.408   1.958
64137W        W29364  25.556   3.899  12.565
64138W        W29365   7.173   7.384   1.282
64139W        W29366  30.595  32.880  11.664
64140W        W29367  21.280  40.315   3.301
64141W        W29368  16.647  33.499   2.315
64142W        W29369  30.471  12.561   0.952
64143W        W29370  35.989  19.112   0.294
64144W        W29371  30.599   9.973   3.653
64145W        W29372  27.506  37.324  12.658
64146W        W29373  38.613  42.624  12.997
64147W        W29374  34.646  38.834   3.789
64148W        W29375  27.512  30.442   4.024
64149W        W29376   4.653  15.203  12.484
64150W        W29377  44.238  44.393  13.472
64151W        W29378   3.864  37.242   2.104
64152W        W29379  29.429  11.442   2.535
64153W        W29380  16.652  28.871  14.017
64154W        W29381  16.906  38.800   1.431
64155W        W29382  37.602  12.304  13.462
64156W        W29383  27.848  23.134  13.031
64157W        W29384  41.254   3.639   2.872
64158W        W29385  23.613  42.343   4.845
64159W        W29386  27.670  32.925  10.777
64160W        W29387   0.002  38.874   0.769
64161W        W29388  31.359  30.516   1.787
64162W        W29389   2.833  31.253   5.028
64163W        W29390  36.926   1.711   4.508
64164W        W29391  39.604  17.400   0.926
64165W        W29392   6.248  22.532   3.552
64166W        W29393  36.095   3.998   1.795
64167W        W29394  17.111  40.362   5.060
64168W        W29395  24.574  40.911   3.791
64169W        W29396  12.136  15.833  13.373
64170W        W29397  22.636  10.262  10.534
64171W        W29398  44.337  10.521   4.064
64172W        W29399   2.318   0.869  10.148
64173W        W29400  10.706  28.967   1.060
64174W        W29401  34.377  40.840   2.821
64175W        W29402  21.567   3.746   2.643
64176W        W29403  10.139  39.244  14.332
64177W        W29404   5.656  22.515  14.957
64178W        W29405  22.016  44.263  11.611
64179W        W29406  37.112  32.467   3.333
64180W        W29407  36.324  43.325   4.247
64181W        W29408  21.801   4.271  14.541
64182W        W29409  36.096   0.508   1.281
64183W        W29410  35.045  28.529   2.838
64184W        W29411  30.379   9.579  10.200
64185W        W29412   8.144   6.436   0.276
64186W        W29413  10.165  23.525   1.769
64187W        W29414  13.233   6.255  14.829
64188W        W29415  36.799   5.964   9.614
64189W        W29416   4.361  31.374  13.853
64190W        W29417  27.581  11.797  13.308
64191W        W29418   3.934  24.514   0.045
64192W        W29419   6.254  18.973  14.170
64193W        W29420  39.163  13.369   3.381
64194W        W29421  12.869  14.244   3.506
64195W        W29422   1.414  24.090   0.436
64196W        W29423  39.715   7.825  11.624
64197W        W29424  31.075   0.401   3.203
64198W        W29425   8.194  15.828  14.949
64199W        W29426  39.728  30.658  13.597
64200W        W29427   8.579  42.983   0.187
64201W        W29428  20.080  10.708  13.544
64202W        W29429  33.629  35.830  13.373
64203W        W29430  21.707   2.778   3.588
64204W        W29431   9.269  28.737   3.352
64205W        W29432  25.645  30.960  10.908
64206W        W29433   4.901  21.527   0.245
64207W        W29434  39.691  36.956   0.295
64208W        W29435  17.686  24.953  12.067
64209W        W29436  25.507  22.652   2.644
64210W        W29437  14.228  36.578   4.607
64211W        W29438  18.706  44.676   2.287
64212W        W29439  22.584  10.201   2.464
64213W        W29440  15.580  22.992  12.042
64214W        W29441  25.278  13.649   4.391
64215W        W29442  11.559   1.484   0.884
64216W        W29443   8.990  16.820   3.081
64217W        W29444  14.886  40.663   3.138
64218W        W29445  34.825   1.447  14.916
64219W        W29446   4.417  30.146   3.600
64220W        W29447  35.113   9.632  12.640
64221W        W29448  18.182  18.586  12.841
64222W        W29449  24.512  29.410  13.819
64223W        W29450   1.545  30.100   1.076
64224W        W29451  15.118  36.012   2.356
64225W        W29452  39.919  40.836  14.456
64226W        W29453  31.169   0.919   4.249
64227W        W29454  17.067  35.518  12.289
64228W        W29455  21.648  35.203  13.841
64229W        W29456  19.193  22.007  12.143
64230W        W29457  35.983  34.586   1.650
64231W        W29458  20.814  36.060   3.677
64232W        W29459  22.125  42.323   0.664
64233W        W29460  25.455  44.937   4.371
64234W        W29461   7.683   5.588   1.796
64235W        W29462  32.883  13.619   0.353
64236W        W29463  18.728  40.778   4.720
64237W        W29464  21.163  13.612   4.486
64238W        W29465   8.999   7.152  11.962
64239W        W29466  29.568  44.981  14.760
64240W        W29467  16.370  35.068   0.324
64241W        W29468  33.563  21.691  10.624
64242W        W29469  15.190  10.881  12.081
64243W        W29470  34.537  19.024   0.201
64244W        W29471   3.345   7.687  12.874
64245W        W29472  42.941  34.942   3.172
64246W        W29473  13.155  16.438   1.124
64247W        W29474  25.475  25.162  12.409
64248W        W29475  10.692  38.037  12.453
64249W        W29476  19.818  18.099  14.930
64250W        W29477   3.516  14.374   0.030
64251W        W29478  18.678  17.235   2.631
64252W        W29479  20.794  16.134   4.527
64253W        W29480  44.236  40.738   2.747
64254W        W29481   5.252  40.767  11.151
64255W        W29482  31.633  23.328  14.503
64256W        W29483  42.348  12.617   3.216
64257W        W29484  40.981   3.115  10.170
64258W        W29485  27.978  11.061   3.289
64259W        W29486  33.457   6.649   2.590
64260W        W29487  32.367  36.081  14.524
64261W        W29488  15.082  16.655   3.221
64262W        W29489  23.693  10.056   1.938
64263W        W29490   8.957  36.189  10.693
64264W        W29491  35.908  32.348  14.951
64265W        W29492  28.596   4.969  10.481
64266W        W29493   5.290  10.343  10.606
64267W        W29494   1.438   1.837  11.596
64268W        W29495  29.113  42.552  11.090
64269W        W29496  27.215  17.076  10.671
64270W        W29497   8.170   6.296   2.384
64271W        W29498  15.516  25.617  13.470
64272W        W29499  25.707  33.581   0.946
64273W        W29500  31.362  14.203   4.086
64274W        W29501  40.915  13.738   0.489
64275W        W29502  37.448  34.900  10.810
64276W        W29503   9.581   3.954   2.405
64277W        W29504  44.774  25.811   3.227
64278W        W29505  22.281  33.261  12.193
64279W        W29506   6.741   8.450   1.841
64280W        W29507  33.888   4.301   1.232
64281W        W29508   8.115  18.101  13.513
64282W        W29509  34.458  43.272   2.711
64283W        W29510  10.589   2.218   2.725
64284W        W29511   6.768   1.964  12.956
64285W        W29512  20.797  43.671  10.648
64286W        W29513  13.726  23.324  11.825
64287W        W29514  24.665  18.505   4.169
64288W        W29515  29.259   4.564  14.274
64289W        W29516  36.046   3.621  11.168
64290W        W29517  21.689  43.558   4.114
64291W        W29518  12.456   0.942   3.085
64292W        W29519  32.604  33.399   3.142
64293W        W29520   6.197  20.952   4.014
64294W        W29521  15.090  33.864  11.194
64295W        W29522  35.890  22.064  11.529
64296W        W29523  17.474  34.613  12.917
64297W        W29524  28.092  21.680   5.206
64298W        W29525  12.766   2.866   4.161
64299W        W29526   7.697  10.235   0.788
64300W        W29527  32.615  11.248   2.324
64301W        W29528  13.080  38.076   2.384
64302W        W29529   2.520  38.596  12.433
64303W        W29530   5.514   1.741  14.472
64304W        W29531  18.594  10.219   0.169
64305W        W29532  27.835   7.321   1.884
64306W        W29533  34.177  39.966   4.222
64307W        W29534  42.865  20.038   3.157
64308W        W29535  27.687   7.292   0.955
64309W        W29536  35.667  30.930   3.695
64310W        W29537  17.678  26.041  10.734
64311W        W29538  15.630  29.235   2.858
64312W        W29539  26.104  12.350  14.908
64313W        W29540  42.431  25.901   1.148
64314W        W29541  38.360  17.774  14.965
64315W        W29542   4.989  41.755   4.056
64316W        W29543  36.453   8.220  14.782
64317W        W29544  36.165  26.605  13.435
64318W        W29545   9.266   4.757  10.027
64319W        W29546  26.047   5.997   1.853
64320W        W29547  40.216  36.331  13.836
64321W        W29548   6.734  15.084  14.310
64322W        W29549  36.450  11.282   0.790
64323W        W29550   7.207   1.248   1.788
64324W        W29551  10.433   3.836   3.079
64325W        W29552  29.004  41.008   1.426
64326W        W29553  35.131  21.580   4.304
64327W        W29554  22.664  39.144   2.061
64328W        W29555  40.765  27.995   4.157
64329W        W29556  32.371  25.442   1.492
64330W        W29557  33.069  31.430   1.876
64331W        W29558   1.034  33.348   4.575
64332W        W29559   9.578  31.641  11.903
64333W        W29560  40.796   8.262   4.092
64334W        W29561  44.526  30.718   4.342
64335W        W29562   8.738  44.330  14.501
64336W        W29563   0.783  11.740  11.106
64337W        W29564  11.243  43.426  12.085
64338W        W29565  39.054   8.836   3.214
64339W        W29566  37.853  42.400   0.097
64340W        W29567  33.837  33.602   3.856
64341W        W29568  14.291  39.689  12.722
64342W        W29569  33.365  38.933  13.517
64343W        W29570  36.155  35.969  13.517
64344W        W29571  43.335  33.060  14.971
64345W        W29572  37.600  18.810   1.403
64346W        W29573  18.131  33.565  12.066
64347W        W29574   2.192  32.595   0.276
64348W        W29575  42.622  42.928  10.795
64349W        W29576  26.887  30.726  13.596
64350W        W29577  22.064  21.623   3.113
64351W        W29578  28.626  32.854  12.227
64352W        W29579   7.387  12.301  10.791
64353W        W29580   7.991  41.061  12.096
64354W        W29581  43.656  27.978   5.389
64355W        W29582  25.661  44.627   3.497
64356W        W29583   8.786   6.821   1.632
64357W        W29584  39.605  11.155   4.708
64358W        W29585  35.537  37.912   9.771
64359W        W29586  26.165  29.214  12.542
64360W        W29587  42.310  36.901   3.138
64361W        W29588   9.920   8.168  11.144
64362W        W29589  16.165  28.549   3.385
64363W        W29590  23.112  23.241  10.253
64364W        W29591  40.436  28.959  11.972
64365W        W29592  16.197  43.124   3.697
64366W        W29593   3.183   1.039   4.368
64367W        W29594  12.106  38.574  12.661
64368W        W29595  11.822  20.272   4.444
64369W        W29596  21.011  32.028   4.059
64370W        W29597  13.188  22.652   3.404
64371W        W29598  19.642  41.594  14.022
64372W        W29599  19.397  33.117   2.779
64373W        W29600  30.641  18.209   2.630
64374W        W29601  30.104   4.347  12.071
64375W        W29602  29.505  21.018   2.201
64376W        W29603  28.958   5.357   2.258
64377W        W29604   0.812  12.615  12.502
64378W        W29605   0.411  33.631  13.799
64379W        W29606  18.106  20.140   0.744
64380W        W29607  41.909  17.588   0.381
64381W        W29608  28.732  10.891  11.120
64382W        W29609   3.784  33.309  13.552
64383W        W29610   6.867  30.625   2.168
64384W        W29611  35.567   1.560   3.017
64385W        W29612  16.310   7.946  11.579
64386W        W29613  26.142  23.568   1.427
64387W        W29614   0.921  22.898   0.321
64388W        W29615  13.926  25.663   1.404
64389W        W29616  39.802  14.390   3.219
64390W        W29617  40.063  30.089   3.286
64391W        W29618  38.384   7.481  14.781
64392W        W29619   3.737  12.124  10.722
64393W        W29620  36.347  23.603   2.659
64394W        W29621  41.325  28.553   2.300
64395W        W29622  16.856  17.508   3.280
64396W        W29623  32.056  18.157   2.493
64397W        W29624  34.401  24.073  10.444
64398W        W29625  43.805  18.334  14.079
64399W        W29626  18.512  30.679  11.912
64400W        W29627   2.178  26.219  14.821
64401W        W29628   3.503  32.074  12.084
64402W        W29629  12.750   5.222  12.445
64403W        W29630  36.161  39.509  14.399
64404W        W29631   4.488  18.879   4.592
64405W        W29632  21.642  20.275   3.612
64406W        W29633   0.729   5.719   2.787
64407W        W29634  23.646   8.692  14.540
64408W        W29635  21.837   9.610   0.351
64409W        W29636  12.617  35.442  12.486
64410W        W29637  24.281  11.552   5.238
64411W        W29638  29.157  21.748   0.446
64412W        W29639   1.704  15.332  12.666
64413W        W29640   2.104  11.605  12.081
64414W        W29641  10.964  12.815  12.575
64415W        W29642  16.693   0.767   0.695
64416W        W29643  32.019  11.499  12.019
64417W        W29644   5.879  22.275  10.480
64418W        W29645  25.738  31.876   4.007
64419W        W29646  32.175  39.862  13.341
64420W        W29647  19.967  31.390  11.094
64421W        W29648  32.437  21.533   1.110
64422W        W29649   7.440  42.270  14.199
64423W        W29650  38.878   8.214  13.483
64424W        W29651  16.623  29.613   1.196
64425W        W29652  28.616  33.058   2.678
64426W        W29653  38.857  22.090  11.082
64427W        W29654  39.381  22.588   1.536
64428W        W29655  22.976  40.599  13.939
64429W        W29656  30.708  15.834   3.500
64430W        W29657  35.116  18.102  12.975
64431W        W29658   9.469  13.140   1.754
64432W        W29659  26.547  37.304   1.431
64433W        W29660   7.706  27.562   2.794
64434W        W29661  35.562   3.338  10.601
64435W        W29662  40.782  12.729   0.190
64436W        W29663  18.493   6.167   2.420
64437W        W29664  27.877  24.340  13.825
64438W        W29665  31.110  25.409  13.660
64439W        W29666  35.360   6.242  13.937
64440W        W29667  28.580  35.948  13.011
64441W        W29668  31.110   0.718  14.498
64442W        W29669   8.981  23.502   0.340
64443W        W29670  18.739  26.309  10.074
64444W        W29671  30.811   2.125   0.407
64445W        W29672  20.427  11.743   3.295
64446W        W29673  35.677  18.435   2.775
64447W        W29674  23.482  43.837   4.500
64448W        W29675  39.051  31.090  13.386
64449W        W29676  24.053  41.236   0.899
64450W        W29677  36.538  11.602  12.947
64451W        W29678  37.837  15.100   3.396
64452W        W29679   7.837  43.311  10.614
64453W        W29680  10.575  36.040  12.053
64454W        W29681  24.680   3.442   3.979
64455W        W29682  26.225  29.050  14.300
64456W        W29683   6.171  37.870  13.860
64457W        W29684  14.129   6.827  13.800
64458W        W29685   4.186   2.926  14.514
64459W        W29686  40.450  35.865   3.622
64460W        W29687  12.562  32.296   3.696
64461W        W29688  26.777  43.509   1.665
64462W        W29689  11.170  10.676  11.604
64463W        W29690  37.626  29.161  11.094
64464W        W29691  38.871  29.255  11.431
64465W        W29692  28.203   1.191  13.713
64466W        W29693  29.510  17.139  13.798
64467W        W29694  23.615  37.269   0.824
64468W        W29695  27.940  44.330  10.773
64469W        W29696  21.835  42.543  14.829
64470W        W29697  30.966  12.706  12.659
64471W        W29698  12.630  33.183  10.226
64472W        W29699   3.975  31.613   2.208
64473W        W29700  35.368  25.479  10.610
64474W        W29701  20.995   0.850  11.577
64475W        W29702  36.986  18.558  10.687
64476W        W29703   1.707  13.132  13.924
64477W        W29704   4.155  33.617   2.840
64478W        W29705  26.400  34.819   1.526
64479W        W29706  38.154  23.758   3.345
64480W        W29707  11.140   4.355   3.078
64481W        W29708  31.458  43.876   2.842
64482W        W29709  34.433   1.163   3.901
64483W        W29710  41.672  39.941   1.445
64484W        W29711  38.641  28.658   1.411
64485W        W29712   6.493  31.786   3.226
64486W        W29713   3.803   0.747  14.356
64487W        W29714  30.189  25.720  13.481
64488W        W29715  23.030  38.053  11.231
64489W        W29716  19.533   8.410   1.730
64490W        W29717   5.677  41.940  14.867
64491W        W29718  31.341  36.181  11.216
64492W        W29719  19.346  31.512   0.421
64493W        W29720  36.004  23.809   4.125
64494W        W29721  14.619  18.969   4.696
64495W        W29722  15.177  21.304   0.866
64496W        W29723   5.119  27.752   3.765
64497W        W29724  44.407   0.230   3.720
64498W        W29725  41.005  38.514   4.926
64499W        W29726  43.445  36.054  13.018
64500W        W29727  10.070  34.169   0.669
64501W        W29728  14.097   7.984   2.750
64502W        W29729   1.839  40.872   2.227
64503W        W29730  16.121  14.179   3.249
64504W        W29731  27.865  39.004   3.216
64505W        W29732  21.549  41.022  14.964
64506W        W29733  39.887  38.280  12.964
64507W        W29734   1.521  16.104  10.813
64508W        W29735   6.803  35.273   3.100
64509W        W29736  21.955  30.266   2.701
64510W        W29737  29.587   9.157  12.164
64511W        W29738  16.154  13.227  14.775
64512W        W29739  37.271  33.701  10.462
64513W        W29740  33.976  35.631  12.590
64514W        W29741  40.650  40.549  11.081
64515W        W29742  39.356  40.187   2.218
64516W        W29743   6.191  43.428   4.011
64517W        W29744  19.159  34.643   3.759
64518W        W29745  27.202  43.311  14.998
64519W        W29746   6.854   8.771  11.289
64520W        W29747  25.970  27.028   4.607
64521W        W29748   1.902  29.645  10.822
64522W        W29749  15.873  15.484  10.185
64523W        W29750  27.638  27.720   2.227
64524W        W29751  32.126  40.230   1.246
64525W        W29752  32.683   7.013  12.133
64526W        W29753  24.046   3.507   4.295
64527W        W29754  26.700  26.734   0.665
64528W        W29755  26.232   2.154   1.425
64529W        W29756  40.481   4.877   0.481
64530W        W29757   4.422  20.063   2.837
64531W        W29758  19.656  22.123  11.878
64532W        W29759   4.273   0.961  14.447
64533W        W29760   2.793  14.235   1.155
64534W        W29761  26.657  40.553  14.472
64535W        W29762  21.234   4.603  13.375
64536W        W29763   9.859   3.269   0.875
64537W        W29764  12.840  44.251   3.290
64538W        W29765  28.057  30.775  14.163
64539W        W29766  33.891  43.843  14.183
64540W        W29767  43.857  20.634   1.377
64541W        W29768  36.530   9.404   4.161
64542W        W29769   6.750  17.610   2.804
64543W        W29770  10.329  23.475  13.536
64544W        W29771  28.012   7.286   1.379
64545W        W29772  42.266   6.132   1.320
64546W        W29773  43.058  25.191  10.951
64547W        W29774  42.327   9.063   2.328
64548W        W29775  33.011  35.106   3.076
64549W        W29776  33.959  30.057  11.426
64550W        W29777   8.207  26.401   4.563
64551W        W29778  13.722  23.752  13.443
64552W        W29779  15.801  20.647  12.130
64553W        W29780  26.524  36.932  12.175
64554W        W29781  26.655  40.128  13.983
64555W        W29782  24.943  29.928   3.664
64556W        W29783   5.616  34.332  12.864
64557W        W29784  31.394  40.002   3.632
64558W        W29785   5.832  13.881  13.827
64559W        W29786   8.387  17.637   4.280
64560W        W29787   7.335  13.663   5.090
64561W        W29788   3.289  25.494   1.777
64562W        W29789  24.615   4.688  11.379
64563W        W29790  34.864  26.973  11.975
64564W        W29791  20.254  12.141   4.096
64565W        W29792  36.530  12.340   4.209
64566W        W29793  12.323  17.311   1.813
64567W        W29794  28.078  37.124   2.317
64568W        W29795  38.832  41.284   2.333
64569W        W29796  41.073  43.278   4.183
64570W        W29797  27.673  21.526   0.973
64571W        W29798  24.248  29.337  12.483
64572W        W29799   5.465  28.570   5.118
64573W        W29800  34.656  30.614  11.235
64574W        W29801  31.934   7.670  14.408
64575W        W29802  36.285   7.342  13.843
64576W        W29803  42.762  19.076   1.676
64577W        W29804  40.993   6.429  13.510
64578W        W29805  34.580   6.127  13.434
64579W        W29806  40.987  44.401   3.184
64580W        W29807  41.845  40.021  14.346
64581W        W29808  34.119  27.968  12.061
64582W        W29809  35.594  38.881  13.852
64583W        W29810  17.786  37.314  14.371
64584W        W29811  43.124  25.219  12.894
64585W        W29812  17.848   4.725  11.240
64586W        W29813  34.295  41.849   0.794
64587W        W29814  38.116  37.124   3.220
64588W        W29815  29.035  28.876   4.818
64589W        W29816   5.744  43.882   0.463
64590W        W29817  30.061   8.659   5.245
64591W        W29818   7.989  13.316   2.218
64592W        W29819   9.665   7.750  11.319
64593W        W29820  22.296  16.105  12.449
64594W        W29821  25.104  20.980   3.277
64595W        W29822  40.275  14.349   1.398
64596W        W29823  20.958  24.721   0.410
64597W        W29824  21.387  40.809  12.575
64598W        W29825  18.152  14.301   1.874
64599W        W29826  25.738  29.450  13.480
64600W        W29827   1.225  17.123   0.937
64601W        W29828   0.761  32.718   4.159
64602W        W29829  27.598  15.175  10.689
64603W        W29830  41.440  13.740   1.398
64604W        W29831  17.723  15.377  14.011
64605W        W29832  30.232  37.458  13.348
64606W        W29833  17.330  44.993   2.694
64607W        W29834   7.725   6.802  10.902
64608W        W29835   4.855   3.376  12.547
64609W        W29836  24.050  25.734  10.978
64610W        W29837  15.070  19.711   4.513
64611W        W29838  24.260   1.716  10.683
64612W        W29839  43.512   1.042   4.616
64613W        W29840   4.807   3.669   3.635
64614W        W29841   9.185  35.592   4.681
64615W        W29842   7.875  43.423  12.012
64616W        W29843  10.329  42.535   1.811
64617W        W29844  31.491   3.999   3.552
64618W        W29845   0.212  12.813  10.780
64619W        W29846  35.835  33.696  11.008
64620W        W29847  32.183  40.721   1.363
64621W        W29848  43.872  22.034   1.487
64622W        W29849  23.861  22.871  13.677
64623W        W29850  33.590  43.456  14.373
64624W        W29851  30.064  44.345   1.384
64625W        W29852  41.237  40.601   1.857
64626W        W29853  41.603   9.793  12.382
64627W        W29854  42.404  29.872   4.981
64628W        W29855  20.164  32.661   1.252
64629W        W29856  27.602   0.871  13.543
64630W        W29857  24.080  32.514   4.669
64631W        W29858  13.207   8.401  12.279
64632W        W29859   6.122  30.557   1.545
64633W        W29860  20.992  43.217  13.083
64634W        W29861  31.086  15.359   4.967
64635W        W29862   2.944   2.835  14.715
64636W        W29863  42.291  32.892   3.638
64637W        W29864  33.782  23.669   3.819
64638W        W29865   6.237  32.603   1.194
64639W        W29866  28.658  21.008  14.226
64640W        W29867   7.826  16.431   1.302
64641W        W29868   4.403  19.164   1.991
64642W        W29869   9.658  11.607   1.755
64643W        W29870  28.314  18.695   1.910
64644W        W29871  41.480  36.204   0.687
64645W        W29872  40.434   6.172   1.806
64646W        W29873  39.465   4.294  10.324
64647W        W29874  23.271  14.097  13.298
64648W        W29875   2.006  42.302  12.098
64649W        W29876  19.181  24.510  10.516
64650W        W29877  22.429  25.221  11.117
64651W        W29878   6.235  40.134   0.883
64652W        W29879  39.687  36.149   4.612
64653W        W29880  24.200   9.275  11.624
64654W        W29881   4.745   7.731  10.969
64655W        W29882  14.861   4.538   3.766
64656W        W29883  32.886  30.691  11.573
64657W        W29884   9.291  30.904  11.142
64658W        W29885  11.281   6.718   1.053
64659W        W29886   3.442  23.221  11.925
64660W        W29887  44.049  21.488  11.576
64661W        W29888  33.418  44.752  11.383
64662W        W29889  25.047  11.763   3.121
64663W        W29890  43.378  17.459  13.488
64664W        W29891  20.761   1.878   1.387
64665W        W29892  26.974  23.902   1.097
64666W        W29893   1.985  29.444  12.679
64667W        W29894  27.729  33.035   2.223
64668W        W29895   6.950  26.044  13.497
64669W        W29896   6.303  10.169   3.081
64670W        W29897   7.061  27.199   3.273
64671W        W29898  14.328   2.328  11.121
64672W        W29899  14.390  30.168  12.524
64673W        W29900  31.972  10.122   3.093
64674W        W29901  27.626  10.690  13.101
64675W        W29902   7.816  25.476   0.581
64676W        W29903   1.560   4.111   0.065
64677W        W29904  41.250  27.479   1.375
64678W        W29905  16.598  10.950  14.243
64679W        W29906  19.007  16.833  14.992
64680W        W29907  13.636  43.699  10.618
64681W        W29908  42.133  21.717   4.606
64682W        W29909  25.492  25.981   2.220
64683W        W29910  10.263   6.768   2.374
64684W        W29911  11.715  23.944  14.200
64685W        W29912  24.076  14.581   3.100
64686W        W29913  40.326   8.683   0.808
64687W        W29914  38.799  18.048   1.626
64688W        W29915  39.417   1.890   2.271
64689W        W29916   2.428  34.431   4.395
64690W        W29917   4.467  22.936   3.214
64691W        W29918  26.464  25.029   0.397
64692W        W29919   7.392   7.411  12.512
64693W        W29920  34.559  24.028   0.987
64694W        W29921  37.236   9.303  14.985
64695W        W29922  19.249  25.095  13.937
64696W        W29923  33.047   9.154   0.863
64697W        W29924  18.233  14.521  12.586
64698W        W29925  40.343  37.163   2.900
64699W        W29926   6.961  11.192   3.709
64700W        W29927  29.438  21.712  13.603
64701W        W29928  33.973   7.292  13.868
64702W        W29929   9.187  33.955   1.008
64703W        W29930  40.418   7.084  14.716
64704W        W29931  42.633   2.526   3.808
64705W        W29932  17.751  23.037  12.168
64706W        W29933  40.206  26.188  11.713
64707W        W29934  14.002  37.558   3.653
64708W        W29935  34.434  18.751   1.784
64709W        W29936  28.877  17.688   0.618
64710W        W29937  42.247  19.177   2.308
64711W        W29938  31.352   7.044   3.652
64712W        W29939   6.031  44.345  12.437
64713W        W29940  16.240  11.118   4.579
64714W        W29941  39.007  26.087   0.838
64715W        W29942  34.407  43.022  14.484
64716W        W29943  29.599  27.139  13.844
64717W        W29944   9.889  27.516   4.161
64718W        W29945  38.464  17.618  10.702
64719W        W29946  42.974  16.808   3.513
64720W        W29947  34.020   0.059  13.727
64721W        W29948   7.189  41.844  13.933
64722W        W29949  42.338  38.134   0.408
64723W        W29950  18.336   2.990  10.739
64724W        W29951  29.622  35.560   0.290
64725W        W29952  33.972  29.567  11.702
64726W        W29953  40.944   9.244   2.544
64727W        W29954  18.224  37.296  14.669
64728W        W29955  10.317  32.639   2.702
64729W        W29956  44.548  12.619  11.549
64730W        W29957   3.653  26.761   0.016
64731W        W29958  35.469   3.172   4.021
64732W        W29959  33.060   0.149  13.134
64733W        W29960   5.275  42.837   0.296
64734W        W29961  39.898  41.279  11.229
64735W        W29962  21.016  24.673   2.365
64736W        W29963  15.310  34.382  10.606
64737W        W29964  44.888   0.046   3.151
64738W        W29965  11.119  35.063   3.211
64739W        W29966  24.178  21.597   2.948
64740W        W29967   0.014  15.624  10.089
64741W        W29968  18.014   1.434   4.689
64742W        W29969  14.004  30.391   3.131
64743W        W29970  35.409  39.850   4.710
64744W        W29971  36.580  14.906   3.251
64745W        W29972  42.830  14.696  14.050
64746W        W29973  42.063   4.944  11.125
64747W        W29974  11.316  27.649  14.341
64748W        W29975  38.085   2.096   3.692
64749W        W29976  42.452  25.736   0.631
64750W        W29977  29.486  31.796   1.762
64751W        W29978  36.489  44.542   0.362
64752W        W29979  26.711   7.845   1.210
64753W        W29980  25.284  43.366  11.471
64754W        W29981  37.324   1.511   4.773
64755W        W29982  36.040  34.876   4.137
64756W        W29983   7.428  42.010  11.944
64757W        W29984  24.543  43.424  14.324
64758W        W29985  24.870  10.062  13.640
64759W        W29986  21.070  42.105   2.049
64760W        W29987   9.271  20.251   3.113
64761W        W29988  28.250  32.389   1.200
64762W        W29989   1.520  11.272   1.368
64763W        W29990  11.445  11.175  14.624
64764W        W29991  14.343  21.218   2.327
64765W        W29992  10.214  11.338  14.043
64766W        W29993  12.625  39.829   3.276
64767W        W29994  16.402  11.285   2.750
64768W        W29995  18.234   6.094  14.523
64769W        W29996   9.302  15.535   3.213
64770W        W29997  20.537  26.716  10.881
64771W        W29998  18.545   9.785  12.057
64772W        W29999   6.850  29.252  11.674
64773W        W30000  19.889  18.057  14.052
64774W        W30001   6.313  16.214   3.597
64775W        W30002  26.437  24.854   3.150
64776W        W30003  43.157  28.098   1.760
64777W        W30004  23.378  31.942   4.465
64778W        W30005  13.856  41.489   3.294
64779W        W30006  43.227  34.762   0.845
64780W        W30007  23.562  18.193  12.270
64781W        W30008  35.717  22.295  14.062
64782W        W30009  24.748  40.094  13.972
64783W        W30010  44.636  16.633   4.561
64784W        W30011  16.789  42.440  14.745
64785W        W30012  27.304   0.483  11.933
64786W        W30013   2.512  14.052   3.144
64787W        W30014  13.159  21.155   3.396
64788W        W30015  28.358  30.116  13.520
64789W        W30016   1.613  20.476  13.823
64790W        W30017   9.041  19.165  12.007
64791W        W30018  33.124  20.761  12.525
64792W        W30019  10.630  33.461  13.742
64793W        W30020   5.869  24.350   2.289
64794W        W30021   4.202   7.352  13.956
64795W        W30022  29.289  38.857   2.235
64796W        W30023  29.430  36.500   0.048
64797W        W30024  23.632   6.813   2.226
64798W        W30025  16.075   0.276  13.933
64799W        W30026  42.996  39.459  12.158
64800W        W30027  21.966  29.090   4.185
64801W        W30028   9.478  40.093  12.574
64802W        W30029  36.894  39.422   1.348
64803W        W30030  23.685  10.791   2.335
64804W        W30031  27.155  31.150   2.586
64805W        W30032  17.602  16.272   3.676
64806W        W30033  29.589  21.128  11.775
64807W        W30034  13.102  35.077  11.199
64808W        W30035  39.513  39.754  13.482
64809W        W30036  24.799  32.849   0.354
64810W        W30037  20.585  40.922   0.796
64811W        W30038   8.697  35.102   2.218
64812W        W30039   5.325   3.513  13.067
64813W        W30040  30.428  34.160   1.901
64814W        W30041  23.314  29.037  13.537
64815W        W30042  19.032  27.193  11.990
64816W        W30043   4.075  20.350  13.061
64817W        W30044  28.086  27.615   3.653
64818W        W30045  24.283  18.021   1.359
64819W        W30046   3.282  37.028  10.826
64820W        W30047  35.951  30.470   2.396
64821W        W30048  14.612  22.605  14.356
64822W        W30049  40.745   3.803  14.888
64823W        W30050  31.408  33.565   0.754
64824W        W30051  43.129   9.580  10.805
64825W        W30052  34.968  25.194   3.253
64826W        W30053  17.747   5.633   0.925
64827W        W30054  27.623  38.375   5.548
64828W        W30055  26.604   6.782   3.884
64829W        W30056  28.489  28.963  12.599
64830W        W30057  14.594  41.028   2.405
64831W        W30058   1.516  36.999  14.700
64832W        W30059  20.921  21.224   4.168
64833W        W30060  42.594  15.409   0.220
64834W        W30061  31.349   2.422  12.486
64835W        W30062   2.390  20.825   2.389
64836W        W30063   8.340  44.369  10.719
64837W        W30064  25.007  41.773   4.245
64838W        W30065  23.034  15.853   2.513
64839W        W30066  43.878  29.740  12.509
64840W        W30067  26.153   1.257  14.474
64841W        W30068   1.669  42.309   0.666
64842W        W30069  19.177  27.342   0.896
64843W        W30070  39.294  18.863  13.970
64844W        W30071   5.559   9.153  11.084
64845W        W30072  12.171  11.361   0.994
64846W        W30073   7.227  16.852   1.886
64847W        W30074  21.420   3.496   4.410
64848W        W30075   7.460  41.227   4.745
64849W        W30076  42.469  33.136   0.162
64850W        W30077  23.537  33.866  12.820
64851W        W30078  12.623  13.459   3.265
64852W        W30079  15.607  16.134   3.919
64853W        W30080  25.036  10.216   1.791
64854W        W30081   7.300  25.031   3.371
64855W        W30082  24.923  32.812  12.587
64856W        W30083  26.813  20.061  11.403
64857W        W30084  35.291  21.684  13.627
64858W        W30085  26.215  24.000   2.635
64859W        W30086  41.288  41.655   4.082
64860W        W30087  31.613  44.742   4.298
64861W        W30088  38.384  15.107   4.059
64862W        W30089  32.653  41.265   3.514
64863W        W30090   1.225  23.183   2.118
64864W        W30091   5.760  17.313  14.297
64865W        W30092   1.904  23.182  10.623
64866W        W30093   3.093  11.612   0.244
64867W        W30094   7.401  20.756  13.424
64868W        W30095  42.988   7.311  10.161
64869W        W30096   1.024  26.559  13.491
64870W        W30097   3.504  14.852   4.435
64871W        W30098  10.760  24.881  12.036
64872W        W30099  29.254  44.429  12.956
64873W        W30100  17.632  40.105  14.515
64874W        W30101  33.171  26.505   4.934
64875W        W30102  42.020   5.391  13.991
64876W        W30103  26.951  44.058  11.992
64877W        W30104  15.702  22.851   5.075
64878W        W30105  36.888  38.019   4.428
64879W        W30106  20.419  16.008  11.972
64880W        W30107  14.715  43.490   1.723
64881W        W30108  29.004  15.157   2.453
64882W        W30109  27.529  33.993   2.867
64883W        W30110  27.030  19.513  11.590
64884W        W30111  42.396  27.468   4.617
64885W        W30112  28.636   6.708   3.290
64886W        W30113  24.663  39.292   0.454
64887W        W30114  41.099  37.368  11.705
64888W        W30115   9.838   9.337   1.321
64889W        W30116   3.337   2.880  12.856
64890W        W30117  15.017   6.311  14.547
64891W        W30118   1.238   0.101   2.780
64892W        W30119  26.164  10.310  13.839
64893W        W30120   3.987  21.609  13.636
64894W        W30121  18.032   9.362   3.804
64895W        W30122   9.704  31.675  14.957
64896W        W30123   9.927  21.929  14.539
64897W        W30124  30.520  12.364   4.115
64898W        W30125  35.164  30.983  14.916
64899W        W30126  39.611  30.131  10.796
64900W        W30127  27.526  24.923  13.638
64901W        W30128  42.839  21.766   4.088
64902W        W30129  21.686  11.143   2.805
64903W        W30130  11.396  39.272  12.534
64904W        W30131   5.641  36.572  14.001
64905W        W30132  27.817   3.363   4.119
64906W        W30133  43.623   2.786   3.592
64907W        W30134  32.073  37.793   3.249
64908W        W30135  11.201  26.195  11.668
64909W        W30136  12.233  41.944   0.967
64910W        W30137  22.446  31.937  13.347
64911W        W30138   6.354   3.197  11.139
64912W        W30139   7.013  20.655  13.845
64913W        W30140  27.884   4.223  11.212
64914W        W30141  36.144  37.202  13.041
64915W        W30142  25.559   8.112  10.498
64916W        W30143  18.872   4.274  14.554
64917W        W30144   8.780  40.054  11.359
64918W        W30145  31.398  12.320  14.799
64919W        W30146  24.612   5.777  12.251
64920W        W30147  43.323  23.707  14.908
64921W        W30148  25.621  34.885  11.819
64922W        W30149  29.346  25.699   3.449
64923W        W30150  37.457  22.741  14.876
64924W        W30151   1.000  21.640   3.218
64925W        W30152  15.557  33.130  10.745
64926W        W30153  41.802  39.059   2.217
64927W        W30154  36.164  19.706   3.178
64928W        W30155   3.979  25.332   1.701
64929W        W30156   0.997  12.852  14.432
64930W        W30157  16.225   2.232  13.087
64931W        W30158  25.373  42.490   2.415
64932W        W30159   9.331   1.301  13.902
64933W        W30160  26.453  16.601   1.905
64934W        W30161  40.951  24.009   2.641
64935W        W30162  21.722  21.169  11.215
64936W        W30163  35.215   3.103   1.910
64937W        W30164   3.605  28.214   1.579
64938W        W30165  23.629   0.796  13.602
64939W        W30166  38.349  35.507   0.043
64940W        W30167  24.399   7.782  12.543
64941W        W30168  25.166  27.555   3.766
64942W        W30169   7.772   7.246   2.359
64943W        W30170  32.084   2.005   4.008
64944W        W30171   3.540  28.020   2.041
64945W        W30172  34.772  32.355  14.067
64946W        W30173  10.169  11.604   1.801
64947W        W30174   5.067  34.416  12.007
64948W        W30175   3.937  41.829  12.494
64949W        W30176   2.236   6.379   3.266
64950W        W30177  31.939  18.642   2.350
64951W        W30178  11.354  11.205   4.545
64952W        W30179   7.856  29.054  11.827
64953W        W30180  41.288   0.296   4.585
64954W        W30181  28.146  36.602   2.302
64955W        W30182  29.146  12.191  14.367
64956W        W30183   4.510  44.392  11.610
64957W        W30184   1.982   8.690  13.081
64958W        W30185  41.840  13.385   4.878
64959W        W30186   1.741  28.373   3.526
64960W        W30187  35.950  43.065   2.849
64961W        W30188  14.130  37.485   4.148
64962W        W30189  39.765  17.610  10.588
64963W        W30190  21.000   1.280  10.483
64964W        W30191  24.354  28.836  11.100
64965W        W30192   4.876   4.037  11.140
64966W        W30193  16.966  31.781   2.216
64967W        W30194   0.454   6.891  13.183
64968W        W30195  28.704   4.303  13.530
64969W        W30196  16.337  24.796   2.701
64970W        W30197  18.539  34.129   1.535
64971W        W30198  44.521  43.228   3.340
64972W        W30199  23.597   5.510  13.364
64973W        W30200  22.722  17.848  14.728
64974W        W30201  30.596  30.212  14.429
64975W        W30202  27.403  25.659  12.915
64976W        W30203  30.886  29.985  14.814
64977W        W30204  11.389  44.774  14.860
64978W        W30205  29.542  24.145  12.090
64979W        W30206  33.263   5.660   3.541
64980W        W30207  25.190  34.513  13.405
64981W        W30208   3.028  36.291   2.813
64982W        W30209   8.292   5.423  14.059
64983W        W30210  13.829  14.575   2.247
64984W        W30211  44.202  31.504  12.960
64985W        W30212   9.946  11.293   0.388
64986W        W30213  26.648  24.490  14.262
64987W        W30214  16.086  25.763   3.858
64988W        W30215  33.492  13.387  10.384
64989W        W30216  41.891  34.367   3.576
64990W        W30217   2.311   9.158   0.586
64991W        W30218  40.365  22.341  13.861
64992W        W30219  20.769  13.955  12.092
64993W        W30220  37.529  10.826   4.169
64994W        W30221  30.624   8.415   0.276
64995W        W30222  27.295   7.261  13.524
64996W        W30223  37.907  17.317  13.987
64997W        W30224  25.822  19.559   1.314
64998W        W30225  10.848  19.260   4.842
64999W        W30226  37.062   5.328  10.734
65000W        W30227  13.147  31.382   4.186
65001W        W30228  43.424  14.755  13.304
65002W        W30229  33.534   2.564   3.120
65003W        W30230  24.691   8.188   4.167
65004W        W30231  17.158  30.024   3.786
65005W        W30232  41.471  24.476  13.440
65006W        W30233  10.644  12.824   4.602
65007W        W30234  14.369  43.936  12.755
65008W        W30235  10.705  19.328  11.355
65009W        W30236  32.399   7.178  14.295
65010W        W30237  41.513  29.486  13.262
65011W        W30238   8.408  14.008   4.529
65012W        W30239  21.490  36.429   1.724
65013W        W30240   5.603  15.536   3.626
65014W        W30241   5.918  36.050   4.624
65015W        W30242   9.798  23.593  12.693
65016W        W30243  32.344   7.929  12.154
65017W        W30244   6.621  23.164   2.366
65018W        W30245   1.755  39.646   4.565
65019W        W30246  23.113  23.965  14.367
65020W        W30247  23.054  44.323   3.691
65021W        W30248  41.023  16.232   0.153
65022W        W30249  32.115  29.738  12.580
65023W        W30250  21.081  31.636   0.741
65024W        W30251  44.207  12.712  12.494
65025W        W30252   8.074  26.735   2.788
65026W        W30253   3.972   3.519  13.875
65027W        W30254  15.274   6.902   2.192
65028W        W30255   9.757  29.404  12.715
65029W        W30256   9.086  34.522  14.882
65030W        W30257  27.056  32.101  11.235
65031W        W30258  39.185  11.184  10.344
65032W        W30259  38.382  43.778  10.570
65033W        W30260  27.000  21.209   4.163
65034W        W30261  39.885  32.613  14.431
65035W        W30262   9.299  22.290   1.659
65036W        W30263   3.902  39.136  13.112
65037W        W30264  37.026   4.630   2.088
65038W        W30265  13.816  15.511  12.011
65039W        W30266   7.670  31.724   1.226
65040W        W30267  13.694  43.769   1.725
65041W        W30268  27.426  42.773   2.789
65042W        W30269  42.097   1.591  11.587
65043W        W30270  17.707  44.825   2.292
65044W        W30271  41.811   1.725   4.529
65045W        W30272   3.980  15.085   4.446
65046W        W30273  25.646  14.554  12.607
65047W        W30274   1.771   6.343  11.572
65048W        W30275  23.465  14.572  14.488
65049W        W30276  37.599  44.920   3.354
65050W        W30277   6.317  38.909  13.891
65051W        W30278  13.044  14.688   2.765
65052W        W30279  38.331  20.948  14.052
65053W        W30280  40.853  14.660   4.538
65054W        W30281  24.803  33.292  11.164
65055W        W30282  25.005  29.990   2.714
65056W        W30283  31.790  15.385  12.156
65057W        W30284  40.347  36.071   1.286
65058W        W30285   2.060  11.884   0.955
65059W        W30286  13.409   6.289  11.660
65060W        W30287  43.388  34.365   2.709
65061W        W30288   5.502   0.842  12.476
65062W        W30289   0.984  20.829  14.479
65063W        W30290  33.446   7.303  13.483
65064W        W30291  33.448  34.580   1.502
65065W        W30292  13.277   5.514  12.037
65066W        W30293  35.692  14.244   1.221
65067W        W30294  40.170  13.266  13.509
65068W        W30295   1.248   3.754   0.354
65069W        W30296  39.552  27.968   2.898
65070W        W30297  36.699  13.340  14.363
65071W        W30298   1.410  29.480  13.512
65072W        W30299  20.278  43.854   3.695
65073W        W30300   9.088  34.862  13.468
65074W        W30301   6.837  19.057   0.282
65075W        W30302   3.801  12.397  12.873
65076W        W30303  29.835  22.592  12.525
65077W        W30304   0.943  21.816  14.201
65078W        W30305  33.382  44.262   0.773
65079W        W30306  36.417  10.395  13.468
65080W        W30307  16.626  24.613   3.862
65081W        W30308  28.105   5.322   3.921
65082W        W30309   3.380  11.422  12.524
65083W        W30310  26.073  17.616   1.031
65084W        W30311  20.388  39.292  13.346
65085W        W30312  21.648   7.335  12.665
65086W        W30313   1.194   7.860   2.230
65087W        W30314  39.458   4.961   3.143
65088W        W30315  28.262  28.504   1.345
65089W        W30316   5.091  20.709   1.708
65090W        W30317  38.109  17.042   2.754
65091W        W30318  31.996  20.769  13.915
65092W        W30319   5.707  18.940   0.829
65093W        W30320  17.037  28.524  10.360
65094W        W30321  40.344  35.110  12.598
65095W        W30322  20.921  10.543   0.785
65096W        W30323  29.622  30.057   1.378
65097W        W30324  38.782  18.679  12.509
65098W        W30325   0.325  26.344  13.970
65099W        W30326  19.490  14.114  13.506
65100W        W30327   0.511   1.509  12.276
65101W        W30328  42.514   3.414  13.312
65102W        W30329   9.409  32.927   0.756
65103W        W30330  32.174   2.502  11.591
65104W        W30331   9.759   1.811  13.075
65105W        W30332  21.831  40.877   0.391
65106W        W30333  18.288  21.892   3.007
65107W        W30334  14.085  22.811   3.534
65108W        W30335  15.829  19.267  13.122
65109W        W30336  34.011  15.603   3.787
65110W        W30337  26.200   7.657   1.242
65111W        W30338  41.060  15.525   3.201
65112W        W30339  33.225  24.927   2.268
65113W        W30340  36.023  13.303   2.300
65114W        W30341  27.087   0.185   5.096
65115W        W30342  29.430   7.633  14.939
65116W        W30343  30.208  29.031   2.174
65117W        W30344  18.091  17.263   0.762
65118W        W30345  10.716   0.286   0.721
65119W        W30346   9.338   2.045   3.669
65120W        W30347  17.533  10.737  11.152
65121W        W30348  28.967  21.657  14.583
65122W        W30349  42.424   2.202  12.947
65123W        W30350   0.954  29.439   2.241
65124W        W30351  26.940  44.743   0.884
65125W        W30352  33.249  41.989  14.415
65126W        W30353  23.290  40.912   4.115
65127W        W30354  21.558  15.276   4.549
65128W        W30355  18.300   7.114   4.930
65129W        W30356  32.148  41.228   1.392
65130W        W30357   3.051  10.741   3.142
65131W        W30358  27.637  32.499   3.782
65132W        W30359  26.920  15.808   4.264
65133W        W30360  42.707  27.486  10.661
65134W        W30361  33.500  24.928   4.291
65135W        W30362  28.728  28.341   2.694
65136W        W30363  30.075   7.580  13.803
65137W        W30364   2.101   8.775   4.753
65138W        W30365   2.782   6.180  12.850
65139W        W30366   8.911  36.035   3.592
65140W        W30367  31.418  12.346  13.893
65141W        W30368  27.526  38.607   1.418
65142W        W30369  44.797  38.396   0.633
65143W        W30370  13.277  32.503  12.032
65144W        W30371   5.199  21.096  10.576
65145W        W30372  35.168  40.927  13.420
65146W        W30373  39.505  34.899  14.793
65147W        W30374  13.607  17.621   0.295
65148W        W30375  30.109  13.167  11.845
65149W        W30376  28.181  44.462   5.230
65150W        W30377  10.342  34.709  11.956
65151W        W30378   9.556  20.882   2.869
65152W        W30379  37.974  33.106  10.499
65153W        W30380  24.975   0.479   1.656
65154W        W30381  33.916  26.058  14.229
65155W        W30382  41.653  15.590   1.019
65156W        W30383  37.683  27.125  12.360
65157W        W30384   4.155  35.365   1.487
65158W        W30385  41.447  18.602  13.303
65159W        W30386  11.126  32.010  12.980
65160W        W30387  34.164  15.139   0.877
65161W        W30388  30.596  24.203  14.391
65162W        W30389  38.342  10.330   4.745
65163W        W30390  22.797  23.094  12.858
65164W        W30391   2.010  16.274  10.962
65165W        W30392  16.676   0.951   3.705
65166W        W30393  16.348  14.612   3.923
65167W        W30394   8.219  28.924  11.442
65168W        W30395  29.358  12.381  10.742
65169W        W30396  22.275  12.548   3.229
65170W        W30397  14.827  22.236   3.931
65171W        W30398  22.043  18.075  14.035
65172W        W30399   1.740   1.943  11.993
65173W        W30400  40.297  39.960  12.193
65174W        W30401  26.095  11.774  11.267
65175W        W30402  24.484  21.501   3.621
65176W        W30403   4.266  11.652   2.543
65177W        W30404   8.563  25.018  12.742
65178W        W30405  35.647  13.612   3.580
65179W        W30406   8.672   9.496  11.710
65180W        W30407  19.970  24.040  13.327
65181W        W30408  29.024   0.386   3.859
65182W        W30409   2.903  16.673  11.900
65183W        W30410   6.223  37.785   0.236
65184W        W30411  17.650  21.473  11.958
65185W        W30412   9.768   2.624  11.159
65186W        W30413  40.925   2.155  12.265
65187W        W30414   6.747  10.812   1.848
65188W        W30415   6.282  22.526   3.027
65189W        W30416  18.731   3.462  13.770
65190W        W30417  35.593  36.547   3.633
65191W        W30418  24.669  30.176  10.821
65192W        W30419  28.929   0.081   4.274
65193W        W30420  30.970  34.145  10.628
65194W        W30421  16.538  18.213  14.562
65195W        W30422  13.287  40.263   3.668
65196W        W30423   6.736   4.846  11.080
65197W        W30424  44.288  23.399  14.814
65198W        W30425  37.395  44.589   2.310
65199W        W30426  23.467   7.959  14.967
65200W        W30427  12.886  44.854   3.781
65201W        W30428   4.882   5.207   0.370
65202W        W30429  25.773  36.108   1.361
65203W        W30430  43.601   3.201  10.822
65204W        W30431  17.173  43.179   4.841
65205W        W30432   4.555  22.682   5.125
65206W        W30433  43.663  13.826   1.761
65207W        W30434  24.011   9.438   0.714
65208W        W30435  38.293  38.321  10.866
65209W        W30436  27.648  16.077  12.189
65210W        W30437   4.741  11.582  13.303
65211W        W30438  25.455  11.098  13.924
65212W        W30439  28.598  10.356   2.166
65213W        W30440   8.613  30.642  12.941
65214W        W30441  10.637  13.302  13.880
65215W        W30442   3.760  40.869  14.897
65216W        W30443  28.949  32.827  12.781
65217W        W30444   6.793   2.097  11.188
65218W        W30445  10.745   5.294  11.493
65219W        W30446  12.665  14.372   1.886
65220W        W30447  12.753  32.109  14.322
65221W        W30448  14.894  31.120  12.593
65222W        W30449  39.649  24.187   0.634
65223W        W30450  19.158  23.525  14.534
65224W        W30451  22.671  13.294  11.606
65225W        W30452  24.173  22.198   0.091
65226W        W30453  40.538  15.587   1.762
65227W        W30454  28.422   6.855  12.864
65228W        W30455   6.220  19.472  10.282
65229W        W30456  22.728  30.106   1.744
65230W        W30457  41.248   1.460   4.991
65231W        W30458   9.109  37.368  12.969
65232W        W30459  37.083   8.739  12.475
65233W        W30460   9.788  30.297   0.578
65234W        W30461   8.443   8.233  11.306
65235W        W30462  44.127  34.688   1.428
65236W        W30463  21.091  20.363   1.252
65237W        W30464  40.656   0.243  11.163
65238W        W30465   9.832  40.490   1.214
65239W        W30466  21.675  21.532   3.606
65240W        W30467  33.957  44.067   4.461
65241W        W30468  11.957  27.234  12.012
65242W        W30469  33.186  34.538  14.358
65243W        W30470  30.998  35.160   9.813
65244W        W30471  32.348  27.671   2.238
65245W        W30472   4.926  23.120   1.221
65246W        W30473  14.646  20.241  14.319
65247W        W30474  24.635   0.159   2.372
65248W        W30475  40.367  22.202   0.219
65249W        W30476   1.310  25.103   1.985
65250W        W30477  18.855  11.764  11.586
65251W        W30478   9.487  29.947   0.827
65252W        W30479  39.409  25.401   3.827
65253W        W30480  38.045   3.981  12.032
65254W        W30481  16.950  30.860  10.129
65255W        W30482  17.807  39.059  11.959
65256W        W30483   2.782  24.145   0.857
65257W        W30484  32.634  12.265   5.036
65258W        W30485  23.097   8.109   3.707
65259W        W30486   0.903  17.570  12.900
65260W        W30487  40.996  23.556   2.390
65261W        W30488  14.767  42.597  10.453
65262W        W30489   8.343   2.362  10.607
65263W        W30490  44.911  30.082   1.889
65264W        W30491  14.325  36.929   2.866
65265W        W30492  31.401  25.166  10.966
65266W        W30493  35.182  36.723   5.301
65267W        W30494  27.402   7.331   0.455
65268W        W30495  31.856  38.442  11.790
65269W        W30496  19.158  39.081   2.018
65270W        W30497   0.811   7.792  12.537
65271W        W30498  29.561  30.279   0.820
65272W        W30499  30.677  41.940   0.373
65273W        W30500  28.426  44.943  14.044
65274W        W30501  43.290  12.582   0.496
65275W        W30502   1.431  14.610  10.446
65276W        W30503  37.828  29.497  14.407
65277W        W30504  37.352  19.078  13.095
65278W        W30505   5.383  33.749  14.269
65279W        W30506   7.865  41.214  13.923
65280W        W30507  12.152  35.571   0.004
65281W        W30508   5.684  24.239   1.291
65282W        W30509  44.294   5.701   0.341
65283W        W30510  30.619   8.958   4.582
65284W        W30511  38.602  39.220  11.049
65285W        W30512   5.310  36.369  13.131
65286W        W30513   9.106  40.433   1.708
65287W        W30514  24.238   2.418  14.413
65288W        W30515   1.885  26.574   2.997
65289W        W30516  11.681  34.072  14.571
65290W        W30517   6.251  36.055  12.944
65291W        W30518  39.509  36.275  14.872
65292W        W30519  16.554  19.929   3.582
65293W        W30520  14.328   1.826  11.170
65294W        W30521  16.287  35.359   3.265
65295W        W30522  12.687  30.597  11.543
65296W        W30523  35.675  12.624   2.859
65297W        W30524  35.753  18.832  13.547
65298W        W30525  41.841  25.517  11.096
65299W        W30526  11.914   0.982   0.525
65300W        W30527  14.603  21.257  13.888
65301W        W30528  10.200   0.988   0.894
65302W        W30529  36.262  38.682   2.386
65303W        W30530  15.557  43.909  10.766
65304W        W30531  26.355  16.092   0.306
65305W        W30532  40.705  17.580   3.747
65306W        W30533  22.443  42.773   1.381
65307W        W30534  26.136   2.221   4.646
65308W        W30535  14.723  27.468   2.218
65309W        W30536  28.440   6.748  13.932
65310W        W30537  24.290  15.760  11.828
65311W        W30538  18.790   5.631  13.386
65312W        W30539  38.556   0.091  10.709
65313W        W30540  30.178   5.669  13.161
65314W        W30541  11.164  19.225   2.563
65315W        W30542   8.736  40.035   4.554
65316W        W30543  23.605  31.863   0.753
65317W        W30544  42.042  39.658  14.979
65318W        W30545   2.926  19.236  11.657
65319W        W30546  39.512  16.211  12.130
65320W        W30547  36.116  30.918  12.999
65321W        W30548  27.213  38.395  12.344
65322W        W30549  35.599  15.176   0.375
65323W        W30550  43.546   4.284   0.735
65324W        W30551  38.962  29.759  11.364
65325W        W30552  24.489  23.008  13.582
65326W        W30553   6.660  41.446  13.898
65327W        W30554  44.893  39.207  10.474
65328W        W30555  21.730   1.851   1.298
65329W        W30556  35.701   9.882   2.706
65330W        W30557  31.915  28.894  12.871
65331W        W30558   6.478   1.511   0.796
65332W        W30559   8.668   3.726   0.843
65333W        W30560   5.431  23.979  14.330
65334W        W30561  39.345  35.951   2.686
65335W        W30562   9.603  22.996  11.894
65336W        W30563  44.925  39.403   1.794
65337W        W30564   7.702  25.464   2.115
65338W        W30565  36.366  17.032  11.646
65339W        W30566  32.186  39.136   5.399
65340W        W30567  37.975  19.614  14.951
65341W        W30568   8.451  36.558  11.641
65342W        W30569  17.073  20.631  12.098
65343W        W30570  38.517  30.395   2.889
65344W        W30571  44.285  21.180  11.223
65345W        W30572  11.915  20.219  12.124
65346W        W30573  31.361  12.598   2.677
65347W        W30574  32.013   7.571  10.401
65348W        W30575  42.405  33.409   4.711
65349W        W30576  15.874  21.163   2.386
65350W        W30577  33.976  12.762   2.154
65351W        W30578  28.900  38.496   4.560
65352W        W30579  11.339  15.958   2.369
65353W        W30580  25.470  12.693   5.068
65354W        W30581  22.164  24.818   3.133
65355W        W30582   9.163  12.019   2.413
65356W        W30583  10.146  11.862   0.047
65357W        W30584  42.992  14.722  10.517
65358W        W30585  41.585   8.350  10.997
65359W        W30586  41.262  15.644  10.577
65360W        W30587  14.088   1.096  10.668
65361W        W30588  29.538  36.246  11.575
65362W        W30589  30.559  12.611  14.795
65363W        W30590   1.974  27.231   1.835
65364W        W30591  20.954  25.634  13.969
65365W        W30592   1.009  16.641   0.971
65366W        W30593  19.198  14.865   4.645
65367W        W30594  32.059  25.132   3.289
65368W        W30595  15.327  13.154   3.222
65369W        W30596  25.715  28.549   2.324
65370W        W30597  40.202   8.896  12.046
65371W        W30598  23.339  30.995  11.963
65372W        W30599  27.217  18.194   0.774
65373W        W30600  35.930   1.698  13.843
65374W        W30601  22.990  31.805   4.153
65375W        W30602  15.182   8.693   4.042
65376W        W30603   9.607   3.079  10.933
65377W        W30604  22.985  44.441  14.217
65378W        W30605  19.658   7.848  14.477
65379W        W30606  43.884  38.830   0.761
65380W        W30607   5.934  20.129   0.551
65381W        W30608  16.892  15.353  10.545
65382W        W30609   0.957   6.998  13.000
65383W        W30610  27.457  21.746  11.955
65384W        W30611  21.748  14.796   4.593
65385W        W30612  44.536  19.084   1.454
65386W        W30613   6.962  15.638   0.008
65387W        W30614  36.134   8.931  12.397
65388W        W30615  34.023  44.603  12.162
65389W        W30616  18.872   9.280   0.419
65390W        W30617  38.258  40.928   2.785
65391W        W30618   0.293   3.036   4.400
65392W        W30619  12.549  42.826   4.135
65393W        W30620  38.769  23.014   2.965
65394W        W30621  22.524  23.539   0.762
65395W        W30622   6.913  17.299   4.018
65396W        W30623   3.619  18.610  12.628
65397W        W30624  41.859  16.587  14.742
65398W        W30625   8.674  11.296   1.351
65399W        W30626   5.362  17.645   3.567
65400W        W30627  39.807  29.849   1.743
65401W        W30628  33.120  12.865  14.811
65402W        W30629  35.603   4.761   1.337
65403W        W30630   2.200   4.375   1.435
65404W        W30631  31.648  38.092   3.166
65405W        W30632  28.555  36.820   1.474
65406W        W30633  40.617  20.317   4.119
65407W        W30634   0.210  13.216  14.099
65408W        W30635  39.996  15.068   2.384
65409W        W30636  24.657  43.500   3.180
65410W        W30637  24.168  21.132  11.091
65411W        W30638  44.288  35.856   2.735
65412W        W30639   3.251  38.421   2.065
65413W        W30640  34.283  22.237   3.525
65414W        W30641   2.340   6.260  12.401
65415W        W30642  41.564  11.008   2.681
65416W        W30643  27.008  44.750  10.913
65417W        W30644   9.290  27.944   4.631
65418W        W30645  18.363  17.737  11.514
65419W        W30646  29.006  16.782   0.785
65420W        W30647   9.894  23.949   1.915
65421W        W30648  32.008  22.982  14.508
65422W        W30649  39.185  37.198   3.169
65423W        W30650  35.393  28.926  11.246
65424W        W30651   4.420  36.849   0.464
65425W        W30652  30.832  16.739   5.009
65426W        W30653  13.903  10.400   9.878
65427W        W30654   0.791   8.341  12.626
65428W        W30655  43.502  24.327   3.805
65429W        W30656  25.571  30.353  12.140
65430W        W30657  41.692   4.024   1.450
65431W        W30658  32.397  14.214   2.765
65432W        W30659  41.806   0.820   4.092
65433W        W30660   6.305  24.611   4.214
65434W        W30661  22.439  36.137  13.674
65435W        W30662  30.859  19.692   4.021
65436W        W30663  24.136   5.431  13.937
65437W        W30664  39.895  28.969   0.047
65438W        W30665   2.659  38.063   0.958
65439W        W30666  34.677  36.518   5.187
65440W        W30667  28.813  13.195   5.296
65441W        W30668  20.997  10.080  11.891
65442W        W30669  14.891  31.796   0.728
65443W        W30670  40.079  11.720   3.632
65444W        W30671  11.652  44.384  14.606
65445W        W30672  26.507  26.058  11.783
65446W        W30673  30.118  16.972   0.034
65447W        W30674  34.999   4.313   4.687
65448W        W30675  44.219  38.095   2.112
65449W        W30676  13.819  19.068   1.609
65450W        W30677  13.654  29.928  13.417
65451W        W30678  20.247   8.998  12.065
65452W        W30679  44.502  12.910  14.552
65453W        W30680   0.778  24.629  13.387
65454W        W30681  41.794  34.687   1.211
65455W        W30682   6.851  23.643   1.740
65456W        W30683  33.544   2.041   3.157
65457W        W30684   5.199  42.197   4.583
65458W        W30685  28.908  31.461   3.262
65459W        W30686  27.111  17.294   2.888
65460W        W30687  17.350  22.142  13.085
65461W        W30688  33.814  28.462   0.748
65462W        W30689  25.195  38.471  13.317
65463W        W30690  28.663  33.489   2.972
65464W        W30691  38.879  15.867  11.052
65465W        W30692  30.466  19.118  10.782
65466W        W30693   7.927  10.260  12.308
65467W        W30694  14.009   9.668  11.652
65468W        W30695  24.864  37.196  13.871
65469W        W30696  39.845  16.208   1.298
65470W        W30697  37.968  21.092  12.565
65471W        W30698  21.381  33.368   0.172
65472W        W30699  14.900   7.910  11.155
65473W        W30700   7.455  31.207  12.951
65474W        W30701   5.200  16.536  11.686
65475W        W30702  12.782  17.887  11.861
65476W        W30703   6.298   1.516  10.330
65477W        W30704  21.970  18.057   2.004
65478W        W30705  18.052  21.570  13.574
65479W        W30706  15.583  34.622   4.213
65480W        W30707   9.683  27.124  10.500
65481W        W30708   7.891  19.151   0.802
65482W        W30709  40.804  24.045   3.122
65483W        W30710   0.883  10.588  14.293
65484W        W30711  14.331  12.449  13.984
65485W        W30712  44.851   2.271   0.527
65486W        W30713  26.403   9.173  14.404
65487W        W30714  31.461  43.363   4.588
65488W        W30715  17.731  20.555  14.442
65489W        W30716   1.996  14.447   1.972
65490W        W30717  18.337  12.299  13.811
65491W        W30718  35.754  20.536  12.800
65492W        W30719  36.717  43.419   3.846
65493W        W30720  30.555  34.572   0.978
65494W        W30721   4.410  10.371  14.474
65495W        W30722  39.035   3.739   0.519
65496W        W30723  35.236  38.585  11.139
65497W        W30724  14.430  18.106  14.664
65498W        W30725  26.942  10.067   3.424
65499W        W30726  11.112  12.127  10.439
65500W        W30727  30.663  39.911   2.847
65501W        W30728   9.802  21.462   1.640
65502W        W30729   7.890   7.173   0.692
65503W        W30730  12.946  19.835  11.283
65504W        W30731  33.939  14.309  14.993
65505W        W30732   0.370  42.859   3.109
65506W        W30733   3.538  44.552   0.522
65507W        W30734  12.635  21.012  11.959
65508W        W30735  15.347  27.895  13.569
65509W        W30736  26.094  11.558  14.455
65510W        W30737  35.680   6.850  11.178
65511W        W30738  19.728  14.344   2.361
65512W        W30739  42.573  30.550  12.137
65513W        W30740  19.211   3.353   4.913
65514W        W30741  25.660  36.049  13.358
65515W        W30742   1.892  33.918  14.779
65516W        W30743  36.046  29.454  12.951
65517W        W30744  31.964  18.934   1.456
65518W        W30745  42.489   7.239  10.715
65519W        W30746  28.242  38.876  14.440
65520W        W30747  22.242  16.792  13.637
65521W        W30748  14.140  13.073   0.975
65522W        W30749   9.747  29.384   3.575
65523W        W30750  31.093  43.960   3.242
65524W        W30751  13.665  17.149  11.483
65525W        W30752  36.508  23.270  14.501
65526W        W30753  31.375  16.259  14.968
65527W        W30754  37.035  24.527  10.750
65528W        W30755  22.357  29.946   0.351
65529W        W30756  42.341  18.635  11.724
65530W        W30757   8.229  31.358  10.731
65531W        W30758  16.700  27.594   1.994
65532W        W30759  29.536  19.083   1.494
65533W        W30760  37.252  28.234  13.765
65534W        W30761  43.577   1.493  11.493
65535W        W30762   0.541  19.678   3.274
65536W        W30763  24.983  44.311  11.853
65537W        W30764  32.629  23.392  11.914
65538W        W30765  26.505  34.387   3.605
65539W        W30766  26.031  15.724  10.710
65540W        W30767  23.306  19.089  12.456
65541W        W30768   2.046  14.327  12.539
65542W        W30769  10.399  36.355   1.913
65543W        W30770   8.837   1.659   0.823
65544W        W30771  26.282  29.487  13.496
65545W        W30772   8.255   7.598   1.680
65546W        W30773  31.020  41.959  14.174
65547W        W30774  23.786  43.039  14.300
65548W        W30775  10.524   7.735   0.307
65549W        W30776  16.794  23.569  14.310
65550W        W30777  31.646  15.380   1.823
65551W        W30778  10.725   0.750  11.231
65552W        W30779  30.643   1.764   0.105
65553W        W30780  16.307  31.148  13.595
65554W        W30781  27.854   1.903   5.141
65555W        W30782  24.476  15.949  14.083
65556W        W30783  42.025   9.331  12.189
65557W        W30784  29.077  34.917   4.089
65558W        W30785  30.557  17.605  10.960
65559W        W30786  30.102   9.950   3.306
65560W        W30787  33.345  40.826   0.247
65561W        W30788  12.498  37.026   5.151
65562W        W30789  23.213  37.319  14.347
65563W        W30790  30.727   7.903  12.385
65564W        W30791   7.374  24.544   1.825
65565W        W30792  41.739  39.272   1.733
65566W        W30793   2.775   2.296  14.475
65567W        W30794   1.756  17.090  13.271
65568W        W30795   0.296  33.965  13.401
65569W        W30796  36.757  15.822  13.409
65570W        W30797   5.726  37.548   4.800
65571W        W30798  31.035   1.462  14.948
65572W        W30799  10.299   0.954  14.187
65573W        W30800   7.058  33.891   1.386
65574W        W30801  42.823  20.386   5.471
65575W        W30802  22.199  26.951  11.152
65576W        W30803  26.666  19.580   3.012
65577W        W30804  33.099   5.392  10.554
65578W        W30805  27.671  31.543  11.625
65579W        W30806  11.392  16.265   0.758
65580W        W30807  25.634  28.555   4.365
65581W        W30808  31.711   1.480   4.601
65582W        W30809  22.311  42.770  14.270
65583W        W30810  34.552  35.449   0.211
65584W        W30811  22.374   5.857  11.180
65585W        W30812  25.501  22.435   4.754
65586W        W30813   4.675  13.375  13.476
65587W        W30814  37.583  14.151  11.494
65588W        W30815  28.691  34.212   1.356
65589W        W30816  41.955  44.773  14.751
65590W        W30817  23.701  30.230  12.512
65591W        W30818   1.876  34.479  12.868
65592W        W30819  21.578  36.926  10.645
65593W        W30820  43.678  18.841   1.511
65594W        W30821   1.754  24.921  14.928
65595W        W30822   2.586   6.039  14.213
65596W        W30823  28.619  15.088   2.793
65597W        W30824  28.043  22.961   2.110
65598W        W30825  28.691   1.624  13.288
65599W        W30826  13.513   8.332   3.915
65600W        W30827  25.711  40.741   4.423
65601W        W30828  23.260   8.929   1.823
65602W        W30829  21.515  10.823  12.113
65603W        W30830   2.259   2.476  13.050
65604W        W30831  22.222  20.068   4.824
65605W        W30832   9.202  37.833   1.414
65606W        W30833  33.943  35.316   1.218
65607W        W30834  23.597  17.052  14.104
65608W        W30835   5.224  16.837   3.681
65609W        W30836   7.061  29.771   2.892
65610W        W30837  14.092  30.021   3.488
65611W        W30838   4.488  42.053  11.175
65612W        W30839   6.627  26.929   3.274
65613W        W30840  36.879   1.524  13.858
65614W        W30841  17.998  36.158   0.450
65615W        W30842  13.882  31.959  11.173
65616W        W30843  37.889  14.108   4.177
65617W        W30844  37.840  13.030   0.258
65618W        W30845   7.680   5.251   2.857
65619W        W30846  24.175  17.360  10.748
65620W        W30847   1.031  32.008  12.049
65621W        W30848  33.881   6.945   1.707
65622W        W30849  32.027   4.930   0.897
65623W        W30850  20.687  35.093   3.357
65624W        W30851  19.139  37.414   0.863
65625W        W30852  30.385  21.636   1.005
65626W        W30853  19.957  39.483   2.241
65627W        W30854  23.603  24.525  11.056
65628W        W30855  37.032  19.265   0.885
65629W        W30856  37.962  14.759   0.857
65630W        W30857  36.635  14.749  13.293
65631W        W30858  20.256  10.766   1.740
65632W        W30859  20.686  35.595   3.508
65633W        W30860  41.730  18.565   3.082
65634W        W30861   4.437  19.293   2.505
65635W        W30862  40.470   4.235  13.525
65636W        W30863  43.607   3.305   0.848
65637W        W30864   1.472  18.486   4.612
65638W        W30865  36.440  36.938  13.429
65639W        W30866  44.827  33.015  13.395
65640W        W30867  41.360  13.933   3.270
65641W        W30868  27.995  42.306  12.482
65642W        W30869  39.376  27.982   3.819
65643W        W30870  37.158  25.583   4.592
65644W        W30871  31.898  15.373   4.544
65645W        W30872  27.209  13.600  13.932
65646W        W30873  29.260  17.735  12.981
65647W        W30874  33.858   7.983   4.178
65648W        W30875  34.416  42.141  13.388
65649W        W30876   9.857  36.386  11.681
65650W        W30877  43.654   6.693  10.178
65651W        W30878   2.708  14.767  10.654
65652W        W30879   8.598  16.171  14.408
65653W        W30880   2.502  27.745  11.243
65654W        W30881   2.371  32.131   0.084
65655W        W30882   9.616  33.135   1.204
65656W        W30883  21.624  24.181  12.121
65657W        W30884  25.900  29.635   1.306
65658W        W30885   7.611  24.476   0.500
65659W        W30886  41.269  28.030  14.843
65660W        W30887  30.055  28.925  14.721
65661W        W30888   9.421  31.817   3.132
65662W        W30889  29.444  44.460   3.251
65663W        W30890   8.333  24.903   3.236
65664W        W30891   4.677  22.269  11.027
65665W        W30892   6.859  12.072   4.335
65666W        W30893  14.211  19.110   1.989
65667W        W30894  25.533  42.025   2.980
65668W        W30895  44.662   9.792  13.755
65669W        W30896  32.013   6.438   4.513
65670W        W30897  20.294   5.135   0.304
65671W        W30898   9.254  32.806   4.475
65672W        W30899  42.984  44.500  10.938
65673W        W30900   9.447  23.581   2.756
65674W        W30901  34.935  43.755   1.575
65675W        W30902  22.777   4.332  13.010
65676W        W30903  14.147  33.939   1.175
65677W        W30904  40.370  16.544  13.962
65678W        W30905  37.555   2.370   2.798
65679W        W30906  17.314  33.033   4.363
65680W        W30907  32.940  44.822  14.416
65681W        W30908   3.058  16.377   4.056
65682W        W30909  35.003   1.724  11.162
65683W        W30910   3.370  29.088  14.579
65684W        W30911  16.369  24.374   0.930
65685W        W30912  14.150  13.044  12.063
65686W        W30913  42.397   2.954  10.747
65687W        W30914  15.248  40.522   0.497
65688W        W30915  42.584  38.736   4.626
65689W        W30916  43.777  26.091  12.749
65690W        W30917  35.373  33.113  11.285
65691W        W30918   6.866  13.892   5.079
65692W        W30919   1.757  19.065  12.430
65693W        W30920  26.550  24.619   4.339
65694W        W30921   5.946  40.064  11.291
65695W        W30922  37.317  40.325  14.353
65696W        W30923  35.044  22.595   3.819
65697W        W30924  44.687  39.035   4.524
65698W        W30925  21.878   8.391  11.032
65699W        W30926  31.564  11.773   0.467
65700W        W30927   7.230  36.954   4.898
65701W        W30928  19.808  18.135   3.271
65702W        W30929  18.784  43.062   1.227
65703W        W30930  24.704  10.918   1.876
65704W        W30931  37.913  13.593  10.385
65705W        W30932  33.973  15.664  12.895
65706W        W30933   9.558  37.057   2.919
65707W        W30934  21.663  14.856   0.396
65708W        W30935  11.785  21.401   0.997
65709W        W30936  29.092  19.762   4.646
65710W        W30937   2.825   0.703   1.792
65711W        W30938  35.929  29.991   0.717
65712W        W30939  33.456  27.543   3.164
65713W        W30940  33.185  32.393  12.528
65714W        W30941   0.399  37.862   0.935
65715W        W30942  32.565  30.516   1.301
65716W        W30943  30.434  34.775   4.662
65717W        W30944  26.535  31.092  12.086
65718W        W30945  29.359  18.753   0.328
65719W        W30946  25.506  17.600   0.205
65720W        W30947  22.775  38.516  14.525
65721W        W30948  12.257  19.555   2.355
65722W        W30949   7.277  18.288   1.723
65723W        W30950  37.283   1.217  11.184
65724W        W30951  34.970  20.393   2.289
65725W        W30952  42.224  10.779  13.413
65726W        W30953  22.827  15.832  13.067
65727W        W30954  34.124   9.185   3.622
65728W        W30955  34.932  34.349  11.101
65729W        W30956  31.126  21.283   4.092
65730W        W30957  38.323  11.673  14.481
65731W        W30958  35.007   9.744  10.646
65732W        W30959   7.280  20.763  12.113
65733W        W30960   7.688  32.218  11.638
65734W        W30961   8.065  30.317   1.867
65735W        W30962  12.735  41.869  12.492
65736W        W30963  22.286  14.455   1.360
65737W        W30964   7.380  25.112   2.403
65738W        W30965  30.816  29.134   3.425
65739W        W30966   2.673  29.758   5.329
65740W        W30967  37.620   0.818   3.320
65741W        W30968   9.315   7.029  12.537
65742W        W30969  39.760  18.800   3.692
65743W        W30970  42.163  38.771   4.935
65744W        W30971   1.360  15.663   0.924
65745W        W30972  32.060  18.822  12.072
65746W        W30973  37.574  24.541  13.513
65747W        W30974  10.855  42.008   3.272
65748W        W30975   4.428  30.813   2.940
65749W        W30976  18.054  33.008  14.419
65750W        W30977  40.277  39.079  11.436
65751W        W30978  38.907  28.431  10.938
65752W        W30979  37.181  31.747  14.455
65753W        W30980  26.726   4.676   0.398
65754W        W30981  34.014   8.430   1.224
65755W        W30982   8.575  12.964   3.772
65756W        W30983  18.505  14.347   4.920
65757W        W30984   5.527  28.151   4.802
65758W        W30985  28.263  27.339   4.054
65759W        W30986  35.356   8.339  11.557
65760W        W30987  33.448  24.503   3.343
65761W        W30988  42.196   2.192   2.171
65762W        W30989  31.565  12.518  11.917
65763W        W30990  41.792   2.191   2.560
65764W        W30991  44.178  34.982   4.078
65765W        W30992  11.622  32.184  13.891
65766W        W30993   4.313   9.391  13.142
65767W        W30994  39.233  35.574   4.029
65768W        W30995   7.035  39.402   4.886
65769W        W30996   2.969  24.456   4.069
65770W        W30997  21.502  38.247   1.450
65771W        W30998  17.513  37.964   1.234
65772W        W30999   9.692  28.457   4.031
65773W        W31000  37.712  20.732  10.884
65774W        W31001  31.801  40.084  14.036
65775W        W31002  24.323  44.730  10.221
65776W        W31003   6.315  40.575  13.072
65777W        W31004  29.426  22.260  12.442
65778W        W31005  38.399   1.739   3.421
65779W        W31006  10.726  29.956   4.263
65780W        W31007  39.117  28.858  11.942
65781W        W31008  13.704   0.509   2.447
65782W        W31009  18.111  30.127  10.699
65783W        W31010  40.067  24.208  12.403
65784W        W31011  43.762  11.220   0.215
65785W        W31012  15.596  21.846  10.503
65786W        W31013  15.251  27.477   3.059
65787W        W31014  21.445  40.336   1.675
65788W        W31015  43.525  15.384   2.887
65789W        W31016  24.151   3.074   0.495
65790W        W31017   4.836   2.863  12.631
65791W        W31018  36.648  23.433  13.750
65792W        W31019  13.341  22.236   2.266
65793W        W31020  20.567  33.828   4.413
65794W        W31021   9.437  37.980   1.840
65795W        W31022  17.399  24.549   4.941
65796W        W31023  13.934   1.515  11.154
65797W        W31024  10.622   8.666  14.478
65798W        W31025  27.019   8.661   0.755
65799W        W31026  34.587  20.999   3.224
65800W        W31027   3.781  42.348   3.175
65801W        W31028  18.551  21.554   2.680
65802W        W31029  21.382  26.927   4.161
65803W        W31030  19.522   9.104   4.682
65804W        W31031  27.681  15.324   0.975
65805W        W31032  27.559  23.053   4.369
65806W        W31033  17.576   7.372   1.825
65807W        W31034  34.186  15.886  10.436
65808W        W31035  10.642  37.341   1.434
65809W        W31036  37.098   4.235  11.978
65810W        W31037  33.323  33.592   3.907
65811W        W31038  25.978  30.519   0.756
65812W        W31039   3.539  41.520  11.194
65813W        W31040  31.831  30.515   2.029
65814W        W31041  25.753  25.485  14.810
65815W        W31042  24.128  29.842  13.428
65816W        W31043  14.787  28.624  10.753
65817W        W31044   0.370  37.661   4.632
65818W        W31045  22.234  34.917  10.898
65819W        W31046  26.650  22.924  11.392
65820W        W31047  32.139  23.475   2.732
65821W        W31048  43.122  31.873  12.014
65822W        W31049  36.702  26.620  12.822
65823W        W31050  38.996  42.969  11.420
65824W        W31051  38.513  11.850   2.387
65825W        W31052  35.572   4.903   0.251
65826W        W31053  38.462  18.276   1.270
65827W        W31054  21.537  17.828   4.178
65828W        W31055  15.082  38.898   1.275
65829W        W31056  10.228  40.470   4.448
65830W        W31057   3.437  15.589  10.685
65831W        W31058  37.823  25.813   1.954
65832W        W31059  17.238  14.625  13.286
65833W        W31060   8.425  17.934   2.172
65834W        W31061  29.390  38.086  11.985
65835W        W31062  13.845  38.377   4.574
65836W        W31063  23.683  23.971  11.693
65837W        W31064   5.997  32.187  12.998
65838W        W31065  23.699   5.136   2.138
65839W        W31066  41.143  20.104   2.792
65840W        W31067  30.346   0.708   3.644
65841W        W31068  43.135  16.633   4.685
65842W        W31069  10.117  25.670   0.664
65843W        W31070   9.653  19.605  12.763
65844W        W31071  12.704  39.650  11.947
65845W        W31072  12.948  36.985   2.763
65846W        W31073   4.205  26.044  13.621
65847W        W31074   1.466  30.987   2.883
65848W        W31075  13.317  23.217   1.233
65849W        W31076   7.870  28.246   0.531
65850W        W31077  27.693  34.183  11.214
65851W        W31078  24.503  36.454  13.459
65852W        W31079  41.123   8.729  14.415
65853W        W31080  39.556  31.133   3.653
65854W        W31081   4.400   2.882   3.816
65855W        W31082  35.890  23.018  11.454
65856W        W31083   3.775  25.245  14.812
65857W        W31084   1.901  16.054  13.443
65858W        W31085   4.860  18.118   0.236
65859W        W31086  15.849   8.901   0.245
65860W        W31087  30.427  40.950  13.589
65861W        W31088   2.228  27.647   1.697
65862W        W31089  29.495   2.189   4.578
65863W        W31090   9.758  43.910  13.998
65864W        W31091  20.107  36.766  12.964
65865W        W31092  38.239  44.914  14.306
65866W        W31093   0.701  28.501   2.604
65867W        W31094   0.661   0.352  12.062
65868W        W31095  34.469  35.200  10.163
65869W        W31096  20.265  15.581  13.039
65870W        W31097  35.035  31.487  10.685
65871W        W31098  21.619  12.725  14.224
65872W        W31099  33.550  21.901   5.120
65873W        W31100   8.813   2.198  13.997
65874W        W31101  14.355  31.020  13.018
65875W        W31102  25.486  10.854   2.246
65876W        W31103   4.030  36.048   1.943
65877W        W31104  16.597  40.619   0.733
65878W        W31105   7.635   4.174   2.705
65879W        W31106  15.790  39.881  12.177
65880W        W31107  13.775   6.005   2.299
65881W        W31108  38.853  41.550   1.882
65882W        W31109  25.480   1.774  12.472
65883W        W31110  35.297  35.716  12.474
65884W        W31111  19.010   5.687  14.493
65885W        W31112  37.429  26.455  13.530
65886W        W31113  44.325   6.884  12.427
65887W        W31114  21.719  33.143   4.806
65888W        W31115  34.531   2.214  11.561
65889W        W31116  39.552  27.167   4.198
65890W        W31117  30.519   0.295  10.730
65891W        W31118  10.407  23.450   2.811
65892W        W31119  14.720  37.030  14.179
65893W        W31120   4.446  42.225   1.174
65894W        W31121  12.260  19.089  10.931
65895W        W31122  39.513  40.065   1.312
65896W        W31123  37.306  24.520  13.958
65897W        W31124  10.173  41.315   0.400
65898W        W31125  43.964  37.353  11.531
65899W        W31126  25.820  36.202  12.876
65900W        W31127  38.403  16.659  13.298
65901W        W31128  23.130  11.365   3.154
65902W        W31129   0.876  24.783  10.707
65903W        W31130  18.150  42.161  12.863
65904W        W31131  40.137  43.911  13.979
65905W        W31132  38.103  27.563   4.675
65906W        W31133  20.131  10.121   2.055
65907W        W31134  31.592  44.913   4.778
65908W        W31135  10.802  32.537   0.950
65909W        W31136  14.905  26.996   2.285
65910W        W31137  16.055   5.262   3.175
65911W        W31138  44.758   8.710  10.825
65912W        W31139   8.790  30.886  12.514
65913W        W31140  42.803  31.653  13.239
65914W        W31141  37.361   3.973  12.322
65915W        W31142  11.803  10.613  12.531
65916W        W31143  16.626  33.952   3.093
65917W        W31144  44.175  30.154  12.367
65918W        W31145  39.062  42.805   2.424
65919W        W31146  17.469  10.670  13.444
65920W        W31147  34.000  26.444  11.144
65921W        W31148   2.042  41.825   3.216
65922W        W31149  28.076   8.282  13.546
65923W        W31150  21.245  42.977  11.318
65924W        W31151  43.728   1.367   0.818
65925W        W31152  34.672   3.529  14.721
65926W        W31153   1.476  43.034  14.658
65927W        W31154  13.711  34.847   3.663
65928W        W31155  16.409  35.401  13.914
65929W        W31156   6.029  12.454  10.393
65930W        W31157  21.074  33.427   0.674
65931W        W31158   0.044  17.046  10.366
65932W        W31159  11.553  43.648   2.967
65933W        W31160   5.801  42.520   3.716
65934W        W31161   5.943  24.303  12.136
65935W        W31162  25.819  42.507   4.266
65936W        W31163   1.710   5.396   2.295
65937W        W31164  21.002  42.670   2.911
65938W        W31165   2.977   8.651   4.592
65939W        W31166  11.059  38.065  14.218
65940W        W31167  34.166  34.096   2.205
65941W        W31168  42.297  40.219  12.527
65942W        W31169   4.878  25.982  14.369
65943W        W31170  16.776  18.024  13.540
65944W        W31171   3.485  16.657  12.391
65945W        W31172  40.873  33.770   3.448
65946W        W31173  30.998  35.369  12.104
65947W        W31174   8.223  30.935  14.243
65948W        W31175   8.932  17.741  13.315
65949W        W31176  27.136  13.144  12.373
65950W        W31177  17.109  39.493  11.732
65951W        W31178  11.542  24.286   0.260
65952W        W31179  23.746   0.296   4.150
65953W        W31180   4.840  22.521   3.822
65954W        W31181   9.690  31.924  12.640
65955W        W31182  18.241  15.537  12.180
65956W        W31183   3.719  19.017   0.793
65957W        W31184  39.188  38.873   4.589
65958W        W31185  15.367   3.314  11.032
65959W        W31186  31.966   0.828   0.444
65960W        W31187  26.760   0.559  11.971
65961W        W31188   1.892  39.142   4.653
65962W        W31189   0.438  42.972   0.726
65963W        W31190  13.784  27.986   1.765
65964W        W31191   2.871   1.220   1.702
65965W        W31192  10.168  16.330  14.768
65966W        W31193  25.100  42.428  14.331
65967W        W31194  21.756  31.750   3.778
65968W        W31195  31.024   9.825   0.303
65969W        W31196  34.605  18.541  12.685
65970W        W31197  34.075  10.720  14.897
65971W        W31198  36.390  30.538   3.268
65972W        W31199  19.589  22.715   3.800
65973W        W31200  13.112   5.821   1.203
65974W        W31201   3.858  12.828  13.832
65975W        W31202  21.926  36.231  14.947
65976W        W31203   7.200   2.066   2.171
65977W        W31204  11.175  20.654  12.770
65978W        W31205  28.435   3.333  10.997
65979W        W31206   0.480  30.929   0.397
65980W        W31207   4.267  32.441   2.159
65981W        W31208   6.273  22.425  12.962
65982W        W31209  22.923   9.764  14.271
65983W        W31210   4.792   4.597   5.066
65984W        W31211  42.378   6.461   1.701
65985W        W31212  31.062  18.260  12.877
65986W        W31213   5.834  30.394   4.800
65987W        W31214  32.892   3.423  10.385
65988W        W31215  28.625  33.155   4.143
65989W        W31216   1.945  39.066   3.224
65990W        W31217   6.046  23.978   1.840
65991W        W31218   5.886  25.003  11.377
65992W        W31219   8.764  23.975   0.220
65993W        W31220  27.120  37.155  10.589
65994W        W31221  33.935  10.568   0.412
65995W        W31222  39.285  33.523  11.147
65996W        W31223  20.568  15.612  14.775
65997W        W31224  14.075  36.162  11.664
65998W        W31225  26.737  35.932  11.206
65999W        W31226   6.123   6.487   2.221
66000W        W31227  21.189  42.770  14.331
66001W        W31228  18.431  16.181   2.106
66002W        W31229  24.251  25.213  13.964
66003W        W31230  27.271   3.494   0.817
66004W        W31231  39.403  23.029   0.805
66005W        W31232  24.002   0.347  12.856
66006W        W31233   7.256   4.497   0.735
66007W        W31234   7.984  25.490   3.282
66008W        W31235  42.274  25.070   2.212
66009W        W31236  43.738  36.983  14.010
66010W        W31237  43.868  24.451   0.068
66011W        W31238  29.100  18.132  11.648
66012W        W31239  19.268   5.337   2.628
66013W        W31240  12.863  15.782   3.278
66014W        W31241  39.677  40.320   4.036
66015W        W31242  19.043  21.258   0.808
66016W        W31243  33.133   2.385  11.565
66017W        W31244  28.220  37.780  11.112
66018W        W31245  20.202  30.364   0.410
66019W        W31246  34.077   7.989  10.541
66020W        W31247  27.641  35.994  14.029
66021W        W31248  12.141  18.245   2.723
66022W        W31249  14.008   5.495  12.850
66023W        W31250  37.259  13.593  12.853
66024W        W31251  39.067  39.974  13.397
66025W        W31252  41.233  32.985  14.073
66026W        W31253  30.843  16.672   4.089
66027W        W31254   5.304  38.070  11.507
66028W        W31255  31.295  39.729   9.741
66029W        W31256  32.617  16.448   9.931
66030W        W31257  17.686  12.973   0.527
66031W        W31258  11.345  17.763  13.926
66032W        W31259  18.522  40.271  14.289
66033W        W31260  33.422  26.105  14.370
66034W        W31261  15.516   6.383   4.800
66035W        W31262  27.466  21.063   3.932
66036W        W31263  15.380  38.959   0.633
66037W        W31264  17.149  27.942   3.231
66038W        W31265  24.304  42.391   1.373
66039W        W31266  31.156  33.720   2.234
66040W        W31267  30.948  21.573  14.896
66041W        W31268  39.388  44.776   3.698
66042W        W31269  34.163  13.837   4.562
66043W        W31270  43.852  37.874   3.308
66044W        W31271  31.629  22.095   1.351
66045W        W31272  30.423  25.692   1.433
66046W        W31273   3.375  21.623  11.705
66047W        W31274   1.034  20.476  10.182
66048W        W31275  26.001  12.046   4.581
66049W        W31276   5.863  15.640   2.315
66050W        W31277  35.955  24.639   1.290
66051W        W31278  20.630   1.408  12.346
66052W        W31279  15.567  23.994  13.975
66053W        W31280  34.611  40.842  12.023
66054W        W31281  31.062  30.076   3.830
66055W        W31282  42.180   7.442  13.894
66056W        W31283  14.190  29.152  13.396
66057W        W31284  17.112   6.820   4.510
66058W        W31285  32.999  23.613  13.829
66059W        W31286  44.396  36.401   1.699
66060W        W31287   4.754  42.974  13.005
66061W        W31288  13.354  11.370  11.769
66062W        W31289  40.396  26.771  10.728
66063W        W31290  11.700  36.116   0.285
66064W        W31291  13.617  37.381  14.478
66065W        W31292  38.549  10.565   1.882
66066W        W31293  31.191  24.521   1.701
66067W        W31294   6.921  44.098  14.809
66068W        W31295  40.078  36.160   4.261
66069W        W31296  31.917  18.602  12.506
66070W        W31297  11.383  25.658  14.569
66071W        W31298  42.199  17.386  11.241
66072W        W31299  22.739  29.734   1.365
66073W        W31300  20.319  33.505  14.919
66074W        W31301  23.603   3.765   4.215
66075W        W31302  33.389  30.525  14.872
66076W        W31303  19.162  39.718  12.643
66077W        W31304  26.983  23.263  13.862
66078W        W31305  27.100   2.036  14.227
66079W        W31306   6.794   0.880  10.973
66080W        W31307   6.901  25.582   1.153
66081W        W31308  26.985  23.240   3.401
66082W        W31309   3.374   3.456   2.876
66083W        W31310  26.120   0.855  11.670
66084W        W31311   2.291   2.291  10.685
66085W        W31312  17.560   8.889  14.626
66086W        W31313  39.572  25.482   0.378
66087W        W31314  19.539  19.686   2.282
66088W        W31315  19.808  32.124   4.553
66089W        W31316  21.666  14.928   3.615
66090W        W31317  44.720  39.554  11.353
66091W        W31318  37.639   4.291  11.999
66092W        W31319  14.504  22.264  12.982
66093W        W31320   6.329  11.899  13.616
66094W        W31321   8.337  38.607  11.568
66095W        W31322   5.198   2.277  12.102
66096W        W31323  39.522  15.785  13.873
66097W        W31324  29.924  28.522  11.166
66098W        W31325  18.066  39.259  13.303
66099W        W31326  37.483   7.913   1.409
66100W        W31327  31.882  13.110   1.865
66101W        W31328  41.484  25.143   4.132
66102W        W31329   3.469  41.996  13.374
66103W        W31330   8.498  26.663   0.060
66104W        W31331  14.051  28.617   0.432
66105W        W31332   1.920  29.065   4.426
66106W        W31333  33.629  10.817  13.271
66107W        W31334  11.362  27.102  14.301
66108W        W31335   7.042   1.331  14.372
66109W        W31336  38.322  23.647  13.646
66110W        W31337  43.511   0.796   0.729
66111W        W31338  19.730   7.933   1.716
66112W        W31339  16.674  41.156  10.877
66113W        W31340  22.535  14.714  11.461
66114W        W31341  21.542   7.163  13.539
66115W        W31342  16.078  44.210  12.622
66116W        W31343  15.690  15.259   2.886
66117W        W31344   2.422  29.458   2.295
66118W        W31345  27.538  25.569  11.519
66119W        W31346  34.387   0.203  11.561
66120W        W31347  32.014  33.993   3.192
66121W        W31348   5.608  41.470  12.124
66122W        W31349  10.337  25.920   0.276
66123W        W31350  30.772  35.113  10.292
66124W        W31351  35.709  30.111  14.715
66125W        W31352  15.640  35.142   0.950
66126W        W31353  30.376   4.251  12.899
66127W        W31354  19.715   0.526  10.365
66128W        W31355  40.499  12.275   4.025
66129W        W31356   3.435   4.490  12.086
66130W        W31357  29.468   3.939  10.501
66131W        W31358   4.129  33.428  11.589
66132W        W31359   6.044  30.179  13.505
66133W        W31360  18.304  44.810  14.497
66134W        W31361  42.960  13.487  10.729
66135W        W31362  28.982  39.391   1.709
66136W        W31363  24.600   9.281  10.700
66137W        W31364  41.060   8.165   3.657
66138W        W31365  44.730  31.196   2.692
66139W        W31366  18.753   3.325   4.649
66140W        W31367  41.043   5.744   3.224
66141W        W31368  28.910  40.517   2.877
66142W        W31369  39.704  31.915   4.493
66143W        W31370  35.189  31.939   2.750
66144W        W31371  14.616   6.899   0.944
66145W        W31372  21.037  39.337  10.925
66146W        W31373  22.546   6.785  12.335
66147W        W31374  43.594  39.885  14.742
66148W        W31375  23.017  11.087  13.136
66149W        W31376   9.388  37.541  13.723
66150W        W31377  16.553  41.533  13.991
66151W        W31378  27.211   4.338  13.851
66152W        W31379  31.425   7.407  13.366
66153W        W31380  25.551  41.268   2.242
66154W        W31381  42.221  44.823  12.857
66155W        W31382  26.732  35.501  12.100
66156W        W31383  24.034   1.370  12.036
66157W        W31384  35.949  36.544  14.586
66158W        W31385  10.310  44.028  11.853
66159W        W31386  42.348   2.726  14.664
66160W        W31387  43.285  15.588   0.755
66161W        W31388  37.103  44.872  13.148
66162W        W31389  42.158   0.630   1.285
66163W        W31390  40.135  44.438   1.931
66164W        W31391  38.027  33.452   3.668
66165W        W31392  33.189  27.467   5.054
66166W        W31393  34.151  40.726   2.370
66167W        W31394  43.321   6.325   9.931
66168W        W31395  16.614  40.392   2.224
66169W        W31396  30.657  23.214   4.130
66170W        W31397   0.812   1.915  13.478
66171W        W31398  20.290  25.938  13.073
66172W        W31399  23.793  24.996  12.959
66173W        W31400  19.030  11.890  13.375
66174W        W31401   6.221  39.052   2.225
66175W        W31402  41.022  25.253   2.684
66176W        W31403  43.441  28.861   3.765
66177W        W31404  38.936  38.188   1.849
66178W        W31405   8.717  14.199   0.220
66179W        W31406  17.595  23.779   3.698
66180W        W31407  35.236   5.298  13.526
66181W        W31408  28.402  32.969  13.653
66182W        W31409  43.729  26.122   3.930
66183W        W31410  24.206  25.696  11.464
66184W        W31411   2.163  32.151  10.631
66185W        W31412  24.763   2.047   2.222
66186W        W31413  42.598  44.058  13.826
66187W        W31414  10.404   1.488  12.514
66188W        W31415  41.309  14.730   4.250
66189W        W31416  36.985   3.305   4.904
66190W        W31417  37.506  40.203  13.037
66191W        W31418  26.564   0.842  11.018
66192W        W31419   8.189   6.754   0.694
66193W        W31420  44.416  19.813   3.615
66194W        W31421  41.561  27.821  11.631
66195W        W31422  11.295  42.489   1.699
66196W        W31423  16.580   5.268  12.973
66197W        W31424  22.726  42.291   4.222
66198W        W31425   2.695  40.730   2.979
66199W        W31426  25.703  23.460   4.591
66200W        W31427  26.061  19.595  11.166
66201W        W31428  16.180  35.523   3.820
66202W        W31429  10.195  11.790   4.151
66203W        W31430  40.970  11.830  11.618
66204W        W31431  24.680   4.125   1.426
66205W        W31432   0.225  23.315   4.971
66206W        W31433  19.537   1.801  14.385
66207W        W31434  40.113  26.628   9.803
66208W        W31435  12.721  38.589  11.543
66209W        W31436  13.113  25.813   0.769
66210W        W31437  32.054  39.028  14.007
66211W        W31438  42.813  28.298   2.078
66212W        W31439   7.864   3.995   4.471
66213W        W31440  21.186   3.131   2.035
66214W        W31441  24.542  34.166   4.061
66215W        W31442   9.562   5.334   0.704
66216W        W31443  33.691  15.224  13.593
66217W        W31444  36.412  29.372  14.742
66218W        W31445   8.962  25.413  14.465
66219W        W31446  15.534   7.356   3.468
66220W        W31447  34.710  34.981   4.234
66221W        W31448   2.496  37.770   1.797
66222W        W31449  28.568   2.755  12.542
66223W        W31450  23.598   7.872  10.708
66224W        W31451   2.659  16.132   2.122
66225W        W31452  23.351  30.390  14.709
66226W        W31453  35.323   0.930  12.930
66227W        W31454   3.730  17.524   0.842
66228W        W31455  15.027  39.038   2.770
66229W        W31456  36.888  16.544  10.515
66230W        W31457  39.474  44.573   0.307
66231W        W31458  20.070  40.875   3.431
66232W        W31459  44.856  10.711   0.861
66233W        W31460  37.701   6.203  12.389
66234W        W31461  37.121  20.513   1.798
66235W        W31462  32.144  31.052   3.293
66236W        W31463  12.348  41.755  13.573
66237W        W31464  36.530  25.222   4.257
66238W        W31465  34.612   8.422  13.005
66239W        W31466   7.175  27.897  10.540
66240W        W31467  26.609  21.562   4.149
66241W        W31468  40.793  37.643   4.132
66242W        W31469  18.327   2.349   0.281
66243W        W31470  35.258  17.559   3.634
66244W        W31471  25.304  27.986  13.374
66245W        W31472  28.908   7.905  12.113
66246W        W31473  23.910  27.675  11.629
66247W        W31474  30.548  31.630   3.685
66248W        W31475  39.878   5.729   1.445
66249W        W31476  34.882  33.856   2.876
66250W        W31477  38.454  13.420   1.166
66251W        W31478  34.556  31.950   1.461
66252W        W31479  39.462  37.347  13.438
66253W        W31480  26.557  23.122   0.773
66254W        W31481  26.080  26.278  11.529
66255W        W31482  35.483  44.696   4.193
66256W        W31483  24.531  29.968   0.043
66257W        W31484  14.147  25.252  12.798
66258W        W31485  23.779   1.324  12.500
66259W        W31486  13.829  35.129   1.680
66260W        W31487   1.264   5.751   2.720
66261W        W31488  34.497  32.375  13.588
66262W        W31489  42.123   7.895  11.215
66263W        W31490  42.169  39.860   2.653
66264W        W31491  10.216  11.896  13.895
66265W        W31492  21.470   1.935   3.259
66266W        W31493  12.679  22.094   4.706
66267W        W31494  10.711  29.444   3.524
66268W        W31495   9.285  14.022   1.940
66269W        W31496  27.021  26.244  11.450
66270W        W31497  27.167   6.341  14.219
66271W        W31498  29.517   1.329  11.534
66272W        W31499  11.632  38.889   1.405
66273W        W31500  43.739  17.585   4.152
66274W        W31501  19.581  38.449  12.829
66275W        W31502  44.040  14.863  14.448
66276W        W31503  33.279  17.300   0.851
66277W        W31504  21.314  34.794  11.184
66278W        W31505   7.895  21.277   3.371
66279W        W31506  26.755  28.824   1.709
66280W        W31507  12.142  11.978  11.061
66281W        W31508  12.493   5.742  14.955
66282W        W31509  17.586   8.759  12.629
66283W        W31510  19.640   9.310   4.204
66284W        W31511   6.836   7.434  11.692
66285W        W31512  33.876   1.165   3.127
66286W        W31513  24.584   8.415   1.634
66287W        W31514  43.126  21.636  14.742
66288W        W31515  44.189   6.164  11.460
66289W        W31516  41.289  12.202  14.550
66290W        W31517  33.016  42.539   4.631
66291W        W31518  21.717  25.651   4.548
66292W        W31519  25.490  38.810  10.692
66293W        W31520   1.434  42.260  13.532
66294W        W31521  39.596   7.458   4.160
66295W        W31522  27.127  41.122  11.826
66296W        W31523   8.826  41.992   4.034
66297W        W31524  36.003  29.688   2.122
66298W        W31525  37.181  23.967   4.173
66299W        W31526  39.526   7.442  14.411
66300W        W31527  20.191   4.813  10.416
66301W        W31528  44.809  36.004  11.661
66302W        W31529   2.776   2.454   1.968
66303W        W31530   5.891  35.896  12.003
66304W        W31531  16.869  23.750  11.190
66305W        W31532  14.985  12.989  12.015
66306W        W31533  31.619  32.617  12.507
66307W        W31534  44.852  17.534   2.047
66308W        W31535   9.179  33.116   3.195
66309W        W31536  41.929  14.549  12.397
66310W        W31537   2.315  18.483   4.261
66311W        W31538  32.970  29.187   2.775
66312W        W31539  34.461  12.275  11.873
66313W        W31540   7.159  22.744   3.120
66314W        W31541  15.218  42.932  14.894
66315W        W31542  37.492  36.174   0.444
66316W        W31543  27.813  18.816  14.880
66317W        W31544  41.769  24.473  14.279
66318W        W31545  35.531  23.472   3.608
66319W        W31546  30.917  39.376  10.861
66320W        W31547  44.098  20.278  10.638
66321W        W31548   0.021   2.287   1.791
66322W        W31549  11.113  38.299  12.642
66323W        W31550  21.496  35.289   2.922
66324W        W31551  20.209  33.218  13.893
66325W        W31552  19.547  24.268   0.765
66326W        W31553  12.829  37.150  11.950
66327W        W31554  25.026   8.762   5.061
66328W        W31555  33.158  26.194   3.783
66329W        W31556  11.675  25.405  11.396
66330W        W31557   6.463  12.176   1.345
66331W        W31558   4.491  27.436  12.039
66332W        W31559  41.854  23.415  12.543
66333W        W31560  10.882  27.283   2.683
66334W        W31561  13.200   0.158  10.171
66335W        W31562  27.633  23.433  12.661
66336W        W31563  41.842  36.561   0.754
66337W        W31564  40.583  25.940  14.880
66338W        W31565   5.399   1.825  11.272
66339W        W31566  38.465  15.837   1.273
66340W        W31567  31.968  37.061  12.161
66341W        W31568  17.208  40.577  12.949
66342W        W31569  43.694  37.560  12.085
66343W        W31570  17.584  37.462  11.296
66344W        W31571  43.488  39.384   2.902
66345W        W31572   2.410  17.162  14.006
66346W        W31573  39.196  28.944   4.951
66347W        W31574  19.233   1.777   4.029
66348W        W31575  32.268  39.907   2.628
66349W        W31576  11.801  19.015   4.530
66350W        W31577  27.058  21.202  12.015
66351W        W31578  36.531  43.385   2.644
66352W        W31579  20.265  11.612  12.104
66353W        W31580  21.003  25.712  15.000
66354W        W31581   1.065   2.356   2.936
66355W        W31582   9.627   9.822  11.473
66356W        W31583   9.669  11.733   0.267
66357W        W31584  31.689   0.030  14.117
66358W        W31585  14.274  24.615   4.930
66359W        W31586  33.099   2.130   3.719
66360W        W31587  33.683  39.950  14.683
66361W        W31588  17.967  12.350  13.469
66362W        W31589   3.843  33.150  12.562
66363W        W31590  34.097  20.016  10.844
66364W        W31591  15.248  21.980  14.337
66365W        W31592   9.158  28.039  13.483
66366W        W31593   3.467  35.544   4.608
66367W        W31594  16.764  30.557  11.537
66368W        W31595  20.488  36.035   4.092
66369W        W31596  10.398  18.897   2.381
66370W        W31597   8.765  44.162   1.371
66371W        W31598  36.169  23.993  14.987
66372W        W31599   0.729  16.002  10.162
66373W        W31600  21.650   6.190  13.817
66374W        W31601  42.269  24.217  13.940
66375W        W31602  18.319  39.108  11.876
66376W        W31603  37.879  39.787  13.026
66377W        W31604  23.128   8.794  10.783
66378W        W31605  18.483  13.231  14.750
66379W        W31606  38.000  20.114   3.090
66380W        W31607  24.747  21.571  12.670
66381W        W31608  34.974  17.036   5.061
66382W        W31609  28.907  19.190   1.739
66383W        W31610   4.286  37.423  13.379
66384W        W31611  10.344  19.085  11.649
66385W        W31612   9.754  30.401   4.607
66386W        W31613  35.426   5.941  12.195
66387W        W31614  22.909  18.270  14.476
66388W        W31615  15.568  12.878  13.062
66389W        W31616   1.246  16.737   1.850
66390W        W31617  44.246   4.056  14.226
66391W        W31618  44.928  31.888  13.968
66392W        W31619  14.844  15.364  14.763
66393W        W31620  36.317  20.557   2.106
66394W        W31621  22.569  16.855   1.888
66395W        W31622  26.887  36.079  10.744
66396W        W31623  40.771  30.522  14.053
66397W        W31624  24.361  30.964   0.863
66398W        W31625  42.948  26.570  14.042
66399W        W31626   6.990  39.301   2.502
66400W        W31627  38.838  21.312   4.466
66401W        W31628  35.961  27.680  12.847
66402W        W31629  32.502  16.060   2.146
66403W        W31630  44.479  14.356   2.637
66404W        W31631  26.664   3.325   4.653
66405W        W31632   7.448  26.584  11.997
66406W        W31633  43.670  22.933  10.485
66407W        W31634  24.247  23.692  14.648
66408W        W31635   8.277  41.334  12.685
66409W        W31636   6.009   7.324   0.446
66410W        W31637  41.130  13.230  14.467
66411W        W31638  15.645  39.232  14.443
66412W        W31639  42.866  17.606   2.714
66413W        W31640  22.337  18.361   4.105
66414W        W31641  17.620  27.368  13.994
66415W        W31642  36.934  31.700   2.013
66416W        W31643  38.850   4.971  14.620
66417W        W31644   2.414  22.218  10.592
66418W        W31645  16.753   2.953   4.369
66419W        W31646  24.150  44.873  11.582
66420W        W31647  39.487  24.165  14.069
66421W        W31648  43.241  42.496   4.885
66422W        W31649  32.596  23.009  14.342
66423W        W31650  14.662  42.339   1.661
66424W        W31651   0.211  16.855   0.696
66425W        W31652  36.378  16.699  12.070
66426W        W31653  32.081  25.880  13.244
66427W        W31654  39.289  35.974  12.751
66428W        W31655  35.152  30.465   3.657
66429W        W31656  26.314  43.435   4.988
66430W        W31657  36.665  31.875   2.518
66431W        W31658   4.779  40.374   3.746
66432W        W31659   6.132  27.739   3.198
66433W        W31660   1.802  24.780   0.564
66434W        W31661  36.152  34.534   0.588
66435W        W31662   7.432  10.448   3.737
66436W        W31663  33.045  15.320   2.190
66437W        W31664  39.803  18.027  12.094
66438W        W31665  36.606  40.960  12.275
66439W        W31666   8.921   8.977   3.900
66440W        W31667  30.856  13.832  11.589
66441W        W31668  33.878  31.639  11.695
66442W        W31669  29.800   6.530   5.090
66443W        W31670  13.299   2.393   3.785
66444W        W31671   9.318   5.666  12.151
66445W        W31672  25.461  43.846   1.988
66446W        W31673   2.650  35.100   2.025
66447W        W31674  33.974  31.783   4.365
66448W        W31675  12.880  17.317  13.450
66449W        W31676  38.454  33.034  12.475
66450W        W31677  44.724  40.459   1.896
66451W        W31678  31.886  28.699   2.613
66452W        W31679  44.746  42.230   4.039
66453W        W31680  35.559  25.084   2.717
66454W        W31681  42.844  31.317  14.742
66455W        W31682  11.970  10.575  10.725
66456W        W31683  18.217  20.613  14.560
66457W        W31684  22.704  31.832  11.468
66458W        W31685  16.504  13.589   1.420
66459W        W31686  12.067  10.210   4.306
66460W        W31687  30.400  38.556   2.462
66461W        W31688   1.640   0.361  11.709
66462W        W31689  39.136  22.911   0.382
66463W        W31690  31.119  20.439  11.376
66464W        W31691   7.572  18.531   4.211
66465W        W31692  17.086   4.826  12.548
66466W        W31693   1.715  39.331  12.159
66467W        W31694  25.394  14.104   4.630
66468W        W31695  20.560  43.284   0.309
66469W        W31696  30.714  32.253  12.363
66470W        W31697  14.690  37.359  10.770
66471W        W31698  39.333  32.581   3.234
66472W        W31699  27.926   6.499   0.007
66473W        W31700  15.680  23.679  10.380
66474W        W31701  40.674  31.923   2.369
66475W        W31702  29.363  30.400  11.613
66476W        W31703  29.647  11.029  13.487
66477W        W31704  43.725  39.883  12.137
66478W        W31705  21.385  19.847   3.637
66479W        W31706  25.655  37.144   3.798
66480W        W31707  36.524  42.475   3.161
66481W        W31708  21.621  33.625  14.032
66482W        W31709  28.529  31.210   4.815
66483W        W31710  24.145  43.449   5.200
66484W        W31711  43.757  38.946  12.145
66485W        W31712  29.200  32.405   2.217
66486W        W31713   5.781  41.366   4.549
66487W        W31714  37.346  16.348  10.647
66488W        W31715   9.827   9.184   2.933
66489W        W31716  20.189  33.607  10.768
66490W        W31717   8.413   1.251  14.824
66491W        W31718  42.752  40.723  14.375
66492W        W31719  25.046  41.901  14.348
66493W        W31720   1.839  18.756  10.619
66494W        W31721  17.148  40.329   1.363
66495W        W31722   6.976  26.904  11.150
66496W        W31723  12.670  29.102   1.129
66497W        W31724   8.718  35.534   3.629
66498W        W31725  20.773  41.796   0.242
66499W        W31726  28.478  43.412   0.326
66500W        W31727  18.110  28.174   2.751
66501W        W31728  15.184  14.204  12.606
66502W        W31729  42.845  25.122   1.403
66503W        W31730   9.456   6.434   2.384
66504W        W31731   1.052  39.421  14.356
66505W        W31732  29.394  28.665  12.037
66506W        W31733  40.970  19.971  12.586
66507W        W31734  18.029  44.311   3.694
66508W        W31735   2.366   2.697   1.745
66509W        W31736  27.381  28.638   3.251
66510W        W31737  33.379  27.203   0.920
66511W        W31738  29.395  13.049  11.530
66512W        W31739  22.698  12.192   1.387
66513W        W31740  12.557  17.809  14.332
66514W        W31741  23.406  28.725  11.509
66515W        W31742  23.331   3.890  12.021
66516W        W31743  38.416  36.905   4.522
66517W        W31744  10.303  44.882   4.985
66518W        W31745   3.711   4.999  14.714
66519W        W31746   2.192   8.363  10.935
66520W        W31747   0.760   7.492  13.060
66521W        W31748   9.729   2.889   4.970
66522W        W31749  18.251  34.417   0.658
66523W        W31750  21.055  27.480  12.241
66524W        W31751  38.497  15.571   0.826
66525W        W31752  27.055  15.587  12.508
66526W        W31753   9.506  19.679  10.788
66527W        W31754  10.235  25.137  10.472
66528W        W31755  33.541  32.613  10.815
66529W        W31756  11.681  23.624   2.009
66530W        W31757  41.679  17.654   2.106
66531W        W31758  16.336  13.181   2.275
66532W        W31759  37.287  17.804   0.724
66533W        W31760   1.281  16.191  12.336
66534W        W31761  44.864  37.664   3.235
66535W        W31762   2.029   7.143   9.957
66536W        W31763  13.549  43.331  10.980
66537W        W31764  19.441  18.634  11.611
66538W        W31765  42.549  38.988  13.335
66539W        W31766   0.886   0.079  13.221
66540W        W31767  34.826  27.927  10.502
66541W        W31768  44.062  24.839  12.062
66542W        W31769  44.086  25.404   1.188
66543W        W31770   9.228  12.229   3.656
66544W        W31771   3.173  33.395   2.661
66545W        W31772  10.035  25.139  14.501
66546W        W31773  34.880  34.552   1.153
66547W        W31774  42.490  26.435   4.617
66548W        W31775  21.318  16.489  14.109
66549W        W31776  22.591  19.613   3.141
66550W        W31777  36.882  24.140  12.427
66551W        W31778   5.251  15.176   2.191
66552W        W31779  13.296  34.239   4.988
66553W        W31780  19.305  18.671  11.131
66554W        W31781   3.917  10.251   1.709
66555W        W31782  36.467  20.324   4.858
66556W        W31783  42.103  14.043  12.486
66557W        W31784   8.670  16.072   2.136
66558W        W31785  10.604  44.260  14.674
66559W        W31786  23.860   9.735   4.765
66560W        W31787  27.076  27.942   2.716
66561W        W31788  41.824  13.647   2.690
66562W        W31789   0.285  22.801  11.039
66563W        W31790   6.425  12.927  13.448
66564W        W31791  41.371  17.248   3.297
66565W        W31792  36.088   1.101  12.076
66566W        W31793  44.624  28.552   1.914
66567W        W31794  40.103  41.230   2.439
66568W        W31795   2.656   1.831  12.451
66569W        W31796   0.250  33.874  14.251
66570W        W31797  33.938  13.171   2.904
66571W        W31798  20.083  39.274   0.468
66572W        W31799   3.276  33.528   4.149
66573W        W31800  25.786  44.966  12.023
66574W        W31801   3.935   1.391   0.199
66575W        W31802  10.880  43.518  12.488
66576W        W31803  21.577  37.594  10.145
66577W        W31804  18.566   2.263   4.515
66578W        W31805  26.704   0.674   9.805
66579W        W31806  38.082   1.177  10.657
66580W        W31807  29.643  19.935   3.649
66581W        W31808  42.866  24.081   4.597
66582W        W31809  32.924  35.437   0.739
66583W        W31810  43.555  12.926   3.625
66584W        W31811  31.073  15.886  13.438
66585W        W31812  39.792  18.727  13.943
66586W        W31813  40.448  10.445   3.200
66587W        W31814  36.669   2.021   2.443
66588W        W31815   5.658   7.389   3.161
66589W        W31816  24.066  29.489   0.460
66590W        W31817  12.557   1.388   0.913
66591W        W31818  18.136  43.461   3.365
66592W        W31819  23.833   9.948  14.813
66593W        W31820   7.532  37.538  13.960
66594W        W31821  36.933  39.506  11.962
66595W        W31822   2.319  16.495   2.866
66596W        W31823  27.458  15.577   9.756
66597W        W31824  34.477  27.016  10.297
66598W        W31825   7.818  39.549  14.126
66599W        W31826  17.889   3.545  11.933
66600W        W31827  35.865  37.390   3.085
66601W        W31828  37.015  18.812   1.447
66602W        W31829   6.677  34.877   2.794
66603W        W31830  41.962  21.105   1.431
66604W        W31831  19.577  26.793  13.998
66605W        W31832  28.847   7.936   2.728
66606W        W31833   8.357   7.833   3.504
66607W        W31834  21.067  25.462  11.064
66608W        W31835  23.986  12.343  12.890
66609W        W31836  12.301  34.388   3.402
66610W        W31837  42.287  36.988  12.123
66611W        W31838  13.107  24.684  13.750
66612W        W31839  42.686  10.113   5.103
66613W        W31840  22.633   4.859   1.161
66614W        W31841  24.518  15.965   0.141
66615W        W31842  32.206   4.379  11.985
66616W        W31843   2.253   8.077  12.528
66617W        W31844  19.301   6.820  13.468
66618W        W31845  39.507  10.356  12.994
66619W        W31846  37.578  15.093  13.025
66620W        W31847  32.128   2.716   2.651
66621W        W31848   6.778  27.246  14.531
66622W        W31849  16.781  12.686   3.761
66623W        W31850  40.991  39.124  13.658
66624W        W31851  22.457  22.543   2.297
66625W        W31852  15.756  25.423   3.670
66626W        W31853   7.949  10.702   0.171
66627W        W31854  12.609  13.378   1.646
66628W        W31855  23.114  34.740  10.679
66629W        W31856  38.814   7.224   0.534
66630W        W31857  11.636   4.801  12.148
66631W        W31858  24.995  35.375  14.430
66632W        W31859  12.197  21.168   1.236
66633W        W31860  25.137  12.548  10.872
66634W        W31861  37.257  24.064   0.171
66635W        W31862  42.899  21.920   3.612
66636W        W31863   3.275  12.180   2.849
66637W        W31864  24.745   3.984  14.893
66638W        W31865  32.137  25.966   0.893
66639W        W31866  17.609   8.472  13.866
66640W        W31867  30.058  20.908   3.411
66641W        W31868   5.013  11.647   0.486
66642W        W31869   7.415   9.819   0.951
66643W        W31870  37.595  40.567   1.436
66644W        W31871  29.314   0.831   3.602
66645W        W31872  27.087  30.144   1.763
66646W        W31873   6.510  18.522  11.948
66647W        W31874  20.101   3.414   2.016
66648W        W31875   0.513   0.373  13.016
66649W        W31876  24.704   5.950   3.729
66650W        W31877  40.586   8.879  10.683
66651W        W31878  42.732  23.973  11.092
66652W        W31879   8.839  31.750  13.546
66653W        W31880  32.492  44.952   3.828
66654W        W31881  11.316  24.164  10.762
66655W        W31882  21.213   2.245   3.633
66656W        W31883  14.245  37.485   2.146
66657W        W31884   7.200  19.547   2.863
66658W        W31885  15.505  19.350   2.238
66659W        W31886   7.344  20.297  13.123
66660W        W31887   1.831  32.433   3.667
66661W        W31888  23.724  25.555  13.641
66662W        W31889  11.283  37.371   2.162
66663W        W31890  12.063  23.711  13.901
66664W        W31891  17.841  40.751  12.943
66665W        W31892  41.031  27.087  14.255
66666W        W31893  22.722  15.593  13.569
66667W        W31894   0.508  44.382  13.807
66668W        W31895  39.273  31.928  12.944
66669W        W31896  10.161   8.870   2.218
66670W        W31897  10.299  34.833  14.377
66671W        W31898  28.400   0.670  12.999
66672W        W31899  39.418  14.890   0.222
66673W        W31900  37.567  40.321  11.619
66674W        W31901  18.157  16.241  13.129
66675W        W31902  37.215  33.623  10.974
66676W        W31903   7.436  22.452  13.917
66677W        W31904  34.043  28.158  10.672
66678W        W31905  29.719  22.530   3.810
66679W        W31906  14.747  27.587  12.393
66680W        W31907  17.849  28.652   0.238
66681W        W31908  25.337   4.192   0.693
66682W        W31909  36.148  29.117   4.418
66683W        W31910  13.645  36.445   0.549
66684W        W31911  18.141  40.424   4.604
66685W        W31912  12.822  26.694   0.293
66686W        W31913  25.621   6.064  14.016
66687W        W31914  33.631  39.358   3.654
66688W        W31915   0.404  41.528   3.533
66689W        W31916  26.489  30.985  10.692
66690W        W31917  31.101  42.840   3.309
66691W        W31918  26.110  38.501  14.326
66692W        W31919  41.189  23.513   4.011
66693W        W31920  30.104  11.812  13.814
66694W        W31921   2.875  11.222   0.954
66695W        W31922  12.684  26.068   4.678
66696W        W31923  15.475  41.011  13.752
66697W        W31924   0.011  26.186   4.577
66698W        W31925  24.240  42.477   0.062
66699W        W31926  30.475   0.103   5.069
66700W        W31927   8.278  27.987   1.331
66701W        W31928  44.514  29.617  13.564
66702W        W31929  14.618  43.869   0.407
66703W        W31930  18.068  38.017   3.223
66704W        W31931  25.622  12.549   2.658
66705W        W31932  24.142  19.832   4.191
66706W        W31933   9.431  40.352   0.303
66707W        W31934   8.655  17.708  14.871
66708W        W31935  30.889  41.359  12.509
66709W        W31936   4.150  44.778  14.573
66710W        W31937  33.037  12.067  11.199
66711W        W31938  28.229  11.084  11.145
66712W        W31939  16.270  33.427  13.265
66713W        W31940  19.111  27.157   1.368
66714W        W31941  10.843  14.562   3.279
66715W        W31942  38.586   0.473  11.206
66716W        W31943  27.460   5.967  14.521
66717W        W31944  36.004  17.294   1.715
66718W        W31945  23.217  33.644  14.855
66719W        W31946  37.525  33.938  14.418
66720W        W31947  32.614  12.250  11.440
66721W        W31948  38.488   9.225  13.922
66722W        W31949  13.188   3.405   1.499
66723W        W31950   8.626   2.307  13.496
66724W        W31951   4.333  42.991   0.943
66725W        W31952  21.488  43.302   0.181
66726W        W31953   4.674  31.267  14.291
66727W        W31954  42.255  29.183   4.236
66728W        W31955  26.905  26.620   3.790
66729W        W31956  32.628  19.575   1.935
66730W        W31957  27.034  27.158   1.436
66731W        W31958   2.461  33.133  14.301
66732W        W31959  33.235  44.431  13.721
66733W        W31960  38.660  24.979   2.691
66734W        W31961   2.714  17.757   4.536
66735W        W31962  34.320  44.352  11.313
66736W        W31963  18.608  36.297  11.628
66737W        W31964  15.996  10.613  11.120
66738W        W31965  36.706   0.933   4.489
66739W        W31966  35.007  17.050   4.541
66740W        W31967   2.277  36.786   3.383
66741W        W31968  19.233  27.446   3.377
66742W        W31969  18.897   0.443   3.574
66743W        W31970   9.816   7.871   1.498
66744W        W31971   3.377  37.799  13.040
66745W        W31972  33.138  21.744   1.709
66746W        W31973  18.269  14.176  11.585
66747W        W31974   5.366  12.888  14.370
66748W        W31975  22.554   7.171  14.027
66749W        W31976  26.029   6.681  13.532
66750W        W31977   4.948   4.396  13.586
66751W        W31978  35.400  40.065  14.383
66752W        W31979  31.105  38.103   2.436
66753W        W31980  21.962  29.231  12.076
66754W        W31981   6.706  13.114   3.757
66755W        W31982  17.285   6.296  11.272
66756W        W31983   7.054  18.401   4.255
66757W        W31984  31.096  16.705   0.113
66758W        W31985  37.101  36.891  13.901
66759W        W31986  39.946  40.870   1.274
66760W        W31987   1.481  30.875   2.396
66761W        W31988  37.013  15.258   0.414
66762W        W31989  35.193  41.746  13.001
66763W        W31990  11.816  15.050   1.392
66764W        W31991  25.521  31.739   2.209
66765W        W31992  28.805  31.096  12.055
66766W        W31993  31.637   8.430  11.112
66767W        W31994  36.928  25.122  14.908
66768W        W31995  42.821  35.485   0.112
66769W        W31996  18.005  25.671   2.696
66770W        W31997   6.713  22.610   3.765
66771W        W31998  43.741  41.933   4.965
66772W        W31999  26.635  35.889   1.405
66773W        W32000  44.070  12.141   2.241
66774W        W32001   2.584  11.783   0.165
66775W        W32002   5.306  37.898   2.817
66776W        W32003  39.054  28.007   5.081
66777W        W32004  37.304  22.230  13.338
66778W        W32005  39.661   1.296   0.024
66779W        W32006   7.502  13.297   1.256
66780W        W32007   4.811   2.212  14.122
66781W        W32008  28.841   4.382   4.874
66782W        W32009  15.540   9.258  14.988
66783W        W32010  17.349   4.219   4.795
66784W        W32011   9.222  20.737  12.928
66785W        W32012   4.342   1.319   1.195
66786W        W32013  28.200  21.898  11.886
66787W        W32014  35.140  13.907  10.799
66788W        W32015  22.438  17.793  14.281
66789W        W32016  30.379  30.480   4.163
66790W        W32017  12.371  16.781   1.648
66791W        W32018  17.077   4.832   2.099
66792W        W32019  21.213   8.748   0.795
66793W        W32020  22.550  35.515   2.122
66794W        W32021  13.693  27.884   4.428
66795W        W32022  36.792   5.206   4.978
66796W        W32023  10.028  36.345  14.063
66797W        W32024   1.894  30.058   4.101
66798W        W32025  22.814  24.200  14.025
66799W        W32026   8.346   8.895  10.635
66800W        W32027   8.153  31.461   4.479
66801W        W32028  38.121  43.819   3.134
66802W        W32029  34.979  30.152  13.382
66803W        W32030  37.011  15.585  11.269
66804W        W32031   9.790  36.626   0.841
66805W        W32032  36.549  10.900   2.363
66806W        W32033  37.576  44.994  12.513
66807W        W32034  10.880  24.376  13.839
66808W        W32035  12.730  30.076  13.315
66809W        W32036   9.356  22.202   0.043
66810W        W32037  32.838  34.028   5.565
66811W        W32038  14.886  29.767   0.817
66812W        W32039  28.452   1.115  11.858
66813W        W32040  27.197   1.367  12.171
66814W        W32041   9.290   7.531  12.541
66815W        W32042  34.099   5.655   1.334
66816W        W32043  29.055   5.825  13.728
66817W        W32044  13.573   3.308   1.812
66818W        W32045  44.697  21.153  12.174
66819W        W32046  40.353  31.192  12.045
66820W        W32047   6.773  25.978   4.180
66821W        W32048   3.857  13.342  13.900
66822W        W32049  35.915   5.218   3.366
66823W        W32050  32.393  42.933   3.475
66824W        W32051  28.107  38.013  10.042
66825W        W32052  10.175  36.989   4.140
66826W        W32053   6.446  12.250  13.967
66827W        W32054  43.513  36.304   4.150
66828W        W32055   4.299  24.915  11.822
66829W        W32056  37.657  25.157   2.862
66830W        W32057   8.994  43.175   0.843
66831W        W32058   6.157   4.344  11.859
66832W        W32059  42.444  33.970  14.422
66833W        W32060  39.568  11.348   0.988
66834W        W32061  40.896  42.538  12.061
66835W        W32062   2.352   3.941  10.493
66836W        W32063  41.607  26.503   3.557
66837W        W32064  10.393  14.866   1.421
66838W        W32065   7.674   5.769   2.847
66839W        W32066  15.231   8.893   4.518
66840W        W32067  27.675   7.789   0.352
66841W        W32068  28.118   1.540  11.601
66842W        W32069  22.053  42.501  10.555
66843W        W32070  44.041   4.012   1.802
66844W        W32071   8.299  33.992   4.321
66845W        W32072   2.438  17.761  10.054
66846W        W32073  19.103   7.243   3.288
66847W        W32074   8.385  42.218   4.218
66848W        W32075  15.625   4.482  14.747
66849W        W32076  31.423  15.481   5.374
66850W        W32077  17.631   1.931   4.566
66851W        W32078  44.494  27.901   0.279
66852W        W32079  40.579  16.317  12.327
66853W        W32080  19.801  38.422   0.213
66854W        W32081   3.423  19.640   0.315
66855W        W32082  36.321  17.486  11.182
66856W        W32083  37.828   0.945  14.945
66857W        W32084  10.890   3.481  11.174
66858W        W32085  14.772  25.025   0.569
66859W        W32086   5.118  29.891   3.246
66860W        W32087  15.192  23.244  14.907
66861W        W32088  41.872   9.853   3.086
66862W        W32089  26.876  22.090  13.568
66863W        W32090  11.657   3.266  12.377
66864W        W32091   3.643   5.825   4.594
66865W        W32092  37.698  24.024   4.186
66866W        W32093   4.660  41.382   3.773
66867W        W32094  14.088  16.872   1.312
66868W        W32095  12.132  21.467  13.247
66869W        W32096  17.042   5.598   2.497
66870W        W32097  21.210  31.540   2.189
66871W        W32098  36.331  18.594   0.807
66872W        W32099   2.411  15.112  12.881
66873W        W32100  37.931  12.855  14.767
66874W        W32101   5.393  22.505  13.287
66875W        W32102  30.057  24.546   0.821
66876W        W32103  15.094  18.133   2.408
66877W        W32104  36.459   0.760  12.080
66878W        W32105  15.601  43.789   2.806
66879W        W32106  11.830  44.590   0.059
66880W        W32107  17.061   3.389   3.200
66881W        W32108  41.701  39.141  11.043
66882W        W32109  32.891  10.864  13.059
66883W        W32110  12.898  35.412   0.986
66884W        W32111  25.979  17.716   1.991
66885W        W32112   9.867  35.445   2.925
66886W        W32113  40.109   1.225  14.765
66887W        W32114  11.663  26.939  13.325
66888W        W32115  40.190  40.539  13.537
66889W        W32116  27.778  41.869   3.149
66890W        W32117   1.913  20.424   3.118
66891W        W32118  36.214  42.411   4.562
66892W        W32119  11.784  24.001   0.621
66893W        W32120  38.494  16.197  10.965
66894W        W32121  24.610  22.923  12.553
66895W        W32122  21.695  25.163  12.073
66896W        W32123  18.818  34.097  13.919
66897W        W32124  12.409  39.288   4.176
66898W        W32125  30.421  42.053   4.128
66899W        W32126  24.644   5.924   4.623
66900W        W32127  20.632  32.702   1.699
66901W        W32128  30.033  35.625   2.023
66902W        W32129   3.029  13.117   0.336
66903W        W32130  30.411  21.422   2.033
66904W        W32131  34.623  26.573   4.594
66905W        W32132  42.814  20.588  10.760
66906W        W32133   7.080  32.005  11.679
66907W        W32134  11.710  13.721   3.251
66908W        W32135   6.850  31.059   2.616
66909W        W32136  39.500   9.086  14.888
66910W        W32137   5.118  30.250  10.371
66911W        W32138  13.373  19.637   0.252
66912W        W32139  25.979  43.259   2.136
66913W        W32140   6.224  30.317   3.077
66914W        W32141  10.236  44.473  14.209
66915W        W32142   4.270  40.764   4.681
66916W        W32143  24.658  26.630   1.054
66917W        W32144  29.628   9.179   3.275
66918W        W32145  17.135  39.940   0.434
66919W        W32146  44.779  44.938   2.212
66920W        W32147  40.448  28.665   2.471
66921W        W32148  32.925  34.600   1.242
66922W        W32149  17.225   9.042  11.453
66923W        W32150  37.846  42.526   2.791
66924W        W32151  40.217  31.548  14.457
66925W        W32152  28.622  39.842  12.933
66926W        W32153  23.490   2.846   3.796
66927W        W32154  23.523  43.269   4.523
66928W        W32155  32.122  16.767   0.955
66929W        W32156  17.319  28.630   2.768
66930W        W32157   3.351  33.679   4.630
66931W        W32158  42.801  28.470   0.330
66932W        W32159  19.580   5.369   0.884
66933W        W32160  18.237  23.207  12.034
66934W        W32161   9.328  44.717  13.851
66935W        W32162  42.003  44.366  14.411
66936W        W32163   6.562  10.685  11.252
66937W        W32164  19.524  27.517   1.278
66938W        W32165  23.285   7.439  11.157
66939W        W32166  23.641  15.774  14.084
66940W        W32167  19.617  27.642   1.799
66941W        W32168  27.351   9.644   1.256
66942W        W32169  12.937   0.694   5.088
66943W        W32170  20.101  34.583   5.138
66944W        W32171   7.465  40.462  13.735
66945W        W32172  23.066  40.057  14.377
66946W        W32173   2.943  43.345   3.062
66947W        W32174  31.012  33.740  11.370
66948W        W32175  27.842   0.253  11.049
66949W        W32176  24.703  32.339  12.666
66950W        W32177  18.788   4.282   2.148
66951W        W32178   8.213  10.178   4.078
66952W        W32179   1.284  35.855  12.423
66953W        W32180  38.056  12.099  12.536
66954W        W32181   3.338  22.217  13.735
66955W        W32182  25.135  17.745   1.489
66956W        W32183  24.226  20.089   1.823
66957W        W32184  27.085  12.937   2.538
66958W        W32185  33.642  21.957  11.086
66959W        W32186  41.748  25.428   0.705
66960W        W32187  39.498  15.326   3.234
66961W        W32188   5.808  15.172  13.833
66962W        W32189   2.873  19.073  12.988
66963W        W32190  35.986  29.607   2.662
66964W        W32191  14.382  41.904   2.864
66965W        W32192   3.531  31.979   0.511
66966W        W32193   1.322  42.654  14.359
66967W        W32194   4.214  22.501  13.659
66968W        W32195  31.140  40.095  10.654
66969W        W32196  35.562   3.278  11.922
66970W        W32197  20.613   6.170   3.303
66971W        W32198  35.502   9.362   1.415
66972W        W32199  41.957   4.842   1.815
66973W        W32200  35.307   2.497   0.366
66974W        W32201  11.201  38.501  13.977
66975W        W32202   6.334  19.437   3.114
66976W        W32203  32.409  39.417   1.886
66977W        W32204   5.209  16.171  14.928
66978W        W32205  35.036  39.792   3.615
66979W        W32206  29.642  44.389   2.324
66980W        W32207   8.720   9.676   3.174
66981W        W32208  24.007  36.584  14.334
66982W        W32209  38.456  12.645  13.603
66983W        W32210  35.397   3.883  13.548
66984W        W32211  36.055  16.419  10.848
66985W        W32212  40.554  20.514  11.176
66986W        W32213  36.406  10.146  11.747
66987W        W32214  35.568  33.040  13.344
66988W        W32215  37.184  40.257  10.718
66989W        W32216   4.059  25.072  12.462
66990W        W32217  25.729  16.569   2.403
66991W        W32218  27.594  11.863  13.831
66992W        W32219   4.414   0.538  12.209
66993W        W32220  41.194  27.621  10.756
66994W        W32221  27.120   8.143   0.779
66995W        W32222   8.259  26.358  13.035
66996W        W32223   9.606   6.854  10.800
66997W        W32224  43.584   1.295  14.344
66998W        W32225  13.494  12.117   1.440
66999W        W32226   8.812  41.338  13.607
67000W        W32227  43.329  32.720   3.845
67001W        W32228  32.562   8.050   2.395
67002W        W32229  21.063  28.919  12.132
67003W        W32230   6.958  35.815  13.120
67004W        W32231  36.951  32.953   1.919
67005W        W32232  30.928  17.487   3.891
67006W        W32233  21.457  13.680   0.951
67007W        W32234   5.794  25.335  12.345
67008W        W32235   1.195  18.852  11.616
67009W        W32236  29.512   5.202   1.271
67010W        W32237  26.435  38.729  13.826
67011W        W32238  44.036  29.203   2.368
67012W        W32239  17.767  42.941   3.680
67013W        W32240   5.980  22.199   4.157
67014W        W32241  16.895  37.610  12.421
67015W        W32242  43.649  30.002   9.939
67016W        W32243   4.107  24.473  13.091
67017W        W32244  10.316  22.934  11.105
67018W        W32245  13.566  25.050   4.414
67019W        W32246  37.410   8.576   3.087
67020W        W32247  38.361  11.959   4.070
67021W        W32248  16.036  10.189  13.901
67022W        W32249  40.763  34.848  12.491
67023W        W32250  12.046  29.433   0.334
67024W        W32251  20.271  10.539  10.260
67025W        W32252  16.781   8.092   1.269
67026W        W32253  33.290   1.656  11.798
67027W        W32254  14.091  31.615   0.371
67028W        W32255  27.953   2.023   0.424
67029W        W32256  24.771  16.284  14.322
67030W        W32257  35.678  21.595   4.466
67031W        W32258   0.139  37.987  12.554
67032W        W32259  26.990  31.394  11.945
67033W        W32260  37.494  38.939   5.096
67034W        W32261  31.436  29.189   4.449
67035W        W32262  25.715  40.521  14.399
67036W        W32263  38.981  26.663   2.298
67037W        W32264  35.064   4.760   4.960
67038W        W32265  27.755  26.715  13.912
67039W        W32266   7.523  29.131   0.059
67040W        W32267  29.408  43.532   0.046
67041W        W32268  14.055  44.761  14.799
67042W        W32269  11.144  19.342   3.506
67043W        W32270  12.753  27.135  12.854
67044W        W32271  37.790  39.407  13.423
67045W        W32272  27.444  15.097   3.231
67046W        W32273   8.353  37.701  10.183
67047W        W32274  35.837  26.921   2.427
67048W        W32275  33.662  13.027   9.924
67049W        W32276  13.795   6.533  12.634
67050W        W32277  42.759  33.146  13.399
67051W        W32278   7.090  17.838   1.483
67052W        W32279  12.126  22.551   2.449
67053W        W32280  38.050   1.392   1.801
67054W        W32281  32.131  27.172   0.403
67055W        W32282  28.195  15.089  13.873
67056W        W32283   7.643  24.328  11.135
67057W        W32284  36.540  43.822   2.951
67058W        W32285  42.014  32.664  11.154
67059W        W32286  16.482  42.210   1.964
67060W        W32287  39.016  38.882  14.349
67061W        W32288  28.037   7.706   3.737
67062W        W32289  20.793   3.522  14.865
67063W        W32290   9.113  42.841  11.590
67064W        W32291  42.131  26.448   1.887
67065W        W32292  16.380   1.335  13.360
67066W        W32293   6.635  13.233   2.243
67067W        W32294   8.912   5.155  11.567
67068W        W32295  43.318  38.031   3.731
67069W        W32296  19.901  38.456   2.024
67070W        W32297  16.676  43.678  11.584
67071W        W32298  35.338   6.041  10.295
67072W        W32299   5.306  26.073   3.301
67073W        W32300  39.366  34.186  14.503
67074W        W32301   7.112  25.601   4.239
67075W        W32302  23.687  37.382  14.165
67076W        W32303   9.803  27.959   3.900
67077W        W32304  37.473  17.552  14.220
67078W        W32305  33.051  24.483  13.139
67079W        W32306  20.699  25.093   4.273
67080W        W32307  31.972   0.364  10.464
67081W        W32308   2.477   2.762  14.525
67082W        W32309   4.660  33.013   4.433
67083W        W32310   3.805   1.309   5.020
67084W        W32311  34.328  15.942  11.317
67085W        W32312  43.168  42.976   1.626
67086W        W32313  19.658  24.469  11.711
67087W        W32314  11.682   0.142  11.001
67088W        W32315   3.666  16.186   2.295
67089W        W32316  10.363  31.033   0.259
67090W        W32317  38.958  14.138  12.515
67091W        W32318   1.622  27.547   0.849
67092W        W32319  14.075  33.413  14.459
67093W        W32320   9.153   5.003   0.878
67094W        W32321   9.111  34.922   0.236
67095W        W32322  27.187  10.554   4.200
67096W        W32323  28.359   5.149  12.525
67097W        W32324  33.947   5.705   0.837
67098W        W32325  24.294   0.449   0.385
67099W        W32326  41.366  26.242  14.344
67100W        W32327   1.783  36.539   0.014
67101W        W32328  22.992  23.011   0.329
67102W        W32329   4.387  13.925  11.634
67103W        W32330   0.862  22.302  13.508
67104W        W32331  15.745  13.287  14.472
67105W        W32332  42.506  38.959   0.333
67106W        W32333  30.218  35.949  12.481
67107W        W32334  23.322  42.554  12.932
67108W        W32335   6.903  16.339  13.882
67109W        W32336  35.955  31.997  11.463
67110W        W32337   7.821   7.054  10.447
67111W        W32338  31.638  25.472   2.732
67112W        W32339  20.904   0.820  11.072
67113W        W32340  21.758   7.774   4.106
67114W        W32341  29.623  39.023   0.232
67115W        W32342  21.201  33.593  14.740
67116W        W32343  42.599   0.423  10.690
67117W        W32344  43.330  16.039   1.280
67118W        W32345  32.152  43.812   4.082
67119W        W32346  39.472  43.176   4.273
67120W        W32347  22.994   3.490  11.872
67121W        W32348  38.948  11.248  14.192
67122W        W32349  29.897  10.394   0.794
67123W        W32350  32.534  43.780   2.463
67124W        W32351  21.738  28.030  10.753
67125W        W32352   4.927  39.248   1.733
67126W        W32353  28.570  42.838  11.944
67127W        W32354  29.607  12.714   3.418
67128W        W32355  43.105  13.010  13.803
67129W        W32356  32.151   3.467   2.285
67130W        W32357  41.370   0.722   0.317
67131W        W32358  39.060   7.640   2.665
67132W        W32359  17.737  42.108  12.547
67133W        W32360   3.782  12.054   4.702
67134W        W32361  41.884  29.741   2.191
67135W        W32362  36.989  17.855   4.603
67136W        W32363  31.965  15.819   1.835
67137W        W32364  29.142  20.615   0.406
67138W        W32365  44.224   7.654  14.129
67139W        W32366  18.547   1.297  11.084
67140W        W32367  43.447   3.424   0.374
67141W        W32368  38.421  28.064  14.912
67142W        W32369   0.464  15.220   5.025
67143W        W32370   0.565  24.430  12.432
67144W        W32371  44.009   9.335   3.838
67145W        W32372   5.884  41.613  14.405
67146W        W32373   4.877  43.836   2.579
67147W        W32374  44.217   0.148   0.059
67148W        W32375   1.376  14.917  12.760
67149W        W32376  24.733  36.460   2.315
67150W        W32377  42.375   6.140  14.530
67151W        W32378  21.727  16.820  10.616
67152W        W32379  35.422   4.926  12.391
67153W        W32380  33.447   7.409  11.564
67154W        W32381  15.938  13.076   3.992
67155W        W32382  16.634  25.165   3.367
67156W        W32383  37.884   1.850   1.658
67157W        W32384  17.572   8.655   2.655
67158W        W32385  32.549  36.588  14.496
67159W        W32386  40.079  11.503  13.785
67160W        W32387  21.594  22.011  10.896
67161W        W32388  39.694  11.634   3.310
67162W        W32389  37.784  12.939  12.412
67163W        W32390  42.055  34.836  10.781
67164W        W32391  20.192  29.640  10.492
67165W        W32392  21.558  13.346   2.284
67166W        W32393   7.801  34.536   3.391
67167W        W32394  29.490   9.055   4.613
67168W        W32395   9.231  21.247  12.866
67169W        W32396  20.330  17.943  14.913
67170W        W32397   1.333  29.619  12.976
67171W        W32398  16.124  15.796  14.019
67172W        W32399   1.865  38.392  11.073
67173W        W32400  33.914   7.220  11.696
67174W        W32401  25.388  25.753   0.572
67175W        W32402  26.011  27.661   4.159
67176W        W32403  19.275  17.016   1.308
67177W        W32404  40.138   8.626   2.842
67178W        W32405  26.490  20.185  14.710
67179W        W32406   9.497  25.475   4.437
67180W        W32407  29.550  30.060  14.088
67181W        W32408  43.465   9.293  11.623
67182W        W32409  15.456  13.105   1.556
67183W        W32410   5.647  15.364   1.881
67184W        W32411  24.204  34.636   4.354
67185W        W32412  27.471  14.984  13.036
67186W        W32413  13.062  15.673  12.421
67187W        W32414  33.433  13.308   1.666
67188W        W32415  43.926   8.266   4.596
67189W        W32416  25.771   5.592   0.805
67190W        W32417   3.727   7.706   4.597
67191W        W32418  38.882  39.485   4.130
67192W        W32419  17.737  15.597   0.447
67193W        W32420  20.922  31.565   4.310
67194W        W32421  26.459  23.142  10.481
67195W        W32422   6.727   6.590   3.250
67196W        W32423   2.896  14.453   3.750
67197W        W32424  40.993  11.337   0.047
67198W        W32425  38.631  28.555   3.662
67199W        W32426  22.630  27.893  12.052
67200W        W32427   4.815  17.142  10.096
67201W        W32428  42.569  41.299   4.258
67202W        W32429  38.700  34.073  11.896
67203W        W32430   1.231  31.474   1.380
67204W        W32431  39.390  22.253  11.066
67205W        W32432  39.430  40.535  11.409
67206W        W32433  22.037  44.001  10.880
67207W        W32434  13.716  15.629  10.118
67208W        W32435  15.630  14.568   0.429
67209W        W32436  23.269  33.603   3.859
67210W        W32437   9.392  33.315   9.944
67211W        W32438   2.413  39.569  11.527
67212W        W32439  11.217  17.042  11.483
67213W        W32440  33.063  30.445   3.199
67214W        W32441   8.317  40.274   3.815
67215W        W32442  30.099   9.069  14.982
67216W        W32443  18.159  39.804   2.855
67217W        W32444  44.859  26.536   4.141
67218W        W32445   8.166   1.734   2.268
67219W        W32446  20.492   6.334  14.837
67220W        W32447  32.637  35.347  13.066
67221W        W32448  28.481  31.330   3.539
67222W        W32449  19.282  14.298  11.333
67223W        W32450  39.201  30.512  13.917
67224W        W32451   9.224  31.289  11.474
67225W        W32452  29.235  38.977   3.546
67226W        W32453  13.158  36.862   4.169
67227W        W32454  12.341  10.767  13.901
67228W        W32455  19.948  27.480   4.587
67229W        W32456  44.927   5.477  10.535
67230W        W32457  19.072   6.142  14.217
67231W        W32458   7.229   0.904  14.700
67232W        W32459  43.832  39.017   4.404
67233W        W32460   3.310   4.202   0.778
67234W        W32461   2.959  19.274   0.326
67235W        W32462  43.537  21.646   0.995
67236W        W32463   2.548   2.170   1.614
67237W        W32464  44.283   8.854   3.251
67238W        W32465  22.282  17.061   3.482
67239W        W32466  25.114  39.418   1.623
67240W        W32467  37.126  24.015  12.012
67241W        W32468  15.062  22.570   2.082
67242W        W32469  30.740  37.077   0.743
67243W        W32470  33.939  20.270   4.971
67244W        W32471   1.627   7.355   3.248
67245W        W32472  13.646  35.056  11.168
67246W        W32473  10.530  13.698   0.381
67247W        W32474  35.082  31.670  13.591
67248W        W32475  16.058  31.723  14.362
67249W        W32476   4.974   0.811   4.246
67250W        W32477  12.057  16.395   5.557
67251W        W32478  33.975  22.499  12.860
67252W        W32479  38.565  32.356  12.972
67253W        W32480   4.697   3.283   4.593
67254W        W32481   4.012   7.274   0.201
67255W        W32482  15.096  14.733   3.757
67256W        W32483  19.750  44.340  13.435
67257W        W32484  38.393  28.981   0.335
67258W        W32485  44.135  15.214  11.536
67259W        W32486  22.941  43.521   1.687
67260W        W32487  36.055  17.706  12.155
67261W        W32488  41.286  26.658   1.769
67262W        W32489  20.188  11.885  10.753
67263W        W32490  39.402  42.704   0.234
67264W        W32491  42.271  19.599  13.165
67265W        W32492  38.912  44.382   4.382
67266W        W32493  44.810  15.714   2.966
67267W        W32494  44.783  34.450  12.580
67268W        W32495  34.453  16.671  11.116
67269W        W32496  43.445  21.199   3.588
67270W        W32497  16.535  37.834  14.991
67271W        W32498   8.792   8.604  10.611
67272W        W32499  24.714  32.402   0.071
67273W        W32500  33.629  39.453   2.265
67274W        W32501  14.956   1.445  11.588
67275W        W32502  37.675  43.054   4.990
67276W        W32503  43.068   5.300   4.601
67277W        W32504  28.493  41.927  13.382
67278W        W32505  21.664   9.118   2.906
67279W        W32506  27.578   8.572  12.188
67280W        W32507  38.424  26.095  14.845
67281W        W32508  23.117  26.983  13.910
67282W        W32509  33.039  27.501  14.936
67283W        W32510   2.715  39.081   1.614
67284W        W32511   8.904   0.460   4.228
67285W        W32512  15.731   6.191  13.310
67286W        W32513  18.812  13.932   4.978
67287W        W32514   4.935  25.950   1.717
67288W        W32515  13.524  15.242  10.419
67289W        W32516  16.603  25.797  14.412
67290W        W32517  18.825  25.973   3.180
67291W        W32518  28.654  22.752   3.708
67292W        W32519  16.812  32.777  11.968
67293W        W32520  19.842  33.033  12.427
67294W        W32521  18.106  27.416  14.851
67295W        W32522  40.849  18.334  10.729
67296W        W32523   6.403  11.615  10.589
67297W        W32524  39.283  16.029  11.287
67298W        W32525  43.530  12.004  14.873
67299W        W32526  30.490  22.955  11.173
67300W        W32527   0.477  44.323   5.421
67301W        W32528  24.717  18.673  14.110
67302W        W32529  24.969  26.565  13.674
67303W        W32530  12.915   6.892   0.378
67304W        W32531  39.482  36.541   4.306
67305W        W32532   0.342  40.624  11.207
67306W        W32533  39.473   7.932   3.400
67307W        W32534  26.550   1.935   0.382
67308W        W32535  11.742   2.328   1.297
67309W        W32536  10.925   5.318  10.685
67310W        W32537  19.783  40.448  11.784
67311W        W32538  41.262  28.883   1.108
67312W        W32539  27.082   6.120   0.730
67313W        W32540  31.422   9.757   9.951
67314W        W32541  38.127  28.933  11.074
67315W        W32542   5.421  29.060   3.660
67316W        W32543   2.403  12.294  13.539
67317W        W32544  29.772  42.203  13.947
67318W        W32545  42.011  19.689  12.663
67319W        W32546  32.901  14.859  13.943
67320W        W32547   3.942   2.749   5.076
67321W        W32548  16.994  17.981  14.480
67322W        W32549  22.776   9.669  13.766
67323W        W32550  43.424  38.170   3.219
67324W        W32551  30.593   7.621  13.962
67325W        W32552  24.687   8.278   4.679
67326W        W32553  10.148  34.115   4.483
67327W        W32554  10.980  15.876   2.754
67328W        W32555  18.886  20.236  10.611
67329W        W32556  34.035  12.873  12.948
67330W        W32557  31.471  38.589  11.175
67331W        W32558  36.127  38.347   0.312
67332W        W32559  42.459  30.171  14.016
67333W        W32560  25.674   0.208  13.490
67334W        W32561  37.883  29.705   0.448
67335W        W32562  25.721  33.089   4.096
67336W        W32563  20.629  44.778   4.456
67337W        W32564  26.720  10.762  14.520
67338W        W32565  35.856  28.610   0.177
67339W        W32566  11.712  38.025   4.430
67340W        W32567   3.926   7.843   1.580
67341W        W32568  13.391  24.205  10.631
67342W        W32569   4.481  24.196   4.092
67343W        W32570  42.541  26.096  14.246
67344W        W32571  24.664  26.162  12.662
67345W        W32572  44.600   4.088  11.093
67346W        W32573  16.083  42.216  13.445
67347W        W32574  29.195  44.507  13.869
67348W        W32575  32.627  29.370   1.695
67349W        W32576  41.135  29.672  11.604
67350W        W32577  40.050   3.966   1.468
67351W        W32578  30.713  31.412  12.376
67352W        W32579  21.233   1.692   1.189
67353W        W32580   6.235  16.598   0.745
67354W        W32581   2.076  40.015   3.100
67355W        W32582  13.775  36.813   4.679
67356W        W32583  11.899  30.629  14.817
67357W        W32584  29.694  19.499   4.558
67358W        W32585  30.978  38.788   0.364
67359W        W32586  17.726  10.422   0.336
67360W        W32587  42.387  17.269  13.468
67361W        W32588   5.733  24.639   3.472
67362W        W32589  22.951  38.309  14.977
67363W        W32590  43.104  26.110  12.759
67364W        W32591  20.777  17.810  10.756
67365W        W32592  33.946  38.490   1.664
67366W        W32593  14.072  43.228  11.687
67367W        W32594  44.789  27.631  12.974
67368W        W32595  29.937   4.943  10.273
67369W        W32596  19.190   3.969   2.832
67370W        W32597  15.335  26.408   1.251
67371W        W32598  14.673  28.913   1.284
67372W        W32599  24.008  14.663   3.621
67373W        W32600  39.994  44.844   4.580
67374W        W32601  22.595  20.181  12.990
67375W        W32602   0.744  30.445  12.698
67376W        W32603  41.148  29.153  13.433
67377W        W32604   9.756   1.719   0.803
67378W        W32605  20.875  30.185   3.849
67379W        W32606  22.895  26.124   1.371
67380W        W32607   8.804  15.740  11.711
67381W        W32608   1.447  42.297  11.558
67382W        W32609  19.106  36.946  14.263
67383W        W32610   2.829  26.587  13.802
67384W        W32611   4.305  16.054   3.666
67385W        W32612   9.435  27.176  10.956
67386W        W32613  19.043  42.950  12.918
67387W        W32614  37.952   0.219   4.621
67388W        W32615   6.316   0.035   4.506
67389W        W32616  27.068  36.736  10.865
67390W        W32617  27.431  23.132  11.562
67391W        W32618   6.438  21.024  11.172
67392W        W32619  40.005   2.143  13.967
67393W        W32620  17.223  15.103   5.215
67394W        W32621  23.489  16.224  13.887
67395W        W32622  25.306   8.792   4.112
67396W        W32623   2.246   5.278  12.559
67397W        W32624  28.419   2.751   2.245
67398W        W32625  28.197  19.004  13.195
67399W        W32626  21.450  44.203   2.849
67400W        W32627  22.558  21.516  11.164
67401W        W32628  26.445   1.822   3.145
67402W        W32629  34.902  21.991  12.569
67403W        W32630  37.053  28.303  12.510
67404W        W32631  26.166  10.736  12.498
67405W        W32632  17.841   8.460  13.385
67406W        W32633  33.850   5.853  12.185
67407W        W32634  34.621  42.250   3.802
67408W        W32635  23.218  38.325  11.636
67409W        W32636   6.737  44.092  14.333
67410W        W32637  32.120  14.125  13.805
67411W        W32638  13.795  35.096   4.110
67412W        W32639   1.011  38.406  11.234
67413W        W32640  35.946  24.722   4.088
67414W        W32641  38.336   4.972   2.466
67415W        W32642  23.178  30.299   4.123
67416W        W32643  33.640  23.608   4.355
67417W        W32644  31.622  38.316  14.499
67418W        W32645  38.889  26.961  11.490
67419W        W32646  38.941  41.698  14.295
67420W        W32647  33.876  15.154   0.451
67421W        W32648  20.015  30.554  10.320
67422W        W32649  37.141  33.047   2.819
67423W        W32650  19.233  15.401  14.477
67424W        W32651  20.537   5.205  13.432
67425W        W32652  28.970  10.442  11.081
67426W        W32653  39.585  25.572  12.283
67427W        W32654  30.461  37.612  13.891
67428W        W32655  16.399  27.108  14.722
67429W        W32656   1.058  14.032  12.503
67430W        W32657  18.304  32.538  10.686
67431W        W32658  37.346  17.804  13.312
67432W        W32659  13.256  35.736   0.830
67433W        W32660  20.045   9.693   2.345
67434W        W32661   0.813  32.577   1.810
67435W        W32662   3.816  20.564   3.214
67436W        W32663  16.038  37.996  10.465
67437W        W32664   4.954  33.125  11.493
67438W        W32665   1.455  11.089   3.724
67439W        W32666  10.618  37.365   0.370
67440W        W32667  18.318   4.705   4.632
67441W        W32668  22.780  20.236   1.742
67442W        W32669  11.850  14.192  11.907
67443W        W32670  40.451  14.552  13.597
67444W        W32671  29.080  17.165  14.425
67445W        W32672  25.200  23.014  12.080
67446W        W32673   0.392  29.253  14.236
67447W        W32674  38.086  39.582   4.781
67448W        W32675  18.568  40.028   1.379
67449W        W32676   3.851  34.838  14.921
67450W        W32677  17.325  30.124  12.542
67451W        W32678   3.350  33.598  13.533
67452W        W32679  18.405  36.136   3.713
67453W        W32680  29.754   0.372  13.815
67454W        W32681  15.870  17.217  11.038
67455W        W32682  44.423  25.624  14.834
67456W        W32683  17.148  32.736  13.193
67457W        W32684  13.182  13.603   3.727
67458W        W32685  26.949   2.402  12.438
67459W        W32686   5.219  27.873  13.102
67460W        W32687  12.405  24.266   0.575
67461W        W32688   8.322  33.820   3.306
67462W        W32689  11.734  25.496  13.791
67463W        W32690  24.343   9.848  14.701
67464W        W32691  31.530  12.727   0.961
67465W        W32692  17.525   1.673  13.510
67466W        W32693  26.203  35.762   1.706
67467W        W32694   4.249   4.996  10.514
67468W        W32695  15.734  16.124   2.884
67469W        W32696   7.598  18.502   3.317
67470W        W32697  14.554   4.771   2.341
67471W        W32698  23.521  39.905   0.866
67472W        W32699   7.920  39.219   4.491
67473W        W32700  30.177   0.779  12.545
67474W        W32701   2.729  42.957   2.821
67475W        W32702  22.071  22.614  11.997
67476W        W32703  18.645  22.463   4.166
67477W        W32704  33.577  14.547   3.301
67478W        W32705  40.381  26.080   0.353
67479W        W32706  41.404   0.425  10.688
67480W        W32707   0.743  17.647  12.044
67481W        W32708  18.434  43.905   0.205
67482W        W32709  34.373  36.729  14.990
67483W        W32710  42.290   1.184   0.307
67484W        W32711  17.029   1.144   1.297
67485W        W32712  24.608   5.335   1.906
67486W        W32713   1.962  27.923  12.591
67487W        W32714  39.860  10.330   4.799
67488W        W32715   3.250   3.686   0.801
67489W        W32716  19.849   3.058  11.597
67490W        W32717  29.191   7.404   1.208
67491W        W32718  29.297   6.289  14.993
67492W        W32719  16.779  20.462   2.216
67493W        W32720  22.281   5.824  13.378
67494W        W32721  31.533  39.477   1.436
67495W        W32722  43.400  15.257  14.948
67496W        W32723   7.220  24.955  14.799
67497W        W32724  13.652   5.309  13.379
67498W        W32725   2.421   6.284   0.438
67499W        W32726  13.819   5.766   0.144
67500W        W32727  36.832  16.686  13.772
67501W        W32728  36.535  28.712   0.898
67502W        W32729   4.006  11.769   0.723
67503W        W32730  16.978   1.410   0.840
67504W        W32731  35.360  14.751  10.927
67505W        W32732  16.678  12.891   0.318
67506W        W32733  22.081  20.651   1.931
67507W        W32734  20.325  13.431   3.644
67508W        W32735  27.134   0.671   3.234
67509W        W32736   7.720   3.088  10.837
67510W        W32737  21.518  37.938  12.555
67511W        W32738  18.239  28.508   4.775
67512W        W32739  22.919   4.857  11.184
67513W        W32740   8.229  32.834   3.597
67514W        W32741  44.010  39.314   0.860
67515W        W32742  15.307  43.505   3.125
67516W        W32743  38.985   7.422  13.098
67517W        W32744  42.305  42.977  12.430
67518W        W32745  44.240   1.419   0.716
67519W        W32746  33.859  40.745   2.807
67520W        W32747   8.406  21.265  13.439
67521W        W32748  28.109  41.545  12.105
67522W        W32749  44.753  29.623  12.096
67523W        W32750  14.902   9.830   2.313
67524W        W32751  38.081   3.492   3.786
67525W        W32752  18.771  19.486   0.742
67526W        W32753  11.200  34.427  10.963
67527W        W32754  33.863   7.752  11.563
67528W        W32755  42.855  22.000   1.738
67529W        W32756   8.706  19.997  13.136
67530W        W32757   1.898   9.709   1.396
67531W        W32758   3.175  24.095   2.784
67532W        W32759  36.979  30.706  11.159
67533W        W32760  27.241  18.233  11.720
67534W        W32761  13.237  10.156  13.990
67535W        W32762  29.870  41.518   2.261
67536W        W32763  26.023   6.947   2.684
67537W        W32764  16.771  43.714  11.060
67538W        W32765  22.663  39.983  12.101
67539W        W32766  21.070  43.270  11.728
67540W        W32767   2.008  34.428   0.447
67541W        W32768  35.511  37.479   2.708
67542W        W32769  37.380  31.453  12.425
67543W        W32770   0.817  26.600  13.984
67544W        W32771  36.570  40.388   2.814
67545W        W32772  12.870  20.670   0.858
67546W        W32773  43.125  43.797  12.464
67547W        W32774  39.389  12.981  12.016
67548W        W32775   7.116   0.347   2.817
67549W        W32776  19.282   7.673   1.510
67550W        W32777  16.546  41.145   0.667
67551W        W32778  32.875   3.432  13.951
67552W        W32779  15.808  11.240  13.302
67553W        W32780  32.600   1.343   2.618
67554W        W32781   0.560  31.453  14.543
67555W        W32782  14.781  19.652   0.699
67556W        W32783  43.425  42.233   3.910
67557W        W32784  18.791  32.831   0.416
67558W        W32785  17.293  25.035  11.601
67559W        W32786  28.615  34.058  10.705
67560W        W32787  23.962  44.502  13.930
67561W        W32788   8.782   7.613   3.875
67562W        W32789  43.320  12.008   4.183
67563W        W32790  13.080   5.087  13.422
67564W        W32791  41.616   6.729   2.655
67565W        W32792  33.088  12.909   5.404
67566W        W32793   6.675  22.660  12.754
67567W        W32794   8.289  35.024   1.442
67568W        W32795   2.194   0.018  14.773
67569W        W32796  40.288   6.659  14.975
67570W        W32797  16.591  22.868  13.529
67571W        W32798  11.164  17.744   1.770
67572W        W32799  43.630  26.951   3.980
67573W        W32800   1.925  44.972  11.544
67574W        W32801  20.966   6.403   4.611
67575W        W32802  14.785  29.648   4.611
67576W        W32803  14.843  21.684   1.734
67577W        W32804  38.348   8.201   1.670
67578W        W32805  30.146   5.925   0.975
67579W        W32806  26.205  14.766  10.569
67580W        W32807  20.238   0.925   1.829
67581W        W32808  16.878  21.043  14.752
67582W        W32809   3.242  30.943   5.000
67583W        W32810  36.527  44.386  14.389
67584W        W32811  31.191  17.843  13.866
67585W        W32812  32.476  26.954   0.901
67586W        W32813  31.034  37.618  13.680
67587W        W32814   7.990  31.546   2.002
67588W        W32815  16.830  11.812  10.354
67589W        W32816  18.593   3.281  12.352
67590W        W32817  13.426  29.158  12.131
67591W        W32818   2.331  29.522   1.247
67592W        W32819  25.432  10.512   3.755
67593W        W32820  24.974  42.321   3.387
67594W        W32821  27.441  15.840  10.189
67595W        W32822  17.723   5.829  11.829
67596W        W32823  44.442  34.218  11.749
67597W        W32824   9.550  40.805   3.131
67598W        W32825   8.442   0.668  11.561
67599W        W32826  11.774  27.447  13.418
67600W        W32827   5.310   5.232  14.550
67601W        W32828  32.920  43.883   1.323
67602W        W32829   3.612   1.773   2.412
67603W        W32830  39.349   6.971  10.818
67604W        W32831  32.928  28.658  11.549
67605W        W32832  16.633   5.575  10.967
67606W        W32833  11.593  23.580   2.508
67607W        W32834   4.771  37.005  14.462
67608W        W32835  24.052  44.087  14.221
67609W        W32836  35.881   4.288   4.416
67610W        W32837  19.224  42.039   1.917
67611W        W32838  20.579  22.616  14.359
67612W        W32839  28.887  26.186   0.496
67613W        W32840  24.585  43.717  10.070
67614W        W32841  28.360  39.439  12.679
67615W        W32842   7.762  10.454  12.769
67616W        W32843   9.393  18.639   4.333
67617W        W32844  28.327  34.679   0.319
67618W        W32845   3.764   1.025   4.248
67619W        W32846   5.744   3.355  11.535
67620W        W32847  21.085  20.809   3.052
67621W        W32848  34.329  27.640   2.632
67622W        W32849   4.103  31.664  11.186
67623W        W32850   6.283  10.213   4.562
67624W        W32851  30.489   6.533   2.184
67625W        W32852  30.680  28.397   0.836
67626W        W32853  28.734  32.585  11.374
67627W        W32854  24.476  32.844  14.932
67628W        W32855  38.887   1.932   3.129
67629W        W32856   9.374  37.473   4.212
67630W        W32857  29.780  40.510   5.171
67631W        W32858  41.023  15.266  12.037
67632W        W32859  35.747  44.885   2.890
67633W        W32860  11.178   3.716   2.242
67634W        W32861  41.437  29.227   3.121
67635W        W32862   0.286  17.162  14.428
67636W        W32863   9.646   4.318  13.895
67637W        W32864  23.107  19.834   1.667
67638W        W32865   4.851   6.283  10.792
67639W        W32866  12.778  34.179   1.366
67640W        W32867  40.436  26.132  11.070
67641W        W32868  37.601   9.330  13.793
67642W        W32869  35.086  41.488   4.812
67643W        W32870   8.954  24.142  13.130
67644W        W32871  42.513  24.737  14.842
67645W        W32872   6.476   0.602   2.307
67646W        W32873  43.076  10.590   2.752
67647W        W32874  15.515  39.836   4.864
67648W        W32875  29.738  44.667  13.516
67649W        W32876  13.528  26.181  11.536
67650W        W32877  11.679  38.807  11.119
67651W        W32878  17.217   8.684  13.376
67652W        W32879  20.059   5.751   0.461
67653W        W32880   5.836  10.275   1.012
67654W        W32881   4.834  32.695  12.793
67655W        W32882  23.298  25.514   2.318
67656W        W32883   1.827  15.759   4.556
67657W        W32884  35.973  22.511  14.900
67658W        W32885  42.313  43.941   1.525
67659W        W32886  34.598  38.304   1.179
67660W        W32887   7.181   1.376  10.602
67661W        W32888  30.928  44.456   3.682
67662W        W32889  22.495  18.021  11.330
67663W        W32890   3.352   4.544   3.256
67664W        W32891  14.536  24.595   3.253
67665W        W32892  30.064  20.308   1.405
67666W        W32893  27.574  27.995  10.951
67667W        W32894   6.709  28.954  14.778
67668W        W32895   3.733  10.266   4.174
67669W        W32896   9.193  18.294  10.302
67670W        W32897  23.512  38.788  11.511
67671W        W32898  25.504  18.129  12.377
67672W        W32899  11.008  15.224   2.119
67673W        W32900  39.042  17.536  12.326
67674W        W32901  29.614  18.126  13.890
67675W        W32902  23.226  28.656   3.141
67676W        W32903   0.815  13.602  12.982
67677W        W32904  26.576  31.895  12.359
67678W        W32905  34.588  42.312   0.044
67679W        W32906  26.067  20.366  14.984
67680W        W32907   1.102   0.424  10.695
67681W        W32908  33.355   2.984   4.089
67682W        W32909  37.297  10.317  14.038
67683W        W32910  32.474   0.946  11.155
67684W        W32911  18.433  10.765   2.168
67685W        W32912  29.836  24.032  13.934
67686W        W32913  19.686  15.776   1.023
67687W        W32914  43.248  31.889  13.567
67688W        W32915   7.394  41.871   4.259
67689W        W32916  16.528   2.738  11.261
67690W        W32917  37.972   8.879   1.966
67691W        W32918  30.330  33.574  14.239
67692W        W32919  42.275  15.276  10.682
67693W        W32920  39.327  34.864  13.325
67694W        W32921  32.960  25.201  12.404
67695W        W32922  41.845  33.005  11.485
67696W        W32923  40.467  36.798  11.165
67697W        W32924   5.014  16.502   5.038
67698W        W32925  35.736   0.002  11.102
67699W        W32926  32.406   5.791  13.768
67700W        W32927  28.392  23.788  13.313
67701W        W32928  37.477  23.566   4.079
67702W        W32929  30.745  20.218   3.093
67703W        W32930  30.189  27.365   1.257
67704W        W32931  35.595   3.255  14.834
67705W        W32932  40.799  14.898  10.715
67706W        W32933  39.220  14.156  11.259
67707W        W32934   8.736  41.401  11.838
67708W        W32935  22.118  16.750  14.586
67709W        W32936  13.340   4.998   1.768
67710W        W32937  19.207  38.433  12.462
67711W        W32938   8.277  18.286   0.926
67712W        W32939  33.892   7.149   4.555
67713W        W32940  26.341   6.163   2.714
67714W        W32941  39.491  25.585   3.360
67715W        W32942  13.662  22.429  12.850
67716W        W32943  16.700   5.457  11.450
67717W        W32944  24.515  16.219   3.266
67718W        W32945  19.580  23.965  11.575
67719W        W32946  24.902  38.131   1.387
67720W        W32947  36.767   8.199  14.333
67721W        W32948  28.887  12.174   0.322
67722W        W32949  17.034  23.618   0.115
67723W        W32950  12.609  41.301   2.968
67724W        W32951  14.442   1.530  11.572
67725W        W32952  39.473  43.908   0.829
67726W        W32953  29.510  26.547   3.410
67727W        W32954   2.764  33.114   4.249
67728W        W32955   7.608   2.689   1.802
67729W        W32956  29.553  29.074  14.573
67730W        W32957   7.316  19.529   4.124
67731W        W32958   2.000  30.993   1.257
67732W        W32959  11.119  39.429  14.382
67733W        W32960  12.263  22.461  14.408
67734W        W32961  34.854  30.458  14.220
67735W        W32962   6.248  11.010   1.907
67736W        W32963  36.894  32.115  12.682
67737W        W32964  13.425   2.339   0.497
67738W        W32965  33.232  32.950  12.046
67739W        W32966  41.941  36.986  14.017
67740W        W32967  30.022  15.822  14.325
67741W        W32968  44.709  28.640   4.211
67742W        W32969  41.330   2.852   2.967
67743W        W32970  19.633  32.208  12.947
67744W        W32971  20.235  33.849   3.685
67745W        W32972  32.632  20.885   3.251
67746W        W32973  36.794   5.941   3.359
67747W        W32974  17.745  32.437   0.989
67748W        W32975   5.136  34.267  13.022
67749W        W32976  26.132  41.299  14.345
67750W        W32977  22.581  12.774  11.670
67751W        W32978  41.303  10.215  10.723
67752W        W32979  37.786  31.397   4.151
67753W        W32980   3.331  41.920  10.939
67754W        W32981  11.224  11.071   3.588
67755W        W32982  38.629  31.154   0.318
67756W        W32983   2.865  37.974  10.743
67757W        W32984  24.025  34.414  14.480
67758W        W32985  29.009  13.824   2.811
67759W        W32986  25.433  31.138  12.552
67760W        W32987  34.454  40.044   0.547
67761W        W32988  12.245  27.689  13.443
67762W        W32989  30.683  33.881   3.748
67763W        W32990  38.552  39.345   1.858
67764W        W32991  14.631   9.910   0.938
67765W        W32992  41.180  30.186   1.403
67766W        W32993   6.667  18.254  13.836
67767W        W32994   2.887   8.845  11.062
67768W        W32995   7.737   8.204  13.663
67769W        W32996  16.686  21.022  13.902
67770W        W32997  20.633   4.251   4.047
67771W        W32998  20.039  12.376   0.912
67772W        W32999   7.754  27.262  10.845
67773W        W33000   9.902  13.352   2.031
67774W        W33001   1.783  11.023  12.838
67775W        W33002  18.973   8.722   2.683
67776W        W33003  38.831  28.972  10.071
67777W        W33004  14.520  10.686  13.406
67778W        W33005  40.986  24.680  13.417
67779W        W33006  37.387  21.757  12.604
67780W        W33007  39.807  20.086   3.247
67781W        W33008  10.034  16.714   1.696
67782W        W33009   2.387  16.095  14.770
67783W        W33010  28.472  11.584   1.685
67784W        W33011   8.123  30.069   3.942
67785W        W33012  33.963   2.166   4.869
67786W        W33013   5.651  43.339  13.185
67787W        W33014   7.607  36.582   4.990
67788W        W33015  20.565  40.835  12.423
67789W        W33016  31.973  25.745  10.011
67790W        W33017  16.380   6.456   4.089
67791W        W33018   9.502  27.204   4.265
67792W        W33019  24.763  19.563   1.130
67793W        W33020  42.101   7.547  14.829
67794W        W33021  10.613  14.530   3.775
67795W        W33022   6.782  24.511  12.587
67796W        W33023   7.475  41.703  11.103
67797W        W33024  40.550  24.864   3.560
67798W        W33025  21.705  26.526   4.645
67799W        W33026  22.125  19.767  11.163
67800W        W33027  42.804  39.315  11.503
67801W        W33028  11.454  12.100  14.281
67802W        W33029   1.199  20.618   1.339
67803W        W33030  28.097  11.911  10.725
67804W        W33031  35.849  29.112   1.339
67805W        W33032  35.845  38.072   1.667
67806W        W33033   9.705  22.088  10.739
67807W        W33034  41.170  15.612   2.221
67808W        W33035  33.184  40.315   2.322
67809W        W33036  26.458   0.944   3.614
67810W        W33037  22.136  24.460  10.960
67811W        W33038   1.151  37.780  13.466
67812W        W33039  32.113  33.910  12.926
67813W        W33040  22.590  21.080  11.439
67814W        W33041  18.182  17.270   4.198
67815W        W33042  40.483  39.848   2.840
67816W        W33043   5.864   3.200   1.749
67817W        W33044  33.523  18.710  14.345
67818W        W33045  19.232  39.965   0.216
67819W        W33046   3.423   0.888   3.906
67820W        W33047  25.491  30.542   1.612
67821W        W33048   0.056  39.922   1.171
67822W        W33049  22.623   5.893  12.084
67823W        W33050  13.766  11.755  14.754
67824W        W33051   8.300  32.122   0.674
67825W        W33052  19.847  33.591  13.968
67826W        W33053  11.545   1.714  10.850
67827W        W33054  16.273  26.721   3.872
67828W        W33055  34.476  35.989  14.357
67829W        W33056  21.011   7.560  12.463
67830W        W33057   6.318  26.181   4.601
67831W        W33058  14.949  12.420  12.201
67832W        W33059   7.187  35.327  12.132
67833W        W33060   3.928  40.366   2.684
67834W        W33061  42.050  38.855   1.828
67835W        W33062  38.166  12.237   1.477
67836W        W33063  15.634   1.017   3.222
67837W        W33064  19.027  31.067  13.071
67838W        W33065  36.657  11.079   0.327
67839W        W33066  30.201  21.113   4.496
67840W        W33067   4.740  27.945  12.855
67841W        W33068  22.480  12.252   4.308
67842W        W33069  19.283  39.420  13.085
67843W        W33070  15.932  21.302   3.518
67844W        W33071  13.156  12.818   3.343
67845W        W33072  31.148  22.244   3.583
67846W        W33073  12.678  36.058  10.595
67847W        W33074  31.431  35.834  13.575
67848W        W33075  39.981  11.071   1.839
67849W        W33076  39.238   3.311  12.850
67850W        W33077   0.609  19.529  12.928
67851W        W33078   7.413   7.950  12.515
67852W        W33079  13.739   2.947  13.640
67853W        W33080  40.901  33.927   2.317
67854W        W33081   8.919  29.693   4.078
67855W        W33082  31.223  13.059  10.821
67856W        W33083  44.964  11.348   2.796
67857W        W33084   1.006  26.017  13.244
67858W        W33085   7.101  29.934   3.766
67859W        W33086  14.108  17.648   2.382
67860W        W33087  10.156  30.942   2.393
67861W        W33088  29.091  27.573  14.348
67862W        W33089  10.383  35.074  13.914
67863W        W33090  19.451  23.623   4.081
67864W        W33091   4.504  42.205   4.041
67865W        W33092  13.128   9.738   3.711
67866W        W33093  34.097  16.563  13.047
67867W        W33094  38.544  23.677   4.217
67868W        W33095  30.628  22.836   2.748
67869W        W33096   2.578  40.804   1.196
67870W        W33097  41.389  29.009   4.545
67871W        W33098   8.459  22.886   0.036
67872W        W33099   4.454  26.726   2.175
67873W        W33100  29.171  42.954   2.324
67874W        W33101  16.270  18.126  10.688
67875W        W33102  22.483  26.092   3.164
67876W        W33103   2.357   1.792   3.705
67877W        W33104   0.677  17.590   1.738
67878W        W33105  16.337   3.452  12.173
67879W        W33106  12.783  24.468   2.350
67880W        W33107  38.728  32.916  11.448
67881W        W33108  10.728   3.393   3.235
67882W        W33109  28.430   6.298  13.620
67883W        W33110   8.640  23.248   4.590
67884W        W33111   9.398  27.948   1.824
67885W        W33112  34.881  14.244  13.529
67886W        W33113  30.419  13.313  12.222
67887W        W33114  39.756   6.769  14.800
67888W        W33115  22.039   4.014  13.354
67889W        W33116   5.885  10.276   4.140
67890W        W33117  15.647  44.767   2.827
67891W        W33118  14.171   5.163  13.552
67892W        W33119  44.681  36.575  14.356
67893W        W33120  37.548  37.872  13.536
67894W        W33121  22.155  44.808   1.509
67895W        W33122   1.876  18.260  12.084
67896W        W33123  38.471   6.951  14.789
67897W        W33124   2.906  17.195   2.787
67898W        W33125  43.236  42.034   0.396
67899W        W33126   4.135  44.832   3.688
67900W        W33127   1.777   0.989   2.626
67901W        W33128  15.360  32.523   1.369
67902W        W33129  22.946   2.066   0.821
67903W        W33130   9.395  25.247   2.271
67904W        W33131  16.362  33.534  10.851
67905W        W33132  26.190   3.372  11.985
67906W        W33133  18.634   8.474   0.757
67907W        W33134  32.526   7.316   3.585
67908W        W33135  34.440  21.216   4.589
67909W        W33136   5.422  24.926  11.115
67910W        W33137  24.940  42.221   9.479
67911W        W33138  37.597   2.760  14.034
67912W        W33139  19.454  11.816  14.227
67913W        W33140   6.233   3.841  14.120
67914W        W33141  17.659  16.048   1.711
67915W        W33142   6.167  13.035   2.912
67916W        W33143  12.794  38.596   0.728
67917W        W33144  30.201   6.707   3.057
67918W        W33145   8.232   2.724   3.307
67919W        W33146  39.366  16.541  11.283
67920W        W33147  31.999  19.260  13.086
67921W        W33148  20.080  16.480  14.344
67922W        W33149  10.638  14.530  10.271
67923W        W33150  23.170  32.438  10.885
67924W        W33151  34.160  21.269   4.161
67925W        W33152  22.271  34.958  11.880
67926W        W33153   8.903   6.235  14.926
67927W        W33154  37.120  18.294  14.254
67928W        W33155  16.531  31.636   2.916
67929W        W33156  17.269  36.669   1.762
67930W        W33157  21.520   3.268   0.290
67931W        W33158  44.310  26.432  12.083
67932W        W33159  38.353   4.206   1.289
67933W        W33160  31.513  39.761  10.685
67934W        W33161  38.418  35.470   1.322
67935W        W33162  16.837  41.790  12.012
67936W        W33163  22.691  27.488  13.849
67937W        W33164  37.616  23.452   1.612
67938W        W33165  36.996   9.193   1.314
67939W        W33166  18.046   3.344   4.088
67940W        W33167  42.367  25.479  11.116
67941W        W33168  29.913  38.510  11.181
67942W        W33169  39.358  33.584   4.204
67943W        W33170   6.257   3.328  10.182
67944W        W33171  10.084  18.821   4.923
67945W        W33172  40.496   1.705  12.992
67946W        W33173  26.665  25.461  12.448
67947W        W33174  18.560  17.565  11.076
67948W        W33175  22.032  18.627  14.481
67949W        W33176   0.860   4.471   0.393
67950W        W33177  27.549  25.857   0.914
67951W        W33178   5.740   2.249   4.588
67952W        W33179   2.487  24.031   1.347
67953W        W33180  17.131  32.849   0.228
67954W        W33181  23.718   1.696   2.975
67955W        W33182   7.965  24.976   2.054
67956W        W33183  11.230  35.547  13.547
67957W        W33184  16.821  38.946  13.069
67958W        W33185  10.157  28.336   4.193
67959W        W33186   8.365   0.169  11.678
67960W        W33187  14.084  29.940   1.996
67961W        W33188   3.753  17.546  14.910
67962W        W33189  35.475  39.509  10.459
67963W        W33190  43.321   9.400   4.976
67964W        W33191   4.279  38.624   2.359
67965W        W33192  18.040  14.863  11.073
67966W        W33193  11.393   1.316  11.158
67967W        W33194  19.817   8.790  14.236
67968W        W33195  28.009  34.594   1.247
67969W        W33196  15.861  17.694  11.254
67970W        W33197  20.123  18.788   3.171
67971W        W33198   5.504  31.083  13.971
67972W        W33199   9.808  22.520   0.126
67973W        W33200   7.530  39.546  11.098
67974W        W33201  13.501  24.723  10.451
67975W        W33202  42.574  44.927   0.754
67976W        W33203   9.204  11.224  10.810
67977W        W33204  13.768  40.564  11.594
67978W        W33205  43.984  17.016   3.155
67979W        W33206   1.173  14.072  11.659
67980W        W33207  28.242  34.427  10.664
67981W        W33208  28.842  27.129   2.236
67982W        W33209  35.633  31.010   4.508
67983W        W33210  14.535  33.190   5.401
67984W        W33211  16.043  22.974  14.639
67985W        W33212   1.508  23.771  11.472
67986W        W33213  24.197   4.042   3.015
67987W        W33214  34.089  12.602  10.736
67988W        W33215   5.943   1.566  13.142
67989W        W33216  35.884  43.038   3.756
67990W        W33217  34.778  17.794   3.138
67991W        W33218  22.504  23.711   4.122
67992W        W33219  27.521  15.081  14.792
67993W        W33220  44.764   0.985  12.987
67994W        W33221  42.817  40.943  13.571
67995W        W33222   6.673  16.095   0.018
67996W        W33223  29.822  32.107   0.214
67997W        W33224  19.993   1.499   3.360
67998W        W33225  24.993  13.330   4.050
67999W        W33226  13.314  17.015  13.490
68000W        W33227  36.315  24.464   2.869
68001W        W33228  29.918  38.628   2.208
68002W        W33229  43.687  16.104  13.471
68003W        W33230  25.278  38.233  11.158
68004W        W33231  25.077  32.537  10.761
68005W        W33232   9.926  36.161   3.669
68006W        W33233   9.413  43.959   2.139
68007W        W33234  31.853  41.508  10.603
68008W        W33235   5.935  15.101  12.881
68009W        W33236  10.902  44.435   0.066
68010W        W33237  33.404  38.435  14.264
68011W        W33238  29.193  19.856  11.977
68012W        W33239  44.060  33.029   1.915
68013W        W33240  28.630  24.172   3.396
68014W        W33241   4.281   8.417  12.803
68015W        W33242  14.777  23.915   0.425
68016W        W33243  28.691  38.981  12.769
68017W        W33244  44.400  29.266  14.914
68018W        W33245  11.263  39.512  13.003
68019W        W33246   9.938  40.461   3.084
68020W        W33247  15.763   5.195   4.026
68021W        W33248  16.525  36.064  11.586
68022W        W33249   2.193  31.480  13.055
68023W        W33250  19.213  31.792  14.876
68024W        W33251  41.122  17.663   1.163
68025W        W33252   3.303   7.605  10.650
68026W        W33253  10.976  38.546  13.518
68027W        W33254  32.084  38.936  13.070
68028W        W33255  24.817  33.984   4.960
68029W        W33256  38.135  20.004  12.391
68030W        W33257   7.771  13.199  12.199
68031W        W33258  21.154  38.809  10.932
68032W        W33259   6.901   9.079   1.058
68033W        W33260  21.757   5.007   3.793
68034W        W33261  30.114   5.857   4.506
68035W        W33262   4.227  14.536   0.943
68036W        W33263  37.681  25.638   3.128
68037W        W33264  39.052  44.494  12.030
68038W        W33265  28.413  37.541  14.311
68039W        W33266  17.966  25.028  13.348
68040W        W33267  17.157  21.896  10.819
68041W        W33268  10.561  18.372  13.741
68042W        W33269   4.040  40.859  14.433
68043W        W33270  10.049  24.385  11.067
68044W        W33271   2.847  41.271  12.387
68045W        W33272  20.229  36.576   1.263
68046W        W33273  10.559   0.143   1.240
68047W        W33274   9.594  35.791  12.000
68048W        W33275   1.360  34.078  11.967
68049W        W33276  27.962  11.827   2.639
68050W        W33277  19.051  42.669  11.488
68051W        W33278   2.669  32.444   3.027
68052W        W33279  43.447  22.116  11.960
68053W        W33280  14.216   5.019  13.043
68054W        W33281  38.399  30.695  11.185
68055W        W33282   7.313  35.197  14.240
68056W        W33283  43.107   2.743   3.698
68057W        W33284  27.983  43.450  10.796
68058W        W33285  24.528  32.113   2.253
68059W        W33286   6.976  25.434  14.807
68060W        W33287   8.802  34.062  13.905
68061W        W33288  12.969  35.483  11.507
68062W        W33289  33.116  14.312   3.375
68063W        W33290   6.913   0.324  14.221
68064W        W33291  43.976  39.025  14.357
68065W        W33292  30.854  13.212   0.676
68066W        W33293   2.033  18.513  13.734
68067W        W33294   3.007  16.172  13.663
68068W        W33295  33.583   2.049  13.318
68069W        W33296   0.944  33.083   0.857
68070W        W33297  18.045   7.123   0.319
68071W        W33298  44.856   2.316  12.092
68072W        W33299  19.225   1.939   2.729
68073W        W33300  42.926  21.290  11.903
68074W        W33301  40.391  21.018  11.171
68075W        W33302  40.756   4.813  14.512
68076W        W33303  21.023  40.899   2.713
68077W        W33304  25.558  10.167  12.100
68078W        W33305   6.815  22.128  12.019
68079W        W33306  16.813  38.965   0.923
68080W        W33307   3.320  39.490  10.598
68081W        W33308  20.023  24.766   1.301
68082W        W33309   0.170  10.249   3.371
68083W        W33310  14.135  13.967  13.439
68084W        W33311   7.325   6.933   0.709
68085W        W33312  19.536  44.860  11.125
68086W        W33313  16.204  42.997  14.994
68087W        W33314  21.525  18.127   2.599
68088W        W33315   4.218  14.489  12.948
68089W        W33316   3.240  44.913   2.798
68090W        W33317   8.112  27.098  14.396
68091W        W33318  31.343  34.874   4.309
68092W        W33319  10.789   0.944   2.171
68093W        W33320  28.377  42.417   3.505
68094W        W33321  13.868  43.894  12.885
68095W        W33322  11.005  10.225   2.760
68096W        W33323  29.914   3.441  11.959
68097W        W33324  19.819  13.034   2.879
68098W        W33325  18.218  39.590  11.134
68099W        W33326   3.426   1.341   2.601
68100W        W33327   6.165  39.875   2.824
68101W        W33328  42.255  34.637  13.537
68102W        W33329  15.689  22.348   4.940
68103W        W33330  39.028   7.714  12.084
68104W        W33331  37.355  31.560   1.704
68105W        W33332  25.756  31.560  12.532
68106W        W33333  41.241   4.887  12.032
68107W        W33334  22.011  15.014   4.989
68108W        W33335  16.547  19.465   4.953
68109W        W33336  16.667  10.293  11.292
68110W        W33337  31.970  14.877  14.332
68111W        W33338  35.809  15.711  14.932
68112W        W33339  27.832  26.001   1.319
68113W        W33340  31.067  16.066  12.415
68114W        W33341  32.000  20.550   2.717
68115W        W33342   2.856  14.562   0.728
68116W        W33343   7.178  21.774   2.327
68117W        W33344   8.983  13.275   2.382
68118W        W33345  42.341  44.080   2.401
68119W        W33346  15.702  28.697  12.936
68120W        W33347  28.970  14.085  13.113
68121W        W33348  36.529  19.794   1.386
68122W        W33349  11.676   5.168  13.480
68123W        W33350  12.878   0.331  12.043
68124W        W33351  23.997  43.632  12.801
68125W        W33352  33.490  38.929   2.285
68126W        W33353  12.257  17.793  13.912
68127W        W33354   9.729  13.687   0.901
68128W        W33355   3.283  11.020   1.210
68129W        W33356  21.155  18.606  14.724
68130W        W33357  22.153   2.028  14.814
68131W        W33358  31.658  24.682   4.395
68132W        W33359  32.181  23.087  12.875
68133W        W33360  22.622   5.906  14.222
68134W        W33361  24.597  18.598   2.805
68135W        W33362  33.411  24.677  14.488
68136W        W33363  44.492   5.430   1.602
68137W        W33364  36.427  17.062   1.911
68138W        W33365  40.394  25.654  10.864
68139W        W33366   0.249  29.012   3.140
68140W        W33367  36.818  44.344   4.356
68141W        W33368  40.914  32.023  13.770
68142W        W33369  19.500   5.772  13.005
68143W        W33370  35.103  43.738   4.643
68144W        W33371  22.527  24.190  11.139
68145W        W33372   6.189  19.750   2.742
68146W        W33373  23.774  18.149   0.439
68147W        W33374  20.376  10.914   0.343
68148W        W33375  37.589   1.429  14.420
68149W        W33376  27.636   2.264  10.528
68150W        W33377  15.582  28.061   4.168
68151W        W33378  15.978  14.251   4.611
68152W        W33379   5.660  39.135  11.676
68153W        W33380   3.186  44.886  14.387
68154W        W33381   2.982   6.365  14.079
68155W        W33382  30.817   8.350   3.280
68156W        W33383   6.836  30.195  12.120
68157W        W33384  22.636   6.519   5.162
68158W        W33385  22.947  34.843   0.544
68159W        W33386  25.603   6.506   3.735
68160W        W33387  15.077  43.832  11.506
68161W        W33388  39.735   8.395  13.533
68162W        W33389  37.958   2.865  14.922
68163W        W33390   3.864  35.530  12.866
68164W        W33391  16.060   7.503  10.302
68165W        W33392  26.478  37.553  13.103
68166W        W33393   3.294  38.433  12.152
68167W        W33394  28.492   4.367   3.378
68168W        W33395  27.459   8.934  13.595
68169W        W33396  23.650   0.669   2.689
68170W        W33397  23.925   3.111   2.343
68171W        W33398  25.509  19.102  12.412
68172W        W33399   4.283  44.762  12.971
68173W        W33400  14.688  43.739  13.109
68174W        W33401   3.336  42.963   1.400
68175W        W33402  41.521   1.470   0.755
68176W        W33403  35.831  37.617   0.998
68177W        W33404  18.025  42.807   0.753
68178W        W33405   2.958  37.889   3.159
68179W        W33406   1.732  13.664  13.841
68180W        W33407   5.694  25.914   0.305
68181W        W33408  35.175   0.220   0.470
68182W        W33409   1.291  44.330   3.908
68183W        W33410  26.301  28.088   4.114
68184W        W33411  36.661   1.524  13.343
68185W        W33412  29.673  38.039   3.519
68186W        W33413  20.698  11.902  11.991
68187W        W33414  38.989  43.505  13.637
68188W        W33415   8.828  19.031   0.795
68189W        W33416  33.285   3.409  11.677
68190W        W33417   9.157  19.250   1.192
68191W        W33418  29.674  15.345  11.595
68192W        W33419   6.165  24.507  14.278
68193W        W33420   0.429  30.223   3.828
68194W        W33421  13.517   4.291  10.693
68195W        W33422   3.923  27.743  14.905
68196W        W33423  17.861  17.613   2.300
68197W        W33424  24.112  19.803  13.363
68198W        W33425  42.866  19.709  12.049
68199W        W33426  40.075  43.353   0.428
68200W        W33427  36.490  27.469   2.007
68201W        W33428  44.814  14.253   2.251
68202W        W33429  43.977  35.503   1.750
68203W        W33430  34.128  23.402   2.579
68204W        W33431  15.213  13.681   4.801
68205W        W33432  37.346  24.464   3.575
68206W        W33433  36.426  32.869   4.721
68207W        W33434   7.390  38.556  11.431
68208W        W33435  21.053  29.676   2.547
68209W        W33436  38.531  20.804  13.575
68210W        W33437  43.820  32.879   2.717
68211W        W33438  25.627  43.786  11.916
68212W        W33439  34.904   4.904  12.468
68213W        W33440  44.933  23.759  14.364
68214W        W33441  41.457  29.578   4.708
68215W        W33442  19.254  17.752   2.725
68216W        W33443  18.988  17.752   1.835
68217W        W33444  28.175   1.166   3.640
68218W        W33445  35.047  23.631   4.232
68219W        W33446  42.331  41.838  13.339
68220W        W33447  44.469  26.503  11.243
68221W        W33448  40.012  41.514   2.870
68222W        W33449  28.933  33.072   0.289
68223W        W33450  21.260  21.639   3.927
68224W        W33451  37.505  36.110   4.907
68225W        W33452  41.423   5.374  13.312
68226W        W33453  13.726  11.351  13.581
68227W        W33454  37.463   4.221   3.592
68228W        W33455  24.472  18.210  13.416
68229W        W33456  22.574   3.986   1.500
68230W        W33457  17.751  19.343  13.712
68231W        W33458  43.333  44.626  10.530
68232W        W33459  19.510   7.887   2.600
68233W        W33460  10.733   4.926  13.347
68234W        W33461  40.560   0.229   0.792
68235W        W33462  43.832  37.123   0.396
68236W        W33463   9.390   8.221   0.775
68237W        W33464  16.268  14.061  11.924
68238W        W33465  36.437  30.237  12.454
68239W        W33466  27.951  35.268   4.764
68240W        W33467  19.080  39.473   1.674
68241W        W33468  23.977  13.302   2.311
68242W        W33469  32.147  33.472   2.189
68243W        W33470   9.268  18.134   3.873
68244W        W33471  38.089  20.054  14.636
68245W        W33472  29.625  10.521  10.760
68246W        W33473  26.763  36.434  12.031
68247W        W33474  28.969  11.142   1.323
68248W        W33475  20.570  34.881   0.909
68249W        W33476  43.999  28.687   0.368
68250W        W33477   6.558  38.604  11.129
68251W        W33478  40.484  42.081   4.187
68252W        W33479  32.550  18.168   2.643
68253W        W33480   8.338  40.452   2.379
68254W        W33481  11.233   7.076   1.683
68255W        W33482  16.626  29.376  12.498
68256W        W33483  37.355  11.349  11.627
68257W        W33484   7.236  15.633   0.477
68258W        W33485  22.753   8.211   1.737
68259W        W33486  14.352  32.630   3.146
68260W        W33487  12.771  25.732  12.462
68261W        W33488  11.193  44.815   4.048
68262W        W33489   7.401  29.957   1.809
68263W        W33490   0.985  30.921   0.316
68264W        W33491  43.202  20.235   2.359
68265W        W33492  34.821  13.135   1.763
68266W        W33493  39.323   7.727   9.891
68267W        W33494  40.565  38.878   4.367
68268W        W33495  36.649  32.596   0.320
68269W        W33496   1.014  24.668   4.924
68270W        W33497  42.889  43.433  13.905
68271W        W33498  35.436  32.436   2.681
68272W        W33499  35.258  34.887   1.401
68273W        W33500  13.682  33.819  13.407
68274W        W33501  40.440  24.821  11.188
68275W        W33502  30.659   1.895  13.341
68276W        W33503  20.560   1.503   4.836
68277W        W33504  31.645  12.256  11.030
68278W        W33505   6.662   5.212  11.947
68279W        W33506  20.956  29.030   3.256
68280W        W33507  36.585   7.612   0.386
68281W        W33508  20.603  15.648   4.522
68282W        W33509  37.075  24.704  11.649
68283W        W33510  10.124  33.115   2.774
68284W        W33511  28.411  19.696   3.395
68285W        W33512  43.987   3.529   4.593
68286W        W33513  11.607  32.675   0.860
68287W        W33514  43.409  11.487   4.100
68288W        W33515  30.634  33.804   2.294
68289W        W33516  22.591  42.523   0.531
68290W        W33517  17.369  33.322  12.546
68291W        W33518   4.836  25.673   0.802
68292W        W33519  16.768  26.551  13.966
68293W        W33520  27.640  42.777  13.370
68294W        W33521  19.499  34.041   3.013
68295W        W33522  12.873  38.739   2.129
68296W        W33523  11.970  35.859  12.087
68297W        W33524  34.473  44.443  14.396
68298W        W33525   6.650  29.719   2.614
68299W        W33526   6.107  12.407  12.318
68300W        W33527  27.258  35.972   3.835
68301W        W33528  30.362   2.354  13.322
68302W        W33529  13.314  41.851   3.656
68303W        W33530  10.970  39.439   0.636
68304W        W33531  33.547   8.262  14.033
68305W        W33532   4.552  43.799  13.983
68306W        W33533  30.089   6.702  12.988
68307W        W33534  12.097  42.979   2.930
68308W        W33535  21.004  28.435   4.036
68309W        W33536   2.751  41.565   4.066
68310W        W33537  18.607  42.470  14.905
68311W        W33538  20.632  28.865  10.641
68312W        W33539  10.364  25.910   4.166
68313W        W33540  28.159  40.653  13.381
68314W        W33541   7.027   6.576  13.469
68315W        W33542  11.945  11.781   0.795
68316W        W33543   6.995   8.806   4.226
68317W        W33544  21.571  29.655  12.961
68318W        W33545  19.764  26.326   2.148
68319W        W33546  44.177  17.695   9.847
68320W        W33547   2.660  41.792  14.847
68321W        W33548  17.078  24.897   3.229
68322W        W33549   8.730  18.090   1.776
68323W        W33550  21.313   1.892  14.382
68324W        W33551   9.239  30.211   1.463
68325W        W33552  31.383  26.663   2.248
68326W        W33553  19.511  32.255  12.043
68327W        W33554   6.786  12.303  13.017
68328W        W33555  30.185   6.213  14.195
68329W        W33556  16.430  32.094  11.549
68330W        W33557  15.645  18.658   3.908
68331W        W33558  31.330  31.152   2.629
68332W        W33559  11.805  11.123  12.558
68333W        W33560  26.067   2.349  12.109
68334W        W33561  12.439   6.885  11.667
68335W        W33562  32.006  41.948  13.910
68336W        W33563  37.931   7.338   0.047
68337W        W33564   8.170  36.311  12.011
68338W        W33565   5.234  20.066  14.892
68339W        W33566  23.850   9.905  11.575
68340W        W33567  17.337   3.176   4.574
68341W        W33568  24.404   6.778  14.944
68342W        W33569  23.690  22.216  10.375
68343W        W33570  10.128  10.301  14.034
68344W        W33571   2.233  18.756  10.284
68345W        W33572  39.224  30.504   4.918
68346W        W33573  35.122  14.053  13.015
68347W        W33574   3.935  12.847  14.831
68348W        W33575  20.397   0.124   9.870
68349W        W33576  16.103  41.871  12.613
68350W        W33577  35.409  36.631  10.625
68351W        W33578  20.504  31.150   4.370
68352W        W33579  12.487  36.613  12.578
68353W        W33580  11.845  43.760  11.017
68354W        W33581   5.046  33.426   3.148
68355W        W33582  43.974   5.282  11.647
68356W        W33583  13.448  18.541  13.146
68357W        W33584  17.077  10.184  12.502
68358W        W33585  25.155  39.885   1.810
68359W        W33586  15.159   8.287  13.589
68360W        W33587  36.625  33.213   0.909
68361W        W33588  37.591  38.538   0.835
68362W        W33589  43.857  20.185   1.666
68363W        W33590  29.407  39.079  11.723
68364W        W33591  20.729  15.764   2.242
68365W        W33592  37.466  21.207  12.598
68366W        W33593  19.282   0.954  11.906
68367W        W33594   6.868  32.639   2.300
68368W        W33595  10.023  31.349  11.886
68369W        W33596  13.919  43.079  13.441
68370W        W33597   6.387  19.807  14.299
68371W        W33598  43.591  14.680   1.192
68372W        W33599  33.792  38.464   3.361
68373W        W33600  11.525   1.097   2.851
68374W        W33601  21.864  10.284   1.243
68375W        W33602  26.015  21.075   1.264
68376W        W33603   1.572  20.777   2.231
68377W        W33604  38.410  29.201   2.249
68378W        W33605  20.620  31.884   2.382
68379W        W33606  44.308  39.877   4.750
68380W        W33607   8.631   3.641  13.146
68381W        W33608   4.720  38.912  10.657
68382W        W33609  21.770  33.265   1.916
68383W        W33610   2.312  28.428   2.891
68384W        W33611   7.240  21.589  12.655
68385W        W33612  24.423  34.081  14.472
68386W        W33613   1.738  28.389  14.984
68387W        W33614   5.335  18.176  12.973
68388W        W33615  19.795  15.632   2.365
68389W        W33616  29.147  36.383   1.410
68390W        W33617  41.422  29.033  12.973
68391W        W33618  34.543  30.980   2.717
68392W        W33619  30.249  29.025  12.481
68393W        W33620  28.427   5.955  12.998
68394W        W33621   3.625  41.041  13.394
68395W        W33622  17.098  33.745   2.683
68396W        W33623  44.525  42.023  11.408
68397W        W33624   0.872  24.213   0.943
68398W        W33625  14.792  16.556  11.570
68399W        W33626  28.716  13.158  12.572
68400W        W33627  25.136  19.251   2.323
68401W        W33628  10.735  19.665  13.565
68402W        W33629  32.619  23.259   2.693
68403W        W33630  15.381  32.165  11.450
68404W        W33631  39.758   8.606  12.049
68405W        W33632  39.081  25.608  12.173
68406W        W33633  19.372  38.397  13.498
68407W        W33634   4.926   2.605  13.796
68408W        W33635  17.520   2.510  13.776
68409W        W33636   6.384   7.869   3.816
68410W        W33637  28.924  22.163   1.317
68411W        W33638  26.578  17.266  12.976
68412W        W33639   2.485  12.328   4.531
68413W        W33640   8.243  15.818  10.988
68414W        W33641   3.608  20.485   4.770
68415W        W33642  39.880  42.215  12.675
68416W        W33643  17.796  33.668   2.691
68417W        W33644  30.815  30.623   1.398
68418W        W33645  36.088  12.859  13.130
68419W        W33646  22.981  29.059   3.921
68420W        W33647   5.603   8.988  13.410
68421W        W33648   4.594   5.638   0.483
68422W        W33649   8.365  11.122   3.750
68423W        W33650  14.861   7.399   2.843
68424W        W33651  23.682   8.608   1.868
68425W        W33652  37.985  23.600  11.884
68426W        W33653  44.771  10.355  12.010
68427W        W33654  39.940   3.116  10.624
68428W        W33655  20.579  20.964  14.334
68429W        W33656  39.623  17.213   0.437
68430W        W33657   1.006  29.306  13.250
68431W        W33658   5.300   7.889   0.403
68432W        W33659  40.399  33.375  14.336
68433W        W33660   8.716   8.183  14.052
68434W        W33661  14.241   4.879  14.787
68435W        W33662  34.386  15.110   2.030
68436W        W33663   5.795   5.343   3.308
68437W        W33664  16.358  32.610  14.421
68438W        W33665  26.583  35.965  14.470
68439W        W33666   7.820  19.598   4.663
68440W        W33667  23.223   8.479  11.180
68441W        W33668   1.596  23.034  13.882
68442W        W33669  35.604   1.039   2.877
68443W        W33670  28.171  22.766   3.520
68444W        W33671  15.336   1.955   0.460
68445W        W33672  17.214  13.799   3.171
68446W        W33673  13.369   2.394   2.802
68447W        W33674  12.843  41.455  14.911
68448W        W33675  21.048   3.923   1.012
68449W        W33676   0.227  13.239   0.929
68450W        W33677   8.334  34.597  11.332
68451W        W33678   2.209  15.402   1.701
68452W        W33679  32.885  17.116   0.493
68453W        W33680  27.470  41.020   4.932
68454W        W33681  44.316   9.175   2.846
68455W        W33682  22.148  24.786  12.659
68456W        W33683   2.944  21.676  10.890
68457W        W33684  33.531   7.242  14.402
68458W        W33685  37.435  25.754   0.477
68459W        W33686  27.179  14.644   3.255
68460W        W33687  36.649  23.447   3.048
68461W        W33688  37.314  14.701   3.677
68462W        W33689  37.855  36.294   0.860
68463W        W33690  35.495  16.255  13.345
68464W        W33691  12.904   9.717   0.295
68465W        W33692   5.554  41.300   2.804
68466W        W33693   5.464  23.082  10.845
68467W        W33694  11.636  29.185  12.087
68468W        W33695  14.172   8.425  12.466
68469W        W33696   9.913  11.170  11.160
68470W        W33697   0.536  22.682  11.520
68471W        W33698  35.556   0.419  14.100
68472W        W33699  21.713   0.998  14.351
68473W        W33700  39.571   3.595  13.867
68474W        W33701  20.240  40.780   2.434
68475W        W33702   8.869  38.725   0.477
68476W        W33703  16.168  12.277   2.196
68477W        W33704   7.904  17.545   4.136
68478W        W33705  35.010  33.706   3.378
68479W        W33706   8.790  40.741  12.476
68480W        W33707  44.155  39.221  13.460
68481W        W33708  19.495   9.907  14.440
68482W        W33709  26.751  34.434   2.640
68483W        W33710  24.806   2.258   1.281
68484W        W33711  31.272  28.516   3.230
68485W        W33712  25.261  32.595   0.828
68486W        W33713   5.020  17.563   2.253
68487W        W33714  35.785  16.163   3.104
68488W        W33715  11.821  14.058   3.653
68489W        W33716  32.864  27.499  13.602
68490W        W33717  15.002  33.934  11.704
68491W        W33718  19.066  20.105  14.675
68492W        W33719  34.153  26.799   0.345
68493W        W33720  35.960  36.639  11.857
68494W        W33721  11.575  11.310   2.398
68495W        W33722   4.200  38.030  12.028
68496W        W33723  13.218  14.400  11.635
68497W        W33724  25.628  39.445  11.701
68498W        W33725  19.299  36.865   2.680
68499W        W33726  17.717  36.802  14.279
68500W        W33727  40.267  19.571  12.000
68501W        W33728   1.289  26.380   2.287
68502W        W33729  22.161   4.876  11.663
68503W        W33730  36.619  15.334   2.294
68504W        W33731  11.719  14.215  12.403
68505W        W33732  10.281  30.871   3.274
68506W        W33733  32.555  26.481   2.784
68507W        W33734  43.450   7.810   4.692
68508W        W33735  39.905  32.926   1.234
68509W        W33736   3.862  14.095   4.781
68510W        W33737  37.927  33.614   4.178
68511W        W33738  20.665  43.909  12.342
68512W        W33739   8.631  32.961   1.228
68513W        W33740  10.791   6.160  14.832
68514W        W33741  19.209  38.926  12.194
68515W        W33742  35.568  30.701  11.645
68516W        W33743  27.764  32.863  11.626
68517W        W33744  42.400  13.129   3.183
68518W        W33745   1.694  18.239  14.980
68519W        W33746   8.290  19.705   2.304
68520W        W33747  16.808  18.260   4.194
68521W        W33748  33.120  27.896  13.361
68522W        W33749  26.264  40.022  11.653
68523W        W33750  12.772   4.426   4.211
68524W        W33751  20.566  36.921   2.615
68525W        W33752  22.092  28.968  12.562
68526W        W33753   2.398  42.465   9.609
68527W        W33754  33.979  40.357  14.840
68528W        W33755   1.053   8.258   3.382
68529W        W33756  32.368  38.338  12.093
68530W        W33757  31.435  37.327   3.629
68531W        W33758   1.956  44.371  14.237
68532W        W33759   3.950  16.983  10.987
68533W        W33760  12.229  39.585  12.875
68534W        W33761  37.898  42.001   1.928
68535W        W33762  15.551  20.990   2.786
68536W        W33763  35.462  17.644  13.972
68537W        W33764   9.111  27.099   0.025
68538W        W33765  31.410  31.139  11.748
68539W        W33766   8.455  39.845   1.705
68540W        W33767   2.477  13.324   4.499
68541W        W33768  18.656   3.143   0.339
68542W        W33769  19.275  22.313  13.582
68543W        W33770  20.572  30.483  13.833
68544W        W33771  24.440   1.971  12.418
68545W        W33772  36.349  29.521  11.382
68546W        W33773  40.994  32.572   1.344
68547W        W33774   4.505  24.673  11.087
68548W        W33775  26.959  19.003  11.761
68549W        W33776   6.023  23.012   2.950
68550W        W33777  36.438  32.532   3.054
68551W        W33778  42.548   9.212   4.137
68552W        W33779  16.067  20.473   3.167
68553W        W33780  42.100  24.167  10.306
68554W        W33781  32.160  39.839  14.329
68555W        W33782  21.155  31.556  13.755
68556W        W33783  37.919  23.566  13.339
68557W        W33784  29.445  15.238   4.264
68558W        W33785  40.084   9.744   4.655
68559W        W33786  39.138   4.678   2.542
68560W        W33787   9.156  27.192  10.511
68561W        W33788  38.953  28.584  10.423
68562W        W33789  40.385  13.788  10.719
68563W        W33790  12.255  10.878  14.432
68564W        W33791  37.936  31.669   0.266
68565W        W33792  16.188   2.382   0.479
68566W        W33793  11.711  26.044   2.376
68567W        W33794  40.043  23.624   2.674
68568W        W33795  18.901  15.027   1.194
68569W        W33796  26.552  11.946  11.145
68570W        W33797   3.709  22.030  13.448
68571W        W33798  27.672   8.158   0.894
68572W        W33799   7.649  22.656   3.195
68573W        W33800   7.175  36.133   4.988
68574W        W33801  14.843  22.179  14.087
68575W        W33802   6.400   5.236   2.702
68576W        W33803  14.277  38.271   2.160
68577W        W33804  37.139   3.525  14.022
68578W        W33805  41.564   2.842   1.180
68579W        W33806  39.385  41.044  13.112
68580W        W33807  23.375  41.435  14.728
68581W        W33808  42.826  34.624   3.543
68582W        W33809  28.421  14.268   3.283
68583W        W33810  38.757  41.146   4.951
68584W        W33811  33.909  31.630   1.321
68585W        W33812  18.806  41.755  10.808
68586W        W33813  18.173  16.799   3.308
68587W        W33814  25.978  30.180  12.465
68588W        W33815  24.179  27.498  12.987
68589W        W33816  35.451  40.786   4.591
68590W        W33817  17.483  14.078   3.680
68591W        W33818  37.494  20.327  10.668
68592W        W33819  22.960  26.644  13.547
68593W        W33820   5.151   0.519   2.637
68594W        W33821  33.380  18.621  12.862
68595W        W33822   0.444  27.349   3.170
68596W        W33823  31.521  25.107   3.240
68597W        W33824  29.966  36.956   1.084
68598W        W33825  34.582  34.163   2.518
68599W        W33826   2.313  12.735  12.565
68600W        W33827  13.693  15.704  10.645
68601W        W33828  44.989  44.449   3.793
68602W        W33829  18.342  38.424  10.731
68603W        W33830  16.134  16.400  11.382
68604W        W33831  16.456  30.226  14.371
68605W        W33832  11.648   5.849  12.908
68606W        W33833  37.064  42.833  11.565
68607W        W33834  26.945  42.399   2.040
68608W        W33835  27.966  25.776   4.214
68609W        W33836  44.885  40.837  14.302
68610W        W33837  41.331  19.738  13.433
68611W        W33838  38.941   8.156   0.894
68612W        W33839  22.621   8.092  10.586
68613W        W33840  42.465  17.773  13.261
68614W        W33841  38.005  14.262   4.655
68615W        W33842  37.410  10.880   2.255
68616W        W33843  19.044  34.709  12.007
68617W        W33844   9.218   4.763  13.157
68618W        W33845  22.009  40.153  13.104
68619W        W33846  32.417  12.460  14.760
68620W        W33847  11.417   1.359   0.391
68621W        W33848   5.855  14.723   0.355
68622W        W33849  28.925  27.161  13.466
68623W        W33850  38.066  29.579   3.804
68624W        W33851  44.837  22.164   2.207
68625W        W33852  27.453  17.514   0.367
68626W        W33853   6.869  39.462  12.374
68627W        W33854   9.666  36.712   4.261
68628W        W33855  38.857  18.580   0.382
68629W        W33856  27.429  31.843  10.319
68630W        W33857   2.860  21.082   2.202
68631W        W33858  43.526  11.903  10.244
68632W        W33859  23.599   3.300  14.163
68633W        W33860  41.106  29.871   0.989
68634W        W33861  31.151  41.226   1.107
68635W        W33862   8.168  21.975  14.003
68636W        W33863  43.416  15.890  11.303
68637W        W33864   9.541  29.622  14.460
68638W        W33865  10.992  29.483  10.340
68639W        W33866   6.513   1.533  14.373
68640W        W33867  39.332  10.153   2.597
68641W        W33868  38.402  35.101   3.287
68642W        W33869  23.258  14.632   4.101
68643W        W33870  42.386  43.350  14.892
68644W        W33871  14.832  34.664   0.399
68645W        W33872  22.121  15.024  11.516
68646W        W33873  14.308  25.650   3.153
68647W        W33874  30.497  28.139   2.721
68648W        W33875  31.268  11.826  13.705
68649W        W33876  36.096  15.411   0.305
68650W        W33877  15.371   6.657  11.981
68651W        W33878  33.095  10.316   0.217
68652W        W33879  31.548  29.809  14.256
68653W        W33880  22.549  35.424   4.582
68654W        W33881  16.138  39.504  14.451
68655W        W33882   4.059  11.934   2.902
68656W        W33883  12.020   0.549  10.943
68657W        W33884  20.716  36.799   1.749
68658W        W33885  23.999  33.625  12.945
68659W        W33886  25.729  40.618  14.928
68660W        W33887  30.054  30.533   4.580
68661W        W33888  24.491  27.134  12.850
68662W        W33889  33.989  19.456  14.870
68663W        W33890   0.750  39.046  14.175
68664W        W33891  30.401   0.639   5.022
68665W        W33892   5.342  21.448  13.086
68666W        W33893  32.395  39.807  13.827
68667W        W33894  28.631  44.396   4.650
68668W        W33895   5.615  34.274  11.366
68669W        W33896  13.601  40.039  12.170
68670W        W33897  30.321  14.342   2.167
68671W        W33898   7.435   9.422  12.364
68672W        W33899  21.065  35.468  11.126
68673W        W33900  42.466  26.269  11.264
68674W        W33901   2.861  15.831  14.029
68675W        W33902  36.382  30.215  10.689
68676W        W33903  39.393  11.852   2.967
68677W        W33904   1.194  16.158   1.062
68678W        W33905   1.819  41.216  12.066
68679W        W33906   8.649  41.064  14.137
68680W        W33907  16.093  38.108  14.845
68681W        W33908  40.646  19.152   9.783
68682W        W33909   9.784   8.281  10.662
68683W        W33910  43.760  30.064  13.439
68684W        W33911  26.107  19.093   1.403
68685W        W33912  24.230   5.623   4.427
68686W        W33913  38.627  26.332  10.075
68687W        W33914  20.448  44.086  11.921
68688W        W33915  18.144  25.049  14.531
68689W        W33916  11.987  30.201  13.132
68690W        W33917  38.393  42.839  12.549
68691W        W33918  10.142  26.974  10.719
68692W        W33919  43.187  27.940  12.326
68693W        W33920  39.975  32.611  11.917
68694W        W33921  35.956  22.245   1.716
68695W        W33922  11.572   7.091  11.018
68696W        W33923   8.434   6.913   0.250
68697W        W33924   2.893  31.570  13.633
68698W        W33925   3.375  22.753  10.985
68699W        W33926  39.094  30.432  11.958
68700W        W33927  31.664   2.562  12.891
68701W        W33928  28.699  35.082   1.938
68702W        W33929  20.279  34.573  10.377
68703W        W33930  20.281  32.563   4.016
68704W        W33931  43.439  27.009   4.455
68705W        W33932  15.009  36.639   0.558
68706W        W33933  25.009   5.038   0.471
68707W        W33934  32.210   6.122   2.841
68708W        W33935  32.132  33.049  12.935
68709W        W33936  26.332  21.574  12.831
68710W        W33937   2.872  25.706   0.097
68711W        W33938   6.390  12.859  12.047
68712W        W33939  38.322  13.829   4.057
68713W        W33940   0.586  27.209  13.839
68714W        W33941  42.311  23.559   2.840
68715W        W33942   5.950  25.205   4.753
68716W        W33943  42.991  39.402   2.728
68717W        W33944  37.631   1.246   2.062
68718W        W33945  26.362  41.760   4.178
68719W        W33946  41.489   7.367   1.833
68720W        W33947  44.468  25.667  13.003
68721W        W33948  14.285  27.600   0.529
68722W        W33949  34.224  29.774  13.988
68723W        W33950   7.719  15.520  12.498
68724W        W33951  26.018  38.212   3.199
68725W        W33952  25.128  22.990  12.939
68726W        W33953  35.612   9.114  12.654
68727W        W33954  13.046  17.502  11.650
68728W        W33955  32.886  35.906   1.477
68729W        W33956  42.309  42.285   2.248
68730W        W33957  40.893  36.372   0.105
68731W        W33958  23.953  12.024  14.348
68732W        W33959   2.816   0.121  12.985
68733W        W33960  15.714   2.229   1.223
68734W        W33961  14.614  37.425   0.403
68735W        W33962  26.109  22.633  14.680
68736W        W33963  10.188  38.511   3.275
68737W        W33964  38.567  12.337  12.437
68738W        W33965  34.456   4.829   2.704
68739W        W33966  21.621  33.832  12.427
68740W        W33967   7.837  11.391   1.902
68741W        W33968  18.111  44.518   0.935
68742W        W33969  21.911  20.694   3.539
68743W        W33970  36.335  36.055  11.587
68744W        W33971  33.278  35.456   3.349
68745W        W33972  42.307  31.441   1.858
68746W        W33973  39.473  18.731   3.239
68747W        W33974   3.941  28.266  13.423
68748W        W33975   1.567  23.237  10.205
68749W        W33976  43.982  18.399  14.946
68750W        W33977  17.085  38.923   3.104
68751W        W33978   1.938  15.292   0.362
68752W        W33979  22.653  24.932  11.525
68753W        W33980  35.423  27.863   4.871
68754W        W33981   3.973  23.410  13.106
68755W        W33982  10.199  40.099  12.946
68756W        W33983  33.679   5.336   1.362
68757W        W33984  20.541  27.275   3.495
68758W        W33985   5.292   5.934   2.808
68759W        W33986   6.024  38.924  14.365
68760W        W33987  38.475  38.980   1.474
68761W        W33988  39.085  38.511  10.564
68762W        W33989  12.880   7.167  13.548
68763W        W33990  38.624   6.149   1.114
68764W        W33991  21.124  10.667  14.832
68765W        W33992  43.955  41.030   3.621
68766W        W33993  21.470  25.542  13.827
68767W        W33994  17.693  21.890  12.779
68768W        W33995  43.812  41.871   4.346
68769W        W33996   1.663  44.793  10.652
68770W        W33997  10.845  35.611   1.895
68771W        W33998  32.090  30.453  12.020
68772W        W33999   3.570  26.497  14.083
68773W        W34000  39.866  30.443   0.301
68774W        W34001  30.537  24.826  12.488
68775W        W34002  26.228  12.208  12.704
68776W        W34003  39.588  33.428  14.970
68777W        W34004  27.229   8.864  11.904
68778W        W34005  35.590  30.498   4.700
68779W        W34006  36.106  13.736  12.585
68780W        W34007   0.779  16.835  12.550
68781W        W34008  41.464  37.213  14.075
68782W        W34009  13.048  26.066  12.794
68783W        W34010  31.472  27.018  14.335
68784W        W34011  27.520  40.369   4.568
68785W        W34012   3.852  25.232   3.040
68786W        W34013  18.388  25.801   3.596
68787W        W34014  21.657   7.815   0.760
68788W        W34015  13.025  17.935  14.502
68789W        W34016  29.668  39.000  13.023
68790W        W34017  20.900  24.663   4.458
68791W        W34018   4.318  41.734  11.619
68792W        W34019  25.011  11.136   1.488
68793W        W34020   1.609   9.652   3.618
68794W        W34021  37.918   2.786  11.550
68795W        W34022  44.710  34.554   4.569
68796W        W34023  19.670  39.856  14.988
68797W        W34024   4.215   5.581  13.182
68798W        W34025  44.883  30.042  12.914
68799W        W34026  18.197  28.089   1.873
68800W        W34027  27.058  23.468  14.790
68801W        W34028   5.715  10.280  13.915
68802W        W34029   6.615  22.048   1.909
68803W        W34030  34.471  20.257  13.849
68804W        W34031  11.274  42.846   2.619
68805W        W34032   8.323  26.570  10.598
68806W        W34033  22.540  20.706   1.708
68807W        W34034   1.416  30.072  13.764
68808W        W34035   6.193  40.523   4.212
68809W        W34036  19.987  42.898  11.469
68810W        W34037  15.274  10.868   3.656
68811W        W34038  14.847  39.115  11.379
68812W        W34039   8.633  39.283  12.969
68813W        W34040  37.636  20.706  14.405
68814W        W34041  18.570  15.673  11.091
68815W        W34042  17.456   7.967  13.899
68816W        W34043  28.916  20.285   1.190
68817W        W34044  36.286  36.411   2.867
68818W        W34045  11.920   5.329  13.952
68819W        W34046  12.856  39.447   0.443
68820W        W34047  15.837  27.174  10.294
68821W        W34048  18.297  29.909  15.000
68822W        W34049  38.098   8.728   0.354
68823W        W34050  16.999  18.617  10.803
68824W        W34051  29.890  44.083  13.557
68825W        W34052  27.450  16.839  14.799
68826W        W34053  43.021  24.353  10.820
68827W        W34054   1.857  38.639  10.620
68828W        W34055  24.118  17.777   4.555
68829W        W34056  39.056  36.904   2.373
68830W        W34057  29.016  36.538  13.355
68831W        W34058   1.104  40.716  13.197
68832W        W34059  14.125  43.442   1.297
68833W        W34060  28.276  16.430  10.155
68834W        W34061   9.083  23.134   2.166
68835W        W34062  28.073  40.301   1.261
68836W        W34063   3.623  34.469   2.787
68837W        W34064  32.340  26.126   0.367
68838W        W34065  33.107   3.823  11.412
68839W        W34066  12.423   4.852  12.596
68840W        W34067  12.881  25.548  14.465
68841W        W34068  33.352   1.877   2.670
68842W        W34069  23.287  30.059   0.401
68843W        W34070  12.650  12.005   0.372
68844W        W34071  34.046  36.834   3.100
68845W        W34072   4.311   2.180  11.547
68846W        W34073   5.503  13.197  11.637
68847W        W34074  18.337  30.103   0.477
68848W        W34075  31.440  25.056   0.297
68849W        W34076   1.587   6.773  12.419
68850W        W34077  26.472  16.635  11.445
68851W        W34078  33.710  29.889  13.928
68852W        W34079  21.171  27.542   3.715
68853W        W34080   2.945  33.879   0.336
68854W        W34081   9.534  26.872   4.653
68855W        W34082  33.621   4.745  13.005
68856W        W34083  12.729  15.299   2.413
68857W        W34084  15.661  36.616   0.004
68858W        W34085  11.663   5.381   1.349
68859W        W34086  41.811  12.610   1.347
68860W        W34087   3.032  44.662   3.204
68861W        W34088  18.984  17.585  13.788
68862W        W34089  34.118   9.981  12.799
68863W        W34090  11.844   0.181  12.355
68864W        W34091  39.826  29.762   1.139
68865W        W34092  19.264  23.708  14.039
68866W        W34093  36.296   1.423   2.381
68867W        W34094  18.704  32.504  12.464
68868W        W34095  36.295  17.568   0.823
68869W        W34096  14.140   4.450   4.500
68870W        W34097   2.687  27.996   0.040
68871W        W34098  28.058  23.529   0.183
68872W        W34099  43.978  32.200  14.069
68873W        W34100  22.145  12.620  12.995
68874W        W34101  10.845  43.346   3.657
68875W        W34102  22.698  32.570   4.135
68876W        W34103  31.077  25.256   5.441
68877W        W34104  40.858  34.398  12.077
68878W        W34105   4.702  10.771   3.310
68879W        W34106   5.717  17.294   1.240
68880W        W34107  21.911  17.682  12.390
68881W        W34108  29.644  12.773   1.402
68882W        W34109  15.544  38.350   4.648
68883W        W34110  43.985   4.498  14.043
68884W        W34111   4.325  35.584  13.084
68885W        W34112  32.460   4.237  14.089
68886W        W34113   6.960   0.237   0.663
68887W        W34114  33.427  41.382  13.986
68888W        W34115   3.732  25.978   3.826
68889W        W34116  19.726  17.692   1.403
68890W        W34117  29.958  10.711   2.792
68891W        W34118  13.258   8.276   2.698
68892W        W34119  40.313  37.511  12.827
68893W        W34120  17.123   7.107   1.699
68894W        W34121  16.081   2.737  13.043
68895W        W34122  19.099  31.963  12.073
68896W        W34123  19.599   0.700  12.977
68897W        W34124  29.389  43.322   3.638
68898W        W34125  12.835   2.634   4.639
68899W        W34126  42.873  31.560  13.753
68900W        W34127   5.272   4.282  14.432
68901W        W34128  40.801  23.579   1.427
68902W        W34129  18.266  27.224  11.231
68903W        W34130   7.455   2.911   2.359
68904W        W34131  25.670  24.922  13.171
68905W        W34132   2.441   6.356  10.406
68906W        W34133  36.360  14.693  14.840
68907W        W34134  22.650   2.004  14.592
68908W        W34135  10.654  39.136  12.351
68909W        W34136  29.908  15.996  12.267
68910W        W34137  25.553  26.905  14.810
68911W        W34138  16.706   9.290   4.338
68912W        W34139   6.668   4.195  12.052
68913W        W34140  33.932  44.403  10.712
68914W        W34141  41.341  24.932   2.319
68915W        W34142  16.637  21.360   0.470
68916W        W34143   0.706  12.256   0.969
68917W        W34144  39.447   1.936   1.270
68918W        W34145  36.014  44.496  10.856
68919W        W34146  41.220  25.376   3.161
68920W        W34147  35.052  13.026   1.218
68921W        W34148  40.978  35.496   1.853
68922W        W34149   9.211  12.976  11.894
68923W        W34150   0.489  16.768  14.668
68924W        W34151  41.978  29.439  13.534
68925W        W34152   9.961  18.205  14.879
68926W        W34153  26.131  31.122   0.566
68927W        W34154   2.764  34.856   3.853
68928W        W34155   4.943  21.392  10.904
68929W        W34156  27.573  26.507  11.538
68930W        W34157  39.302  23.077   2.287
68931W        W34158  38.573  38.371   2.283
68932W        W34159   5.361   8.586  12.822
68933W        W34160  18.493  42.610  11.669
68934W        W34161   1.270  24.073   2.665
68935W        W34162  30.545  11.024   5.403
68936W        W34163  11.552  20.233  13.869
68937W        W34164  16.545  43.762  14.945
68938W        W34165  14.098   1.410  14.488
68939W        W34166  43.993  34.631  14.554
68940W        W34167  41.997  39.364  12.933
68941W        W34168   3.984  37.081   2.858
68942W        W34169  15.757   9.268   2.882
68943W        W34170  14.275  34.878   4.119
68944W        W34171  42.900  30.014  12.601
68945W        W34172  17.348  35.124  12.463
68946W        W34173   8.994  41.610  13.178
68947W        W34174   0.778  44.397   3.977
68948W        W34175  38.349  26.737   5.046
68949W        W34176  23.188  18.717   2.290
68950W        W34177  28.829   6.803   1.059
68951W        W34178  21.851   9.783   1.769
68952W        W34179  21.163   3.982   4.486
68953W        W34180   1.626  27.424  12.082
68954W        W34181  41.030  27.267  11.096
68955W        W34182  17.588  26.027   2.630
68956W        W34183  16.431   8.442  11.704
68957W        W34184  11.377   8.634   1.818
68958W        W34185  29.991  26.585  13.262
68959W        W34186  40.202  28.521  12.401
68960W        W34187  21.592  36.158  13.995
68961W        W34188  18.894   3.168   3.880
68962W        W34189   0.080  27.198  13.937
68963W        W34190  25.323  26.607  13.291
68964W        W34191  19.791  41.086   5.170
68965W        W34192   5.826  18.759  13.037
68966W        W34193   3.855  15.728  12.519
68967W        W34194  22.202  35.475  13.116
68968W        W34195  34.475  27.923   3.732
68969W        W34196   4.341  33.849   4.810
68970W        W34197  39.312  40.365   3.049
68971W        W34198  32.472  23.586   3.487
68972W        W34199   8.340   4.169   4.317
68973W        W34200  14.312  32.167  13.452
68974W        W34201  37.886  23.627  12.829
68975W        W34202  21.565  42.263   3.209
68976W        W34203  26.634  19.529   4.197
68977W        W34204  30.243  26.146   1.532
68978W        W34205  11.815  13.611  14.429
68979W        W34206  29.088  19.310  13.546
68980W        W34207  41.816  37.410  14.507
68981W        W34208  18.752   0.796  13.382
68982W        W34209  24.497  20.752   0.737
68983W        W34210  23.372  22.775  13.513
68984W        W34211  36.470   9.406  14.431
68985W        W34212   9.705  14.757   0.788
68986W        W34213  23.598  26.569   2.641
68987W        W34214  26.073  19.966  14.520
68988W        W34215  15.772  43.835   4.655
68989W        W34216   6.979  32.640   3.211
68990W        W34217  41.016   8.694   1.881
68991W        W34218  26.567  43.982   2.931
68992W        W34219  44.617  19.261  13.118
68993W        W34220  41.647  41.734   3.208
68994W        W34221  22.396  22.448  11.112
68995W        W34222  11.212  17.002  14.408
68996W        W34223  29.667  38.652   1.660
68997W        W34224  15.072  34.959   0.786
68998W        W34225  17.425   6.431   3.243
68999W        W34226  10.249  23.104   3.859
69000W        W34227  44.778   1.902   2.878
69001W        W34228  16.344  18.284  11.926
69002W        W34229  39.347  13.882   1.284
69003W        W34230  21.722  24.903  11.589
69004W        W34231  20.083  16.246  13.830
69005W        W34232  24.169  14.222  11.474
69006W        W34233  29.117  24.242  11.533
69007W        W34234  31.863  29.016  11.509
69008W        W34235   1.714  25.956  10.813
69009W        W34236  32.666   3.944   0.245
69010W        W34237  31.474  24.981  12.839
69011W        W34238  29.111   0.359   0.431
69012W        W34239  11.876   1.783   1.962
69013W        W34240  28.371  40.956  13.808
69014W        W34241  34.092  25.052  13.827
69015W        W34242   4.313  44.781  14.084
69016W        W34243   7.746  10.585  10.599
69017W        W34244  32.848   9.241   4.660
69018W        W34245  32.220  10.298  13.883
69019W        W34246  41.113  42.211   4.137
69020W        W34247   4.936  40.519  12.891
69021W        W34248   9.186   1.256   2.181
69022W        W34249   4.882  14.094   2.852
69023W        W34250  28.499  10.035   0.772
69024W        W34251  43.597  29.033   1.279
69025W        W34252  10.660  32.111   1.223
69026W        W34253  37.822  12.615  11.234
69027W        W34254  27.947  34.598  14.925
69028W        W34255   6.832  32.589  10.596
69029W        W34256   6.169   1.221   1.728
69030W        W34257  39.179   7.160   2.796
69031W        W34258  39.241  33.549   1.351
69032W        W34259  44.437   8.773  14.767
69033W        W34260  10.288   6.372   3.093
69034W        W34261  25.942  27.242   0.731
69035W        W34262  36.574  12.624   1.876
69036W        W34263  23.919   0.542   3.573
69037W        W34264   8.695  43.883   2.001
69038W        W34265  21.676  37.164  12.031
69039W        W34266  15.644  10.910  11.557
69040W        W34267  40.438  15.915  12.046
69041W        W34268  24.124   5.257   1.779
69042W        W34269  22.630  22.278  13.257
69043W        W34270  34.829  16.349  14.284
69044W        W34271   9.131  43.373  11.130
69045W        W34272  23.509  20.734   1.491
69046W        W34273   7.464   9.323   0.357
69047W        W34274  22.889  24.672  12.067
69048W        W34275  35.160  32.823  14.886
69049W        W34276  28.549  38.466  12.900
69050W        W34277  21.060   7.656  11.045
69051W        W34278  37.598  16.720   3.568
69052W        W34279  26.102   3.245   3.520
69053W        W34280  44.386   7.640   2.631
69054W        W34281   5.391  33.501  14.868
69055W        W34282  42.716  43.236  14.425
69056W        W34283  12.064  35.988   0.790
69057W        W34284  32.328  23.436  14.486
69058W        W34285  16.489  41.587  12.896
69059W        W34286  39.010  30.184  13.553
69060W        W34287  22.147  42.988  10.404
69061W        W34288  19.001   7.991   1.843
69062W        W34289  16.204   7.270  14.263
69063W        W34290  22.133  35.394  13.968
69064W        W34291  21.312  36.190   3.638
69065W        W34292  43.013  19.233  12.914
69066W        W34293  29.044  38.044  13.546
69067W        W34294  32.486  44.772   2.628
69068W        W34295  27.569  25.327   3.741
69069W        W34296  31.931  35.790   0.788
69070W        W34297  16.158  21.170  13.996
69071W        W34298  29.741  38.525  10.637
69072W        W34299  10.081  27.893   2.890
69073W        W34300  31.903  27.671  12.164
69074W        W34301  37.431  15.361   3.233
69075W        W34302   6.956  39.983   4.132
69076W        W34303  12.584   9.175  13.013
69077W        W34304  39.016   8.853  10.729
69078W        W34305  22.266   1.344  14.071
69079W        W34306  39.078   4.896   3.530
69080W        W34307  10.870  42.779   0.829
69081W        W34308  32.173   9.236  13.418
69082W        W34309  27.961  35.324   1.080
69083W        W34310  17.281  42.642   1.288
69084W        W34311  27.108  27.116  12.836
69085W        W34312   9.873  42.311   4.540
69086W        W34313  37.211  15.281  14.936
69087W        W34314  20.562  36.678  12.114
69088W        W34315  27.446  24.701   4.614
69089W        W34316  41.875  38.631  12.283
69090W        W34317  23.451  36.772  10.486
69091W        W34318  16.623  15.370   3.990
69092W        W34319  16.216  26.737   0.062
69093W        W34320  10.294  11.959  11.983
69094W        W34321  21.228   7.877   3.641
69095W        W34322  24.659  29.806  11.198
69096W        W34323  11.347  22.275   2.043
69097W        W34324  25.207  34.538   2.670
69098W        W34325   5.697  28.021   3.228
69099W        W34326  28.513   8.345  10.576
69100W        W34327  30.934  32.342   3.144
69101W        W34328  20.999  35.132  14.580
69102W        W34329   2.315  13.832  11.984
69103W        W34330  29.451  23.846  11.517
69104W        W34331  15.579  11.103   3.215
69105W        W34332  32.283  40.309   0.467
69106W        W34333   6.653  24.242   4.692
69107W        W34334  23.014   2.178  13.288
69108W        W34335   2.676  10.857   3.731
69109W        W34336  43.766  31.144   2.321
69110W        W34337  32.951  37.128  12.074
69111W        W34338   4.370  21.187  14.274
69112W        W34339  32.961  24.260   1.846
69113W        W34340  24.644  10.655   4.101
69114W        W34341  19.764   7.111  14.075
69115W        W34342  12.921  24.133   0.538
69116W        W34343  28.197  29.620  13.514
69117W        W34344   5.491   2.246  12.538
69118W        W34345  14.958  16.512   2.732
69119W        W34346  34.992   7.110   2.144
69120W        W34347  32.711  18.306   0.701
69121W        W34348  30.882  31.212  11.877
69122W        W34349  11.676  19.288   2.346
69123W        W34350  19.320  21.884  13.875
69124W        W34351  26.563  22.208   0.816
69125W        W34352  20.354  35.724  12.989
69126W        W34353  10.748  22.113   3.395
69127W        W34354  20.358   9.207  11.022
69128W        W34355   6.427  35.954  14.759
69129W        W34356   7.680  39.752   0.782
69130W        W34357  26.492  13.928  14.005
69131W        W34358   3.799  22.610  14.433
69132W        W34359  35.602  42.832   0.335
69133W        W34360   3.888  10.415   3.710
69134W        W34361  23.997  26.641  14.860
69135W        W34362  28.539  26.511  11.511
69136W        W34363  34.146   7.909   1.265
69137W        W34364  44.251  12.625  13.400
69138W        W34365   8.728  20.724   4.074
69139W        W34366  21.696   4.749  14.796
69140W        W34367  43.244  38.536  14.463
69141W        W34368  38.063  18.867  11.105
69142W        W34369  36.736  30.650  11.612
69143W        W34370   7.187  40.451  14.798
69144W        W34371   6.158  20.703   3.495
69145W        W34372  34.192  20.598  14.428
69146W        W34373  33.657  34.442   1.977
69147W        W34374  26.389  12.002   0.821
69148W        W34375   2.350   8.866   5.206
69149W        W34376  41.648   8.650  14.544
69150W        W34377  30.911  21.076  11.649
69151W        W34378  26.766  42.616  10.690
69152W        W34379  39.260  35.678   3.123
69153W        W34380  15.121   5.916   1.209
69154W        W34381  10.401   6.884  13.502
69155W        W34382  32.687   7.800  13.114
69156W        W34383  23.503  34.919   2.644
69157W        W34384  38.020  27.976   1.721
69158W        W34385  38.415  39.327  10.572
69159W        W34386   1.289  14.448   4.365
69160W        W34387  40.745  31.076   2.392
69161W        W34388  11.725   5.866   4.126
69162W        W34389  26.528  32.079  14.208
69163W        W34390   0.868  18.092  10.493
69164W        W34391  31.656  26.804   3.005
69165W        W34392   8.957  20.471  14.453
69166W        W34393   7.293  41.997   3.787
69167W        W34394  44.823  44.501  13.162
69168W        W34395   9.833   5.362   1.140
69169W        W34396  39.006  33.350  13.971
69170W        W34397  41.482   3.238  11.669
69171W        W34398  35.456  30.550  14.886
69172W        W34399   4.864  18.679  11.932
69173W        W34400  11.181   4.981  13.596
69174W        W34401  11.215  35.619   2.793
69175W        W34402  20.653  30.680  12.386
69176W        W34403  33.704   4.746   3.263
69177W        W34404  17.744   0.670  13.830
69178W        W34405  29.930  15.838  13.796
69179W        W34406  28.185  19.426   0.404
69180W        W34407  18.086  23.182  11.173
69181W        W34408  28.497  21.130  10.247
69182W        W34409  35.082  35.487  12.959
69183W        W34410   8.859  43.550   3.250
69184W        W34411   3.844  28.466   1.985
69185W        W34412  34.985   0.370   3.627
69186W        W34413  16.121  12.647  14.380
69187W        W34414  34.290  21.777   0.346
69188W        W34415  24.649  31.513  11.127
69189W        W34416   1.565  33.032   1.818
69190W        W34417  29.232  17.240   3.656
69191W        W34418  18.641  17.823  12.988
69192W        W34419   0.417  18.082   3.719
69193W        W34420  20.763  24.364  13.457
69194W        W34421  11.169   0.289   2.789
69195W        W34422   2.036   2.288   1.692
69196W        W34423  29.103  13.749   0.916
69197W        W34424  35.299  30.661  14.004
69198W        W34425  39.807  39.837   0.431
69199W        W34426  32.812  40.905   0.175
69200W        W34427  37.967  28.064   2.232
69201W        W34428  11.652  19.994  12.503
69202W        W34429  28.908  22.556  14.930
69203W        W34430  36.636  28.445   1.327
69204W        W34431   4.884  21.130   2.245
69205W        W34432  15.228   6.406  12.420
69206W        W34433   5.607  14.028   0.653
69207W        W34434  20.322  26.979   0.323
69208W        W34435  14.866  20.620   0.315
69209W        W34436   8.315  34.839   2.482
69210W        W34437  42.310   0.884  10.736
69211W        W34438   7.960  14.090  13.139
69212W        W34439  40.795  28.193   3.678
69213W        W34440  24.519   4.472  11.823
69214W        W34441   6.197  16.784  10.854
69215W        W34442  32.105  20.953   4.072
69216W        W34443  12.735   3.660  12.615
69217W        W34444   3.939   2.280   0.229
69218W        W34445   2.687  37.336   0.855
69219W        W34446  28.674  20.605   2.382
69220W        W34447  18.099  37.329   1.784
69221W        W34448  16.080  14.995  11.113
69222W        W34449   0.587   8.276   0.886
69223W        W34450  40.462   3.357  14.193
69224W        W34451  14.415  13.459   3.245
69225W        W34452  31.337  22.686  10.722
69226W        W34453  35.935  26.740   1.956
69227W        W34454   6.456  19.183   1.014
69228W        W34455  28.882  40.229   5.117
69229W        W34456  37.564  19.171   1.763
69230W        W34457  38.539  24.865  11.666
69231W        W34458  39.023  27.755  13.179
69232W        W34459  10.869   6.464  11.060
69233W        W34460   7.452   8.451  14.067
69234W        W34461  30.969  30.181   1.976
69235W        W34462  42.373  37.919  13.181
69236W        W34463  33.620  13.160   2.137
69237W        W34464   3.268  41.553   0.950
69238W        W34465   9.393  25.300   3.890
69239W        W34466  42.494  44.263   0.300
69240W        W34467   9.904  32.994   0.356
69241W        W34468  23.922  15.300   4.308
69242W        W34469   2.024   9.612  11.117
69243W        W34470  33.085  40.683   1.149
69244W        W34471  27.279  28.897   1.804
69245W        W34472  28.402  11.588   0.750
69246W        W34473  12.100  32.506  14.903
69247W        W34474  41.900  23.128   2.257
69248W        W34475  24.920  41.748   1.823
69249W        W34476  22.069   9.689   3.570
69250W        W34477   0.429  25.315  13.883
69251W        W34478  43.781  23.952   0.001
69252W        W34479  33.580  44.602  11.905
69253W        W34480  23.523  40.446   3.118
69254W        W34481   6.734  44.353   2.510
69255W        W34482  11.874  28.261  11.208
69256W        W34483  21.309  10.511  14.372
69257W        W34484  26.709   4.195   3.208
69258W        W34485  27.508  11.159   1.645
69259W        W34486  18.361  27.663  11.659
69260W        W34487  34.669  39.001   0.366
69261W        W34488   7.312  36.095  13.763
69262W        W34489  24.707  30.958   1.843
69263W        W34490  19.527  44.231   3.483
69264W        W34491  11.942  32.375  12.398
69265W        W34492  14.793  37.774   3.729
69266W        W34493  36.772  13.825  12.808
69267W        W34494  29.762  37.354   1.831
69268W        W34495   3.921  12.641  10.668
69269W        W34496  15.648  13.360   2.853
69270W        W34497  40.890   2.491  11.880
69271W        W34498  33.594   6.500  13.844
69272W        W34499  20.369  41.850  14.921
69273W        W34500   8.505  13.095  14.832
69274W        W34501  20.022  23.339   2.855
69275W        W34502  23.368  37.272  12.365
69276W        W34503  29.666  21.761   0.351
69277W        W34504  12.345  17.711  12.114
69278W        W34505  24.287   8.096   0.799
69279W        W34506  42.996  10.794   0.417
69280W        W34507  13.232   2.279   4.596
69281W        W34508  10.759  20.425  12.542
69282W        W34509  30.261  41.178   4.034
69283W        W34510  34.492  12.823   2.343
69284W        W34511  44.421   2.422  14.300
69285W        W34512   9.675  41.466  13.456
69286W        W34513   9.627  25.739   4.014
69287W        W34514  10.844  15.360  14.688
69288W        W34515  43.514  31.831   4.082
69289W        W34516  13.745   2.191  13.987
69290W        W34517   0.854  19.664  12.484
69291W        W34518  42.530  22.608   2.707
69292W        W34519  12.298  34.855   3.675
69293W        W34520  26.738   6.139  14.014
69294W        W34521  10.735  32.951  12.227
69295W        W34522  22.034  10.614  11.206
69296W        W34523  35.084  17.046  13.912
69297W        W34524  33.182  23.626  11.129
69298W        W34525  36.601  42.536   3.671
69299W        W34526  39.261  17.319   0.050
69300W        W34527   7.378  32.334   3.127
69301W        W34528  38.841  29.161   3.254
69302W        W34529  35.622   1.368  13.024
69303W        W34530  20.594  23.639  14.406
69304W        W34531  13.179  44.052  14.064
69305W        W34532  21.020  44.521  12.612
69306W        W34533  27.600  41.499   4.038
69307W        W34534  13.629  33.559  10.753
69308W        W34535  44.838  40.819   3.730
69309W        W34536  14.442   5.213   0.484
69310W        W34537  29.428  40.566   0.384
69311W        W34538  26.597   1.854  10.670
69312W        W34539   4.410  18.020   0.515
69313W        W34540  32.446  18.276   1.618
69314W        W34541  23.796   5.782   4.657
69315W        W34542  14.164  27.921   4.192
69316W        W34543  26.383   2.275  12.506
69317W        W34544  27.374  22.467  12.461
69318W        W34545  36.398  15.910   3.200
69319W        W34546   6.814  35.524   4.503
69320W        W34547   5.953  19.352   1.004
69321W        W34548  34.368   1.324   1.221
69322W        W34549  24.986  43.510  14.625
69323W        W34550   2.740  13.242   0.740
69324W        W34551  29.230  44.696   4.148
69325W        W34552  15.586  27.334   3.888
69326W        W34553   3.320  16.902  11.012
69327W        W34554   1.191   3.249   0.171
69328W        W34555  35.666  24.648   0.873
69329W        W34556  38.820  25.152   4.973
69330W        W34557  30.333  22.569  12.795
69331W        W34558  22.969   4.849   0.752
69332W        W34559   0.758  17.338  12.460
69333W        W34560  33.247  23.153  12.977
69334W        W34561  13.672  32.864  13.706
69335W        W34562  39.471   6.942  14.372
69336W        W34563  15.195   2.329  14.539
69337W        W34564  21.921   1.633  12.266
69338W        W34565  39.512  35.078  11.795
69339W        W34566  17.271  10.174  14.422
69340W        W34567  17.678   0.937  10.977
69341W        W34568   4.214  41.595   2.909
69342W        W34569  39.843   0.696  12.608
69343W        W34570  12.831  22.245  11.560
69344W        W34571   7.043  29.079   3.416
69345W        W34572  41.859  31.862   2.642
69346W        W34573  32.186  26.654   0.338
69347W        W34574  43.090  42.598  14.317
69348W        W34575  40.302  30.787   3.252
69349W        W34576  35.006  27.197  13.840
69350W        W34577  27.145   8.750   2.969
69351W        W34578   7.230   7.703   0.462
69352W        W34579  15.865  14.732   4.087
69353W        W34580  15.051  15.847  14.828
69354W        W34581  30.219   3.961  14.550
69355W        W34582  12.110  26.933   4.037
69356W        W34583  24.094  14.333   1.220
69357W        W34584  11.134  33.026  14.022
69358W        W34585  31.848  30.942  11.449
69359W        W34586  18.222  44.826   0.036
69360W        W34587  32.090  17.905   1.646
69361W        W34588  38.348   7.445   0.683
69362W        W34589  44.362   8.537  11.150
69363W        W34590  26.954  24.549   2.432
69364W        W34591  36.362  27.521  14.511
69365W        W34592   0.660   5.965  13.011
69366W        W34593  27.542  35.601   2.978
69367W        W34594  39.785   9.146   1.616
69368W        W34595  37.810   1.240  11.107
69369W        W34596  40.079  31.621  12.937
69370W        W34597  39.509  36.472   0.326
69371W        W34598  26.123  42.871   2.889
69372W        W34599  39.879  11.226   2.315
69373W        W34600   2.328  35.361  11.578
69374W        W34601  21.121  44.549   3.103
69375W        W34602   8.548   4.574   0.405
69376W        W34603  35.315  30.365  14.425
69377W        W34604  12.564  23.547   1.220
69378W        W34605  34.532   4.596   0.649
69379W        W34606  29.468   4.604  12.385
69380W        W34607  43.376  29.158   0.791
69381W        W34608  28.717  32.371   0.930
69382W        W34609  33.312  31.647   1.460
69383W        W34610  23.722   7.974   3.850
69384W        W34611  15.038  35.809   1.018
69385W        W34612  27.113  37.763   1.721
69386W        W34613  17.076  36.888  11.616
69387W        W34614   3.252  19.244   0.786
69388W        W34615  28.022  13.613  12.732
69389W        W34616  21.723  10.611   2.036
69390W        W34617  34.953  33.589   0.575
69391W        W34618  36.392  10.653  11.638
69392W        W34619  25.696   4.161   2.307
69393W        W34620  43.672  10.598  11.591
69394W        W34621  22.985  26.541   0.721
69395W        W34622  13.317  25.108  13.511
69396W        W34623  40.496   3.604   1.660
69397W        W34624  18.209  13.653   3.201
69398W        W34625  40.319  10.089   5.027
69399W        W34626  13.884  23.804   4.613
69400W        W34627  30.859   5.148  14.436
69401W        W34628  21.579  21.640   4.602
69402W        W34629   8.753  25.923   2.450
69403W        W34630  24.057  12.281   2.706
69404W        W34631  17.100  34.485  14.919
69405W        W34632  16.673  43.771   3.848
69406W        W34633  28.598  11.747   0.300
69407W        W34634  37.192  28.694  12.827
69408W        W34635  31.057  25.188  12.099
69409W        W34636  10.594  29.786  14.159
69410W        W34637   4.841  22.804  13.890
69411W        W34638  28.517  16.691   0.904
69412W        W34639  18.590  27.132  14.841
69413W        W34640   3.443   4.807   3.704
69414W        W34641  44.364  15.326  14.853
69415W        W34642  29.953  12.733  14.240
69416W        W34643  35.330   0.687   1.932
69417W        W34644  34.538   0.902  13.559
69418W        W34645  28.082  18.193   3.221
69419W        W34646  12.345  29.235  13.531
69420W        W34647  31.141   8.329  11.923
69421W        W34648  40.634   6.891   1.278
69422W        W34649   8.349  33.442  13.054
69423W        W34650  16.228  37.866   3.292
69424W        W34651  11.141  37.307   0.279
69425W        W34652  18.147   1.280  14.459
69426W        W34653  27.664  30.109  14.285
69427W        W34654  29.978  32.837   1.718
69428W        W34655   9.426  19.650   3.617
69429W        W34656  43.303  18.228  14.027
69430W        W34657  22.562  11.215  11.452
69431W        W34658  38.112  38.841  11.881
69432W        W34659  38.500  13.187   2.633
69433W        W34660  43.202  43.389  14.305
69434W        W34661  31.895  39.973   3.561
69435W        W34662  37.296   5.459  10.279
69436W        W34663  16.660  25.553  14.900
69437W        W34664  24.270   2.214   0.271
69438W        W34665  44.944  39.937   4.240
69439W        W34666   6.696  30.916   3.595
69440W        W34667   5.440  33.323  12.946
69441W        W34668   2.390   1.562   0.015
69442W        W34669   6.277   1.751   3.099
69443W        W34670   5.275  20.989  12.346
69444W        W34671   8.940  41.013   0.004
69445W        W34672  44.815  38.362  13.430
69446W        W34673  16.444   2.662   2.302
69447W        W34674  32.977  16.269   2.170
69448W        W34675  37.716  33.473  14.510
69449W        W34676  10.852  19.578  12.119
69450W        W34677  28.711  21.006  13.461
69451W        W34678  24.444  19.084  13.216
69452W        W34679  27.441  24.933   4.061
69453W        W34680  17.031  34.438  13.136
69454W        W34681  40.425  44.831   2.107
69455W        W34682  28.442  10.820  10.703
69456W        W34683  23.161  24.664   0.574
69457W        W34684   5.749  15.705   0.606
69458W        W34685   5.623  21.833  11.786
69459W        W34686   6.299   6.811   4.370
69460W        W34687  36.447   2.368  13.149
69461W        W34688  21.093  11.416   3.493
69462W        W34689  36.431  22.530   0.717
69463W        W34690  10.443  40.475  11.664
69464W        W34691  16.360  12.424   2.659
69465W        W34692  24.215  40.714   4.598
69466W        W34693  20.248  30.173   5.071
69467W        W34694  11.455   6.082   2.393
69468W        W34695   2.692  11.094   2.388
69469W        W34696  35.844  30.469  12.886
69470W        W34697  11.274   8.867   0.299
69471W        W34698   5.214  40.459   1.830
69472W        W34699   2.948  31.027  12.874
69473W        W34700  23.979   2.292  12.162
69474W        W34701  10.917  14.696  13.459
69475W        W34702  30.475  43.312   0.084
69476W        W34703  29.246  34.942   1.286
69477W        W34704  30.557  18.330  12.777
69478W        W34705   2.713   2.243  13.114
69479W        W34706  25.688  44.885   1.246
69480W        W34707   1.167  10.104  13.876
69481W        W34708  38.297   0.170   3.016
69482W        W34709  39.037  11.348   3.744
69483W        W34710  18.035   2.091   1.698
69484W        W34711  33.395  32.449  14.782
69485W        W34712  19.938  27.035  12.389
69486W        W34713   5.837   4.761  13.942
69487W        W34714  24.968  26.506   1.445
69488W        W34715  39.472  39.454  10.627
69489W        W34716  31.882  37.359   0.418
69490W        W34717  24.527  33.989  13.581
69491W        W34718  34.594  29.614   3.241
69492W        W34719  32.138  26.806   1.716
69493W        W34720   4.731  43.475  14.782
69494W        W34721  13.590   8.516  14.344
69495W        W34722  11.574  36.977   2.873
69496W        W34723  39.909  37.038  12.454
69497W        W34724   2.216  35.299   1.778
69498W        W34725   6.125  38.813   4.603
69499W        W34726  25.049  26.013  13.852
69500W        W34727  38.268  29.050  12.799
69501W        W34728  14.223  14.590   1.887
69502W        W34729  21.512  27.666   0.536
69503W        W34730  36.686  14.871  11.946
69504W        W34731  30.130  35.549   0.982
69505W        W34732  25.134  33.472  12.858
69506W        W34733   7.241  27.918   4.962
69507W        W34734  32.441  40.634  13.497
69508W        W34735  18.122  44.363   4.576
69509W        W34736   3.812  20.130  10.749
69510W        W34737  39.846  10.420   1.242
69511W        W34738   0.663  18.165   4.179
69512W        W34739   5.937  12.065  13.306
69513W        W34740  13.392   0.178  11.946
69514W        W34741  39.255  25.285  12.583
69515W        W34742  13.802  43.330  13.899
69516W        W34743  19.766  42.802  14.485
69517W        W34744  14.372  37.967  13.537
69518W        W34745  44.017   6.758  14.289
69519W        W34746   5.381   5.462  12.066
69520W        W34747   6.570  27.513   3.363
69521W        W34748  26.242  26.920   0.422
69522W        W34749  15.408  37.298  11.524
69523W        W34750   0.150  26.262  13.006
69524W        W34751  25.949  21.693   0.705
69525W        W34752   9.023  26.680   3.121
69526W        W34753   1.439  37.782  11.992
69527W        W34754  27.366  36.401   5.044
69528W        W34755  41.828  11.270   1.912
69529W        W34756  19.703   7.625   3.114
69530W        W34757   1.866  30.404   4.505
69531W        W34758  32.062  35.800  11.799
69532W        W34759  35.729  44.802   1.688
69533W        W34760  40.288  24.013   3.962
69534W        W34761   2.378  42.413   5.492
69535W        W34762  14.649  31.603   1.672
69536W        W34763  43.462  36.385   1.902
69537W        W34764  42.482  40.898   2.032
69538W        W34765  26.638   8.160  11.992
69539W        W34766  18.176  22.805  13.825
69540W        W34767  43.930  37.875  12.900
69541W        W34768  24.604   8.102  12.928
69542W        W34769  27.736  24.769  11.184
69543W        W34770  31.668   1.800   0.774
69544W        W34771  17.137  36.399  14.977
69545W        W34772   6.885   6.458   2.782
69546W        W34773   7.807  44.864  13.957
69547W        W34774  30.154  14.792   4.880
69548W        W34775  11.946  41.076  14.781
69549W        W34776  12.319   3.943   0.827
69550W        W34777  25.229   0.103  13.172
69551W        W34778  35.502  13.124  10.613
69552W        W34779  27.671  25.490  10.648
69553W        W34780   0.427  10.979   2.694
69554W        W34781  24.508  23.184  14.913
69555W        W34782  14.503   3.554  14.960
69556W        W34783  11.953  17.171  14.903
69557W        W34784  44.705  18.842  12.528
69558W        W34785  14.526  27.935  13.885
69559W        W34786   7.191  29.663  12.947
69560W        W34787  14.641  44.889   2.073
69561W        W34788  22.045  39.821   0.765
69562W        W34789  33.574  16.600   4.502
69563W        W34790   9.157   6.690  14.785
69564W        W34791  39.866  16.224  10.629
69565W        W34792  43.823  13.787   0.192
69566W        W34793  39.737   3.885  13.439
69567W        W34794   7.767  31.394   0.827
69568W        W34795   4.036  12.694   0.816
69569W        W34796  11.783  13.160  14.113
69570W        W34797   6.130   9.758   2.753
69571W        W34798  27.061  27.128  11.106
69572W        W34799   4.243  23.391  11.434
69573W        W34800   8.457   4.967  14.286
69574W        W34801  24.249  43.388   0.325
69575W        W34802  30.546  12.836   3.000
69576W        W34803  37.545   2.021   2.384
69577W        W34804  33.523   2.278  10.717
69578W        W34805  16.218  10.673  13.980
69579W        W34806  22.919  37.363   2.875
69580W        W34807   3.719  22.698  12.670
69581W        W34808  26.754  11.292  12.433
69582W        W34809  14.775   7.425  14.965
69583W        W34810  27.345  42.872   4.370
69584W        W34811  27.542  31.628  14.852
69585W        W34812  41.863  22.076   3.105
69586W        W34813  21.936  14.415  13.613
69587W        W34814  28.067   5.098  10.527
69588W        W34815  12.124  35.837  13.554
69589W        W34816  42.591   4.709  12.458
69590W        W34817   9.194  26.232  14.839
69591W        W34818  22.817  29.623   4.587
69592W        W34819  40.940   8.971  11.513
69593W        W34820  40.051  44.723  14.146
69594W        W34821  23.280  22.309   3.219
69595W        W34822   6.313  31.161   3.849
69596W        W34823  17.081  31.515  11.269
69597W        W34824   7.205  29.041  14.671
69598W        W34825   9.787   5.811   2.697
69599W        W34826  30.045  32.395   3.350
69600W        W34827  19.030   3.712   4.114
69601W        W34828  37.515  24.670   1.031
69602W        W34829   3.283  37.990  13.528
69603W        W34830  29.176  19.326   2.793
69604W        W34831  21.801  14.877  13.850
69605W        W34832   2.768  39.284   2.628
69606W        W34833  27.242  30.124  11.096
69607W        W34834  20.776  42.841  11.220
69608W        W34835  29.208  25.297  12.991
69609W        W34836  40.540  12.931  11.597
69610W        W34837  35.836  14.453  11.326
69611W        W34838   5.721  25.587   2.834
69612W        W34839  10.599   6.043  11.906
69613W        W34840  26.113  19.304   0.936
69614W        W34841  28.086  30.614  14.660
69615W        W34842   0.105  29.266  12.274
69616W        W34843  10.128  11.712  14.423
69617W        W34844  29.598   6.187   2.470
69618W        W34845  28.711   3.180  12.824
69619W        W34846  20.566  39.366  11.201
69620W        W34847   8.368  40.844   1.752
69621W        W34848  30.471  30.511  12.444
69622W        W34849  16.724  39.453   1.222
69623W        W34850  18.764  29.445  13.084
69624W        W34851  39.057  10.237  14.866
69625W        W34852   3.781  17.761   0.382
69626W        W34853  11.228  17.082  10.818
69627W        W34854  17.930  35.963   2.845
69628W        W34855   3.261  19.788   0.794
69629W        W34856  31.979  26.859   0.798
69630W        W34857  12.853  24.578   1.483
69631W        W34858  24.671   0.380  14.386
69632W        W34859  22.689  26.390   3.581
69633W        W34860  34.513  17.162   4.383
69634W        W34861  35.913  39.294  10.604
69635W        W34862   1.272  37.400  13.863
69636W        W34863  25.985   6.260   4.572
69637W        W34864  24.004  23.437  10.327
69638W        W34865   9.971  30.369  12.502
69639W        W34866  32.357   7.667  13.484
69640W        W34867  16.716   2.154   0.330
69641W        W34868   1.506  12.132   4.502
69642W        W34869  17.013   6.093   2.370
69643W        W34870  32.497   3.423   3.489
69644W        W34871  14.304   6.392   1.335
69645W        W34872  15.000  33.079  11.473
69646W        W34873  27.034  39.728  13.482
69647W        W34874   4.807  21.342  14.772
69648W        W34875  43.861   2.690   2.800
69649W        W34876  35.984  43.821  11.644
69650W        W34877  23.166  35.527  14.786
69651W        W34878  30.921  41.355   5.096
69652W        W34879  19.236   7.659  12.586
69653W        W34880   1.769  41.217  12.940
69654W        W34881  21.650  10.737   0.994
69655W        W34882  24.621  17.631  12.506
69656W        W34883  10.354  36.199   2.898
69657W        W34884  13.152  10.106  11.556
69658W        W34885  39.459   3.480   1.338
69659W        W34886  32.813  13.000   3.652
69660W        W34887   7.871   0.743  10.701
69661W        W34888  19.075  32.368  13.805
69662W        W34889  32.491  43.291   2.279
69663W        W34890  20.109  27.246   2.404
69664W        W34891  29.923  25.442  12.073
69665W        W34892  23.854  35.926  12.169
69666W        W34893   0.943  29.637   5.408
69667W        W34894  29.165  10.145   4.131
69668W        W34895   3.255  29.050  12.449
69669W        W34896   8.236   9.614   3.371
69670W        W34897  25.594   9.353   1.226
69671W        W34898  31.535  35.123  13.075
69672W        W34899  33.914  12.600   1.286
69673W        W34900  41.547   9.247   1.892
69674W        W34901  29.024  27.051   2.705
69675W        W34902  10.973  18.798  14.464
69676W        W34903   9.191  22.661   2.008
69677W        W34904  24.630   3.236  14.422
69678W        W34905  32.940   4.838   4.039
69679W        W34906  36.404  29.913   1.836
69680W        W34907  42.720  37.028   3.412
69681W        W34908  10.620  32.429  14.909
69682W        W34909  44.070  12.813  11.686
69683W        W34910  15.406  19.274  12.033
69684W        W34911  26.232  11.666   0.374
69685W        W34912  34.088  39.063   4.658
69686W        W34913  36.968  24.429  12.860
69687W        W34914  18.881  10.393  10.715
69688W        W34915  15.712  10.854   1.349
69689W        W34916  35.143  30.336  10.885
69690W        W34917  41.837   4.004   2.340
69691W        W34918  17.888  22.617   2.671
69692W        W34919  27.950  29.426  13.119
69693W        W34920  43.223   3.010  11.117
69694W        W34921   6.627  18.238   0.248
69695W        W34922  20.030  19.843   2.230
69696W        W34923  33.826  27.473  13.373
69697W        W34924   8.723   1.457   3.341
69698W        W34925  43.403  40.901  11.086
69699W        W34926  14.702  18.077   4.578
69700W        W34927   2.494   4.790   1.524
69701W        W34928  41.466   6.328  13.351
69702W        W34929  21.321  44.486   1.176
69703W        W34930   2.032  22.000   4.658
69704W        W34931  17.168   6.976  12.860
69705W        W34932  25.145   8.266   4.954
69706W        W34933  36.866  11.507   0.527
69707W        W34934  37.544  21.634   0.778
69708W        W34935  28.111  43.793  13.422
69709W        W34936  23.040  22.662  13.095
69710W        W34937  14.851  38.327   0.440
69711W        W34938  21.925  38.426   1.790
69712W        W34939  12.685  36.264   2.285
69713W        W34940  14.479  33.709   3.335
69714W        W34941  37.961   6.821   0.941
69715W        W34942   6.869  38.011   0.933
69716W        W34943   1.094  14.202  10.372
69717W        W34944  13.788  25.231  11.681
69718W        W34945  12.584  25.028  11.312
69719W        W34946  44.706  37.617  10.395
69720W        W34947   1.670  21.747   1.300
69721W        W34948  41.634  41.391   3.616
69722W        W34949   2.877  17.551  12.197
69723W        W34950  34.379  23.623   2.986
69724W        W34951   1.725  19.699   0.066
69725W        W34952  16.573   5.366   3.264
69726W        W34953  25.421   3.285  12.224
69727W        W34954  28.919  22.620  10.534
69728W        W34955  43.087  40.594   3.537
69729W        W34956   6.241   5.262  12.241
69730W        W34957  35.718   4.412   4.910
69731W        W34958  10.251  31.380   2.075
69732W        W34959  39.743  36.674  11.511
69733W        W34960  32.019  30.961   5.105
69734W        W34961  12.581  26.551   1.234
69735W        W34962   6.339  35.338  12.167
69736W        W34963  15.020  18.298  12.539
69737W        W34964  11.151  35.802   2.298
69738W        W34965  29.704   0.300   4.718
69739W        W34966  24.763  30.122   1.787
69740W        W34967   1.466  12.608  11.523
69741W        W34968   4.812  17.839  13.876
69742W        W34969  23.938  26.717  10.712
69743W        W34970  24.663  16.549   2.309
69744W        W34971  16.897  30.130  13.576
69745W        W34972  24.456  40.790  10.742
69746W        W34973  27.138   6.884  12.518
69747W        W34974  11.816  17.509   1.693
69748W        W34975  27.316  10.795  11.963
69749W        W34976  38.631  11.710  14.052
69750W        W34977  31.631  11.662   2.744
69751W        W34978  21.437  18.666  12.825
69752W        W34979  19.963  44.256  11.965
69753W        W34980   9.100   5.118   2.823
69754W        W34981  23.960  37.900   1.369
69755W        W34982  29.659  37.915  12.388
69756W        W34983  18.014   1.894   4.951
69757W        W34984   2.997   2.748  11.537
69758W        W34985   5.838  11.162   2.784
69759W        W34986  32.854   2.868  12.921
69760W        W34987   6.717  31.427  11.077
69761W        W34988  11.210  26.693   4.628
69762W        W34989   4.832   0.247   3.208
69763W        W34990  26.695  12.626   2.361
69764W        W34991  42.740  30.182   0.540
69765W        W34992   6.203  19.968   3.211
69766W        W34993  16.744  29.614   4.882
69767W        W34994  26.112  44.197   3.075
69768W        W34995  42.419  39.205  13.788
69769W        W34996  12.354   9.617  10.804
69770W        W34997  30.392  39.292   1.565
69771W        W34998  15.239   5.716   0.205
69772W        W34999   2.995  32.543   0.776
69773W        W35000  24.811  13.756   2.449
69774W        W35001  14.702  35.855  14.770
69775W        W35002   8.699  42.673  12.874
69776W        W35003  29.095  21.256  10.511
69777W        W35004  18.587  10.078   2.766
69778W        W35005   5.582  38.466  11.316
69779W        W35006  10.052  15.491  12.527
69780W        W35007  40.121  15.810   1.969
69781W        W35008  13.586   6.452  14.458
69782W        W35009  15.302  23.742  12.550
69783W        W35010  27.934   0.271  13.338
69784W        W35011  34.099  19.173   0.895
69785W        W35012   7.961  10.703  11.347
69786W        W35013   3.406  35.405  14.243
69787W        W35014   9.616  19.560   4.092
69788W        W35015  28.805  17.349  12.461
69789W        W35016   9.576  42.900   0.535
69790W        W35017  16.331   7.378  13.368
69791W        W35018   7.618  16.782  11.960
69792W        W35019  21.311  35.098  10.774
69793W        W35020  16.101  37.538   4.244
69794W        W35021  12.565  13.965   3.184
69795W        W35022  18.568  41.443  11.172
69796W        W35023  29.529   7.005   0.448
69797W        W35024  24.156   4.948   2.254
69798W        W35025  32.649  35.639  12.613
69799W        W35026  36.141   5.533   9.742
69800W        W35027  33.030   8.655   3.107
69801W        W35028  19.147  10.586  13.980
69802W        W35029  41.578  24.633  10.944
69803W        W35030   0.540  25.859  13.082
69804W        W35031  22.162  25.470   4.366
69805W        W35032  44.259  26.092   2.767
69806W        W35033  32.930   0.888   4.350
69807W        W35034  17.781   7.349  13.111
69808W        W35035  39.300  36.890  12.359
69809W        W35036   7.998  24.580   3.457
69810W        W35037   8.952  24.091   2.352
69811W        W35038  41.434  15.158   0.788
69812W        W35039  40.471  34.408   0.621
69813W        W35040  31.596   4.055  10.502
69814W        W35041  34.459   3.416   0.455
69815W        W35042   0.354  34.280  11.925
69816W        W35043  38.880  27.401  11.216
69817W        W35044  32.423  18.782   0.266
69818W        W35045  35.116   4.313  13.722
69819W        W35046  27.632  43.085  10.770
69820W        W35047  31.513  38.446   4.978
69821W        W35048   8.330  31.179  11.832
69822W        W35049  11.727  26.186   1.262
69823W        W35050   3.290   0.805  14.241
69824W        W35051  10.174   8.530   4.150
69825W        W35052  40.589  10.181   0.851
69826W        W35053  42.820   3.018   4.070
69827W        W35054  20.274  23.125  12.029
69828W        W35055  44.567  28.981  10.715
69829W        W35056  29.076  44.201   2.977
69830W        W35057  17.283  43.945   0.789
69831W        W35058  44.884  23.340   4.026
69832W        W35059  12.701  13.019   3.507
69833W        W35060  22.884  23.331  11.133
69834W        W35061   1.296   0.194   1.519
69835W        W35062  19.314  32.670   2.014
69836W        W35063   1.520   1.691   3.153
69837W        W35064  36.374  23.719  11.015
69838W        W35065  19.227  16.285  11.180
69839W        W35066  34.848   1.611   1.838
69840W        W35067  36.319  39.432   3.757
69841W        W35068  21.766  13.144  13.968
69842W        W35069   6.597   8.124   2.662
69843W        W35070   4.349  28.587  14.425
69844W        W35071  36.535  34.366  10.935
69845W        W35072  44.454  22.312  14.272
69846W        W35073  41.876   6.221  14.464
69847W        W35074  25.640  19.826  10.330
69848W        W35075  15.678  43.565   2.338
69849W        W35076  37.731   3.377   4.141
69850W        W35077  23.834   3.597   2.136
69851W        W35078  26.150  16.791   1.478
69852W        W35079   3.264  14.567  13.197
69853W        W35080   1.721   3.222  11.565
69854W        W35081  19.132  41.886   1.070
69855W        W35082  30.381  23.751  11.487
69856W        W35083  26.166   7.848   4.283
69857W        W35084  11.640  28.721  11.199
69858W        W35085  42.876  41.646   0.439
69859W        W35086  25.349  33.604   4.950
69860W        W35087  38.281  38.725  13.976
69861W        W35088  22.237   1.426   1.716
69862W        W35089  21.528  37.872  10.609
69863W        W35090  30.563   9.785  13.958
69864W        W35091  39.397  32.908  11.476
69865W        W35092  31.422  41.043  10.998
69866W        W35093  21.783  31.117  14.160
69867W        W35094  26.097  25.224   4.886
69868W        W35095  22.736  25.036  10.688
69869W        W35096  20.760  25.107  10.743
69870W        W35097  10.899   3.902   1.787
69871W        W35098  10.692  25.059   0.262
69872W        W35099  32.163  25.169   3.806
69873W        W35100  29.101  23.498   1.337
69874W        W35101   7.729  25.264  13.942
69875W        W35102  27.439  44.546   0.600
69876W        W35103  12.591   2.320   0.159
69877W        W35104  37.753   7.398   2.615
69878W        W35105  44.172  18.717   1.358
69879W        W35106  17.479  29.256  11.362
69880W        W35107   6.331   0.087   2.413
69881W        W35108  37.969  26.417  12.985
69882W        W35109  36.256   7.438   3.988
69883W        W35110   8.389  44.690  13.882
69884W        W35111  40.676  40.371  13.465
69885W        W35112  24.965  42.406   2.111
69886W        W35113  18.241  21.103  14.425
69887W        W35114   7.393   4.964  13.760
69888W        W35115   3.129  12.699   1.718
69889W        W35116  37.008  22.500  14.985
69890W        W35117  20.915   8.294   3.711
69891W        W35118  39.521  22.922  12.277
69892W        W35119  37.443  11.340  13.948
69893W        W35120  10.635  38.893   4.248
69894W        W35121  39.302   4.216  13.418
69895W        W35122  22.055   2.480   0.694
69896W        W35123  25.637   0.666  11.552
69897W        W35124  39.038  27.109   2.872
69898W        W35125  20.541  40.835   3.237
69899W        W35126   2.390  28.916   0.505
69900W        W35127  32.197  38.940   2.023
69901W        W35128   3.759  35.369   3.371
69902W        W35129  29.584  20.024   0.866
69903W        W35130  27.476  24.039  13.478
69904W        W35131  28.701  12.301  14.618
69905W        W35132   4.302  16.119   2.358
69906W        W35133  28.659   5.339   1.259
69907W        W35134   2.055   4.300   0.014
69908W        W35135  13.580  24.972  11.290
69909W        W35136  42.121  29.448  10.719
69910W        W35137  28.367   9.399  10.672
69911W        W35138  29.025  41.740  11.464
69912W        W35139  16.353  42.377   2.425
69913W        W35140   7.391  25.874   3.760
69914W        W35141  30.166  15.301   2.767
69915W        W35142  29.292  27.044  14.280
69916W        W35143  37.108  28.458  10.729
69917W        W35144  19.009  24.909   1.372
69918W        W35145  16.302  11.715  14.987
69919W        W35146  18.544  33.687   1.874
69920W        W35147  14.010  22.476  13.220
69921W        W35148  39.511  24.102   2.332
69922W        W35149  30.898  11.400  13.882
69923W        W35150  40.966  34.223   3.210
69924W        W35151  40.145   5.428  13.896
69925W        W35152  11.147   5.937  12.480
69926W        W35153  39.855  12.228   4.308
69927W        W35154  38.119  20.510  13.741
69928W        W35155  22.090  36.072   1.388
69929W        W35156   4.230   4.772  13.347
69930W        W35157  26.012  41.843   2.874
69931W        W35158  35.918  12.799  12.168
69932W        W35159  43.379  16.241  13.062
69933W        W35160  26.034  43.918  12.711
69934W        W35161  24.593  17.592   4.364
69935W        W35162  33.140   7.196  14.730
69936W        W35163  31.653  19.806   0.938
69937W        W35164  17.707  35.083   0.633
69938W        W35165   7.288  16.185  14.224
69939W        W35166   8.052  17.158  10.691
69940W        W35167   9.785  41.061   0.187
69941W        W35168  12.653  19.061  12.161
69942W        W35169  11.588  14.724   3.650
69943W        W35170   2.648  34.654  12.461
69944W        W35171  22.501  32.524  11.987
69945W        W35172  14.308   6.898   3.569
69946W        W35173  41.284   5.692  12.469
69947W        W35174  24.585  28.412   1.354
69948W        W35175   9.871  17.661   1.333
69949W        W35176  31.099   2.444   2.683
69950W        W35177  35.730   0.933   0.210
69951W        W35178   1.289  24.951  10.020
69952W        W35179  37.420  17.872   1.308
69953W        W35180  30.969  18.311  13.724
69954W        W35181  36.148   1.350  13.125
69955W        W35182  29.542  18.242   2.180
69956W        W35183  20.646  12.134  11.544
69957W        W35184   4.617  18.812  12.439
69958W        W35185  19.668  32.018   1.680
69959W        W35186  31.222  23.480  13.104
69960W        W35187   9.147  40.345   3.783
69961W        W35188  44.655  43.821  12.078
69962W        W35189  36.416  12.647  13.899
69963W        W35190   4.173  42.301  12.476
69964W        W35191  27.988   9.126   2.900
69965W        W35192  27.329  38.002   3.440
69966W        W35193   0.526  34.570  11.509
69967W        W35194  27.620  31.953   1.657
69968W        W35195  28.443  26.927  13.499
69969W        W35196   5.501  38.096   3.356
69970W        W35197  21.281  26.402  14.271
69971W        W35198  16.325  14.856  12.453
69972W        W35199  35.913   4.001  13.429
69973W        W35200   8.284  18.378   2.431
69974W        W35201  29.996  39.804  11.295
69975W        W35202  12.644  32.475   1.643
69976W        W35203  32.747  10.348  13.847
69977W        W35204  33.619  43.156  10.322
69978W        W35205  34.636  34.572   3.838
69979W        W35206  24.613  40.921   1.940
69980W        W35207  37.566  30.968  11.672
69981W        W35208  18.129  27.222  13.938
69982W        W35209   5.642  16.605   0.121
69983W        W35210  36.153   4.996  13.571
69984W        W35211  26.604  43.291  11.097
69985W        W35212  13.530  16.714   3.188
69986W        W35213  30.678  27.086   2.374
69987W        W35214  30.144  20.462  11.204
69988W        W35215  25.589  43.090  14.070
69989W        W35216  40.358  15.084   0.884
69990W        W35217  42.297   4.598   1.434
69991W        W35218  31.651  11.892   3.653
69992W        W35219  40.775   5.899   0.335
69993W        W35220  31.364   7.924  13.456
69994W        W35221  44.255   1.954  10.612
69995W        W35222  29.981  34.083  11.116
69996W        W35223  13.291  40.286  12.539
69997W        W35224   7.676  38.409   3.295
69998W        W35225  28.467  23.182  12.830
69999W        W35226  22.345   8.809   1.895
70000W        W35227  32.372  41.006  13.876
70001W        W35228  32.579  39.590   4.102
70002W        W35229   3.658  31.090   2.282
70003W        W35230  39.502  39.473   4.152
70004W        W35231  18.887  26.573  11.926
70005W        W35232  15.997  44.723   4.486
70006W        W35233  32.655  32.358  13.473
70007W        W35234  35.950   0.315  14.417
70008W        W35235  43.648  15.354   3.781
70009W        W35236  24.232   2.910   2.781
70010W        W35237   4.285  28.565  10.693
70011W        W35238  20.707  13.822   3.252
70012W        W35239  12.875   1.100   3.336
70013W        W35240  31.754  26.462   2.623
70014W        W35241   8.537  10.162  10.989
70015W        W35242  16.911  11.667  12.411
70016W        W35243  28.560   7.215  11.715
70017W        W35244  34.545  29.724   0.386
70018W        W35245  14.238   9.871   1.464
70019W        W35246  44.443  40.970   3.185
70020W        W35247  20.946  21.587  13.787
70021W        W35248  30.439  22.796  14.512
70022W        W35249   7.719  32.122   5.133
70023W        W35250  15.536  18.205  11.474
70024W        W35251  19.587   7.572  12.965
70025W        W35252  17.078   0.740   0.348
70026W        W35253  17.572  14.891  14.925
70027W        W35254   3.805  20.588  13.848
70028W        W35255  33.368  30.142   2.328
70029W        W35256  19.153  29.531   0.884
70030W        W35257  35.577  15.748  12.549
70031W        W35258   4.104   1.481  14.434
70032W        W35259  16.698  43.311  10.726
70033W        W35260   1.425  27.158  14.095
70034W        W35261  23.256  40.314  14.874
70035W        W35262  41.284  42.973   1.626
70036W        W35263  18.789  30.113   2.849
70037W        W35264  37.417  39.925   2.131
70038W        W35265  34.595  36.906  12.262
70039W        W35266  12.710  37.309  11.247
70040W        W35267  28.512  33.542   2.478
70041W        W35268  35.072  26.885   0.331
70042W        W35269  32.484  13.904  12.000
70043W        W35270  31.615   7.477   3.808
70044W        W35271   6.184  15.738  11.933
70045W        W35272   2.283  44.362   0.506
70046W        W35273  25.323  44.329  13.125
70047W        W35274  25.542  36.884  12.464
70048W        W35275  40.115  12.738   2.305
70049W        W35276   3.481   9.624  12.858
70050W        W35277  33.562   2.794  10.749
70051W        W35278  28.948  11.283  14.037
70052W        W35279  37.894  40.534   2.762
70053W        W35280  16.528   3.366   4.140
70054W        W35281  21.270  36.798   4.109
70055W        W35282  24.109   0.960   1.313
70056W        W35283  19.350  14.677  13.986
70057W        W35284  41.014  27.356   2.364
70058W        W35285  36.102   1.397   3.724
70059W        W35286   5.334  25.339  12.588
70060W        W35287  11.083  32.091   1.497
70061W        W35288  19.141  37.512   4.274
70062W        W35289  18.617  38.480   1.549
70063W        W35290   0.586  37.998   0.425
70064W        W35291  44.890   0.024   1.306
70065W        W35292   6.884  20.957   0.404
70066W        W35293  16.887   0.390   1.987
70067W        W35294  34.996  14.540  12.221
70068W        W35295  31.815  32.990  11.186
70069W        W35296  11.598  36.086  11.823
70070W        W35297   9.440  22.629  14.253
70071W        W35298   1.726  44.962   2.747
70072W        W35299  24.711   1.396   1.737
70073W        W35300  30.636  17.221   1.202
70074W        W35301  34.221  22.295  14.087
70075W        W35302   0.545  17.011  10.490
70076W        W35303  44.838   5.134   1.866
70077W        W35304  25.805  43.938   3.382
70078W        W35305   3.735  28.941   0.219
70079W        W35306  20.956   2.184   4.091
70080W        W35307  43.259  15.549  14.005
70081W        W35308  24.306  22.265   4.163
70082W        W35309  13.634  37.335  13.410
70083W        W35310   2.272  31.395  11.044
70084W        W35311   3.017  30.942   1.307
70085W        W35312  33.243  13.592  13.225
70086W        W35313  25.161  20.035  11.678
70087W        W35314   7.063   7.718  12.119
70088W        W35315  43.563  43.788  11.184
70089W        W35316  17.366  27.090   2.549
70090W        W35317  38.952  23.550  12.110
70091W        W35318  33.592  22.146  12.903
70092W        W35319   5.116   1.290  11.031
70093W        W35320  31.606  17.587  11.161
70094W        W35321  22.061   6.292  11.129
70095W        W35322  18.533  40.924  12.015
70096W        W35323  32.282  34.424   4.962
70097W        W35324  16.936  40.754  14.409
70098W        W35325   5.683  44.967   0.275
70099W        W35326  17.027  40.416   4.529
70100W        W35327  19.077  31.577  14.381
70101W        W35328  38.281  37.470   4.178
70102W        W35329  19.622   9.707  10.507
70103W        W35330  25.163   7.856  12.119
70104W        W35331  19.799   5.882   3.501
70105W        W35332  39.324  36.022  12.234
70106W        W35333  40.328   9.628  13.843
70107W        W35334   8.202  43.492  11.008
70108W        W35335  29.058   4.209  10.652
70109W        W35336  21.494  35.468   1.639
70110W        W35337  40.058  32.857   0.428
70111W        W35338  33.819  10.243  11.100
70112W        W35339  42.066   2.542   0.441
70113W        W35340  36.759  26.087   0.943
70114W        W35341  22.580  21.261   0.884
70115W        W35342  10.405   5.995   1.837
70116W        W35343  38.331  10.713   0.813
70117W        W35344  24.206  11.793  10.676
70118W        W35345  42.499   6.648  14.488
70119W        W35346   7.036  29.611   4.171
70120W        W35347  27.120  31.438   3.003
70121W        W35348  17.130  31.901  10.855
70122W        W35349  23.578  14.796   3.111
70123W        W35350  25.774  34.041  11.564
70124W        W35351   7.692  44.323   2.816
70125W        W35352  43.729  33.398  10.828
70126W        W35353  12.223  20.131  11.652
70127W        W35354  16.559  43.895  14.449
70128W        W35355  20.099  10.937   0.798
70129W        W35356  30.192   3.292  12.650
70130W        W35357   1.505  13.954  14.290
70131W        W35358  15.521   4.272  13.840
70132W        W35359  35.856  36.107   2.673
70133W        W35360  35.820  23.224   1.672
70134W        W35361  36.997   6.639   2.290
70135W        W35362  22.075  38.491   0.256
70136W        W35363  34.246  17.697   3.828
70137W        W35364  27.370   3.606   3.268
70138W        W35365  12.253  19.396  14.889
70139W        W35366  33.570  40.508   4.728
70140W        W35367  19.083  20.495  14.354
70141W        W35368   4.300  15.822  13.581
70142W        W35369   1.434   3.703  11.228
70143W        W35370  44.777  11.320   0.923
70144W        W35371  41.934   9.422   2.199
70145W        W35372  34.746  40.314   1.420
70146W        W35373  33.228   0.880  12.100
70147W        W35374   5.413  16.456  10.696
70148W        W35375  43.726  26.943  13.619
70149W        W35376  35.298  16.550  11.079
70150W        W35377   0.437  29.760   0.881
70151W        W35378  38.865   8.177  11.978
70152W        W35379  26.398  43.945   5.022
70153W        W35380   6.025   4.028   3.171
70154W        W35381   7.655  34.837   0.194
70155W        W35382   2.319  17.210  11.996
70156W        W35383  35.763   1.747   4.547
70157W        W35384  24.755  32.413   1.700
70158W        W35385  10.995  20.548  11.817
70159W        W35386  25.620  24.230   3.455
70160W        W35387  32.040  32.335   0.783
70161W        W35388   1.777  34.671   4.666
70162W        W35389  20.981  29.117   4.424
70163W        W35390   4.807  26.104   3.126
70164W        W35391  11.071  41.734   1.361
70165W        W35392  40.200  26.537   4.184
70166W        W35393  39.835   4.622   3.242
70167W        W35394   6.115   3.296   0.368
70168W        W35395  27.777  35.511   4.341
70169W        W35396  15.886  32.702   5.040
70170W        W35397  20.928  17.496   0.512
70171W        W35398  34.447  18.756  14.329
70172W        W35399  15.378  29.859   3.374
70173W        W35400  26.705  33.553   2.654
70174W        W35401   5.224  36.094   4.043
70175W        W35402  14.063  32.376   2.740
70176W        W35403  12.291  12.838   3.965
70177W        W35404   3.236  29.583   1.153
70178W        W35405  30.470  35.228   2.852
70179W        W35406   8.775  38.766  12.303
70180W        W35407   0.459   5.959   0.953
70181W        W35408  39.077   8.478  12.998
70182W        W35409  31.941   1.518   4.086
70183W        W35410   4.190  35.116  11.276
70184W        W35411  20.422  44.538  14.084
70185W        W35412  20.576  21.585  14.508
70186W        W35413  42.448  38.059  14.420
70187W        W35414  30.481  22.543  14.991
70188W        W35415  34.244  32.133  12.096
70189W        W35416  41.291  10.133   0.042
70190W        W35417  18.928  13.564   3.908
70191W        W35418   2.848  44.556   2.353
70192W        W35419  13.070  28.833   1.347
70193W        W35420  35.489  38.460   1.928
70194W        W35421  14.648  33.834  13.203
70195W        W35422   6.719  10.383  13.853
70196W        W35423   3.263  27.427   2.834
70197W        W35424  41.002  22.878   0.373
70198W        W35425  13.972  31.374  13.088
70199W        W35426   0.099  33.735   3.727
70200W        W35427   3.137   2.008  11.087
70201W        W35428  13.024   6.671   4.299
70202W        W35429  20.497  22.160   0.015
70203W        W35430  24.459   3.839   4.248
70204W        W35431  33.608   7.401  12.981
70205W        W35432  16.372  10.452   2.403
70206W        W35433  28.798  12.641   3.163
70207W        W35434  31.477  39.356   2.799
70208W        W35435  39.953  10.574   3.113
70209W        W35436  33.885  31.908  14.253
70210W        W35437   9.327  22.307   0.895
70211W        W35438  34.020  39.863   1.849
70212W        W35439   1.476  17.193  12.848
70213W        W35440  29.971  26.943   2.998
70214W        W35441  34.880  37.565   3.353
70215W        W35442  10.691   8.365   2.904
70216W        W35443  28.946   2.435  14.402
70217W        W35444  22.108   6.714  12.634
70218W        W35445  16.105   2.236  13.988
70219W        W35446  19.685  35.479   3.492
70220W        W35447  11.448  15.255   3.231
70221W        W35448  14.754  41.910   1.932
70222W        W35449  40.440  37.550   3.233
70223W        W35450  17.876  23.629  10.969
70224W        W35451  10.929  31.886   2.765
70225W        W35452  31.021  14.791   2.740
70226W        W35453  27.512  18.481   2.259
70227W        W35454  11.655  10.146   3.391
70228W        W35455  13.636  43.779   4.209
70229W        W35456  19.613  10.375   2.758
70230W        W35457  32.510  20.815   1.378
70231W        W35458   1.795  25.172  12.836
70232W        W35459  30.132  12.773   2.173
70233W        W35460  10.252  18.626  11.871
70234W        W35461  34.350   3.270  12.989
70235W        W35462   6.224   5.472   3.709
70236W        W35463  30.901  31.190  11.047
70237W        W35464  10.454   0.186  11.106
70238W        W35465   5.201  14.731  13.000
70239W        W35466  43.520   0.362  13.113
70240W        W35467   5.300   4.372  14.942
70241W        W35468   8.392  16.500   2.352
70242W        W35469   6.893   4.858   2.320
70243W        W35470   4.209  15.094  14.280
70244W        W35471  25.386  18.791   4.695
70245W        W35472   4.465  32.080   3.930
70246W        W35473  41.371   0.154   3.162
70247W        W35474  38.937  10.912  10.725
70248W        W35475   1.267  28.442   1.206
70249W        W35476  44.258  36.119  14.744
70250W        W35477  40.217  42.454  10.737
70251W        W35478  26.444  14.380   2.162
70252W        W35479  10.920  36.155  13.010
70253W        W35480  38.799  16.147  11.482
70254W        W35481  27.720  41.796  11.176
70255W        W35482  24.017  31.630   3.683
70256W        W35483  24.173  18.522   1.201
70257W        W35484  35.738  30.874  13.842
70258W        W35485   9.147  42.600  12.147
70259W        W35486  29.111  35.094  13.993
70260W        W35487  22.176  22.705   2.700
70261W        W35488  13.358   4.455   3.834
70262W        W35489  10.670  36.033  11.157
70263W        W35490  36.943  44.220  11.640
70264W        W35491  27.607  44.171   0.961
70265W        W35492  41.753   3.619   2.700
70266W        W35493  20.956  28.508  14.104
70267W        W35494  33.114   9.889  13.322
70268W        W35495  27.248  21.742  12.876
70269W        W35496  17.551   7.247  14.465
70270W        W35497  34.621  30.492   2.817
70271W        W35498  14.961  40.958   2.733
70272W        W35499  23.461  10.425   0.932
70273W        W35500  22.229   8.119   3.617
70274W        W35501   4.425  28.050  10.738
70275W        W35502   5.234  27.521  14.514
70276W        W35503  32.467   4.718  13.863
70277W        W35504   0.606  39.829  12.813
70278W        W35505  31.416  35.993   0.961
70279W        W35506  44.022   0.930   0.810
70280W        W35507  40.459  36.924  12.593
70281W        W35508  30.575  15.558   2.555
70282W        W35509  40.629   1.144   0.849
70283W        W35510   4.502   5.984  12.976
70284W        W35511  42.061  18.103   1.272
70285W        W35512  28.943  38.044   1.621
70286W        W35513  26.716   1.912   1.396
70287W        W35514  24.592  24.181  11.721
70288W        W35515  17.121   8.206   3.187
70289W        W35516  40.221  24.476  12.915
70290W        W35517   4.240   6.298   3.666
70291W        W35518  25.190   3.696  14.931
70292W        W35519   2.868   8.386   1.432
70293W        W35520  30.418  23.909  10.124
70294W        W35521  37.987   2.837   9.642
70295W        W35522   0.444   9.411  13.585
70296W        W35523  12.693  36.955  10.593
70297W        W35524  41.804  44.258   0.787
70298W        W35525   1.536  34.654  10.725
70299W        W35526   6.164  42.009  10.613
70300W        W35527  29.465  14.809   0.371
70301W        W35528   9.841  17.936  11.035
70302W        W35529  38.453  44.372   1.395
70303W        W35530  31.598  13.455   3.692
70304W        W35531   0.241   2.427  11.767
70305W        W35532  31.288  12.579   1.410
70306W        W35533  37.877   0.937  14.053
70307W        W35534  42.350  34.882  11.687
70308W        W35535  42.097  22.270  12.071
70309W        W35536  15.261   2.519  12.520
70310W        W35537  15.231  36.581   4.729
70311W        W35538  17.372  28.698   0.035
70312W        W35539  40.510  43.626   2.467
70313W        W35540   4.957  30.117   4.498
70314W        W35541  39.860   8.459   1.012
70315W        W35542  30.550   2.662  12.906
70316W        W35543   3.801  22.897   0.402
70317W        W35544   0.370  28.126   2.753
70318W        W35545  11.926  31.246   5.455
70319W        W35546  41.783  37.022   1.640
70320W        W35547   9.368  26.593  11.245
70321W        W35548  28.167  18.083  11.207
70322W        W35549  30.974  22.186  13.680
70323W        W35550   9.813  38.803  10.248
70324W        W35551   6.515  44.373  12.612
70325W        W35552  20.359  15.819  13.846
70326W        W35553   7.122  37.993   2.341
70327W        W35554  22.231  34.053  12.866
70328W        W35555  13.652  20.080  12.131
70329W        W35556  27.848  42.879   4.150
70330W        W35557   3.043  35.212  12.921
70331W        W35558   6.351  38.586  10.657
70332W        W35559  38.540   4.647  13.019
70333W        W35560  28.976  23.759   3.594
70334W        W35561  22.981  14.707  11.202
70335W        W35562  16.838  36.905  12.056
70336W        W35563  33.226  12.707   9.891
70337W        W35564  27.189  33.079   2.244
70338W        W35565  30.365  12.315  13.090
70339W        W35566   3.255  30.453  11.778
70340W        W35567  19.248  37.872   2.567
70341W        W35568  44.904  43.569  13.930
70342W        W35569  39.952  36.641   4.089
70343W        W35570  15.190  31.233  11.337
70344W        W35571   6.725   7.202   2.324
70345W        W35572  32.921  19.641   3.254
70346W        W35573  34.584  21.088   0.584
70347W        W35574  10.412  42.611  14.353
70348W        W35575  28.159  18.989   2.859
70349W        W35576  23.073  18.456  12.363
70350W        W35577  12.181  15.354  14.467
70351W        W35578  24.083  44.932   4.024
70352W        W35579  35.521  20.456   3.516
70353W        W35580  28.673  10.197   1.236
70354W        W35581  19.146  27.381   3.910
70355W        W35582  25.002  43.996  13.322
70356W        W35583   6.968  15.906  12.956
70357W        W35584  27.161  13.663   4.896
70358W        W35585  21.273  43.625  14.643
70359W        W35586  30.849   0.317   4.774
70360W        W35587  23.241  40.909   0.906
70361W        W35588  41.922  19.813   1.748
70362W        W35589  41.762   9.378   3.670
70363W        W35590  18.440   9.243  13.435
70364W        W35591  11.410  32.220  14.722
70365W        W35592  29.567  24.756  11.150
70366W        W35593   2.711  19.142   1.722
70367W        W35594  38.033  44.790  10.573
70368W        W35595  15.274  25.680   2.533
70369W        W35596  20.959  27.090  11.589
70370W        W35597  10.167  17.370  12.550
70371W        W35598   2.839  41.868   0.795
70372W        W35599  14.704  11.398  11.632
70373W        W35600  33.923  26.909  12.026
70374W        W35601  27.457  29.966  11.536
70375W        W35602  25.996  11.796   4.098
70376W        W35603  33.742  36.682   9.978
70377W        W35604  43.087  41.361  13.377
70378W        W35605   7.807  22.180  13.068
70379W        W35606   4.742  42.976  11.543
70380W        W35607  31.415  31.685   5.131
70381W        W35608  12.182   3.825  12.264
70382W        W35609   1.645  10.274  13.955
70383W        W35610   6.810  39.141  14.101
70384W        W35611   3.356  25.142   4.490
70385W        W35612  30.955  30.178  11.054
70386W        W35613  14.445  19.477  12.095
70387W        W35614  13.654  36.076  11.975
70388W        W35615   2.476   5.478  12.116
70389W        W35616  42.461   2.406   1.786
70390W        W35617   9.317  25.185   3.378
70391W        W35618  21.436   2.332  12.823
70392W        W35619   5.527   1.298   3.712
70393W        W35620  42.783  24.631   2.669
70394W        W35621   9.224   7.645   2.961
70395W        W35622  29.017  16.570   0.312
70396W        W35623  30.466  41.583   3.259
70397W        W35624   1.186  12.224   0.737
70398W        W35625   5.035  41.552   0.538
70399W        W35626  11.564  18.497   1.878
70400W        W35627  41.561  21.380  10.777
70401W        W35628  31.150  23.644  13.985
70402W        W35629   6.323   4.179   4.637
70403W        W35630  22.015  33.570  12.978
70404W        W35631   8.922  24.976  14.928
70405W        W35632  19.722  43.078   1.196
70406W        W35633  14.850  11.872   3.072
70407W        W35634  44.888  33.625   2.744
70408W        W35635  25.370   7.683   0.009
70409W        W35636  40.734  20.205  13.446
70410W        W35637  22.572  41.920  12.983
70411W        W35638  12.579  30.723   5.198
70412W        W35639   7.240  44.211   0.198
70413W        W35640  16.522  23.471   0.927
70414W        W35641  25.051  43.928  14.334
70415W        W35642   0.339  32.880  13.296
70416W        W35643  26.964   6.856  11.166
70417W        W35644  17.507  20.838  13.522
70418W        W35645  24.444  33.814   2.813
70419W        W35646  34.094  11.368   0.308
70420W        W35647   6.790  41.903   1.279
70421W        W35648   3.177  15.347  14.962
70422W        W35649  32.130  11.933  14.275
70423W        W35650   1.686  17.981   3.334
70424W        W35651  34.405   4.465  14.802
70425W        W35652   5.018  24.772  12.090
70426W        W35653  34.137  30.051   1.621
70427W        W35654  41.577  23.129  14.000
70428W        W35655  40.840  27.542  14.527
70429W        W35656  28.259  35.541  14.741
70430W        W35657  22.188  18.721  13.436
70431W        W35658  20.698  14.135   3.698
70432W        W35659  31.108  14.201   0.917
70433W        W35660  32.163  26.479  12.622
70434W        W35661  44.299  19.262   1.871
70435W        W35662   9.266  27.172   0.893
70436W        W35663   2.244  30.457   0.342
70437W        W35664  38.892   1.304  12.475
70438W        W35665   4.885  43.885   1.687
70439W        W35666  21.370   6.140   2.803
70440W        W35667   3.377   8.129  13.157
70441W        W35668  32.248  29.760   2.191
70442W        W35669  28.952  16.258  11.406
70443W        W35670  30.090  34.599   0.737
70444W        W35671  43.018  16.268  10.650
70445W        W35672   2.372  27.691   2.217
70446W        W35673   2.115  33.634   2.234
70447W        W35674  43.303  12.997   1.989
70448W        W35675  30.892  39.290   1.778
70449W        W35676  37.389   8.329   1.863
70450W        W35677  44.447  28.037  13.975
70451W        W35678  34.544  17.217   3.785
70452W        W35679  29.879  15.148   3.150
70453W        W35680  12.266  31.224   0.688
70454W        W35681   8.223  44.723  13.127
70455W        W35682  18.116  26.909  14.836
70456W        W35683  14.338  36.648   4.091
70457W        W35684  20.063  19.788  11.294
70458W        W35685  15.775  17.591   1.304
70459W        W35686   9.158  33.231   4.756
70460W        W35687  32.079  41.825   3.061
70461W        W35688  40.573  33.353   5.011
70462W        W35689  35.823  37.321   2.189
70463W        W35690  16.604  39.169  12.665
70464W        W35691  34.448  31.634   4.438
70465W        W35692  30.475  32.045  14.594
70466W        W35693   1.714  16.631   0.460
70467W        W35694   0.363  18.516  12.064
70468W        W35695   1.202  27.734   1.855
70469W        W35696  43.365  14.781   1.657
70470W        W35697  33.037   2.305   2.423
70471W        W35698   7.426  39.413  14.754
70472W        W35699  18.164   3.433  11.210
70473W        W35700  32.486   8.291  14.986
70474W        W35701  36.090   0.793   3.154
70475W        W35702   3.246  38.964  10.692
70476W        W35703  39.349  10.247   1.238
70477W        W35704  42.841   5.667  14.002
70478W        W35705  37.599  13.411   2.263
70479W        W35706   9.595  23.483   4.028
70480W        W35707  18.527  25.773  14.110
70481W        W35708  10.909  17.948  14.594
70482W        W35709  35.390  23.472  12.627
70483W        W35710   0.891   9.584  11.605
70484W        W35711  32.434  29.058   4.243
70485W        W35712  10.502  39.496  13.551
70486W        W35713  42.868  44.881   1.398
70487W        W35714   4.219  27.981   3.317
70488W        W35715   3.722   3.401  10.434
70489W        W35716   4.362   5.691   2.421
70490W        W35717   5.189  19.695  10.506
70491W        W35718  33.831   1.244  13.221
70492W        W35719  13.825  26.088   0.078
70493W        W35720   7.189  18.550  13.786
70494W        W35721   4.926  18.641   0.441
70495W        W35722  30.916  13.680  13.601
70496W        W35723  22.612   7.680  11.866
70497W        W35724  42.073  24.385  11.633
70498W        W35725  40.967  31.518  13.418
70499W        W35726  37.979   6.921   4.080
70500W        W35727  30.807  18.879  11.976
70501W        W35728  22.048  23.061   0.027
70502W        W35729  21.143  25.549   3.106
70503W        W35730  10.592  42.043   2.301
70504W        W35731  19.052  28.417  12.603
70505W        W35732  10.917  38.490   0.868
70506W        W35733  19.829  19.625  14.489
70507W        W35734  18.683  26.713   2.729
70508W        W35735  22.463   8.970   0.072
70509W        W35736  32.482   6.157  11.447
70510W        W35737  24.297  10.689  11.158
70511W        W35738  26.609  17.309  13.908
70512W        W35739  28.200   8.885  14.234
70513W        W35740  18.061   5.826  13.041
70514W        W35741  37.564  19.297  12.676
70515W        W35742  37.477  34.035   2.442
70516W        W35743  26.839  13.059  11.035
70517W        W35744  33.651  29.941  11.844
70518W        W35745  34.654  12.613   1.905
70519W        W35746  28.500   2.774   1.366
70520W        W35747  31.130  36.415  14.712
70521W        W35748  44.838  41.892  10.611
70522W        W35749  23.444  33.498  11.722
70523W        W35750  41.873  29.818   4.957
70524W        W35751  16.128  34.678  14.399
70525W        W35752   2.950  36.765   2.609
70526W        W35753  40.086   1.003   2.271
70527W        W35754   8.127   8.908  14.351
70528W        W35755   8.324  35.379  10.759
70529W        W35756   3.145   5.711   4.579
70530W        W35757  23.423  24.217   3.304
70531W        W35758   5.482   4.789   4.672
70532W        W35759  34.602  17.375   4.916
70533W        W35760  26.901  10.046   1.773
70534W        W35761  39.629  39.718  12.486
70535W        W35762  31.657  25.104   1.241
70536W        W35763  27.417  15.262   3.738
70537W        W35764  12.207  21.805   4.770
70538W        W35765   2.593  20.018   4.089
70539W        W35766   8.780  22.190   2.751
70540W        W35767  19.831  33.018   0.543
70541W        W35768  38.112  19.245   1.698
70542W        W35769  24.099  37.111  14.328
70543W        W35770  40.715  32.845  14.120
70544W        W35771  18.652  24.709  12.420
70545W        W35772  21.576  22.040   3.763
70546W        W35773  26.840  29.807   3.801
70547W        W35774  24.555   3.357  10.780
70548W        W35775  33.358  33.412  11.132
70549W        W35776  14.754  11.122   3.645
70550W        W35777  41.373   7.935  11.577
70551W        W35778  43.213  31.175  12.962
70552W        W35779  14.512  19.262   3.238
70553W        W35780  23.609   4.434   4.533
70554W        W35781  12.129  23.716   4.313
70555W        W35782  40.845  23.290  11.836
70556W        W35783  36.170  39.005   0.986
70557W        W35784  11.076   4.894  14.102
70558W        W35785  10.209   4.811  10.522
70559W        W35786  23.824   5.760   3.825
70560W        W35787  38.483  22.768   1.301
70561W        W35788  13.919  29.501  14.340
70562W        W35789  26.967  43.795  13.902
70563W        W35790  21.898  40.167  11.144
70564W        W35791   7.821  32.610   3.230
70565W        W35792  12.377  18.708   2.849
70566W        W35793  43.858  33.707  12.881
70567W        W35794  11.851  13.673  13.513
70568W        W35795  16.233   7.134  12.004
70569W        W35796  23.178  30.798   4.111
70570W        W35797  22.090  16.984   3.951
70571W        W35798  17.984   5.214   1.703
70572W        W35799  24.042   1.667  12.803
70573W        W35800  44.676   1.650  10.622
70574W        W35801  19.687  26.618   3.227
70575W        W35802  25.612  43.830  12.427
70576W        W35803   8.403  23.625  12.573
70577W        W35804  36.628  30.928   2.086
70578W        W35805   4.869  21.055  14.353
70579W        W35806  43.493  37.028   0.993
70580W        W35807  33.025  17.986  11.270
70581W        W35808  37.431  43.703  12.356
70582W        W35809   3.200  25.143   3.632
70583W        W35810   5.292  12.174   3.428
70584W        W35811   4.224  22.065  14.860
70585W        W35812  14.122  38.084  13.977
70586W        W35813  20.803  13.815  10.558
70587W        W35814  28.705   0.707  13.434
70588W        W35815  38.295   3.175   5.470
70589W        W35816  17.876  44.459   0.023
70590W        W35817  31.997  34.882  12.960
70591W        W35818  26.979  31.610  11.035
70592W        W35819   8.334  31.968  13.343
70593W        W35820  12.322  21.012  11.204
70594W        W35821   9.275   3.753   3.191
70595W        W35822  36.801   1.759   9.987
70596W        W35823   9.927  17.286  14.943
70597W        W35824  38.997  37.773   0.285
70598W        W35825   7.087  42.047   0.439
70599W        W35826  23.556  14.496  10.748
70600W        W35827  15.499  14.864   0.823
70601W        W35828   6.705  25.045   3.091
70602W        W35829  13.796  11.913   1.802
70603W        W35830  42.037  30.362  10.605
70604W        W35831  28.531  16.231   3.681
70605W        W35832  23.591  15.263  12.239
70606W        W35833  26.295  41.941   4.982
70607W        W35834  10.330  43.282   4.057
70608W        W35835  43.778  10.995   2.203
70609W        W35836   4.892  17.953  11.557
70610W        W35837  18.789  41.111  14.387
70611W        W35838  31.425   6.769  14.849
70612W        W35839   0.980   7.843   3.080
70613W        W35840  41.298  32.065   0.192
70614W        W35841  36.198  26.476   4.493
70615W        W35842   6.402  33.519   4.184
70616W        W35843  27.505  20.513  14.740
70617W        W35844  27.179  31.480   2.104
70618W        W35845  20.497  12.646  14.486
70619W        W35846  17.757  33.845   0.030
70620W        W35847   6.392  41.831   3.716
70621W        W35848  24.726  34.327  11.118
70622W        W35849  15.514  42.832   5.110
70623W        W35850   4.625  36.328  11.272
70624W        W35851  43.344  24.811   3.936
70625W        W35852  12.193  19.969   2.000
70626W        W35853   6.715  26.734  11.566
70627W        W35854  36.436   7.266   4.442
70628W        W35855  34.666  38.439  13.653
70629W        W35856  39.133  34.794  11.566
70630W        W35857   4.225   7.493  13.012
70631W        W35858  40.089   4.289  12.126
70632W        W35859   4.625  13.149   0.321
70633W        W35860  17.417   1.092   2.204
70634W        W35861  37.042   0.978   1.433
70635W        W35862   2.917  29.007   4.687
70636W        W35863  30.895   2.702  14.507
70637W        W35864   5.781  13.388   2.146
70638W        W35865  40.349  20.570  14.110
70639W        W35866  11.205  39.043  13.253
70640W        W35867  22.176  35.276   1.771
70641W        W35868   2.796  27.488   3.557
70642W        W35869  35.084  19.591   2.730
70643W        W35870  43.775   5.300  11.165
70644W        W35871  40.551  12.801   4.230
70645W        W35872  34.964  38.942  14.938
70646W        W35873  39.536  23.536  10.701
70647W        W35874  38.997  11.281   2.822
70648W        W35875  11.674  27.712  12.075
70649W        W35876   4.639  38.282   1.668
70650W        W35877  41.137  43.639   0.436
70651W        W35878   8.886  31.003  14.845
70652W        W35879  30.761  12.757  13.240
70653W        W35880  23.963  19.729   2.121
70654W        W35881  20.348   0.154   2.188
70655W        W35882  37.478  36.644   0.678
70656W        W35883  24.362  25.963  14.376
70657W        W35884  12.700  31.893   0.303
70658W        W35885  13.188  32.977  13.888
70659W        W35886   8.638  18.429   3.232
70660W        W35887  11.453  35.245   0.259
70661W        W35888  21.616  41.340   0.382
70662W        W35889  29.588  28.492  13.890
70663W        W35890  15.479  39.522  13.110
70664W        W35891  19.725  18.168  13.562
70665W        W35892   8.289  38.066  12.618
70666W        W35893  37.047  43.484  12.094
70667W        W35894  18.027  35.091   4.605
70668W        W35895  11.518  39.437   1.531
70669W        W35896   6.186  25.039   3.131
70670W        W35897  30.705  22.950   3.685
70671W        W35898  26.019  40.639  13.004
70672W        W35899  25.681  31.666  14.423
70673W        W35900   8.478  32.517  12.538
70674W        W35901  21.750  38.039  13.481
70675W        W35902   4.886   5.976   0.718
70676W        W35903  13.016  26.438   3.233
70677W        W35904  25.454  21.926   4.892
70678W        W35905  28.819  37.988   4.648
70679W        W35906  37.273  34.817  13.454
70680W        W35907   8.167  27.426  11.169
70681W        W35908  10.650  42.073  12.034
70682W        W35909   5.229  26.025   0.075
70683W        W35910  37.025   7.614  11.952
70684W        W35911  35.523  13.982   4.030
70685W        W35912   0.760  18.510  10.785
70686W        W35913   0.138  23.499   0.105
70687W        W35914  13.151  29.716  13.364
70688W        W35915   2.863  31.105   2.904
70689W        W35916   3.770  43.007   2.727
70690W        W35917  16.240  41.477   1.441
70691W        W35918  43.449  37.168  12.407
70692W        W35919  39.325  44.177   4.586
70693W        W35920   0.844  16.604  13.899
70694W        W35921  12.787  21.402   2.906
70695W        W35922  32.518  31.159  14.425
70696W        W35923  39.164  23.420   0.490
70697W        W35924   7.860  35.359  13.392
70698W        W35925  22.250   7.324  11.113
70699W        W35926  39.649  14.417   5.044
70700W        W35927  29.919  43.055   0.720
70701W        W35928  26.466  26.025   3.878
70702W        W35929   1.128  15.423   2.687
70703W        W35930   6.746  27.681  10.735
70704W        W35931   4.312  42.677   1.374
70705W        W35932   4.692  27.216   2.130
70706W        W35933  12.180  40.441   1.787
70707W        W35934   1.060  23.550  11.494
70708W        W35935  42.039  25.616   3.216
70709W        W35936  36.975  31.201   1.820
70710W        W35937  10.084  28.564   4.647
70711W        W35938   9.907  32.988   1.933
70712W        W35939   9.831  14.149   4.318
70713W        W35940  11.673   6.020  12.380
70714W        W35941  21.658  25.144   3.821
70715W        W35942   5.404  29.767   2.827
70716W        W35943   2.904   5.887   4.146
70717W        W35944  11.759   8.508  13.051
70718W        W35945  19.458  28.492   4.121
70719W        W35946  15.971  28.194   1.089
70720W        W35947  32.140  32.098   2.390
70721W        W35948  38.599   2.858   4.241
70722W        W35949  13.698  33.837   1.379
70723W        W35950  22.136  31.528  14.154
70724W        W35951  15.745   1.003  13.991
70725W        W35952  20.043  21.120  12.968
70726W        W35953  38.557   5.595  13.205
70727W        W35954  11.020  43.314  13.928
70728W        W35955  28.406   2.270  12.519
70729W        W35956  36.683   1.781  11.958
70730W        W35957  31.009  25.868  13.895
70731W        W35958  36.103   5.211  10.591
70732W        W35959  41.407  39.303   4.518
70733W        W35960  18.609  33.464   0.989
70734W        W35961  17.856  31.170   1.275
70735W        W35962  32.284   4.621  13.373
70736W        W35963  22.590  26.707  12.145
70737W        W35964  41.253  24.272   1.755
70738W        W35965  10.538  17.418  10.782
70739W        W35966  23.017  21.071  13.936
70740W        W35967   3.223  35.914  11.861
70741W        W35968  14.242  36.489   3.584
70742W        W35969  23.115  21.193   3.258
70743W        W35970  31.467  20.717  13.962
70744W        W35971  24.587   9.275   2.081
70745W        W35972  15.576  20.748   2.325
70746W        W35973  12.721  26.859   2.678
70747W        W35974  23.688  20.565   0.609
70748W        W35975  26.505   8.251   2.296
70749W        W35976  42.936  37.598   1.617
70750W        W35977   6.699  41.662  11.599
70751W        W35978  31.523  25.529  10.208
70752W        W35979   6.641  11.275  14.935
70753W        W35980   2.278  31.314   9.830
70754W        W35981  44.984  17.171   1.699
70755W        W35982  39.409  27.914   4.707
70756W        W35983  27.990  16.172  11.567
70757W        W35984   1.290  35.806   4.246
70758W        W35985  14.931  36.898  13.734
70759W        W35986   9.154  44.990   4.199
70760W        W35987  12.616  36.728  13.404
70761W        W35988  40.654  26.997  13.894
70762W        W35989  33.698  11.578   4.857
70763W        W35990  44.922  39.295  14.385
70764W        W35991  12.348  31.378  11.165
70765W        W35992  42.797  23.482  13.444
70766W        W35993  28.341  17.083  13.758
70767W        W35994  30.331   5.949   2.728
70768W        W35995   4.305  37.098  10.971
70769W        W35996  43.581  22.768   0.361
70770W        W35997   4.199   2.098   4.568
70771W        W35998  39.965  37.604  14.752
70772W        W35999  17.027  29.092  13.736
70773W        W36000   9.905  13.537  13.446
70774W        W36001   5.802  43.899   1.433
70775W        W36002  44.679  32.056   2.639
70776W        W36003  44.218  17.452   2.904
70777W        W36004  39.606  35.908  14.525
70778W        W36005  10.605  14.250  13.416
70779W        W36006  43.741  38.342   3.609
70780W        W36007  19.140   0.960   0.358
70781W        W36008   6.378  12.669   2.595
70782W        W36009  24.528  12.224   4.572
70783W        W36010  37.061  38.768   0.827
70784W        W36011  11.787  31.005  12.425
70785W        W36012  31.808  14.920  14.881
70786W        W36013  18.823   2.188   3.687
70787W        W36014   3.857   1.538  10.723
70788W        W36015  37.373   4.747   1.171
70789W        W36016  43.687  30.262  12.543
70790W        W36017   2.040  11.228   4.440
70791W        W36018  16.618  13.083   1.827
70792W        W36019   9.293   6.743   1.874
70793W        W36020   9.095  27.138  14.489
70794W        W36021   4.284  39.427  13.387
70795W        W36022   9.734  38.929  14.436
70796W        W36023  20.534  42.942   0.742
70797W        W36024  22.993  11.168   0.410
70798W        W36025  24.266   6.220   3.615
70799W        W36026  35.850  20.548  14.924
70800W        W36027   5.835  32.670  12.285
70801W        W36028  18.550  30.685  14.749
70802W        W36029   5.763   5.670  13.407
70803W        W36030  31.028  35.905  12.891
70804W        W36031  20.561  43.654   2.452
70805W        W36032  14.486  38.014   0.712
70806W        W36033  32.446  15.567  12.562
70807W        W36034  38.944   9.474  13.880
70808W        W36035  16.597   5.501   2.760
70809W        W36036  17.967   7.116  11.449
70810W        W36037  12.278  31.795   4.496
70811W        W36038  40.847  40.116   0.821
70812W        W36039  40.293  44.015  12.436
70813W        W36040  34.478   8.889   2.276
70814W        W36041  11.311   5.879  13.987
70815W        W36042  20.978  32.584   2.951
70816W        W36043  34.213  41.430  13.807
70817W        W36044  37.631   5.430  14.022
70818W        W36045  31.307  33.959   0.112
70819W        W36046  25.252   5.377  14.729
70820W        W36047   4.448  31.850  12.534
70821W        W36048  20.989  21.382   2.231
70822W        W36049  32.082   7.351   2.254
70823W        W36050  43.818  22.324  11.110
70824W        W36051  20.105  11.539   1.260
70825W        W36052  36.483  27.226   0.247
70826W        W36053   3.478   9.827  11.462
70827W        W36054  14.072   2.293  14.963
70828W        W36055   2.658  44.987  14.459
70829W        W36056  33.056  29.487  12.940
70830W        W36057  28.237  37.066   9.812
70831W        W36058  32.869  39.104  13.582
70832W        W36059  26.238  38.987  14.504
70833W        W36060  39.974  34.693  13.283
70834W        W36061   6.769   5.810   0.276
70835W        W36062  15.954   0.596   3.209
70836W        W36063  32.670   1.919  13.532
70837W        W36064  20.199  27.228  13.342
70838W        W36065  15.559  44.491  13.773
70839W        W36066  37.011  13.113   4.435
70840W        W36067  14.327  42.099   4.574
70841W        W36068  31.949  16.035   3.267
70842W        W36069  13.389  16.354   2.853
70843W        W36070  22.378   0.862   1.699
70844W        W36071  33.062  31.333  11.165
70845W        W36072  33.057   1.839   3.238
70846W        W36073  18.196  10.652  13.792
70847W        W36074  31.122   4.340   0.973
70848W        W36075  36.603   6.344   0.150
70849W        W36076  14.931  31.954   0.254
70850W        W36077  43.496  13.364  10.790
70851W        W36078   8.823  20.334   4.881
70852W        W36079  13.220  36.114   3.149
70853W        W36080  24.757  16.677   3.164
70854W        W36081  25.443  29.093   4.186
70855W        W36082  44.579  38.965   0.397
70856W        W36083  17.583  14.175   3.153
70857W        W36084  37.610  39.299   3.901
70858W        W36085   2.341   1.189  12.097
70859W        W36086  13.506  39.180   4.446
70860W        W36087  28.534   3.379  13.249
70861W        W36088  20.635  13.335  13.327
70862W        W36089  30.981  13.356   1.174
70863W        W36090  36.459  29.458  10.829
70864W        W36091  37.364  35.857  13.446
70865W        W36092  40.408  41.070   1.092
70866W        W36093  41.314  31.379   4.029
70867W        W36094  22.400  43.306  11.254
70868W        W36095   0.905   0.964   0.663
70869W        W36096  39.891  34.867  13.931
70870W        W36097   6.178  42.912  10.617
70871W        W36098  25.933   1.841   3.274
70872W        W36099  30.143  11.936   3.009
70873W        W36100  25.995  27.625  14.870
70874W        W36101  37.604  11.765   3.664
70875W        W36102  40.486  23.723   0.370
70876W        W36103  13.930  30.008   4.837
70877W        W36104   4.279  13.600   3.352
70878W        W36105  19.303   6.157  11.527
70879W        W36106  10.077  14.589   4.542
70880W        W36107  23.526  12.646   1.669
70881W        W36108  15.041  14.236  13.093
70882W        W36109  38.780  32.454   4.098
70883W        W36110  43.609   0.685  10.450
70884W        W36111  19.723  39.669  13.315
70885W        W36112   5.966  31.633   3.268
70886W        W36113  33.518  17.529  12.504
70887W        W36114  26.583  27.650  13.592
70888W        W36115  40.406  30.989   2.006
70889W        W36116  42.262   9.263   3.713
70890W        W36117   3.735  16.253  12.094
70891W        W36118  13.269  41.555  14.634
70892W        W36119  10.106   5.914   4.564
70893W        W36120  26.624  15.647   0.370
70894W        W36121  38.992  25.090  11.487
70895W        W36122  17.576  22.728  14.544
70896W        W36123  15.335  39.999   2.671
70897W        W36124  41.165  28.974   0.571
70898W        W36125  24.152  11.759   1.015
70899W        W36126   1.145  23.277  14.417
70900W        W36127  23.703  33.995  10.648
70901W        W36128  32.600  44.103   1.838
70902W        W36129  40.468  37.421  10.494
70903W        W36130  41.571  24.824   3.707
70904W        W36131  18.192  31.896  12.916
70905W        W36132  28.569  22.765   2.931
70906W        W36133  28.280   4.364  12.139
70907W        W36134  35.464  26.050   1.602
70908W        W36135  19.996   6.360  14.714
70909W        W36136  10.625  12.701   0.151
70910W        W36137  29.298  33.425   3.793
70911W        W36138  39.585   6.373  13.707
70912W        W36139  42.874   4.960   0.775
70913W        W36140  24.750  39.013  11.165
70914W        W36141  26.722  16.637  10.991
70915W        W36142  26.315   3.065  12.873
70916W        W36143  20.205  13.695   3.176
70917W        W36144  24.283  41.552  10.402
70918W        W36145  14.014  31.096   0.490
70919W        W36146  39.085  18.412  10.767
70920W        W36147   1.822   3.810   3.940
70921W        W36148  23.641  40.138   1.334
70922W        W36149  39.284  21.956  12.390
70923W        W36150   6.462  26.678  13.841
70924W        W36151   8.856  18.756   2.763
70925W        W36152  17.636   8.888   0.144
70926W        W36153   2.015   7.679  14.678
70927W        W36154  35.014  34.485  14.864
70928W        W36155   1.806   2.697  11.535
70929W        W36156   6.819   6.853   1.469
70930W        W36157  16.895  22.635   4.550
70931W        W36158  40.394  21.394  14.801
70932W        W36159  40.410  40.098  13.012
70933W        W36160  38.956  34.282   3.871
70934W        W36161  37.426   1.707   1.978
70935W        W36162  44.927  12.134  12.386
70936W        W36163  38.910  16.909  11.191
70937W        W36164   2.182   4.641  13.538
70938W        W36165  16.266  21.913   1.257
70939W        W36166  43.283  32.610   1.768
70940W        W36167   8.689  37.008  13.366
70941W        W36168   5.373  30.842  11.241
70942W        W36169  23.417   2.316   0.002
70943W        W36170   7.233  29.311  12.020
70944W        W36171  26.307   5.790  10.614
70945W        W36172   0.934  19.696  14.348
70946W        W36173   3.265  38.058   0.092
70947W        W36174  34.394  28.704   2.012
70948W        W36175  24.007   3.385  11.897
70949W        W36176  22.611  11.846  12.911
70950W        W36177  44.386   9.367  11.516
70951W        W36178  42.982   6.367  12.729
70952W        W36179   7.670  23.794  14.990
70953W        W36180  23.112  28.292   2.371
70954W        W36181  38.201  25.163   0.170
70955W        W36182   7.389  37.969  11.991
70956W        W36183  42.778   6.881  13.481
70957W        W36184  38.469  21.497   3.587
70958W        W36185   0.283  37.592  11.207
70959W        W36186  37.435  14.728  14.928
70960W        W36187  10.653   1.740   0.945
70961W        W36188  18.269  11.219   4.985
70962W        W36189  25.764  19.185   0.199
70963W        W36190  23.260  13.897  11.660
70964W        W36191  15.238  19.072  13.948
70965W        W36192  15.233  10.137  13.466
70966W        W36193  23.708  41.386  10.886
70967W        W36194   1.791  40.866  14.454
70968W        W36195  17.626  22.407   0.539
70969W        W36196  32.493  27.694   0.716
70970W        W36197  29.996   1.766   0.915
70971W        W36198  44.220   3.234   1.645
70972W        W36199  32.716  35.963  13.852
70973W        W36200  40.405  40.363   3.308
70974W        W36201  42.264  27.227   1.164
70975W        W36202  24.694   6.230   4.189
70976W        W36203  35.436  42.934   2.796
70977W        W36204   7.679  13.134   0.398
70978W        W36205   8.847  44.527   4.185
70979W        W36206  20.610  20.673   1.864
70980W        W36207   0.905  22.313   5.490
70981W        W36208  44.449  25.412   2.315
70982W        W36209  42.363  14.381  10.685
70983W        W36210  24.193  27.192  10.746
70984W        W36211  18.321  23.956  11.659
70985W        W36212  34.083  35.568  14.282
70986W        W36213  17.110  29.997  12.095
70987W        W36214  40.545  43.812   0.726
70988W        W36215  26.551  22.339   4.591
70989W        W36216  17.351  26.222   4.184
70990W        W36217  26.693  24.125   0.683
70991W        W36218  11.726  12.006  11.574
70992W        W36219  41.344  17.375   4.732
70993W        W36220  11.345  25.000   0.807
70994W        W36221  34.529  13.671   4.117
70995W        W36222  40.965   1.486   2.240
70996W        W36223   8.727  12.291  11.118
70997W        W36224  16.721   0.030   3.446
70998W        W36225  14.124  27.718   4.679
70999W        W36226   6.307  26.868  12.467
71000W        W36227  14.165  44.728  10.973
71001W        W36228  11.135   3.253   1.401
71002W        W36229   6.290  39.593  14.326
71003W        W36230   5.321  20.798   2.187
71004W        W36231   7.771  32.990  11.027
71005W        W36232  39.672   8.676   0.204
71006W        W36233   3.544  15.850  12.927
71007W        W36234  42.375  20.312  10.626
71008W        W36235  16.125  22.987  13.828
71009W        W36236  20.719  30.285  14.720
71010W        W36237  13.883   9.193   0.991
71011W        W36238  23.215  26.116   1.800
71012W        W36239   4.249  12.727  11.963
71013W        W36240  13.521  22.697  13.249
71014W        W36241  18.243  24.295   2.822
71015W        W36242  13.596  30.172   1.960
71016W        W36243   9.763  44.988  13.894
71017W        W36244  20.123  31.971   1.418
71018W        W36245   5.878   4.159  10.526
71019W        W36246  43.312   0.693  13.996
71020W        W36247   6.897  30.238   4.610
71021W        W36248   8.900  27.235  10.966
71022W        W36249  42.839  14.171  11.949
71023W        W36250  43.492  36.573   3.277
71024W        W36251  36.393  28.122   0.372
71025W        W36252  12.899  25.495  11.214
71026W        W36253  12.341   3.837   4.915
71027W        W36254  12.761   3.793  10.577
71028W        W36255   0.265  34.552   4.556
71029W        W36256  24.331  44.019  12.865
71030W        W36257  31.520  30.899  14.529
71031W        W36258  28.002  37.951   0.226
71032W        W36259  26.541   2.867   0.548
71033W        W36260  25.489  22.052   3.887
71034W        W36261  38.590  35.680   0.893
71035W        W36262  24.655   1.213   2.659
71036W        W36263  42.792   7.285  13.068
71037W        W36264  44.763  36.764   2.836
71038W        W36265  17.184  13.400  12.558
71039W        W36266  42.089   5.734   2.792
71040W        W36267  36.005  28.636   2.345
71041W        W36268  44.782   3.916   2.877
71042W        W36269  19.288  27.553  10.700
71043W        W36270  43.236  30.853  13.348
71044W        W36271  14.299  40.362   3.697
71045W        W36272  36.960  13.335   4.894
71046W        W36273  24.122   4.449   2.117
71047W        W36274  39.586  26.483  10.581
71048W        W36275  32.518  23.477   1.736
71049W        W36276  11.958  34.347   4.889
71050W        W36277   0.676  20.680   1.416
71051W        W36278  11.638  10.238   0.403
71052W        W36279   0.298  18.329  11.581
71053W        W36280  32.847  32.645   1.119
71054W        W36281   1.798  12.006  12.121
71055W        W36282  27.998  39.487  13.048
71056W        W36283  28.089   6.158  10.970
71057W        W36284  29.366  26.429   2.066
71058W        W36285   0.356  24.943   0.734
71059W        W36286  31.002   8.549   3.710
71060W        W36287  27.778  11.390   0.312
71061W        W36288  40.538  10.308  13.018
71062W        W36289  23.115  19.338   1.699
71063W        W36290  36.047   3.322  11.670
71064W        W36291  23.248  13.259   3.668
71065W        W36292   0.535   5.773   4.134
71066W        W36293  15.821  28.713   4.620
71067W        W36294  34.128   8.825  10.822
71068W        W36295  25.936  36.508  12.459
71069W        W36296  37.590  15.556   0.730
71070W        W36297  19.604   8.786   0.510
71071W        W36298   1.423  19.047  12.046
71072W        W36299  36.993  40.463  11.969
71073W        W36300  39.485  17.819   2.827
71074W        W36301   5.153  32.790  11.148
71075W        W36302  44.779  25.565   0.617
71076W        W36303  36.644   1.411   4.185
71077W        W36304  11.719   8.958  13.943
71078W        W36305  10.914   9.840   0.870
71079W        W36306   9.597  44.474  11.980
71080W        W36307  40.513  27.666   2.415
71081W        W36308   7.663   6.807  13.931
71082W        W36309  18.884  39.024   3.306
71083W        W36310  27.265   1.745   4.219
71084W        W36311   0.826  41.076   3.178
71085W        W36312  24.519  12.648   2.037
71086W        W36313  31.238   8.138   3.462
71087W        W36314  11.269   8.832  11.426
71088W        W36315  34.716  10.601  12.578
71089W        W36316  32.877   8.279  12.570
71090W        W36317  28.675  34.888  12.682
71091W        W36318  33.924  44.580   4.597
71092W        W36319   2.441  16.719  12.140
71093W        W36320  43.361  20.169   0.478
71094W        W36321  21.605   2.927   2.282
71095W        W36322  30.202   6.198  10.789
71096W        W36323   9.617  41.356  12.534
71097W        W36324  41.604  17.161   0.391
71098W        W36325  25.740  28.059  12.517
71099W        W36326  40.331  13.567   1.830
71100W        W36327  44.689  42.617   3.701
71101W        W36328  24.146  28.956   3.426
71102W        W36329  21.423  21.782  13.875
71103W        W36330  38.037   6.122   3.028
71104W        W36331   8.405   2.284  11.165
71105W        W36332  43.523  35.384  11.993
71106W        W36333   2.477  10.677   0.828
71107W        W36334  34.190  20.747   4.614
71108W        W36335  30.495  35.838  10.753
71109W        W36336  32.123  42.494  14.723
71110W        W36337  29.289  25.668   4.492
71111W        W36338   0.044  38.820  13.496
71112W        W36339   7.235   2.444   3.637
71113W        W36340  27.152  18.655  11.440
71114W        W36341  44.992  38.239   2.602
71115W        W36342  12.857  16.788  13.381
71116W        W36343  36.289  43.263  13.033
71117W        W36344  33.173  31.960  14.750
71118W        W36345  10.272  37.402   3.134
71119W        W36346  38.100   9.687   1.904
71120W        W36347  31.727  41.632  12.081
71121W        W36348  21.480  39.575   2.577
71122W        W36349  21.975  11.744  13.925
71123W        W36350  44.258  28.387   4.171
71124W        W36351   2.211  14.026  10.749
71125W        W36352  42.380   2.540  13.348
71126W        W36353  27.433  31.020  10.538
71127W        W36354  14.673   4.723  13.003
71128W        W36355  13.313  20.686  12.950
71129W        W36356  32.539  41.061   2.241
71130W        W36357  15.721  27.445  10.724
71131W        W36358  34.434  41.432   1.062
71132W        W36359  35.866  32.507  12.798
71133W        W36360   8.419  23.110  12.445
71134W        W36361  34.942  24.182   3.429
71135W        W36362  35.772  23.635   3.165
71136W        W36363   6.819   4.678   0.974
71137W        W36364  11.357  12.171   1.634
71138W        W36365  36.438  36.111   1.816
71139W        W36366  16.337  19.595  11.729
71140W        W36367  27.605  16.179  14.067
71141W        W36368  10.873  14.610   1.334
71142W        W36369  14.137  33.414   3.583
71143W        W36370  26.457  20.244  11.734
71144W        W36371  26.794  16.007  14.549
71145W        W36372  11.736  17.823  11.085
71146W        W36373   2.942  17.523   2.237
71147W        W36374   6.005   9.216   3.381
71148W        W36375   2.011  27.407  12.524
71149W        W36376   8.354  35.814   0.266
71150W        W36377  39.588  44.279  14.877
71151W        W36378  39.342   7.745  10.804
71152W        W36379  44.810  12.831  11.131
71153W        W36380  27.423  42.116   0.373
71154W        W36381  15.437  13.086   4.096
71155W        W36382   4.451  38.726   1.901
71156W        W36383  43.760   4.408   3.074
71157W        W36384  31.067  16.281   0.416
71158W        W36385  21.079  44.598  10.778
71159W        W36386  33.548  41.060  14.387
71160W        W36387  30.230  42.869   3.601
71161W        W36388  23.210   4.360   1.781
71162W        W36389  22.043  39.464   2.316
71163W        W36390   0.307  37.074  11.115
71164W        W36391   5.331  19.000   4.036
71165W        W36392  32.160  39.733   1.119
71166W        W36393  14.404  38.517  13.905
71167W        W36394  35.990  30.118   1.240
71168W        W36395  26.366  19.146  13.324
71169W        W36396   6.796  23.743   4.401
71170W        W36397  28.699   9.805   0.329
71171W        W36398  26.138  38.292   1.299
71172W        W36399   7.631   7.292  13.757
71173W        W36400   1.997  33.940  13.827
71174W        W36401   0.503  39.517   4.448
71175W        W36402  32.917  20.887   1.833
71176W        W36403   1.372  11.990   2.684
71177W        W36404  43.905  11.139   4.710
71178W        W36405   2.903  12.253  11.726
71179W        W36406  32.912  37.522  10.755
71180W        W36407  12.862   7.625  12.621
71181W        W36408  11.240  19.295   1.695
71182W        W36409  33.582  30.920  12.815
71183W        W36410   3.745  17.285   1.295
71184W        W36411  15.238  13.540  11.997
71185W        W36412  30.538  34.866  10.686
71186W        W36413  31.289  25.256  13.217
71187W        W36414  19.048  34.974   2.919
71188W        W36415  18.788   6.627   3.227
71189W        W36416  25.909  24.905   2.243
71190W        W36417  25.682  39.950  12.522
71191W        W36418  22.681  39.248   0.596
71192W        W36419  18.862   8.875  14.793
71193W        W36420  20.392  22.688  11.367
71194W        W36421   8.394   8.637  14.978
71195W        W36422  23.266  39.970   1.695
71196W        W36423  33.537  36.865   2.311
71197W        W36424  11.268  25.953   1.280
71198W        W36425  13.838  42.435   3.425
71199W        W36426  26.053  10.983  13.233
71200W        W36427  38.345  13.522   1.673
71201W        W36428  35.411  32.665  11.057
71202W        W36429  11.895   8.127  12.021
71203W        W36430   1.765   8.419  13.465
71204W        W36431  23.742  22.114  14.808
71205W        W36432   2.765  10.575   2.281
71206W        W36433  17.602  36.260   2.581
71207W        W36434  28.308  32.034   0.822
71208W        W36435  13.578   2.488  14.981
71209W        W36436  38.137  43.541  13.030
71210W        W36437  43.826  28.687  10.587
71211W        W36438  24.491   5.044  13.115
71212W        W36439   2.852  26.431   1.906
71213W        W36440   4.103  21.588   3.323
71214W        W36441  43.802  16.652  13.518
71215W        W36442  13.189  10.144   0.441
71216W        W36443  21.818  42.723  13.523
71217W        W36444  10.737   1.782   4.601
71218W        W36445  26.249  34.546   2.595
71219W        W36446   2.481  41.794   2.345
71220W        W36447  37.358  29.612  11.157
71221W        W36448  27.720  23.780   0.535
71222W        W36449   7.010  29.068   0.174
71223W        W36450  32.181  29.085  14.943
71224W        W36451  43.777  10.522  12.071
71225W        W36452  22.591  13.389  13.005
71226W        W36453  33.074  42.957   1.291
71227W        W36454  41.477  37.588   0.484
71228W        W36455   8.623   5.166  12.986
71229W        W36456  44.774   9.256  14.819
71230W        W36457   7.311  33.809  11.987
71231W        W36458  34.330  25.827   0.117
71232W        W36459   7.478   5.496  11.768
71233W        W36460  25.530  31.882  13.969
71234W        W36461  34.406  31.805   1.955
71235W        W36462  15.104  42.024  14.448
71236W        W36463  25.471  10.218  13.502
71237W        W36464  33.541  29.149   0.255
71238W        W36465  18.669  41.555   0.872
71239W        W36466  36.946  10.880   4.767
71240W        W36467  15.798  34.857  12.852
71241W        W36468   8.169  17.072   0.353
71242W        W36469   0.818  29.990  11.402
71243W        W36470  17.097  22.697   2.738
71244W        W36471  10.813  28.891   4.156
71245W        W36472  27.991  40.511  11.074
71246W        W36473  34.214  16.479   1.220
71247W        W36474  44.871  16.213   3.776
71248W        W36475  39.907  22.348   4.427
71249W        W36476  26.100  17.809  10.662
71250W        W36477  19.479  15.631   1.939
71251W        W36478  36.947  12.819  11.711
71252W        W36479  26.468   4.340   2.783
71253W        W36480  19.225  22.681   2.907
71254W        W36481   3.269   9.749  11.927
71255W        W36482  42.239  23.315  12.917
71256W        W36483  29.296  37.909   0.334
71257W        W36484  16.317  44.273   3.043
71258W        W36485  27.042  22.576  13.531
71259W        W36486  22.459  29.586   3.028
71260W        W36487  24.192  34.086   3.690
71261W        W36488  11.497  30.543  14.496
71262W        W36489  22.124   5.789  12.022
71263W        W36490  35.851  31.862   3.192
71264W        W36491  33.508  36.928   1.400
71265W        W36492  27.427   0.351  12.752
71266W        W36493  30.920  15.153   4.000
71267W        W36494  13.856  44.990   4.749
71268W        W36495  27.956  27.651   0.867
71269W        W36496  23.465  16.107   1.185
71270W        W36497   0.316  23.192  12.662
71271W        W36498  23.257  15.460  14.951
71272W        W36499  14.909  34.630  12.874
71273W        W36500  19.593  39.326   1.799
71274W        W36501  21.588  35.260   2.419
71275W        W36502   5.172  21.074  13.895
71276W        W36503  11.154  20.127   0.690
71277W        W36504  27.489  42.956  14.726
71278W        W36505   9.888  20.354  10.646
71279W        W36506  17.044  25.428  10.727
71280W        W36507  11.766  16.547  13.849
71281W        W36508   7.890  33.807   4.713
71282W        W36509  15.827   9.838   3.784
71283W        W36510   5.667  27.669  11.592
71284W        W36511   8.749  21.597  13.229
71285W        W36512  34.053  26.741  10.174
71286W        W36513   8.563  31.974   3.216
71287W        W36514  30.942  21.312  10.235
71288W        W36515   5.144   6.382   2.607
71289W        W36516  13.408  23.086   4.103
71290W        W36517  33.515  26.119  12.055
71291W        W36518  23.643   3.762  10.738
71292W        W36519  26.020  21.770  12.448
71293W        W36520  15.937  37.631   5.088
71294W        W36521  44.490   1.897  12.920
71295W        W36522  30.600  34.761  13.569
71296W        W36523  11.156  33.060  13.516
71297W        W36524  14.796  43.472   3.079
71298W        W36525  43.215  33.635   1.750
71299W        W36526  21.842  27.190  14.025
71300W        W36527  28.173  34.476   4.230
71301W        W36528  23.859  11.027  11.127
71302W        W36529  33.360  42.706   0.734
71303W        W36530   6.832  13.064  14.206
71304W        W36531  35.858  31.972   1.708
71305W        W36532   0.453  37.149   4.550
71306W        W36533  36.616  21.864  11.117
71307W        W36534  36.407  31.644  12.748
71308W        W36535  22.230  37.616   0.305
71309W        W36536   3.374   2.423  13.889
71310W        W36537  24.542  19.161   4.609
71311W        W36538  27.723  11.116   1.161
71312W        W36539  41.324  33.484   2.624
71313W        W36540  20.589  10.787   3.124
71314W        W36541  44.211  29.558   3.730
71315W        W36542  36.528  26.088   4.492
71316W        W36543  42.612  41.361   3.746
71317W        W36544   6.476  43.411   2.302
71318W        W36545  28.928  20.251   4.666
71319W        W36546  36.354  36.702  12.514
71320W        W36547   0.241  31.927  13.523
71321W        W36548  29.402  29.625  14.868
71322W        W36549  15.042  27.386   1.208
71323W        W36550  26.008   2.180  11.295
71324W        W36551  18.276  44.454  13.499
71325W        W36552  35.518  15.075   1.950
71326W        W36553  35.164  24.612   0.912
71327W        W36554   2.004  16.605  14.514
71328W        W36555  42.112  42.912  10.710
71329W        W36556   6.717  13.011   0.309
71330W        W36557  10.069   9.444  12.004
71331W        W36558   1.422  21.979  11.871
71332W        W36559  28.716   4.467  14.387
71333W        W36560  39.946  35.413   1.705
71334W        W36561  40.993   3.378   1.585
71335W        W36562  11.107  18.166   2.893
71336W        W36563  32.618  14.020  13.790
71337W        W36564  41.130  19.664   3.103
71338W        W36565  24.432  28.888  11.816
71339W        W36566  43.216   2.918   4.379
71340W        W36567  19.545  37.233   3.683
71341W        W36568  22.051  19.470  14.096
71342W        W36569  37.423  26.469   2.668
71343W        W36570  35.151   9.981  13.679
71344W        W36571  41.868  37.342  10.717
71345W        W36572  15.791  43.828  13.508
71346W        W36573  10.446   8.772   3.716
71347W        W36574  34.494  43.402  11.278
71348W        W36575   6.113  37.983   2.129
71349W        W36576  21.495  23.875  14.664
71350W        W36577  40.549  44.138   3.289
71351W        W36578   0.383  22.430   1.884
71352W        W36579  10.397  27.267   4.816
71353W        W36580  14.894  29.999  13.510
71354W        W36581  18.026   1.854   1.236
71355W        W36582  10.689  17.861  11.950
71356W        W36583   8.695   3.539   3.696
71357W        W36584  29.511  19.242   4.163
71358W        W36585   1.463  14.629  12.340
71359W        W36586  27.463   8.277   0.387
71360W        W36587   7.653  34.144   2.074
71361W        W36588  12.376  24.428   1.354
71362W        W36589   5.668  38.931  10.291
71363W        W36590  38.466  12.904   3.073
71364W        W36591  36.229  30.711  12.536
71365W        W36592  43.922  39.371   1.701
71366W        W36593  44.361  38.019   4.564
71367W        W36594  16.352  29.418  14.878
71368W        W36595   9.117   8.765   1.781
71369W        W36596  23.058  26.197  11.694
71370W        W36597  22.030  38.802  10.810
71371W        W36598  18.533  18.432  11.646
71372W        W36599  32.600  15.120   2.028
71373W        W36600  37.447   2.938  14.868
71374W        W36601   8.401   2.561  12.945
71375W        W36602   8.592  17.665  10.147
71376W        W36603  17.959  30.364   3.794
71377W        W36604  42.063  41.430  13.466
71378W        W36605   6.349  43.390  10.225
71379W        W36606  40.332  23.395  11.914
71380W        W36607   2.922  26.720   1.477
71381W        W36608  36.196   7.832   0.118
71382W        W36609  36.599  23.599   4.585
71383W        W36610  40.366  42.815   3.672
71384W        W36611  33.063  31.680  11.543
71385W        W36612  30.311  16.161  11.069
71386W        W36613   6.386  35.034  11.664
71387W        W36614  20.471  12.343  12.894
71388W        W36615  31.209  10.828  10.871
71389W        W36616   5.165  29.430   0.962
71390W        W36617  24.877  40.911  14.931
71391W        W36618  32.691  24.967   0.993
71392W        W36619  16.988   9.506  11.344
71393W        W36620  29.142  13.734   2.237
71394W        W36621  23.990  12.811   0.210
71395W        W36622  22.027  36.144  13.338
71396W        W36623   1.980  22.180   2.366
71397W        W36624  41.305  12.664  13.759
71398W        W36625  37.118  15.103   2.223
71399W        W36626  26.437  44.167  11.941
71400W        W36627  41.356   3.651   0.757
71401W        W36628  21.528  26.070   0.856
71402W        W36629  30.855  41.510   2.310
71403W        W36630  25.275  33.157  12.405
71404W        W36631  25.922  30.419  11.729
71405W        W36632  11.292  36.108  14.941
71406W        W36633   7.868  33.009  14.365
71407W        W36634  18.585   8.866  11.303
71408W        W36635  35.187  21.936   1.315
71409W        W36636   2.238  12.265  11.931
71410W        W36637  20.970   1.243   2.507
71411W        W36638  17.088  15.254   3.250
71412W        W36639  21.498  31.479   0.470
71413W        W36640  41.761  18.140   4.621
71414W        W36641  15.730  33.669   5.332
71415W        W36642   2.679  22.414  11.510
71416W        W36643  30.561   6.142   1.229
71417W        W36644   0.802  29.561   0.303
71418W        W36645  26.155  29.508   2.351
71419W        W36646  22.085  19.097  11.780
71420W        W36647  16.418  14.687   4.932
71421W        W36648   8.473  13.278   2.458
71422W        W36649  25.475   1.441  13.943
71423W        W36650  37.560  30.424   0.361
71424W        W36651   2.287  29.512   1.787
71425W        W36652  11.509  39.961   4.152
71426W        W36653  35.611  35.943   2.209
71427W        W36654  34.375  18.151   4.161
71428W        W36655  10.271  20.475  13.773
71429W        W36656   9.560   0.008   1.185
71430W        W36657  40.736   2.959   4.768
71431W        W36658  22.745   9.183  11.644
71432W        W36659  31.807  34.797  10.893
71433W        W36660  18.679  41.326  14.955
71434W        W36661  17.097  35.329  11.290
71435W        W36662   8.340   7.819  11.594
71436W        W36663  32.614   5.406   1.327
71437W        W36664  34.587  13.854   1.366
71438W        W36665   5.763   5.430  14.353
71439W        W36666   7.247  24.553  14.381
71440W        W36667  35.771  28.849  11.604
71441W        W36668  39.033  40.060  10.617
71442W        W36669  38.835  24.485   2.739
71443W        W36670  30.797   1.627   0.593
71444W        W36671   1.849   6.407  13.808
71445W        W36672   0.202  44.401  11.935
71446W        W36673  34.524  25.100   2.957
71447W        W36674  44.846   8.391   2.670
71448W        W36675  37.112  10.575  10.997
71449W        W36676  40.549   1.155  13.597
71450W        W36677  26.093  19.399  10.702
71451W        W36678  25.708  28.161  13.050
71452W        W36679  41.399  25.251   1.885
71453W        W36680  21.126  11.542  12.539
71454W        W36681   5.987  16.614   2.325
71455W        W36682  30.373  19.971   4.885
71456W        W36683  24.209  11.965  13.136
71457W        W36684  40.807  25.067   3.124
71458W        W36685  10.329  22.280   3.168
71459W        W36686  25.540  17.549   1.753
71460W        W36687  38.739   2.858  14.416
71461W        W36688  33.879  41.499   2.104
71462W        W36689  15.808   5.340   1.657
71463W        W36690   7.005   0.874   3.991
71464W        W36691   4.495  24.729   4.282
71465W        W36692  31.114   3.420  13.351
71466W        W36693  39.034   3.304   2.616
71467W        W36694  39.419  34.033   1.257
71468W        W36695  34.960  25.216  10.232
71469W        W36696  36.333   3.488  10.247
71470W        W36697  28.996  39.080  12.349
71471W        W36698  19.513  35.941  10.648
71472W        W36699  42.359  21.757  11.203
71473W        W36700   5.756  11.921   1.170
71474W        W36701  42.854   4.338  10.703
71475W        W36702  30.007  24.762   1.354
71476W        W36703  25.737  35.944  12.431
71477W        W36704   1.535  15.746   2.729
71478W        W36705   5.646  18.697  10.627
71479W        W36706  32.405  14.278   0.048
71480W        W36707  20.543  32.497   3.566
71481W        W36708  16.891  40.154   3.390
71482W        W36709  12.872  17.208   2.672
71483W        W36710   5.423  14.107  14.379
71484W        W36711  26.131  11.364   3.784
71485W        W36712   4.485  38.439   2.803
71486W        W36713  38.711  33.965  10.683
71487W        W36714  15.496  33.988   4.120
71488W        W36715  34.446  15.100  11.649
71489W        W36716   1.893  11.386  11.634
71490W        W36717  20.249  21.247   4.750
71491W        W36718   0.671  39.294  11.514
71492W        W36719  10.054  19.316   4.217
71493W        W36720  30.936  30.085   2.462
71494W        W36721   2.409  26.761   1.315
71495W        W36722  23.747  43.762   3.214
71496W        W36723  37.789  40.031  14.830
71497W        W36724  17.645  12.191  14.907
71498W        W36725  26.080   5.195   4.575
71499W        W36726   2.964  11.691  10.701
71500W        W36727  10.282  14.338   1.558
71501W        W36728  36.523   0.910  10.523
71502W        W36729  27.422   0.996  10.617
71503W        W36730  26.139  39.097  12.698
71504W        W36731   7.156   5.701   3.242
71505W        W36732  14.125  37.506  13.397
71506W        W36733  37.033  32.531   3.834
71507W        W36734   5.864  26.621  12.589
71508W        W36735  29.586  34.876   2.144
71509W        W36736   3.637   0.848  13.869
71510W        W36737  17.259  24.542   4.420
71511W        W36738  20.073  22.853  13.421
71512W        W36739  34.021  22.554   4.599
71513W        W36740  34.424  20.015   3.679
71514W        W36741  35.012  24.613   4.792
71515W        W36742   4.480  34.140   0.381
71516W        W36743  13.805  16.827   0.855
71517W        W36744  37.441  17.153   0.034
71518W        W36745  17.394  38.298  10.763
71519W        W36746  34.862   0.227  12.915
71520W        W36747  30.929  31.958   2.661
71521W        W36748  12.861   0.494   0.505
71522W        W36749   2.651  19.765  11.120
71523W        W36750  32.046  24.056   2.231
71524W        W36751   5.185  30.536  12.912
71525W        W36752  43.857  24.763   4.155
71526W        W36753  27.060  19.654   2.676
71527W        W36754  25.913   5.707  14.275
71528W        W36755  20.757  18.423  11.113
71529W        W36756  33.930  15.623   0.802
71530W        W36757  28.380  14.272  11.560
71531W        W36758  14.873   9.572   1.246
71532W        W36759  35.032  35.243   0.434
71533W        W36760  35.838  14.406   3.846
71534W        W36761   3.437   9.132   2.479
71535W        W36762  13.577  25.558  12.041
71536W        W36763  44.246   4.965  14.138
71537W        W36764  21.865  11.911   4.935
71538W        W36765  31.220  24.652   3.305
71539W        W36766  44.904   7.373   3.819
71540W        W36767  14.623   3.805   2.258
71541W        W36768   5.379  43.075  12.437
71542W        W36769  24.961  40.579   3.793
71543W        W36770  19.602   7.206   3.487
71544W        W36771  29.030  32.514  12.173
71545W        W36772   6.004  16.978  12.506
71546W        W36773  12.586  20.098   1.341
71547W        W36774  16.032  41.520  10.767
71548W        W36775  23.678  12.194   1.444
71549W        W36776  13.097  42.315  12.010
71550W        W36777  16.523   7.845   0.905
71551W        W36778  13.745  20.702  10.961
71552W        W36779  12.893   0.782   1.880
71553W        W36780  34.510   0.715  14.875
71554W        W36781  37.294  15.821   3.448
71555W        W36782  19.792  36.047  11.093
71556W        W36783  37.620  33.022  13.505
71557W        W36784  15.313  13.182   2.497
71558W        W36785  15.182  44.377   3.413
71559W        W36786   3.526  40.437   0.628
71560W        W36787  36.330  12.220   1.089
71561W        W36788  22.179  19.616   3.919
71562W        W36789  20.037  36.470  14.319
71563W        W36790  20.263  18.287   3.087
71564W        W36791  39.817  21.256  13.314
71565W        W36792   7.059  10.670  12.562
71566W        W36793  44.844  35.072   4.559
71567W        W36794   8.191  23.464   1.285
71568W        W36795  23.181  41.070   1.405
71569W        W36796  22.160  27.755   2.696
71570W        W36797  44.790  41.596   3.431
71571W        W36798  37.767  27.643   0.393
71572W        W36799  22.354  10.222   3.359
71573W        W36800  17.447   7.803   4.558
71574W        W36801  41.575  25.324   3.666
71575W        W36802  35.104  17.296   1.683
71576W        W36803   9.162   2.558   3.659
71577W        W36804  23.678  33.592   2.469
71578W        W36805   2.420  21.252   3.245
71579W        W36806  27.174  15.497  11.379
71580W        W36807  25.567  30.718  13.138
71581W        W36808  38.403  30.881  12.859
71582W        W36809  22.799  37.369   3.641
71583W        W36810   6.941   0.805   1.923
71584W        W36811   5.598   4.930   0.267
71585W        W36812  30.661  33.371   1.535
71586W        W36813  17.595  27.915   4.529
71587W        W36814  43.956  17.723  10.781
71588W        W36815  43.962  16.117  14.827
71589W        W36816  13.877  15.150  13.813
71590W        W36817  39.998  23.034  12.101
71591W        W36818  26.844  42.295  12.624
71592W        W36819  13.913  37.044  14.745
71593W        W36820  36.142  29.583  12.075
71594W        W36821  44.417  28.429   1.397
71595W        W36822   7.652  15.647   0.821
71596W        W36823  25.676  42.301   3.816
71597W        W36824  25.425   2.127   4.784
71598W        W36825   7.687  17.926  11.827
71599W        W36826  27.168  10.733   2.864
71600W        W36827  30.908   7.436   0.050
71601W        W36828  18.223  14.627  10.656
71602W        W36829  29.262  17.949  10.284
71603W        W36830   8.781   8.117  13.123
71604W        W36831  27.682  23.740  11.272
71605W        W36832   1.034  38.950   2.167
71606W        W36833  18.180   1.879   2.157
71607W        W36834  14.713   7.094  11.902
71608W        W36835  14.800  11.734  12.980
71609W        W36836  32.065  23.045   1.282
71610W        W36837  29.626  20.307  14.755
71611W        W36838   7.472  21.523  14.046
71612W        W36839  23.690   5.991  12.554
71613W        W36840  44.945   3.297   2.610
71614W        W36841   4.186   4.407  12.579
71615W        W36842  41.769  35.159  11.218
71616W        W36843  14.753  30.888  10.311
71617W        W36844   5.701   4.848   3.311
71618W        W36845  30.195   2.394   3.494
71619W        W36846  23.514  10.162   4.518
71620W        W36847   5.675  25.200  14.776
71621W        W36848  37.859   6.203  13.323
71622W        W36849  22.181  23.517   1.808
71623W        W36850  21.002  20.590  12.517
71624W        W36851   3.018   5.907   1.272
71625W        W36852  33.635   9.143  14.471
71626W        W36853  28.624  41.546  10.639
71627W        W36854   4.368  21.575   3.749
71628W        W36855  38.009  25.046  11.479
71629W        W36856  36.162  34.534  11.258
71630W        W36857   0.753  14.280   0.949
71631W        W36858  36.594  23.553  10.550
71632W        W36859  27.899   0.849  10.568
71633W        W36860  35.475  37.941   0.853
71634W        W36861  36.345  30.669  14.309
71635W        W36862   7.182   5.560   1.829
71636W        W36863  31.943  15.754  12.542
71637W        W36864  24.516  33.523  12.894
71638W        W36865  26.809  39.046  10.763
71639W        W36866  16.144   7.747  14.490
71640W        W36867  33.895  44.697   1.599
71641W        W36868  18.272  30.656   3.295
71642W        W36869  37.011  13.615  12.405
71643W        W36870  25.325  43.912   3.197
71644W        W36871  20.539  17.311   3.203
71645W        W36872  17.640  31.519   0.479
71646W        W36873   1.891  38.070   3.091
71647W        W36874  37.093   6.873   0.720
71648W        W36875  30.639  37.760  13.411
71649W        W36876  35.978  32.025  12.654
71650W        W36877   6.758  18.331  12.925
71651W        W36878  17.628   9.151   3.438
71652W        W36879   1.226  12.814   0.295
71653W        W36880  16.733  37.191   4.320
71654W        W36881   4.265  40.602   2.325
71655W        W36882  42.422  29.760   2.853
71656W        W36883   8.018  32.118  10.793
71657W        W36884  30.016  26.508  12.767
71658W        W36885   1.456  40.916  10.699
71659W        W36886  30.915  29.000   0.875
71660W        W36887  14.236   1.414  13.562
71661W        W36888  12.829  40.529   2.316
71662W        W36889   1.455  25.203   3.256
71663W        W36890  12.383  20.273  12.322
71664W        W36891  32.148  30.857   1.238
71665W        W36892  43.467  35.341   4.675
71666W        W36893  35.000  43.436   4.221
71667W        W36894   1.256  18.845  12.539
71668W        W36895  37.684  28.985  12.005
71669W        W36896  16.168   0.813  13.170
71670W        W36897   2.844   9.100  11.542
71671W        W36898  20.598  39.790  14.985
71672W        W36899  44.849  14.875   4.189
71673W        W36900  15.850  29.749  14.819
71674W        W36901  41.435  25.659   0.342
71675W        W36902  44.153  15.523   4.550
71676W        W36903  37.450  30.224   2.809
71677W        W36904  20.975  42.763  11.688
71678W        W36905  40.005  20.781  13.388
71679W        W36906  20.857  23.095   0.412
71680W        W36907  35.800  19.937  12.487
71681W        W36908  27.019  18.697  10.957
71682W        W36909  13.507  11.697  12.882
71683W        W36910   1.018  34.939  13.344
71684W        W36911  40.107  29.223   3.624
71685W        W36912  35.809  38.797   4.222
71686W        W36913  21.950  20.202   1.093
71687W        W36914  39.280  21.175   4.677
71688W        W36915  15.871  23.015   4.097
71689W        W36916  28.083  32.647  12.442
71690W        W36917  31.168  29.713   0.178
71691W        W36918   7.792   7.880   1.697
71692W        W36919  11.556   5.507   0.348
71693W        W36920  42.920  41.344   0.895
71694W        W36921  30.546  30.638   0.304
71695W        W36922  23.033   2.401  14.634
71696W        W36923  27.453   2.747  13.155
71697W        W36924  26.584  19.783   4.640
71698W        W36925  27.998  31.593   9.907
71699W        W36926  21.942  29.014  14.627
71700W        W36927   3.018  40.495   2.228
71701W        W36928  28.995  15.770   1.869
71702W        W36929  20.613  44.067  13.980
71703W        W36930   9.340  26.658  14.433
71704W        W36931  15.615   9.798  13.331
71705W        W36932  42.347  17.607   4.145
71706W        W36933  29.022  17.659   3.870
71707W        W36934  39.324   4.475   3.321
71708W        W36935  12.515   8.661  10.624
71709W        W36936  28.652  38.449  14.741
71710W        W36937  37.938  16.841  13.101
71711W        W36938  35.950   5.299   4.393
71712W        W36939  36.076  25.268   4.072
71713W        W36940  43.313  44.236   4.217
71714W        W36941  14.545  35.637  13.549
71715W        W36942  21.607  15.777   4.623
71716W        W36943   9.106   9.363  13.422
71717W        W36944  11.354  32.167   2.788
71718W        W36945   3.027  31.531   3.201
71719W        W36946  22.722   2.928   3.355
71720W        W36947  12.898  28.040   3.726
71721W        W36948  28.201   1.250  10.130
71722W        W36949  32.508   9.715   2.219
71723W        W36950   7.799  32.224  10.334
71724W        W36951  28.367  40.801  11.924
71725W        W36952   5.680   1.630  14.969
71726W        W36953  21.200   4.906  10.750
71727W        W36954  11.586  40.085  10.584
71728W        W36955  22.658  22.481   4.013
71729W        W36956  30.536   5.165  11.001
71730W        W36957  17.678  10.225  11.157
71731W        W36958   9.729   5.469   3.440
71732W        W36959  37.765  26.996   1.715
71733W        W36960  11.171  31.856   5.427
71734W        W36961  25.844  43.759  14.604
71735W        W36962   2.357  22.560   2.502
71736W        W36963   0.494  17.487   1.276
71737W        W36964  29.448  25.132  13.450
71738W        W36965   9.694  35.743   3.888
71739W        W36966   7.995   2.152  10.905
71740W        W36967  10.219  38.522  13.817
71741W        W36968   9.405   1.180   0.179
71742W        W36969  12.729  42.834  10.765
71743W        W36970  27.168  43.398  11.135
71744W        W36971  15.098  37.328  12.464
71745W        W36972  41.236  39.095   1.808
71746W        W36973  27.488   5.516  12.423
71747W        W36974  20.279   2.141   3.612
71748W        W36975  16.371  42.011  14.717
71749W        W36976  33.966  38.854   2.474
71750W        W36977   8.728  33.452   3.185
71751W        W36978  42.270   5.254   2.052
71752W        W36979   9.902  36.127   4.924
71753W        W36980  39.006  34.062  10.059
71754W        W36981  38.143  13.632  13.392
71755W        W36982  27.244  39.420  13.824
71756W        W36983  11.577  16.175   3.726
71757W        W36984  16.059  42.990   2.761
71758W        W36985  41.049  26.516   2.213
71759W        W36986  39.370  23.993   3.170
71760W        W36987  10.669   0.807   0.129
71761W        W36988   6.778  40.752  12.651
71762W        W36989  15.855  26.612  13.636
71763W        W36990  39.327  23.254  11.912
71764W        W36991  28.166  28.538  10.547
71765W        W36992  15.678  14.528  10.678
71766W        W36993  19.038  38.002  14.378
71767W        W36994  34.531  25.419   0.938
71768W        W36995   5.707  36.480  13.454
71769W        W36996  17.139  23.064  11.505
71770W        W36997  24.004  35.378  10.784
71771W        W36998   7.470  43.054  11.988
71772W        W36999  39.619  38.450   4.784
71773W        W37000   2.503  25.528   3.372
71774W        W37001  16.106  38.618  14.839
71775W        W37002  37.813  30.139   2.367
71776W        W37003  25.104  16.297   3.588
71777W        W37004  16.691  34.082  11.683
71778W        W37005  38.353  33.020   4.936
71779W        W37006  16.990  29.752  11.369
71780W        W37007  23.003  25.548  13.977
71781W        W37008  10.806  40.262  14.925
71782W        W37009   2.493  21.565  11.164
71783W        W37010  41.085  42.934   0.965
71784W        W37011  29.891  35.002  12.626
71785W        W37012  19.550  44.423  10.590
71786W        W37013   3.190   0.300  11.602
71787W        W37014  44.429  15.380   1.247
71788W        W37015  26.512  14.572   3.210
71789W        W37016  20.062  40.815  12.113
71790W        W37017  15.678  10.398  12.391
71791W        W37018   5.822  17.030   0.381
71792W        W37019   7.692  13.323   1.741
71793W        W37020  16.651  22.689  14.348
71794W        W37021  21.515  33.902  14.450
71795W        W37022  41.934  38.671   0.923
71796W        W37023   8.723  44.051   3.271
71797W        W37024   4.209  22.730  12.866
71798W        W37025  11.810   4.850  10.762
71799W        W37026  40.959  10.852  13.927
71800W        W37027  29.033  12.793   2.732
71801W        W37028  26.619  25.567   4.337
71802W        W37029  26.513  30.240  14.240
71803W        W37030  39.794  10.901   1.398
71804W        W37031  29.127   7.827  14.478
71805W        W37032  11.810  44.958   1.697
71806W        W37033  22.635  30.509  10.180
71807W        W37034  34.496  25.032  10.458
71808W        W37035  28.123  42.894  14.187
71809W        W37036  22.002   2.986   3.217
71810W        W37037   9.696  34.994   4.254
71811W        W37038  28.413  41.244   4.061
71812W        W37039  30.557   4.620  12.157
71813W        W37040  13.468  10.903  11.552
71814W        W37041  12.531  26.626   0.726
71815W        W37042  18.833   6.481   1.700
71816W        W37043  23.183  24.544   2.177
71817W        W37044   3.443  18.270   4.820
71818W        W37045  11.366   3.714  12.552
71819W        W37046  18.531  27.479  13.023
71820W        W37047  32.839  44.949  12.232
71821W        W37048   1.416  24.946  12.586
71822W        W37049   7.429  14.654   0.336
71823W        W37050  32.422  18.715  12.606
71824W        W37051  39.113  34.385   1.030
71825W        W37052  44.849  38.855  12.077
71826W        W37053  19.178   3.275   4.366
71827W        W37054  34.460  24.125   2.876
71828W        W37055  42.417   4.812   0.503
71829W        W37056  28.100  21.474  11.644
71830W        W37057  14.233   3.399   0.652
71831W        W37058  25.990  27.566   1.490
71832W        W37059  36.980  27.219   4.547
71833W        W37060  14.054   7.284   3.784
71834W        W37061  27.519  22.088   4.376
71835W        W37062  10.678  41.313   3.662
71836W        W37063  22.896   2.432  13.730
71837W        W37064  18.566  11.160   1.712
71838W        W37065  11.824  35.685   3.486
71839W        W37066  19.811  16.992   2.738
71840W        W37067  27.613  22.058   2.323
71841W        W37068  32.663   7.248  10.760
71842W        W37069  16.150  29.615  11.131
71843W        W37070  10.674  24.088  14.226
71844W        W37071   9.714   9.841   0.485
71845W        W37072  30.969  32.546  13.309
71846W        W37073  40.562  33.108   2.341
71847W        W37074  37.369   0.220  10.731
71848W        W37075  33.598  30.498  13.102
71849W        W37076  21.528  13.606   2.771
71850W        W37077  16.110  18.737  12.031
71851W        W37078   5.924   5.933   1.500
71852W        W37079  33.803   6.613  11.002
71853W        W37080  10.662   7.327  13.491
71854W        W37081  16.361   0.346  14.438
71855W        W37082  30.934  23.053  11.439
71856W        W37083  26.311   5.680   2.803
71857W        W37084  32.971  29.546   1.278
71858W        W37085  14.087  12.160  10.570
71859W        W37086  24.011  43.698  14.975
71860W        W37087  11.917  37.501   1.641
71861W        W37088   5.163  30.907  13.413
71862W        W37089   8.480  31.998   0.191
71863W        W37090  33.937  41.358   0.708
71864W        W37091  16.668  43.200   4.633
71865W        W37092  37.303  39.506   3.529
71866W        W37093   8.345  28.670  10.741
71867W        W37094  18.715  13.388  10.611
71868W        W37095   9.736   0.227  14.440
71869W        W37096  24.167  36.093  13.622
71870W        W37097  37.609  44.838   1.421
71871W        W37098  29.003   1.368  11.115
71872W        W37099   8.682  28.364   0.188
71873W        W37100   7.616   8.953  14.127
71874W        W37101  18.351  37.070   2.172
71875W        W37102  37.470   4.170   4.107
71876W        W37103  28.434  37.864   4.339
71877W        W37104  15.419  22.939   3.733
71878W        W37105   3.952   9.811  13.132
71879W        W37106  13.609   4.272  12.320
71880W        W37107   2.226  19.036  14.819
71881W        W37108   7.379  40.917  13.973
71882W        W37109  14.060   4.348  10.668
71883W        W37110  20.621  26.391   3.063
71884W        W37111  16.252   4.106   3.754
71885W        W37112  24.141  37.050   0.957
71886W        W37113  42.983  16.935   3.997
71887W        W37114   5.940  39.482   2.556
71888W        W37115   2.951   8.097  10.522
71889W        W37116  31.639  12.239   4.750
71890W        W37117  28.148  43.135  12.028
71891W        W37118  22.209  20.746   3.128
71892W        W37119  16.559  22.948  14.806
71893W        W37120   7.722  19.169   1.292
71894W        W37121  28.456  36.942  10.967
71895W        W37122  15.154  19.250   3.931
71896W        W37123  13.549  36.267   2.442
71897W        W37124  32.207  30.777  10.282
71898W        W37125   7.097   4.465   3.994
71899W        W37126   5.502  43.450  11.107
71900W        W37127  41.702  30.412  14.300
71901W        W37128   3.884   6.103   2.848
71902W        W37129  17.025  29.205  12.831
71903W        W37130  13.214  41.852  13.835
71904W        W37131  32.120   7.435   0.673
71905W        W37132   4.138  15.385  14.737
71906W        W37133  36.168   8.647  14.248
71907W        W37134   4.272   6.396   2.652
71908W        W37135  32.111  23.729   0.810
71909W        W37136   8.361  23.778   4.658
71910W        W37137  20.230  34.924   1.787
71911W        W37138  38.574  37.408   4.605
71912W        W37139  20.001  33.106  13.442
71913W        W37140  32.014  36.624   2.819
71914W        W37141  23.150   8.873  14.549
71915W        W37142  19.069  30.723   0.778
71916W        W37143  10.335  40.545  14.924
71917W        W37144   6.229  19.364   1.453
71918W        W37145  38.457   9.300  12.839
71919W        W37146   1.202  29.753  14.918
71920W        W37147  40.884   5.745  14.836
71921W        W37148  18.359  34.444   3.173
71922W        W37149  12.201   1.643  14.373
71923W        W37150  44.005  42.057  10.725
71924W        W37151  23.075  44.961  14.894
71925W        W37152  27.721  19.713   3.758
71926W        W37153   9.600  30.726   4.985
71927W        W37154  37.168  30.055  14.779
71928W        W37155   0.742  14.826   3.154
71929W        W37156  18.229  12.228  12.033
71930W        W37157  26.325   8.239   4.849
71931W        W37158  43.407  11.330  11.528
71932W        W37159  35.643  11.698   0.877
71933W        W37160   6.237  13.963   2.584
71934W        W37161   5.102  28.381  12.027
71935W        W37162  31.892  16.802   4.924
71936W        W37163  15.334  43.474  12.543
71937W        W37164  34.169   3.885   1.309
71938W        W37165   9.753  31.208   1.041
71939W        W37166  18.311  23.115   0.962
71940W        W37167   0.817  44.592  10.449
71941W        W37168  31.920  26.955  14.036
71942W        W37169  25.453  37.860   0.491
71943W        W37170  15.203  18.790   3.613
71944W        W37171   8.674  39.101   5.070
71945W        W37172  41.446  16.297  11.275
71946W        W37173  11.634  26.476  12.479
71947W        W37174  10.728  37.347   2.883
71948W        W37175   1.982  12.287   4.396
71949W        W37176  44.827   1.836  11.076
71950W        W37177  36.045  42.461   1.242
71951W        W37178   3.066  17.567   0.205
71952W        W37179  32.019  43.292   4.255
71953W        W37180  12.740  18.870  13.448
71954W        W37181  44.809  20.253  11.120
71955W        W37182  13.723  25.583   0.218
71956W        W37183  14.073  43.812   3.399
71957W        W37184  37.359  44.529  14.553
71958W        W37185  41.525  25.756  14.381
71959W        W37186  11.795  34.119  13.057
71960W        W37187  36.636  29.229   4.534
71961W        W37188  38.793  42.008  13.388
71962W        W37189  40.831  20.613  11.878
71963W        W37190  37.639  24.018  12.007
71964W        W37191   2.247  12.810  13.508
71965W        W37192  44.475  38.865  11.656
71966W        W37193  30.781  16.425   1.806
71967W        W37194   2.668  13.885   2.080
71968W        W37195  33.542  41.424  12.583
71969W        W37196  44.005   0.857  13.431
71970W        W37197  27.436   4.472   1.783
71971W        W37198  17.198  40.861   3.800
71972W        W37199  42.310  12.197   0.499
71973W        W37200  19.697   1.834   2.161
71974W        W37201  30.373  30.934  13.154
71975W        W37202  23.936  34.163  12.914
71976W        W37203  32.484   6.789   1.325
71977W        W37204  24.172  21.171   0.947
71978W        W37205  17.176  43.806  11.347
71979W        W37206  21.986  24.052   0.874
71980W        W37207  31.635  44.218   4.303
71981W        W37208   2.509  24.174  13.810
71982W        W37209  15.174  26.735  14.010
71983W        W37210  15.267  12.169   3.176
71984W        W37211   5.979  25.791   0.747
71985W        W37212  24.962  16.121  13.862
71986W        W37213   1.281  32.894  14.596
71987W        W37214   6.391  42.585   4.145
71988W        W37215  13.393   0.912   3.253
71989W        W37216  39.522  20.171  12.319
71990W        W37217   9.849  34.883  11.973
71991W        W37218  13.156  41.832  10.515
71992W        W37219  32.037  26.388  13.118
71993W        W37220   8.698  44.292   3.742
71994W        W37221  36.209  12.064  11.583
71995W        W37222   8.216  32.322   3.138
71996W        W37223  18.040  42.983  11.674
71997W        W37224  13.202  23.601   0.843
71998W        W37225   3.542  39.124   0.472
71999W        W37226  30.906  24.452  10.986
72000W        W37227  35.989  16.903  13.901
72001W        W37228  32.161  35.572  14.468
72002W        W37229   0.288  30.316  10.944
72003W        W37230  15.117  38.826   2.307
72004W        W37231   5.446   4.889   2.847
72005W        W37232  13.127  12.886  10.764
72006W        W37233  22.654  20.067   2.219
72007W        W37234  38.023   0.443   1.688
72008W        W37235  13.968  12.704  11.264
72009W        W37236  31.173  40.594  10.715
72010W        W37237   5.426  21.320  11.935
72011W        W37238  31.710   7.608  11.611
72012W        W37239  34.592  21.117  12.291
72013W        W37240  14.756  16.561   3.650
72014W        W37241  24.192  21.258  13.291
72015W        W37242  38.518  18.461   2.346
72016W        W37243   3.900  18.556  14.468
72017W        W37244  39.315  16.904  10.902
72018W        W37245  27.365  14.637  14.494
72019W        W37246  35.715  28.100  10.556
72020W        W37247  27.607   7.862  10.645
72021W        W37248  29.450  32.305   4.555
72022W        W37249  38.873  10.242   2.806
72023W        W37250  12.552   2.812  11.113
72024W        W37251  40.231   2.874   4.934
72025W        W37252  16.047   4.746   5.090
72026W        W37253   3.240  14.054  13.194
72027W        W37254  28.163   0.729  12.513
72028W        W37255  38.283  41.935  13.338
72029W        W37256   8.394   9.207   3.079
72030W        W37257  28.935   6.204   2.155
72031W        W37258  27.509   8.870   0.844
72032W        W37259   2.748  29.497   0.939
72033W        W37260  42.623  43.522   2.844
72034W        W37261   6.546  44.535  11.573
72035W        W37262   3.329  23.373   2.263
72036W        W37263  40.358   1.761  11.123
72037W        W37264   1.263  34.983   1.633
72038W        W37265  40.432  19.234  14.391
72039W        W37266  18.843  26.876  14.468
72040W        W37267  39.954  23.713   4.645
72041W        W37268  20.688  40.008   1.354
72042W        W37269  14.817  18.172  10.781
72043W        W37270  40.766  33.508   2.608
72044W        W37271  37.400   3.183   4.533
72045W        W37272  16.873  21.222   3.627
72046W        W37273  14.628   4.492  14.030
72047W        W37274   4.175  36.614  14.065
72048W        W37275  32.635  30.162   3.064
72049W        W37276   5.703   8.653  11.020
72050W        W37277  34.309  24.240  12.901
72051W        W37278  37.397  38.101  14.075
72052W        W37279  24.137  12.214   3.657
72053W        W37280  24.285  16.631   1.375
72054W        W37281  37.919  28.226   4.544
72055W        W37282   2.444  31.033   5.341
72056W        W37283  27.844  14.689   0.326
72057W        W37284  31.544  29.491   3.340
72058W        W37285  25.535  15.386   2.822
72059W        W37286  42.258  39.051  12.004
72060W        W37287   9.672  34.083   1.221
72061W        W37288  37.847   6.311  14.982
72062W        W37289  15.676  12.622   4.064
72063W        W37290  10.766   3.980  11.217
72064W        W37291   3.709  44.341   0.063
72065W        W37292  10.102   3.040  13.849
72066W        W37293  16.843  26.936   0.832
72067W        W37294  43.990  39.419  12.091
72068W        W37295  25.484  19.217  10.970
72069W        W37296  30.727   9.107  11.469
72070W        W37297  33.089   5.276  12.525
72071W        W37298  25.542  41.931  12.952
72072W        W37299   3.870  32.167   0.186
72073W        W37300   4.017   4.831  12.880
72074W        W37301  26.790  31.945  13.330
72075W        W37302  14.808  14.670  14.524
72076W        W37303  25.406   0.556   3.665
72077W        W37304   1.006  25.244  12.599
72078W        W37305  19.355  38.881  13.026
72079W        W37306  41.102  36.086  12.865
72080W        W37307  21.736  43.837  11.704
72081W        W37308  29.017  42.524  12.751
72082W        W37309  29.495  39.785   4.089
72083W        W37310   9.263  34.153   3.770
72084W        W37311  21.103  11.185   1.697
72085W        W37312  36.803  41.352   0.046
72086W        W37313  37.671  10.665   1.861
72087W        W37314   8.991  23.885   0.739
72088W        W37315  40.260  25.449  12.935
72089W        W37316  18.266   1.073   2.548
72090W        W37317   4.429  31.463   4.297
72091W        W37318   9.572  30.520  12.884
72092W        W37319  27.451  26.045  11.691
72093W        W37320  18.987   2.334   2.468
72094W        W37321   4.470  17.916  12.490
72095W        W37322  14.045   5.184   3.199
72096W        W37323  16.177  43.726  12.839
72097W        W37324  28.119  25.778  12.365
72098W        W37325  28.690  29.050  11.588
72099W        W37326  18.331  11.836  12.399
72100W        W37327  17.703  43.564   2.723
72101W        W37328  37.924   7.805  14.824
72102W        W37329  40.286  32.435   0.921
72103W        W37330  17.286   0.112   1.146
72104W        W37331  19.811  36.492   2.263
72105W        W37332  22.336  16.622  14.118
72106W        W37333  13.247  12.360  10.817
72107W        W37334  13.595  27.503   1.214
72108W        W37335   2.536  10.856  11.899
72109W        W37336  32.928  10.863  13.992
72110W        W37337   6.256   9.231  14.369
72111W        W37338  40.596   8.300   4.576
72112W        W37339  13.841  28.631  10.766
72113W        W37340  34.030   4.369  12.055
72114W        W37341   2.170  37.973   3.553
72115W        W37342  20.195  10.890  12.604
72116W        W37343  14.667   0.568  13.999
72117W        W37344  41.038   3.924   3.592
72118W        W37345  38.543  19.183  14.284
72119W        W37346  16.098  21.209  11.205
72120W        W37347  10.464  38.177   0.971
72121W        W37348  11.985  17.833   2.432
72122W        W37349  36.852   3.606  10.294
72123W        W37350   1.982   0.799  14.336
72124W        W37351  34.167  34.359   4.526
72125W        W37352   2.311  23.135   3.167
72126W        W37353  38.910  28.181  14.844
72127W        W37354  27.737   4.212  14.157
72128W        W37355  10.553   8.259  13.376
72129W        W37356   8.254  31.354   0.979
72130W        W37357  33.947  24.699   3.335
72131W        W37358  20.605  14.113   0.757
72132W        W37359  29.480  26.747   0.599
72133W        W37360  32.053   5.390  12.014
72134W        W37361  30.371  21.579   4.227
72135W        W37362  21.478  41.362   2.355
72136W        W37363  19.230  32.450  12.492
72137W        W37364  42.858   1.269   0.626
72138W        W37365  16.674  42.734  11.992
72139W        W37366   1.268   5.127   0.663
72140W        W37367  21.748  35.897   3.701
72141W        W37368  12.100  43.731   0.286
72142W        W37369  27.745  10.753  11.706
72143W        W37370   0.243  11.849  13.051
72144W        W37371  39.405  22.020   3.726
72145W        W37372  29.106   8.594   3.246
72146W        W37373  36.483  39.466   1.832
72147W        W37374  37.603  29.989  14.502
72148W        W37375   9.375   0.737   3.141
72149W        W37376  40.434  36.830   0.751
72150W        W37377  39.509  25.453   1.336
72151W        W37378  22.043  29.572  10.715
72152W        W37379  22.968   0.047  11.065
72153W        W37380  35.088  34.551  13.029
72154W        W37381  26.657   0.265   5.387
72155W        W37382  44.471  24.207  10.617
72156W        W37383   0.317  28.564   0.416
72157W        W37384   0.356   5.336   3.117
72158W        W37385   1.750   5.701  12.361
72159W        W37386  37.447  24.073  13.745
72160W        W37387  17.446  44.754  13.891
72161W        W37388   4.030  19.438   4.154
72162W        W37389  37.275  43.325  11.664
72163W        W37390  34.453  14.278  10.363
72164W        W37391  17.680  34.657  11.424
72165W        W37392  40.311   5.149   0.075
72166W        W37393  43.301  25.433  12.457
72167W        W37394  13.225  35.346   2.865
72168W        W37395  28.179   7.862  10.244
72169W        W37396  13.069  16.125  12.152
72170W        W37397  29.394  31.691  11.902
72171W        W37398   0.445  20.876   5.099
72172W        W37399   3.066  21.633  14.515
72173W        W37400  30.934  29.039   4.569
72174W        W37401  26.301  42.299   4.164
72175W        W37402  35.372  28.448  13.305
72176W        W37403  22.301   1.705   2.172
72177W        W37404  42.495  42.440  14.808
72178W        W37405  14.143  41.591  10.469
72179W        W37406   0.047  42.524  11.870
72180W        W37407  35.036  20.611   4.269
72181W        W37408  11.017   0.357  10.294
72182W        W37409  16.477  16.537   4.394
72183W        W37410   0.041  26.430  14.953
72184W        W37411  22.030  11.598  12.095
72185W        W37412  40.234  30.085  11.395
72186W        W37413  22.271  10.874   4.521
72187W        W37414   2.478   6.226  11.893
72188W        W37415  26.531   5.519   1.804
72189W        W37416  20.586  18.723   1.902
72190W        W37417   2.150   7.503   2.327
72191W        W37418  10.205   1.190   2.588
72192W        W37419  27.492  37.034   3.046
72193W        W37420  34.473  24.017   3.374
72194W        W37421  37.081   4.391  14.849
72195W        W37422  18.707  41.768  13.558
72196W        W37423  18.534  12.334   3.214
72197W        W37424   2.355  33.507   4.219
72198W        W37425   2.357  35.064  11.149
72199W        W37426  35.248  10.266  14.526
72200W        W37427   7.123  31.163   3.792
72201W        W37428  28.000  10.918   0.288
72202W        W37429  31.440  27.862  10.702
72203W        W37430   1.934  44.920   1.413
72204W        W37431  44.533  33.563  11.695
72205W        W37432   3.453  44.887  13.393
72206W        W37433   3.695  15.564   4.293
72207W        W37434  29.772  33.648   4.536
72208W        W37435  27.654  35.319   2.338
72209W        W37436  16.734  37.461   1.265
72210W        W37437  42.446  10.065   2.491
72211W        W37438  34.226  21.850  10.940
72212W        W37439  24.013  23.134   0.463
72213W        W37440   3.494  40.908   0.862
72214W        W37441   3.293  36.349   3.254
72215W        W37442  24.186  35.146   0.577
72216W        W37443  38.504  16.492  12.827
72217W        W37444  21.155  32.952  12.107
72218W        W37445  19.490  19.073   2.769
72219W        W37446  32.104  23.941  13.392
72220W        W37447   8.746  36.644   4.115
72221W        W37448   3.390  38.118   1.110
72222W        W37449  34.832  11.429  10.018
72223W        W37450   8.745   7.668   2.567
72224W        W37451   2.405  36.930   3.851
72225W        W37452  22.606  40.172   4.112
72226W        W37453  17.592  43.531   4.104
72227W        W37454  17.745   6.042   1.922
72228W        W37455  15.794  28.024   2.602
72229W        W37456  41.465  17.578  13.377
72230W        W37457  10.681  11.871  13.171
72231W        W37458  30.125   6.798  14.855
72232W        W37459  18.862  37.002   2.938
72233W        W37460  44.029  22.647   2.888
72234W        W37461   0.244  25.509   4.434
72235W        W37462   5.820  18.696  14.081
72236W        W37463  25.201  22.240   2.692
72237W        W37464  23.222  13.208   2.781
72238W        W37465   5.701  16.855  12.941
72239W        W37466   2.398  38.791  11.967
72240W        W37467  33.610  17.190  11.078
72241W        W37468   0.972  42.258   4.545
72242W        W37469   3.730   4.904   3.278
72243W        W37470  39.025  28.494   9.898
72244W        W37471  27.137  43.897   1.759
72245W        W37472  19.148  16.072  11.648
72246W        W37473  13.265  10.435   3.276
72247W        W37474  12.103   9.719   2.715
72248W        W37475  25.252  28.171   4.192
72249W        W37476  25.033  34.642  12.506
72250W        W37477   4.297  20.588  14.902
72251W        W37478  23.534  16.830   3.066
72252W        W37479   6.858  41.361   3.312
72253W        W37480  32.881  36.143  14.433
72254W        W37481  23.232  16.285   0.226
72255W        W37482  34.925  21.855  11.556
72256W        W37483  24.503  22.567   2.202
72257W        W37484  16.663  26.090  14.852
72258W        W37485  31.416   5.493   3.708
72259W        W37486  12.562  10.369  14.946
72260W        W37487  39.532  42.091  11.096
72261W        W37488   5.899   4.863   4.961
72262W        W37489   2.819  16.612   3.638
72263W        W37490  22.576  13.601  13.952
72264W        W37491  18.675   0.207  14.579
72265W        W37492   4.068  11.318   3.556
72266W        W37493   5.274  34.684   0.845
72267W        W37494   2.440  19.549   3.326
72268W        W37495  26.962  13.188   0.326
72269W        W37496  38.143  28.900   1.902
72270W        W37497  34.511  38.322  13.159
72271W        W37498   0.941   4.794   3.672
72272W        W37499  27.123   5.816  14.907
72273W        W37500  29.597  19.765  11.634
72274W        W37501  41.317  21.292   3.671
72275W        W37502  28.402  14.133   2.257
72276W        W37503  31.440  43.360   1.546
72277W        W37504  39.421   0.720   1.238
72278W        W37505  41.947   9.910  11.193
72279W        W37506  17.008  17.231   2.252
72280W        W37507  10.994   7.823  13.903
72281W        W37508  17.650   2.370   2.423
72282W        W37509  18.149  38.627   2.255
72283W        W37510  13.458  10.134   3.642
72284W        W37511  17.553  10.252   3.711
72285W        W37512  15.789  32.856   3.234
72286W        W37513  42.905  41.801  14.124
72287W        W37514   4.038  26.235  11.565
72288W        W37515   6.499  14.696  13.531
72289W        W37516  21.926  17.155   4.753
72290W        W37517  36.957  39.363  10.681
72291W        W37518  41.247   4.303   3.312
72292W        W37519   5.176  29.546   4.594
72293W        W37520   7.718  21.072  12.102
72294W        W37521  34.692  13.169  10.985
72295W        W37522  42.959   3.687  11.460
72296W        W37523  12.826  32.992   0.943
72297W        W37524   7.896  38.846  12.362
72298W        W37525  40.589  36.088   4.165
72299W        W37526   1.797  39.377   2.293
72300W        W37527  28.991   2.883  13.797
72301W        W37528  20.803  31.342   1.443
72302W        W37529  24.825  13.930  10.959
72303W        W37530  38.772  20.582  11.357
72304W        W37531  34.057  26.973  14.638
72305W        W37532  26.592  42.967  14.370
72306W        W37533  38.893  30.911  11.968
72307W        W37534  13.889  18.694   0.966
72308W        W37535  30.662  35.747   2.865
72309W        W37536  33.944  26.212   4.592
72310W        W37537  27.365  26.209   2.438
72311W        W37538  19.646   9.370  12.948
72312W        W37539  44.641  29.234  12.470
72313W        W37540   2.852   7.516  13.082
72314W        W37541   7.877  25.854   2.464
72315W        W37542   1.036  12.103  11.548
72316W        W37543   4.757  37.944  13.955
72317W        W37544  38.554  23.207  13.859
72318W        W37545  12.257  14.831  12.420
72319W        W37546  11.260   1.388  11.664
72320W        W37547   4.330  32.629  14.466
72321W        W37548   6.162  15.279  12.460
72322W        W37549  41.088  13.100   3.687
72323W        W37550  40.194   7.279   0.964
72324W        W37551   3.514  28.443   0.183
72325W        W37552  27.832  22.508   2.246
72326W        W37553  15.344  22.654   4.732
72327W        W37554   9.123  25.008  12.438
72328W        W37555   4.546  39.837  13.594
72329W        W37556  16.688  39.379   4.363
72330W        W37557  20.773  36.812  14.928
72331W        W37558  23.927  27.459  13.431
72332W        W37559  13.534  27.873  14.805
72333W        W37560  32.068   5.267  12.550
72334W        W37561  25.843  18.485   1.915
72335W        W37562   5.824   1.130  12.893
72336W        W37563   5.763  18.349  10.250
72337W        W37564  11.302  24.003   2.664
72338W        W37565  29.168  25.575  13.443
72339W        W37566  41.828  37.935   2.363
72340W        W37567   3.958  19.957  11.225
72341W        W37568  25.222  27.608  12.063
72342W        W37569   9.395  37.000   3.534
72343W        W37570  11.079  36.452  11.180
72344W        W37571  37.257  43.765  14.513
72345W        W37572  42.913   0.284  11.952
72346W        W37573  12.581  14.706  12.922
72347W        W37574  13.746  44.311  14.594
72348W        W37575  23.721  39.049  13.141
72349W        W37576  44.009   2.256   0.282
72350W        W37577  38.840  28.069  12.822
72351W        W37578  33.946  42.983   2.221
72352W        W37579  34.588  12.870  14.505
72353W        W37580  38.760  11.549  12.409
72354W        W37581   1.833  33.065  12.409
72355W        W37582  24.767  28.309   0.492
72356W        W37583   3.650  39.088  12.632
72357W        W37584  27.505   6.244   4.709
72358W        W37585  36.006  28.527  10.662
72359W        W37586   1.881  29.930  13.049
72360W        W37587  30.926  44.106   2.028
72361W        W37588  42.428  38.751   1.148
72362W        W37589   1.359  29.699   1.873
72363W        W37590  23.019  18.673   0.424
72364W        W37591  25.986  28.532  14.351
72365W        W37592  10.081  23.473   4.203
72366W        W37593   3.382  12.905  14.940
72367W        W37594  24.573   8.572   0.808
72368W        W37595   9.927  21.652   2.632
72369W        W37596  15.485  35.158  14.834
72370W        W37597   0.492   4.321  10.702
72371W        W37598   1.462  20.255   2.244
72372W        W37599  22.177  17.854   1.066
72373W        W37600  24.934  16.811   4.432
72374W        W37601  21.887  18.981   2.573
72375W        W37602  33.683  13.246  14.392
72376W        W37603  28.918  11.638   2.666
72377W        W37604  38.932  32.238  10.778
72378W        W37605  39.990  14.729  14.469
72379W        W37606  36.988  42.808   9.697
72380W        W37607   3.272  42.522   1.858
72381W        W37608   4.104  12.440  11.116
72382W        W37609  36.080  23.979   0.919
72383W        W37610  26.498  25.846   2.811
72384W        W37611  23.586  34.610   3.190
72385W        W37612  32.914   7.330  14.277
72386W        W37613  36.321  13.274   2.755
72387W        W37614   1.500  31.463  14.126
72388W        W37615  25.696   5.628  14.910
72389W        W37616  44.748  15.216  10.726
72390W        W37617  16.780  17.504  13.819
72391W        W37618  36.728  26.371  10.165
72392W        W37619  24.823  26.429  13.123
72393W        W37620  34.837  23.142  10.500
72394W        W37621  26.832   8.388   4.711
72395W        W37622   8.180  31.401  14.509
72396W        W37623  33.762  21.341  14.843
72397W        W37624   6.546   2.868   4.751
72398W        W37625   7.127  39.515  12.854
72399W        W37626  32.338  12.838   2.847
72400W        W37627   5.949  29.591   4.105
72401W        W37628  28.990  34.825  13.095
72402W        W37629  22.339  39.802  13.313
72403W        W37630   3.472  20.115   2.448
72404W        W37631  10.987  14.374  10.729
72405W        W37632   8.667  32.789   3.924
72406W        W37633   6.207  29.504  10.906
72407W        W37634  32.199  36.553   3.619
72408W        W37635  40.940  31.875   0.747
72409W        W37636  30.327  36.839   0.363
72410W        W37637   8.178  34.003   2.244
72411W        W37638   0.959   4.135  13.567
72412W        W37639  19.135  21.098  12.433
72413W        W37640   2.432   8.719  11.221
72414W        W37641  36.840  32.484   1.308
72415W        W37642  33.070  34.113  13.579
72416W        W37643  24.269  12.644  14.821
72417W        W37644  35.623   4.284  10.721
72418W        W37645  42.983  17.287  10.820
72419W        W37646  30.013  39.820  13.857
72420W        W37647  11.728  30.775   4.963
72421W        W37648  20.312  37.680   3.661
72422W        W37649  15.509   3.975  12.546
72423W        W37650  31.448  42.500   0.344
72424W        W37651   9.834   7.232  13.891
72425W        W37652  44.456   5.407   5.042
72426W        W37653  37.250  32.545   0.029
72427W        W37654   6.755  36.964   4.708
72428W        W37655  28.328   7.212  13.648
72429W        W37656  37.967  21.171  11.287
72430W        W37657   5.031  29.852   1.346
72431W        W37658   3.056  25.956   1.868
72432W        W37659  36.248   7.304   2.172
72433W        W37660   5.461  21.802   3.700
72434W        W37661  17.009  14.577  11.161
72435W        W37662  24.925  32.180   3.665
72436W        W37663  42.795  39.355  14.161
72437W        W37664  16.256   6.879  13.017
72438W        W37665   1.966  30.224  14.421
72439W        W37666  16.519  39.366  10.962
72440W        W37667  22.743  32.535  10.538
72441W        W37668   0.276  11.900   3.697
72442W        W37669   1.209  27.193   0.973
72443W        W37670  14.812  13.787  12.929
72444W        W37671  15.101   4.810  10.734
72445W        W37672  16.828  37.395   2.646
72446W        W37673   5.144  10.413   3.741
72447W        W37674  37.846  35.837   4.070
72448W        W37675   3.677  18.762   2.169
72449W        W37676  10.107  36.799   3.644
72450W        W37677  16.186  32.040   2.980
72451W        W37678   9.798   7.340  11.603
72452W        W37679  31.183  17.669   0.263
72453W        W37680  39.570  37.285  14.863
72454W        W37681  35.623   5.886   2.310
72455W        W37682  38.972  21.783   1.815
72456W        W37683   0.291   1.900   2.916
72457W        W37684   8.762  10.272   1.327
72458W        W37685  29.474  28.243   3.356
72459W        W37686  24.433  32.444  12.244
72460W        W37687  17.766  36.103  11.573
72461W        W37688  36.383  21.762  12.962
72462W        W37689  25.565  16.307  12.387
72463W        W37690   6.097  42.523  11.695
72464W        W37691  37.644  25.789  12.447
72465W        W37692  15.088  35.737   4.993
72466W        W37693  23.180  12.343  14.052
72467W        W37694  39.543   6.946  10.330
72468W        W37695  39.685  21.076   0.268
72469W        W37696  20.981  19.708  14.020
72470W        W37697  23.937  26.927  13.364
72471W        W37698  33.833  12.901   4.545
72472W        W37699   5.774  22.580   2.872
72473W        W37700  29.623  39.435  10.550
72474W        W37701   3.411  15.329  12.003
72475W        W37702  31.684  17.582   0.248
72476W        W37703  38.570  12.844   4.315
72477W        W37704   1.509   4.678   3.873
72478W        W37705  34.200  38.167   3.504
72479W        W37706  21.221  44.115  14.471
72480W        W37707  30.105   3.398   2.711
72481W        W37708   4.282  15.824   1.896
72482W        W37709  12.584  23.200  12.532
72483W        W37710   1.182   9.871  11.183
72484W        W37711  20.926  18.653   4.185
72485W        W37712  41.087  32.216   4.212
72486W        W37713  21.649   1.017   9.807
72487W        W37714  23.622  21.015   3.362
72488W        W37715  18.715  21.810  12.072
72489W        W37716   6.395  19.237   4.447
72490W        W37717  21.077   7.369  10.606
72491W        W37718  13.594   1.692  14.024
72492W        W37719  10.817   7.387   1.489
72493W        W37720   3.397   2.553   3.798
72494W        W37721  18.240  28.422  14.976
72495W        W37722  20.182  42.472   3.673
72496W        W37723  38.324  28.229  12.143
72497W        W37724  19.398  26.529  12.012
72498W        W37725  21.570  21.446   3.106
72499W        W37726  23.985  36.707  12.588
72500W        W37727  38.913  24.310   3.714
72501W        W37728  20.222  21.690  14.898
72502W        W37729   1.267  41.438   3.826
72503W        W37730  43.370  21.778  12.540
72504W        W37731  22.532  44.457   0.364
72505W        W37732  28.741  44.387  11.099
72506W        W37733  44.704  12.281   4.555
72507W        W37734  26.208  32.669  11.960
72508W        W37735  19.134   6.084   0.438
72509W        W37736   3.835  23.750  13.505
72510W        W37737  18.759  30.712  11.035
72511W        W37738  12.231  43.775  13.542
72512W        W37739  13.701  31.426   4.122
72513W        W37740  16.527  42.548   3.310
72514W        W37741   1.356  32.076  12.449
72515W        W37742  26.895   8.940   4.592
72516W        W37743  18.986  41.240  11.621
72517W        W37744  34.501  27.986  11.340
72518W        W37745  21.137  11.649  11.117
72519W        W37746  15.267  19.095  10.743
72520W        W37747  12.288  40.242  11.739
72521W        W37748  29.707   7.277  13.090
72522W        W37749  31.102  11.642  11.505
72523W        W37750  33.837  29.957   4.158
72524W        W37751   7.113  26.431  10.986
72525W        W37752  19.197  37.513  12.971
72526W        W37753  13.139  35.537   4.557
72527W        W37754  31.264  17.650  10.217
72528W        W37755  20.166  31.948   1.936
72529W        W37756  17.291  21.162   0.979
72530W        W37757  14.117  35.346  12.054
72531W        W37758   9.122   2.085  14.886
72532W        W37759  43.330  32.138  11.605
72533W        W37760  42.349   1.645   1.263
72534W        W37761   1.672  23.234  14.377
72535W        W37762  40.442  39.281  10.636
72536W        W37763  23.472   8.253   0.410
72537W        W37764  32.764   0.924   3.871
72538W        W37765  40.573  21.968  14.129
72539W        W37766  27.606  44.466  10.274
72540W        W37767  28.140  27.000   1.673
72541W        W37768  22.622  30.620  13.111
72542W        W37769  38.852  35.661   0.125
72543W        W37770  26.714   1.317   4.595
72544W        W37771  11.803  16.158   2.501
72545W        W37772  21.548  29.557  11.984
72546W        W37773   0.868  12.700   3.744
72547W        W37774   8.856   4.025   3.104
72548W        W37775   7.898   9.762  12.131
72549W        W37776  26.248  29.416  11.017
72550W        W37777  15.816   5.724   4.071
72551W        W37778  15.882  23.575  13.791
72552W        W37779  44.802  16.534   2.147
72553W        W37780  41.957  42.456  13.913
72554W        W37781  44.766  12.339  14.449
72555W        W37782  42.883   9.309  14.327
72556W        W37783  15.592  11.155   1.789
72557W        W37784  39.476  16.032   4.234
72558W        W37785  14.221  20.208  14.660
72559W        W37786  35.227   0.714   0.223
72560W        W37787  31.280  35.520  14.779
72561W        W37788  24.278  14.580   0.789
72562W        W37789   2.887  10.848  13.032
72563W        W37790  15.095  44.018  10.986
72564W        W37791  41.460   1.481  13.032
72565W        W37792  26.477  19.427  12.450
72566W        W37793   1.988  39.619  10.848
72567W        W37794   3.749  35.915   1.000
72568W        W37795  25.192  32.954  11.943
72569W        W37796  11.274  14.012  13.014
72570W        W37797  10.330   6.446  14.895
72571W        W37798   0.032  11.193   2.303
72572W        W37799  40.484  36.058   3.147
72573W        W37800  27.071  30.689   1.698
72574W        W37801  19.515  12.731   3.175
72575W        W37802  40.510  32.564  12.705
72576W        W37803  36.529  35.209  12.567
72577W        W37804  16.178  24.474  13.780
72578W        W37805  40.858  34.457   1.456
72579W        W37806  42.296  16.398   4.568
72580W        W37807   8.116   5.871  14.571
72581W        W37808   2.516   3.178   2.940
72582W        W37809  44.266  22.002   1.162
72583W        W37810  13.603  41.268   2.851
72584W        W37811  10.382  40.274  10.881
72585W        W37812  34.970  16.699  11.849
72586W        W37813  12.832  24.173  13.818
72587W        W37814  15.296  28.969   2.572
72588W        W37815  24.462  16.653  12.977
72589W        W37816  31.902  12.862  11.721
72590W        W37817  16.587  27.111   1.269
72591W        W37818  14.556  14.307   1.593
72592W        W37819  25.094  14.723   1.079
72593W        W37820   8.039  43.699   2.253
72594W        W37821  15.170   9.700  12.380
72595W        W37822  31.530  16.156  13.377
72596W        W37823  26.635  16.518  14.514
72597W        W37824   6.330   1.816   4.106
72598W        W37825  31.998   5.312  11.500
72599W        W37826  35.058  43.892   0.085
72600W        W37827  23.425   6.726   3.616
72601W        W37828  18.609   5.923   0.300
72602W        W37829  13.792  32.924   0.784
72603W        W37830   0.842  14.122  12.956
72604W        W37831  19.573  12.501   0.728
72605W        W37832  31.264  14.691   2.301
72606W        W37833  34.859  17.698   0.775
72607W        W37834  40.489  27.520   1.881
72608W        W37835   0.162  28.348   1.830
72609W        W37836   0.397  18.159  13.386
72610W        W37837  28.228  18.519  14.837
72611W        W37838  24.914  23.655   4.232
72612W        W37839  20.576   7.869   1.732
72613W        W37840  26.997  35.890   0.234
72614W        W37841  42.902  29.083  14.760
72615W        W37842  29.198   7.772  13.504
72616W        W37843  16.896  24.074   1.600
72617W        W37844  29.047  36.094   2.318
72618W        W37845  14.302  44.709   2.385
72619W        W37846  29.016  16.843   4.480
72620W        W37847  34.714   5.345  14.986
72621W        W37848  34.356  22.689   3.285
72622W        W37849  32.132  16.831   2.376
72623W        W37850   5.835  31.925   3.713
72624W        W37851  37.581  36.076  12.858
72625W        W37852   8.123   1.311  13.183
72626W        W37853  35.965   5.227   4.894
72627W        W37854  42.462   3.474  11.486
72628W        W37855  26.464  23.543   2.747
72629W        W37856  23.150  27.331   2.753
72630W        W37857  34.964  16.499  10.669
72631W        W37858  29.596  28.167   2.864
72632W        W37859   5.159  25.022   1.253
72633W        W37860   9.745   6.732   0.935
72634W        W37861  44.066  15.813   0.310
72635W        W37862  23.760  29.994  11.184
72636W        W37863  24.777  35.301  11.268
72637W        W37864  19.787  17.610   0.885
72638W        W37865  35.882  14.067   0.760
72639W        W37866  32.453  30.588  13.334
72640W        W37867  34.709  15.072   0.673
72641W        W37868  31.025  25.026  12.597
72642W        W37869  39.426  30.691  12.252
72643W        W37870  15.813  35.571  14.827
72644W        W37871  18.609  30.970   2.112
72645W        W37872  38.831  36.782   3.730
72646W        W37873  40.695   7.023   4.896
72647W        W37874  12.494  44.549   2.807
72648W        W37875  25.077  10.923  10.736
72649W        W37876  42.935   1.516  12.877
72650W        W37877   7.530  32.468   0.563
72651W        W37878  37.528   1.045   0.897
72652W        W37879  20.514  14.678  11.094
72653W        W37880  20.961  28.264   1.014
72654W        W37881  15.566  35.906  12.445
72655W        W37882  43.824  38.581   4.067
72656W        W37883  13.825  24.799   1.932
72657W        W37884   4.061  36.840   4.090
72658W        W37885  33.299  22.794   3.293
72659W        W37886  33.904   0.520  14.945
72660W        W37887  32.821  33.665  13.390
72661W        W37888  36.045  19.022  10.701
72662W        W37889  30.528  21.103   3.379
72663W        W37890   5.307  34.366   4.283
72664W        W37891   4.677   1.158   3.423
72665W        W37892  31.699   6.424   0.115
72666W        W37893  20.738  15.669  14.288
72667W        W37894  43.568  29.917  10.947
72668W        W37895  40.326  35.480   2.267
72669W        W37896  24.762  29.822  12.008
72670W        W37897  11.319   2.781  11.560
72671W        W37898  13.845  20.514   1.001
72672W        W37899  33.198   7.550   3.288
72673W        W37900   3.582  18.116   1.539
72674W        W37901  37.893   1.740  12.513
72675W        W37902  33.908  11.519   4.388
72676W        W37903   8.132  22.968   3.609
72677W        W37904   8.864  35.910  13.806
72678W        W37905  44.881  30.054  11.153
72679W        W37906  22.402  26.105   1.222
72680W        W37907  28.037  36.680  13.981
72681W        W37908  11.951  33.172  11.664
72682W        W37909  14.166  34.852  12.017
72683W        W37910   3.858  17.123   4.804
72684W        W37911  25.491  10.399   1.301
72685W        W37912  16.763  27.627  10.734
72686W        W37913  44.469   8.894   0.922
72687W        W37914  19.568  29.207  13.572
72688W        W37915  11.263  18.004   2.200
72689W        W37916  30.433  44.583   4.949
72690W        W37917  25.322  35.980   1.622
72691W        W37918  13.771  21.928   3.664
72692W        W37919  32.687   4.251   4.477
72693W        W37920   3.369   5.029  10.301
72694W        W37921   0.174  12.275  14.119
72695W        W37922   8.260  28.629   0.495
72696W        W37923  39.784  44.231   0.515
72697W        W37924   1.450  22.690  13.489
72698W        W37925  44.832  21.936  12.541
72699W        W37926  29.888  15.588   0.316
72700W        W37927  23.528  43.754  13.392
72701W        W37928   6.343  35.802   3.767
72702W        W37929  38.290  32.504  13.759
72703W        W37930  43.826  44.800   4.445
72704W        W37931  39.081   3.463   1.729
72705W        W37932  27.674   1.217   3.805
72706W        W37933  11.648  23.191  12.528
72707W        W37934  34.473   1.957   1.831
72708W        W37935  15.766  12.685   1.711
72709W        W37936  38.599  19.672  10.860
72710W        W37937  37.038  11.362  10.711
72711W        W37938   2.494   0.080   3.177
72712W        W37939   1.727  16.067  12.130
72713W        W37940   5.139  40.465  14.877
72714W        W37941  11.261  40.189   0.409
72715W        W37942  13.103  35.080  10.289
72716W        W37943  44.253  12.094   1.731
72717W        W37944  25.949  25.725  10.697
72718W        W37945  20.078  42.784   4.466
72719W        W37946  44.031  39.263  10.707
72720W        W37947  12.311  29.400  11.979
72721W        W37948  29.277   2.941   3.252
72722W        W37949  31.997   3.446   3.196
72723W        W37950  20.829  19.978  14.469
72724W        W37951  11.249  42.747   2.129
72725W        W37952  34.888  35.905  10.589
72726W        W37953  27.761  15.760  13.220
72727W        W37954  15.665   7.873  11.709
72728W        W37955  36.968  38.997   0.360
72729W        W37956  17.127  17.923   4.599
72730W        W37957  42.915  12.974  14.404
72731W        W37958  42.369  36.302   2.460
72732W        W37959  13.831   7.836   3.181
72733W        W37960  19.532  22.555  10.711
72734W        W37961  14.381  44.998   0.781
72735W        W37962  37.662  41.487  11.605
72736W        W37963   2.767  24.878   0.449
72737W        W37964  20.794  11.852   1.092
72738W        W37965  21.145  12.640   4.255
72739W        W37966  32.035   2.681   3.515
72740W        W37967  17.588  40.235   0.305
72741W        W37968  34.569  24.468   1.276
72742W        W37969  33.923  12.306   0.876
72743W        W37970  19.672  15.585   4.605
72744W        W37971  12.860  35.888  12.488
72745W        W37972  25.918   3.653   1.202
72746W        W37973   1.786  43.491  13.695
72747W        W37974   7.339  18.508   0.260
72748W        W37975  16.533   2.974  11.714
72749W        W37976   5.683  13.000  11.172
72750W        W37977  34.124   7.261  12.867
72751W        W37978  35.139  32.994  13.049
72752W        W37979   9.684   6.753   3.622
72753W        W37980  38.583  16.306   2.902
72754W        W37981  13.664  19.754  12.523
72755W        W37982  33.644   1.876   0.813
72756W        W37983   7.275  34.689   0.991
72757W        W37984  16.497  42.187   0.685
72758W        W37985  27.251  16.257   0.863
72759W        W37986  38.871  18.986  12.074
72760W        W37987   3.959  38.380  11.477
72761W        W37988  44.947  10.798   2.715
72762W        W37989  16.765  17.286   3.773
72763W        W37990   3.781   3.274   3.672
72764W        W37991  15.156  42.041  12.346
72765W        W37992  29.437  23.168   0.174
72766W        W37993  35.567  31.587  12.687
72767W        W37994  38.654  40.845  14.432
72768W        W37995  16.351  34.492  11.897
72769W        W37996  26.704   9.251  11.941
72770W        W37997   0.585   3.345   0.044
72771W        W37998  19.760  38.639  14.260
72772W        W37999  21.188  30.166  10.451
72773W        W38000  19.618  34.916  10.644
72774W        W38001  34.952  21.507  12.374
72775W        W38002   6.190  24.138  14.934
72776W        W38003  20.604  17.301  12.444
72777W        W38004   8.640  12.563  10.152
72778W        W38005   8.326   6.824   4.543
72779W        W38006  15.611  19.535   0.860
72780W        W38007  30.325   0.219  11.567
72781W        W38008  35.860   2.382   1.574
72782W        W38009  33.542  25.645  11.088
72783W        W38010  26.723  40.042  10.661
72784W        W38011  40.384  31.623   0.564
72785W        W38012  35.019  43.269  11.575
72786W        W38013  38.469  30.206  14.765
72787W        W38014  29.071  32.831   2.793
72788W        W38015  36.804  39.459   3.630
72789W        W38016  35.525   8.536   5.140
72790W        W38017   0.102  31.597  11.923
72791W        W38018  28.258  25.871   2.202
72792W        W38019   0.863   8.282  11.112
72793W        W38020   7.217  14.056   1.204
72794W        W38021  38.950  22.470   0.186
72795W        W38022   1.330  13.450   1.147
72796W        W38023  31.184   5.960   4.477
72797W        W38024  29.447   9.724  10.948
72798W        W38025  27.973  29.942  13.857
72799W        W38026  29.196  11.961  13.400
72800W        W38027  38.442  41.980   0.242
72801W        W38028  39.611  36.780  14.769
72802W        W38029  21.030  35.411   3.127
72803W        W38030  20.756  38.644  10.633
72804W        W38031  31.831  37.998   4.960
72805W        W38032  18.353  39.372  12.365
72806W        W38033   4.878   9.773   4.642
72807W        W38034  18.734  22.710  14.118
72808W        W38035  24.048  15.363   2.955
72809W        W38036  13.358   4.179  13.617
72810W        W38037   6.370  33.536  13.960
72811W        W38038  14.827  39.017  14.725
72812W        W38039  17.278   6.829  11.999
72813W        W38040  33.067  20.237  12.554
72814W        W38041   5.442  37.693  14.417
72815W        W38042  40.331   8.059   4.163
72816W        W38043   1.347  16.271   2.551
72817W        W38044  23.776   9.467   1.260
72818W        W38045  10.193  18.174  14.366
72819W        W38046  18.113  19.414  14.088
72820W        W38047  36.904  18.131  11.407
72821W        W38048  13.880  40.607   0.981
72822W        W38049  23.479   2.574  11.090
72823W        W38050   5.442  14.719  13.561
72824W        W38051  26.202   7.429   4.598
72825W        W38052  28.945  21.732   1.921
72826W        W38053  39.346  21.017  10.821
72827W        W38054  23.047   5.422  13.394
72828W        W38055  31.659  36.821  13.477
72829W        W38056  17.909  27.467   2.925
72830W        W38057   7.075  25.796  14.376
72831W        W38058  22.967  29.888  10.744
72832W        W38059  15.919  18.649   0.703
72833W        W38060   4.504  20.166   2.298
72834W        W38061  29.948  42.507   2.333
72835W        W38062  10.849   2.529  11.810
72836W        W38063  22.125   5.058   2.825
72837W        W38064  24.067  10.060   3.673
72838W        W38065   6.786   1.806   2.358
72839W        W38066   2.562  13.518  11.655
72840W        W38067   6.513  28.881  11.623
72841W        W38068  40.929   2.636  12.653
72842W        W38069  35.992  31.502  11.366
72843W        W38070  42.720  12.313  11.286
72844W        W38071  24.859  16.742  14.947
72845W        W38072   2.151  22.923  11.029
72846W        W38073  27.710  40.385  11.526
72847W        W38074   0.804  16.180   5.226
72848W        W38075  12.933  16.344   2.612
72849W        W38076  38.520  25.972  14.320
72850W        W38077  38.401   8.719   1.695
72851W        W38078  27.702   1.635   2.426
72852W        W38079   4.450  11.573  12.070
72853W        W38080  38.851  21.537  14.892
72854W        W38081  29.102  43.966  13.106
72855W        W38082   6.449   2.737   2.672
72856W        W38083  25.581  32.599  13.480
72857W        W38084  36.055  39.411   4.195
72858W        W38085   7.963  32.443  12.567
72859W        W38086  27.541  27.068   4.501
72860W        W38087   8.201  24.709  14.430
72861W        W38088  19.284  16.497   1.333
72862W        W38089  21.938  41.826  12.988
72863W        W38090  10.716  44.791  10.860
72864W        W38091  13.182  30.701  13.378
72865W        W38092  34.460  18.122   2.230
72866W        W38093  42.937   2.276  11.052
72867W        W38094  29.017  10.900  14.854
72868W        W38095  22.796  37.913   2.814
72869W        W38096  21.755  14.834  11.964
72870W        W38097  29.907  42.294   4.698
72871W        W38098   2.665   0.517   0.936
72872W        W38099  28.709  43.531   1.006
72873W        W38100  36.973  16.258   2.342
72874W        W38101  13.117  16.259  13.011
72875W        W38102  33.410   1.256  10.819
72876W        W38103  27.621  27.864  11.443
72877W        W38104  24.292  25.550  12.309
72878W        W38105  17.901  39.256   3.219
72879W        W38106   1.522   2.300   1.686
72880W        W38107  41.261  31.075   2.386
72881W        W38108  13.746  13.673   2.582
72882W        W38109  29.926  42.127   4.187
72883W        W38110   6.506  28.097   2.380
72884W        W38111  18.981  31.858   0.334
72885W        W38112  31.776  14.760  13.391
72886W        W38113  44.328   2.811  13.011
72887W        W38114  39.963   7.890   2.136
72888W        W38115  15.341  13.843  12.926
72889W        W38116   1.380  39.749   3.674
72890W        W38117  32.219  17.070  14.704
72891W        W38118   1.964  34.935  13.781
72892W        W38119  25.649  34.386   1.704
72893W        W38120  18.841  32.351   2.649
72894W        W38121   8.838  21.965   0.869
72895W        W38122  24.077  15.220  12.631
72896W        W38123  39.015  12.021  12.465
72897W        W38124  21.215  18.837  11.148
72898W        W38125  40.913  10.301  12.617
72899W        W38126  20.197  26.638   3.252
72900W        W38127  18.859  11.000   4.535
72901W        W38128  37.036  34.873   0.724
72902W        W38129  24.259  29.049   0.153
72903W        W38130  23.598  22.457   3.839
72904W        W38131  19.133  43.139   3.226
72905W        W38132  39.297  35.057   0.508
72906W        W38133  13.388  31.586  11.928
72907W        W38134  43.252  40.389   1.975
72908W        W38135   7.424  37.857   4.339
72909W        W38136  29.505  19.307  14.839
72910W        W38137  25.907   8.796   1.233
72911W        W38138  28.067  34.029  11.549
72912W        W38139  30.402   1.752   3.653
72913W        W38140  22.472  21.639   3.448
72914W        W38141  21.146  17.466   4.173
72915W        W38142  16.531  17.739  10.469
72916W        W38143  16.704  38.116   3.249
72917W        W38144  40.376  41.518  11.173
72918W        W38145   9.371  21.690  10.649
72919W        W38146  13.693  21.965   0.391
72920W        W38147   9.497  13.306   2.363
72921W        W38148  22.714  22.486  11.558
72922W        W38149  44.248  27.576  10.422
72923W        W38150  36.853  36.841  12.517
72924W        W38151  44.757  35.851  13.446
72925W        W38152  12.219  31.250   1.292
72926W        W38153  35.900  30.655  11.253
72927W        W38154  33.310  18.715   1.215
72928W        W38155  33.398  36.271  12.034
72929W        W38156   4.077  35.097   3.069
72930W        W38157  15.592  38.221   1.341
72931W        W38158   7.789  25.031   3.151
72932W        W38159   0.447  18.326   0.965
72933W        W38160  39.618  37.304  11.053
72934W        W38161  28.775  15.246   9.744
72935W        W38162   9.708  18.901   5.249
72936W        W38163  33.808  22.102   1.013
72937W        W38164   6.199  20.645   1.987
72938W        W38165  12.878  26.700  11.988
72939W        W38166  12.339  24.595  11.251
72940W        W38167  20.624  30.993   0.338
72941W        W38168  24.028  12.666  12.487
72942W        W38169  36.446  28.685  13.350
72943W        W38170  33.550  15.518   4.039
72944W        W38171  26.875  31.806  11.651
72945W        W38172  28.426  42.795   1.715
72946W        W38173  42.861  12.451   0.164
72947W        W38174   9.970   3.134   4.102
72948W        W38175  21.505  19.796  14.066
72949W        W38176   9.148   1.525  11.309
72950W        W38177  29.033  26.013   2.051
72951W        W38178  28.866   3.182  10.734
72952W        W38179  16.639  41.010  11.370
72953W        W38180  41.910  12.772  14.243
72954W        W38181  35.165  30.625  11.308
72955W        W38182  15.242  32.884  11.061
72956W        W38183   8.180  18.749  14.739
72957W        W38184   0.061  19.678  14.686
72958W        W38185  38.303  39.036  13.406
72959W        W38186   9.375  32.074   1.847
72960W        W38187   5.246  21.073   1.323
72961W        W38188  32.946  21.931   3.173
72962W        W38189  32.506  17.172  13.578
72963W        W38190  26.153  15.266   1.712
72964W        W38191  40.318  35.367   3.606
72965W        W38192  22.002   4.856  13.932
72966W        W38193  14.665  17.057   1.109
72967W        W38194  27.673  42.992  11.581
72968W        W38195  36.277  39.142   0.142
72969W        W38196  40.817  15.920  10.590
72970W        W38197  19.523  26.233   0.395
72971W        W38198  26.160  17.876  12.006
72972W        W38199   3.406   8.131   2.295
72973W        W38200  30.308  22.211  14.430
72974W        W38201  38.962  30.671  10.673
72975W        W38202  32.025   6.226  14.456
72976W        W38203  21.597  15.740  11.502
72977W        W38204   4.841  32.177  13.489
72978W        W38205  40.280  38.923  14.925
72979W        W38206  14.343  39.283   3.126
72980W        W38207  44.873  12.313  10.979
72981W        W38208  35.583  38.015  10.620
72982W        W38209  17.583   4.393  11.596
72983W        W38210  10.282  36.773  13.288
72984W        W38211  20.985  22.676   3.607
72985W        W38212  24.539   1.244  12.006
72986W        W38213  15.342  42.870   0.393
72987W        W38214  39.390   0.460  11.550
72988W        W38215  27.968  20.327  12.143
72989W        W38216  20.122  40.835   4.852
72990W        W38217  12.152   4.591  12.951
72991W        W38218  43.865  12.700   4.529
72992W        W38219  39.631   0.528   4.138
72993W        W38220  37.020  27.714   2.692
72994W        W38221  15.759   4.007  11.644
72995W        W38222  29.512  40.916  14.442
72996W        W38223  23.125  10.166  12.467
72997W        W38224  12.857  32.391  12.311
72998W        W38225  41.310   0.854   3.568
72999W        W38226  30.920  16.478   0.977
73000W        W38227   0.767  38.981  11.923
73001W        W38228  28.690  30.180  11.177
73002W        W38229  42.456  31.212  11.592
73003W        W38230   5.167  22.037  13.334
73004W        W38231   8.638   4.787   0.923
73005W        W38232   9.894  33.810  12.434
73006W        W38233  34.350  41.230   5.114
73007W        W38234   9.349  33.146  10.507
73008W        W38235   5.727   3.021   3.167
73009W        W38236  22.667   7.507  13.075
73010W        W38237  41.512  26.196   3.129
73011W        W38238  44.832   4.518  10.911
73012W        W38239  14.819  18.933  11.276
73013W        W38240  43.261  17.865  11.375
73014W        W38241  25.503  17.689   3.718
73015W        W38242  33.390  14.460   4.588
73016W        W38243  21.719  19.262   1.690
73017W        W38244  32.930   5.463  12.966
73018W        W38245  36.622  22.128  12.045
73019W        W38246  34.622  22.715  10.713
73020W        W38247  15.284  15.816   3.475
73021W        W38248  32.629   3.231  12.616
73022W        W38249  23.156  34.097  14.531
73023W        W38250  14.937  31.013  13.846
73024W        W38251   3.885  34.615   3.886
73025W        W38252  19.532   6.501   5.129
73026W        W38253   3.984  38.037   4.277
73027W        W38254  37.347   9.269   4.532
73028W        W38255  31.831  39.412   0.237
73029W        W38256  26.743  40.869  11.079
73030W        W38257  22.675  13.638   2.166
73031W        W38258  29.683  41.874   3.797
73032W        W38259  44.007  21.537  14.292
73033W        W38260  35.813  27.502   3.078
73034W        W38261   8.157  11.706   3.064
73035W        W38262  18.188  35.088  13.788
73036W        W38263  19.705  27.054  11.244
73037W        W38264  19.681  17.308  11.635
73038W        W38265  43.496  31.395   3.738
73039W        W38266  37.842  12.328   4.619
73040W        W38267  14.691  36.355   2.316
73041W        W38268  30.627  13.697   0.977
73042W        W38269   6.207  31.089  13.530
73043W        W38270  19.172  25.520  13.466
73044W        W38271  26.492  32.656   1.592
73045W        W38272  37.041  33.526  12.405
73046W        W38273  33.232  31.396   4.828
73047W        W38274  14.657  10.575   1.352
73048W        W38275   8.364  37.492   3.118
73049W        W38276   8.079   0.084   3.611
73050W        W38277  10.117  43.851   0.386
73051W        W38278  31.818  29.446  14.003
73052W        W38279   0.772  33.490  10.743
73053W        W38280  32.761   5.729   4.294
73054W        W38281  30.954   7.717   1.687
73055W        W38282   0.415  40.512   4.131
73056W        W38283   7.301  27.314  10.399
73057W        W38284   4.873  15.575  13.870
73058W        W38285  20.272   9.084   3.625
73059W        W38286   0.887  18.995   2.305
73060W        W38287  40.289  12.065  10.998
73061W        W38288  20.808  13.878  14.421
73062W        W38289  39.407  20.271  14.958
73063W        W38290  19.798  41.290  11.187
73064W        W38291  23.260  42.368  11.200
73065W        W38292  38.353  36.935   3.640
73066W        W38293  20.091   7.621  12.897
73067W        W38294  35.124  35.402  14.457
73068W        W38295  40.041   1.324  13.434
73069W        W38296  36.387  17.675  12.551
73070W        W38297  15.267  32.092   1.608
73071W        W38298   9.203   8.292   1.967
73072W        W38299  42.550  16.664  11.597
73073W        W38300  29.171  29.762  14.438
73074W        W38301  12.784  19.743  12.972
73075W        W38302  18.761  42.796   3.128
73076W        W38303  30.743  31.599   0.438
73077W        W38304  21.570  44.976   0.282
73078W        W38305  20.566  30.090  14.265
73079W        W38306  27.568  17.365  14.860
73080W        W38307   7.306  20.301  14.890
73081W        W38308  40.974  12.532  12.416
73082W        W38309  44.488  30.228   4.472
73083W        W38310  44.902  33.561   4.527
73084W        W38311  23.670  18.090   4.454
73085W        W38312  44.556  16.866  13.131
73086W        W38313   3.818  39.787   1.746
73087W        W38314  11.689  38.900   3.302
73088W        W38315  23.126  42.931   3.768
73089W        W38316  11.199   0.197   3.689
73090W        W38317  24.734  19.137   1.824
73091W        W38318  31.513  19.527  12.113
73092W        W38319  17.983  37.868  12.343
73093W        W38320  26.530  12.506   1.001
73094W        W38321  23.747   8.395  14.964
73095W        W38322  44.201   4.257  11.906
73096W        W38323   6.221  17.392   4.128
73097W        W38324  36.622  20.080  14.896
73098W        W38325  36.176   2.365  14.920
73099W        W38326   7.973  44.607   3.417
73100W        W38327  25.579  31.458   0.237
73101W        W38328  17.817   4.466   4.504
73102W        W38329  18.125  30.385  14.930
73103W        W38330  27.407  43.840  13.015
73104W        W38331  41.867  44.328   2.193
73105W        W38332   7.746  38.790   3.636
73106W        W38333  18.159   4.981  13.400
73107W        W38334   1.246  23.642   3.660
73108W        W38335  40.061  30.783  12.603
73109W        W38336  19.838  10.321   3.231
73110W        W38337   2.831  16.539   4.500
73111W        W38338  34.283  18.345  10.456
73112W        W38339  38.974  28.544  13.765
73113W        W38340  33.609  18.003  11.506
73114W        W38341   9.649  17.155  12.499
73115W        W38342  29.458  41.994  11.596
73116W        W38343  11.383  38.868   0.532
73117W        W38344  10.430  17.221  14.804
73118W        W38345  18.359  37.402  11.014
73119W        W38346  22.643  23.698   1.257
73120W        W38347  25.449  42.850   4.139
73121W        W38348  16.264  27.928   2.303
73122W        W38349  17.212   5.921   1.914
73123W        W38350  10.521  13.284  11.539
73124W        W38351  31.042  40.522  14.091
73125W        W38352   7.885   7.553  14.956
73126W        W38353   5.799  35.789   2.284
73127W        W38354  34.526  31.561  11.180
73128W        W38355  40.072  16.714  10.539
73129W        W38356  12.611  37.084   1.909
73130W        W38357  27.812  27.288   1.970
73131W        W38358   1.797   6.501  14.960
73132W        W38359  23.011  19.038   2.662
73133W        W38360   2.903  21.604   2.284
73134W        W38361   6.686   0.556   3.726
73135W        W38362  42.690  37.008   4.659
73136W        W38363  44.262  38.578  14.400
73137W        W38364  36.057  22.378   3.315
73138W        W38365  35.893   4.661   4.038
73139W        W38366   9.013  18.831   3.230
73140W        W38367  13.942   1.909  13.592
73141W        W38368  16.242  23.020  12.615
73142W        W38369   4.821  43.482  12.907
73143W        W38370  36.228  16.054   1.672
73144W        W38371  11.852  19.423  14.470
73145W        W38372  40.789   3.307  10.624
73146W        W38373  13.693  13.786  12.217
73147W        W38374  44.533  14.168  12.970
73148W        W38375  19.710  43.531  10.772
73149W        W38376   4.975  31.165   4.701
73150W        W38377  15.354   0.349  10.753
73151W        W38378  20.422  15.704  12.394
73152W        W38379  12.346  13.136   1.206
73153W        W38380  10.985  26.206  12.142
73154W        W38381  44.593  15.872   1.211
73155W        W38382  40.510  22.577  12.853
73156W        W38383   2.746  21.342   0.421
73157W        W38384   6.852  21.775   1.119
73158W        W38385  14.918  18.813   2.671
73159W        W38386  13.158  44.782  11.169
73160W        W38387   7.103  11.628  11.478
73161W        W38388  12.535   1.130  12.121
73162W        W38389  28.050  41.769  11.644
73163W        W38390  41.729  26.474  12.997
73164W        W38391  43.327   8.498   3.812
73165W        W38392  12.404  38.396  14.805
73166W        W38393  19.783  20.626   0.108
73167W        W38394  30.003  22.982   0.694
73168W        W38395   4.592  42.741   3.279
73169W        W38396  18.864   8.943   4.602
73170W        W38397  34.341   3.845   3.175
73171W        W38398   3.763  30.181  14.905
73172W        W38399  33.156  31.599  13.451
73173W        W38400  24.981  43.382  13.038
73174W        W38401   8.602  36.477   1.945
73175W        W38402  24.422   0.984   0.023
73176W        W38403  37.850  22.140  12.601
73177W        W38404  34.009   3.822  11.425
73178W        W38405  32.402  32.620  13.055
73179W        W38406   1.453  35.158  10.684
73180W        W38407  40.161  22.724  11.231
73181W        W38408  30.427   7.662  14.877
73182W        W38409  14.070  13.258   1.869
73183W        W38410  20.547  30.465  11.625
73184W        W38411  25.319  34.476   3.607
73185W        W38412   9.051  20.402  12.098
73186W        W38413  19.354  41.290  13.726
73187W        W38414  24.237  42.372  10.674
73188W        W38415   2.476  28.058   0.935
73189W        W38416  28.849   2.005  13.633
73190W        W38417  21.071  18.000   0.422
73191W        W38418  10.402  31.093  13.796
73192W        W38419  19.695   1.550   0.015
73193W        W38420  13.901  26.407   2.302
73194W        W38421  19.523   0.539  13.964
73195W        W38422  43.026   8.746   1.282
73196W        W38423  24.632   9.630  12.929
73197W        W38424  15.459  22.734   4.216
73198W        W38425  40.287  29.009  12.461
73199W        W38426  10.838   7.742   3.228
73200W        W38427  31.086  16.003  11.421
73201W        W38428   6.728  25.278  13.915
73202W        W38429  36.918  35.691  10.795
73203W        W38430  32.906  19.154   2.816
73204W        W38431   0.606  27.566   2.721
73205W        W38432  14.827   5.534   4.220
73206W        W38433   9.317  37.890   2.358
73207W        W38434  38.966   9.436   2.424
73208W        W38435  16.248   8.782  13.014
73209W        W38436  37.408  11.420   2.112
73210W        W38437  29.863  25.042   1.772
73211W        W38438   7.785   6.877   1.948
73212W        W38439  28.761   4.967   1.905
73213W        W38440  40.126  38.800  14.068
73214W        W38441   4.987  39.887   4.059
73215W        W38442   9.326   0.671   0.196
73216W        W38443  41.862  12.380  11.151
73217W        W38444  41.976  34.484  14.873
73218W        W38445   6.890  19.045  12.461
73219W        W38446  10.218   8.422   3.147
73220W        W38447  39.128  35.694   1.824
73221W        W38448  42.515  14.390   2.742
73222W        W38449  39.177   6.646  12.638
73223W        W38450  44.498   0.971  12.535
73224W        W38451  41.775  19.136  11.106
73225W        W38452  16.636  42.338  14.272
73226W        W38453   8.530  29.210   0.837
73227W        W38454  33.941  10.879   2.321
73228W        W38455  15.169  37.280   1.470
73229W        W38456  33.812  25.495   3.460
73230W        W38457  39.569  39.769   0.907
73231W        W38458  14.607  32.653   0.556
73232W        W38459  13.234  26.997  11.233
73233W        W38460   1.611  16.633   2.842
73234W        W38461  40.332  24.304   3.256
73235W        W38462   8.977  41.153   0.961
73236W        W38463  29.679  37.645   1.402
73237W        W38464  24.767  40.555  11.099
73238W        W38465   7.264  15.543  13.210
73239W        W38466  36.431  25.795  13.291
73240W        W38467  38.285  34.805  14.496
73241W        W38468  33.129  38.904  13.987
73242W        W38469   8.699   3.203   0.872
73243W        W38470  37.486  23.121   5.000
73244W        W38471   1.244  25.744  14.926
73245W        W38472  14.318  20.295  12.943
73246W        W38473  17.737   2.769   3.080
73247W        W38474  24.268  28.959  14.605
73248W        W38475   1.217  26.884   2.229
73249W        W38476  24.932  10.659   3.646
73250W        W38477   5.089  26.106  12.377
73251W        W38478   9.727   0.290  13.464
73252W        W38479  15.063  11.836   4.039
73253W        W38480  32.626  10.130   0.796
73254W        W38481  11.119   1.356   2.670
73255W        W38482  31.343  39.516   3.255
73256W        W38483  38.592  12.143  14.425
73257W        W38484  40.585  27.150   0.695
73258W        W38485   7.852  28.542   3.762
73259W        W38486   6.036  37.283   0.259
73260W        W38487  25.551  29.452   1.670
73261W        W38488  42.838   4.055  12.614
73262W        W38489  41.934  11.513  11.825
73263W        W38490   5.878   4.689   3.785
73264W        W38491  18.602  13.841   0.836
73265W        W38492   8.913   9.785   1.008
73266W        W38493  38.839  18.250  11.214
73267W        W38494  44.847  16.558  12.144
73268W        W38495  32.007   1.804  10.842
73269W        W38496  40.067   9.879  14.746
73270W        W38497  37.902  38.627   3.881
73271W        W38498   5.500  21.152   1.838
73272W        W38499  34.503  29.001   3.680
73273W        W38500   4.012  24.497   0.546
73274W        W38501  24.107   6.193   2.719
73275W        W38502  12.774  20.364  14.241
73276W        W38503  21.616  36.519   4.503
73277W        W38504  37.056  24.638  13.363
73278W        W38505  44.109  21.546   1.706
73279W        W38506  41.827  10.186   4.630
73280W        W38507  16.330  25.925  13.539
73281W        W38508  26.541  11.100  11.597
73282W        W38509  31.957  40.961  11.074
73283W        W38510  22.532   5.347   0.900
73284W        W38511  15.304  42.003  10.679
73285W        W38512  15.724  27.606   0.523
73286W        W38513  23.510   4.446   3.555
73287W        W38514  12.911   4.102  14.451
73288W        W38515  26.694  22.272  14.022
73289W        W38516  18.591  19.743  12.230
73290W        W38517  10.407   0.320  11.937
73291W        W38518  21.190  16.007   4.852
73292W        W38519   1.578  23.709  12.993
73293W        W38520   4.234  31.516  12.864
73294W        W38521  44.671  20.087   9.768
73295W        W38522  42.340  10.812  14.795
73296W        W38523  42.033   0.267  11.888
73297W        W38524  43.784   6.438  11.632
73298W        W38525  41.156  32.004   2.181
73299W        W38526   1.388  39.853   3.161
73300W        W38527  37.906   3.840  14.872
73301W        W38528   1.683  15.837  13.008
73302W        W38529  18.451  23.596   1.751
73303W        W38530  40.070   7.297  12.496
73304W        W38531  16.778  25.003  11.651
73305W        W38532   9.113   1.416   4.148
73306W        W38533  13.641  27.069   1.504
73307W        W38534   4.613  40.793  11.606
73308W        W38535  32.862  25.242  11.904
73309W        W38536  25.990  39.840  14.473
73310W        W38537  15.639  19.851   1.286
73311W        W38538  18.671  19.945  11.390
73312W        W38539   9.869  16.997   4.539
73313W        W38540   3.940  35.608  11.128
73314W        W38541  20.566  10.262  12.134
73315W        W38542  20.325   1.205   1.416
73316W        W38543  14.010   4.077   3.216
73317W        W38544   0.578  25.688  12.139
73318W        W38545  30.682  39.525  11.440
73319W        W38546  25.944  16.799   1.982
73320W        W38547  30.743  36.061   1.611
73321W        W38548   6.197   0.524  10.721
73322W        W38549  44.404  44.179   1.195
73323W        W38550   1.862  40.303  12.335
73324W        W38551  20.266  34.220   3.296
73325W        W38552   8.502  33.313  14.856
73326W        W38553  40.070   5.752   2.336
73327W        W38554  18.700   4.081  12.105
73328W        W38555  28.518  13.713  10.705
73329W        W38556  13.241  38.080   0.090
73330W        W38557   3.791  37.553   1.013
73331W        W38558   9.270  27.708  11.692
73332W        W38559  14.295  13.754  13.009
73333W        W38560  17.895   9.228  14.827
73334W        W38561  27.483  19.514   4.184
73335W        W38562  18.866   1.397  11.605
73336W        W38563  26.784  16.472   0.907
73337W        W38564  42.102  27.736  14.857
73338W        W38565  24.682   9.711  12.025
73339W        W38566  27.509  27.235   3.597
73340W        W38567  20.456   9.579  10.624
73341W        W38568  31.898  34.376  13.064
73342W        W38569   3.555   7.536  11.682
73343W        W38570  19.785   3.471   3.162
73344W        W38571  14.700  41.810  13.099
73345W        W38572   8.264  41.876   4.608
73346W        W38573  17.097  33.828   1.175
73347W        W38574  27.923  29.550   4.331
73348W        W38575  31.920  29.964  11.783
73349W        W38576  31.199  12.031   1.907
73350W        W38577   4.497  32.433   4.611
73351W        W38578  43.982  27.153  14.517
73352W        W38579  25.512   5.038  12.939
73353W        W38580  15.877  44.943   3.265
73354W        W38581  17.907  13.513   3.796
73355W        W38582  39.066  12.518  11.628
73356W        W38583  35.794  13.211   3.257
73357W        W38584  24.013  21.389   3.415
73358W        W38585  28.585   2.844   3.950
73359W        W38586  17.444  29.957   2.560
73360W        W38587  11.262  41.041  13.120
73361W        W38588  10.837  30.709  11.982
73362W        W38589  32.380  34.036   5.303
73363W        W38590  20.550   1.729   0.906
73364W        W38591  22.247  21.296   0.503
73365W        W38592  29.379  23.296  12.668
73366W        W38593  28.463  36.880   0.253
73367W        W38594  39.080  15.640   4.977
73368W        W38595  32.108  10.387   3.625
73369W        W38596  27.702   7.763   2.162
73370W        W38597  18.558  24.346  12.059
73371W        W38598  12.194  28.950   0.408
73372W        W38599  36.366  14.677  12.850
73373W        W38600  24.527  35.694  12.884
73374W        W38601  42.427  25.135   4.263
73375W        W38602  26.285  18.380  11.943
73376W        W38603  23.337  22.065   4.121
73377W        W38604  34.844  35.129  13.815
73378W        W38605  24.545  31.500   4.127
73379W        W38606  42.016  34.372   4.507
73380W        W38607  15.503  15.925  14.558
73381W        W38608  13.161  21.967   0.257
73382W        W38609  26.072   6.274   3.619
73383W        W38610  15.904   2.767  14.390
73384W        W38611  13.951  39.605   3.268
73385W        W38612  12.552  36.920  11.548
73386W        W38613  12.790  33.386   2.283
73387W        W38614   2.515  14.487   1.957
73388W        W38615   6.784  43.826   1.756
73389W        W38616   4.709  18.910   2.340
73390W        W38617  32.457  14.630  13.004
73391W        W38618  19.533  18.671  12.533
73392W        W38619  11.025  44.024  14.318
73393W        W38620  38.061  26.974  14.729
73394W        W38621   4.799  34.967   0.826
73395W        W38622  22.725  40.108   2.353
73396W        W38623  24.004  36.476  11.684
73397W        W38624   4.926  40.907   3.007
73398W        W38625  35.506  22.574  13.109
73399W        W38626   0.653  23.019   5.013
73400W        W38627  21.482  14.254   3.228
73401W        W38628  20.732  33.937   1.537
73402W        W38629  12.623  41.657   0.790
73403W        W38630  29.700   4.806   4.099
73404W        W38631  37.471  35.532   2.275
73405W        W38632  36.055  24.900   2.653
73406W        W38633  20.197  11.427  13.892
73407W        W38634  32.165  37.043  11.660
73408W        W38635  43.502  11.181  13.694
73409W        W38636  23.512  19.331   4.530
73410W        W38637  22.265  13.675  11.683
73411W        W38638  17.834  32.366  11.925
73412W        W38639  34.565  17.825  11.784
73413W        W38640   8.240  18.762   0.730
73414W        W38641  12.100  14.672   3.588
73415W        W38642  31.834  34.542   0.254
73416W        W38643  14.670  22.104   4.516
73417W        W38644  42.828  19.030   3.080
73418W        W38645  19.597  39.068   0.382
73419W        W38646  43.799   4.863   0.926
73420W        W38647   5.176  43.499  14.516
73421W        W38648  36.086  13.593  11.466
73422W        W38649   9.379  44.918   0.710
73423W        W38650  12.427  41.381  11.923
73424W        W38651  24.787  44.093   0.884
73425W        W38652   6.444  24.916   1.824
73426W        W38653  23.532  11.207  14.487
73427W        W38654  25.153  43.105  13.788
73428W        W38655  38.504  40.479  13.078
73429W        W38656  31.979  34.379  12.569
73430W        W38657  16.804  25.068  12.781
73431W        W38658  41.596  15.158   0.296
73432W        W38659  14.555   3.707  11.153
73433W        W38660   3.280  32.670  14.074
73434W        W38661  24.858  25.163  12.954
73435W        W38662   7.968  21.820   2.667
73436W        W38663  40.087   4.769   0.809
73437W        W38664  24.029  24.109  13.311
73438W        W38665  10.596  25.891   1.801
73439W        W38666  32.602  35.630   1.817
73440W        W38667  44.362  42.895   2.725
73441W        W38668  19.815  28.680   0.913
73442W        W38669   5.396  41.785   2.850
73443W        W38670  25.102  29.421  14.228
73444W        W38671  32.430  17.543  14.845
73445W        W38672  34.063  21.760   1.940
73446W        W38673  32.763  30.038   1.334
73447W        W38674  43.312  25.946  11.014
73448W        W38675  15.771  26.292   0.318
73449W        W38676  14.705  17.861  12.887
73450W        W38677  22.276  36.078   2.828
73451W        W38678   4.236  23.621  10.687
73452W        W38679   2.396   1.000   1.780
73453W        W38680  12.324  26.865  12.968
73454W        W38681  12.555   5.124   1.531
73455W        W38682  42.267  33.061  11.813
73456W        W38683  36.590  17.328   3.561
73457W        W38684   6.960  35.374   1.372
73458W        W38685  42.928  41.074   1.342
73459W        W38686  25.269  20.028   2.355
73460W        W38687  19.421   9.393   1.886
73461W        W38688   5.333  36.573   3.177
73462W        W38689   8.139  21.703   2.192
73463W        W38690   0.185  25.936   4.153
73464W        W38691  23.282  22.618   0.471
73465W        W38692   6.441  14.357  12.131
73466W        W38693  31.282  44.546  10.231
73467W        W38694  30.064  31.032   1.179
73468W        W38695  25.885  24.429  10.849
73469W        W38696  34.801  42.464   3.322
73470W        W38697   6.446   5.122   2.205
73471W        W38698  18.337   6.241  10.712
73472W        W38699  28.380  23.130  11.586
73473W        W38700  21.548  41.002   2.781
73474W        W38701  35.018  44.423  14.283
73475W        W38702  29.964  41.763  11.062
73476W        W38703  15.802   8.321  12.477
73477W        W38704  24.693  17.706   4.904
73478W        W38705   7.861   0.282  12.179
73479W        W38706  26.318  39.071   3.244
73480W        W38707  31.639   7.211  14.715
73481W        W38708  11.804  10.183   0.938
73482W        W38709  26.977  14.633  11.930
73483W        W38710  33.412  42.141  13.933
73484W        W38711  27.229  34.345   0.816
73485W        W38712  27.945  16.473  11.991
73486W        W38713  42.605  40.103  13.007
73487W        W38714  11.419   8.604   3.801
73488W        W38715  29.403  34.608  13.985
73489W        W38716  26.650   0.551  13.339
73490W        W38717  37.021  16.055   3.932
73491W        W38718   9.166  28.629   0.784
73492W        W38719  19.721   1.616  12.984
73493W        W38720  15.607  19.205   3.113
73494W        W38721  14.044  17.667   0.565
73495W        W38722  39.078   7.732  13.510
73496W        W38723  38.940  24.753  12.076
73497W        W38724  12.772  25.071  13.628
73498W        W38725   5.794  37.128   0.793
73499W        W38726  24.263  30.111  11.143
73500W        W38727  23.214  35.989  10.703
73501W        W38728   2.523  15.664  12.518
73502W        W38729   6.208  19.011  13.652
73503W        W38730  10.826  30.739  14.040
73504W        W38731   1.984  44.685   0.933
73505W        W38732  32.530  17.303   1.919
73506W        W38733   0.213   3.945   1.382
73507W        W38734  19.705  16.793  12.591
73508W        W38735  14.827  32.940   1.723
73509W        W38736  36.659  24.130  14.366
73510W        W38737  33.683  38.436   2.306
73511W        W38738  15.261   1.388  13.409
73512W        W38739  38.316   4.424  10.177
73513W        W38740  24.237   8.849   5.044
73514W        W38741  32.437   0.734   4.224
73515W        W38742  20.524   5.198   1.756
73516W        W38743  15.674  40.429  14.883
73517W        W38744   7.259  11.792  10.659
73518W        W38745  27.579  32.495   4.709
73519W        W38746   6.603  26.043  14.426
73520W        W38747  19.732   0.105   0.445
73521W        W38748   2.164  22.644   2.977
73522W        W38749   4.449   3.734  11.192
73523W        W38750  32.394  12.040  10.608
73524W        W38751  28.444  34.500   3.754
73525W        W38752   1.810  33.191   2.244
73526W        W38753  28.047  27.153   4.493
73527W        W38754  43.284  25.606   0.757
73528W        W38755  13.427  42.038  14.736
73529W        W38756   4.411  40.915   3.728
73530W        W38757  32.030   4.197  14.385
73531W        W38758  28.631  19.556  10.747
73532W        W38759  23.180  41.511  11.606
73533W        W38760  12.673  37.273   2.391
73534W        W38761  25.746   3.293  13.521
73535W        W38762  19.097  14.034  12.571
73536W        W38763  28.943  11.547  13.589
73537W        W38764  43.137  21.097   3.201
73538W        W38765   2.886  19.223   5.853
73539W        W38766  28.218  29.484   1.342
73540W        W38767  11.199  30.189   3.677
73541W        W38768  16.615  22.511   4.142
73542W        W38769  22.264  42.623   4.865
73543W        W38770  17.685  22.798  11.166
73544W        W38771  40.997  16.777   1.564
73545W        W38772  27.017  23.912  12.515
73546W        W38773  11.307  12.518  12.182
73547W        W38774  38.008   0.821   0.460
73548W        W38775  15.473  29.910   0.182
73549W        W38776  36.606   6.324  11.545
73550W        W38777  37.735  40.277   4.523
73551W        W38778  41.004  30.827   2.772
73552W        W38779  39.325  13.178  13.839
73553W        W38780  14.124  40.793  12.862
73554W        W38781  20.045  10.177   0.307
73555W        W38782  14.673   8.158   2.285
73556W        W38783  41.041  30.761  11.435
73557W        W38784  33.416  12.441   0.740
73558W        W38785   6.901  34.247   2.373
73559W        W38786  15.329  41.058   0.455
73560W        W38787   1.757  24.883  11.203
73561W        W38788  26.426  23.831   3.675
73562W        W38789  38.198  40.849  12.412
73563W        W38790   1.925  33.425  10.467
73564W        W38791  27.219   0.130  10.613
73565W        W38792  30.360  38.063  14.816
73566W        W38793  33.238  12.814   1.665
73567W        W38794   4.173  44.011   2.223
73568W        W38795  12.368  23.531  13.535
73569W        W38796  17.853   5.000   4.588
73570W        W38797  38.409  16.363   0.416
73571W        W38798  20.195  38.576  14.562
73572W        W38799  13.994  42.480  13.836
73573W        W38800  16.419  44.640  12.456
73574W        W38801  36.029  27.693   1.743
73575W        W38802  41.059  25.257  11.416
73576W        W38803  28.593  20.550   1.501
73577W        W38804  27.527  14.646   4.553
73578W        W38805  31.095  10.122   3.840
73579W        W38806  34.456   3.812  10.832
73580W        W38807  15.664  27.442   3.385
73581W        W38808  10.214  30.538   1.164
73582W        W38809  36.307   9.377  11.426
73583W        W38810  44.706  11.552  13.975
73584W        W38811   0.755  44.226   4.982
73585W        W38812  29.605  34.550   4.772
73586W        W38813  34.936  15.259   1.548
73587W        W38814  19.258  41.846   2.400
73588W        W38815  39.053  12.690  14.983
73589W        W38816  17.871  28.236  12.288
73590W        W38817  19.522   3.355  14.460
73591W        W38818   0.747   5.697   1.917
73592W        W38819  15.253   3.522  14.463
73593W        W38820  10.221  44.313   1.190
73594W        W38821  14.130  26.492  14.903
73595W        W38822  14.468  30.194   2.262
73596W        W38823  44.464  44.539  12.536
73597W        W38824   3.993  30.746   0.806
73598W        W38825  43.485   2.135  13.813
73599W        W38826  28.439  37.935  11.561
73600W        W38827  29.874  44.861  14.006
73601W        W38828  29.146   9.131   2.357
73602W        W38829  10.878  25.580   1.464
73603W        W38830  16.939  37.408  14.447
73604W        W38831  17.062  21.174   2.410
73605W        W38832  34.439  15.610  12.672
73606W        W38833  37.428   5.720  12.360
73607W        W38834   2.857  41.911  13.524
73608W        W38835  28.580   1.422  14.319
73609W        W38836   1.950  12.241   1.338
73610W        W38837  20.200   5.439   2.451
73611W        W38838  25.253  20.502  11.442
73612W        W38839   9.744  20.426  13.931
73613W        W38840  19.632  23.137   4.158
73614W        W38841  32.659  33.023   2.782
73615W        W38842  30.923  24.176   4.220
73616W        W38843  34.430  21.765  11.827
73617W        W38844  25.968  26.885   2.276
73618W        W38845  29.044   4.510  11.082
73619W        W38846  29.981  13.380  13.619
73620W        W38847   9.360  21.754  13.809
73621W        W38848  23.631  36.941   3.276
73622W        W38849  30.350  19.691   4.017
73623W        W38850  39.281  25.708  14.857
73624W        W38851  33.214   0.269  13.604
73625W        W38852  13.174   0.702   1.433
73626W        W38853  22.087   3.394  12.979
73627W        W38854  16.058  34.873   3.232
73628W        W38855  42.491  35.535  12.157
73629W        W38856  34.004  29.485   3.993
73630W        W38857  10.485  16.118  10.260
73631W        W38858  27.939   6.682  11.948
73632W        W38859  19.218  29.850   1.933
73633W        W38860  28.512  25.947   0.855
73634W        W38861  20.732  43.569  13.992
73635W        W38862  43.459  22.573  11.594
73636W        W38863  38.269  44.950  14.858
73637W        W38864   8.287   3.874  12.791
73638W        W38865  34.625   8.808  10.679
73639W        W38866  29.039  23.144   0.956
73640W        W38867  35.533   2.761  12.741
73641W        W38868  38.991  33.527  10.546
73642W        W38869  40.429  38.432   4.158
73643W        W38870   7.834   4.518   2.392
73644W        W38871   7.513  21.100   1.918
73645W        W38872  20.855   6.167  12.669
73646W        W38873   9.336   4.002  14.552
73647W        W38874  21.473  24.197   0.946
73648W        W38875  36.896  22.538   0.964
73649W        W38876   5.715  21.053  14.526
73650W        W38877  26.423   7.631  13.462
73651W        W38878  33.346  29.562   2.838
73652W        W38879  28.043   9.659  13.896
73653W        W38880   4.228  22.054  13.904
73654W        W38881  15.605  30.686  14.343
73655W        W38882  19.240  27.247  11.147
73656W        W38883  16.572  13.592  13.472
73657W        W38884  17.272  23.212  11.981
73658W        W38885  35.674  15.436   2.887
73659W        W38886   3.955  13.184  12.196
73660W        W38887  10.657  24.581   0.449
73661W        W38888  40.792  42.394   2.127
73662W        W38889   8.301  33.612  14.442
73663W        W38890   2.909  15.285   2.203
73664W        W38891  11.295  34.485  13.550
73665W        W38892  10.624  35.392   3.669
73666W        W38893  13.692  31.011  13.387
73667W        W38894  30.547  12.123   4.561
73668W        W38895   7.695   7.640   1.255
73669W        W38896  20.151  16.559  12.792
73670W        W38897  10.233   9.881   4.517
73671W        W38898   0.878   5.193   4.308
73672W        W38899  32.519  29.288   3.589
73673W        W38900  10.161   1.936  13.908
73674W        W38901  28.581   1.674  11.850
73675W        W38902  36.411   6.199   3.584
73676W        W38903  28.423   6.234   2.768
73677W        W38904  32.105  16.807   3.570
73678W        W38905  23.797   2.671  14.435
73679W        W38906   4.022  39.479   2.331
73680W        W38907  20.117  40.362   2.169
73681W        W38908   2.943  42.389   2.262
73682W        W38909  27.642  13.864   1.872
73683W        W38910   8.787   7.526  11.612
73684W        W38911  25.632  11.181  10.783
73685W        W38912   4.991  31.028  13.919
73686W        W38913  39.464   5.322   3.522
73687W        W38914  35.916  25.281  13.034
73688W        W38915   6.278  13.830   4.095
73689W        W38916  10.804  15.805  12.050
73690W        W38917   1.834   1.410   2.226
73691W        W38918  15.186   4.856   0.685
73692W        W38919   3.820  10.106   3.298
73693W        W38920  43.561  25.744  14.835
73694W        W38921   7.333  29.913  13.990
73695W        W38922  39.998  25.873   4.849
73696W        W38923   7.187  36.387   3.592
73697W        W38924  40.237   0.269  13.278
73698W        W38925  25.462  17.546  11.604
73699W        W38926   3.523  19.072   4.701
73700W        W38927  17.618  41.638  12.391
73701W        W38928  33.167  12.905   4.086
73702W        W38929  17.993  15.220  10.686
73703W        W38930  42.226  36.556  12.829
73704W        W38931  10.378  35.294  13.431
73705W        W38932  31.100  26.799  12.663
73706W        W38933   8.758  32.089  11.467
73707W        W38934   6.677  42.869   0.241
73708W        W38935  12.347  21.435  11.488
73709W        W38936  37.423  10.193  11.131
73710W        W38937  32.159  33.424  12.291
73711W        W38938  42.694  16.680  14.286
73712W        W38939  12.149  26.730   1.450
73713W        W38940  17.769   0.293  12.474
73714W        W38941  33.551   2.989   4.950
73715W        W38942  13.881  43.736  11.064
73716W        W38943  34.369  44.740  13.907
73717W        W38944  41.647   1.004  13.081
73718W        W38945   1.937   3.741  14.922
73719W        W38946   4.700  24.095   3.629
73720W        W38947  32.428  44.003   0.542
73721W        W38948  26.663  13.811   5.037
73722W        W38949   9.654  33.989  11.338
73723W        W38950   2.956  29.552   2.356
73724W        W38951  11.872  10.451  13.843
73725W        W38952  35.579  28.886  12.088
73726W        W38953   5.688  20.610  10.846
73727W        W38954  24.965   6.262   1.275
73728W        W38955  28.435  32.483   0.315
73729W        W38956  40.948   8.005  14.258
73730W        W38957  10.974  15.659  10.630
73731W        W38958  26.551  32.032   3.589
73732W        W38959  42.514  19.117  13.004
73733W        W38960  29.074  33.598  14.966
73734W        W38961  40.727  24.517   1.228
73735W        W38962   1.015  26.736  14.816
73736W        W38963   4.308  29.090  12.842
73737W        W38964  14.443  26.928   5.133
73738W        W38965   1.456  23.766  12.484
73739W        W38966  33.182  34.415   5.563
73740W        W38967  17.093  18.470  11.267
73741W        W38968  40.054   0.256   0.647
73742W        W38969  28.191  12.231   4.088
73743W        W38970   9.923  11.488   3.731
73744W        W38971  31.513  12.666   3.167
73745W        W38972  10.226  15.841  14.900
73746W        W38973  12.502  29.865  11.091
73747W        W38974   3.258  30.546   3.239
73748W        W38975  12.946  22.765  11.585
73749W        W38976  11.903  39.296   1.865
73750W        W38977  23.115  18.464  10.643
73751W        W38978   6.770  23.628  14.372
73752W        W38979  18.596   7.778   3.757
73753W        W38980  26.855   6.279   2.651
73754W        W38981  29.518  10.752  14.936
73755W        W38982  24.050   5.446  10.829
73756W        W38983  16.944  21.942   2.367
73757W        W38984  37.561  24.958  14.132
73758W        W38985   4.789  23.465   4.257
73759W        W38986  23.345   0.634  12.249
73760W        W38987  25.456  13.295  10.449
73761W        W38988  31.510  14.730  14.533
73762W        W38989  20.021  23.121   2.261
73763W        W38990  39.430   1.107  14.589
73764W        W38991  19.753  36.325  13.834
73765W        W38992   6.282   9.329   4.189
73766W        W38993  44.737  30.659   0.846
73767W        W38994  37.881  11.699   0.424
73768W        W38995  36.045  12.372  14.126
73769W        W38996  24.052  36.104  14.127
73770W        W38997  33.695  33.503  12.412
73771W        W38998   3.806  44.354   2.324
73772W        W38999  32.201   4.481   4.185
73773W        W39000  32.580  42.899  10.753
73774W        W39001  29.114   1.712  12.613
73775W        W39002  33.397  35.037  14.633
73776W        W39003  40.383  13.010  10.651
73777W        W39004  35.228   5.302   0.153
73778W        W39005  35.025  24.512   3.801
73779W        W39006  36.650  33.231  14.986
73780W        W39007  17.466  31.187   3.054
73781W        W39008   8.638  22.415  14.831
73782W        W39009  15.548   4.778   2.252
73783W        W39010   6.506  39.362  13.703
73784W        W39011  38.970  22.038  14.908
73785W        W39012  28.008  42.709  14.655
73786W        W39013  24.080  38.121  12.428
73787W        W39014  33.361  19.580  11.580
73788W        W39015  30.893  25.051   4.084
73789W        W39016  43.864  37.298   3.660
73790W        W39017   7.818  17.243  12.099
73791W        W39018  12.503   0.426  11.084
73792W        W39019  21.019   4.961   1.984
73793W        W39020  44.923  17.688   0.616
73794W        W39021  29.757  39.055   3.540
73795W        W39022  11.669  25.595  12.845
73796W        W39023  42.283  18.184   0.507
73797W        W39024  26.042  43.976  12.187
73798W        W39025  18.862  22.108  13.884
73799W        W39026  36.838   5.444   3.200
73800W        W39027  32.829  30.436  10.719
73801W        W39028  30.317  14.589  10.587
73802W        W39029  35.548  18.557  10.975
73803W        W39030  22.370  37.162  14.087
73804W        W39031  14.313   7.852  14.094
73805W        W39032  43.746   1.072   0.350
73806W        W39033  44.502  18.113   9.843
73807W        W39034  20.162  11.880  11.659
73808W        W39035  19.818  31.954   3.629
73809W        W39036  18.518  41.400   2.347
73810W        W39037  21.658  38.403  11.626
73811W        W39038  31.578  41.478   0.220
73812W        W39039   0.345  33.323  12.046
73813W        W39040  20.107   8.735  14.748
73814W        W39041  42.436  35.074   3.237
73815W        W39042  15.185   7.102   0.845
73816W        W39043  40.665   5.325  13.840
73817W        W39044  27.143  24.609  14.282
73818W        W39045  42.394  31.128   4.690
73819W        W39046  28.903  37.367   3.695
73820W        W39047  12.402  37.904  11.872
73821W        W39048   8.960  35.020  13.924
73822W        W39049  16.716  18.226  11.041
73823W        W39050  37.122   5.344   1.707
73824W        W39051   4.695  11.091  12.490
73825W        W39052  10.389  22.782   3.095
73826W        W39053  25.446  39.353  13.142
73827W        W39054  16.011  27.469  13.917
73828W        W39055   8.880  39.914   1.006
73829W        W39056  18.000  27.725  13.942
73830W        W39057  10.211  34.049   1.190
73831W        W39058  24.412   2.885   5.378
73832W        W39059   0.388  21.707   0.067
73833W        W39060  14.089  26.960   1.269
73834W        W39061  21.602   7.605  13.904
73835W        W39062  28.589  38.081  12.448
73836W        W39063  10.098  36.472   4.054
73837W        W39064  15.352  31.569  13.897
73838W        W39065  28.476  37.656   3.542
73839W        W39066  30.842  24.116   2.197
73840W        W39067  22.337  24.310   1.251
73841W        W39068  24.250   1.477   9.822
73842W        W39069   7.950  38.468   0.361
73843W        W39070   5.854  10.407   2.305
73844W        W39071  27.142  32.460   2.821
73845W        W39072   3.719  23.249   1.911
73846W        W39073  27.375  22.744   2.106
73847W        W39074  42.769  11.112  14.884
73848W        W39075  36.127  42.417   2.235
73849W        W39076  39.287   1.471   2.548
73850W        W39077  21.723  13.965   3.996
73851W        W39078  42.506  31.550   0.050
73852W        W39079  42.334  40.891  13.379
73853W        W39080   3.271   5.242   4.363
73854W        W39081  28.737  15.745   1.363
73855W        W39082  43.054   7.381  12.632
73856W        W39083  10.951  24.092   3.783
73857W        W39084   1.459   3.955  10.771
73858W        W39085   7.671   6.103   1.646
73859W        W39086   4.257   0.947  11.913
73860W        W39087  33.520  42.371  12.008
73861W        W39088   4.417  41.045   1.821
73862W        W39089   9.680  29.224   0.203
73863W        W39090  41.081  27.614  12.458
73864W        W39091  14.127  37.159   0.454
73865W        W39092   0.721   1.930   4.598
73866W        W39093   4.436  14.768   4.570
73867W        W39094   6.241   8.309   2.978
73868W        W39095  43.396  25.637   1.766
73869W        W39096  39.550   8.223  11.303
73870W        W39097  44.341  33.779  13.092
73871W        W39098   9.633  15.372  12.072
73872W        W39099   8.464  16.825   4.510
73873W        W39100  23.199  39.962   2.533
73874W        W39101  42.765  12.824  11.235
73875W        W39102  11.698  39.696   2.125
73876W        W39103  26.807  12.520  11.151
73877W        W39104   6.128  35.534  13.129
73878W        W39105  11.556   1.651   2.421
73879W        W39106  38.017  24.733  14.335
73880W        W39107  24.135  36.477   4.872
73881W        W39108   6.932  31.859   4.172
73882W        W39109  26.120   2.201   0.444
73883W        W39110  28.539  14.374  12.111
73884W        W39111  28.651  41.332  14.020
73885W        W39112  33.872  42.396   0.734
73886W        W39113  32.653  27.940   4.037
73887W        W39114  41.785  41.019  10.789
73888W        W39115  29.849  33.045   4.974
73889W        W39116  11.408  13.888   2.146
73890W        W39117  34.139  13.589   2.694
73891W        W39118   0.405  17.234   2.082
73892W        W39119   1.232  16.856   0.469
73893W        W39120  38.587  25.313  10.748
73894W        W39121   1.349  15.308  11.764
73895W        W39122  35.652  16.381  14.670
73896W        W39123  43.961  12.596   3.580
73897W        W39124  29.505   2.905   1.502
73898W        W39125  42.772   7.328   0.489
73899W        W39126  37.057  19.520   3.380
73900W        W39127  34.896   5.643  12.936
73901W        W39128  44.979  30.712   2.734
73902W        W39129  34.693  27.100   0.862
73903W        W39130   0.501  41.481  13.406
73904W        W39131  38.073  22.061  10.830
73905W        W39132  35.587  37.530  14.501
73906W        W39133  17.914  37.768   4.132
73907W        W39134  10.355   1.832   1.781
73908W        W39135  38.919  17.722   4.833
73909W        W39136  37.248   3.850   2.809
73910W        W39137  25.954  23.478  11.945
73911W        W39138  38.473  10.630  10.667
73912W        W39139   2.982   1.502  11.043
73913W        W39140  38.149  35.811  12.369
73914W        W39141  40.873  18.522   1.312
73915W        W39142  16.663  39.794   4.679
73916W        W39143  20.782   6.978  13.949
73917W        W39144  14.641  16.226  11.196
73918W        W39145  16.992   6.427  12.130
73919W        W39146  34.489   9.912   2.232
73920W        W39147  34.683  42.453   1.954
73921W        W39148  43.836  44.809  11.973
73922W        W39149  22.572  29.392  13.910
73923W        W39150  39.370  28.814   3.322
73924W        W39151  35.869  11.104  11.391
73925W        W39152  35.881   3.670   2.140
73926W        W39153  42.160  41.534  12.483
73927W        W39154  41.314  32.853  12.219
73928W        W39155  33.410  17.954   0.047
73929W        W39156  14.212  43.119  12.198
73930W        W39157  44.522  43.966  14.390
73931W        W39158  19.036  37.901  13.249
73932W        W39159  31.119  44.353   1.219
73933W        W39160  37.039  43.801  14.054
73934W        W39161  20.152  28.032  14.446
73935W        W39162  31.715  24.939   3.697
73936W        W39163   0.011   2.740  11.369
73937W        W39164  42.534  27.060   3.175
73938W        W39165  17.371  41.386   4.435
73939W        W39166  30.936  28.034   1.756
73940W        W39167   7.152  34.219   1.902
73941W        W39168   3.214  18.823  11.731
73942W        W39169   3.680  44.610  13.004
73943W        W39170  11.971  29.948   3.401
73944W        W39171  23.585  20.256  12.757
73945W        W39172   4.625  18.823  10.575
73946W        W39173  25.512  16.571   0.291
73947W        W39174  24.669  15.867   0.883
73948W        W39175  20.297  42.029  11.601
73949W        W39176   9.229  15.806  14.846
73950W        W39177  36.139  42.223   0.777
73951W        W39178   7.862  33.015   2.848
73952W        W39179   7.242  31.528  13.585
73953W        W39180  35.745  30.923   2.295
73954W        W39181  26.606  21.318   3.696
73955W        W39182  30.154  13.544   0.861
73956W        W39183  36.431  36.812   3.890
73957W        W39184  11.823   0.859   4.506
73958W        W39185   9.483  23.400  14.451
73959W        W39186  11.504   0.362   0.942
73960W        W39187  25.758   0.897   2.883
73961W        W39188  42.786  26.248  14.969
73962W        W39189  17.145   3.812   3.476
73963W        W39190  42.966  32.724  11.972
73964W        W39191  14.913  34.479   2.385
73965W        W39192  12.562   7.431  11.044
73966W        W39193   2.243  31.440   5.074
73967W        W39194   2.003   7.013   3.072
73968W        W39195   4.391  13.995  14.914
73969W        W39196  10.632  25.040  11.574
73970W        W39197  21.271  22.420  12.467
73971W        W39198  26.669  37.845   1.434
73972W        W39199   6.772  30.054   4.158
73973W        W39200  33.762  38.485  12.095
73974W        W39201  38.810  33.837   2.624
73975W        W39202   8.289  32.451  10.532
73976W        W39203   0.864  13.146  13.270
73977W        W39204   1.382  33.907   3.377
73978W        W39205   4.221  15.878  14.559
73979W        W39206  14.219  12.148  11.066
73980W        W39207  40.546  42.457  11.703
73981W        W39208  24.062  22.669   3.957
73982W        W39209  44.362  43.964   2.971
73983W        W39210   7.286  19.187   0.018
73984W        W39211  44.905  43.767   1.650
73985W        W39212  37.978  23.586   4.287
73986W        W39213  17.566  16.764  14.787
73987W        W39214  28.150  11.633   2.141
73988W        W39215  22.263  10.911  13.566
73989W        W39216  15.910  34.670  11.153
73990W        W39217  43.380  21.527  13.585
73991W        W39218  18.629  34.907   1.858
73992W        W39219  11.671  24.520  13.400
73993W        W39220  42.936  31.831  14.719
73994W        W39221  12.561  10.205   4.113
73995W        W39222  23.803   2.465  13.051
73996W        W39223  43.225  35.828  13.472
73997W        W39224   7.951  23.525   0.374
73998W        W39225  18.642  14.347   0.778
73999W        W39226  12.912  23.515   2.283
74000W        W39227  30.696   0.638   0.897
74001W        W39228  10.163  15.165  13.320
74002W        W39229  33.458  27.616   5.475
74003W        W39230  21.108   5.696   3.472
74004W        W39231  25.911  15.349   4.170
74005W        W39232  34.912  40.995   1.941
74006W        W39233  33.025  31.504   4.354
74007W        W39234  14.096  19.774  11.196
74008W        W39235   7.695   2.443   2.272
74009W        W39236  36.847  25.675   1.776
74010W        W39237   5.536  23.102   4.181
74011W        W39238   7.602  24.021   4.250
74012W        W39239  16.017  11.696   3.909
74013W        W39240  12.264  33.198   2.239
74014W        W39241  13.738  32.710  11.831
74015W        W39242  20.666  44.569  13.191
74016W        W39243   7.840  16.207   3.346
74017W        W39244   9.137   1.198   3.166
74018W        W39245  29.189  39.615  13.433
74019W        W39246  19.057  36.091  12.095
74020W        W39247   9.773   4.428   3.367
74021W        W39248   6.901  33.721  13.667
74022W        W39249  41.416  18.999  14.050
74023W        W39250  26.760  40.848   1.528
74024W        W39251  24.072  26.692  14.030
74025W        W39252  15.188  11.359   3.835
74026W        W39253  16.801  28.888   3.232
74027W        W39254  33.531  12.180   1.208
74028W        W39255  37.063   1.129  11.661
74029W        W39256  42.351   6.656   1.229
74030W        W39257  13.381   7.348   2.201
74031W        W39258   9.728   1.798   3.383
74032W        W39259   4.854  26.889   3.594
74033W        W39260  32.405  33.472  12.800
74034W        W39261  37.544  19.577  13.135
74035W        W39262   2.883   6.013  13.393
74036W        W39263  34.096  32.514   0.207
74037W        W39264  20.834  32.064  14.499
74038W        W39265  33.305  10.547  12.948
74039W        W39266  28.155  18.185  12.661
74040W        W39267  25.443  30.756  14.498
74041W        W39268  25.935  15.860   2.956
74042W        W39269  20.011   6.309   4.265
74043W        W39270  33.360   2.551  11.146
74044W        W39271  16.062  11.242   3.127
74045W        W39272   7.208   9.767  12.636
74046W        W39273  27.079  28.655  13.547
74047W        W39274  19.541  30.137   4.224
74048W        W39275  40.565  27.146  11.900
74049W        W39276   2.937  22.496   0.010
74050W        W39277  37.703  31.984  13.049
74051W        W39278  34.072  23.510  13.499
74052W        W39279  11.232   3.100  11.143
74053W        W39280  42.434   2.309   3.086
74054W        W39281  33.701   1.022  14.624
74055W        W39282   7.188  43.857  14.430
74056W        W39283  22.902   8.608   4.222
74057W        W39284  36.704  28.540  12.875
74058W        W39285  26.915  39.948   1.457
74059W        W39286  37.947   6.123  14.520
74060W        W39287  15.370  13.446  13.768
74061W        W39288   8.536  43.496  12.815
74062W        W39289   9.619  22.592   2.870
74063W        W39290  44.966  39.287  10.983
74064W        W39291  41.849  32.210  13.447
74065W        W39292   2.444  32.607  13.507
74066W        W39293  34.568  28.561  13.010
74067W        W39294  31.663  18.604   4.594
74068W        W39295  26.725  10.125  10.517
74069W        W39296  12.331  43.662   1.801
74070W        W39297   4.791  33.943   1.526
74071W        W39298  27.157  23.739  13.781
74072W        W39299  29.649  41.176   4.568
74073W        W39300  40.812  35.438   1.365
74074W        W39301  31.070  27.670   3.193
74075W        W39302   1.746  32.235  12.178
74076W        W39303   5.342   5.425  12.918
74077W        W39304  19.538   9.434   0.995
74078W        W39305  29.138  26.789   3.135
74079W        W39306   1.299   2.137  11.197
74080W        W39307  32.113   0.220   3.558
74081W        W39308  30.871  42.426  10.708
74082W        W39309  32.423  22.738   4.513
74083W        W39310  33.605  16.809  13.892
74084W        W39311  12.097   5.337   2.302
74085W        W39312   5.853  41.518  13.495
74086W        W39313   9.324  33.411  13.376
74087W        W39314  17.948  43.744  13.320
74088W        W39315   3.381  13.781  12.406
74089W        W39316  34.947  44.174  12.111
74090W        W39317  23.038  15.509   2.903
74091W        W39318   8.489  27.710   2.928
74092W        W39319  44.281  25.853  12.029
74093W        W39320  22.568  30.934   0.745
74094W        W39321   1.948  10.697   0.715
74095W        W39322  13.680  28.389  13.400
74096W        W39323  17.800  26.378   3.424
74097W        W39324   6.711  15.981  12.524
74098W        W39325  17.085   5.666   0.280
74099W        W39326  20.130  21.494   0.751
74100W        W39327  19.148   6.113   4.308
74101W        W39328  20.041  18.706  12.418
74102W        W39329  33.766   5.686   1.751
74103W        W39330  37.090  19.666   4.890
74104W        W39331  28.646   7.167   2.933
74105W        W39332  20.505   6.215   1.497
74106W        W39333  20.739  16.532   2.838
74107W        W39334   6.222  17.172   1.299
74108W        W39335  12.192  22.020   1.719
74109W        W39336  30.336  42.022  13.456
74110W        W39337   6.995   2.269  14.189
74111W        W39338  27.710  37.329  11.585
74112W        W39339  11.277  18.864   3.627
74113W        W39340  34.641  26.087   9.605
74114W        W39341  14.256   6.901  10.649
74115W        W39342  16.330  44.898  14.196
74116W        W39343  14.384  38.294  14.863
74117W        W39344  30.205  25.142  14.553
74118W        W39345  13.718  18.296   0.705
74119W        W39346   6.898  10.215  13.401
74120W        W39347  19.754  22.093   3.208
74121W        W39348  37.522  33.020   4.333
74122W        W39349   4.805  18.827   3.306
74123W        W39350  26.450   3.587   4.257
74124W        W39351   9.087  20.977  11.475
74125W        W39352  17.751  21.054  10.481
74126W        W39353  10.802  18.331  11.170
74127W        W39354  18.127  42.006   1.284
74128W        W39355  19.311  44.820  14.130
74129W        W39356  36.548  20.703  11.539
74130W        W39357  41.141   7.412  13.520
74131W        W39358   6.768  40.703   0.330
74132W        W39359  13.995  43.319  10.721
74133W        W39360  11.729  30.403   3.200
74134W        W39361  16.620   8.679   2.898
74135W        W39362  29.765  33.930   3.089
74136W        W39363  42.064  44.304  11.133
74137W        W39364  17.639  19.207  12.437
74138W        W39365   5.616  38.650  13.503
74139W        W39366  43.866   6.320  14.036
74140W        W39367   0.360   2.346   3.725
74141W        W39368  29.081   4.774  10.628
74142W        W39369   5.674  12.705  12.112
74143W        W39370  23.039  44.594   3.212
74144W        W39371  34.044  33.064   4.028
74145W        W39372  20.969  26.462  10.979
74146W        W39373  39.939  13.073   4.640
74147W        W39374   1.359   5.885  11.126
74148W        W39375  34.601  13.303   1.329
74149W        W39376  11.895  15.122   5.331
74150W        W39377  20.238  44.256  11.497
74151W        W39378  34.292  10.271   4.403
74152W        W39379  33.363   2.655  14.258
74153W        W39380  43.851   8.341   2.743
74154W        W39381  30.104   7.198   2.978
74155W        W39382  34.358  42.060  12.502
74156W        W39383  28.789   5.688   3.436
74157W        W39384   7.779   9.137  12.104
74158W        W39385  16.843  12.047   1.644
74159W        W39386  13.026  11.942   1.565
74160W        W39387  42.353  26.010  14.742
74161W        W39388  30.534  34.311   2.404
74162W        W39389  14.196  26.194   4.627
74163W        W39390  31.650   0.920   0.857
74164W        W39391  25.700   9.542  13.475
74165W        W39392   1.726  11.041   3.299
74166W        W39393  10.678   5.764  12.761
74167W        W39394  20.591  28.183  12.446
74168W        W39395   9.838   1.313  11.508
74169W        W39396  27.513  20.051   4.094
74170W        W39397  36.810  14.586  10.979
74171W        W39398   8.200  12.226   1.701
74172W        W39399  30.875  33.542   2.673
74173W        W39400  21.933  39.663   2.820
74174W        W39401  19.419   3.715  12.060
74175W        W39402   6.376   3.367  14.330
74176W        W39403  13.240   4.472   4.744
74177W        W39404  37.635  23.659   0.320
74178W        W39405  15.592   0.272  12.049
74179W        W39406  18.345  12.187   0.668
74180W        W39407  24.886  26.518   0.436
74181W        W39408  39.386  30.613   2.360
74182W        W39409  35.830  30.917  10.599
74183W        W39410  25.450  32.391   1.421
74184W        W39411  15.154  41.558   0.457
74185W        W39412  29.703  21.094  14.890
74186W        W39413  37.323  13.784  12.037
74187W        W39414  39.520  43.347   1.379
74188W        W39415  19.135  14.170  13.898
74189W        W39416  36.238  26.823  11.941
74190W        W39417  26.721  44.316  11.069
74191W        W39418  24.263  13.254   2.755
74192W        W39419  10.715  23.323   4.943
74193W        W39420   5.261  18.188   5.162
74194W        W39421  15.671   5.629  12.970
74195W        W39422  16.613  43.370   1.401
74196W        W39423   4.456   1.689   0.815
74197W        W39424  38.424  42.516   4.783
74198W        W39425  19.646  34.243   0.845
74199W        W39426  22.038  42.215   0.171
74200W        W39427  34.496  19.551  12.538
74201W        W39428   3.747  30.703  11.111
74202W        W39429  42.194  39.003  11.141
74203W        W39430   6.456  22.795   2.030
74204W        W39431  16.392  18.593   0.442
74205W        W39432  21.586  41.073   0.841
74206W        W39433   2.155  23.758  13.800
74207W        W39434  25.017   2.221  13.895
74208W        W39435  43.273   0.694   0.275
74209W        W39436  33.782  37.386  14.893
74210W        W39437  34.099   8.896   3.203
74211W        W39438  11.962   9.541  14.308
74212W        W39439  17.096   6.801   0.803
74213W        W39440  33.332  43.276  14.903
74214W        W39441  14.152   6.931   2.570
74215W        W39442   9.250  38.567  12.452
74216W        W39443  40.059  28.182   0.452
74217W        W39444  14.163  13.814   1.436
74218W        W39445  13.290   7.924  12.495
74219W        W39446  10.411  42.243   3.364
74220W        W39447  14.812   4.523   0.855
74221W        W39448   9.847   3.004   2.182
74222W        W39449  36.318   4.287  14.299
74223W        W39450  35.080  26.456   2.788
74224W        W39451  10.871   6.873   1.371
74225W        W39452   6.820  32.714  13.896
74226W        W39453  27.435  44.937  13.772
74227W        W39454  11.508  32.464   1.637
74228W        W39455  21.098  32.150  13.443
74229W        W39456  37.108  30.685   0.477
74230W        W39457  33.048  42.240  14.939
74231W        W39458  21.252  13.674  14.700
74232W        W39459  35.528   5.388   1.669
74233W        W39460  39.552  38.971   3.396
74234W        W39461  13.548  13.352   1.759
74235W        W39462  13.951  42.576  13.306
74236W        W39463  19.477  30.226  13.439
74237W        W39464  29.563  36.989  13.774
74238W        W39465  11.881  44.201   0.420
74239W        W39466  18.467  40.475   2.167
74240W        W39467  20.149  37.310  10.363
74241W        W39468  40.065  24.968  12.796
74242W        W39469  34.406  28.969  14.793
74243W        W39470  10.045  44.592   1.659
74244W        W39471  25.626  18.052  14.308
74245W        W39472  13.419  29.444  10.849
74246W        W39473  18.616  29.359   4.618
74247W        W39474   7.778  15.962  13.588
74248W        W39475   8.866  26.107   1.983
74249W        W39476  13.729   7.262  12.125
74250W        W39477  19.320  39.015   4.618
74251W        W39478  22.211   6.622   1.251
74252W        W39479  14.500  22.747   3.846
74253W        W39480  34.266   1.425  11.099
74254W        W39481  23.224  30.013   3.166
74255W        W39482  20.756  28.788  11.166
74256W        W39483   6.827  34.129   4.592
74257W        W39484  14.667  25.122  10.689
74258W        W39485   3.949   2.042   4.111
74259W        W39486  22.409   0.343   3.142
74260W        W39487  26.311  42.739  11.953
74261W        W39488  19.704  17.322  12.654
74262W        W39489  38.289  33.837   3.876
74263W        W39490   8.357  28.741   3.672
74264W        W39491  36.104  13.708  10.818
74265W        W39492  38.713  34.321   2.147
74266W        W39493  32.656  22.996   1.878
74267W        W39494   0.444  33.124   2.547
74268W        W39495  32.079   0.730  13.465
74269W        W39496  10.615  36.118  13.427
74270W        W39497   7.173  40.052   1.686
74271W        W39498  11.150  24.812   0.251
74272W        W39499  40.332  38.452   3.115
74273W        W39500  20.188  20.142   3.755
74274W        W39501   7.416  39.447  12.363
74275W        W39502  33.183   6.012   4.102
74276W        W39503  27.082  38.797   0.184
74277W        W39504  37.733   7.931   3.681
74278W        W39505  23.719   4.385   0.880
74279W        W39506  15.427  30.039  13.463
74280W        W39507  31.505  10.760  13.032
74281W        W39508  41.393  27.726   2.584
74282W        W39509  27.406  10.170  11.094
74283W        W39510  27.726  44.335  11.260
74284W        W39511  17.181  22.651  10.266
74285W        W39512  23.093  26.111  10.815
74286W        W39513   5.390  17.314   0.461
74287W        W39514  44.061  34.638  14.048
74288W        W39515  39.735   7.758  11.126
74289W        W39516   3.300   2.427   1.321
74290W        W39517  40.989  15.842   1.732
74291W        W39518  36.894   7.907   0.698
74292W        W39519  35.704  31.005  14.866
74293W        W39520  26.063  19.093  11.157
74294W        W39521   1.660  35.566   3.271
74295W        W39522   4.339  25.439  11.695
74296W        W39523  27.955  24.024  14.300
74297W        W39524  12.252  41.073   1.136
74298W        W39525  25.696  38.568  11.213
74299W        W39526  18.131   1.325  12.021
74300W        W39527  18.508  18.555  14.761
74301W        W39528   9.156  40.420  14.006
74302W        W39529   9.130  34.694   1.486
74303W        W39530  12.092  44.668  14.552
74304W        W39531  27.418  18.511   1.111
74305W        W39532  31.656  11.102   3.176
74306W        W39533  11.871   7.298   0.003
74307W        W39534  11.176  37.856   3.772
74308W        W39535  20.617  23.219   4.380
74309W        W39536  43.008   7.618   1.864
74310W        W39537  44.003   7.959  14.924
74311W        W39538  24.014  33.532   2.921
74312W        W39539  15.340  34.754  11.632
74313W        W39540  40.355  13.643  14.089
74314W        W39541  18.791  17.292   1.338
74315W        W39542  21.709  41.008  13.441
74316W        W39543   6.840   3.241   1.617
74317W        W39544  12.111   5.158   1.797
74318W        W39545  13.597  27.172   0.338
74319W        W39546  27.636   9.442   2.609
74320W        W39547  16.775   3.167  13.968
74321W        W39548  44.488  29.400   4.123
74322W        W39549   3.171  39.745   3.808
74323W        W39550  16.243   2.936  10.908
74324W        W39551  22.077   6.789  12.100
74325W        W39552  35.811  19.219  13.083
74326W        W39553  34.687  33.651   2.169
74327W        W39554  21.583  28.623   0.438
74328W        W39555  30.558  27.147   0.387
74329W        W39556  32.003   2.021  12.165
74330W        W39557  13.243   0.511  10.578
74331W        W39558  15.073  13.456   1.743
74332W        W39559  39.644  43.166  12.047
74333W        W39560  29.550  41.991   5.051
74334W        W39561  18.392   9.246   0.259
74335W        W39562  25.068   8.313  12.925
74336W        W39563  23.413  39.177  14.614
74337W        W39564  18.196   2.868  13.378
74338W        W39565  37.401  22.281   3.983
74339W        W39566  42.471   0.227   1.346
74340W        W39567  38.340   4.958  14.505
74341W        W39568  26.690  38.788  11.206
74342W        W39569  37.406  12.322  10.716
74343W        W39570   0.278  42.877   5.570
74344W        W39571  17.375  33.001   4.877
74345W        W39572  11.855   5.869   3.122
74346W        W39573  25.568  41.516  11.269
74347W        W39574  15.681  28.165  12.795
74348W        W39575   8.667  37.834  14.477
74349W        W39576  15.863   3.248  11.019
74350W        W39577  38.340  16.045   4.436
74351W        W39578  15.864   9.830  14.242
74352W        W39579  23.667   6.983   4.003
74353W        W39580  43.784  25.110  13.450
74354W        W39581  10.781  19.979   0.019
74355W        W39582  19.461  18.905   0.015
74356W        W39583   1.272  24.769  11.365
74357W        W39584  20.495  11.165   3.899
74358W        W39585  43.326  13.321   1.037
74359W        W39586  13.670  31.586   3.060
74360W        W39587  22.390  24.751  11.921
74361W        W39588   1.179  21.851  12.303
74362W        W39589  21.270  18.335  11.093
74363W        W39590  22.982  41.895  10.727
74364W        W39591   6.353  31.156   2.812
74365W        W39592  17.328   4.345  12.560
74366W        W39593  21.167  37.856   4.083
74367W        W39594  26.682  15.145   4.457
74368W        W39595  29.078  21.203   1.156
74369W        W39596  27.074  30.343  11.552
74370W        W39597  26.594  20.028   4.098
74371W        W39598  26.032   5.458   4.131
74372W        W39599  11.851  41.636  13.939
74373W        W39600  24.146  29.440   0.992
74374W        W39601  16.645  39.770   0.340
74375W        W39602   2.040  25.131   2.165
74376W        W39603  31.547  29.292  14.412
74377W        W39604   5.897  40.838  14.899
74378W        W39605  11.220   2.665   0.400
74379W        W39606  15.543  42.068  11.991
74380W        W39607  11.966  14.780  10.183
74381W        W39608  30.933  34.140  14.790
74382W        W39609  35.647  22.560  11.552
74383W        W39610   6.814  37.905  11.275
74384W        W39611  26.047  43.377  11.964
74385W        W39612  38.092  35.326  13.039
74386W        W39613  17.045  42.985   0.970
74387W        W39614  32.550  14.251  14.542
74388W        W39615  43.484  42.267  14.993
74389W        W39616   0.769  40.960  12.900
74390W        W39617   7.709  13.667  12.980
74391W        W39618  43.155   6.813  10.112
74392W        W39619  38.832  14.697  12.485
74393W        W39620  23.121   6.644  13.975
74394W        W39621  18.459  19.519  11.207
74395W        W39622  29.901  22.164  12.259
74396W        W39623   9.355  26.603   1.272
74397W        W39624  32.140  34.379   1.645
74398W        W39625   3.335  41.406  10.726
74399W        W39626  10.636  37.192  13.429
74400W        W39627  32.311  33.568   1.711
74401W        W39628  14.585  16.758  14.909
74402W        W39629  37.453  30.105  12.321
74403W        W39630  16.391  38.353   0.227
74404W        W39631  27.997  29.997   4.620
74405W        W39632  31.185  28.104   3.536
74406W        W39633  31.290  21.396   1.804
74407W        W39634  24.216   3.323   1.877
74408W        W39635  17.781  35.222  14.096
74409W        W39636  10.194   8.646   0.492
74410W        W39637  36.401  18.077  12.111
74411W        W39638  20.142  18.966   1.810
74412W        W39639  44.631  17.900  11.097
74413W        W39640  11.613  30.378  10.060
74414W        W39641  32.998   6.797   1.613
74415W        W39642   2.724  42.894   0.323
74416W        W39643  20.717  10.657  11.470
74417W        W39644   8.329  29.555   4.737
74418W        W39645  44.543  33.986   4.251
74419W        W39646  42.976  15.185  10.768
74420W        W39647  28.364   5.241  14.846
74421W        W39648  43.728   4.167   2.205
74422W        W39649  20.111  29.670  13.067
74423W        W39650  32.879   5.906   2.088
74424W        W39651   7.809  30.334  11.055
74425W        W39652  18.305   5.577  14.502
74426W        W39653  30.960  37.453   1.822
74427W        W39654  25.588   3.750  13.075
74428W        W39655   7.696   0.754  12.001
74429W        W39656  38.072  33.160  14.910
74430W        W39657  11.291   0.684   3.809
74431W        W39658  41.327  41.231  13.848
74432W        W39659   9.125  26.170   0.712
74433W        W39660  31.414  42.932   1.249
74434W        W39661  28.503  20.047   1.468
74435W        W39662  14.240   7.779   3.630
74436W        W39663  41.315  29.696   1.455
74437W        W39664  27.895   2.874  11.918
74438W        W39665  24.672  22.703  13.985
74439W        W39666  25.734  37.037  13.351
74440W        W39667  26.494  43.312   2.187
74441W        W39668  20.397  20.071   2.560
74442W        W39669   4.825   9.602  12.613
74443W        W39670  26.561  28.998  11.114
74444W        W39671  16.127  26.638  10.974
74445W        W39672  35.316  19.669  11.945
74446W        W39673  39.957  24.005  14.294
74447W        W39674  11.099  30.897   2.255
74448W        W39675  13.092  14.009   4.060
74449W        W39676  38.589  36.496  11.187
74450W        W39677  44.860  41.532  12.946
74451W        W39678  39.501  37.072   1.608
74452W        W39679  19.517  39.545  13.770
74453W        W39680  19.580   9.195  11.598
74454W        W39681  35.316   6.823  12.463
74455W        W39682  20.064  14.252   1.702
74456W        W39683  38.409  41.925   2.340
74457W        W39684  17.623  42.234   3.160
74458W        W39685  26.122  41.130  13.139
74459W        W39686  44.768  14.732  12.111
74460W        W39687  20.767  24.198   0.350
74461W        W39688  34.469  17.267  13.093
74462W        W39689  19.978  40.223  10.434
74463W        W39690  14.184  25.741  14.477
74464W        W39691  14.771   4.026   0.880
74465W        W39692  21.652  15.030   4.119
74466W        W39693   5.246  16.819  13.718
74467W        W39694  39.494  42.344  11.914
74468W        W39695  37.046  21.872   4.160
74469W        W39696  20.611  17.462  14.657
74470W        W39697  15.618  20.745  14.884
74471W        W39698  25.197  22.067   1.608
74472W        W39699  36.541  37.706  12.487
74473W        W39700   9.990  22.298   3.796
74474W        W39701  20.172  14.358  13.925
74475W        W39702  26.071   4.985  13.124
74476W        W39703   1.308  39.963   2.177
74477W        W39704  28.612  38.703   5.589
74478W        W39705  23.821  22.109   3.145
74479W        W39706  40.499  44.370   2.808
74480W        W39707  10.184  15.204  14.317
74481W        W39708  32.472  14.666   0.874
74482W        W39709   4.046  11.876  11.979
74483W        W39710   6.536   6.443   0.389
74484W        W39711  33.867  28.084   2.611
74485W        W39712  24.597  18.150  12.472
74486W        W39713   4.501  29.897  11.846
74487W        W39714  38.783  39.314   1.168
74488W        W39715  11.674  31.032   0.043
74489W        W39716  34.997  32.000   1.747
74490W        W39717  32.170  32.139  11.154
74491W        W39718  16.245  32.005   4.953
74492W        W39719  29.954  26.565   0.783
74493W        W39720  12.320   0.806   4.134
74494W        W39721  16.225   1.008  10.811
74495W        W39722  21.697  36.648   3.187
74496W        W39723   7.555  24.946   4.921
74497W        W39724   5.629   5.914  14.257
74498W        W39725  20.822  33.865  12.947
74499W        W39726  38.301  23.223   0.166
74500W        W39727  22.176  32.176  11.746
74501W        W39728  13.749   1.824   1.856
74502W        W39729  30.597  15.773  11.275
74503W        W39730  34.399  22.023  14.857
74504W        W39731  11.070  39.799  10.556
74505W        W39732  24.456   1.463  11.110
74506W        W39733  43.790  20.234  12.115
74507W        W39734  30.236  39.021   2.277
74508W        W39735  40.028  13.585   4.481
74509W        W39736  10.488  37.708   5.053
74510W        W39737  12.710  27.558  13.799
74511W        W39738  16.703  43.711   4.474
74512W        W39739  20.922  21.600  11.463
74513W        W39740  39.697  21.557   3.992
74514W        W39741  34.627   4.707  13.338
74515W        W39742   4.235  28.016   0.337
74516W        W39743  25.518  10.722   0.897
74517W        W39744  14.393  18.644   0.825
74518W        W39745  12.736  11.580  12.358
74519W        W39746  39.008  15.113  13.501
74520W        W39747  20.558  32.837  10.697
74521W        W39748  20.765  41.305  13.073
74522W        W39749  25.958  24.064  14.260
74523W        W39750  27.554  41.071   1.247
74524W        W39751   7.968  33.910  12.484
74525W        W39752  40.801   5.329   1.365
74526W        W39753  35.362   7.243  13.577
74527W        W39754  34.439  14.544  12.910
74528W        W39755   6.818  18.155   0.755
74529W        W39756  22.413   2.833   2.939
74530W        W39757   1.243  25.632  13.497
74531W        W39758  26.170  12.874  13.985
74532W        W39759  42.405  16.145   1.953
74533W        W39760  28.692  15.128  12.582
74534W        W39761   2.864  16.178  10.682
74535W        W39762  30.572  23.654  11.940
74536W        W39763   6.836  21.980   4.636
74537W        W39764  40.301  29.180  11.522
74538W        W39765  38.210  26.444  12.074
74539W        W39766  19.076   3.189   0.637
74540W        W39767  42.887  34.320   2.610
74541W        W39768   2.989  30.966  11.749
74542W        W39769  14.004   6.175   0.390
74543W        W39770  31.873   4.195  11.131
74544W        W39771  42.512  16.350   3.420
74545W        W39772  30.465  37.945   1.225
74546W        W39773  44.645  26.206  12.896
74547W        W39774  16.255  44.467  10.666
74548W        W39775  18.083   4.248   4.050
74549W        W39776   4.372  41.244  11.553
74550W        W39777  14.740  29.132  10.805
74551W        W39778  35.635  18.011  13.100
74552W        W39779  36.934  29.795   0.612
74553W        W39780  13.561  13.016  12.855
74554W        W39781  30.958   7.185   1.869
74555W        W39782  32.766  32.350   3.204
74556W        W39783  17.316  28.664   4.005
74557W        W39784  18.644  23.704   2.251
74558W        W39785  25.134  32.863  13.343
74559W        W39786  29.699  12.601   4.392
74560W        W39787  38.212   4.724   2.001
74561W        W39788  28.245  13.603  10.283
74562W        W39789  27.684  21.738  14.352
74563W        W39790  26.885  23.667   4.525
74564W        W39791  24.548  36.459   1.220
74565W        W39792  34.431  31.346  13.718
74566W        W39793  12.254  44.876   0.018
74567W        W39794   4.829   4.235  14.786
74568W        W39795  30.578  44.712  12.880
74569W        W39796   9.649  28.843   3.679
74570W        W39797   5.412  27.417   4.114
74571W        W39798  25.964  11.190  14.076
74572W        W39799   7.316  37.523   3.116
74573W        W39800   1.027   4.484  13.937
74574W        W39801  22.620   7.387   1.121
74575W        W39802   6.406  10.769   1.483
74576W        W39803  26.082  13.755  10.481
74577W        W39804   7.275   8.671   3.786
74578W        W39805  23.189  19.696   4.229
74579W        W39806  12.005  34.823  11.124
74580W        W39807  32.635  34.307   3.628
74581W        W39808   6.288   0.865   3.607
74582W        W39809  21.221   4.393   3.165
74583W        W39810  15.381  31.132  13.560
74584W        W39811  19.766  14.876  12.501
74585W        W39812  10.857  15.039   4.751
74586W        W39813   4.758  14.363   0.900
74587W        W39814  39.734   4.638  14.485
74588W        W39815  25.610  37.453  14.887
74589W        W39816  21.173  33.154  13.333
74590W        W39817  42.138  16.742   3.191
74591W        W39818  17.876   3.298  10.789
74592W        W39819  37.126  42.321  11.614
74593W        W39820  22.164  39.753  11.374
74594W        W39821  36.643   3.443   0.707
74595W        W39822   6.896  27.688  11.646
74596W        W39823  10.412  31.400   0.766
74597W        W39824  13.274  21.045  10.374
74598W        W39825  20.269  17.777  10.678
74599W        W39826  18.172  24.629   2.432
74600W        W39827   0.016  22.048  12.051
74601W        W39828  36.077  14.312   1.991
74602W        W39829  26.422  28.345   3.663
74603W        W39830  15.535  43.047   1.855
74604W        W39831  35.734   5.635   3.137
74605W        W39832  34.020  40.559   1.180
74606W        W39833  37.271  26.754   0.268
74607W        W39834  19.133   0.849   1.282
74608W        W39835  29.846   0.269  12.899
74609W        W39836   3.465  35.843   3.287
74610W        W39837   8.655  21.674   3.236
74611W        W39838   3.423  25.968   0.814
74612W        W39839   2.532   2.741  10.770
74613W        W39840  31.388  13.725   0.343
74614W        W39841  10.789  43.536   4.140
74615W        W39842  12.364  12.806  12.505
74616W        W39843  31.016  39.583  14.274
74617W        W39844   0.423   5.257   4.069
74618W        W39845  38.719  34.464  14.853
74619W        W39846  43.856  26.897  14.952
74620W        W39847  14.774   5.446  13.977
74621W        W39848  24.668  38.835   1.835
74622W        W39849  35.942  41.424  14.481
74623W        W39850   1.489   6.825   2.289
74624W        W39851  39.995  15.308  13.490
74625W        W39852   6.271  43.025   1.225
74626W        W39853  39.778  33.543   0.443
74627W        W39854  33.342  15.133   1.347
74628W        W39855   8.261   2.254  12.546
74629W        W39856  16.694  17.290  14.402
74630W        W39857  24.988  40.194   0.299
74631W        W39858  43.509  10.181   0.322
74632W        W39859   7.910  21.573  13.802
74633W        W39860  43.354  17.415  11.146
74634W        W39861  29.970  12.431   4.810
74635W        W39862  31.874  25.085  13.857
74636W        W39863  37.449  17.084  14.011
74637W        W39864  24.255  14.370   2.570
74638W        W39865  19.725  24.550  12.633
74639W        W39866   5.697  12.772   3.826
74640W        W39867  14.319  31.414  13.955
74641W        W39868  23.731   2.223   2.212
74642W        W39869  38.025   5.510   5.679
74643W        W39870  36.177   2.414  11.919
74644W        W39871   9.321  27.117   1.424
74645W        W39872  43.716   2.081  12.527
74646W        W39873  40.621  19.571   4.610
74647W        W39874  19.372   0.339   2.847
74648W        W39875  16.608   8.386   0.757
74649W        W39876  33.449   9.487  10.134
74650W        W39877  27.223   1.797   2.294
74651W        W39878  37.033  41.605  13.472
74652W        W39879  16.878  13.060  13.935
74653W        W39880  36.636  43.509  14.780
74654W        W39881  13.118  35.366  14.673
74655W        W39882  13.097  33.554  10.769
74656W        W39883  31.113  10.296  12.091
74657W        W39884  19.997  14.210   4.520
74658W        W39885  31.122  20.203   0.484
74659W        W39886   5.344  14.736   1.181
74660W        W39887   6.278   5.088  13.086
74661W        W39888  35.244  38.827   9.959
74662W        W39889   6.764   6.863   3.673
74663W        W39890  41.810  32.113  10.688
74664W        W39891  26.072  15.728   0.519
74665W        W39892  15.480  14.286  11.334
74666W        W39893   0.825  32.880   2.823
74667W        W39894  43.867  23.130   2.750
74668W        W39895   9.692  14.847  12.047
74669W        W39896  36.148  11.176   0.368
74670W        W39897   3.770   5.216   1.434
74671W        W39898  24.727  27.204  11.583
74672W        W39899  10.875  18.755   4.540
74673W        W39900  30.197  28.673  11.570
74674W        W39901  34.401  21.362  10.980
74675W        W39902  43.853  29.482  12.067
74676W        W39903  41.808  34.065   3.165
74677W        W39904  29.891  12.313   2.299
74678W        W39905  18.316   6.669   4.604
74679W        W39906  20.634  19.226   0.810
74680W        W39907  14.386  17.228  14.815
74681W        W39908   1.459  35.143   3.094
74682W        W39909  27.958   8.087   4.085
74683W        W39910   1.901  17.057  14.222
74684W        W39911  34.746   6.153   0.502
74685W        W39912  14.183  10.222   1.864
74686W        W39913  15.784  39.751  13.497
74687W        W39914  21.757   8.234  12.631
74688W        W39915   5.637   3.547   0.459
74689W        W39916  43.065  22.766  13.905
74690W        W39917  36.789   8.933   1.750
74691W        W39918   7.947  32.119   4.250
74692W        W39919  32.866  29.970  12.976
74693W        W39920  24.565  15.403  12.659
74694W        W39921  33.424  20.712   4.143
74695W        W39922   6.046  34.333   0.326
74696W        W39923   2.456   8.863  13.120
74697W        W39924  38.270  43.918   1.220
74698W        W39925  10.724  27.951   0.876
74699W        W39926  43.266  27.683   2.875
74700W        W39927  26.924  34.821   1.414
74701W        W39928  42.689  15.637  12.499
74702W        W39929   5.800  11.590  14.318
74703W        W39930  22.597   7.870  14.391
74704W        W39931  20.478  17.593  12.028
74705W        W39932  18.157  28.335   3.493
74706W        W39933  24.308  41.086  14.948
74707W        W39934   3.453  41.519  13.598
74708W        W39935  20.860  33.927  12.075
74709W        W39936   8.493  36.251  13.959
74710W        W39937   5.627   3.002  14.457
74711W        W39938   2.177  21.687   1.353
74712W        W39939  24.458   1.612   2.324
74713W        W39940   8.716  32.399   4.949
74714W        W39941  42.643   8.148  13.051
74715W        W39942  38.434  17.353   0.265
74716W        W39943  26.823  22.655   0.912
74717W        W39944  25.700   8.114   0.008
74718W        W39945  24.661  43.255  13.827
74719W        W39946  24.908  17.948  10.796
74720W        W39947  30.145   1.455  10.781
74721W        W39948   2.268   7.332  11.483
74722W        W39949  16.123   3.632   2.128
74723W        W39950   7.346   7.632   3.726
74724W        W39951  16.179   4.321  11.607
74725W        W39952  38.333   1.908  10.724
74726W        W39953  28.613  42.885   3.577
74727W        W39954  34.363  29.088   0.326
74728W        W39955  22.734  17.087  13.344
74729W        W39956   6.233  26.968   3.621
74730W        W39957   8.214  16.036   2.417
74731W        W39958  21.696   8.574   0.231
74732W        W39959  26.512  42.527   1.775
74733W        W39960  25.652  42.874   1.575
74734W        W39961  29.938   9.553  11.035
74735W        W39962   8.118  20.186  10.800
74736W        W39963   5.277  41.071  13.892
74737W        W39964  23.468  11.283   2.324
74738W        W39965  26.987   1.623  10.954
74739W        W39966  42.775  38.912   0.783
74740W        W39967   8.574  27.700  11.014
74741W        W39968  27.659   5.736   2.145
74742W        W39969  13.210  20.147  11.899
74743W        W39970   8.856  23.996  14.691
74744W        W39971  27.924  17.041  13.357
74745W        W39972   8.648  32.711  14.552
74746W        W39973  19.064  37.450  14.406
74747W        W39974  20.954  26.912  10.667
74748W        W39975  36.136  30.745   2.002
74749W        W39976   3.363  41.506  14.132
74750W        W39977  33.673  34.969   4.000
74751W        W39978   3.839  18.037  11.662
74752W        W39979  26.092  25.780  11.652
74753W        W39980  16.177  20.927  10.012
74754W        W39981   0.744  43.312   0.463
74755W        W39982  41.852   1.229   4.393
74756W        W39983  24.609   4.860  12.656
74757W        W39984  34.897  30.589  11.725
74758W        W39985  33.171  43.778  14.895
74759W        W39986  39.020  19.339   2.234
74760W        W39987  17.776  16.968   4.828
74761W        W39988   4.573  21.768  11.023
74762W        W39989  28.406  12.783  12.355
74763W        W39990   5.445  27.222   1.426
74764W        W39991  22.527  18.038   0.742
74765W        W39992   0.240  18.272   9.845
74766W        W39993   3.808  24.704  11.823
74767W        W39994  22.039  13.132  12.140
74768W        W39995   8.227   7.885  14.349
74769W        W39996  15.248  27.587  12.406
74770W        W39997   9.232  33.114  13.868
74771W        W39998  21.002  19.000  11.624
74772W        W39999   6.493  21.668   3.669
74773W        W40000  40.859   8.498  13.495
74774W        W40001  44.768   6.075   1.505
74775W        W40002  12.824  40.575  14.640
74776W        W40003  25.608  38.259   4.560
74777W        W40004  34.601  33.807  11.622
74778W        W40005  27.166  22.119   2.581
74779W        W40006  12.363  38.904   1.668
74780W        W40007   2.570   1.757   1.003
74781W        W40008  18.333  31.077  14.351
74782W        W40009   3.039  22.037  11.536
74783W        W40010  24.908   3.322  12.380
74784W        W40011  21.501  34.004  11.523
74785W        W40012   0.926  17.158   1.902
74786W        W40013  17.704  13.808   0.855
74787W        W40014  24.310   3.052   4.171
74788W        W40015  43.256   1.962  14.899
74789W        W40016  31.611  22.636   3.806
74790W        W40017   4.437  32.919  14.019
74791W        W40018  44.923  36.837  14.735
74792W        W40019   4.666  21.089  13.864
74793W        W40020  22.916  29.605   3.277
74794W        W40021  14.648  21.004   0.004
74795W        W40022  39.345  41.957   1.284
74796W        W40023  27.077  43.778   4.604
74797W        W40024  35.486  24.599  14.964
74798W        W40025  37.344  41.700   4.098
74799W        W40026  11.392   0.810  13.034
74800W        W40027  36.950  10.479  11.471
74801W        W40028  18.141  20.154  14.767
74802W        W40029   8.263   7.430  12.599
74803W        W40030  24.080  34.660   0.416
74804W        W40031   1.715  36.787   0.744
74805W        W40032  39.915  42.195  12.166
74806W        W40033  12.590  16.793  14.300
74807W        W40034  12.173  18.022   0.372
74808W        W40035  40.515  12.276  12.263
74809W        W40036  16.875   0.336   4.877
74810W        W40037  29.705  16.239   3.623
74811W        W40038   2.321   4.239  14.261
74812W        W40039   6.231   6.371   4.095
74813W        W40040  24.212   3.959   1.235
74814W        W40041   5.266  31.926  12.732
74815W        W40042  44.708   7.643  12.864
74816W        W40043   6.859  43.682   5.066
74817W        W40044  13.190  18.969  11.225
74818W        W40045  32.699  33.502   2.204
74819W        W40046  16.598   2.328  14.237
74820W        W40047  37.561  39.859  14.390
74821W        W40048  34.626  21.457  14.530
74822W        W40049  24.358   3.616  11.222
74823W        W40050  28.939  40.731   1.888
74824W        W40051  42.819   2.017  14.356
74825W        W40052   7.162  25.461   2.088
74826W        W40053  21.041  28.013   4.987
74827W        W40054  36.164  33.892  13.653
74828W        W40055  41.321  30.394  12.314
74829W        W40056  20.551  13.410   4.123
74830W        W40057  41.966  35.528   0.879
74831W        W40058  26.110  12.855  10.490
74832W        W40059   3.666  18.495  14.972
74833W        W40060  29.455   7.646   3.728
74834W        W40061  43.555  43.011  14.375
74835W        W40062  25.689   0.136   3.578
74836W        W40063  19.850  28.151   0.424
74837W        W40064   8.968   1.866   1.272
74838W        W40065  10.775  34.128   2.221
74839W        W40066   5.033  39.938  12.884
74840W        W40067  23.733  32.408   1.753
74841W        W40068  10.860  43.022  11.164
74842W        W40069   9.353  43.500   4.138
74843W        W40070  43.978  16.603   2.655
74844W        W40071   3.609  25.237  10.601
74845W        W40072  19.509  24.765   3.178
74846W        W40073  21.584   9.919  12.041
74847W        W40074  27.987   6.114  14.453
74848W        W40075  44.968   7.748  10.992
74849W        W40076   5.800  12.499  11.122
74850W        W40077  26.995   7.723   1.646
74851W        W40078  37.729  17.035  12.043
74852W        W40079  34.179  38.669   3.643
74853W        W40080  17.720  32.342  14.885
74854W        W40081  15.085   0.082  11.130
74855W        W40082  22.192  38.356  11.634
74856W        W40083  34.903  25.697  10.438
74857W        W40084  13.361   1.257  13.868
74858W        W40085  25.099  19.825   0.799
74859W        W40086  14.650  30.859   2.687
74860W        W40087  25.762  20.913   2.753
74861W        W40088  10.685  14.163  12.545
74862W        W40089  23.557  16.656  13.319
74863W        W40090  36.281   7.613   2.636
74864W        W40091  36.409  13.861  11.183
74865W        W40092  17.412   4.997   4.905
74866W        W40093  41.046   1.214   2.664
74867W        W40094  36.193  36.673  13.035
74868W        W40095  12.452  13.309  12.580
74869W        W40096  24.284  39.118  14.458
74870W        W40097   9.346   0.895  12.984
74871W        W40098  40.356  40.891   4.595
74872W        W40099   5.727  22.961   2.503
74873W        W40100  35.957  29.235  14.315
74874W        W40101  23.642  40.231   0.454
74875W        W40102   7.609  34.313  13.427
74876W        W40103  26.542  22.983   3.336
74877W        W40104   9.313  19.211   0.711
74878W        W40105  36.057  17.023   4.525
74879W        W40106  37.556   3.806   1.280
74880W        W40107   6.355   8.665  11.420
74881W        W40108  38.371  38.712  11.203
74882W        W40109  31.844  30.504   2.541
74883W        W40110  42.932  17.155   3.117
74884W        W40111  21.582   0.294  13.438
74885W        W40112  33.955  30.687  10.784
74886W        W40113  34.677  10.177  13.865
74887W        W40114  33.800  36.113  12.984
74888W        W40115   8.642   6.115   2.231
74889W        W40116   6.105  43.497   1.307
74890W        W40117  44.062  15.088   3.599
74891W        W40118   1.288  36.186   2.446
74892W        W40119  24.990  28.393  13.334
74893W        W40120  39.270  21.141   1.395
74894W        W40121  22.459   7.021  10.762
74895W        W40122  31.086  23.409   3.333
74896W        W40123  20.454  16.784   3.216
74897W        W40124   2.566  27.499  13.316
74898W        W40125  18.076  31.027   0.806
74899W        W40126   8.673   9.632  10.768
74900W        W40127   1.166  33.863  12.396
74901W        W40128  12.754   6.611   2.250
74902W        W40129  14.316  15.633  12.087
74903W        W40130  24.030  20.330   4.163
74904W        W40131  25.844   8.596  14.927
74905W        W40132  35.402  30.276  13.078
74906W        W40133   3.536   5.842   3.662
74907W        W40134  11.505  31.401  10.201
74908W        W40135   0.149  25.736   0.290
74909W        W40136  12.938  10.315   0.856
74910W        W40137  33.825  24.402  14.369
74911W        W40138  37.060  21.677   2.743
74912W        W40139   4.646  13.084   1.231
74913W        W40140  13.902  44.699  12.517
74914W        W40141   7.911  22.223  14.445
74915W        W40142  38.708  30.217   3.352
74916W        W40143   0.744  23.040  12.418
74917W        W40144   3.710   7.380  13.060
74918W        W40145  25.257  10.197  13.965
74919W        W40146  31.673  20.140   0.485
74920W        W40147  25.583   4.335  10.712
74921W        W40148  27.571  40.782  11.144
74922W        W40149   7.256   2.491   2.595
74923W        W40150   1.582  18.752   3.639
74924W        W40151   4.413  18.751  14.247
74925W        W40152  25.577   4.402  12.448
74926W        W40153  25.866   6.195  13.571
74927W        W40154   5.198  28.910   2.275
74928W        W40155  34.905  42.896  14.483
74929W        W40156  14.506  15.307   3.371
74930W        W40157  40.432  36.613   4.901
74931W        W40158  38.116  42.378   3.777
74932W        W40159  10.346   2.454  14.437
74933W        W40160   0.322  15.827  13.063
74934W        W40161  32.083  38.809   3.038
74935W        W40162   3.771   8.896  14.414
74936W        W40163  17.972  16.227  14.115
74937W        W40164  29.008  23.005   3.148
74938W        W40165  28.054   4.711  11.331
74939W        W40166  11.615  15.493  11.687
74940W        W40167   6.362  39.471   3.065
74941W        W40168  11.584  17.418   4.562
74942W        W40169  29.890  11.732   0.667
74943W        W40170  25.961  39.302   4.066
74944W        W40171  36.164   5.016   2.505
74945W        W40172  19.297   8.355   2.543
74946W        W40173  20.216  13.322   1.015
74947W        W40174   7.874  23.332   2.696
74948W        W40175  10.756  33.038   1.777
74949W        W40176  11.114  35.013   1.890
74950W        W40177  22.772  14.046  13.217
74951W        W40178  13.307  35.984  13.503
74952W        W40179  43.394  10.232  11.879
74953W        W40180  29.768  22.496  13.037
74954W        W40181   9.686  31.398   4.266
74955W        W40182  24.102  31.200  12.407
74956W        W40183  27.025  30.417   3.116
74957W        W40184  10.721   9.891  13.463
74958W        W40185  23.722  13.358   1.867
74959W        W40186   1.180  32.426  14.386
74960W        W40187  33.931  31.971   3.198
74961W        W40188   0.801  39.060   3.587
74962W        W40189  16.146  26.048  12.286
74963W        W40190  20.052  24.603  13.967
74964W        W40191   5.336  35.831   4.498
74965W        W40192  34.628  29.927  14.896
74966W        W40193  27.880  18.735  10.608
74967W        W40194  21.025   7.397   0.328
74968W        W40195  44.027   6.306   4.173
74969W        W40196  33.434  41.781  11.153
74970W        W40197   1.035  30.067  12.895
74971W        W40198   1.676  22.162  13.553
74972W        W40199  13.217  27.223   4.866
74973W        W40200   8.800   2.428  10.856
74974W        W40201   6.216  28.512  13.770
74975W        W40202  29.220   5.316  10.707
74976W        W40203  27.073  37.878   4.371
74977W        W40204  32.016  43.432   3.375
74978W        W40205  12.074  25.093   0.417
74979W        W40206  35.570   0.402   3.732
74980W        W40207  43.564  27.266  11.000
74981W        W40208  21.109  29.836  13.982
74982W        W40209  25.126  32.839   1.299
74983W        W40210  37.092  17.041   2.727
74984W        W40211  33.097  34.170  11.588
74985W        W40212  29.424  27.902   0.476
74986W        W40213  39.527  29.609  12.943
74987W        W40214  14.118  24.528  12.225
74988W        W40215  20.656   5.225   1.232
74989W        W40216   5.389  43.954  13.971
74990W        W40217   2.216  40.553   0.463
74991W        W40218  27.996   6.775   0.647
74992W        W40219  31.726  30.110  13.454
74993W        W40220  31.969   9.398   0.631
74994W        W40221  27.443  35.010  12.182
74995W        W40222   0.630  37.856  13.506
74996W        W40223  33.908  33.535   1.525
74997W        W40224  20.350  32.999  12.590
74998W        W40225  20.430  29.263  13.367
74999W        W40226  16.312  28.867   4.173
75000W        W40227  10.055  34.407  10.491
75001W        W40228   1.850  13.259   2.284
75002W        W40229   5.839  26.534  10.284
75003W        W40230   3.977  41.069   4.290
75004W        W40231  27.864   0.752   3.550
75005W        W40232   0.964  39.805   4.126
75006W        W40233   2.165   1.681  12.147
75007W        W40234   1.862  32.112  14.386
75008W        W40235  30.573  26.932  14.840
75009W        W40236   9.762  11.612   3.203
75010W        W40237  17.508  28.604  10.577
75011W        W40238   7.339  10.077  14.896
75012W        W40239  36.523  12.290  13.381
75013W        W40240   1.957  30.412  14.913
75014W        W40241  31.526  30.232   3.607
75015W        W40242  15.624  38.911  11.938
75016W        W40243  18.077  21.082  13.745
75017W        W40244   5.435  41.796  11.097
75018W        W40245  31.427  33.924  12.034
75019W        W40246  11.057  12.578   1.797
75020W        W40247  33.071  24.043   1.266
75021W        W40248  34.882  14.842  12.611
75022W        W40249  32.957   7.534   4.450
75023W        W40250  40.934  12.252   0.967
75024W        W40251  15.556  41.928  11.482
75025W        W40252  12.143  32.580   2.865
75026W        W40253   5.695  11.213  13.463
75027W        W40254  19.353  21.628   0.092
75028W        W40255  12.248   6.131   0.242
75029W        W40256  39.916   5.144   3.263
75030W        W40257  18.281   3.630  14.070
75031W        W40258  41.710  34.097  13.367
75032W        W40259   9.311   4.470  14.310
75033W        W40260   6.945  26.116  12.606
75034W        W40261  35.140   4.438  10.750
75035W        W40262  22.751  43.736  13.357
75036W        W40263  22.031  24.724   1.286
75037W        W40264  10.438   5.684   1.002
75038W        W40265  18.090  35.647  12.645
75039W        W40266  20.457  24.380   1.237
75040W        W40267  22.017  37.452  14.342
75041W        W40268  19.849  21.301   3.826
75042W        W40269   4.264  39.622   3.155
75043W        W40270  15.151  19.328  11.199
75044W        W40271  44.743  21.884  10.358
75045W        W40272  27.543  34.980  13.894
75046W        W40273  29.904   6.837  12.513
75047W        W40274  20.777   2.991  14.836
75048W        W40275  27.524  24.010  13.999
75049W        W40276  13.057  27.009   1.557
75050W        W40277  16.623   3.643   2.763
75051W        W40278   2.432  11.265   0.057
75052W        W40279  13.796  41.999   1.547
75053W        W40280  24.572  38.298  10.780
75054W        W40281   9.178   0.436  12.793
75055W        W40282  36.399  18.727   2.256
75056W        W40283  32.148  38.313   0.806
75057W        W40284  32.229  26.015   1.399
75058W        W40285   0.496  31.595   2.541
75059W        W40286  26.841  24.645  13.804
75060W        W40287  42.826  23.946   0.024
75061W        W40288  27.468  42.475  11.588
75062W        W40289  38.103  26.705  12.516
75063W        W40290  33.957  20.710   0.463
75064W        W40291  29.250  21.416  12.576
75065W        W40292  33.399  11.288   3.835
75066W        W40293  24.061  15.544   0.359
75067W        W40294  28.406  10.234  13.533
75068W        W40295  13.771  42.253  14.313
75069W        W40296  27.001  16.974  12.841
75070W        W40297  40.798  41.533  12.855
75071W        W40298  12.935  32.095  14.865
75072W        W40299  22.009   7.387  10.679
75073W        W40300   4.375  21.569   0.031
75074W        W40301  14.255  44.345   3.361
75075W        W40302  20.659  24.426  14.881
75076W        W40303  25.715  38.282  12.919
75077W        W40304  14.006  42.946   1.343
75078W        W40305  25.479  20.531   1.333
75079W        W40306   6.182  27.527  11.457
75080W        W40307   3.470  17.796  14.305
75081W        W40308  19.535   9.596   2.347
75082W        W40309   0.774  16.182   0.750
75083W        W40310  29.863  36.488   0.903
75084W        W40311  21.762  16.135  12.364
75085W        W40312  38.560   3.363  13.584
75086W        W40313  27.221   0.591  10.361
75087W        W40314   2.433  17.982   2.713
75088W        W40315   8.923  25.312   3.676
75089W        W40316  27.764  41.522  12.547
75090W        W40317  33.050  40.851  12.012
75091W        W40318  31.594   4.824  13.025
75092W        W40319   6.622  21.227  10.714
75093W        W40320  41.780   2.451   4.212
75094W        W40321  15.301  43.069  13.051
75095W        W40322  16.084  23.707   3.150
75096W        W40323  16.596  37.573  13.468
75097W        W40324  30.267  20.515   2.162
75098W        W40325   6.812   2.706   0.866
75099W        W40326  19.298  38.040   3.042
75100W        W40327  31.007  17.643  10.694
75101W        W40328  41.254  30.315   0.230
75102W        W40329  34.894  25.080   0.768
75103W        W40330  33.551  27.558   0.352
75104W        W40331  36.036  28.030  12.090
75105W        W40332  31.935  27.233  14.484
75106W        W40333  28.229  23.112   4.735
75107W        W40334  25.364  12.114   1.927
75108W        W40335  41.799  43.500   1.879
75109W        W40336  14.408  18.748   2.765
75110W        W40337  31.927  22.643  14.113
75111W        W40338  13.581  15.697   3.582
75112W        W40339  21.982  15.507   4.841
75113W        W40340  37.550  35.637  11.980
75114W        W40341  32.537  34.823   3.327
75115W        W40342  19.646  39.659  12.810
75116W        W40343  20.185   1.163   2.294
75117W        W40344   3.755  11.110  11.642
75118W        W40345  36.901  43.456  10.937
75119W        W40346  16.588  12.092  10.721
75120W        W40347  20.174   7.926   1.393
75121W        W40348  13.250  31.652  13.536
75122W        W40349  26.423   8.715   4.677
75123W        W40350  10.021  13.158   2.502
75124W        W40351  15.294  37.524  13.911
75125W        W40352  41.990   9.450   0.777
75126W        W40353  21.367   9.431   0.220
75127W        W40354  26.942  30.493   3.981
75128W        W40355  13.636  16.482  12.874
75129W        W40356  19.387  35.356  11.470
75130W        W40357   1.200   5.208   2.228
75131W        W40358  21.600  10.103   4.562
75132W        W40359  23.165  16.035  14.276
75133W        W40360   6.443  19.295  12.556
75134W        W40361  21.188  28.445  12.314
75135W        W40362  13.360  18.140  13.529
75136W        W40363  21.211   8.769  12.964
75137W        W40364  15.868  24.238  12.522
75138W        W40365  35.002  13.729  13.401
75139W        W40366  26.126  37.741   1.274
75140W        W40367  23.973   5.269   2.669
75141W        W40368  13.885  35.376  14.085
75142W        W40369  39.974  31.987   2.836
75143W        W40370  23.287   1.741  13.335
75144W        W40371  28.107  31.394  14.701
75145W        W40372  43.231  34.579  12.976
75146W        W40373  28.949  25.014  12.484
75147W        W40374  44.435  21.608   0.846
75148W        W40375  12.614  41.093   4.339
75149W        W40376  37.031   2.345   4.138
75150W        W40377   2.585  11.177  14.548
75151W        W40378  25.474  20.095   0.510
75152W        W40379   1.762   0.295  12.230
75153W        W40380  32.099   3.944   2.103
75154W        W40381  11.250  22.432   4.008
75155W        W40382  20.111   1.274   4.607
75156W        W40383   9.310  33.448   0.918
75157W        W40384  15.102  32.513   1.897
75158W        W40385  43.604  28.359  10.196
75159W        W40386   4.769  40.615  11.147
75160W        W40387  30.501  37.843  12.126
75161W        W40388   7.376  22.654   0.505
75162W        W40389   7.771   4.583  10.697
75163W        W40390   8.848  32.835   2.379
75164W        W40391  32.303  22.949  13.917
75165W        W40392   3.048   1.341  12.829
75166W        W40393   2.416  25.627  10.631
75167W        W40394  25.495  14.897  14.963
75168W        W40395  13.878   2.019  11.319
75169W        W40396   9.418   3.671   1.795
75170W        W40397  10.685  30.876   3.593
75171W        W40398  38.383   4.913   0.901
75172W        W40399  44.943  28.290  12.509
75173W        W40400  40.855   3.302   0.099
75174W        W40401  20.216  37.856  10.539
75175W        W40402   9.722  38.342  12.542
75176W        W40403  32.920  44.831   1.274
75177W        W40404  20.123  31.516   3.120
75178W        W40405  18.055  27.138   0.298
75179W        W40406  39.369   1.027   2.824
75180W        W40407   9.582   1.888  13.550
75181W        W40408  10.835  36.495  11.942
75182W        W40409   4.469   1.816   2.375
75183W        W40410   2.423  37.335   2.773
75184W        W40411  40.863   5.468  13.377
75185W        W40412   7.395  17.318  14.951
75186W        W40413   4.727  23.265   0.786
75187W        W40414  17.179  23.092  12.906
75188W        W40415  33.374  18.852  11.073
75189W        W40416  36.994  20.254  10.803
75190W        W40417  40.476  27.585   0.982
75191W        W40418  40.087  27.195   0.956
75192W        W40419  37.552  10.798  13.980
75193W        W40420  17.053   3.711  11.619
75194W        W40421   0.734   8.177  14.442
75195W        W40422  16.668  13.948   4.069
75196W        W40423  19.142  35.147  12.826
75197W        W40424   8.849  42.365  14.247
75198W        W40425  24.246  24.050   2.668
75199W        W40426  43.422  33.819  12.613
75200W        W40427  13.270   2.915   1.676
75201W        W40428  26.614  12.284   4.088
75202W        W40429  26.872   6.408   4.125
75203W        W40430  37.963  20.982   0.036
75204W        W40431   9.729   1.771   1.780
75205W        W40432   0.037  33.454  12.561
75206W        W40433  41.982  20.286   2.015
75207W        W40434  24.306  31.065   3.234
75208W        W40435  22.037   0.332   3.676
75209W        W40436  30.934   7.487   5.019
75210W        W40437   0.030   7.630   1.238
75211W        W40438   5.716   9.411  12.061
75212W        W40439  39.417   2.116   0.783
75213W        W40440  23.186  29.997  14.438
75214W        W40441  14.749   6.521  12.605
75215W        W40442  33.643  23.638   0.806
75216W        W40443  20.268  35.886   1.758
75217W        W40444  26.527   1.274  13.903
75218W        W40445  26.430  13.774  14.566
75219W        W40446  23.030   5.876   3.285
75220W        W40447  37.318  13.762   1.999
75221W        W40448  17.955  36.318  14.953
75222W        W40449  22.999  23.555  13.056
75223W        W40450  19.102  39.391  11.570
75224W        W40451  12.155  22.752   4.387
75225W        W40452  11.920  10.205  10.322
75226W        W40453  25.875  34.841   1.635
75227W        W40454  19.649  28.068  13.538
75228W        W40455  36.055   0.240   0.834
75229W        W40456  19.005  20.702   0.831
75230W        W40457   8.887  22.519   0.747
75231W        W40458  40.376  37.098   1.728
75232W        W40459  26.613  34.841   5.044
75233W        W40460  27.171  39.013   3.653
75234W        W40461  28.963   3.458   4.690
75235W        W40462  28.347  27.920   4.088
75236W        W40463  16.732  32.384   3.806
75237W        W40464  19.288   2.498  13.018
75238W        W40465   3.064  23.374  12.922
75239W        W40466  36.257  34.172  12.275
75240W        W40467  27.083  17.404  14.140
75241W        W40468  21.525  39.423  12.341
75242W        W40469  14.915  19.263   2.912
75243W        W40470  38.091  38.896   3.342
75244W        W40471  20.481  28.718  12.457
75245W        W40472  15.693  35.494   4.017
75246W        W40473  42.901  38.317   4.075
75247W        W40474   4.902  30.803   0.177
75248W        W40475   0.552  38.451   1.444
75249W        W40476  27.583   3.830  10.261
75250W        W40477  12.334  35.166   2.817
75251W        W40478  32.561  23.654  12.737
75252W        W40479  44.385   5.434   0.775
75253W        W40480  26.756   2.173  13.844
75254W        W40481   1.572  13.103  11.461
75255W        W40482  43.820  10.451   2.307
75256W        W40483   9.247  31.712   2.659
75257W        W40484  16.768  36.224  14.364
75258W        W40485  30.515  40.028   3.358
75259W        W40486   0.340  24.335  13.374
75260W        W40487   6.088   5.992   2.360
75261W        W40488  29.099  29.895  13.053
75262W        W40489  13.654   2.343  14.467
75263W        W40490  31.085   9.243   0.029
75264W        W40491  25.909  14.859  11.525
75265W        W40492  21.946  13.589  14.819
75266W        W40493  30.980  35.604   3.668
75267W        W40494  43.093  10.309   3.738
75268W        W40495   5.779  14.377  13.918
75269W        W40496  40.092  24.438   2.810
75270W        W40497  30.132  29.934  14.352
75271W        W40498  10.311  11.993   4.618
75272W        W40499  37.394  36.868   0.205
75273W        W40500  43.694  25.080   1.191
75274W        W40501  42.269   2.416   0.943
75275W        W40502  19.417  38.358  11.468
75276W        W40503  33.643  23.979   1.226
75277W        W40504  11.623  10.319   2.008
75278W        W40505  42.435  31.402  10.656
75279W        W40506  25.668  30.893  14.981
75280W        W40507  21.797  40.156   3.313
75281W        W40508  16.198  12.743  13.527
75282W        W40509  25.502  24.162   0.019
75283W        W40510  19.229   1.762  11.534
75284W        W40511  16.495  21.364  11.488
75285W        W40512  13.054  30.928  12.898
75286W        W40513  43.571   0.825   1.653
75287W        W40514  18.724  29.600   1.174
75288W        W40515  18.070   2.919  11.166
75289W        W40516  25.476  21.073   2.345
75290W        W40517  31.546  32.952   2.706
75291W        W40518  43.858  20.091   0.659
75292W        W40519  40.071  20.174   2.830
75293W        W40520  34.465  36.278  12.086
75294W        W40521  39.782   7.470   1.910
75295W        W40522   1.199  29.257   4.578
75296W        W40523  38.992  43.464  12.641
75297W        W40524   4.445  35.069   1.816
75298W        W40525  22.180   4.517  14.809
75299W        W40526  34.794  21.715  14.932
75300W        W40527   7.711  22.254   1.292
75301W        W40528  40.883  37.606  10.751
75302W        W40529  23.085  44.030  14.531
75303W        W40530   1.862  16.813   1.438
75304W        W40531  35.997  10.087  13.432
75305W        W40532  18.726  17.277   0.026
75306W        W40533  23.906   2.437  10.785
75307W        W40534  10.820  13.777  13.541
75308W        W40535  25.730  28.609  13.865
75309W        W40536  13.633   9.609   2.836
75310W        W40537  30.516  23.431  10.262
75311W        W40538  41.619  39.932   1.975
75312W        W40539  17.819  30.159  13.434
75313W        W40540   5.834  26.888   1.429
75314W        W40541  17.049   5.262   2.887
75315W        W40542  26.201  25.290  11.620
75316W        W40543  36.909  25.970   0.467
75317W        W40544  19.042  40.995  12.094
75318W        W40545  24.934  33.597   4.063
75319W        W40546  40.116  23.220   4.867
75320W        W40547  43.259  44.324  10.108
75321W        W40548  41.920  14.309  12.884
75322W        W40549  17.141  19.990  11.297
75323W        W40550  41.463   1.386  12.131
75324W        W40551   7.830  17.731   4.624
75325W        W40552  43.514  24.987  13.892
75326W        W40553   2.876  43.879   2.759
75327W        W40554  15.628  20.920   4.413
75328W        W40555  41.472  24.349   4.560
75329W        W40556  26.902   0.756  14.034
75330W        W40557  37.563  32.409  12.816
75331W        W40558  17.315  37.656   0.467
75332W        W40559  40.911  14.643  13.348
75333W        W40560  32.136  29.241  14.404
75334W        W40561   3.719  25.179   3.528
75335W        W40562  15.814  24.272  13.095
75336W        W40563  26.727  30.625   4.509
75337W        W40564   6.227   4.365   1.640
75338W        W40565  15.777  18.293   2.536
75339W        W40566  41.351  17.357  11.117
75340W        W40567  37.021  25.624   3.682
75341W        W40568  11.553  30.881   5.424
75342W        W40569  23.014  23.415   0.659
75343W        W40570   8.111   5.932   3.453
75344W        W40571  33.595  25.771   3.829
75345W        W40572  16.852   5.228  10.663
75346W        W40573  37.081  16.601  12.835
75347W        W40574  23.645  40.941   3.272
75348W        W40575  32.960  24.788   1.837
75349W        W40576  34.821   0.486  11.531
75350W        W40577  36.925  29.366  12.096
75351W        W40578   4.666  25.185  13.866
75352W        W40579  33.144   6.685  14.857
75353W        W40580   3.989  21.255  12.779
75354W        W40581   6.662  32.117   4.778
75355W        W40582  37.533  23.263   3.007
75356W        W40583  44.226  23.069  11.660
75357W        W40584  41.341  25.502   2.363
75358W        W40585  29.095  22.859   4.515
75359W        W40586  34.060  43.194  11.057
75360W        W40587  20.270  22.644   1.891
75361W        W40588   6.758  44.776   2.217
75362W        W40589   3.152  42.285  12.414
75363W        W40590  11.445  37.688  13.537
75364W        W40591  19.884  13.351  12.789
75365W        W40592  16.628  32.960  13.373
75366W        W40593  41.612   9.859   2.180
75367W        W40594   7.953  30.429   9.409
75368W        W40595  36.508  41.680  13.522
75369W        W40596  22.046   9.372   4.201
75370W        W40597   9.352  34.694   3.676
75371W        W40598   8.209  30.808   1.931
75372W        W40599   2.450  39.025  13.604
75373W        W40600  26.658   7.299  14.861
75374W        W40601   7.622  17.252   4.477
75375W        W40602  24.301  43.409   1.304
75376W        W40603  15.635  23.673  14.396
75377W        W40604  30.458  19.629  12.522
75378W        W40605  11.756  14.832   0.911
75379W        W40606   9.776  25.433  12.461
75380W        W40607  25.038  28.576  10.719
75381W        W40608  34.344   3.584  13.399
75382W        W40609  30.651  26.415  12.114
75383W        W40610  22.533  17.747   2.820
75384W        W40611   3.007  27.612   1.202
75385W        W40612  24.320  30.443   0.761
75386W        W40613   2.804   8.615  14.388
75387W        W40614  35.081  41.466  13.414
75388W        W40615  14.928  40.944  11.111
75389W        W40616   1.652   7.482   0.018
75390W        W40617  28.914  35.340  10.723
75391W        W40618   5.447   4.308   4.849
75392W        W40619  20.070   9.455   1.055
75393W        W40620  10.923   8.692   3.874
75394W        W40621  19.361   2.559   3.370
75395W        W40622   7.193  41.898  14.947
75396W        W40623  34.962  42.879  12.992
75397W        W40624  41.819  31.972  13.912
75398W        W40625  31.111  38.542  14.671
75399W        W40626  15.209   3.055  14.736
75400W        W40627  23.384  40.412   0.884
75401W        W40628  25.052  25.413   0.348
75402W        W40629  38.710  44.077  12.019
75403W        W40630  41.077   1.698   4.292
75404W        W40631   0.229  28.891  13.308
75405W        W40632  32.856   8.630  14.499
75406W        W40633   2.193  15.346  10.645
75407W        W40634   9.306  32.498   1.533
75408W        W40635  38.392   2.326  12.398
75409W        W40636   4.796  27.052   0.410
75410W        W40637  41.951  34.245  13.800
75411W        W40638  18.785  10.651   4.075
75412W        W40639  30.387   8.131  11.219
75413W        W40640  20.943   3.508  10.296
75414W        W40641  29.748  20.531   2.235
75415W        W40642  41.723  24.126  11.270
75416W        W40643  16.798  31.190  13.813
75417W        W40644   8.407  33.454  11.627
75418W        W40645  17.733  13.661  14.171
75419W        W40646  21.193  38.927  12.882
75420W        W40647   0.969  37.338  10.231
75421W        W40648  39.243  33.519  12.464
75422W        W40649  19.255  26.324  10.214
75423W        W40650   9.824  28.348  10.519
75424W        W40651   1.466  20.870   4.606
75425W        W40652  34.720  16.529   1.310
75426W        W40653  44.004  30.432  13.079
75427W        W40654  13.366  36.252   1.820
75428W        W40655  18.753  16.798   2.145
75429W        W40656  12.348  26.793   2.324
75430W        W40657  36.773  40.007  11.920
75431W        W40658  13.456   9.247   4.633
75432W        W40659  14.179  27.583   3.802
75433W        W40660  28.651  36.398   1.204
75434W        W40661  17.752  21.409  12.905
75435W        W40662  31.064  32.219   4.516
75436W        W40663  42.805   3.197   0.281
75437W        W40664  34.173  12.563   1.714
75438W        W40665  39.606  39.573   0.016
75439W        W40666  16.052  16.284   4.149
75440W        W40667   3.259   2.376   0.800
75441W        W40668   7.068   1.452  12.525
75442W        W40669  16.371  42.331  11.220
75443W        W40670  43.297   9.227   2.096
75444W        W40671  13.264  36.641  10.261
75445W        W40672  16.013  38.863  13.420
75446W        W40673  38.024  41.748   3.278
75447W        W40674   5.711  26.452   1.848
75448W        W40675  34.141  38.126   2.623
75449W        W40676  41.681  11.040  13.857
75450W        W40677  35.533  31.548   2.858
75451W        W40678  13.889  13.363   3.194
75452W        W40679  33.633  24.930   1.352
75453W        W40680  16.233  41.494   0.391
75454W        W40681  16.628   3.812   0.070
75455W        W40682  30.237  22.693   3.780
75456W        W40683  19.656  39.815  11.061
75457W        W40684  40.655  22.257   2.414
75458W        W40685  17.509   3.437  11.614
75459W        W40686   7.423  20.005   2.859
75460W        W40687  26.841   9.080   3.236
75461W        W40688  28.657  25.496  13.503
75462W        W40689   4.436  39.048  11.064
75463W        W40690   6.543  39.416  10.922
75464W        W40691  12.873  41.784  13.424
75465W        W40692  39.910  38.491  14.413
75466W        W40693  14.169  39.725  10.517
75467W        W40694  10.935  28.827   1.531
75468W        W40695   3.685  41.281   1.702
75469W        W40696   8.875  11.416  11.735
75470W        W40697  29.535  24.166  14.357
75471W        W40698  42.990  28.356   0.804
75472W        W40699  35.354  23.027  13.776
75473W        W40700  14.402  18.033   2.091
75474W        W40701   0.459  18.013  14.494
75475W        W40702  33.274  12.744  11.713
75476W        W40703   3.693   2.633  11.118
75477W        W40704  44.242  41.570   1.282
75478W        W40705  34.415  14.916  11.167
75479W        W40706  35.870  21.815  14.472
75480W        W40707  14.647  33.434  12.880
75481W        W40708   3.531  27.179   1.758
75482W        W40709  27.080  11.982  14.095
75483W        W40710  35.753   2.185  11.203
75484W        W40711  14.717  16.645   0.415
75485W        W40712  23.192   6.232   3.837
75486W        W40713  34.178  25.878   9.691
75487W        W40714   3.773  19.574  12.951
75488W        W40715  18.593  21.511  14.918
75489W        W40716  12.446  19.579  11.134
75490W        W40717  30.893   6.890  11.694
75491W        W40718  20.300  30.559  10.761
75492W        W40719  35.287  14.724   2.274
75493W        W40720  37.939  44.913  13.854
75494W        W40721  25.338   7.760   1.911
75495W        W40722  35.377  15.488  12.140
75496W        W40723  35.806  37.117   0.857
75497W        W40724   4.757   8.476   0.365
75498W        W40725  13.114  35.256   5.446
75499W        W40726  40.002  38.829   0.380
75500W        W40727  32.239  20.559   3.657
75501W        W40728   1.556  38.486   1.376
75502W        W40729   0.531  39.391  13.846
75503W        W40730  10.718   4.020  10.707
75504W        W40731  23.463  21.656  12.455
75505W        W40732  22.315  14.067   4.348
75506W        W40733  30.671  22.037  14.916
75507W        W40734   3.009   3.971   4.243
75508W        W40735  23.649  12.657   3.127
75509W        W40736   7.858  16.130  13.066
75510W        W40737  11.316  37.865   2.020
75511W        W40738  18.036  43.430   3.863
75512W        W40739   8.880  25.908  12.640
75513W        W40740  10.242  34.298  14.344
75514W        W40741  21.751  23.755   1.661
75515W        W40742  28.745  11.174  12.102
75516W        W40743  42.196   2.552   3.494
75517W        W40744  39.419   0.951  11.692
75518W        W40745  18.660  21.832  12.917
75519W        W40746   2.796  26.409  12.898
75520W        W40747  39.286  31.165   4.111
75521W        W40748  37.779  10.236   0.284
75522W        W40749  33.502  32.672   3.644
75523W        W40750  17.844  25.989   1.646
75524W        W40751  29.445  24.344   3.339
75525W        W40752  34.472  29.948   2.620
75526W        W40753  13.635   1.362  10.756
75527W        W40754  12.227  15.380   1.466
75528W        W40755  39.588   5.145   4.873
75529W        W40756  26.256  20.353   0.840
75530W        W40757   2.837  42.514  11.503
75531W        W40758  21.814  44.298   1.195
75532W        W40759  30.469  26.714  12.535
75533W        W40760   8.488  17.083   1.222
75534W        W40761   2.767   2.698  12.849
75535W        W40762  14.819  11.172   2.921
75536W        W40763  36.425  43.420  12.543
75537W        W40764  15.934  33.334  11.057
75538W        W40765  38.497   1.114  12.881
75539W        W40766  35.537  23.983  11.421
75540W        W40767   8.882  41.294   1.797
75541W        W40768  33.583   2.785  12.435
75542W        W40769  16.555   8.844   0.999
75543W        W40770  33.995  39.107  11.365
75544W        W40771  35.393  40.141   0.283
75545W        W40772   7.979  19.255   1.789
75546W        W40773  27.559   5.720   4.609
75547W        W40774  28.211   8.257  14.736
75548W        W40775   6.905  11.343   0.873
75549W        W40776  13.602   2.462   4.925
75550W        W40777  39.775  37.586   0.667
75551W        W40778  14.541  27.541   1.190
75552W        W40779  40.208   2.548  12.664
75553W        W40780  24.212   2.949   1.385
75554W        W40781  15.591  24.192  10.589
75555W        W40782  38.051   0.698   0.971
75556W        W40783  36.486  39.056  14.148
75557W        W40784  17.264  38.427   2.228
75558W        W40785  25.509  41.415  12.752
75559W        W40786   1.849  24.096  11.622
75560W        W40787  33.566  42.140   1.646
75561W        W40788  18.655  31.462   1.242
75562W        W40789   1.742  25.555   2.168
75563W        W40790  35.541  34.327  10.738
75564W        W40791  16.501  18.783   1.744
75565W        W40792  20.262  31.052  14.770
75566W        W40793  44.723  35.266  12.189
75567W        W40794  28.576  35.821   2.360
75568W        W40795  41.813   2.166  12.333
75569W        W40796   8.068  44.271   4.599
75570W        W40797  36.550   3.839  14.487
75571W        W40798  28.133   4.733   5.465
75572W        W40799  26.007  25.662  13.844
75573W        W40800   4.217  38.386  13.376
75574W        W40801  19.796  23.484   4.526
75575W        W40802   3.548  28.574   2.987
75576W        W40803   3.937   9.243   0.282
75577W        W40804   8.771  21.300   3.754
75578W        W40805  18.688  37.720  11.817
75579W        W40806  15.549   6.134   0.334
75580W        W40807   5.258   4.779   4.180
75581W        W40808  21.776  31.143   1.397
75582W        W40809   1.043  12.538  12.045
75583W        W40810  21.977  29.859  12.007
75584W        W40811   9.790  41.873  11.157
75585W        W40812  11.147   1.751   4.207
75586W        W40813  35.406  20.112   2.674
75587W        W40814  28.040  42.371  14.229
75588W        W40815  26.213  41.957   2.407
75589W        W40816  35.333   1.965  10.622
75590W        W40817  11.510  40.683   2.746
75591W        W40818  43.008   1.693   3.179
75592W        W40819  38.929  12.471   3.615
75593W        W40820  32.067  34.497   4.503
75594W        W40821  17.906  21.025   3.338
75595W        W40822  21.807  13.319  12.571
75596W        W40823  14.412  30.056  12.027
75597W        W40824  20.570  11.262   1.746
75598W        W40825  29.402  38.124  11.443
75599W        W40826  19.756  35.886  14.567
75600W        W40827  13.760  32.765   2.477
75601W        W40828  38.773  27.497   1.113
75602W        W40829  36.420  31.948   3.810
75603W        W40830  30.464   1.145  13.791
75604W        W40831  39.422   7.679  13.072
75605W        W40832  11.161  42.708  12.446
75606W        W40833  19.714  11.874  11.042
75607W        W40834   6.239   0.853   0.386
75608W        W40835  33.340   2.032  11.117
75609W        W40836  39.096  21.343  14.466
75610W        W40837   9.269  44.460  13.340
75611W        W40838   0.227   0.850  13.896
75612W        W40839  24.481  35.425   4.878
75613W        W40840   8.323   7.851   4.044
75614W        W40841  44.779  23.131   1.799
75615W        W40842   9.077  16.478   5.011
75616W        W40843  24.603  37.032   3.862
75617W        W40844  35.195  21.480   0.164
75618W        W40845   3.276   8.803  13.532
75619W        W40846  10.198   2.005   3.257
75620W        W40847   0.905   5.350   4.849
75621W        W40848  43.032  12.221  13.241
75622W        W40849  13.543  21.687  11.527
75623W        W40850   5.468   1.398  12.625
75624W        W40851  42.809   1.575   4.231
75625W        W40852   9.833  39.598   1.140
75626W        W40853  12.308   8.982  13.390
75627W        W40854  34.047  10.144   0.754
75628W        W40855   3.456   2.842   5.734
75629W        W40856  40.010  43.834  12.824
75630W        W40857  15.077   6.432  11.087
75631W        W40858  12.687  27.218   2.291
75632W        W40859  39.067   4.022   0.035
75633W        W40860   2.341  14.749  11.857
75634W        W40861  27.852  10.910  13.515
75635W        W40862   6.353   1.947   2.066
75636W        W40863  32.762  16.095   1.706
75637W        W40864  24.111  12.141  13.833
75638W        W40865   9.545  43.427  14.922
75639W        W40866  13.645   9.289   1.860
75640W        W40867  40.714   2.275  11.421
75641W        W40868  21.591  10.348  14.768
75642W        W40869   5.749  36.965  10.721
75643W        W40870  12.257  28.209  13.463
75644W        W40871  37.911  32.691   4.360
75645W        W40872  34.773   0.846   3.666
75646W        W40873  37.490   9.771   4.630
75647W        W40874  18.139  39.928  14.392
75648W        W40875  44.048   0.677  14.413
75649W        W40876   1.361   9.805  11.689
75650W        W40877  18.537   9.133   4.239
75651W        W40878  15.139   4.905  13.355
75652W        W40879  20.494   0.422  10.664
75653W        W40880  15.780  20.188   4.656
75654W        W40881  22.847  44.648   4.561
75655W        W40882  22.070  17.778   4.172
75656W        W40883  25.109  14.929   4.185
75657W        W40884  10.849  26.552   1.416
75658W        W40885  10.535  10.686   1.623
75659W        W40886  21.025  33.943  11.237
75660W        W40887  19.570  31.631  14.505
75661W        W40888   2.231  13.264  12.598
75662W        W40889  12.871  41.735   2.757
75663W        W40890  22.991  24.234   0.820
75664W        W40891  22.321  21.280   2.780
75665W        W40892  16.197  37.830   3.824
75666W        W40893  18.155  34.117  11.354
75667W        W40894   8.854  38.663   3.140
75668W        W40895  37.294  26.940  12.066
75669W        W40896  17.086  21.158  10.283
75670W        W40897  39.668   0.063   0.323
75671W        W40898  29.894  23.536  11.610
75672W        W40899  10.781  39.947   0.453
75673W        W40900  15.088  15.828  12.506
75674W        W40901  13.255  33.984   4.542
75675W        W40902  20.334  30.136  10.473
75676W        W40903  21.540  34.167   0.360
75677W        W40904  35.975  19.750  14.714
75678W        W40905  26.405  11.264  13.778
75679W        W40906  31.422  29.342   2.297
75680W        W40907   5.884  36.059   3.703
75681W        W40908  29.643   6.331   1.980
75682W        W40909   8.743  32.571  11.230
75683W        W40910  14.622  43.876  12.290
75684W        W40911   6.126  43.325  12.999
75685W        W40912  40.926   9.471  11.507
75686W        W40913   5.836  21.638   0.300
75687W        W40914  42.481  10.029  11.495
75688W        W40915  17.597  15.884  13.950
75689W        W40916  42.260  34.028  14.924
75690W        W40917  20.130  20.219   4.705
75691W        W40918  24.025   3.293  12.408
75692W        W40919  42.831   9.629   2.678
75693W        W40920  28.993   3.492  11.124
75694W        W40921  32.830  36.339   0.687
75695W        W40922  41.490   6.579  11.443
75696W        W40923  36.796   6.918  14.787
75697W        W40924  30.364  34.298   3.628
75698W        W40925  27.641  39.742  14.627
75699W        W40926  42.462   1.645  14.383
75700W        W40927  37.039  18.651  13.180
75701W        W40928  42.033   6.233  10.433
75702W        W40929  24.412  14.780  13.078
75703W        W40930  39.396   9.698   1.279
75704W        W40931  11.833   9.602   1.715
75705W        W40932  15.214  32.644  13.411
75706W        W40933  29.032  18.736  12.921
75707W        W40934  43.052  14.590   2.758
75708W        W40935  39.716   7.035   3.690
75709W        W40936  32.144  19.170   4.136
75710W        W40937  10.724  20.632  13.529
75711W        W40938  28.541   0.348   2.607
75712W        W40939   5.528  36.331   4.385
75713W        W40940   0.106  22.607  10.587
75714W        W40941  24.974   2.639  14.859
75715W        W40942  28.089   2.994   3.273
75716W        W40943  15.791  11.004   9.756
75717W        W40944  13.313  21.129  11.567
75718W        W40945  27.181  24.005  10.589
75719W        W40946  34.524   0.836   1.304
75720W        W40947   3.482  35.522  12.058
75721W        W40948  17.341  21.974   0.030
75722W        W40949  30.862  11.669   1.635
75723W        W40950  32.952  43.029  13.057
75724W        W40951  39.620   6.791  11.653
75725W        W40952  35.663   4.797  13.505
75726W        W40953  28.015  19.280  14.948
75727W        W40954  28.876  25.267   4.116
75728W        W40955  14.985   3.733   3.307
75729W        W40956  25.986  23.637   2.926
75730W        W40957  31.444  19.000   3.172
75731W        W40958  10.297  12.825   4.222
75732W        W40959   3.756   5.513   1.021
75733W        W40960  17.811  19.967  12.890
75734W        W40961  23.741  36.474  14.759
75735W        W40962  30.085   9.586   4.328
75736W        W40963  23.751   3.717   1.232
75737W        W40964   3.957   0.300   3.255
75738W        W40965  27.054  11.103   3.284
75739W        W40966  23.499  22.551  14.630
75740W        W40967  39.021  16.496   1.879
75741W        W40968  14.539  26.687   2.489
75742W        W40969  24.824  36.222  13.844
75743W        W40970  24.648  40.907  13.062
75744W        W40971  39.843  15.508  12.545
75745W        W40972   7.661  17.662   0.743
75746W        W40973  40.822  32.789   3.425
75747W        W40974   0.963  31.458   2.326
75748W        W40975   0.822   8.604  11.926
75749W        W40976  18.598   6.450  14.687
75750W        W40977  33.088  32.453  10.997
75751W        W40978   3.864   2.500  13.687
75752W        W40979  28.093  11.548   3.632
75753W        W40980  36.421   0.082   3.991
75754W        W40981   0.828  42.951  12.889
75755W        W40982  15.256  30.664   2.340
75756W        W40983  11.314  22.068  13.135
75757W        W40984  41.369  14.719  11.524
75758W        W40985  27.560  19.729   2.810
75759W        W40986  35.600   7.372  11.213
75760W        W40987  36.565  14.638   2.788
75761W        W40988  31.663  12.107  13.469
75762W        W40989  44.717  13.674  13.006
75763W        W40990   5.559  11.811  12.708
75764W        W40991  44.035   9.367   1.483
75765W        W40992  10.178  16.128  14.266
75766W        W40993  16.227  26.836  13.056
75767W        W40994  15.863   6.941   3.565
75768W        W40995  43.375   3.510  13.655
75769W        W40996  33.119   2.249   2.940
75770W        W40997  40.022  39.994  12.666
75771W        W40998   6.902   6.981   2.865
75772W        W40999   5.817  38.416  14.529
75773W        W41000  37.541  39.881  10.814
75774W        W41001  10.886   7.703   2.217
75775W        W41002  18.199  33.526  13.554
75776W        W41003  23.045  28.148   3.911
75777W        W41004  19.571  16.455   1.840
75778W        W41005  30.221  22.902  12.397
75779W        W41006   6.862  36.504   2.841
75780W        W41007  27.099  27.518   3.817
75781W        W41008   9.201  38.936   4.375
75782W        W41009  26.203  13.373  14.819
75783W        W41010  36.712  28.438   5.013
75784W        W41011   3.358  18.809  13.020
75785W        W41012  19.725  44.190   0.977
75786W        W41013   2.215   9.310   2.744
75787W        W41014  29.659   6.057  11.994
75788W        W41015   6.177  38.083  12.892
75789W        W41016  29.055  13.081   3.677
75790W        W41017  41.887   4.725  14.660
75791W        W41018   6.180  43.466  11.648
75792W        W41019  37.868  20.236  11.024
75793W        W41020  24.708  34.369  14.808
75794W        W41021  35.134  34.641   5.093
75795W        W41022  23.157   3.137   0.365
75796W        W41023  37.611  22.740   0.424
75797W        W41024  43.550  32.609   4.647
75798W        W41025  41.993   6.349  13.582
75799W        W41026   3.196  12.818   4.148
75800W        W41027  37.321   3.266  14.462
75801W        W41028  44.995  27.782  12.507
75802W        W41029  28.444  18.786   2.438
75803W        W41030  33.077  11.894  13.943
75804W        W41031   8.206  22.596  12.490
75805W        W41032  44.842   9.707   1.681
75806W        W41033  17.197   6.769  14.739
75807W        W41034  28.178  38.298   2.605
75808W        W41035  26.953  41.057   3.553
75809W        W41036  34.902  22.790  11.186
75810W        W41037   5.322  21.294   3.709
75811W        W41038  41.325  28.645  13.313
75812W        W41039   8.641  11.126  14.838
75813W        W41040  35.192  20.627  11.098
75814W        W41041  24.605  10.127   4.369
75815W        W41042  33.023  17.340  12.417
75816W        W41043   5.234  33.234  14.404
75817W        W41044  11.814  36.133   3.188
75818W        W41045   5.638   0.149  12.998
75819W        W41046  11.634  43.565   4.644
75820W        W41047  22.640   1.749   1.756
75821W        W41048  22.674  26.698  11.191
75822W        W41049   3.796  36.307   2.368
75823W        W41050  26.926   8.715  14.072
75824W        W41051   5.309   6.826  10.528
75825W        W41052   1.015   4.417  11.581
75826W        W41053  31.701  32.484  11.098
75827W        W41054  18.939  15.527   1.949
75828W        W41055  27.495   0.340   3.452
75829W        W41056  44.125  22.772   1.961
75830W        W41057  40.856  20.344  13.947
75831W        W41058  28.742   8.317  12.357
75832W        W41059   5.184   2.739   3.130
75833W        W41060  24.075  21.653   4.816
75834W        W41061  39.970  33.057   4.273
75835W        W41062  30.220   3.816  11.184
75836W        W41063  42.237  20.970  13.152
75837W        W41064  30.815  31.724   5.272
75838W        W41065   6.310  36.754   3.979
75839W        W41066   6.384   7.870  13.326
75840W        W41067  44.121  41.357   1.793
75841W        W41068  12.231  12.384   4.203
75842W        W41069  18.859  18.507   4.063
75843W        W41070  23.524   4.177   1.308
75844W        W41071  34.153  24.163   1.345
75845W        W41072  26.154  43.029  11.320
75846W        W41073  30.022   0.906   2.628
75847W        W41074   5.866  38.437   1.041
75848W        W41075  39.267  26.963  10.623
75849W        W41076  12.330  29.581   4.478
75850W        W41077  24.114  31.243   1.221
75851W        W41078  24.591  10.401   1.436
75852W        W41079  12.119  10.657  11.615
75853W        W41080  31.781  14.804   2.394
75854W        W41081  13.441  26.736   3.162
75855W        W41082   3.938   6.710   4.666
75856W        W41083   7.755  11.164   2.348
75857W        W41084  13.833   8.695   4.268
75858W        W41085  25.229   5.901  14.941
75859W        W41086  12.805  41.088  13.924
75860W        W41087   3.203   2.422  13.042
75861W        W41088  32.886  19.746  11.656
75862W        W41089  11.981  13.273   3.277
75863W        W41090  25.266  43.322   0.385
75864W        W41091  27.025  12.352  13.165
75865W        W41092   4.631   7.383   0.870
75866W        W41093  11.784  37.790  12.462
75867W        W41094  33.276  38.451  13.747
75868W        W41095  19.568   7.888  11.254
75869W        W41096   6.102  43.518   9.786
75870W        W41097  27.555  40.373   3.043
75871W        W41098  14.400  22.270  13.855
75872W        W41099  14.185  41.707   1.366
75873W        W41100  27.208  10.278  11.977
75874W        W41101  32.062  40.886  12.177
75875W        W41102  13.118  11.310  10.690
75876W        W41103  44.400  41.252   4.600
75877W        W41104  33.997  16.177  11.693
75878W        W41105  17.067  18.604   3.873
75879W        W41106   0.836  41.728   3.760
75880W        W41107  44.737   0.871   3.714
75881W        W41108  32.003  24.222   0.821
75882W        W41109  20.176  23.898  11.158
75883W        W41110  15.743  33.939  12.493
75884W        W41111  15.812  30.581   4.667
75885W        W41112  17.128   4.718  11.652
75886W        W41113  31.598  42.494  12.023
75887W        W41114  20.277  38.438  12.195
75888W        W41115   5.786  18.355  12.722
75889W        W41116   8.144  29.505   1.636
75890W        W41117   7.204   0.696   3.560
75891W        W41118  27.753  27.179   4.052
75892W        W41119  31.060  20.734   0.221
75893W        W41120   6.880  30.019   1.881
75894W        W41121  24.436  32.272   0.514
75895W        W41122  25.155  32.480  12.898
75896W        W41123  43.395  41.858   1.744
75897W        W41124   9.043  42.906   0.400
75898W        W41125  43.728  42.786  13.511
75899W        W41126  25.339  12.130  12.409
75900W        W41127  17.194  39.320   2.766
75901W        W41128  36.618   5.741   2.802
75902W        W41129  37.807   3.475  12.893
75903W        W41130  18.723  40.029   2.340
75904W        W41131  28.868  20.361  14.279
75905W        W41132   1.738  23.431  11.177
75906W        W41133   0.005   2.916  11.833
75907W        W41134   9.705  10.579  14.027
75908W        W41135   4.675  28.164   1.721
75909W        W41136   6.430  18.128  11.606
75910W        W41137  44.014   4.274  13.589
75911W        W41138  25.487  22.977  14.484
75912W        W41139   3.849   6.048   1.833
75913W        W41140  39.370  33.035   2.104
75914W        W41141  38.657  25.104   3.622
75915W        W41142  18.254  11.623   2.129
75916W        W41143  17.242   9.950  11.645
75917W        W41144   1.932  26.147   2.700
75918W        W41145  22.172   6.391  14.932
75919W        W41146   3.324  20.746  12.722
75920W        W41147  28.734  13.838   4.662
75921W        W41148  22.538  23.341  10.754
75922W        W41149  35.511  16.268   2.312
75923W        W41150  14.518  22.551  13.418
75924W        W41151  18.140  37.046  10.699
75925W        W41152   4.919  39.439   4.296
75926W        W41153   4.306  22.972  13.859
75927W        W41154  44.084  35.522   4.084
75928W        W41155   7.785  19.725  11.012
75929W        W41156  32.139  22.007  12.415
75930W        W41157  25.758   5.908  12.530
75931W        W41158  23.800   2.916   4.220
75932W        W41159   1.757  40.951  11.146
75933W        W41160  32.654  37.431   2.617
75934W        W41161  37.827  26.983  13.845
75935W        W41162   7.847  27.342   3.610
75936W        W41163  15.914  16.847   0.911
75937W        W41164   4.715   6.435   2.916
75938W        W41165  25.245  43.126   4.545
75939W        W41166  22.499  19.738  14.845
75940W        W41167  22.950  11.151   2.388
75941W        W41168  12.880  13.412  13.496
75942W        W41169  28.197  12.776  13.138
75943W        W41170  31.999  10.547  10.887
75944W        W41171  29.938  16.739  10.502
75945W        W41172  12.264  18.060  12.522
75946W        W41173  43.292  40.989  12.539
75947W        W41174  15.612  28.853  13.893
75948W        W41175   5.354  27.127   0.292
75949W        W41176  22.996  43.533  14.330
75950W        W41177  15.630  12.195  14.967
75951W        W41178   4.264   6.264   3.156
75952W        W41179  14.301  29.669  11.077
75953W        W41180  31.693  35.166   4.086
75954W        W41181  23.659  35.503   1.193
75955W        W41182  28.743  39.351  14.970
75956W        W41183  10.800  13.835  14.955
75957W        W41184  30.914  27.104   1.490
75958W        W41185  21.607  20.210  14.867
75959W        W41186  23.548  42.601  10.830
75960W        W41187   0.302  11.412  13.329
75961W        W41188  24.219  38.138  12.950
75962W        W41189  40.406  21.065   3.684
75963W        W41190  37.454  35.136   3.615
75964W        W41191  23.609  11.080   3.208
75965W        W41192  37.528   9.972  13.492
75966W        W41193  12.059  22.108  12.582
75967W        W41194  31.307  31.738  14.830
75968W        W41195  28.088  11.807   0.386
75969W        W41196  20.682  33.505  14.535
75970W        W41197   4.665   8.196  11.159
75971W        W41198   8.774  32.564  14.049
75972W        W41199  40.246  35.443  13.867
75973W        W41200  11.676  27.617  10.736
75974W        W41201  23.307  37.507   3.646
75975W        W41202  42.341  38.529  13.437
75976W        W41203  31.143  37.098  13.577
75977W        W41204  25.764  43.947   4.252
75978W        W41205   4.647  25.198  14.792
75979W        W41206   3.410  11.315  14.131
75980W        W41207  19.731  40.552  13.980
75981W        W41208  22.563   7.825   4.499
75982W        W41209  29.630  12.240  13.460
75983W        W41210   9.881   1.405   0.249
75984W        W41211  22.980  32.381  12.104
75985W        W41212  42.403  35.628   0.450
75986W        W41213  38.343  28.599  14.944
75987W        W41214   6.393  37.327   3.949
75988W        W41215   2.528  22.774   0.850
75989W        W41216  15.500  13.900  12.336
75990W        W41217   1.238  27.175  11.178
75991W        W41218   5.463  25.990   1.660
75992W        W41219  42.188  25.171  10.328
75993W        W41220  36.979  34.445   0.441
75994W        W41221   9.588   4.659   1.829
75995W        W41222  18.963  30.586   3.596
75996W        W41223  33.849  37.962  12.029
75997W        W41224  22.006  12.456  12.463
75998W        W41225   6.415  11.565  12.483
75999W        W41226   9.690  41.331   3.198
76000W        W41227  10.844   3.372  14.963
76001W        W41228  44.306  37.026   3.549
76002W        W41229  44.281  38.764   4.265
76003W        W41230   4.209  13.722  14.482
76004W        W41231  19.225  12.168   3.696
76005W        W41232   9.228  26.975   3.916
76006W        W41233  29.797  35.262   0.714
76007W        W41234  27.668   9.199   1.243
76008W        W41235  40.769   8.943  12.847
76009W        W41236  18.932  17.180   0.873
76010W        W41237  44.270   8.179  12.051
76011W        W41238  23.414  10.266  12.065
76012W        W41239  19.072  33.049   1.739
76013W        W41240  10.847  37.549   2.384
76014W        W41241  11.657   7.947   4.356
76015W        W41242  28.204  36.649   3.208
76016W        W41243  14.786  30.724  12.923
76017W        W41244  12.126  22.996  11.651
76018W        W41245  15.342  21.256  11.138
76019W        W41246  39.775  15.001   3.793
76020W        W41247   1.819   1.708   3.863
76021W        W41248   2.827   3.237   2.332
76022W        W41249  24.689   4.822  12.151
76023W        W41250  29.023  30.792  11.714
76024W        W41251  30.481  35.016   4.220
76025W        W41252  32.584  10.655   3.550
76026W        W41253  20.657  35.312  14.931
76027W        W41254  16.488  40.068  11.673
76028W        W41255   3.916  22.465  13.218
76029W        W41256  15.345  11.578   2.238
76030W        W41257   2.143  20.481  11.885
76031W        W41258  30.847  12.561   2.690
76032W        W41259  24.975   5.148  11.239
76033W        W41260   0.300  37.269   1.786
76034W        W41261  22.179  41.239  13.377
76035W        W41262  20.625   8.244  12.797
76036W        W41263  10.736  22.242  12.929
76037W        W41264  39.024  18.238  14.395
76038W        W41265   0.893  30.165   4.118
76039W        W41266  32.572   4.760   0.731
76040W        W41267  24.684  12.559  12.044
76041W        W41268  41.481  44.385   2.874
76042W        W41269  17.628  27.871   2.779
76043W        W41270  34.994  26.578  10.970
76044W        W41271  18.063  38.288  14.451
76045W        W41272  16.175  10.081   1.299
76046W        W41273  13.100  21.555  14.023
76047W        W41274  35.859  36.343  11.432
76048W        W41275   2.230   1.452   4.085
76049W        W41276  38.108   9.797  11.517
76050W        W41277   6.307  35.401   4.535
76051W        W41278  44.425  38.890  11.051
76052W        W41279  19.983  26.055   4.721
76053W        W41280  24.372  43.920  11.191
76054W        W41281  29.719  27.074   0.931
76055W        W41282  39.111  26.087   4.612
76056W        W41283   0.972  11.747   0.919
76057W        W41284  44.882   9.028  12.114
76058W        W41285  43.179  39.961   3.603
76059W        W41286   7.831  29.486  10.419
76060W        W41287   3.725  12.256   3.118
76061W        W41288  29.035  36.013  11.154
76062W        W41289  18.987  34.571  14.033
76063W        W41290  20.591  10.116   2.596
76064W        W41291  30.979  13.627  14.096
76065W        W41292   0.222  42.465   4.129
76066W        W41293  28.006  32.836   3.627
76067W        W41294  39.725  24.555  10.737
76068W        W41295  32.619  34.967   1.422
76069W        W41296  13.097   4.011  14.953
76070W        W41297  42.278  26.759  11.158
76071W        W41298  36.857  25.154   3.620
76072W        W41299   2.874  36.343  14.415
76073W        W41300  43.554  15.589  13.527
76074W        W41301   8.919  23.283  12.402
76075W        W41302  26.548  42.027  11.586
76076W        W41303  24.705  10.614  12.037
76077W        W41304   9.124  41.521  12.680
76078W        W41305  39.597  37.768  14.399
76079W        W41306  12.755  13.044  11.369
76080W        W41307  37.327  22.782  12.581
76081W        W41308  19.656  11.416  12.791
76082W        W41309  34.558   9.920   3.233
76083W        W41310  37.697   1.975  13.336
76084W        W41311  31.226  37.905   1.053
76085W        W41312  44.174  44.807  13.759
76086W        W41313  20.731  34.435   2.745
76087W        W41314  38.365  31.122  14.299
76088W        W41315   3.927  43.234   3.171
76089W        W41316  22.956  10.105  13.533
76090W        W41317   8.196  34.467  14.897
76091W        W41318  30.778  24.564  13.473
76092W        W41319  25.501  38.949   1.169
76093W        W41320   3.251   7.810   4.408
76094W        W41321   7.826  40.689  14.015
76095W        W41322   5.118  15.358   3.526
76096W        W41323  19.276  13.276  14.366
76097W        W41324  44.792  27.518   0.945
76098W        W41325  36.651  22.358  11.198
76099W        W41326  24.508   9.377  14.850
76100W        W41327   8.725  41.247  12.448
76101W        W41328   8.265  37.959   0.410
76102W        W41329  21.676   5.191   3.090
76103W        W41330  15.687  17.801  10.712
76104W        W41331  33.808   5.349  11.470
76105W        W41332  37.740  12.674  12.863
76106W        W41333   8.947  13.307  10.760
76107W        W41334  23.160  44.917   4.890
76108W        W41335  42.096   9.687  12.548
76109W        W41336   5.359  16.310   1.553
76110W        W41337  39.351  38.157  10.847
76111W        W41338  20.627  18.338  13.350
76112W        W41339  30.785  11.605   9.652
76113W        W41340  38.826  35.154   0.299
76114W        W41341  19.280   6.586   0.015
76115W        W41342  25.585   6.548   2.798
76116W        W41343  11.403  38.311   2.237
76117W        W41344  40.449  28.182   3.308
76118W        W41345  11.758  24.000   4.856
76119W        W41346  36.947  20.067   0.336
76120W        W41347   6.317  43.908   1.518
76121W        W41348  12.827  13.965   4.517
76122W        W41349  44.785  10.634  14.687
76123W        W41350  37.483  40.396  12.126
76124W        W41351  41.471  12.066   3.681
76125W        W41352  34.772  28.125  10.034
76126W        W41353  43.144  29.980  14.575
76127W        W41354  16.401  28.708   1.844
76128W        W41355   2.734  33.442   2.396
76129W        W41356  42.487  17.061   4.048
76130W        W41357  27.018  38.970   0.728
76131W        W41358  11.708  11.704  11.170
76132W        W41359  13.578  28.888  12.598
76133W        W41360  27.117  43.312   0.492
76134W        W41361  28.449   6.255   0.837
76135W        W41362  37.005  23.075   2.443
76136W        W41363  32.043  12.611   0.991
76137W        W41364  21.174  39.498   0.767
76138W        W41365   8.755   4.265   2.656
76139W        W41366  29.516  41.735  12.805
76140W        W41367   2.542  23.570   3.934
76141W        W41368  20.387  28.025  13.923
76142W        W41369  42.228  32.363   1.742
76143W        W41370  30.148  25.435   2.723
76144W        W41371  22.554  40.860  10.735
76145W        W41372  31.907   0.469   0.871
76146W        W41373  40.869  11.105   1.993
76147W        W41374  35.981  19.287   1.548
76148W        W41375  10.603  10.139   4.275
76149W        W41376  33.358   2.309   1.371
76150W        W41377  41.354  38.610  13.878
76151W        W41378  28.096  38.835  12.427
76152W        W41379   9.985  32.291   0.972
76153W        W41380  26.906   7.351  12.424
76154W        W41381   2.183  10.731   3.624
76155W        W41382  25.167  31.836  14.334
76156W        W41383  36.807  18.585   1.049
76157W        W41384  26.588  19.506   0.856
76158W        W41385  19.113  11.556  11.186
76159W        W41386  13.028   8.587   4.560
76160W        W41387  35.038   9.108   0.319
76161W        W41388   5.037  13.271  14.474
76162W        W41389  12.576  11.198   2.406
76163W        W41390  41.430  38.651   0.757
76164W        W41391  25.258  36.092   3.172
76165W        W41392  14.995  25.411  12.812
76166W        W41393  38.842  43.016  12.418
76167W        W41394  21.637  15.266   3.198
76168W        W41395   4.515   5.948   3.971
76169W        W41396  38.835   9.446   4.498
76170W        W41397  27.237  22.294  11.136
76171W        W41398  40.453  43.009  13.866
76172W        W41399  18.490   1.981  13.534
76173W        W41400  35.878   4.977  12.630
76174W        W41401  27.900   6.985  14.788
76175W        W41402  36.541  29.034   4.055
76176W        W41403  17.105  20.770   3.711
76177W        W41404   8.982  22.079   3.220
76178W        W41405  25.316  35.387   3.191
76179W        W41406  42.361  21.157   2.233
76180W        W41407  44.128  25.356  12.034
76181W        W41408  34.902  33.164  13.471
76182W        W41409  26.213   7.901  12.083
76183W        W41410  28.661   9.384   3.209
76184W        W41411  15.045   6.264   0.356
76185W        W41412   8.742   5.215  14.783
76186W        W41413  39.982  27.696  13.267
76187W        W41414  41.034  23.086   2.869
76188W        W41415  13.727   7.791  12.078
76189W        W41416  24.102  18.249   4.804
76190W        W41417  14.101  33.879  11.922
76191W        W41418  34.411  10.962   0.236
76192W        W41419   3.810  18.513  11.456
76193W        W41420  31.188  16.517  12.629
76194W        W41421  10.394  24.745  10.848
76195W        W41422  18.636  26.988   1.324
76196W        W41423  10.922  29.907  10.656
76197W        W41424   6.459  18.012   2.228
76198W        W41425  36.840  10.891  10.690
76199W        W41426  31.433  44.711   2.071
76200W        W41427  10.164  36.285  10.209
76201W        W41428   8.131  27.688  10.736
76202W        W41429  17.210   6.483  12.912
76203W        W41430  36.656  33.924   2.123
76204W        W41431   7.243   6.587  12.995
76205W        W41432   8.414  27.151   2.818
76206W        W41433  36.371   3.158   4.293
76207W        W41434  17.602  22.010   3.222
76208W        W41435  29.953  19.369   1.364
76209W        W41436   2.621   3.225   0.460
76210W        W41437  31.447  26.041   0.147
76211W        W41438  37.973   3.449  13.566
76212W        W41439  23.286  33.164   0.846
76213W        W41440  44.530   0.828  14.408
76214W        W41441  41.627   8.030   4.427
76215W        W41442  10.845  21.142  12.071
76216W        W41443   4.406  15.177  12.927
76217W        W41444  18.894  14.105   1.210
76218W        W41445   4.212   3.075  14.036
76219W        W41446  10.253  37.959   2.433
76220W        W41447  42.663  33.358  13.922
76221W        W41448  36.836  11.810  13.370
76222W        W41449  26.452   0.769  13.776
76223W        W41450  21.187  38.927   2.219
76224W        W41451  43.333  37.283   1.920
76225W        W41452  23.567  31.222  11.569
76226W        W41453  33.605  26.873  14.808
76227W        W41454  18.559   3.009   3.114
76228W        W41455  18.126  36.535  10.891
76229W        W41456  33.358  37.662   0.074
76230W        W41457  11.130  37.366   1.231
76231W        W41458  12.030  37.926  14.080
76232W        W41459  35.166  14.282   1.700
76233W        W41460   8.318   5.322  13.450
76234W        W41461  31.273  32.526   2.804
76235W        W41462  43.009   6.959  11.508
76236W        W41463   1.831   5.098   3.774
76237W        W41464   2.099  12.497   3.282
76238W        W41465  27.160  22.216   3.086
76239W        W41466  36.937  18.019   2.702
76240W        W41467  37.128  33.069  12.191
76241W        W41468   3.554  11.732  13.867
76242W        W41469   0.527  31.522  13.720
76243W        W41470  33.898  16.139   2.340
76244W        W41471  21.635   8.044   0.245
76245W        W41472  33.543  30.082  11.011
76246W        W41473  30.126  35.140   1.379
76247W        W41474   8.369   6.842   3.740
76248W        W41475  11.826  42.509   4.544
76249W        W41476  43.932  16.483   2.164
76250W        W41477  22.050  29.122   0.676
76251W        W41478  20.477  44.950  13.464
76252W        W41479  14.254  10.794   1.588
76253W        W41480  42.689  15.131  12.478
76254W        W41481  25.185  26.102  13.352
76255W        W41482  20.656  44.433  12.227
76256W        W41483  14.145  10.606  13.040
76257W        W41484  20.930  43.294  14.412
76258W        W41485  32.412  14.211   0.551
76259W        W41486  29.609  37.856   2.183
76260W        W41487  25.185  27.710  12.953
76261W        W41488  34.680  32.011   2.759
76262W        W41489  30.343  39.891   3.864
76263W        W41490  20.142  42.089  10.835
76264W        W41491  31.299  25.088   2.778
76265W        W41492  28.000   1.036  11.642
76266W        W41493  20.155  23.408  14.256
76267W        W41494   2.989   3.269  12.872
76268W        W41495  23.971   4.517  14.191
76269W        W41496  32.067   6.889   4.248
76270W        W41497  32.571  26.424  14.370
76271W        W41498  43.847  26.504   1.190
76272W        W41499   8.474   7.336   4.307
76273W        W41500   1.300  25.972   4.989
76274W        W41501  24.921  14.737  14.360
76275W        W41502  21.809  43.728   0.221
76276W        W41503  17.140  12.897  12.659
76277W        W41504  38.514   4.360   5.041
76278W        W41505  25.211  41.384  14.543
76279W        W41506  36.074   6.352  13.656
76280W        W41507  17.051   9.317   0.680
76281W        W41508  43.735  31.083   4.479
76282W        W41509  36.282  21.564  11.377
76283W        W41510  40.770  40.908  13.345
76284W        W41511  24.048  22.938   1.368
76285W        W41512  39.253  30.788   0.729
76286W        W41513  36.707  33.848  13.576
76287W        W41514   7.382  11.153  11.527
76288W        W41515   1.353  22.216  14.291
76289W        W41516  18.832  33.434   1.467
76290W        W41517  42.565  31.811  10.307
76291W        W41518   1.427  30.063  13.249
76292W        W41519   8.339  26.472  13.982
76293W        W41520   6.993  24.449  10.882
76294W        W41521  11.082  22.975  13.409
76295W        W41522   1.480  10.827   0.533
76296W        W41523  34.726  30.728   4.822
76297W        W41524  15.662  22.733   1.400
76298W        W41525   6.743  41.887   4.566
76299W        W41526  25.070  15.243  14.341
76300W        W41527  21.066  44.969  11.149
76301W        W41528  44.981  22.667   1.678
76302W        W41529  35.380  20.696  14.007
76303W        W41530  35.146  31.622  14.464
76304W        W41531  33.464  41.523  11.617
76305W        W41532   6.443  17.544  14.806
76306W        W41533  22.293  36.599   3.726
76307W        W41534  35.638  41.020  11.132
76308W        W41535   4.141  39.879   2.712
76309W        W41536  39.390  38.015  11.862
76310W        W41537  11.311  43.322  13.476
76311W        W41538  33.618  28.475   1.363
76312W        W41539  12.757  29.447   1.938
76313W        W41540  30.044  18.339   1.410
76314W        W41541  26.461  43.066   1.716
76315W        W41542   6.314   6.906   3.372
76316W        W41543  20.490  17.664   4.899
76317W        W41544  31.069  17.601  11.209
76318W        W41545  42.895  24.097  12.193
76319W        W41546   1.882  35.616  11.443
76320W        W41547  44.444  31.532   4.990
76321W        W41548  27.900  12.738  12.443
76322W        W41549  22.093  24.744   2.189
76323W        W41550   7.771   5.238   0.809
76324W        W41551   9.910  11.892   2.753
76325W        W41552  37.964  43.072  12.372
76326W        W41553  13.210   2.546   0.929
76327W        W41554  42.473  14.269   0.902
76328W        W41555   1.866  27.560   2.232
76329W        W41556  43.746  36.068   0.318
76330W        W41557  33.011  27.047   3.175
76331W        W41558   9.889  23.004   4.227
76332W        W41559   8.312  43.292   0.526
76333W        W41560   0.229  37.459   4.129
76334W        W41561  29.008  14.587   0.402
76335W        W41562   0.259   8.654  14.328
76336W        W41563  33.061   2.863   4.894
76337W        W41564  36.045  24.824  12.833
76338W        W41565  35.086  27.913  12.536
76339W        W41566  39.955  40.981  13.800
76340W        W41567  25.818  44.256  13.048
76341W        W41568  27.168  13.690  13.018
76342W        W41569   2.262   2.353   4.460
76343W        W41570  17.786  19.035   1.869
76344W        W41571  24.767  21.925  12.300
76345W        W41572  13.222   4.340   2.904
76346W        W41573  20.314   2.343   3.121
76347W        W41574   5.385  25.100   4.221
76348W        W41575  24.648   8.928  11.562
76349W        W41576  37.407  43.189  12.557
76350W        W41577  40.083  32.095  14.302
76351W        W41578   2.789   3.955  12.564
76352W        W41579  19.726  17.888  12.551
76353W        W41580  43.055  13.320   0.227
76354W        W41581   3.180  37.918  11.159
76355W        W41582  35.573  18.113   2.357
76356W        W41583   2.892  37.513  12.089
76357W        W41584   5.767  23.581  14.505
76358W        W41585  38.039  17.038   3.673
76359W        W41586  34.194  34.511   3.605
76360W        W41587  41.717  14.834  10.613
76361W        W41588  34.373  36.044   1.787
76362W        W41589  41.230  33.325   0.271
76363W        W41590   8.363  30.323  11.590
76364W        W41591  32.119  14.277   9.717
76365W        W41592   6.354  19.250   0.089
76366W        W41593  22.212  10.156  12.504
76367W        W41594  13.131  11.494   4.433
76368W        W41595  21.991  22.984   0.934
76369W        W41596  33.356  25.658   2.193
76370W        W41597   6.704   3.425   2.681
76371W        W41598  32.862  38.577   4.170
76372W        W41599   5.554  10.310  10.155
76373W        W41600  37.641  43.987   4.130
76374W        W41601  20.912  24.209  10.723
76375W        W41602   2.285  11.019   4.048
76376W        W41603  14.268  13.908  14.389
76377W        W41604  36.348  42.531  13.930
76378W        W41605  41.866  23.169   0.800
76379W        W41606  43.303  17.085  11.520
76380W        W41607  13.711  21.201   3.217
76381W        W41608  21.073   3.633  13.003
76382W        W41609  21.025  22.079  11.589
76383W        W41610   5.292  38.879  11.433
76384W        W41611  23.065  44.018  13.934
76385W        W41612  32.847  27.434  14.441
76386W        W41613   7.744   3.441   2.161
76387W        W41614  24.609  35.365  13.815
76388W        W41615   7.634   9.546   3.998
76389W        W41616  11.851  25.404   3.165
76390W        W41617   2.815  14.328  13.014
76391W        W41618  22.109   9.855   3.087
76392W        W41619  35.226  28.454  11.939
76393W        W41620   0.758  22.156  12.470
76394W        W41621  43.090   7.713   4.326
76395W        W41622   7.104  24.130   4.986
76396W        W41623  24.057  34.640   4.853
76397W        W41624  44.229  39.463  14.262
76398W        W41625  29.229  42.877   4.618
76399W        W41626  17.567  31.535  14.474
76400W        W41627  17.523   6.053   4.624
76401W        W41628  17.079  21.604   0.696
76402W        W41629  29.168  30.129   4.057
76403W        W41630   5.207  34.330  11.046
76404W        W41631  19.131  23.775  11.368
76405W        W41632  36.486   3.985   4.456
76406W        W41633  23.923  25.450   4.340
76407W        W41634  13.481  24.245   1.953
76408W        W41635   8.056  29.216   3.133
76409W        W41636   9.056  44.466  11.972
76410W        W41637   6.619  36.805  14.610
76411W        W41638  17.659  30.197   2.136
76412W        W41639  25.485  31.033   1.402
76413W        W41640  26.975  39.839   2.806
76414W        W41641  28.986   3.507   4.151
76415W        W41642  37.486  29.519  12.052
76416W        W41643  15.240   3.800   0.812
76417W        W41644   8.300  43.019  12.061
76418W        W41645  12.232  44.959   3.921
76419W        W41646  33.676   2.665  13.802
76420W        W41647  26.247   2.523   1.873
76421W        W41648  23.065  29.531  10.393
76422W        W41649   9.476  28.249   0.930
76423W        W41650  11.243  44.349   4.756
76424W        W41651  42.003  43.863  11.907
76425W        W41652  23.240  30.676   0.112
76426W        W41653  15.796  25.240  11.509
76427W        W41654  10.819  21.750   4.562
76428W        W41655  17.317   6.336  10.331
76429W        W41656  36.067  20.454  14.036
76430W        W41657  28.593  22.148  14.920
76431W        W41658  43.775  27.605  10.612
76432W        W41659  10.408  39.547   3.167
76433W        W41660  31.194  10.114  14.012
76434W        W41661  30.918  36.605   0.766
76435W        W41662  34.423   5.607   3.132
76436W        W41663  34.774  44.828   3.815
76437W        W41664  12.837  39.602  14.509
76438W        W41665  35.563  17.162  13.759
76439W        W41666  14.604  11.589  12.106
76440W        W41667  40.516   4.312  12.882
76441W        W41668  21.189   2.495   4.432
76442W        W41669  32.253  21.742   3.261
76443W        W41670  11.878  35.226   1.747
76444W        W41671  39.202  21.479   4.125
76445W        W41672   3.542  12.747   3.172
76446W        W41673  12.678  18.075  13.868
76447W        W41674  14.803  39.062  10.852
76448W        W41675  20.146  18.857   2.650
76449W        W41676  31.872  27.491   2.220
76450W        W41677  11.658   2.380   0.411
76451W        W41678  40.791   9.323   3.445
76452W        W41679  25.267  40.630   1.045
76453W        W41680  14.774  18.822   3.188
76454W        W41681  11.830  37.638  12.973
76455W        W41682   8.175   6.319  12.713
76456W        W41683  31.345  18.840   4.131
76457W        W41684   2.319  15.550   4.676
76458W        W41685   2.352   9.802  14.317
76459W        W41686  13.917  16.759   1.813
76460W        W41687  10.404  12.656   0.901
76461W        W41688  32.116   7.464  12.107
76462W        W41689  43.657   2.855  14.746
76463W        W41690  42.048  38.130   0.883
76464W        W41691  40.391  28.655  13.292
76465W        W41692  33.707  25.057  12.841
76466W        W41693  42.248   0.841  13.906
76467W        W41694   9.953  10.650  11.200
76468W        W41695  41.430   0.730  14.389
76469W        W41696  33.440  41.501   3.072
76470W        W41697  26.924  43.844  11.068
76471W        W41698  34.283  32.137   4.579
76472W        W41699  39.562  20.592   3.298
76473W        W41700   2.462  33.485  10.734
76474W        W41701  43.799  36.480  12.927
76475W        W41702  37.870   3.887  12.511
76476W        W41703  26.088  35.862   0.693
76477W        W41704  31.103   9.269   2.046
76478W        W41705  13.022   8.714  10.504
76479W        W41706  27.058  15.185  13.283
76480W        W41707   2.038  29.559  12.179
76481W        W41708  18.480  10.151   1.792
76482W        W41709   4.736  30.806   5.151
76483W        W41710  24.711   5.686   4.173
76484W        W41711  40.919  15.616   4.049
76485W        W41712  13.372  11.174  12.917
76486W        W41713  26.529  24.265  11.600
76487W        W41714  19.477  31.488   2.290
76488W        W41715  38.994  36.726  12.939
76489W        W41716  18.614  19.730   3.639
76490W        W41717  40.920  38.074  14.613
76491W        W41718  24.413  22.345   1.735
76492W        W41719  19.016  36.479  10.942
76493W        W41720   8.521  33.142  10.987
76494W        W41721  24.691  18.651  13.302
76495W        W41722  36.280  42.433  11.315
76496W        W41723  31.525  17.348   1.660
76497W        W41724  29.471  36.841   0.986
76498W        W41725  10.583   3.811   3.584
76499W        W41726  23.397  44.692   3.593
76500W        W41727  13.057  12.563  11.980
76501W        W41728  30.133  10.676  11.540
76502W        W41729  35.978  28.555   2.878
76503W        W41730  20.540  24.439   2.186
76504W        W41731   5.834  42.174  12.315
76505W        W41732   1.779  30.602   0.473
76506W        W41733  25.184  32.206   0.242
76507W        W41734  21.183   8.593  11.971
76508W        W41735  11.321  30.039   2.843
76509W        W41736  30.885  12.651   0.631
76510W        W41737  39.418  43.039   3.112
76511W        W41738  13.827   0.009   3.805
76512W        W41739  31.052   6.129   0.519
76513W        W41740  16.000  37.119   5.045
76514W        W41741  35.050   9.303   3.623
76515W        W41742  24.684  17.557   2.257
76516W        W41743  10.917  41.342   1.787
76517W        W41744  12.109   6.841   1.504
76518W        W41745  40.285   2.862  14.428
76519W        W41746   6.249  16.006   0.408
76520W        W41747  25.855  14.095   9.871
76521W        W41748  27.666  38.120   5.064
76522W        W41749  29.670   5.890   1.700
76523W        W41750  24.324  17.921  13.802
76524W        W41751  36.893  19.068   0.412
76525W        W41752  29.988  27.753  14.301
76526W        W41753  29.572  43.868   5.000
76527W        W41754   1.187   1.835  12.506
76528W        W41755  21.039  31.863  12.826
76529W        W41756  39.432  38.086  12.757
76530W        W41757  29.484   1.839  11.508
76531W        W41758  10.807  23.293  13.104
76532W        W41759  21.994  44.944  11.162
76533W        W41760   9.897  41.167  10.062
76534W        W41761  32.346  26.196  13.558
76535W        W41762  44.566   2.657  11.109
76536W        W41763  31.425  40.375   4.245
76537W        W41764   9.318  19.342   2.135
76538W        W41765  33.341   4.300  13.010
76539W        W41766   8.562  30.628   4.254
76540W        W41767  21.544   3.216  12.478
76541W        W41768  33.975   6.881   0.205
76542W        W41769   6.932  14.510   3.492
76543W        W41770  27.258  17.594  11.125
76544W        W41771  35.255  44.845   2.988
76545W        W41772  26.962  32.950   0.856
76546W        W41773  14.631  22.026  10.755
76547W        W41774  40.303  29.251   4.130
76548W        W41775  26.062  34.164   3.745
76549W        W41776   7.820   8.543   3.236
76550W        W41777  32.858  40.273  12.800
76551W        W41778  12.991  32.846   1.431
76552W        W41779  19.597  43.070   4.586
76553W        W41780  17.503  36.033  12.995
76554W        W41781  26.507   0.071  13.175
76555W        W41782   6.840  33.513  12.724
76556W        W41783   3.737  21.072   0.548
76557W        W41784   9.670  20.029   0.009
76558W        W41785   8.592   7.722  12.031
76559W        W41786  15.058  26.940  14.477
76560W        W41787   9.666   2.910  12.106
76561W        W41788  41.780  37.719  11.108
76562W        W41789  22.310   1.978  12.356
76563W        W41790  16.715  17.654   0.230
76564W        W41791  28.711  27.612   3.929
76565W        W41792  42.598  21.717   0.968
76566W        W41793  40.906  39.928   3.977
76567W        W41794  36.633  21.548   0.697
76568W        W41795  22.237  20.450  11.304
76569W        W41796   4.773  21.555  11.872
76570W        W41797  24.203  35.588   1.223
76571W        W41798  12.291  44.975  13.126
76572W        W41799  43.110  14.735   3.570
76573W        W41800  16.773  34.556  13.973
76574W        W41801  41.934  26.587  10.765
76575W        W41802  24.796  30.660   0.843
76576W        W41803  23.565  30.420   3.047
76577W        W41804  43.695  30.529   2.230
76578W        W41805  27.227  24.427  14.855
76579W        W41806  18.831   8.457   4.348
76580W        W41807  20.973  17.040   0.779
76581W        W41808  20.014  23.007   4.638
76582W        W41809   2.103  10.750  11.120
76583W        W41810  18.321  35.416  12.255
76584W        W41811  26.606  43.104   2.716
76585W        W41812  32.543  28.703   0.898
76586W        W41813   3.389  31.120  10.495
76587W        W41814  44.309  21.320   4.556
76588W        W41815  28.661  33.925  14.998
76589W        W41816  14.650  44.804  11.997
76590W        W41817   3.935  14.156  11.576
76591W        W41818   9.649  17.177  11.595
76592W        W41819  39.964  19.151  14.172
76593W        W41820  37.403  24.473   4.090
76594W        W41821  39.966   5.974   1.887
76595W        W41822  30.512  33.507  12.492
76596W        W41823   0.265  23.649   3.843
76597W        W41824  32.073  24.266   3.741
76598W        W41825  31.165  35.667   9.869
76599W        W41826  33.120   9.949  13.835
76600W        W41827  11.218  18.478  10.886
76601W        W41828  33.252  23.005  11.408
76602W        W41829  10.085  37.990  14.405
76603W        W41830  16.680  21.641   4.180
76604W        W41831   2.461  42.010   9.366
76605W        W41832  18.131  21.939  12.519
76606W        W41833  38.067  28.572  10.456
76607W        W41834  43.079  19.142  12.119
76608W        W41835  12.355  17.588   4.232
76609W        W41836   5.722  34.621   4.101
76610W        W41837   2.266   1.945  13.117
76611W        W41838  20.079  39.550   0.042
76612W        W41839  32.711  22.044  12.034
76613W        W41840  37.289  33.105   1.302
76614W        W41841  15.828   8.302  13.357
76615W        W41842  32.366  32.455  13.901
76616W        W41843  13.752   0.564  12.024
76617W        W41844   1.649  17.986  14.545
76618W        W41845  16.078  20.464  14.960
76619W        W41846  17.676  15.182  12.684
76620W        W41847  31.572  20.286   2.569
76621W        W41848  39.300   8.761   3.678
76622W        W41849  22.883  37.355  12.480
76623W        W41850  42.357  34.470   1.944
76624W        W41851   6.912  23.531  13.558
76625W        W41852  14.404  37.579   1.655
76626W        W41853  21.284  10.249  12.827
76627W        W41854  20.040  21.371   4.291
76628W        W41855  34.427  14.001  14.782
76629W        W41856   3.025   8.808   9.928
76630W        W41857  21.812  15.550   4.161
76631W        W41858   4.589  41.135  12.006
76632W        W41859   1.834  22.705  14.468
76633W        W41860  16.474  25.977  13.056
76634W        W41861  43.414  25.019  14.425
76635W        W41862  29.117  15.103  12.255
76636W        W41863  16.681  16.163   3.034
76637W        W41864  12.917  40.619   3.608
76638W        W41865  42.775  43.898  11.495
76639W        W41866  17.747  33.388  14.253
76640W        W41867  30.033   7.473   4.875
76641W        W41868  43.593  17.734  12.098
76642W        W41869  23.275  36.074   2.232
76643W        W41870  15.714  20.835  13.053
76644W        W41871  40.523  41.481   2.839
76645W        W41872  32.959  40.431  11.078
76646W        W41873  23.318  11.068   2.768
76647W        W41874  27.974  21.261  13.497
76648W        W41875   5.285  44.107  10.126
76649W        W41876  37.545   2.201   3.283
76650W        W41877   7.253  11.582  13.881
76651W        W41878  16.162  11.777  12.830
76652W        W41879  40.932   1.503  13.718
76653W        W41880  17.374  14.115   2.202
76654W        W41881  15.717  31.607  11.988
76655W        W41882   0.994  32.813   1.346
76656W        W41883  25.972  12.122   0.351
76657W        W41884  14.089  14.605  12.105
76658W        W41885  41.035  30.996  13.346
76659W        W41886  26.534  22.852   4.597
76660W        W41887  19.695  21.038   4.760
76661W        W41888   8.969   7.662   2.095
76662W        W41889  12.294  32.737   0.332
76663W        W41890  16.555  41.889  11.589
76664W        W41891  42.387  43.412   0.958
76665W        W41892  37.084  11.947   0.715
76666W        W41893  13.905  12.875   4.001
76667W        W41894  38.856  15.719   0.461
76668W        W41895  27.118  24.895   0.925
76669W        W41896  31.467  12.816  14.936
76670W        W41897  43.865  35.043  11.166
76671W        W41898   9.219  20.675   4.812
76672W        W41899   1.279   4.995  10.816
76673W        W41900  35.630  17.125  13.251
76674W        W41901  30.418  41.550  10.322
76675W        W41902  39.978   6.284   1.461
76676W        W41903  13.774  20.798  13.817
76677W        W41904  11.844  33.652   3.730
76678W        W41905  44.699  11.164   3.238
76679W        W41906  37.956  34.305  11.945
76680W        W41907   6.370  36.373   1.757
76681W        W41908  27.950  29.217   2.136
76682W        W41909  36.070  41.983  11.221
76683W        W41910   8.103  43.800   0.373
76684W        W41911  27.467  36.427  14.270
76685W        W41912  28.494   4.853   2.342
76686W        W41913  19.605  25.601   3.816
76687W        W41914  32.157   6.154   3.663
76688W        W41915   3.990  20.162   2.393
76689W        W41916  32.990  14.172  12.467
76690W        W41917  43.945  14.649  12.606
76691W        W41918  20.555  37.310   0.826
76692W        W41919   5.824  33.583  12.636
76693W        W41920  14.807  35.461  12.817
76694W        W41921  18.046  10.096  12.931
76695W        W41922  18.224  44.239  12.965
76696W        W41923  18.496   5.725  13.780
76697W        W41924  22.485   3.415  12.638
76698W        W41925   8.629  42.414   3.787
76699W        W41926  42.258  21.500  14.457
76700W        W41927  19.597  29.195   1.822
76701W        W41928  24.327  42.040  10.287
76702W        W41929   3.344  42.461  12.864
76703W        W41930  32.676   5.287  14.893
76704W        W41931   5.196  30.238   2.677
76705W        W41932  43.339   0.215  11.297
76706W        W41933  40.380  30.549   1.303
76707W        W41934  14.755  27.174  12.732
76708W        W41935  28.523  41.978   4.434
76709W        W41936  10.183   0.452  10.764
76710W        W41937  43.408  31.527   1.801
76711W        W41938  10.281   9.394   3.117
76712W        W41939   4.452  25.034  13.420
76713W        W41940  15.707  25.718   3.240
76714W        W41941   1.333  41.433   4.330
76715W        W41942  40.245  26.711  14.529
76716W        W41943  17.207   2.203  14.529
76717W        W41944  23.478  40.389  11.590
76718W        W41945  35.962  40.986   1.361
76719W        W41946  12.782   7.953  13.985
76720W        W41947  29.125  35.513  13.539
76721W        W41948  29.923  36.116   2.901
76722W        W41949  16.601   1.198   1.576
76723W        W41950  36.959  30.118  11.539
76724W        W41951   8.448  22.255   4.711
76725W        W41952  20.523   0.891  13.962
76726W        W41953  26.975  14.719  12.988
76727W        W41954  37.114  22.349  14.482
76728W        W41955  18.742  22.035  10.794
76729W        W41956  34.548  31.691  10.680
76730W        W41957  38.003  44.882  12.840
76731W        W41958  43.445  34.408  14.483
76732W        W41959  10.867  14.098   1.337
76733W        W41960  27.208   2.776  14.917
76734W        W41961  39.121   5.315  13.869
76735W        W41962   2.605  24.643  12.866
76736W        W41963  31.072  43.605   1.877
76737W        W41964  16.228   4.250   3.252
76738W        W41965  13.710  40.304   1.907
76739W        W41966  21.598  40.308  14.241
76740W        W41967  11.822  14.645  12.660
76741W        W41968  22.218   6.270   3.130
76742W        W41969   3.407  42.028   1.744
76743W        W41970  27.518   2.476   2.641
76744W        W41971  21.312  12.794  13.786
76745W        W41972  33.439  10.221   2.906
76746W        W41973  14.246  40.783   1.338
76747W        W41974   6.802   6.083   3.164
76748W        W41975  22.498  28.611  10.820
76749W        W41976  34.514  29.313   4.087
76750W        W41977  40.005  42.934  10.618
76751W        W41978  25.947  44.514   2.655
76752W        W41979  11.119  11.606  12.953
76753W        W41980  16.757  16.608  12.576
76754W        W41981  34.573  27.158   1.813
76755W        W41982  25.006  44.158   0.414
76756W        W41983  14.818  42.277  12.893
76757W        W41984  27.509  16.167  13.051
76758W        W41985  37.958  30.363   4.163
76759W        W41986  44.983  18.049   1.940
76760W        W41987  17.809  32.532  14.395
76761W        W41988  25.619  16.593  14.502
76762W        W41989  38.528  11.494   2.766
76763W        W41990  43.702   3.867   2.665
76764W        W41991  39.019  18.608   2.399
76765W        W41992  44.938   3.948  13.565
76766W        W41993   3.296  22.155   4.119
76767W        W41994  15.031  11.744   3.531
76768W        W41995   2.385  40.961   0.750
76769W        W41996  14.183  36.039  12.990
76770W        W41997  37.927  20.220   0.103
76771W        W41998  42.748  17.276  13.966
76772W        W41999  30.525   0.773   2.693
76773W        W42000  42.985  43.535   1.743
76774W        W42001  16.292  34.194   4.818
76775W        W42002   3.053  31.508  10.401
76776W        W42003  35.072  18.051   3.539
76777W        W42004  12.172  37.220   3.920
76778W        W42005   3.391  22.333  10.643
76779W        W42006  37.569  29.489   1.401
76780W        W42007   3.820  17.265  12.049
76781W        W42008   8.329  43.289  11.587
76782W        W42009  20.634  32.869   1.201
76783W        W42010  36.473  42.883   9.580
76784W        W42011  17.747  35.297  14.615
76785W        W42012  25.628   2.273  13.560
76786W        W42013  28.040  10.409   2.755
76787W        W42014  23.258   8.399  14.766
76788W        W42015  19.247  32.870   4.145
76789W        W42016  15.899   1.843  14.431
76790W        W42017  29.755  26.469   2.955
76791W        W42018  44.706  30.497   0.343
76792W        W42019   1.204  31.057  12.369
76793W        W42020  15.181  32.502   5.559
76794W        W42021  27.585  27.723   3.762
76795W        W42022   6.769   5.840  12.498
76796W        W42023  15.871  10.820  14.694
76797W        W42024  40.028  29.940   2.287
76798W        W42025  35.500  29.995   1.145
76799W        W42026  44.238  26.332   1.488
76800W        W42027  35.767   7.340  14.004
76801W        W42028  12.859  29.096   2.801
76802W        W42029  27.928  28.240   2.296
76803W        W42030  19.596  27.614   3.797
76804W        W42031  10.738  32.947   2.687
76805W        W42032  39.759  36.421  10.657
76806W        W42033   2.190  18.998  13.851
76807W        W42034  26.685  16.217  10.365
76808W        W42035  11.847  20.600   3.409
76809W        W42036  33.567  32.662   2.365
76810W        W42037  29.074   8.467   1.890
76811W        W42038   7.349  42.515   2.087
76812W        W42039  28.681   7.669  11.484
76813W        W42040   0.944  31.969   2.480
76814W        W42041  32.921  20.503   1.477
76815W        W42042   5.130   3.189  14.293
76816W        W42043   2.490  23.867  11.097
76817W        W42044  26.274  24.534   0.360
76818W        W42045  17.244  18.409   3.336
76819W        W42046   3.905  43.709  11.304
76820W        W42047  23.744   4.521  11.268
76821W        W42048  18.256  19.730  14.485
76822W        W42049  41.367  16.592  12.555
76823W        W42050  23.060  27.195  13.430
76824W        W42051  31.336  19.502   1.310
76825W        W42052  31.802  31.503  11.903
76826W        W42053  26.288  42.718   4.472
76827W        W42054   5.775  23.686  10.624
76828W        W42055  12.605   8.419  14.042
76829W        W42056  44.200   3.697   1.436
76830W        W42057  20.753  13.909   1.475
76831W        W42058  26.571   8.300  12.945
76832W        W42059  33.072  41.338   1.656
76833W        W42060  17.637  14.111   2.650
76834W        W42061  32.172  19.684  10.453
76835W        W42062   4.748  24.181   4.945
76836W        W42063  27.627  19.643  10.732
76837W        W42064  31.275  32.413  13.732
76838W        W42065  33.304  30.891  11.304
76839W        W42066  19.935  17.122   0.726
76840W        W42067  10.565  34.500   4.024
76841W        W42068  21.010  13.612   0.664
76842W        W42069  40.837   1.450   0.442
76843W        W42070   2.211  14.299   4.066
76844W        W42071  13.211   6.798   1.218
76845W        W42072  39.477  42.547  12.862
76846W        W42073  15.383  43.604   5.024
76847W        W42074  11.743  38.480  13.076
76848W        W42075  19.884   0.393   2.056
76849W        W42076  13.646   7.471   1.747
76850W        W42077  38.489  24.153  13.883
76851W        W42078   3.099  22.551   4.985
76852W        W42079  28.262  27.490   1.764
76853W        W42080  18.208  18.252  10.489
76854W        W42081  13.817  20.151   4.673
76855W        W42082  34.396  31.002   1.178
76856W        W42083  29.036  43.636  14.709
76857W        W42084   3.026  36.464   4.645
76858W        W42085  17.169  28.115   2.708
76859W        W42086  28.919  44.656   2.162
76860W        W42087  14.886  37.964   3.235
76861W        W42088   5.135  15.107   0.867
76862W        W42089  28.330  16.812  11.865
76863W        W42090  32.156   6.919   0.917
76864W        W42091  29.704  26.006  11.624
76865W        W42092   7.696  27.168   2.131
76866W        W42093  43.445   2.140  10.334
76867W        W42094   8.131   0.303  10.820
76868W        W42095  39.785  24.283   1.942
76869W        W42096  27.012  37.467   1.279
76870W        W42097  41.556   9.148   1.119
76871W        W42098  10.691  33.632  10.847
76872W        W42099  18.564  20.647  10.661
76873W        W42100   2.322   3.908   1.232
76874W        W42101  35.709  33.967  13.921
76875W        W42102  11.244  24.038  14.396
76876W        W42103  37.910  18.267  11.643
76877W        W42104  15.506  13.382   1.985
76878W        W42105  34.091  22.020  12.117
76879W        W42106  44.797  22.446  12.755
76880W        W42107   2.846  24.117  11.469
76881W        W42108  25.148  36.574  14.842
76882W        W42109  28.032   5.197  11.086
76883W        W42110  22.003  28.996  11.611
76884W        W42111  29.985   3.318   3.989
76885W        W42112  30.846  11.857  10.098
76886W        W42113   5.105  35.564  14.800
76887W        W42114   0.228  33.402   4.128
76888W        W42115  41.815  23.691  14.772
76889W        W42116  15.476  31.992  10.090
76890W        W42117  24.013  10.733  10.724
76891W        W42118   6.951   1.357  11.082
76892W        W42119  19.680  14.689   1.969
76893W        W42120  32.013   9.904  12.477
76894W        W42121  44.427  21.803   4.533
76895W        W42122  33.096  27.564  11.990
76896W        W42123  38.125  39.673   2.840
76897W        W42124  26.644  27.533  10.827
76898W        W42125  14.194   4.698   4.043
76899W        W42126  12.890  14.894   4.109
76900W        W42127  20.283  39.867   2.159
76901W        W42128  12.753  21.943   2.976
76902W        W42129  35.444  19.143  12.697
76903W        W42130   4.385  30.096   4.495
76904W        W42131  29.643  15.009   0.821
76905W        W42132  29.231   0.012   1.421
76906W        W42133  20.042  19.861  14.004
76907W        W42134  19.154  42.281  10.568
76908W        W42135  16.808  41.268   0.250
76909W        W42136   7.663   8.994  11.610
76910W        W42137  20.576  40.834  13.812
76911W        W42138  26.069  40.351   2.810
76912W        W42139  17.798  24.632   2.768
76913W        W42140  15.924  35.039   4.231
76914W        W42141  20.690  32.862  11.585
76915W        W42142  14.856  33.885   1.758
76916W        W42143   8.599   4.736  14.893
76917W        W42144  19.792  42.076  11.652
76918W        W42145   7.683  29.188  12.305
76919W        W42146  31.373  15.274  14.854
76920W        W42147  40.347   0.802   3.093
76921W        W42148   3.050  40.476   0.489
76922W        W42149  20.602   9.236  13.478
76923W        W42150  34.180   7.856   0.478
76924W        W42151  13.701  22.700   3.179
76925W        W42152   6.647   4.289   1.931
76926W        W42153  24.976   4.891  13.015
76927W        W42154  15.158  38.009   2.739
76928W        W42155  30.668  18.042  14.535
76929W        W42156  12.580  40.935   3.342
76930W        W42157  25.401  24.898  11.585
76931W        W42158  31.531  32.246   4.793
76932W        W42159  43.784  12.260   0.226
76933W        W42160  22.703  41.894   0.668
76934W        W42161   0.045  30.456  13.193
76935W        W42162  10.392   3.325  12.039
76936W        W42163  24.656   5.666   2.352
76937W        W42164  35.658  21.328   0.359
76938W        W42165  18.805  36.427  10.409
76939W        W42166  28.547  18.280  13.484
76940W        W42167  28.176  15.314   0.779
76941W        W42168  30.917  30.634  14.352
76942W        W42169  13.146  15.441  14.476
76943W        W42170  16.029  35.147  13.633
76944W        W42171  43.511  10.830  14.093
76945W        W42172   5.289  30.030   1.802
76946W        W42173  23.193  10.210  14.221
76947W        W42174  15.261  19.094  14.545
76948W        W42175  12.671   3.745  14.763
76949W        W42176  20.326  35.465  12.516
76950W        W42177  28.493  17.696   2.731
76951W        W42178  11.845  27.236  11.214
76952W        W42179  29.282  11.233  14.423
76953W        W42180   4.712   0.958   0.341
76954W        W42181  15.185  32.458   9.736
76955W        W42182  11.746  38.144  14.472
76956W        W42183  18.389  42.473   2.384
76957W        W42184   4.728  19.349   1.636
76958W        W42185  27.654  25.747  14.905
76959W        W42186   3.737  41.981  11.559
76960W        W42187   5.241  12.539   0.554
76961W        W42188  11.095  33.898  12.469
76962W        W42189   7.808  37.326  12.581
76963W        W42190  31.501  42.821  11.068
76964W        W42191  37.607  27.667  10.755
76965W        W42192  36.379  21.050   3.799
76966W        W42193  10.748  23.140   3.957
76967W        W42194  34.266  40.427   1.634
76968W        W42195  42.096  40.689  12.042
76969W        W42196  37.812  12.395  12.162
76970W        W42197  24.555  42.063   0.013
76971W        W42198   4.291  34.340  13.720
76972W        W42199   8.764  42.598   2.313
76973W        W42200  32.278  35.314  14.904
76974W        W42201  33.525  27.114   2.192
76975W        W42202  17.839  23.740   4.597
76976W        W42203  39.751   8.727  11.137
76977W        W42204  14.196  20.777   2.597
76978W        W42205  13.237  17.752  12.096
76979W        W42206  18.493   5.032   4.029
76980W        W42207  19.547  25.504  13.877
76981W        W42208   8.688   3.365  10.860
76982W        W42209   8.030  43.092  14.409
76983W        W42210  19.687   2.040  11.602
76984W        W42211   5.212  11.149   0.373
76985W        W42212  10.321  36.946   1.313
76986W        W42213  23.131   6.662  14.905
76987W        W42214  14.587  16.856  13.262
76988W        W42215  15.370  19.594  10.797
76989W        W42216   3.684  32.847  13.797
76990W        W42217  43.943  14.523  14.820
76991W        W42218  18.978  42.340   3.003
76992W        W42219  37.495  23.186   0.186
76993W        W42220  39.998   9.761  13.343
76994W        W42221  30.041  27.650   1.710
76995W        W42222  37.893  44.350  12.927
76996W        W42223  17.580  22.088  11.624
76997W        W42224  40.926   0.533  10.501
76998W        W42225  33.815  26.109   2.748
76999W        W42226  43.003  36.934   1.343
77000W        W42227   0.147   9.378   3.256
77001W        W42228  12.978  36.486  10.663
77002W        W42229  31.520  24.695  10.857
77003W        W42230  38.980  24.510  14.540
77004W        W42231  27.966  24.095   1.305
77005W        W42232  38.043  42.849  10.703
77006W        W42233  36.508   7.912   1.301
77007W        W42234   3.307   9.691   0.716
77008W        W42235  42.071  14.932   2.120
77009W        W42236  12.714  29.118   0.306
77010W        W42237  40.811  42.883   1.404
77011W        W42238  34.869  21.101   2.797
77012W        W42239   3.342  29.202  11.545
77013W        W42240   9.665  37.218  11.979
77014W        W42241  27.588  34.210  13.458
77015W        W42242  13.767  36.637  11.134
77016W        W42243  24.016  29.869  14.899
77017W        W42244  11.346  17.257   2.661
77018W        W42245   5.396  33.347  13.917
77019W        W42246   4.984   5.187  14.172
77020W        W42247   4.754  35.494  13.810
77021W        W42248  16.315   7.484   2.606
77022W        W42249  32.905   8.394   1.285
77023W        W42250  12.281  16.707  12.757
77024W        W42251  29.462   8.201   3.648
77025W        W42252  35.836  29.365   3.129
77026W        W42253  39.612  18.555  10.760
77027W        W42254  19.616  10.761  11.109
77028W        W42255   4.450   5.135  12.976
77029W        W42256   2.423  15.055   2.020
77030W        W42257  12.680   4.645   1.765
77031W        W42258   2.808  21.576   3.195
77032W        W42259   5.417  41.910  14.395
77033W        W42260   9.976  33.460  14.949
77034W        W42261  27.052   7.211  12.953
77035W        W42262  30.142  38.865   0.941
77036W        W42263  29.522  43.405  10.725
77037W        W42264  41.435  44.731   0.982
77038W        W42265   0.716  15.976   2.337
77039W        W42266  32.360   9.339  10.736
77040W        W42267  16.236  24.434  14.297
77041W        W42268  43.603  30.875  11.177
77042W        W42269   5.225  44.959   0.484
77043W        W42270   5.918  33.903   2.373
77044W        W42271  12.285  13.281   3.707
77045W        W42272  39.083   8.226  14.848
77046W        W42273  18.263  24.801   2.914
77047W        W42274  13.681  20.772  12.526
77048W        W42275  37.670   8.143  12.758
77049W        W42276   7.378  20.360   0.719
77050W        W42277  20.262   9.791   2.822
77051W        W42278   6.212  21.373   1.395
77052W        W42279  37.790  33.866  11.681
77053W        W42280  12.435  34.168   4.953
77054W        W42281  25.416   8.798   3.159
77055W        W42282  41.980  27.259  14.984
77056W        W42283   4.283  29.545  11.498
77057W        W42284  38.240   3.307  13.149
77058W        W42285  42.249   3.380   4.083
77059W        W42286  44.523   8.100   3.186
77060W        W42287  44.932  28.800  12.435
77061W        W42288  21.573  20.589   0.223
77062W        W42289  33.600  44.815  12.398
77063W        W42290  31.211  31.003  13.732
77064W        W42291  25.500  14.088  12.916
77065W        W42292  10.669   3.012   1.428
77066W        W42293   6.788  14.028  11.600
77067W        W42294  19.019  14.338  12.142
77068W        W42295  29.598  27.690  12.143
77069W        W42296  26.552   9.388  13.932
77070W        W42297  26.984  39.470   0.867
77071W        W42298  44.037  41.519   3.753
77072W        W42299  24.143  32.497   0.888
77073W        W42300   0.817  14.766   1.122
77074W        W42301   9.153  12.820   3.105
77075W        W42302  39.580  31.357  14.040
77076W        W42303  29.043  36.967  11.145
77077W        W42304   0.697  32.370  11.935
77078W        W42305  26.307  16.149  12.840
77079W        W42306  24.715  37.006   4.358
77080W        W42307   1.871  15.778  13.902
77081W        W42308  13.332  16.664  11.095
77082W        W42309   9.326   4.960   0.385
77083W        W42310  12.116  23.928  13.313
77084W        W42311  36.951  43.705  13.565
77085W        W42312  31.779  41.416   2.199
77086W        W42313  20.591  11.646  11.468
77087W        W42314   7.266   0.110  13.896
77088W        W42315  24.936  36.979  14.564
77089W        W42316  11.710   7.283   5.116
77090W        W42317  36.972   1.900  14.766
77091W        W42318  12.681  20.151   2.305
77092W        W42319  41.058  40.170   4.957
77093W        W42320   4.068  31.506   4.671
77094W        W42321  15.028  39.034   0.232
77095W        W42322  10.859  23.665  14.508
77096W        W42323  21.512  28.910   4.382
77097W        W42324   7.192  14.070  12.542
77098W        W42325  18.481  40.602  10.231
77099W        W42326  41.723  20.059  13.406
77100W        W42327   7.218  39.228   2.962
77101W        W42328  22.030  28.044   3.186
77102W        W42329   5.210   0.403  12.811
77103W        W42330  16.333  27.088   2.656
77104W        W42331  37.492  37.351  11.540
77105W        W42332  30.869  17.524   3.341
77106W        W42333  35.869   4.097  12.909
77107W        W42334   0.390  42.010  12.489
77108W        W42335   7.806  25.624   4.598
77109W        W42336  42.522  33.008   2.326
77110W        W42337  14.356   7.841   1.428
77111W        W42338  30.499   9.469   4.602
77112W        W42339  20.165  15.976  14.737
77113W        W42340   4.834   6.880  13.469
77114W        W42341  42.485  26.161  11.778
77115W        W42342  23.083  26.554  12.078
77116W        W42343  33.111  22.688   0.957
77117W        W42344   2.758   9.337  11.091
77118W        W42345  43.767   6.530   2.644
77119W        W42346  28.499  18.721   1.139
77120W        W42347   6.191  32.676   1.712
77121W        W42348  31.171   8.720   5.375
77122W        W42349  10.873   2.802   0.048
77123W        W42350   8.164  41.892  12.407
77124W        W42351  23.610  39.018   2.143
77125W        W42352  40.278  18.556  13.926
77126W        W42353  20.192  23.090  10.511
77127W        W42354  31.481  18.480   1.331
77128W        W42355   8.477   8.991   2.572
77129W        W42356  21.326  34.605  12.564
77130W        W42357   6.642   8.302  11.167
77131W        W42358   8.273  16.836   0.794
77132W        W42359   2.409  18.560  13.053
77133W        W42360  11.557  41.887   3.740
77134W        W42361  27.616   9.356   3.722
77135W        W42362  15.586  16.701  14.932
77136W        W42363   2.822  34.040   4.090
77137W        W42364   7.700  10.264  11.317
77138W        W42365  19.099  13.815  11.256
77139W        W42366  13.368   0.166   2.251
77140W        W42367  28.837  28.089  13.558
77141W        W42368  28.142  38.192  13.686
77142W        W42369  19.159   9.994   2.358
77143W        W42370   9.606  16.617  12.433
77144W        W42371  31.367  14.573  13.083
77145W        W42372   1.398  13.934   2.689
77146W        W42373  19.415  16.284   0.747
77147W        W42374   9.388  44.463  10.674
77148W        W42375  39.346   8.216   4.870
77149W        W42376  30.715  12.188  11.129
77150W        W42377  14.274  10.763  12.070
77151W        W42378  29.392  24.578   3.863
77152W        W42379  31.406  25.650   5.321
77153W        W42380  37.845  21.617   2.292
77154W        W42381  19.998  31.733  13.886
77155W        W42382  29.537  18.258   0.302
77156W        W42383   6.413  26.248  14.888
77157W        W42384   2.120  40.187   1.899
77158W        W42385  15.311  16.268  13.744
77159W        W42386  37.471  14.383   3.299
77160W        W42387  30.698   2.349  10.631
77161W        W42388  43.544  17.516  11.645
77162W        W42389   1.638  23.155   3.502
77163W        W42390   7.369  41.156  12.727
77164W        W42391  42.370   4.004   0.796
77165W        W42392  13.047   8.768   2.656
77166W        W42393  30.514  20.515  10.841
77167W        W42394  31.687  22.441  11.635
77168W        W42395   3.388  15.897  12.414
77169W        W42396   9.609   5.753   4.613
77170W        W42397  19.578  10.289  14.087
77171W        W42398  23.181  42.303   4.525
77172W        W42399  28.775  20.709  12.080
77173W        W42400  40.525  37.937   2.877
77174W        W42401   1.404  19.174   0.448
77175W        W42402   5.872   9.561  14.590
77176W        W42403  35.200  22.086  13.966
77177W        W42404   3.179  44.764  12.973
77178W        W42405  30.727  21.150  11.173
77179W        W42406  10.555  22.651  10.181
77180W        W42407  35.398  18.637   2.374
77181W        W42408  23.283   6.085   0.460
77182W        W42409  17.055   3.201  11.657
77183W        W42410   2.968  37.280   2.596
77184W        W42411   8.539  17.735  11.930
77185W        W42412  41.948  11.863  10.354
77186W        W42413  12.457   7.250  12.831
77187W        W42414  32.314   1.452  12.990
77188W        W42415  26.220  33.148   0.430
77189W        W42416   8.334  36.140  12.508
77190W        W42417   1.481  38.816  13.992
77191W        W42418  24.981  28.682  12.895
77192W        W42419  36.102  23.579   2.209
77193W        W42420   0.412  22.999   4.564
77194W        W42421  41.279   1.736   1.922
77195W        W42422  20.277  34.679   4.657
77196W        W42423   7.881   6.194  14.902
77197W        W42424  37.114  30.345   4.621
77198W        W42425   3.406  31.772  11.656
77199W        W42426  10.223  41.820   3.135
77200W        W42427  37.911  22.580  12.327
77201W        W42428  18.204  20.841  11.377
77202W        W42429  37.926  25.757   2.703
77203W        W42430  41.888   2.889   5.117
77204W        W42431   4.820  12.895  12.680
77205W        W42432   7.136  43.293   2.739
77206W        W42433  31.826  42.440  13.869
77207W        W42434  39.187  43.334  10.474
77208W        W42435  36.772   4.443   4.571
77209W        W42436   3.284  32.552   1.754
77210W        W42437   3.315  30.223  12.777
77211W        W42438   2.795  31.418   1.317
77212W        W42439  36.179  21.308   0.321
77213W        W42440  34.476   4.092  11.995
77214W        W42441  29.073  23.004   1.458
77215W        W42442  22.061  20.998  13.096
77216W        W42443  21.519  39.580   4.491
77217W        W42444  36.518   3.605  12.457
77218W        W42445  22.969   8.214  13.852
77219W        W42446  18.632  42.225  12.618
77220W        W42447   5.241  43.176  12.921
77221W        W42448  31.525  27.151  14.831
77222W        W42449   1.036  30.309  13.491
77223W        W42450  13.780  16.028  13.752
77224W        W42451   3.027  18.762   4.077
77225W        W42452  10.194   3.255   1.867
77226W        W42453  41.525   4.342   4.239
77227W        W42454  34.683  10.907   2.131
77228W        W42455  42.419   1.025  12.078
77229W        W42456  37.267  25.019  14.546
77230W        W42457  22.999  12.096  13.179
77231W        W42458  42.774  25.253  13.767
77232W        W42459  10.139  41.220  10.540
77233W        W42460  12.009   6.933  10.793
77234W        W42461   2.615  10.074  11.478
77235W        W42462   0.944   9.365   2.221
77236W        W42463  38.046  40.715   3.243
77237W        W42464  40.329  11.272  11.860
77238W        W42465  13.106   6.626  14.339
77239W        W42466  31.449  24.138   5.147
77240W        W42467  14.716  17.229  12.089
77241W        W42468  15.295  14.278   2.792
77242W        W42469  23.818   5.628   1.049
77243W        W42470  37.945  38.911  14.718
77244W        W42471  34.608  37.690   0.379
77245W        W42472  10.671  40.038  11.450
77246W        W42473   2.846  28.783  13.487
77247W        W42474  41.078   7.059   1.108
77248W        W42475  39.336  16.280  13.895
77249W        W42476  13.267  43.385   0.781
77250W        W42477  33.914  28.564  13.457
77251W        W42478  15.676   8.072  12.923
77252W        W42479  15.757  31.480   3.771
77253W        W42480   2.919  11.187   0.018
77254W        W42481   9.719  27.532  12.128
77255W        W42482  39.355  16.843  13.884
77256W        W42483  10.740  33.913   1.229
77257W        W42484  29.583  33.967   2.588
77258W        W42485  36.584  19.594   0.796
77259W        W42486  38.779  15.712   3.867
77260W        W42487  17.342   0.165  11.494
77261W        W42488  36.869  29.085  11.576
77262W        W42489  32.039  32.668   3.652
77263W        W42490  22.762   2.815  13.416
77264W        W42491  26.048  33.156   3.707
77265W        W42492  29.503  13.621  14.224
77266W        W42493  25.772  29.554  12.637
77267W        W42494  32.883  36.082   3.271
77268W        W42495  18.204  38.375  12.398
77269W        W42496  18.518  30.031   2.404
77270W        W42497   7.670  31.598   3.383
77271W        W42498  28.335  40.632   3.958
77272W        W42499  14.576  11.846  13.442
77273W        W42500   2.130   0.330  13.511
77274W        W42501   3.401  19.167  12.071
77275W        W42502  23.495  13.840  14.938
77276W        W42503  42.335   7.919  14.083
77277W        W42504  12.156  18.696   4.702
77278W        W42505  40.788   1.978   4.615
77279W        W42506   7.364  38.531  10.536
77280W        W42507   0.357  30.725  12.881
77281W        W42508   9.398  29.896  14.898
77282W        W42509  12.575  11.384  11.482
77283W        W42510   1.473   5.710  13.140
77284W        W42511  11.370   1.679  13.376
77285W        W42512   2.108  26.081  12.445
77286W        W42513   2.680  18.860   5.011
77287W        W42514  11.283  27.793  11.540
77288W        W42515  13.781  27.007   2.379
77289W        W42516  36.946  30.772   4.265
77290W        W42517  18.295  32.495   1.220
77291W        W42518  39.569   3.351  10.170
77292W        W42519  29.988  39.034  14.853
77293W        W42520  39.321  11.629   4.123
77294W        W42521  21.679  43.823  12.219
77295W        W42522  15.392  26.835   2.303
77296W        W42523  19.095  23.806  10.868
77297W        W42524  27.474  32.448  11.650
77298W        W42525  34.214  36.555  11.668
77299W        W42526   2.098  20.738  10.885
77300W        W42527  34.345   1.368   3.116
77301W        W42528  41.255  32.020   3.612
77302W        W42529  22.526   8.347   2.178
77303W        W42530  26.517  44.872  13.625
77304W        W42531  15.630  29.124  14.342
77305W        W42532  40.054  19.589   3.220
77306W        W42533  26.008  23.829  13.621
77307W        W42534  32.510   3.767  13.243
77308W        W42535  13.921  29.058   1.747
77309W        W42536   9.659  16.070   2.009
77310W        W42537  36.511   6.288   1.149
77311W        W42538  40.476  44.354   4.573
77312W        W42539  30.527  12.765  12.296
77313W        W42540  34.588  36.349   4.701
77314W        W42541   5.744  18.490   0.606
77315W        W42542  21.630  24.088  10.959
77316W        W42543  18.991  20.199   0.179
77317W        W42544   6.360  18.495   2.331
77318W        W42545   0.606  18.185  11.184
77319W        W42546   2.358  27.232  12.890
77320W        W42547  11.017  20.570  11.305
77321W        W42548  37.842  22.726   3.252
77322W        W42549   4.649  35.922  10.358
77323W        W42550  32.654  20.490   2.389
77324W        W42551   4.158  12.336   2.095
77325W        W42552  34.809  42.310   1.357
77326W        W42553  33.070  41.676   1.268
77327W        W42554  13.523  28.474   2.686
77328W        W42555   4.218  15.558   0.913
77329W        W42556  34.529  43.792   3.784
77330W        W42557  30.511   4.160  12.361
77331W        W42558   7.856  37.313  14.846
77332W        W42559  21.213  26.166   4.601
77333W        W42560  43.201  38.083  13.323
77334W        W42561  19.368  41.861  14.918
77335W        W42562   1.992  17.693  11.663
77336W        W42563  18.085  10.497   1.892
77337W        W42564   6.365  13.575   0.860
77338W        W42565  17.709  20.830   0.277
77339W        W42566  18.112  39.372   1.502
77340W        W42567  11.150  14.812   9.616
77341W        W42568  38.324  27.546   1.604
77342W        W42569  29.856  26.028  12.618
77343W        W42570  44.006  14.156   2.665
77344W        W42571  31.096  42.303   3.296
77345W        W42572  30.039   0.272   3.762
77346W        W42573   1.987  22.871  12.649
77347W        W42574  13.884   1.197   1.240
77348W        W42575  32.686  40.981   4.082
77349W        W42576   4.110   0.363   0.811
77350W        W42577   3.159  21.531   1.337
77351W        W42578  33.456  33.856   3.479
77352W        W42579  39.002  40.269  11.537
77353W        W42580   6.072   9.258   1.972
77354W        W42581  13.048  17.073  14.273
77355W        W42582   1.403  25.616  11.727
77356W        W42583  33.411  41.032   2.793
77357W        W42584  14.054  17.902   3.763
77358W        W42585   3.230  42.144   4.468
77359W        W42586  27.155   6.883   0.293
77360W        W42587  31.532  21.781  12.681
77361W        W42588  43.278  14.700   0.751
77362W        W42589  32.642  22.249  11.150
77363W        W42590  24.256  38.933   3.655
77364W        W42591  38.864  29.683  10.377
77365W        W42592  32.583  12.349   1.210
77366W        W42593  40.421   5.675   2.728
77367W        W42594  41.930   2.769  14.972
77368W        W42595   2.215  35.401   3.276
77369W        W42596  11.540  24.961  11.638
77370W        W42597  18.157  34.959  10.595
77371W        W42598   4.260   8.928  14.212
77372W        W42599  40.253  21.452   0.841
77373W        W42600  35.473  37.996  12.000
77374W        W42601  13.609  17.129   1.413
77375W        W42602  27.571   5.432   3.844
77376W        W42603  16.576  21.641   3.662
77377W        W42604  34.990   8.346  14.927
77378W        W42605  19.990  12.565  14.569
77379W        W42606  10.329  13.815  13.386
77380W        W42607  19.208  29.553  12.857
77381W        W42608   0.418  31.150   4.831
77382W        W42609   6.163   9.922  13.441
77383W        W42610  38.116  12.234  13.427
77384W        W42611   8.903  42.722  14.869
77385W        W42612  11.691  31.152   3.671
77386W        W42613  32.204  24.695   4.076
77387W        W42614  19.750  17.245  13.495
77388W        W42615   4.774  22.746   0.892
77389W        W42616  14.129  14.340  11.665
77390W        W42617  11.573  10.702  14.833
77391W        W42618   0.215  39.458   1.363
77392W        W42619  32.672  32.757  11.172
77393W        W42620  32.254  23.133   4.820
77394W        W42621  36.138  17.082   3.712
77395W        W42622   0.378  16.937   9.980
77396W        W42623  31.082  39.549   2.348
77397W        W42624  28.180   7.471  11.479
77398W        W42625  44.941  24.589  13.607
77399W        W42626  37.024  19.290  14.381
77400W        W42627  32.962  43.311  11.549
77401W        W42628  29.123  33.090  12.354
77402W        W42629  27.452   4.220   1.340
77403W        W42630  19.612  39.450  11.423
77404W        W42631   3.309  37.293   3.275
77405W        W42632  33.431  44.855   2.921
77406W        W42633  26.533  39.265  11.144
77407W        W42634   6.453  16.369  10.659
77408W        W42635  11.145  42.609  11.296
77409W        W42636  21.275  28.449   1.402
77410W        W42637   9.793  15.580   2.201
77411W        W42638  39.587   6.384  12.432
77412W        W42639   2.789  26.260   3.300
77413W        W42640   2.257   1.727   2.403
77414W        W42641  43.263  42.701   0.163
77415W        W42642  18.951  22.749   3.332
77416W        W42643  21.279  28.526  14.561
77417W        W42644   7.615   6.743   3.425
77418W        W42645  35.374  13.485   3.999
77419W        W42646  17.240  21.596   2.168
77420W        W42647  44.216  43.462   0.243
77421W        W42648  28.119  43.331   1.458
77422W        W42649  41.988  28.688  10.357
77423W        W42650   6.140   6.882  10.742
77424W        W42651  23.826  40.959   4.354
77425W        W42652  15.285   0.315  13.545
77426W        W42653  10.930  36.918   4.600
77427W        W42654   6.000  38.027   3.292
77428W        W42655   3.301  41.603   1.995
77429W        W42656  15.968  27.916  11.984
77430W        W42657  44.707  38.520   3.791
77431W        W42658  17.611  40.058   1.288
77432W        W42659  40.349  21.600   3.736
77433W        W42660  14.778  12.718  13.958
77434W        W42661   4.428  40.525  11.985
77435W        W42662  16.087  23.125   4.718
77436W        W42663  35.801  40.493  14.448
77437W        W42664  40.441  40.605  13.047
77438W        W42665   6.313  18.039  14.617
77439W        W42666  38.618   3.767   1.402
77440W        W42667  36.445  10.607   3.621
77441W        W42668  15.148  25.021   0.228
77442W        W42669  33.937  31.513  13.879
77443W        W42670  40.246  27.215  11.516
77444W        W42671  16.512  29.130  14.435
77445W        W42672  13.462  11.696   5.001
77446W        W42673  37.609  37.110  12.117
77447W        W42674  29.502  20.973  14.403
77448W        W42675  16.515  17.751  12.878
77449W        W42676   4.832  36.470  14.520
77450W        W42677  43.801  17.436   5.313
77451W        W42678  12.777  14.212   2.395
77452W        W42679  38.574  37.909   1.114
77453W        W42680  40.099  30.372  13.359
77454W        W42681  15.090  30.086   4.625
77455W        W42682  32.481  11.740  12.078
77456W        W42683  44.351  44.384   3.299
77457W        W42684  39.926  20.846   3.602
77458W        W42685  24.658  29.691  14.238
77459W        W42686  38.882  12.301  12.897
77460W        W42687  16.356  35.992   3.657
77461W        W42688   5.946  26.163  13.384
77462W        W42689  21.513  10.903  10.938
77463W        W42690  30.699  42.954  14.360
77464W        W42691   5.039  16.404   3.010
77465W        W42692   5.460  14.527   4.512
77466W        W42693  30.442   8.739   1.299
77467W        W42694  21.606  11.706   4.084
77468W        W42695  30.216  44.055  14.458
77469W        W42696   4.830  44.463  12.014
77470W        W42697  11.358  20.468   3.234
77471W        W42698   7.753  44.916  13.026
77472W        W42699  11.921   5.979   2.123
77473W        W42700   2.945   9.854  13.532
77474W        W42701  31.294  24.590   4.746
77475W        W42702  34.548   2.804  14.564
77476W        W42703  17.252  14.709  13.790
77477W        W42704  23.732  26.056  13.853
77478W        W42705  40.026  37.524   4.594
77479W        W42706  12.566  19.979   0.799
77480W        W42707  30.227  14.535  14.510
77481W        W42708  22.472   1.209   2.129
77482W        W42709   3.264  34.136   4.394
77483W        W42710  28.195  34.357  11.169
77484W        W42711   6.220  24.149   4.405
77485W        W42712  25.516  25.094  11.135
77486W        W42713   2.306  24.088   0.264
77487W        W42714  33.495  20.792  12.094
77488W        W42715  39.077  18.244  12.487
77489W        W42716  20.395  28.145  11.960
77490W        W42717   2.175  34.359   4.846
77491W        W42718   5.408  39.368  11.269
77492W        W42719  14.540  32.561  12.699
77493W        W42720  39.168   4.606   1.067
77494W        W42721  19.010  11.133   1.370
77495W        W42722  27.366  38.935   4.151
77496W        W42723  41.976  25.909   0.905
77497W        W42724  38.091  25.992   3.207
77498W        W42725  34.123  26.499  12.939
77499W        W42726  34.006  35.600  13.607
77500W        W42727  43.266  19.264   2.186
77501W        W42728  22.517  32.006   4.020
77502W        W42729  30.448   5.607  11.567
77503W        W42730  15.391  17.175  14.754
77504W        W42731  23.650   3.820   5.786
77505W        W42732  35.735  28.991  10.752
77506W        W42733   9.911   5.405  12.862
77507W        W42734   4.995   4.959  12.922
77508W        W42735  27.649  28.548   2.614
77509W        W42736   4.746  15.363  13.408
77510W        W42737   6.764   9.892   3.072
77511W        W42738  34.630   1.224  10.732
77512W        W42739  27.464  43.553  10.730
77513W        W42740   1.157  40.398   4.581
77514W        W42741  13.561  21.855  13.935
77515W        W42742   1.938  35.358   0.641
77516W        W42743  17.321   6.172   0.094
77517W        W42744  44.479  38.426   3.263
77518W        W42745  18.187  39.753  13.178
77519W        W42746  44.463  28.434   0.316
77520W        W42747  17.763  27.827  10.991
77521W        W42748  27.145   0.572  13.629
77522W        W42749   3.726   2.471   1.658
77523W        W42750  10.438  24.534   3.356
77524W        W42751  28.097   0.590  11.933
77525W        W42752   9.235   2.984  12.388
77526W        W42753  12.057  13.313  13.128
77527W        W42754  29.990  10.144   5.330
77528W        W42755  14.129  41.022   3.254
77529W        W42756  26.175  32.471  14.219
77530W        W42757  14.598   3.054  13.062
77531W        W42758  16.786  21.928  12.149
77532W        W42759  37.895  15.012   1.731
77533W        W42760  32.848  19.533   1.377
77534W        W42761   8.141  16.628   1.665
77535W        W42762  29.484   3.075   4.940
77536W        W42763   3.937   2.006  13.530
77537W        W42764  25.145  38.542   1.140
77538W        W42765  29.377  15.102   3.249
77539W        W42766  29.702  38.777  14.322
77540W        W42767  37.817  18.305  14.794
77541W        W42768   6.344  13.412  11.970
77542W        W42769  18.068  41.509  11.052
77543W        W42770  36.735  24.953  14.439
77544W        W42771  42.868  38.003  11.885
77545W        W42772  22.132  14.448   4.673
77546W        W42773  19.022  18.180   0.990
77547W        W42774  39.624  39.090  14.125
77548W        W42775  21.802  12.726   3.100
77549W        W42776   3.374   7.880   1.810
77550W        W42777  17.476  11.399  11.659
77551W        W42778  30.949  20.499   3.758
77552W        W42779  33.076   2.541   3.388
77553W        W42780  24.664  39.340   1.860
77554W        W42781  14.792  27.509   1.657
77555W        W42782  12.526  28.346   1.635
77556W        W42783  25.359  36.663   1.063
77557W        W42784  10.236  26.488  12.561
77558W        W42785   3.379  12.470  11.621
77559W        W42786  21.325   9.702   1.720
77560W        W42787  22.230   7.044   2.321
77561W        W42788  26.769  35.220  10.582
77562W        W42789  26.185  40.271   0.267
77563W        W42790  28.022  38.462  12.801
77564W        W42791  17.249   2.190   0.411
77565W        W42792  18.263  31.941   4.501
77566W        W42793  23.602  23.123  10.369
77567W        W42794  16.862  39.542  14.921
77568W        W42795  34.423  32.556  12.991
77569W        W42796   6.751  22.558   2.366
77570W        W42797  19.200  33.912   4.590
77571W        W42798   2.559   3.158   3.482
77572W        W42799  34.178  31.724   4.868
77573W        W42800  19.227  11.237  10.367
77574W        W42801  19.074  26.098  11.956
77575W        W42802   5.825   1.705   2.821
77576W        W42803  44.362  27.204   0.819
77577W        W42804  44.799  18.260   3.831
77578W        W42805  44.493   5.115   1.199
77579W        W42806  40.543  25.993   1.799
77580W        W42807  11.482  28.690  12.003
77581W        W42808  33.018  29.096  14.960
77582W        W42809   9.035  33.156  14.951
77583W        W42810  30.014  42.582   0.554
77584W        W42811  14.268  33.619  11.512
77585W        W42812  27.630  20.265   2.758
77586W        W42813  22.981  33.598   0.921
77587W        W42814  36.095   3.744   3.622
77588W        W42815  11.775  17.796  10.339
77589W        W42816  38.734  34.389   2.649
77590W        W42817  24.664   8.617  12.930
77591W        W42818   1.757   6.083   4.749
77592W        W42819   3.765  35.116   4.695
77593W        W42820  40.751   9.025   0.781
77594W        W42821  23.235  18.097   1.386
77595W        W42822  28.924   5.379  10.281
77596W        W42823   9.918   4.870   4.576
77597W        W42824  22.080  36.606  12.113
77598W        W42825   8.507  28.161  12.900
77599W        W42826   8.763  34.659   9.828
77600W        W42827   3.806  22.997  14.074
77601W        W42828  39.788  12.654  11.909
77602W        W42829  40.579  41.802  13.984
77603W        W42830  26.565  28.697  12.957
77604W        W42831  14.205  43.602  11.999
77605W        W42832  17.008  34.323   1.766
77606W        W42833  37.066  28.101   4.113
77607W        W42834   9.334  28.562   2.708
77608W        W42835  34.477  35.677  10.384
77609W        W42836  35.233  33.609  11.431
77610W        W42837  29.470   4.360   4.129
77611W        W42838  17.001  42.911   4.368
77612W        W42839   3.449  24.716   3.732
77613W        W42840   7.337  13.941   2.228
77614W        W42841  11.538  12.721  11.132
77615W        W42842   1.941  33.532   4.557
77616W        W42843  12.736  39.005   2.556
77617W        W42844  31.401  34.827   3.791
77618W        W42845  39.521   6.034  14.083
77619W        W42846   5.070  19.507  10.965
77620W        W42847  22.002  34.006   2.644
77621W        W42848  13.113  17.711   0.897
77622W        W42849   2.677  28.549   0.758
77623W        W42850  37.809  43.811  13.462
77624W        W42851  16.318  21.213   4.851
77625W        W42852  10.446  15.651  14.485
77626W        W42853  29.002   4.708  12.943
77627W        W42854  42.650   1.818   2.326
77628W        W42855  17.508  20.434  10.626
77629W        W42856  41.057  13.021   2.300
77630W        W42857  39.442  27.375   4.679
77631W        W42858  18.149   6.442  12.030
77632W        W42859  23.797  32.995  11.823
77633W        W42860   0.206  22.135  11.559
77634W        W42861   9.843   9.502  13.070
77635W        W42862   9.420  15.738  14.362
77636W        W42863  28.568  42.436   0.270
77637W        W42864  39.479   4.110  11.569
77638W        W42865  21.212  26.677  14.720
77639W        W42866  10.823  36.835  13.784
77640W        W42867  19.350  33.419  13.982
77641W        W42868  14.665   8.586  11.200
77642W        W42869  29.017  18.290   1.875
77643W        W42870   7.033  10.240   3.347
77644W        W42871  31.888   9.581  14.738
77645W        W42872  17.639   4.900  11.678
77646W        W42873  18.717  25.112  13.855
77647W        W42874  19.402   0.538   4.847
77648W        W42875  22.457  29.907  14.819
77649W        W42876  42.846  32.150  13.334
77650W        W42877  36.041  13.636   1.753
77651W        W42878  10.231  43.280   4.578
77652W        W42879  30.921  32.955   1.722
77653W        W42880  23.204  40.617  10.621
77654W        W42881  29.024   0.482   3.362
77655W        W42882  10.634  33.980  14.434
77656W        W42883   5.767  10.966  11.147
77657W        W42884  23.665  13.403  12.418
77658W        W42885  31.691  34.900  10.108
77659W        W42886  28.177  14.570  13.285
77660W        W42887  36.601  11.085  12.924
77661W        W42888  16.662  28.143  10.763
77662W        W42889  22.594  41.379   2.659
77663W        W42890   4.445  31.903  13.688
77664W        W42891   8.694  24.711  11.141
77665W        W42892  11.969  13.507  12.647
77666W        W42893  34.024  19.714  13.767
77667W        W42894   0.002  14.497  13.007
77668W        W42895  43.940  43.962  13.797
77669W        W42896  15.610  11.090  12.851
77670W        W42897  25.077  28.239   1.554
77671W        W42898  41.504  39.006   0.364
77672W        W42899   5.607   8.216   0.053
77673W        W42900   2.948   8.605  10.615
77674W        W42901  34.329   6.282   2.184
77675W        W42902  20.267  29.849   3.313
77676W        W42903  31.950  35.954   3.606
77677W        W42904  21.203  14.020  11.156
77678W        W42905  44.969  13.833  12.304
77679W        W42906  43.866   8.833   1.708
77680W        W42907  32.826  21.794   0.215
77681W        W42908  21.791  18.225  12.281
77682W        W42909  18.008  29.959   2.426
77683W        W42910  16.124  18.540   3.722
77684W        W42911   3.766  25.975   0.399
77685W        W42912  39.008  35.718  13.846
77686W        W42913  33.888   2.404   2.281
77687W        W42914  43.858   9.581   4.525
77688W        W42915  12.048  33.921  12.106
77689W        W42916  22.576  16.572  13.326
77690W        W42917  18.594  32.666  14.978
77691W        W42918  38.763  38.167  12.455
77692W        W42919  16.872   4.343   2.177
77693W        W42920   8.405  25.729  12.454
77694W        W42921  39.420  18.255  11.131
77695W        W42922  19.254  33.078   1.253
77696W        W42923  20.321  22.035   3.215
77697W        W42924   1.191   5.807   1.622
77698W        W42925   5.976  18.062   3.262
77699W        W42926  24.987  44.349  14.067
77700W        W42927   6.978  33.789   3.244
77701W        W42928  28.949  20.169   2.206
77702W        W42929   3.669  29.005   3.990
77703W        W42930  35.473   5.190   3.688
77704W        W42931  39.598   0.456   3.627
77705W        W42932  30.703  35.512   4.244
77706W        W42933  14.507  43.934   3.138
77707W        W42934  28.524  26.641  14.460
77708W        W42935  27.137  26.740  11.533
77709W        W42936  44.452  29.122   3.682
77710W        W42937   2.165   5.996  13.910
77711W        W42938  26.136  43.334   2.626
77712W        W42939  34.086  10.252  11.590
77713W        W42940  23.223  26.040  13.901
77714W        W42941   3.758  18.895  11.793
77715W        W42942  27.574   2.727  14.549
77716W        W42943  43.985   0.976   3.077
77717W        W42944  44.822  24.417   1.269
77718W        W42945  38.917   9.752  13.413
77719W        W42946  17.814   3.442  13.851
77720W        W42947  39.885  40.251   3.145
77721W        W42948  15.454  22.136   0.621
77722W        W42949   2.095   3.295   3.754
77723W        W42950  21.818  10.148   3.380
77724W        W42951   5.699  33.067  12.604
77725W        W42952  42.447  44.991   2.673
77726W        W42953  33.365   9.241   4.630
77727W        W42954   0.447  44.588  13.343
77728W        W42955  12.544   2.821   0.291
77729W        W42956  34.684  13.697  13.827
77730W        W42957   0.571  43.404  14.955
77731W        W42958  39.041  21.266   2.322
77732W        W42959  11.760   1.178  12.073
77733W        W42960  15.749  26.928  10.753
77734W        W42961  11.881   3.369   3.628
77735W        W42962  37.940  36.033  14.267
77736W        W42963   8.898  24.035   4.110
77737W        W42964  20.622  42.417  11.529
77738W        W42965  25.074  21.187  13.118
77739W        W42966  31.225  37.003   1.727
77740W        W42967  31.559   8.074  11.498
77741W        W42968  32.110  27.508  12.621
77742W        W42969   8.179  21.027   2.797
77743W        W42970   8.194  23.077   0.468
77744W        W42971  19.130   4.627   4.189
77745W        W42972  37.075  35.845  11.974
77746W        W42973  44.663  20.156  11.979
77747W        W42974  12.061  42.884   0.517
77748W        W42975  25.670  21.312  10.955
77749W        W42976  18.600  44.567   0.803
77750W        W42977  42.944  41.863  11.155
77751W        W42978  41.851  44.841   3.884
77752W        W42979   4.443  27.417   4.105
77753W        W42980  41.062   6.797   1.591
77754W        W42981   7.892  35.827  12.594
77755W        W42982   0.411   5.974  11.118
77756W        W42983  40.452  16.597  10.196
77757W        W42984  28.924  34.366   5.148
77758W        W42985  35.016  37.823   9.843
77759W        W42986  26.493  16.656  11.950
77760W        W42987  11.400  17.185  10.336
77761W        W42988  44.214  29.568  12.966
77762W        W42989   6.472  26.424   4.166
77763W        W42990  37.132   3.963  13.229
77764W        W42991   7.350  17.769  12.656
77765W        W42992  31.631  40.927   3.237
77766W        W42993   7.947  39.397  12.388
77767W        W42994  13.521  43.526  13.482
77768W        W42995   8.388  24.736  10.694
77769W        W42996  21.548  41.890  13.339
77770W        W42997  18.796  41.823   2.136
77771W        W42998  17.597  31.737   2.196
77772W        W42999  28.493  28.455   0.684
77773W        W43000  40.827  23.301  13.506
77774W        W43001   0.778  24.373   4.569
77775W        W43002  28.998   0.861   0.343
77776W        W43003  44.997  43.671   5.340
77777W        W43004  38.393  28.201   0.943
77778W        W43005  22.806   6.810  13.586
77779W        W43006   1.923  31.274   3.177
77780W        W43007  17.298  19.506  12.140
77781W        W43008   3.937  11.277   2.690
77782W        W43009  29.570  28.411   0.368
77783W        W43010  37.958  17.469   3.345
77784W        W43011  10.947  13.718  12.571
77785W        W43012  28.547  27.048  10.271
77786W        W43013  21.752  44.388   3.220
77787W        W43014  21.248   1.710   3.681
77788W        W43015  31.855   4.781  12.550
77789W        W43016  44.642  29.087   4.476
77790W        W43017  22.186  28.703   3.819
77791W        W43018  38.606  29.432  12.672
77792W        W43019  41.718  19.919   0.022
77793W        W43020  15.242  35.016  12.919
77794W        W43021  15.178  22.490   3.566
77795W        W43022  41.316   2.237  13.490
77796W        W43023   6.909  40.332  13.585
77797W        W43024  38.060   9.834  10.515
77798W        W43025  37.329   9.726   3.654
77799W        W43026  37.021  26.470   0.732
77800W        W43027  34.292  12.769   0.983
77801W        W43028  10.346  26.506  14.634
77802W        W43029  17.683   2.608   4.759
77803W        W43030  13.292   5.932   2.157
77804W        W43031  20.641  43.867   3.341
77805W        W43032  32.220  35.255  11.701
77806W        W43033   3.800  18.184   3.903
77807W        W43034  28.363  13.111   0.793
77808W        W43035  40.832  35.112  14.532
77809W        W43036  18.303   5.273  10.709
77810W        W43037  12.285  29.977  10.487
77811W        W43038  28.212  19.861   3.867
77812W        W43039  35.318  27.558   4.305
77813W        W43040  10.162  41.267   2.398
77814W        W43041  16.674  42.774   0.125
77815W        W43042   5.482  44.578  12.626
77816W        W43043   6.236   6.822   4.868
77817W        W43044  41.031  32.536  13.873
77818W        W43045  30.463  17.173  11.823
77819W        W43046   0.911   8.961   4.926
77820W        W43047  18.647  21.819   2.204
77821W        W43048  23.054  27.763  10.688
77822W        W43049  35.348   0.172  10.802
77823W        W43050  17.329  27.807  12.007
77824W        W43051  33.524  41.081   1.758
77825W        W43052   8.892   5.045   1.340
77826W        W43053  14.409   7.245   2.202
77827W        W43054  38.108  35.830  14.717
77828W        W43055  10.979  29.201  13.571
77829W        W43056   9.374  38.387   4.137
77830W        W43057  22.520   9.595  12.028
77831W        W43058   8.603  35.417  13.982
77832W        W43059  16.980  25.196  11.203
77833W        W43060  44.839  11.123   1.397
77834W        W43061  17.452   4.671   3.415
77835W        W43062  17.915   3.361   0.011
77836W        W43063  40.429  32.564  12.173
77837W        W43064  43.960  32.185  12.389
77838W        W43065  12.425   9.485  13.464
77839W        W43066  14.848  11.759  14.787
77840W        W43067  40.510   7.388   2.394
77841W        W43068  33.227  21.430   4.787
77842W        W43069  12.088  13.086  12.194
77843W        W43070  24.867  38.788  13.574
77844W        W43071   7.158  17.042   0.330
77845W        W43072  14.632  28.288  13.530
77846W        W43073  29.513  36.314   5.491
77847W        W43074  12.960  13.844   0.853
77848W        W43075   4.938   2.239   2.819
77849W        W43076   5.208  42.093  13.934
77850W        W43077  30.180  24.730  11.680
77851W        W43078   7.137  43.816  11.707
77852W        W43079  41.458   6.669   1.236
77853W        W43080  19.082  10.703  11.098
77854W        W43081  14.186   1.514   1.922
77855W        W43082  32.371   7.031   0.461
77856W        W43083  13.986  33.158  13.973
77857W        W43084   0.467   7.215  13.831
77858W        W43085   4.574  13.817   4.713
77859W        W43086  15.956  15.624  14.769
77860W        W43087  34.365   3.375   1.400
77861W        W43088  23.787  44.337   0.988
77862W        W43089   8.954  29.028  10.992
77863W        W43090  13.027   6.259   0.929
77864W        W43091  44.928   6.620   1.334
77865W        W43092  14.826  23.555   2.894
77866W        W43093   0.549   4.766   4.182
77867W        W43094  14.734  25.693   2.346
77868W        W43095  23.577   4.203  14.387
77869W        W43096  16.225  34.171  14.456
77870W        W43097   9.068  36.201   4.767
77871W        W43098   7.046   1.907  12.206
77872W        W43099   9.783  18.172  12.457
77873W        W43100  23.254  23.723   3.592
77874W        W43101   6.833  21.104   4.834
77875W        W43102  28.502  30.436  14.898
77876W        W43103  36.500  14.600   4.732
77877W        W43104   5.989  34.294  12.032
77878W        W43105  10.786  41.472  11.188
77879W        W43106  38.096  15.954  12.696
77880W        W43107  31.494  14.837  14.027
77881W        W43108  22.768  15.639  14.921
77882W        W43109  21.532  29.982  14.253
77883W        W43110  13.509  40.522  12.095
77884W        W43111  40.517  25.341   3.736
77885W        W43112  15.061  14.303   1.745
77886W        W43113  21.640  22.463   0.500
77887W        W43114  42.847  43.219   0.842
77888W        W43115   7.831   9.467  11.682
77889W        W43116  20.629  20.499   4.365
77890W        W43117   8.793   9.009  11.578
77891W        W43118  23.139  15.079  13.275
77892W        W43119  44.024   0.414  13.058
77893W        W43120  15.355  44.814  13.383
77894W        W43121  18.566  34.396  13.111
77895W        W43122  18.872  44.243  14.999
77896W        W43123  36.259  13.793   2.190
77897W        W43124  18.253  30.218   2.828
77898W        W43125  40.298  29.783   4.203
77899W        W43126  43.520  22.654  14.832
77900W        W43127  41.592  21.489   1.324
77901W        W43128   6.261   7.129  10.307
77902W        W43129  30.632   6.596   3.348
77903W        W43130  28.726  32.340  14.915
77904W        W43131  25.520  17.840   5.085
77905W        W43132  39.395  12.558  13.138
77906W        W43133   0.382  13.505   1.343
77907W        W43134  17.371  19.880  13.687
77908W        W43135   3.469  23.211  13.733
77909W        W43136  31.162  42.589   0.904
77910W        W43137  21.268  10.667  13.514
77911W        W43138  22.097  21.786   3.769
77912W        W43139  20.191  26.055  10.371
77913W        W43140  39.053  13.066  12.458
77914W        W43141   5.028   2.669   3.768
77915W        W43142  21.502   7.972   3.146
77916W        W43143  21.797  15.790  11.966
77917W        W43144  16.810   6.207  13.094
77918W        W43145  41.593  25.949  11.197
77919W        W43146  42.540  12.258  10.542
77920W        W43147  12.186  17.780   1.952
77921W        W43148   8.125  25.570  13.901
77922W        W43149  34.510  23.107   4.104
77923W        W43150   1.292  18.709   2.197
77924W        W43151  22.703   0.968   1.286
77925W        W43152   7.744   9.300  13.299
77926W        W43153   9.400  38.448  11.160
77927W        W43154  36.160   6.335  10.756
77928W        W43155  42.782  11.442  14.440
77929W        W43156   2.768  24.858  11.010
77930W        W43157  15.305  40.469   1.428
77931W        W43158  19.161  42.968   0.308
77932W        W43159   5.382   6.895   3.904
77933W        W43160  20.791   7.110  11.875
77934W        W43161  40.388   0.494   0.249
77935W        W43162  22.569  13.853   1.714
77936W        W43163   0.902  14.689  13.028
77937W        W43164  40.182  40.597   0.879
77938W        W43165  38.353  44.557  13.009
77939W        W43166  44.945   4.835  13.061
77940W        W43167  36.767  16.096   0.417
77941W        W43168  27.654  10.924  12.634
77942W        W43169  22.470  32.712   2.690
77943W        W43170   3.798  41.741   1.478
77944W        W43171  38.302  28.509   0.492
77945W        W43172  17.085   5.867   4.439
77946W        W43173  35.324  20.613   1.974
77947W        W43174  13.706  13.102  14.051
77948W        W43175  36.604  27.661  11.469
77949W        W43176  32.578   2.259  10.671
77950W        W43177  21.311  26.303   2.361
77951W        W43178  13.643  14.792  14.092
77952W        W43179  26.386  22.704   3.731
77953W        W43180  44.535  18.578   3.536
77954W        W43181   3.412  16.318   1.865
77955W        W43182  39.793  16.756   0.079
77956W        W43183  39.905  36.382  14.541
77957W        W43184  19.122  35.855  12.567
77958W        W43185  31.771  20.201   1.846
77959W        W43186  22.976  18.065  13.608
77960W        W43187  36.061  22.686  10.345
77961W        W43188  24.451  27.671  13.465
77962W        W43189  10.595   9.103  14.765
77963W        W43190  37.789  16.783   2.323
77964W        W43191  12.268  33.579   1.416
77965W        W43192   3.029  33.814  11.988
77966W        W43193   4.260  28.957   0.208
77967W        W43194  42.076  20.157   9.722
77968W        W43195   8.575  38.315  12.094
77969W        W43196  36.328  30.353   0.888
77970W        W43197  11.824  13.384  11.841
77971W        W43198  19.993  13.819  11.486
77972W        W43199   2.992  23.531  11.992
77973W        W43200   9.793  38.567   3.883
77974W        W43201   6.608  20.501  12.083
77975W        W43202  39.701  16.585   2.422
77976W        W43203  12.643   1.109   3.783
77977W        W43204  16.185   6.493  13.785
77978W        W43205  39.863  36.028  11.011
77979W        W43206  32.416  32.625  14.403
77980W        W43207  14.200  19.218  14.322
77981W        W43208  36.726  26.430  11.098
77982W        W43209  14.873  27.473   4.199
77983W        W43210  35.272  34.540  14.423
77984W        W43211  41.518  38.001  10.585
77985W        W43212   5.509  12.781   4.305
77986W        W43213  39.175  42.804   0.685
77987W        W43214  33.349  11.149  13.864
77988W        W43215  36.423  18.024  14.909
77989W        W43216  31.675  24.647  12.527
77990W        W43217   7.418  13.237  13.012
77991W        W43218  39.338  38.818   0.889
77992W        W43219  36.953   3.852  12.689
77993W        W43220   7.855  33.610   3.268
77994W        W43221   4.656   4.848   1.434
77995W        W43222   2.405   4.792  13.091
77996W        W43223   5.038  13.154   5.016
77997W        W43224  34.155  20.296  13.148
77998W        W43225  25.565  15.080  12.638
77999W        W43226  37.465  15.592   2.792
78000W        W43227  40.491  24.251  14.424
78001W        W43228   4.161  43.706   1.424
78002W        W43229  38.055  14.708  13.063
78003W        W43230  29.526  32.702  12.064
78004W        W43231   0.927  41.568  11.293
78005W        W43232  11.669  16.083   4.230
78006W        W43233  10.690  26.241  12.595
78007W        W43234   9.710   8.680   0.800
78008W        W43235  21.528   4.861   4.224
78009W        W43236  39.924  23.780  13.315
78010W        W43237   0.781  42.352   0.349
78011W        W43238  18.694   8.802   0.312
78012W        W43239  43.231  28.686  13.528
78013W        W43240  18.783   8.302   1.472
78014W        W43241  18.770  44.177   0.502
78015W        W43242  28.219  20.354   3.677
78016W        W43243  42.855  20.798   1.110
78017W        W43244  43.718  43.491   0.190
78018W        W43245  44.725  36.353  14.825
78019W        W43246  12.822  28.212   3.232
78020W        W43247  44.868   7.626  10.416
78021W        W43248   9.270  30.303   4.983
78022W        W43249   3.778   7.313  12.120
78023W        W43250  21.235   4.024   2.319
78024W        W43251  11.257   4.919  10.316
78025W        W43252   4.783  17.638  14.423
78026W        W43253  24.476   7.454   2.690
78027W        W43254  29.267  19.057  11.999
78028W        W43255  41.643  42.503  12.600
78029W        W43256  44.524  19.083  14.548
78030W        W43257  39.887  14.348   2.706
78031W        W43258   3.734  31.651   1.450
78032W        W43259   2.397   1.940  11.571
78033W        W43260  14.750  39.379  11.876
78034W        W43261   5.314   3.348   2.452
78035W        W43262  39.462  21.126  11.783
78036W        W43263  27.062  19.813   4.099
78037W        W43264  20.275   4.755   3.703
78038W        W43265  19.986  21.646  10.574
78039W        W43266  20.568  38.890  11.045
78040W        W43267  30.476  23.000   0.398
78041W        W43268  10.282  34.029   3.993
78042W        W43269  38.046   7.735  13.510
78043W        W43270  27.137  15.083  12.653
78044W        W43271   2.784  32.581  14.395
78045W        W43272   4.122  14.261  12.493
78046W        W43273  36.128  16.121  14.738
78047W        W43274   4.187   7.637   4.345
78048W        W43275  38.808  31.908   4.940
78049W        W43276  37.354   8.252  13.486
78050W        W43277  11.363  21.184  12.074
78051W        W43278  44.584  14.163   1.798
78052W        W43279  40.847   4.936  13.431
78053W        W43280  12.169  36.339   1.474
78054W        W43281  43.031  16.958   0.369
78055W        W43282  29.122   2.788   1.854
78056W        W43283  25.089  23.593   2.613
78057W        W43284  24.408   8.718   1.261
78058W        W43285   0.279  28.265  13.135
78059W        W43286  30.723  43.261  13.922
78060W        W43287  43.894  43.135   2.854
78061W        W43288  35.124  13.891   0.263
78062W        W43289  40.275  14.329  11.989
78063W        W43290   8.914  42.297   1.858
78064W        W43291   0.930  34.054  14.875
78065W        W43292  34.558  25.631   2.316
78066W        W43293  17.624  14.597   3.742
78067W        W43294  22.572  29.307  11.241
78068W        W43295  36.779  24.654  11.192
78069W        W43296  37.730  10.876   4.685
78070W        W43297  14.408  15.675   2.435
78071W        W43298  12.575  22.812   4.099
78072W        W43299   0.481   8.957  13.926
78073W        W43300   2.167  31.620  10.593
78074W        W43301   7.772  18.530  12.526
78075W        W43302  43.357  16.956  13.501
78076W        W43303  37.102  29.174  11.122
78077W        W43304  24.072  23.655  12.575
78078W        W43305  22.245   7.131   1.337
78079W        W43306  26.179  16.227  11.350
78080W        W43307  24.581   8.419  11.608
78081W        W43308  25.746   8.125  12.088
78082W        W43309  14.950  40.354   1.813
78083W        W43310  22.063  39.341  10.773
78084W        W43311  12.694  22.219  11.049
78085W        W43312  26.465  16.049   4.318
78086W        W43313  30.008  34.067   0.472
78087W        W43314   2.197  37.592   0.891
78088W        W43315  26.684  12.708  13.456
78089W        W43316  36.745  36.171   2.729
78090W        W43317   5.922  14.583  11.621
78091W        W43318  18.281  41.897  10.675
78092W        W43319  25.173  15.436   1.506
78093W        W43320   4.800  39.909  14.032
78094W        W43321  28.170  13.088  11.933
78095W        W43322  14.852   4.782  10.282
78096W        W43323   4.512  43.931   0.004
78097W        W43324   3.938  29.258  11.201
78098W        W43325   6.528  23.183  14.483
78099W        W43326  11.585  19.783   1.372
78100W        W43327  21.601  16.178  13.791
78101W        W43328   9.394  27.248  12.389
78102W        W43329  27.030  20.980   1.592
78103W        W43330  18.816  32.407   1.443
78104W        W43331  20.181  44.776  11.441
78105W        W43332  15.026   6.976  11.081
78106W        W43333  24.199  15.333  10.628
78107W        W43334  13.256  14.196  11.178
78108W        W43335  24.593   5.626   3.195
78109W        W43336  26.210   2.276   3.227
78110W        W43337   5.397  21.646   1.127
78111W        W43338  24.368  39.161  10.369
78112W        W43339  42.591  34.063   0.306
78113W        W43340  31.379   7.873  11.949
78114W        W43341  20.324  30.555  14.579
78115W        W43342   1.007  44.411  14.994
78116W        W43343  36.723  26.946  10.589
78117W        W43344  28.764  19.064  13.200
78118W        W43345   8.617  21.169   4.300
78119W        W43346   1.379  26.101  11.844
78120W        W43347  15.057  33.421  11.893
78121W        W43348  11.120  10.386   2.263
78122W        W43349  35.869  36.356   1.337
78123W        W43350  10.549  25.525  10.676
78124W        W43351   4.931   5.693  12.081
78125W        W43352  19.700  32.574  11.566
78126W        W43353  42.050  40.907   3.438
78127W        W43354   5.683  26.999  12.880
78128W        W43355  17.497  36.543  11.623
78129W        W43356  11.743  40.267   1.593
78130W        W43357   2.105  22.452   0.800
78131W        W43358  12.230  27.456  14.012
78132W        W43359  31.462  37.487  12.395
78133W        W43360  38.332  40.745   1.852
78134W        W43361   6.989  27.695   3.100
78135W        W43362   6.708   7.188  13.869
78136W        W43363  29.121  32.911   2.271
78137W        W43364  42.280  18.309  12.120
78138W        W43365   6.630  39.874  10.712
78139W        W43366  35.498  41.462   4.077
78140W        W43367  37.128   1.471   1.301
78141W        W43368  32.846  43.442   3.974
78142W        W43369  39.020  28.100   3.259
78143W        W43370   1.799   1.976  12.868
78144W        W43371  19.166   1.786  10.710
78145W        W43372  22.194  20.769   4.035
78146W        W43373  36.040   5.677  11.995
78147W        W43374  22.511  41.316   3.168
78148W        W43375  25.982   5.230  11.075
78149W        W43376   9.294  26.787  11.705
78150W        W43377  12.676  42.097  13.792
78151W        W43378  21.671  12.394   4.931
78152W        W43379  14.387  13.091   1.441
78153W        W43380  22.519   5.699  12.943
78154W        W43381  40.582  17.477  13.901
78155W        W43382   8.952   4.261  11.054
78156W        W43383  21.650  37.085  13.497
78157W        W43384  28.700  13.161   3.232
78158W        W43385  18.168   2.969   2.775
78159W        W43386  21.790  15.541  13.030
78160W        W43387  31.142  18.668  14.532
78161W        W43388  30.887  35.059  12.530
78162W        W43389  44.204  34.804  11.520
78163W        W43390  41.963  43.675  11.120
78164W        W43391  33.434  12.258   4.165
78165W        W43392   8.693  33.246   0.339
78166W        W43393  22.553   7.329   3.705
78167W        W43394  42.976  20.428  12.935
78168W        W43395  43.285  26.068   4.216
78169W        W43396   0.990  25.716   2.656
78170W        W43397  28.612  21.135   0.893
78171W        W43398  40.836  43.287  14.874
78172W        W43399  38.304  33.001  11.712
78173W        W43400  32.991  34.072   3.337
78174W        W43401  11.857  31.732  14.006
78175W        W43402  23.732  33.360   1.605
78176W        W43403  25.055  24.580   4.221
78177W        W43404  42.073  44.767  11.883
78178W        W43405   4.365   0.302  14.023
78179W        W43406  19.810   6.336   3.757
78180W        W43407  19.324  21.657   0.612
78181W        W43408  44.885  16.540  12.659
78182W        W43409  24.453  36.873   4.773
78183W        W43410  27.072  34.042   0.430
78184W        W43411   9.341  23.668  11.669
78185W        W43412  25.564  40.061  11.075
78186W        W43413  20.316  32.044  12.203
78187W        W43414  39.265  43.546   0.392
78188W        W43415  29.673  42.566   4.290
78189W        W43416   3.344   7.300   0.696
78190W        W43417  22.634  43.530  12.500
78191W        W43418  44.800  42.735   4.216
78192W        W43419  29.716  39.949   1.665
78193W        W43420  39.765  37.194  11.565
78194W        W43421  24.146  16.099  14.495
78195W        W43422  18.117  35.042  11.490
78196W        W43423  27.196  36.110  11.953
78197W        W43424  32.180  26.753   2.590
78198W        W43425  23.483  18.410   1.964
78199W        W43426  10.242  40.287  14.469
78200W        W43427  21.188  41.386   2.789
78201W        W43428  13.733  19.371  11.613
78202W        W43429   0.896   5.735  12.605
78203W        W43430  29.435  20.641   1.824
78204W        W43431  29.805  16.823   0.499
78205W        W43432  22.980  25.104   3.335
78206W        W43433  36.525  19.729  11.982
78207W        W43434  11.679   1.891  14.016
78208W        W43435  28.670  41.663   3.144
78209W        W43436  10.909  31.489  14.975
78210W        W43437  34.241  28.066  14.347
78211W        W43438   6.550  29.383  11.276
78212W        W43439  15.220   7.394  14.479
78213W        W43440  39.976  35.970  10.506
78214W        W43441   5.701  14.181   4.827
78215W        W43442  28.301  44.099  14.715
78216W        W43443   5.880   3.979   2.186
78217W        W43444  44.816  41.634  13.893
78218W        W43445   6.629   8.623   4.953
78219W        W43446  43.954  24.208  11.124
78220W        W43447  31.290  16.375  11.116
78221W        W43448  12.108   6.175  13.061
78222W        W43449  41.452  30.202  13.866
78223W        W43450   7.578  20.178   2.372
78224W        W43451  43.798  38.937  14.853
78225W        W43452  42.387  40.315   4.593
78226W        W43453   8.372  24.988  11.970
78227W        W43454  34.575   6.852  13.859
78228W        W43455  36.392   5.505  14.488
78229W        W43456  35.587   8.467   3.252
78230W        W43457   5.853  31.463  12.398
78231W        W43458  39.729  11.429   2.821
78232W        W43459  27.825  23.782  11.799
78233W        W43460   3.014   1.929   4.232
78234W        W43461   4.466  26.465   3.626
78235W        W43462   0.532  12.290  11.578
78236W        W43463  17.860  11.883   2.316
78237W        W43464  30.384   1.174  12.906
78238W        W43465   8.669  44.391  11.120
78239W        W43466  15.337   9.863   3.595
78240W        W43467   8.112  11.090  14.854
78241W        W43468  17.753   7.102  14.909
78242W        W43469  13.276   0.022  10.697
78243W        W43470   0.211   7.250  10.532
78244W        W43471   6.364   9.337  10.725
78245W        W43472  18.140  19.113   4.215
78246W        W43473  34.256  14.285  12.043
78247W        W43474  28.204  40.753   2.030
78248W        W43475  14.716  17.590   4.793
78249W        W43476  34.950  21.133   4.505
78250W        W43477  41.927   4.395   2.669
78251W        W43478   1.825  12.937  12.458
78252W        W43479  37.975  29.396  10.374
78253W        W43480   8.684   1.731  14.834
78254W        W43481  11.250  18.991   2.118
78255W        W43482   2.600  25.730   0.544
78256W        W43483  35.552   0.490   2.832
78257W        W43484  33.580  13.402   2.603
78258W        W43485  26.754  41.364  12.925
78259W        W43486  11.097  42.391  13.878
78260W        W43487  27.568  39.995   0.603
78261W        W43488  10.754  38.090   3.581
78262W        W43489  30.873  10.874   3.313
78263W        W43490  13.402  11.427  14.975
78264W        W43491  33.549  30.825  13.854
78265W        W43492   1.408  16.949  11.919
78266W        W43493  36.132  22.122   1.227
78267W        W43494   8.752  23.713   3.720
78268W        W43495   8.768  40.421   2.651
78269W        W43496  38.872   8.652   1.899
78270W        W43497   9.822  10.876  13.363
78271W        W43498   5.537  44.883  12.189
78272W        W43499   5.803  33.023   1.739
78273W        W43500   1.725   2.366   2.809
78274W        W43501  38.093   7.890   4.046
78275W        W43502  25.090  24.521   2.353
78276W        W43503  12.594   5.393   0.512
78277W        W43504  24.021  20.911   1.371
78278W        W43505   5.152  22.595  14.714
78279W        W43506  30.737   5.508   2.376
78280W        W43507  34.753  28.920   0.946
78281W        W43508  31.614  36.279  13.399
78282W        W43509  10.315  40.527   3.426
78283W        W43510  23.696  25.767   3.249
78284W        W43511  16.255  33.589   3.146
78285W        W43512  18.052   3.997   2.952
78286W        W43513  41.342  40.356   3.196
78287W        W43514  11.884  36.599   0.224
78288W        W43515  28.540  10.558   0.893
78289W        W43516  36.262  16.581   3.680
78290W        W43517  36.853  21.197  14.198
78291W        W43518   7.752  29.718  14.270
78292W        W43519   8.111  41.581   1.339
78293W        W43520   7.235   6.340   2.415
78294W        W43521  41.680  38.546   3.106
78295W        W43522  41.040   0.985   4.894
78296W        W43523  17.098  19.522   1.370
78297W        W43524  14.562  41.973   5.048
78298W        W43525   6.329  33.161  13.269
78299W        W43526  16.187  26.089   5.146
78300W        W43527  15.323  29.648  13.850
78301W        W43528  25.848   4.693  12.770
78302W        W43529   9.827  25.773  10.215
78303W        W43530  12.445  19.728   4.964
78304W        W43531   5.745  19.026   3.745
78305W        W43532   0.988  16.321   4.222
78306W        W43533  16.145   7.188  14.780
78307W        W43534  23.183  21.647   4.406
78308W        W43535  32.689  12.786   5.083
78309W        W43536  26.137  23.300   0.414
78310W        W43537  20.459   9.134   1.024
78311W        W43538  11.266   5.277   1.693
78312W        W43539  14.717  13.817   3.921
78313W        W43540  11.702  21.735  11.071
78314W        W43541  44.300  14.059  11.152
78315W        W43542   4.377  18.674   1.297
78316W        W43543  28.193   6.882   4.591
78317W        W43544  11.595  43.925  12.888
78318W        W43545  36.919  14.754   0.881
78319W        W43546  36.784  30.392  13.394
78320W        W43547  40.307  42.790   2.645
78321W        W43548  34.991  10.906  13.275
78322W        W43549  18.377  13.706   3.696
78323W        W43550  42.816   7.451   1.018
78324W        W43551  27.001   4.051  14.280
78325W        W43552   3.504  34.659   0.295
78326W        W43553  27.554  32.219  11.149
78327W        W43554  21.484  29.155  13.016
78328W        W43555  25.981  17.201   3.332
78329W        W43556   8.279  43.905   4.940
78330W        W43557   0.435  14.220   0.524
78331W        W43558  25.590  42.249  13.830
78332W        W43559   9.405  33.371   5.571
78333W        W43560  33.163  11.088  12.125
78334W        W43561   8.968  17.268   1.206
78335W        W43562   5.956  43.009  12.393
78336W        W43563  27.186  12.697  13.546
78337W        W43564  15.830  42.020  13.923
78338W        W43565  27.116  36.472  13.874
78339W        W43566  22.465  30.500  10.703
78340W        W43567  37.553   1.860   2.873
78341W        W43568   6.970  26.532   4.205
78342W        W43569  28.080   1.339   4.125
78343W        W43570   1.905  42.345   2.176
78344W        W43571  44.577  13.341  12.626
78345W        W43572  20.490   5.690   4.156
78346W        W43573   5.329  35.853  13.010
78347W        W43574   1.657  19.793  10.776
78348W        W43575   1.035  43.494  14.692
78349W        W43576   1.095  43.867  14.332
78350W        W43577  20.180  11.399   3.580
78351W        W43578  23.517  23.637  12.579
78352W        W43579  31.584  44.967  13.618
78353W        W43580   8.712  30.873   4.666
78354W        W43581  11.008  11.259   3.111
78355W        W43582  22.074   6.799  11.051
78356W        W43583  15.066  42.649  10.933
78357W        W43584  44.635  37.842  13.359
78358W        W43585  17.234  43.304   2.286
78359W        W43586  26.010   6.448  12.357
78360W        W43587  23.029  17.347   0.843
78361W        W43588  41.489  25.241  14.386
78362W        W43589  27.942  27.595   2.918
78363W        W43590  18.580  12.354  11.513
78364W        W43591   3.805  40.316   1.615
78365W        W43592  36.145   3.284  13.345
78366W        W43593  39.077  18.326   1.967
78367W        W43594  40.498  32.594  13.707
78368W        W43595  36.339  32.049   3.307
78369W        W43596  32.749  15.120  12.348
78370W        W43597  18.387  20.191   3.736
78371W        W43598   4.213  15.699  12.157
78372W        W43599  18.812   0.873   0.849
78373W        W43600  42.380  23.107  10.948
78374W        W43601  15.478  14.097  14.553
78375W        W43602  28.930  28.245  12.215
78376W        W43603  39.594  41.860   1.741
78377W        W43604  24.730  36.504  10.872
78378W        W43605  43.363   0.830  10.910
78379W        W43606  23.981  24.503   2.692
78380W        W43607  21.556   3.016  11.257
78381W        W43608  18.421  15.557   2.841
78382W        W43609  17.727  11.102   2.689
78383W        W43610   0.799   3.120  14.279
78384W        W43611   4.966  27.762  13.544
78385W        W43612  28.025   6.060  13.344
78386W        W43613  25.011  33.499  11.593
78387W        W43614  32.236  30.681   3.674
78388W        W43615  34.588  31.053   3.701
78389W        W43616  11.935  24.145   1.836
78390W        W43617  44.746  31.452  14.814
78391W        W43618  34.479  34.620  11.291
78392W        W43619  32.118  21.597  13.274
78393W        W43620   3.924  28.697   3.307
78394W        W43621  14.140  39.361   1.359
78395W        W43622  31.838  37.558   2.799
78396W        W43623   2.260  34.787   1.844
78397W        W43624  21.519  32.895  14.715
78398W        W43625   2.595  25.265   0.130
78399W        W43626  19.246  36.036   1.819
78400W        W43627  32.437  21.877  13.928
78401W        W43628  32.581  26.378   1.242
78402W        W43629  24.126  38.976  10.807
78403W        W43630  43.971  43.214  12.261
78404W        W43631   5.746  39.787  14.088
78405W        W43632  29.871   3.422  10.967
78406W        W43633  26.170  13.638   3.885
78407W        W43634  15.090  30.601  11.420
78408W        W43635  12.619  22.645   2.193
78409W        W43636  41.987   3.966  12.811
78410W        W43637   5.169   5.278  11.649
78411W        W43638   2.670  41.391   0.733
78412W        W43639  40.296  37.109  12.133
78413W        W43640   0.746  44.542   2.788
78414W        W43641   9.107  26.417   4.549
78415W        W43642  41.002  20.440   3.745
78416W        W43643  20.532  34.706   3.697
78417W        W43644  26.016   8.745  13.688
78418W        W43645  43.775   6.147  11.168
78419W        W43646   5.313  25.591  14.489
78420W        W43647  17.159  32.322   2.689
78421W        W43648  14.370   2.886  14.359
78422W        W43649  22.967   8.258   0.769
78423W        W43650  41.531  39.552  12.835
78424W        W43651  13.504  35.893   3.755
78425W        W43652   8.865  13.712   1.118
78426W        W43653  15.971  38.926   2.423
78427W        W43654  38.065   2.386   2.903
78428W        W43655  42.511  36.106   4.687
78429W        W43656   8.867   8.513   4.647
78430W        W43657   7.260  31.902  13.959
78431W        W43658   5.454   8.210  11.530
78432W        W43659  41.584   2.654   1.668
78433W        W43660  19.688  23.977  14.777
78434W        W43661  41.086  40.548  11.628
78435W        W43662  12.638  29.051   4.550
78436W        W43663  18.799   5.423  14.997
78437W        W43664  25.925  35.641  14.344
78438W        W43665   2.974  23.119   4.707
78439W        W43666   2.980   5.993   3.065
78440W        W43667  38.915  19.983   3.255
78441W        W43668   4.695  24.145  11.527
78442W        W43669  22.244  15.589   1.687
78443W        W43670  13.507  40.720  14.354
78444W        W43671  35.655  37.663  10.222
78445W        W43672  24.964  40.901  12.156
78446W        W43673  12.122  21.256   0.002
78447W        W43674  44.315  43.757   3.424
78448W        W43675   7.286  24.397   1.334
78449W        W43676   9.795  26.723  13.494
78450W        W43677  12.204  34.861  13.409
78451W        W43678  38.259   3.996   3.157
78452W        W43679   7.838   5.768  13.879
78453W        W43680  15.204  31.237   3.819
78454W        W43681   9.717  37.589  12.338
78455W        W43682  10.815  10.131  13.924
78456W        W43683  30.701  28.579  11.581
78457W        W43684   1.412   4.190  13.779
78458W        W43685  30.607  29.367   2.206
78459W        W43686  43.840   2.817  12.107
78460W        W43687  26.658  15.229   1.581
78461W        W43688  42.821  33.938   2.944
78462W        W43689  37.402  13.072   5.010
78463W        W43690  24.014  14.173   3.473
78464W        W43691   7.213  25.601  13.371
78465W        W43692  41.252  38.703  11.446
78466W        W43693   5.223  20.984  14.756
78467W        W43694  24.976  30.988   2.280
78468W        W43695   1.358  13.381  12.122
78469W        W43696  30.402  44.860   2.612
78470W        W43697  32.344  43.273   1.787
78471W        W43698  12.724  28.638  14.359
78472W        W43699   2.278  26.967  12.436
78473W        W43700  28.555   1.530  10.910
78474W        W43701  17.728  23.683   2.209
78475W        W43702  19.094  19.585   3.522
78476W        W43703  36.713  12.021  11.587
78477W        W43704  15.234   2.014   1.294
78478W        W43705  31.531  24.498   3.920
78479W        W43706   4.860  33.889   0.595
78480W        W43707  20.455  23.143  13.636
78481W        W43708   4.764  15.352   2.189
78482W        W43709  24.414  44.722   2.114
78483W        W43710  25.582   6.884  13.361
78484W        W43711   5.289   0.515  13.737
78485W        W43712  40.961   0.275   1.524
78486W        W43713  17.388  22.045   4.042
78487W        W43714   8.019  10.667  13.493
78488W        W43715  28.073  16.041   2.854
78489W        W43716  11.180  23.124  10.872
78490W        W43717  16.290  43.995   0.783
78491W        W43718  33.374   5.586   2.968
78492W        W43719  32.507  43.343   0.748
78493W        W43720   8.489  31.564   2.126
78494W        W43721  29.339  31.083   4.864
78495W        W43722  22.106  41.762  14.954
78496W        W43723  38.921  28.513   4.100
78497W        W43724   2.298  39.438   2.475
78498W        W43725  41.507  33.362  11.608
78499W        W43726  25.094  19.738  14.037
78500W        W43727  20.293  12.151  14.453
78501W        W43728  18.634  33.458  12.278
78502W        W43729   6.266  30.391   2.571
78503W        W43730  30.507  25.579  10.228
78504W        W43731  35.866   3.416   1.238
78505W        W43732   8.537   3.307   4.128
78506W        W43733  27.273  27.189   3.124
78507W        W43734   0.996   4.943   0.240
78508W        W43735   6.300  21.546  11.204
78509W        W43736  33.389  13.675  14.424
78510W        W43737  26.011  35.015   2.529
78511W        W43738  23.784   5.154   1.207
78512W        W43739  29.380  14.397  11.854
78513W        W43740  25.189  25.763   5.005
78514W        W43741  33.968  21.084   2.723
78515W        W43742  14.966   2.557  14.928
78516W        W43743  31.522   0.920  10.932
78517W        W43744   6.633  10.597  14.309
78518W        W43745  28.668  11.555   4.500
78519W        W43746  20.136   9.099   4.121
78520W        W43747   0.239  36.656   3.223
78521W        W43748  12.714   3.205  14.620
78522W        W43749  34.388  25.452  13.973
78523W        W43750  42.450  25.978   2.155
78524W        W43751  43.000  31.987   0.806
78525W        W43752  29.012  26.512   3.570
78526W        W43753  14.142  19.150  11.820
78527W        W43754  41.295  37.434  14.499
78528W        W43755  35.781  44.262   0.753
78529W        W43756  36.880  34.030  12.584
78530W        W43757  10.426   3.313   4.358
78531W        W43758  12.176  18.699  11.256
78532W        W43759  16.266  34.330  11.425
78533W        W43760  19.256  32.151   4.646
78534W        W43761  11.345  34.782   3.580
78535W        W43762   6.210  25.945   0.255
78536W        W43763  12.160  16.736  14.744
78537W        W43764  17.319  35.121  13.833
78538W        W43765  33.928  36.229   4.170
78539W        W43766  36.593  29.987  13.142
78540W        W43767   6.257  13.127  13.899
78541W        W43768  15.859  11.337  14.791
78542W        W43769  24.217   7.601  12.008
78543W        W43770   0.721  29.553   1.278
78544W        W43771   7.360  33.146   3.587
78545W        W43772  40.845  42.989   4.554
78546W        W43773   6.197  14.340   4.070
78547W        W43774  17.104  35.049   1.215
78548W        W43775  12.299   8.711   3.345
78549W        W43776   2.212  22.268   3.322
78550W        W43777  28.573  24.707   3.304
78551W        W43778  43.063   0.400  14.539
78552W        W43779   8.774  32.055  10.942
78553W        W43780  28.216  14.751   3.008
78554W        W43781  35.914   5.856   4.195
78555W        W43782  42.071  42.547   1.883
78556W        W43783  30.045  21.920   3.270
78557W        W43784  22.269  16.470   2.799
78558W        W43785  37.500   9.958   1.404
78559W        W43786  12.757   0.380   4.507
78560W        W43787  31.375  44.487   3.926
78561W        W43788  16.770  35.410   0.933
78562W        W43789  16.260   0.475  10.801
78563W        W43790  20.202  24.230  14.673
78564W        W43791  18.762  33.354   0.506
78565W        W43792  14.599  20.776  10.767
78566W        W43793  13.204  33.888   1.244
78567W        W43794   6.781  19.124  14.793
78568W        W43795  15.490   1.413  11.536
78569W        W43796  25.790   5.705  11.213
78570W        W43797  25.217  29.142   1.948
78571W        W43798  24.080  44.643   3.033
78572W        W43799  29.892  21.582   1.684
78573W        W43800   6.756  31.886   1.644
78574W        W43801  40.522  38.920   3.293
78575W        W43802  17.713  28.702  14.167
78576W        W43803  37.749  37.864  14.908
78577W        W43804  29.274  37.656   3.486
78578W        W43805   0.391  41.015   3.511
78579W        W43806   0.748  34.008  14.348
78580W        W43807  20.223   9.891   3.756
78581W        W43808  38.883  11.671   5.110
78582W        W43809  26.767  22.567   4.186
78583W        W43810  39.339  14.085   4.113
78584W        W43811   4.399  44.988  13.605
78585W        W43812  18.424   1.461  13.491
78586W        W43813  15.096  30.469  13.336
78587W        W43814  26.112  14.498  12.423
78588W        W43815  32.125   4.468   1.799
78589W        W43816  30.602   0.475  12.547
78590W        W43817  30.579   6.482  12.934
78591W        W43818   6.064  12.541  11.805
78592W        W43819  14.407  43.293  14.397
78593W        W43820  25.023  40.525  13.921
78594W        W43821  24.562  13.801  12.112
78595W        W43822  10.825  20.622   3.267
78596W        W43823  41.928  41.048   0.819
78597W        W43824  22.226  33.512   0.113
78598W        W43825  14.230  44.013  13.240
78599W        W43826   4.705  10.767  14.712
78600W        W43827  34.030   5.185  11.047
78601W        W43828  31.218  30.132  13.446
78602W        W43829  19.465  12.377  11.092
78603W        W43830  30.832  20.245   4.684
78604W        W43831  34.898   7.449  11.537
78605W        W43832  40.572  18.510  12.199
78606W        W43833  15.266  42.760  14.015
78607W        W43834  29.431  32.560  14.422
78608W        W43835  40.671  22.718  11.186
78609W        W43836  22.696   6.275  12.423
78610W        W43837   4.939  26.649  11.649
78611W        W43838   6.287  17.287   2.758
78612W        W43839  29.661  16.277  13.599
78613W        W43840  30.587  35.666   0.755
78614W        W43841  32.263   5.315   3.148
78615W        W43842   6.608  20.793  11.637
78616W        W43843  21.136  28.786  13.109
78617W        W43844   6.482  41.266   3.732
78618W        W43845   4.351  33.883   2.379
78619W        W43846   4.418  33.029   1.879
78620W        W43847  29.522  38.899   3.108
78621W        W43848   1.017  22.930   5.583
78622W        W43849  37.083   7.421   1.980
78623W        W43850  16.032  30.969  11.273
78624W        W43851  37.597  31.332  13.676
78625W        W43852  25.043  36.269   1.963
78626W        W43853  12.206  11.733   0.356
78627W        W43854  26.686  38.083  14.941
78628W        W43855  10.389  36.549  13.735
78629W        W43856   5.817  35.811   1.315
78630W        W43857  24.212  33.084  10.731
78631W        W43858  13.631  16.603  10.692
78632W        W43859   9.045   0.199   0.982
78633W        W43860  25.668  18.495   4.121
78634W        W43861  39.849  13.567   3.564
78635W        W43862  27.117  38.383  13.273
78636W        W43863  23.004  25.702  11.463
78637W        W43864  32.364  14.180   1.063
78638W        W43865  13.191  25.612  14.898
78639W        W43866  21.563   2.894  14.614
78640W        W43867  17.878   7.836  10.816
78641W        W43868   4.979   8.768   1.722
78642W        W43869   3.097   0.520   0.655
78643W        W43870  34.190  39.340  12.293
78644W        W43871  21.136   2.207   1.250
78645W        W43872  36.384  15.279  10.646
78646W        W43873   9.761  40.073   3.664
78647W        W43874  33.299   0.489   0.386
78648W        W43875  38.525  38.011   0.390
78649W        W43876   6.370  17.787   1.771
78650W        W43877  32.128   1.690  12.535
78651W        W43878  43.579  38.081   0.722
78652W        W43879  26.932  39.284  11.488
78653W        W43880   4.342  29.412  11.978
78654W        W43881   2.644   1.913  11.109
78655W        W43882  26.917  31.820  12.727
78656W        W43883  39.025   6.746   0.543
78657W        W43884  28.077  36.129   3.160
78658W        W43885   7.432   5.250  14.611
78659W        W43886  14.380  24.722   0.707
78660W        W43887  43.425  38.270   4.845
78661W        W43888  13.671   0.305   4.203
78662W        W43889  42.318  28.191  14.914
78663W        W43890  41.330  20.320  12.519
78664W        W43891   4.936   4.854   1.917
78665W        W43892  43.991   9.602  13.039
78666W        W43893  19.014   7.862   2.456
78667W        W43894   3.209  40.977  12.041
78668W        W43895  34.636  17.719   4.182
78669W        W43896  44.009  12.120   2.832
78670W        W43897  14.577  42.912   0.888
78671W        W43898  18.287  28.979  12.585
78672W        W43899  18.591  31.273   4.639
78673W        W43900  16.259  17.726   2.447
78674W        W43901  23.011  15.213  13.776
78675W        W43902  18.883  25.948   4.063
78676W        W43903  33.105  23.201   3.573
78677W        W43904  32.105   5.423  13.542
78678W        W43905  26.034  11.547   1.175
78679W        W43906  28.928  37.974   3.245
78680W        W43907  33.480  43.980   0.338
78681W        W43908  19.616  14.320   4.172
78682W        W43909  43.404  40.842   2.206
78683W        W43910  11.758  15.803  14.260
78684W        W43911  41.021   2.345  14.733
78685W        W43912  42.854  28.394  13.321
78686W        W43913  31.405  40.345   1.600
78687W        W43914  12.231  18.343  14.971
78688W        W43915   9.589  39.825  12.129
78689W        W43916   5.762  22.156   0.464
78690W        W43917  27.571   6.388   1.955
78691W        W43918  43.488  16.828   3.754
78692W        W43919  26.291  24.777   3.734
78693W        W43920  24.475  20.049   0.276
78694W        W43921  19.869   2.625   2.302
78695W        W43922   1.185   8.515   2.913
78696W        W43923   8.157  17.925   3.898
78697W        W43924  18.035  36.805  12.950
78698W        W43925  33.566  37.433   1.384
78699W        W43926  25.651  36.767   1.971
78700W        W43927   5.614  12.686  11.579
78701W        W43928  39.406   8.370   0.763
78702W        W43929  29.534   3.123  11.799
78703W        W43930  27.183  22.983   1.550
78704W        W43931   2.054  14.309  11.701
78705W        W43932   1.400   5.946  12.669
78706W        W43933  28.924  11.258   3.365
78707W        W43934   2.019  24.720  12.617
78708W        W43935  13.950  35.614  12.824
78709W        W43936  12.426   1.262   2.669
78710W        W43937   7.361  19.203  12.303
78711W        W43938  37.297  17.862  11.162
78712W        W43939  36.563  17.273   0.480
78713W        W43940  34.409  14.131   0.899
78714W        W43941   7.467  34.069  12.401
78715W        W43942  10.767  12.478   4.190
78716W        W43943  16.741   7.634  13.085
78717W        W43944   5.562  28.277   5.546
78718W        W43945  12.179  12.574  14.819
78719W        W43946  41.816  40.004  10.837
78720W        W43947   5.739  13.703   1.427
78721W        W43948   1.539  26.809  11.369
78722W        W43949  25.172  26.118  14.748
78723W        W43950   4.930  15.657  12.827
78724W        W43951  18.704  15.094  13.338
78725W        W43952  16.913  37.005  14.049
78726W        W43953   0.999   0.483  12.883
78727W        W43954  22.768  27.890  12.939
78728W        W43955  16.799  39.461  10.541
78729W        W43956   6.754  23.484  11.181
78730W        W43957   0.522  38.959  12.704
78731W        W43958  20.390  16.153   0.982
78732W        W43959  20.577  36.147  12.150
78733W        W43960  32.584  24.419  14.337
78734W        W43961  15.130  37.867  11.107
78735W        W43962  28.134  10.191   1.233
78736W        W43963   2.303  14.769  14.349
78737W        W43964  21.115  34.465   0.757
78738W        W43965  23.007  19.301  12.001
78739W        W43966  19.500  19.697  11.152
78740W        W43967  14.131  22.232   1.674
78741W        W43968  26.732  39.159  14.420
78742W        W43969   7.880  27.441  11.985
78743W        W43970  17.731   8.686   2.154
78744W        W43971  20.298  25.521  14.430
78745W        W43972  21.461   4.392   4.525
78746W        W43973  22.752  39.530   1.712
78747W        W43974  33.775  18.300   9.807
78748W        W43975  34.023  14.826   3.198
78749W        W43976  14.631  42.112  10.608
78750W        W43977  34.520  29.500   4.875
78751W        W43978  16.561   3.840   4.681
78752W        W43979  21.667  14.325  11.715
78753W        W43980  16.824  20.902  13.055
78754W        W43981  38.993  11.729   0.904
78755W        W43982  22.003  15.643   0.202
78756W        W43983  27.743  30.111   3.661
78757W        W43984  31.837  44.033   5.044
78758W        W43985   1.216  17.691   3.110
78759W        W43986  34.542  42.510  14.572
78760W        W43987  25.100  13.055  10.745
78761W        W43988   7.795   8.077  14.159
78762W        W43989   7.605   6.844  11.909
78763W        W43990  40.209  17.252  10.577
78764W        W43991  40.856  14.194   0.228
78765W        W43992  23.621  32.370  14.825
78766W        W43993  32.704  40.875  11.641
78767W        W43994  44.512  12.088  10.136
78768W        W43995  10.917  23.257   4.438
78769W        W43996  39.830  43.389  11.019
78770W        W43997   6.399  33.349   0.776
78771W        W43998  23.529  39.392   4.609
78772W        W43999  24.578  40.337   4.619
78773W        W44000  14.058   0.307  13.611
78774W        W44001   5.997  12.400   1.212
78775W        W44002  21.017  24.165   2.239
78776W        W44003   3.422  17.059  13.578
78777W        W44004  11.136   7.758   1.304
78778W        W44005  13.225  44.271  14.530
78779W        W44006  17.293  31.993  11.329
78780W        W44007  16.114   9.833  12.925
78781W        W44008  23.219  40.049   3.031
78782W        W44009  21.038  26.737  13.701
78783W        W44010  34.422   8.599  14.887
78784W        W44011   5.949  34.866   1.813
78785W        W44012  34.985   8.320  11.901
78786W        W44013  16.777  30.212  12.680
78787W        W44014   6.827  18.984   2.359
78788W        W44015  18.590  14.222   3.050
78789W        W44016  38.109  11.800   2.729
78790W        W44017  40.358  20.228   0.440
78791W        W44018  39.557  20.594   1.940
78792W        W44019  26.537   1.369  10.917
78793W        W44020   2.716  16.580   0.366
78794W        W44021  18.127  29.009  11.565
78795W        W44022  20.130  27.869  12.287
78796W        W44023   5.717  40.288  13.937
78797W        W44024   1.266  36.575  14.908
78798W        W44025  15.293  40.408  11.620
78799W        W44026   6.387  33.312   5.319
78800W        W44027  26.785  40.019   3.251
78801W        W44028  18.938  16.105   0.834
78802W        W44029  30.403   4.149   0.026
78803W        W44030  22.056   7.208  13.572
78804W        W44031  30.961   1.462  13.434
78805W        W44032  17.253  44.332   3.328
78806W        W44033  17.532  16.355   1.268
78807W        W44034  29.707  37.606   0.109
78808W        W44035  38.350  39.289   4.165
78809W        W44036   2.568  14.291  11.662
78810W        W44037  33.625  31.759  10.354
78811W        W44038  15.879  19.981  13.852
78812W        W44039  15.818  41.800   4.024
78813W        W44040  30.318  19.316  14.106
78814W        W44041  12.287   5.945   1.635
78815W        W44042  37.128  13.340   0.882
78816W        W44043  15.492  30.701   4.273
78817W        W44044  25.609   4.929   4.495
78818W        W44045  25.336   9.818   2.113
78819W        W44046  14.874  32.211  11.570
78820W        W44047  14.713  37.478   3.236
78821W        W44048  42.725  23.196  13.013
78822W        W44049  33.122  38.176   2.843
78823W        W44050  19.213  16.700  13.969
78824W        W44051  15.367  37.760   3.167
78825W        W44052   2.670  10.162   0.885
78826W        W44053  24.542   7.255  12.582
78827W        W44054   7.248  36.379   0.556
78828W        W44055  39.250   7.816  11.432
78829W        W44056  31.965  24.729  12.099
78830W        W44057  39.520  28.597   1.009
78831W        W44058  43.310  27.551  14.253
78832W        W44059  34.853  15.728  12.066
78833W        W44060  30.671  41.428   0.236
78834W        W44061  33.063  24.741   4.068
78835W        W44062  24.375  20.994   3.688
78836W        W44063  29.368  19.181   1.975
78837W        W44064  33.019  12.180   0.418
78838W        W44065  16.841  36.333   4.648
78839W        W44066  34.674  21.248   2.342
78840W        W44067  26.134  44.653  12.955
78841W        W44068  36.060   0.395   0.359
78842W        W44069   8.618   6.707  13.915
78843W        W44070   8.302  19.889  14.094
78844W        W44071   4.823   1.349   2.942
78845W        W44072  34.403  24.311   2.399
78846W        W44073  20.539   4.307  13.102
78847W        W44074   0.801   8.676  13.598
78848W        W44075   2.194  24.682   9.877
78849W        W44076  21.629  32.397  14.422
78850W        W44077  20.248  21.329   0.266
78851W        W44078  29.341  11.209   0.266
78852W        W44079  33.083  14.072   2.203
78853W        W44080  26.214   5.289  14.366
78854W        W44081  10.359  31.939  13.476
78855W        W44082   5.349   1.745   1.698
78856W        W44083  35.331  32.661  11.563
78857W        W44084  39.520  24.992  11.113
78858W        W44085  24.943  15.079  12.133
78859W        W44086  16.677   9.359  10.930
78860W        W44087  33.978  39.845   3.390
78861W        W44088  21.675   5.051  10.674
78862W        W44089  26.037  34.153  12.005
78863W        W44090  42.773  23.013  10.650
78864W        W44091   8.836  18.732  11.543
78865W        W44092  21.611   2.440   0.441
78866W        W44093  22.281  23.259  14.037
78867W        W44094  29.203  32.814  11.374
78868W        W44095  19.317  25.681  11.069
78869W        W44096  27.050  17.345   2.380
78870W        W44097  42.306  24.659   2.516
78871W        W44098  13.637  32.066  11.971
78872W        W44099   8.494  30.357   0.774
78873W        W44100  40.780  15.203   1.985
78874W        W44101  28.026   2.430   2.286
78875W        W44102  41.893  22.749  12.011
78876W        W44103  25.152  34.978   0.972
78877W        W44104  19.098  20.386   4.760
78878W        W44105   2.232  32.471   1.814
78879W        W44106  12.140  37.027  10.612
78880W        W44107  33.192   8.249  11.998
78881W        W44108  22.111  44.162   0.297
78882W        W44109   7.465  12.856  13.379
78883W        W44110  28.418  17.193   4.385
78884W        W44111   2.933  22.528  13.527
78885W        W44112  12.811  40.432   0.144
78886W        W44113  17.364   7.458  12.818
78887W        W44114  12.384   9.019  14.743
78888W        W44115  17.098  37.532   3.311
78889W        W44116  27.426  42.766   1.646
78890W        W44117  26.072  26.544   2.778
78891W        W44118   8.392   0.432   4.180
78892W        W44119  20.239  38.869  10.622
78893W        W44120  12.752  35.442  10.191
78894W        W44121   1.106  31.545  14.540
78895W        W44122  34.150  21.060   0.840
78896W        W44123  15.614  42.224   4.237
78897W        W44124  28.960  20.765  10.576
78898W        W44125   6.351  39.304   1.288
78899W        W44126  38.674  41.532   0.441
78900W        W44127  22.258  17.474   3.804
78901W        W44128  41.526  29.342   0.365
78902W        W44129   2.368  32.170  14.516
78903W        W44130   9.432  13.986  11.209
78904W        W44131  16.312  32.957  12.944
78905W        W44132  11.793  24.116   3.945
78906W        W44133  39.861  13.333   1.806
78907W        W44134  25.057  27.909   3.338
78908W        W44135  22.550  10.711   2.420
78909W        W44136  40.214  18.708   0.797
78910W        W44137  35.326  32.656   0.813
78911W        W44138   5.950  33.511  13.129
78912W        W44139   4.855  37.623  11.205
78913W        W44140  14.937  17.267   4.030
78914W        W44141  25.975   6.050  10.891
78915W        W44142  12.362  16.695  13.259
78916W        W44143  13.693  36.927   1.198
78917W        W44144  41.869  24.145  12.030
78918W        W44145  42.031   1.327  11.017
78919W        W44146  33.898  33.071   1.300
78920W        W44147  15.202   8.352  11.148
78921W        W44148  16.501  14.569   0.676
78922W        W44149  17.156  37.524   4.922
78923W        W44150  43.377   0.061  11.903
78924W        W44151  32.582  15.141   4.004
78925W        W44152  22.686  34.625   4.166
78926W        W44153  14.366  21.601   2.682
78927W        W44154  33.970  35.406  11.187
78928W        W44155  33.477  43.960  12.592
78929W        W44156  27.326  43.615   2.369
78930W        W44157  39.565  41.949   0.814
78931W        W44158  38.090  33.426   2.285
78932W        W44159  40.098  23.521   2.173
78933W        W44160  33.651   8.830  10.560
78934W        W44161  18.285   8.625  10.486
78935W        W44162  13.934   8.186   4.182
78936W        W44163   6.599  40.904  13.430
78937W        W44164  38.043  18.570  14.414
78938W        W44165   6.316  27.509  10.963
78939W        W44166  28.662  12.363   3.709
78940W        W44167  43.268  37.662  12.415
78941W        W44168  11.307  43.485  10.612
78942W        W44169  27.397  14.634   0.020
78943W        W44170  16.056  15.060   4.857
78944W        W44171  13.259  13.043  12.034
78945W        W44172   6.425   4.034   0.845
78946W        W44173  21.937  26.913   3.279
78947W        W44174  15.336  29.122   0.395
78948W        W44175   0.898  32.360   2.886
78949W        W44176   9.296  24.407  11.951
78950W        W44177   1.782  32.763  12.821
78951W        W44178  40.966  16.124  11.380
78952W        W44179  41.688  33.948   4.557
78953W        W44180  27.163  28.173   3.149
78954W        W44181   8.652   6.437   0.332
78955W        W44182   3.150   6.852   1.699
78956W        W44183  18.364   4.941   1.443
78957W        W44184  39.849   5.471  13.469
78958W        W44185  44.344  32.499  12.544
78959W        W44186   2.758  21.248  10.579
78960W        W44187   2.201   3.041   1.403
78961W        W44188  31.985  13.893  11.057
78962W        W44189  35.150  41.878   0.570
78963W        W44190   9.200  36.354  12.432
78964W        W44191  40.609  41.433  14.434
78965W        W44192  28.172   7.193  13.161
78966W        W44193  36.152  16.691   0.884
78967W        W44194  43.390   5.371  14.951
78968W        W44195  44.899  29.226   2.121
78969W        W44196  27.911  30.402   1.273
78970W        W44197  36.215  17.218  12.104
78971W        W44198  13.139  29.166  11.204
78972W        W44199  37.862   8.962  12.913
78973W        W44200   2.085  13.335  13.494
78974W        W44201  26.621  37.007  10.745
78975W        W44202   8.118  40.877   0.791
78976W        W44203  22.073  23.769  12.705
78977W        W44204  15.493   5.252   0.261
78978W        W44205  10.356  23.736   0.781
78979W        W44206  12.409  15.204  11.559
78980W        W44207  24.929  40.005  11.991
78981W        W44208  40.641  30.479  10.195
78982W        W44209  31.054  30.694  13.331
78983W        W44210  23.949  27.717   4.873
78984W        W44211  12.643  21.941   1.463
78985W        W44212  21.720  14.431   4.219
78986W        W44213   1.727  23.052  14.878
78987W        W44214   0.510  36.585   3.684
78988W        W44215  38.110  23.160  13.589
78989W        W44216  22.614  33.218   1.258
78990W        W44217  12.809  14.566  14.355
78991W        W44218  24.109  38.236   3.130
78992W        W44219  40.884  26.235   0.257
78993W        W44220   0.327  42.328  14.518
78994W        W44221   1.036  36.314  12.502
78995W        W44222   7.897  18.255  14.076
78996W        W44223  35.088  29.306   2.359
78997W        W44224  33.935   8.322   0.414
78998W        W44225  18.765  17.266   4.542
78999W        W44226   9.726  30.081   2.208
79000W        W44227   8.078  14.585  11.099
79001W        W44228   1.741  19.634  12.238
79002W        W44229  43.705  20.627  10.667
79003W        W44230  28.082   2.822   0.996
79004W        W44231  38.985  26.171   2.187
79005W        W44232  26.702  33.686   0.315
79006W        W44233  15.309  30.201   3.744
79007W        W44234  16.234  25.985   0.764
79008W        W44235  30.961  15.963   0.930
79009W        W44236  38.881  29.062  10.593
79010W        W44237  16.219  23.476   2.201
79011W        W44238  43.710  35.393   2.694
79012W        W44239   8.441  28.772  14.996
79013W        W44240  25.218  27.998  12.452
79014W        W44241  12.950  36.341  13.367
79015W        W44242  43.765   6.397   4.623
79016W        W44243   2.781   0.811  10.363
79017W        W44244  38.283  42.276  11.568
79018W        W44245  30.265  42.330   1.955
79019W        W44246  42.452  26.571   3.277
79020W        W44247  16.136  31.412   4.695
79021W        W44248   5.575   1.811   3.553
79022W        W44249  20.036  31.025   2.894
79023W        W44250   9.460  44.369   2.486
79024W        W44251  33.896   3.240  11.212
79025W        W44252  12.123  34.621   1.249
79026W        W44253  26.892  32.288  12.530
79027W        W44254  28.630  25.438  12.396
79028W        W44255  16.769   6.303   2.827
79029W        W44256  20.148  30.889  11.135
79030W        W44257  13.430  37.115  14.908
79031W        W44258  16.515  32.086  13.149
79032W        W44259   7.207  21.225   4.002
79033W        W44260  37.612   9.818  10.210
79034W        W44261  29.859  43.383  13.553
79035W        W44262  20.716  44.318  14.523
79036W        W44263  15.106   9.817   1.738
79037W        W44264  17.142  30.272   2.225
79038W        W44265   5.433  42.396  13.583
79039W        W44266  14.041  21.668   2.287
79040W        W44267  22.302  14.139  13.884
79041W        W44268  15.281  34.584   3.748
79042W        W44269  12.498   2.273  11.572
79043W        W44270  26.183   1.861  10.349
79044W        W44271  16.126  34.431  12.382
79045W        W44272  41.218   6.895  13.493
79046W        W44273  16.566   8.365   3.323
79047W        W44274  13.504  18.715   3.901
79048W        W44275  30.611  12.708  13.767
79049W        W44276   5.768  27.465  12.046
79050W        W44277  34.001  22.541   1.233
79051W        W44278  13.076   1.738  14.775
79052W        W44279  23.520  39.109   3.346
79053W        W44280  13.382   9.349  12.482
79054W        W44281  25.969   1.698  13.093
79055W        W44282  33.162  21.182   2.232
79056W        W44283  18.148  15.407  12.648
79057W        W44284   4.962   7.170  10.678
79058W        W44285  33.368   9.892   1.921
79059W        W44286  39.552  39.575  11.112
79060W        W44287   3.767  29.836  14.502
79061W        W44288  28.060   9.385   4.638
79062W        W44289  42.531  27.613  13.552
79063W        W44290  37.094  41.164   4.932
79064W        W44291  34.930  15.494   3.171
79065W        W44292  26.346  41.630  13.954
79066W        W44293  31.184   1.923   4.114
79067W        W44294   4.958  11.429   3.764
79068W        W44295  15.121  44.754   0.497
79069W        W44296  13.943  27.467  12.169
79070W        W44297   6.372  19.474  11.149
79071W        W44298   4.608  33.911   3.864
79072W        W44299   5.468  10.558   2.870
79073W        W44300  32.042  27.803   1.842
79074W        W44301   8.259  10.721  12.085
79075W        W44302  28.574  21.101   3.261
79076W        W44303  37.889  31.468   1.204
79077W        W44304  30.904  23.605  11.548
79078W        W44305  28.758  35.445  14.765
79079W        W44306  10.866  14.180   4.612
79080W        W44307  37.956  33.077  11.013
79081W        W44308  21.234   0.458   1.494
79082W        W44309   7.395  17.569   4.118
79083W        W44310  18.265  27.727  13.422
79084W        W44311   1.003  21.658  10.814
79085W        W44312  31.551  16.159   1.318
79086W        W44313   1.746  26.565   2.482
79087W        W44314  32.115  19.955  13.834
79088W        W44315  15.659  27.145   4.446
79089W        W44316   4.145  41.341   3.874
79090W        W44317   3.280  24.233   1.038
79091W        W44318   2.662  26.754  12.105
79092W        W44319  35.955   7.124  14.787
79093W        W44320  27.597  27.592  12.283
79094W        W44321  10.100  38.020   4.954
79095W        W44322   3.925   9.204   2.306
79096W        W44323  21.898  28.890  13.299
79097W        W44324  40.498  28.561   1.954
79098W        W44325  23.463  30.066  10.748
79099W        W44326  29.696   2.417  10.655
79100W        W44327  19.514  32.336   5.058
79101W        W44328  37.290  12.460  13.030
79102W        W44329  16.113  34.632   4.564
79103W        W44330  30.289  24.403   4.584
79104W        W44331  38.974  25.669  10.700
79105W        W44332   4.729  14.251   3.881
79106W        W44333  26.335  17.575   3.253
79107W        W44334  18.602  26.391   4.077
79108W        W44335  13.943  12.608   0.846
79109W        W44336  16.986  42.896  10.763
79110W        W44337  24.269   6.736  13.031
79111W        W44338  30.893  15.373   4.473
79112W        W44339  39.498  35.797   0.045
79113W        W44340  41.070  44.993  10.557
79114W        W44341  24.276  29.154  10.692
79115W        W44342  21.434  19.246  13.370
79116W        W44343   1.661  11.370   4.112
79117W        W44344  26.688  16.818  12.407
79118W        W44345  14.527  43.088  12.660
79119W        W44346  37.730  11.439  12.482
79120W        W44347  32.467  17.146   3.686
79121W        W44348   3.593  33.420  14.641
79122W        W44349   0.340  31.980   0.707
79123W        W44350  12.834  20.834   4.180
79124W        W44351  37.321   8.805  14.797
79125W        W44352  34.854  33.067   0.261
79126W        W44353   9.192  24.142   4.601
79127W        W44354  36.313   5.189  12.876
79128W        W44355   3.527  25.021   1.703
79129W        W44356  25.520   9.036   1.649
79130W        W44357  34.668   2.412  12.930
79131W        W44358   1.891   5.334  14.942
79132W        W44359  36.045   9.119  14.395
79133W        W44360  29.056  15.846  11.680
79134W        W44361  20.730  43.408  12.307
79135W        W44362   2.441  37.725  14.007
79136W        W44363  16.777  13.787   1.835
79137W        W44364   8.335  39.469  13.372
79138W        W44365   4.658  24.411  12.564
79139W        W44366  39.507  26.981   2.689
79140W        W44367  43.333  23.163  14.834
79141W        W44368  29.622  21.006   4.500
79142W        W44369  28.943   9.735  12.368
79143W        W44370  38.554  22.021  12.981
79144W        W44371  44.361  19.147  13.546
79145W        W44372  40.289   4.911  13.884
79146W        W44373   4.787   4.135   1.714
79147W        W44374  38.920  13.099   0.295
79148W        W44375   7.255  26.970   2.313
79149W        W44376   6.631  33.346   2.694
79150W        W44377  13.245  21.737  13.542
79151W        W44378  22.624  19.209   1.786
79152W        W44379  19.034   3.465  11.571
79153W        W44380  28.111  16.834   4.155
79154W        W44381  15.269  18.742  12.604
79155W        W44382  42.075  44.060  13.740
79156W        W44383  24.065  18.871   2.226
79157W        W44384   0.384  11.093  10.387
79158W        W44385   4.535   3.896   3.276
79159W        W44386  28.040   4.778  12.354
79160W        W44387  20.165  19.908   4.254
79161W        W44388  44.936  28.573   0.013
79162W        W44389  36.571  42.471   1.390
79163W        W44390  24.715  30.883   3.535
79164W        W44391  23.547  23.079  14.560
79165W        W44392  25.082  16.860   0.413
79166W        W44393  10.860  16.313  14.982
79167W        W44394  16.562  18.019   1.405
79168W        W44395  44.282  13.029   3.123
79169W        W44396  20.191  25.037   4.080
79170W        W44397  41.530   5.410  14.632
79171W        W44398  34.918   8.760  10.226
79172W        W44399  22.208  25.511   3.851
79173W        W44400   7.069   2.713  14.461
79174W        W44401  12.439  30.503   3.946
79175W        W44402   2.829   5.917   0.614
79176W        W44403  11.818  42.557  13.421
79177W        W44404  32.208  15.787   4.565
79178W        W44405  33.522  42.964   0.298
79179W        W44406  11.969  33.439  13.406
79180W        W44407  42.564  33.575   1.165
79181W        W44408  35.782  41.487   0.476
79182W        W44409   0.642  38.523   4.666
79183W        W44410   1.826  13.634  11.876
79184W        W44411   6.664  20.161   4.119
79185W        W44412  10.402  25.659   1.131
79186W        W44413  31.490  41.856   0.957
79187W        W44414  40.452  33.117  13.771
79188W        W44415  18.174  42.554   0.220
79189W        W44416   2.257  33.136   3.422
79190W        W44417  39.801  44.319  13.903
79191W        W44418  40.051  31.339  12.478
79192W        W44419   4.360  30.890   1.149
79193W        W44420   6.571  43.119  11.549
79194W        W44421   2.029   6.097   4.061
79195W        W44422  40.439  43.028   0.604
79196W        W44423  27.675   4.675   1.365
79197W        W44424  34.232   4.971  14.739
79198W        W44425  11.613   7.377  11.455
79199W        W44426   1.583   1.513   2.677
79200W        W44427  25.154  34.463   0.912
79201W        W44428  11.794  19.110  10.732
79202W        W44429  34.774  23.012  13.721
79203W        W44430  28.139  33.111  10.955
79204W        W44431  31.655  40.461   1.164
79205W        W44432  29.211  36.631  11.646
79206W        W44433   4.718  15.403   0.826
79207W        W44434   3.706  21.249  10.467
79208W        W44435  32.102  38.459  14.348
79209W        W44436  43.796   3.510   1.721
79210W        W44437   8.821  27.935   0.462
79211W        W44438  21.043  44.255  13.073
79212W        W44439  35.869   5.661  10.608
79213W        W44440  11.739  34.688  10.697
79214W        W44441   9.340  20.438  13.357
79215W        W44442  10.375  29.324  11.944
79216W        W44443  34.122   3.381   3.245
79217W        W44444  31.205  21.674   1.343
79218W        W44445   1.356  10.377  14.375
79219W        W44446  36.774  39.903  13.287
79220W        W44447  27.391   9.800   3.516
79221W        W44448  42.403  16.679   1.242
79222W        W44449  27.169   4.472  12.527
79223W        W44450  39.281  30.696  11.383
79224W        W44451   1.829   7.891   3.646
79225W        W44452  11.631   6.861  12.823
79226W        W44453  30.970  24.491   0.791
79227W        W44454  44.418  10.433   0.774
79228W        W44455  28.353  27.180   5.504
79229W        W44456  38.391   6.626  13.808
79230W        W44457  16.873   7.985   0.527
79231W        W44458  19.309  38.622  14.920
79232W        W44459  31.921  37.280   1.492
79233W        W44460   1.720   3.840  13.939
79234W        W44461  18.683   8.085  14.522
79235W        W44462  37.040   1.557  10.911
79236W        W44463  10.840  10.932  12.477
79237W        W44464  39.611  39.487   2.664
79238W        W44465  21.962  36.295  11.728
79239W        W44466  19.942  14.720   4.272
79240W        W44467   3.916  32.481  12.871
79241W        W44468  44.545   9.435   0.547
79242W        W44469   1.963  10.305  13.557
79243W        W44470   4.909  10.291  14.583
79244W        W44471  38.676  37.002   0.060
79245W        W44472  34.869   3.945  11.658
79246W        W44473  29.689   6.220  14.303
79247W        W44474  10.177  13.072   3.751
79248W        W44475  21.999  12.634   3.674
79249W        W44476  17.331  22.673  13.687
79250W        W44477  10.762  17.673   0.954
79251W        W44478  11.694  25.526   2.387
79252W        W44479  26.299   6.489   4.942
79253W        W44480  13.476  37.923   4.932
79254W        W44481   8.408  14.020  12.169
79255W        W44482  43.478  24.595   0.393
79256W        W44483   2.850  41.063   2.600
79257W        W44484  37.923   7.494  11.445
79258W        W44485   3.692  28.542   2.488
79259W        W44486  31.153  43.802   4.268
79260W        W44487  33.814  20.570   2.737
79261W        W44488  28.163  42.062  12.060
79262W        W44489  26.941  43.313   3.867
79263W        W44490  26.919  38.529  14.757
79264W        W44491   4.364  26.569  14.390
79265W        W44492  30.429  39.560  11.004
79266W        W44493  26.760  26.181   3.122
79267W        W44494  18.679  15.415  14.907
79268W        W44495  44.879  16.062  12.906
79269W        W44496  28.713  38.447   1.306
79270W        W44497  20.268  36.340  13.862
79271W        W44498  42.517  12.346   2.775
79272W        W44499  34.652   0.673   5.081
79273W        W44500  31.146  32.846   2.195
79274W        W44501   0.156  37.960   3.872
79275W        W44502  29.348  26.639   2.692
79276W        W44503  39.825  44.249  12.382
79277W        W44504  18.752  16.306  11.435
79278W        W44505  20.512  23.877  11.568
79279W        W44506   0.309  44.216  12.425
79280W        W44507  28.430  15.732   1.789
79281W        W44508  28.264   8.931  13.006
79282W        W44509  24.210  35.930  12.551
79283W        W44510   7.023  39.146  14.584
79284W        W44511  13.137  43.733  12.125
79285W        W44512  44.902   1.538  11.483
79286W        W44513  11.977  34.850   4.677
79287W        W44514  28.935  25.701   2.453
79288W        W44515  22.601   6.343  11.169
79289W        W44516  20.367   0.730  11.042
79290W        W44517   8.161   2.047   1.862
79291W        W44518  19.116  40.488   0.996
79292W        W44519  31.736  35.392  10.293
79293W        W44520  38.833  26.165  10.555
79294W        W44521  12.387  28.105   0.178
79295W        W44522  38.230  37.979   2.107
79296W        W44523  30.807  24.485   4.616
79297W        W44524   7.461  38.009  14.916
79298W        W44525  12.650  39.297   3.449
79299W        W44526  28.004  36.888   3.682
79300W        W44527   9.361   1.925   2.866
79301W        W44528  17.672  30.476  14.697
79302W        W44529  37.028   2.734   3.810
79303W        W44530   3.528  33.381  13.056
79304W        W44531  44.317  11.786  13.152
79305W        W44532  11.921  39.269  14.357
79306W        W44533  35.277  27.130  12.871
79307W        W44534  28.225   7.190   0.887
79308W        W44535   4.386  29.072  12.352
79309W        W44536  41.541  44.921   2.754
79310W        W44537  29.276  39.448  12.079
79311W        W44538   4.830  15.481   3.099
79312W        W44539   7.395   4.663  12.007
79313W        W44540  43.708  37.967  12.429
79314W        W44541  15.800   5.810   1.453
79315W        W44542  35.518   7.996   3.821
79316W        W44543  29.543  33.585  14.738
79317W        W44544   8.736   1.398   1.931
79318W        W44545  11.149  10.093  10.783
79319W        W44546  40.742  39.937   2.389
79320W        W44547  43.296  35.800  12.586
79321W        W44548  15.158  28.325  14.429
79322W        W44549  41.553   5.588  13.770
79323W        W44550  13.643  44.080   0.260
79324W        W44551   9.666  28.654   2.294
79325W        W44552  32.947  25.606  14.676
79326W        W44553   0.420  14.324  12.759
79327W        W44554  37.861   2.445   2.386
79328W        W44555   8.290   2.371   0.936
79329W        W44556   5.717   7.432   2.292
79330W        W44557  27.034  13.782   4.407
79331W        W44558  22.635  25.578   4.111
79332W        W44559   5.202   6.159  14.380
79333W        W44560  34.342  35.981   3.411
79334W        W44561  28.031   2.523   1.413
79335W        W44562  26.824   1.016   0.200
79336W        W44563  25.565  44.337  11.194
79337W        W44564  13.851  33.077  12.194
79338W        W44565  11.902  37.567   4.179
79339W        W44566  41.514   9.332  12.160
79340W        W44567  36.820  17.121   2.288
79341W        W44568  20.111  43.956  13.415
79342W        W44569  41.379  17.716   1.614
79343W        W44570  19.854  38.373  10.561
79344W        W44571  22.182  34.668  13.475
79345W        W44572  30.618  37.364  14.439
79346W        W44573   5.059  31.504   0.702
79347W        W44574  20.337   8.844   1.864
79348W        W44575  43.261  10.669   2.144
79349W        W44576  10.430  19.157  14.971
79350W        W44577  40.319   2.641   2.659
79351W        W44578  36.291  24.522   1.882
79352W        W44579  34.050  33.505   0.509
79353W        W44580  31.830  24.117  12.973
79354W        W44581  31.002  27.086   0.091
79355W        W44582   1.352   7.648  10.580
79356W        W44583  37.078  32.577  12.870
79357W        W44584  17.006   1.458  14.708
79358W        W44585   5.406  10.899   1.487
79359W        W44586  28.873  43.093   3.186
79360W        W44587  11.603   9.022   4.023
79361W        W44588  38.734  13.655   2.626
79362W        W44589   9.220  21.410  11.086
79363W        W44590   5.658  39.298  14.252
79364W        W44591  14.285   3.871   0.845
79365W        W44592  22.118  30.539   0.764
79366W        W44593  17.252  10.863  12.952
79367W        W44594   0.558  15.103   2.129
79368W        W44595  23.164  15.093  12.501
79369W        W44596  10.786  10.430  12.454
79370W        W44597   2.441  27.552   0.300
79371W        W44598  35.959  15.667   0.877
79372W        W44599  23.985   5.493   5.409
79373W        W44600  28.927  15.260   1.173
79374W        W44601  28.855  19.945   4.244
79375W        W44602  40.290  14.098   0.035
79376W        W44603  19.125   3.784  13.816
79377W        W44604  27.996  39.480   1.925
79378W        W44605  42.288  30.426   0.481
79379W        W44606   5.226  25.185   3.174
79380W        W44607  23.529  22.849   2.889
79381W        W44608   9.714  20.272  11.616
79382W        W44609  37.118  14.341   1.938
79383W        W44610  12.427  10.826  10.786
79384W        W44611   0.714   3.594  11.689
79385W        W44612   2.979  35.029  12.402
79386W        W44613  38.048  11.111  12.729
79387W        W44614  41.424  30.977   1.856
79388W        W44615  19.429  20.621  12.040
79389W        W44616  33.063  27.053  14.118
79390W        W44617  25.110  23.738   1.759
79391W        W44618   6.991  16.623   1.476
79392W        W44619  20.883  21.154   1.692
79393W        W44620  12.874   9.859   4.580
79394W        W44621  17.621  31.925   0.156
79395W        W44622  20.270   1.043  12.422
79396W        W44623  12.449   3.882   3.413
79397W        W44624  24.525   4.172  13.399
79398W        W44625  24.014  24.758  13.924
79399W        W44626   8.241  36.119  13.031
79400W        W44627  44.905  40.413   4.042
79401W        W44628   7.923  27.224   0.405
79402W        W44629   3.248  20.271  12.515
79403W        W44630  18.368  38.433  13.495
79404W        W44631   7.046  34.982  12.485
79405W        W44632  30.904  12.196  14.875
79406W        W44633  18.292  26.266   3.335
79407W        W44634  31.722  38.855  14.428
79408W        W44635   6.605  18.963   1.460
79409W        W44636   5.672  14.805  12.030
79410W        W44637  32.647  38.424   0.993
79411W        W44638  39.317  25.950   0.328
79412W        W44639  16.522  18.570  14.940
79413W        W44640  31.356  16.702   4.075
79414W        W44641   2.856   9.356   0.536
79415W        W44642  26.103   5.732   3.694
79416W        W44643  11.601  31.654   0.925
79417W        W44644  23.961  34.404  11.658
79418W        W44645  29.614  35.741   3.080
79419W        W44646  29.942  26.462  14.296
79420W        W44647  41.217  17.099  11.563
79421W        W44648  36.758  25.052  12.118
79422W        W44649  21.452  41.764  14.436
79423W        W44650   2.173  24.152  10.771
79424W        W44651  21.063   0.066   3.279
79425W        W44652  11.622  44.816  14.329
79426W        W44653  42.321  44.424   0.755
79427W        W44654  24.157   1.875  11.261
79428W        W44655  16.369  35.381  14.882
79429W        W44656   4.854  12.849   0.728
79430W        W44657   0.748  37.118  12.891
79431W        W44658  18.229   2.300  13.838
79432W        W44659  14.192  20.129  10.446
79433W        W44660  16.565  26.178   3.164
79434W        W44661  17.590   0.559   3.416
79435W        W44662  20.612  30.980   1.794
79436W        W44663  13.054  15.138  14.873
79437W        W44664   1.105  15.863   0.511
79438W        W44665   4.878  22.149   1.283
79439W        W44666   5.937  39.360   4.533
79440W        W44667  17.852  30.012   0.388
79441W        W44668  43.769  17.823   1.446
79442W        W44669  20.432  17.040  14.869
79443W        W44670  34.366  15.300   0.372
79444W        W44671  26.129   1.340   9.765
79445W        W44672  16.673   0.491   1.543
79446W        W44673  29.685  29.461   0.477
79447W        W44674   9.686  30.045   4.108
79448W        W44675  31.144  26.949  13.145
79449W        W44676  27.547  12.710  12.843
79450W        W44677  40.440  26.083   4.092
79451W        W44678  13.145  42.798  11.666
79452W        W44679   3.721  32.955  11.268
79453W        W44680   2.328  20.308  10.652
79454W        W44681  13.658  23.607   1.887
79455W        W44682  24.479  20.519   1.674
79456W        W44683   1.221  36.451  13.960
79457W        W44684  20.786   5.791  12.251
79458W        W44685  38.858  40.916  14.912
79459W        W44686  29.253  40.771   3.840
79460W        W44687  20.090  36.590   4.512
79461W        W44688  17.865   4.936  12.125
79462W        W44689  44.082  38.852   0.286
79463W        W44690   7.996  24.223  11.965
79464W        W44691   4.705  13.223  11.189
79465W        W44692  25.765   5.182   3.208
79466W        W44693  35.011   3.822   4.890
79467W        W44694  42.083  20.831  14.595
79468W        W44695  16.195  37.486   1.264
79469W        W44696  28.531  17.157  12.889
79470W        W44697  20.102  14.597  13.444
79471W        W44698   8.364  22.501   2.729
79472W        W44699   1.894  12.917   4.241
79473W        W44700  22.526  24.475   3.882
79474W        W44701  44.322   8.261  10.698
79475W        W44702  33.956   9.636   0.819
79476W        W44703  28.395   1.696  10.439
79477W        W44704  14.674  38.542   2.400
79478W        W44705  40.483   7.578  14.880
79479W        W44706  20.567   1.692  14.298
79480W        W44707  42.868  18.151  12.450
79481W        W44708   4.080  24.727  11.374
79482W        W44709   2.681   5.893  10.437
79483W        W44710  11.475   5.619  11.058
79484W        W44711   7.496  34.390   3.793
79485W        W44712  18.055  32.094   3.212
79486W        W44713   4.268   2.390  13.367
79487W        W44714  19.950  15.637  12.631
79488W        W44715   1.703  16.108   0.439
79489W        W44716   2.192  29.809  10.181
79490W        W44717  22.142  43.407   4.333
79491W        W44718   3.842  24.967  10.976
79492W        W44719   8.423  36.550   0.767
79493W        W44720  20.127  25.568   4.171
79494W        W44721  14.239  31.335   2.896
79495W        W44722  13.833  30.638   1.867
79496W        W44723  43.905  43.129   1.958
79497W        W44724  39.003  43.650   0.874
79498W        W44725  10.661  39.199   1.619
79499W        W44726  10.289   4.975  12.545
79500W        W44727   6.188  10.890   0.522
79501W        W44728  19.605  31.285   2.770
79502W        W44729  40.023  38.297  10.819
79503W        W44730  22.269  11.297  14.044
79504W        W44731  16.248  44.808  11.516
79505W        W44732  30.185  17.409  12.192
79506W        W44733  33.815  16.777   5.254
79507W        W44734  41.094  11.115   3.452
79508W        W44735  25.259  43.833   4.295
79509W        W44736  34.863  33.606  13.833
79510W        W44737   5.706  26.517   2.850
79511W        W44738  30.100  36.047  13.817
79512W        W44739  19.985  22.755  12.242
79513W        W44740  36.016  22.248   2.836
79514W        W44741  12.247  33.251   0.329
79515W        W44742  14.148  33.532  10.683
79516W        W44743  21.206  13.615  10.809
79517W        W44744  19.101  11.089   4.110
79518W        W44745  12.692  24.899   3.314
79519W        W44746  38.422  34.992   3.786
79520W        W44747   2.312  23.058   1.253
79521W        W44748  29.069  33.328  10.523
79522W        W44749  43.008  32.484   1.330
79523W        W44750  40.069  22.182   3.142
79524W        W44751  25.049  20.553  10.432
79525W        W44752   4.708  25.502  11.142
79526W        W44753  20.224  28.692   1.385
79527W        W44754  21.952   0.465   2.228
79528W        W44755   2.701  17.362   4.176
79529W        W44756  34.607   9.277   2.624
79530W        W44757  34.072  34.896  11.088
79531W        W44758  43.141  41.480  12.372
79532W        W44759  32.330  33.092   0.445
79533W        W44760  37.959   6.987   0.459
79534W        W44761  25.396  32.643  12.476
79535W        W44762  10.768  32.475  12.940
79536W        W44763  25.883  36.096  11.419
79537W        W44764  35.425  17.255   0.740
79538W        W44765  16.258  17.509   3.798
79539W        W44766   3.487  18.219  14.592
79540W        W44767  41.480  44.539   4.150
79541W        W44768  33.050  23.904  14.278
79542W        W44769  35.290   9.356   4.656
79543W        W44770  16.175  27.581  14.784
79544W        W44771  23.715   9.209   0.297
79545W        W44772   0.078  41.313  12.531
79546W        W44773  43.643  19.687  14.669
79547W        W44774   7.305  36.189  13.222
79548W        W44775  19.739  26.607  10.927
79549W        W44776  23.528   8.299   2.262
79550W        W44777  32.229  28.796   1.682
79551W        W44778   1.637  29.091   1.536
79552W        W44779  23.671  25.463  10.776
79553W        W44780  42.031  39.699   1.725
79554W        W44781  36.350  39.208   2.415
79555W        W44782  37.904  41.479   1.964
79556W        W44783  25.929  37.833  12.506
79557W        W44784   4.670  14.720  12.951
79558W        W44785  35.217  42.856  11.337
79559W        W44786   8.945  13.851   1.598
79560W        W44787  43.875  23.530  11.633
79561W        W44788  10.469  24.011   2.654
79562W        W44789  23.046   0.268   1.205
79563W        W44790  41.847  43.456  13.025
79564W        W44791  20.182   2.401   1.825
79565W        W44792  22.154  38.871   5.066
79566W        W44793  20.112  37.352  14.001
79567W        W44794   4.189  38.136   1.168
79568W        W44795  31.037  12.634  14.611
79569W        W44796  23.384  37.819  11.652
79570W        W44797  32.782   1.381   0.663
79571W        W44798  20.109   4.480   4.537
79572W        W44799  29.212   9.347   1.469
79573W        W44800   1.455   8.639  13.061
79574W        W44801  22.588  41.876  11.044
79575W        W44802  10.287   9.851  13.778
79576W        W44803  30.148   7.498  13.296
79577W        W44804   2.061  10.419   1.256
79578W        W44805  33.005  11.377   4.151
79579W        W44806   6.705  32.367  13.504
79580W        W44807  12.638  12.588   1.227
79581W        W44808   8.032  28.623   1.855
79582W        W44809  42.786  43.705  13.466
79583W        W44810  19.552  30.907   0.864
79584W        W44811   8.176  15.636   0.789
79585W        W44812  10.376  23.717   0.271
79586W        W44813  40.544  20.806   0.421
79587W        W44814  34.086   7.164  12.187
79588W        W44815  17.985  16.347   0.400
79589W        W44816  29.650  12.545   0.119
79590W        W44817  43.354  21.663  14.085
79591W        W44818  22.381  14.691  12.545
79592W        W44819  23.755  36.107   4.643
79593W        W44820   9.323  38.377   2.601
79594W        W44821  36.255   9.507   0.808
79595W        W44822   2.038  24.951  14.317
79596W        W44823  19.297  43.468  11.115
79597W        W44824  31.933  44.475   4.648
79598W        W44825  31.155  11.763  14.646
79599W        W44826  29.556  38.124   1.659
79600W        W44827  41.020  36.151  11.489
79601W        W44828  26.649  23.626  10.307
79602W        W44829  34.544   6.948   1.290
79603W        W44830   2.973   9.953   3.702
79604W        W44831  29.246   4.640   2.790
79605W        W44832  44.412  19.152   0.041
79606W        W44833   6.023   8.484   1.463
79607W        W44834  21.722  28.726  12.834
79608W        W44835  41.332  26.996  11.460
79609W        W44836  24.072  18.158   0.010
79610W        W44837  13.658   4.915   1.377
79611W        W44838   3.759  17.030  14.882
79612W        W44839  41.849  12.984  10.258
79613W        W44840  10.046  37.098   2.764
79614W        W44841  30.939  29.432   1.196
79615W        W44842  31.550  32.107  12.932
79616W        W44843  31.971  17.589   0.688
79617W        W44844  33.552   1.739  13.730
79618W        W44845  43.478  11.293   2.828
79619W        W44846   5.172  26.919  13.820
79620W        W44847  42.940  42.107   4.513
79621W        W44848  28.027  16.704  11.476
79622W        W44849  36.865   8.852  10.194
79623W        W44850  24.138  10.305   1.724
79624W        W44851  11.468  32.597  12.371
79625W        W44852  14.814  12.211   3.437
79626W        W44853  18.232   4.264  12.819
79627W        W44854  38.947  24.846   3.103
79628W        W44855  25.970  11.300   0.050
79629W        W44856  10.590   3.718  13.389
79630W        W44857  20.048   4.750   3.197
79631W        W44858   2.700  15.776   3.275
79632W        W44859  26.899  13.599  11.007
79633W        W44860   8.204  15.845  10.461
79634W        W44861  10.372  12.198  13.449
79635W        W44862  44.424  43.271  13.094
79636W        W44863  41.523  20.242  10.780
79637W        W44864  41.556  18.471   2.414
79638W        W44865   0.950  21.443   2.698
79639W        W44866  43.382  12.570   4.705
79640W        W44867  12.847  43.249   3.164
79641W        W44868  11.647  22.645  14.660
79642W        W44869  17.885  32.008   1.258
79643W        W44870  36.264  22.076  14.897
79644W        W44871   7.635  42.804   2.411
79645W        W44872  34.049  41.645   0.262
79646W        W44873   8.986  28.170  11.579
79647W        W44874  17.187  15.332  12.651
79648W        W44875  16.647  11.607   1.845
79649W        W44876  18.808  34.958  13.772
79650W        W44877  15.278  15.967   4.902
79651W        W44878  14.580  25.454  13.574
79652W        W44879   2.285  25.977   3.459
79653W        W44880  39.559   5.742   3.859
79654W        W44881  19.714  38.380  12.333
79655W        W44882  39.030  13.111  10.734
79656W        W44883  12.085  39.553  11.504
79657W        W44884  23.521   4.189  12.510
79658W        W44885  13.896  21.443   0.545
79659W        W44886  32.025   6.010   4.161
79660W        W44887  15.644  26.923  11.749
79661W        W44888  28.825  31.856   4.133
79662W        W44889   2.174   8.770  13.543
79663W        W44890  10.143  36.279  13.296
79664W        W44891  27.366  11.210   4.656
79665W        W44892  25.137   0.621  13.090
79666W        W44893   1.817  39.573  14.108
79667W        W44894  19.369   0.324   3.391
79668W        W44895  42.593  41.731   1.740
79669W        W44896   3.876   7.214   4.427
79670W        W44897   2.390  15.043   4.777
79671W        W44898   3.806  35.599   1.834
79672W        W44899   5.782  43.802  11.428
79673W        W44900  23.061   7.362  11.912
79674W        W44901  15.013   1.444  14.875
79675W        W44902  19.268  11.131  10.870
79676W        W44903  38.431  10.863   2.365
79677W        W44904  40.409  33.606  13.862
79678W        W44905  43.951   5.877   0.942
79679W        W44906  35.915  29.544   4.642
79680W        W44907  26.511   4.176  11.592
79681W        W44908  27.218  35.770   1.720
79682W        W44909  25.534  14.058   3.480
79683W        W44910  39.461   6.448   0.575
79684W        W44911  16.379   9.133  14.781
79685W        W44912  11.290   4.022  10.646
79686W        W44913  25.484  31.856   3.135
79687W        W44914  41.271  35.057   1.724
79688W        W44915  30.090   9.595   1.274
79689W        W44916   0.059  15.642  12.586
79690W        W44917   4.027  16.534  10.383
79691W        W44918  27.043  18.076   3.250
79692W        W44919  13.221  38.001  14.567
79693W        W44920  15.933  24.815  14.526
79694W        W44921  14.575  34.287   1.913
79695W        W44922  39.438   4.622  11.634
79696W        W44923  27.829  19.004   0.400
79697W        W44924   7.213  30.933   0.425
79698W        W44925  16.201  29.898  10.704
79699W        W44926  11.216   2.605  11.012
79700W        W44927  41.786   2.846   3.260
79701W        W44928  30.056  29.370  13.617
79702W        W44929  40.008  14.672  13.275
79703W        W44930  34.836  21.485   1.273
79704W        W44931  12.733   6.169   3.494
79705W        W44932  10.894  37.618   4.222
79706W        W44933   9.041  29.827  12.114
79707W        W44934   9.334  21.281   1.937
79708W        W44935   0.774  32.921  10.692
79709W        W44936  25.225  31.658  11.837
79710W        W44937  12.060  17.049  12.416
79711W        W44938  15.627  31.864  13.593
79712W        W44939  37.537  28.582  11.677
79713W        W44940  41.639  28.193   2.546
79714W        W44941  20.780  34.514  13.351
79715W        W44942   4.489  31.681   0.741
79716W        W44943  27.108  27.709  11.013
79717W        W44944  20.552  27.639   3.867
79718W        W44945   0.714  30.465   2.240
79719W        W44946  39.999   7.860   1.619
79720W        W44947  15.725  19.308  14.444
79721W        W44948  29.672   5.838   1.170
79722W        W44949  29.692  40.901  12.931
79723W        W44950  17.086  21.595   1.194
79724W        W44951  10.264  22.644   4.095
79725W        W44952   8.250  23.997   0.370
79726W        W44953   3.398   5.148  13.475
79727W        W44954  35.323  28.074   1.227
79728W        W44955  22.747   2.020   1.292
79729W        W44956  22.461  34.076   0.294
79730W        W44957  13.648   1.337   3.153
79731W        W44958  39.982   0.462  14.483
79732W        W44959   4.339  39.480   0.407
79733W        W44960  27.350  18.034   4.243
79734W        W44961  22.467  28.161   4.074
79735W        W44962   3.659   3.730   1.498
79736W        W44963  18.845  37.761  13.953
79737W        W44964  11.565  37.063  11.570
79738W        W44965  43.627  16.531   3.295
79739W        W44966  36.023  24.008  11.542
79740W        W44967  39.854   0.528   0.254
79741W        W44968  42.578  34.975   1.334
79742W        W44969  40.907  16.767   2.615
79743W        W44970  24.259  32.142   2.719
79744W        W44971  33.082  24.400  14.188
79745W        W44972  20.579  14.383   2.386
79746W        W44973  25.812  26.636  10.318
79747W        W44974   8.875  17.463  11.127
79748W        W44975  10.136  10.896   1.323
79749W        W44976  20.285  24.597  13.487
79750W        W44977  36.624   6.556   3.276
79751W        W44978  38.996  43.358   1.347
79752W        W44979   6.128  27.732   2.296
79753W        W44980  30.731  27.036   0.881
79754W        W44981  38.012  44.463   0.620
79755W        W44982  35.394  27.825   3.883
79756W        W44983  17.994   1.310   0.891
79757W        W44984  24.411  42.717  13.178
79758W        W44985  32.218  17.214   3.243
79759W        W44986  16.355  20.452  14.511
79760W        W44987  32.517   8.888   3.227
79761W        W44988  36.345   4.963  12.411
79762W        W44989   8.615  29.521  12.115
79763W        W44990   3.083   5.775  14.970
79764W        W44991  25.155   3.525   4.858
79765W        W44992   7.380  13.630   2.679
79766W        W44993   0.778  17.949   0.782
79767W        W44994   3.659  43.474  14.211
79768W        W44995  31.101  24.509  12.643
79769W        W44996  27.371  19.158   4.560
79770W        W44997  16.561   6.156   3.664
79771W        W44998   1.510  13.404  14.360
79772W        W44999  30.857  14.381   2.098
79773W        W45000  33.616   7.832   1.273
79774W        W45001  34.724  19.294  11.239
79775W        W45002   4.897   8.766  13.030
79776W        W45003  32.725  27.948  14.354
79777W        W45004  42.399  44.079  13.338
79778W        W45005  20.224   0.192   0.349
79779W        W45006  14.990  36.255   5.037
79780W        W45007  30.409  19.672   2.157
79781W        W45008  39.293  36.695   1.976
79782W        W45009  27.272  15.768  13.392
79783W        W45010  29.801  35.299   2.869
79784W        W45011  33.507  16.273  13.906
79785W        W45012  33.963  18.653   1.956
79786W        W45013  19.192  41.878   2.907
79787W        W45014   5.898  27.931  10.702
79788W        W45015  23.109  23.130   1.769
79789W        W45016  43.601   6.282   0.057
79790W        W45017  15.734  41.731   0.379
79791W        W45018  28.534  36.462  10.815
79792W        W45019   1.365  19.209   2.382
79793W        W45020  22.581  42.321  14.264
79794W        W45021  38.801  34.676  12.948
79795W        W45022  30.998  12.606  10.677
79796W        W45023  33.352  41.378  12.096
79797W        W45024  35.820  25.603   4.998
79798W        W45025  13.384  36.003   1.340
79799W        W45026  12.595  26.398  13.489
79800W        W45027  10.058   7.675  14.024
79801W        W45028  20.735   9.039  11.364
79802W        W45029  35.069  40.444  14.013
79803W        W45030  37.594  30.445   1.370
79804W        W45031   9.633  22.979  13.299
79805W        W45032  44.785  27.195   0.531
79806W        W45033  15.627  41.645   2.314
79807W        W45034  17.415  29.581   2.942
79808W        W45035  17.201  38.978  14.969
79809W        W45036  15.298  20.878   1.211
79810W        W45037   8.371  20.161  12.762
79811W        W45038   0.870  37.487   4.680
79812W        W45039  29.671  13.509   1.751
79813W        W45040  41.301  22.249  14.848
79814W        W45041  42.451  32.442   2.785
79815W        W45042  12.908  38.845   3.543
79816W        W45043  35.528  34.200   2.430
79817W        W45044  33.551  20.235   3.230
79818W        W45045  14.121  35.632   0.676
79819W        W45046  39.319  29.773   3.357
79820W        W45047   1.473  30.105   4.852
79821W        W45048  42.884  14.316   2.180
79822W        W45049  43.562  15.039  11.671
79823W        W45050   0.724  37.506   4.193
79824W        W45051  23.487   2.009   0.839
79825W        W45052   6.295  41.024   0.986
79826W        W45053  41.452  17.074  13.392
79827W        W45054  37.957   5.593   1.369
79828W        W45055   8.158   9.701   1.779
79829W        W45056  41.579  18.014  11.674
79830W        W45057   6.416  24.561  14.724
79831W        W45058  19.611  17.220   4.543
79832W        W45059  19.002  34.153  12.934
79833W        W45060  44.422  10.717   3.166
79834W        W45061  41.370  37.055  12.018
79835W        W45062  37.486   4.807   4.710
79836W        W45063  13.876  41.918   2.782
79837W        W45064   0.149  44.681   4.470
79838W        W45065  32.927  27.769   1.002
79839W        W45066  36.806  24.569   1.652
79840W        W45067  29.797   3.092  14.486
79841W        W45068  28.531  15.858  14.285
79842W        W45069  13.118  36.896  13.427
79843W        W45070  40.789  24.696  12.098
79844W        W45071   2.483  38.303   1.825
79845W        W45072  30.305  23.201   3.444
79846W        W45073   5.677  38.546   3.173
79847W        W45074  44.342   8.924  13.407
79848W        W45075   7.794  30.459   1.437
79849W        W45076  17.277  25.270  12.896
79850W        W45077  24.956  17.577  11.669
79851W        W45078   7.308  29.079  11.565
79852W        W45079  41.402  13.337   1.039
79853W        W45080  10.574  30.022  14.654
79854W        W45081  34.807   5.212   0.478
79855W        W45082  31.238  42.896   4.665
79856W        W45083   3.121  24.173  14.543
79857W        W45084  42.886  23.557   2.264
79858W        W45085   0.230  42.861   4.465
79859W        W45086  21.797  34.319  12.570
79860W        W45087   6.663  20.868   3.404
79861W        W45088  23.747  42.227  11.218
79862W        W45089  22.490  37.591   4.181
79863W        W45090  42.510   7.311   3.399
79864W        W45091  31.410   6.317   3.193
79865W        W45092  16.818  32.570  11.506
79866W        W45093  30.308  11.868  12.435
79867W        W45094  25.533  15.640   3.292
79868W        W45095  43.484  30.916   3.519
79869W        W45096  22.987   4.670  14.014
79870W        W45097  15.320  19.888   3.545
79871W        W45098  27.260  43.411  14.503
79872W        W45099  15.558  39.420  10.406
79873W        W45100   0.291  13.634   4.340
79874W        W45101  40.122  21.623  10.571
79875W        W45102  27.076  30.502  12.547
79876W        W45103   3.386  29.257  12.938
79877W        W45104  16.909  20.284  12.959
79878W        W45105   0.325  32.979   1.668
79879W        W45106   7.483  13.338  10.659
79880W        W45107  44.335  28.656   3.180
79881W        W45108  21.257   7.233   0.775
79882W        W45109  12.810  30.951   2.941
79883W        W45110  44.828  19.949  13.897
79884W        W45111  32.480  30.071   1.779
79885W        W45112  17.253  19.020   1.848
79886W        W45113  34.656  19.041   2.135
79887W        W45114  41.111  19.277  13.408
79888W        W45115  30.492   8.249   2.898
79889W        W45116   4.296  28.619  11.473
79890W        W45117  37.605  28.728  13.123
79891W        W45118   7.718  34.442  14.248
79892W        W45119   8.248  43.430  14.080
79893W        W45120  27.307  44.825   2.718
79894W        W45121  44.590  44.133   0.714
79895W        W45122  34.140  35.848  14.731
79896W        W45123  37.467  15.735   3.912
79897W        W45124  21.744   2.810   0.079
79898W        W45125  35.368  25.584   2.748
79899W        W45126  39.110  20.106  14.525
79900W        W45127   0.477   1.847  13.105
79901W        W45128  13.558  17.506  10.770
79902W        W45129  10.757  37.792   1.189
79903W        W45130  13.735  24.062  13.863
79904W        W45131   9.141  10.407   4.161
79905W        W45132  23.260  22.547  10.898
79906W        W45133  21.221  25.255  14.238
79907W        W45134  11.639   8.583  11.172
79908W        W45135  36.487  14.657  12.360
79909W        W45136  24.450  44.384  13.186
79910W        W45137  23.020  35.921   4.067
79911W        W45138   1.997   4.736   3.406
79912W        W45139  35.553  11.577  11.924
79913W        W45140  21.143  33.586   1.609
79914W        W45141  29.302  21.091  12.980
79915W        W45142  35.633   0.462   1.543
79916W        W45143  37.523  19.498   4.614
79917W        W45144  31.816  30.615  10.585
79918W        W45145  20.683  41.841   3.225
79919W        W45146  15.316  21.260   4.232
79920W        W45147  18.995  19.552  11.105
79921W        W45148  12.880  42.412   1.433
79922W        W45149   9.323   4.827  10.599
79923W        W45150  28.558   0.511  14.751
79924W        W45151  43.509  44.525  12.717
79925W        W45152  33.776   7.808  13.894
79926W        W45153  19.594  43.903  11.111
79927W        W45154  18.135  38.576   4.095
79928W        W45155   6.422   6.464  10.805
79929W        W45156  22.699  41.509   3.770
79930W        W45157  16.500  15.713  10.543
79931W        W45158  26.540  42.026   1.979
79932W        W45159   3.451  39.523  12.417
79933W        W45160  22.121  24.122   2.649
79934W        W45161  32.974  31.439  14.453
79935W        W45162  22.124   7.888  10.582
79936W        W45163  12.175  36.258   2.824
79937W        W45164  11.607  21.582  11.557
79938W        W45165  15.434  31.127  14.103
79939W        W45166  35.984  11.383   4.039
79940W        W45167  36.365   0.907  12.943
79941W        W45168  38.189  43.101   5.034
79942W        W45169  24.003  34.391   1.926
79943W        W45170   2.121  15.822  11.218
79944W        W45171  24.539  29.332  12.057
79945W        W45172  41.094  41.249  14.507
79946W        W45173  42.918  25.433   2.697
79947W        W45174  44.944  10.532  11.536
79948W        W45175  37.283  23.225  11.527
79949W        W45176  10.416  43.932  10.372
79950W        W45177  16.411  12.897  12.158
79951W        W45178  32.468  11.199   2.808
79952W        W45179  36.599  37.495  12.968
79953W        W45180  19.858   3.371  12.884
79954W        W45181  10.562  10.981   3.086
79955W        W45182  43.989  40.945   4.678
79956W        W45183  11.363   8.800   3.266
79957W        W45184   4.930   5.831  14.756
79958W        W45185  42.337  32.974  10.498
79959W        W45186  38.808   3.840  10.646
79960W        W45187  20.240  31.575   4.546
79961W        W45188  15.599  40.622   4.980
79962W        W45189  25.424  36.997  14.747
79963W        W45190  31.538  39.137  13.928
79964W        W45191  44.991  17.401   2.541
79965W        W45192   9.587  25.113  13.791
79966W        W45193  21.995  26.441  12.999
79967W        W45194  39.390  16.862   1.773
79968W        W45195  31.326  23.511   0.308
79969W        W45196  26.512  19.032   4.126
79970W        W45197  11.797  17.021  14.027
79971W        W45198  20.189   2.635  11.049
79972W        W45199  43.991   5.474   1.764
79973W        W45200  15.147  30.013  13.038
79974W        W45201  30.457   9.643   2.266
79975W        W45202  29.998  27.277   2.538
79976W        W45203  10.777  23.838   1.065
79977W        W45204  13.150  11.664   2.791
79978W        W45205  14.678  30.497   3.949
79979W        W45206  22.739  31.823   3.589
79980W        W45207  34.795  13.621  12.934
79981W        W45208  26.941  38.439  12.772
79982W        W45209  15.328  30.525  10.896
79983W        W45210   0.384  42.343  10.682
79984W        W45211  12.729  18.608  13.908
79985W        W45212  14.793  43.230  13.076
79986W        W45213  32.128   6.335   1.389
79987W        W45214  28.971  16.238  12.004
79988W        W45215  31.500  17.545   4.485
79989W        W45216  29.368   9.252  10.715
79990W        W45217  14.709  26.457   4.481
79991W        W45218   6.665  39.905  12.530
79992W        W45219  29.349  36.477  11.155
79993W        W45220  13.900   2.204  11.896
79994W        W45221  17.436   9.546   0.436
79995W        W45222   1.736  40.441   0.307
79996W        W45223  35.815   5.838   1.800
79997W        W45224  40.010   2.657  13.981
79998W        W45225  22.056  22.158   0.599
79999W        W45226  39.571  27.761  12.402
80000W        W45227  35.352  31.150   3.289
80001W        W45228  34.674   3.252  11.579
80002W        W45229  43.829  38.839  13.426
80003W        W45230   3.797  42.508  11.486
80004W        W45231  13.722  35.832  11.513
80005W        W45232  14.559  33.080  14.448
80006W        W45233  23.202  43.608   5.423
80007W        W45234  40.045   4.225  14.420
80008W        W45235  43.279  42.519   1.419
80009W        W45236  42.742  16.694  12.468
80010W        W45237  16.385  12.495   0.904
80011W        W45238  34.343  29.168  11.596
80012W        W45239  33.391   3.834   3.034
80013W        W45240  19.223   0.865  14.276
80014W        W45241  44.305  21.070   4.982
80015W        W45242  17.675   3.162   1.000
80016W        W45243  32.484  33.981   1.305
80017W        W45244  18.876  42.896  11.907
80018W        W45245  29.078  11.260  11.250
80019W        W45246  40.779   1.686   5.073
80020W        W45247  25.589  20.530  14.168
80021W        W45248  31.921   1.183   4.979
80022W        W45249   5.315  15.840   0.313
80023W        W45250  21.980  38.084   1.366
80024W        W45251  23.669  12.400   3.752
80025W        W45252  18.950  19.007   2.694
80026W        W45253  40.228  38.272  12.136
80027W        W45254  42.535   2.443  10.746
80028W        W45255  12.170  24.468   2.737
80029W        W45256  19.718  18.047   4.198
80030W        W45257  39.926   7.221   3.262
80031W        W45258  34.166   1.522   1.703
80032W        W45259  33.320  29.949  11.446
80033W        W45260  28.092  38.503  10.376
80034W        W45261  28.650  22.813  14.086
80035W        W45262  31.938  28.675   0.235
80036W        W45263   6.816   6.100  10.842
80037W        W45264   7.113  11.932   4.820
80038W        W45265  39.909   4.148   0.553
80039W        W45266  14.220   9.030   4.072
80040W        W45267  34.364   7.251   0.704
80041W        W45268  32.272  19.433   5.032
80042W        W45269  38.078  10.432   1.661
80043W        W45270  17.859  42.675  14.150
80044W        W45271  35.108  34.678   3.062
80045W        W45272  24.098  39.872   1.304
80046W        W45273  24.591   4.824   4.674
80047W        W45274  13.078  41.941   3.185
80048W        W45275  14.105   5.956   1.483
80049W        W45276  33.846   8.086   0.860
80050W        W45277  42.657  11.945  14.510
80051W        W45278  36.560  33.227  14.121
80052W        W45279  31.587   4.602   0.768
80053W        W45280  33.398   3.495  13.953
80054W        W45281  40.633   5.745  12.180
80055W        W45282   7.834   2.659  13.225
80056W        W45283  40.978  40.473  12.475
80057W        W45284  41.402  20.611   1.962
80058W        W45285  32.979  15.419   4.168
80059W        W45286  11.398  24.322   3.653
80060W        W45287  40.299  12.619  11.915
80061W        W45288  27.066   5.762   3.268
80062W        W45289  36.883   0.225  11.632
80063W        W45290  21.700  36.555   0.739
80064W        W45291  18.241   6.211   4.337
80065W        W45292   8.645   9.208  13.691
80066W        W45293  27.553  18.663  13.018
80067W        W45294  43.428   8.755   2.854
80068W        W45295  28.106  28.071   2.743
80069W        W45296  15.161  11.376  10.835
80070W        W45297  39.441  33.935  14.940
80071W        W45298  34.329   1.747   2.700
80072W        W45299  42.478   1.696   0.278
80073W        W45300  40.873   0.381  14.004
80074W        W45301  39.740   8.738   1.960
80075W        W45302  40.020  20.550   1.702
80076W        W45303  43.260  43.697   0.046
80077W        W45304  37.045  41.952  13.862
80078W        W45305   2.866  42.452   4.286
80079W        W45306   1.913  14.939   4.963
80080W        W45307  18.330  20.245  12.262
80081W        W45308  22.003   2.784   1.993
80082W        W45309  33.999  22.157  13.655
80083W        W45310  29.139  32.063  14.788
80084W        W45311  40.913   4.427   3.680
80085W        W45312  37.275  19.608   1.700
80086W        W45313  17.110   6.228  10.799
80087W        W45314  12.133  32.905  11.261
80088W        W45315   5.484  17.784  12.268
80089W        W45316  18.786   9.938  11.588
80090W        W45317   0.109  13.533  12.710
80091W        W45318  43.858  21.486  13.796
80092W        W45319  18.675   0.132  12.475
80093W        W45320  17.755  25.747  12.197
80094W        W45321  38.793  38.037  13.963
80095W        W45322  24.590  34.137   3.270
80096W        W45323  31.446  38.009   4.151
80097W        W45324  17.168  31.011  11.140
80098W        W45325   4.969  27.751  14.887
80099W        W45326  36.823   9.334  11.427
80100W        W45327  33.430  32.440   0.775
80101W        W45328  25.158  27.618   1.194
80102W        W45329  22.097  37.287   0.720
80103W        W45330  39.769  15.754   0.957
80104W        W45331  21.685  22.279  14.176
80105W        W45332   3.962  27.452  12.771
80106W        W45333  15.300  12.224  11.870
80107W        W45334  28.785   3.430   0.342
80108W        W45335  25.218  31.985   4.068
80109W        W45336  36.981  14.379  13.422
80110W        W45337  36.059  31.597   2.787
80111W        W45338  12.055  14.847   2.753
80112W        W45339  10.261  23.281  12.037
80113W        W45340  32.625  16.919  10.992
80114W        W45341  43.139  14.271  14.799
80115W        W45342  24.763  44.573   1.096
80116W        W45343  33.561  16.691  11.220
80117W        W45344  26.196  21.594  13.844
80118W        W45345  29.125  20.154  14.671
80119W        W45346  32.670  41.977  10.737
80120W        W45347  35.086  36.478   0.491
80121W        W45348  23.102  16.480  14.767
80122W        W45349  28.249  35.496   4.111
80123W        W45350  10.866  21.132  13.456
80124W        W45351  29.421  35.019   2.672
80125W        W45352   3.937   6.838   1.283
80126W        W45353  41.096  36.237   4.192
80127W        W45354  27.239   4.220  12.054
80128W        W45355   2.572  43.185   0.754
80129W        W45356   8.443  38.370   4.574
80130W        W45357  17.118  24.217   2.900
80131W        W45358  34.317   3.244  14.406
80132W        W45359  36.891  10.224  11.907
80133W        W45360  32.076  23.210   4.272
80134W        W45361   2.184   3.958  13.757
80135W        W45362  23.508  33.435   2.932
80136W        W45363  30.554  17.116  14.698
80137W        W45364   9.473  24.038   2.531
80138W        W45365  30.032  22.655  14.252
80139W        W45366  33.670  18.252   1.092
80140W        W45367   7.928  16.870  11.115
80141W        W45368  13.766   6.412   1.329
80142W        W45369  23.712  27.605  13.885
80143W        W45370   1.119  16.289   1.573
80144W        W45371   1.947  16.852  12.000
80145W        W45372   6.373  33.425  11.918
80146W        W45373   8.166   6.160  11.397
80147W        W45374  37.090  36.890   4.016
80148W        W45375  14.615  15.717  13.375
80149W        W45376   8.349   2.695  11.483
80150W        W45377  23.632  14.264  12.960
80151W        W45378  23.001  10.498  14.856
80152W        W45379  13.163  27.576  10.999
80153W        W45380  39.272  12.393   0.884
80154W        W45381   8.214  11.755   0.341
80155W        W45382  39.326  26.998  11.750
80156W        W45383  17.137  37.958   0.844
80157W        W45384   1.801  27.080  13.424
80158W        W45385  36.919   5.254   2.286
80159W        W45386  21.665  22.129  10.396
80160W        W45387  38.363  26.040   3.650
80161W        W45388  36.876   8.275  12.540
80162W        W45389  37.481  30.587  11.145
80163W        W45390  41.951   3.862   3.130
80164W        W45391  17.119  15.661  13.878
80165W        W45392  22.023  11.117   3.234
80166W        W45393  28.282  21.002   3.676
80167W        W45394  11.798  44.951   0.793
80168W        W45395  41.162  16.141   2.275
80169W        W45396  23.347  25.952  13.013
80170W        W45397  33.473  35.819  11.770
80171W        W45398  36.085  42.744   0.606
80172W        W45399  20.048  43.471   2.414
80173W        W45400  26.431  43.015  10.677
80174W        W45401   1.796  25.634   4.136
80175W        W45402  13.709   7.264  14.902
80176W        W45403  32.434   3.760   2.627
80177W        W45404   9.726  26.969  12.633
80178W        W45405  38.105  21.677  11.457
80179W        W45406  27.915  43.943  12.957
80180W        W45407  16.356  22.574  12.927
80181W        W45408  40.773  32.404   2.198
80182W        W45409  20.468  21.643  13.571
80183W        W45410  37.874  36.973   4.555
80184W        W45411  44.255  28.341  12.407
80185W        W45412  29.112  38.038   2.120
80186W        W45413  38.910  18.486  13.953
80187W        W45414  44.856  44.597   2.783
80188W        W45415   0.378  14.094  11.127
80189W        W45416  10.412  36.074  13.876
80190W        W45417  26.948  32.888  13.077
80191W        W45418  43.610   7.642   2.263
80192W        W45419   1.671  24.318  12.027
80193W        W45420  43.734  27.922   9.791
80194W        W45421  21.039  33.429   3.759
80195W        W45422   1.271  22.168   3.124
80196W        W45423  18.257  27.253   3.797
80197W        W45424  23.672  35.596  14.692
80198W        W45425  11.470  21.825   0.767
80199W        W45426  35.400  33.361   3.415
80200W        W45427  19.355  20.005   3.391
80201W        W45428  15.919  20.781  14.396
80202W        W45429   6.723  10.336  12.924
80203W        W45430  18.220   0.730  14.009
80204W        W45431   5.981   5.675  14.855
80205W        W45432  36.199  32.865  14.068
80206W        W45433  15.264   2.439  11.999
80207W        W45434   6.971  10.814   2.727
80208W        W45435  19.221   5.594  12.612
80209W        W45436  31.276   7.363   0.837
80210W        W45437  31.088  29.269  11.170
80211W        W45438   2.245  43.189  12.107
80212W        W45439  22.767  42.405   2.940
80213W        W45440   5.848   6.537   4.675
80214W        W45441  37.316  33.754  11.468
80215W        W45442  21.526  13.887   2.289
80216W        W45443   0.786  34.483   4.631
80217W        W45444  10.349  21.639  10.286
80218W        W45445  28.593  10.653  14.559
80219W        W45446   4.379   6.245   1.089
80220W        W45447  40.546  20.201  10.752
80221W        W45448  31.783  13.897   9.876
80222W        W45449  35.386  22.978   1.789
80223W        W45450   8.357  30.155  12.059
80224W        W45451  34.215  17.588  12.106
80225W        W45452  11.307   4.206   0.251
80226W        W45453  13.837  22.150   2.307
80227W        W45454  36.344  25.441  11.165
80228W        W45455  41.054  15.101  13.550
80229W        W45456  26.601  34.597   4.094
80230W        W45457   1.232  10.790   0.077
80231W        W45458   3.353  27.713   2.417
80232W        W45459  22.204  35.676  11.317
80233W        W45460  43.849  42.867   2.421
80234W        W45461   8.266   9.198   0.837
80235W        W45462  25.781  18.226   1.179
80236W        W45463  44.081   1.662   2.331
80237W        W45464  38.259  35.824   0.492
80238W        W45465   3.087  35.799   2.934
80239W        W45466  25.696  11.849  10.952
80240W        W45467  29.044  21.668   1.422
80241W        W45468  32.145  42.858  11.689
80242W        W45469  20.748  38.783  14.958
80243W        W45470  17.722   7.133  13.966
80244W        W45471   1.469  38.061  11.159
80245W        W45472  23.218   3.814  11.523
80246W        W45473   7.174   7.924   3.313
80247W        W45474  39.985  28.561   2.296
80248W        W45475   0.048  34.609   3.152
80249W        W45476  17.184  36.396  13.267
80250W        W45477  17.764  43.963  10.660
80251W        W45478   1.798   0.166   0.939
80252W        W45479  21.678  16.183  14.930
80253W        W45480   1.943  20.144  14.874
80254W        W45481  28.695   7.153  14.945
80255W        W45482  15.552   0.936   2.300
80256W        W45483   4.025  28.484   1.479
80257W        W45484   7.792  33.508  14.327
80258W        W45485  41.411   3.229   2.587
80259W        W45486  25.658  44.899  10.656
80260W        W45487  16.155  16.315   0.870
80261W        W45488  41.710   5.420   4.982
80262W        W45489  13.604   0.492   0.017
80263W        W45490  35.195  29.793  13.047
80264W        W45491  13.566  26.651  12.520
80265W        W45492   8.755  44.442  13.555
80266W        W45493   3.572  39.986   0.385
80267W        W45494  39.013  37.590   1.859
80268W        W45495  25.197   4.254   3.127
80269W        W45496  28.574  30.638   3.107
80270W        W45497   7.640  13.869  10.631
80271W        W45498   7.126   9.681   4.064
80272W        W45499  22.044  33.479   4.449
80273W        W45500   4.168  35.470   2.734
80274W        W45501  29.161  21.657  13.046
80275W        W45502  29.096   1.882  11.188
80276W        W45503  26.881  16.929   0.610
80277W        W45504  38.825   5.277   2.335
80278W        W45505  24.841  12.251  10.555
80279W        W45506  36.735  41.508  13.952
80280W        W45507  16.208  44.861  14.680
80281W        W45508   3.119  41.396   0.473
80282W        W45509  13.756  18.257  10.789
80283W        W45510  41.245  36.011  11.045
80284W        W45511  24.074  39.873  10.611
80285W        W45512  17.669   6.366  12.148
80286W        W45513  19.507   4.991   4.143
80287W        W45514  15.709  21.040  12.440
80288W        W45515  25.531  10.659  10.762
80289W        W45516  32.075  24.257   1.736
80290W        W45517  35.121  31.936   0.819
80291W        W45518  25.901  13.277  10.697
80292W        W45519  37.064  29.110   2.572
80293W        W45520   1.090   0.250  13.701
80294W        W45521   1.229  15.292  14.934
80295W        W45522   0.263   5.471  11.184
80296W        W45523  11.393  24.256  12.882
80297W        W45524  32.172  18.260   0.638
80298W        W45525  22.113  17.185   1.868
80299W        W45526  30.109   5.786  11.915
80300W        W45527  40.054  37.403  10.789
80301W        W45528  26.161   1.776  14.493
80302W        W45529  33.318  10.224  12.486
80303W        W45530  43.129   1.775   4.970
80304W        W45531  32.961  26.449  12.971
80305W        W45532  23.006  22.673  11.959
80306W        W45533   0.514  42.409   5.519
80307W        W45534  39.028  26.045  11.045
80308W        W45535  43.673  43.462   1.210
80309W        W45536   2.859  36.842  13.343
80310W        W45537  11.072  38.898  11.974
80311W        W45538   2.350   6.822   4.776
80312W        W45539  26.764  42.294  14.974
80313W        W45540  12.037  18.683   1.890
80314W        W45541  30.411  20.102   1.742
80315W        W45542  14.759   1.899  11.423
80316W        W45543  28.448  19.154   3.268
80317W        W45544  37.533  13.597   2.945
80318W        W45545  23.440   1.403  14.758
80319W        W45546   7.326  12.703   2.605
80320W        W45547  22.934   9.720  14.872
80321W        W45548   9.952   5.388   4.412
80322W        W45549   3.116  19.440   2.494
80323W        W45550  10.128   1.869  14.857
80324W        W45551   9.528  19.948  13.144
80325W        W45552  13.201  43.946  13.543
80326W        W45553   3.437  34.342   1.743
80327W        W45554  34.178   6.863   2.219
80328W        W45555  22.988   5.146  13.848
80329W        W45556  32.811  24.090  12.914
80330W        W45557  16.201  40.513  10.484
80331W        W45558   9.922   4.322  14.857
80332W        W45559   4.381   1.877  13.286
80333W        W45560  41.438  44.661   3.290
80334W        W45561  40.891  16.282   1.305
80335W        W45562  14.006  29.216  12.379
80336W        W45563  38.367  27.752  11.959
80337W        W45564   7.146  39.435  11.940
80338W        W45565  32.368  20.622  11.610
80339W        W45566  13.323   4.881  14.487
80340W        W45567  11.301  16.192   3.284
80341W        W45568  36.110   4.495  12.644
80342W        W45569  41.616  38.117  11.972
80343W        W45570  33.655  10.764   1.274
80344W        W45571  37.092  34.926   2.641
80345W        W45572  34.900  29.332  10.806
80346W        W45573   5.308  31.503  10.679
80347W        W45574  21.447   9.893  10.684
80348W        W45575   3.933  28.184   0.746
80349W        W45576  31.393   0.981  10.429
80350W        W45577  27.572   1.321   0.026
80351W        W45578  24.080   1.492   1.437
80352W        W45579  25.964  25.967   0.480
80353W        W45580   1.298  38.946   3.416
80354W        W45581  37.081  17.253  14.370
80355W        W45582  31.031   2.312  12.007
80356W        W45583  27.126   9.948  12.945
80357W        W45584  40.664  39.427  11.539
80358W        W45585  29.380  39.426  12.569
80359W        W45586  34.884  37.311  12.853
80360W        W45587  39.891  36.859  11.965
80361W        W45588  34.836  11.215   0.869
80362W        W45589  43.712   2.451   3.226
80363W        W45590  33.394  42.463   0.252
80364W        W45591  41.111  21.846   3.657
80365W        W45592  12.602  13.367  13.073
80366W        W45593  39.270  24.441   0.344
80367W        W45594   0.982  24.746  12.417
80368W        W45595  44.826  16.876   0.353
80369W        W45596   9.877  34.413  13.642
80370W        W45597  36.074   6.826   2.303
80371W        W45598  15.990  35.950  11.585
80372W        W45599   7.593  26.104  10.952
80373W        W45600  16.602  37.331  14.867
80374W        W45601  22.424  30.535  13.592
80375W        W45602  42.982  17.332   1.399
80376W        W45603  24.504  14.220   1.516
80377W        W45604  22.442   5.383   0.058
80378W        W45605  32.329  35.390   2.237
80379W        W45606  22.223   3.109  11.307
80380W        W45607  26.360   6.893  14.992
80381W        W45608  26.092  41.532  12.815
80382W        W45609  14.352  12.948  13.491
80383W        W45610  17.189   6.565   5.268
80384W        W45611  16.221  12.701  11.728
80385W        W45612  32.836  38.253   1.955
80386W        W45613   7.934  40.015   0.380
80387W        W45614  12.036   0.626  12.536
80388W        W45615  29.073   7.741  10.588
80389W        W45616  29.549  17.478  13.385
80390W        W45617  42.903  44.809   3.199
80391W        W45618  35.035  17.816  12.377
80392W        W45619   3.934  14.249   1.297
80393W        W45620  12.488  11.725  12.889
80394W        W45621  17.355  40.060   1.778
80395W        W45622  33.434  14.933   0.593
80396W        W45623  39.339  33.897   3.211
80397W        W45624  42.329  11.993   1.122
80398W        W45625  10.828  16.242  11.055
80399W        W45626  11.983  29.399  14.310
80400W        W45627  25.471  36.317   4.270
80401W        W45628  24.456  13.762  10.642
80402W        W45629  31.188  14.069  13.421
80403W        W45630   9.154  12.027  12.769
80404W        W45631   8.285  35.712   1.358
80405W        W45632  26.626  40.331  11.132
80406W        W45633   0.024  35.786  12.994
80407W        W45634  41.579   7.258  13.328
80408W        W45635  38.401  40.455   2.614
80409W        W45636  19.967  16.559   4.143
80410W        W45637  16.106  40.305   9.796
80411W        W45638  23.179  11.171  12.655
80412W        W45639  26.881  14.247   3.417
80413W        W45640  40.800  12.262  13.618
80414W        W45641  27.124  13.590   1.254
80415W        W45642   6.757   0.296  11.916
80416W        W45643  32.819  32.956   0.322
80417W        W45644  28.136  15.688  12.596
80418W        W45645   6.643  25.500  14.397
80419W        W45646   0.579  36.918  13.346
80420W        W45647   0.934  12.963   4.765
80421W        W45648  29.247   3.390   2.348
80422W        W45649  38.157  12.894  11.510
80423W        W45650  40.776  16.047   3.813
80424W        W45651  33.343  44.389  12.341
80425W        W45652  10.624  31.521  13.598
80426W        W45653   2.316  21.461  11.662
80427W        W45654  16.180  16.022   1.803
80428W        W45655  32.173  34.448   3.365
80429W        W45656  10.150  35.902  11.103
80430W        W45657   1.321  34.151  13.292
80431W        W45658   9.116  10.223   1.766
80432W        W45659   4.318  17.778  14.652
80433W        W45660  15.786  21.434   2.833
80434W        W45661   6.213  29.427  13.964
80435W        W45662  26.976  10.825  10.720
80436W        W45663  34.424  10.454   0.306
80437W        W45664  39.798   1.080   1.405
80438W        W45665   0.508  25.194   1.153
80439W        W45666  37.556  38.628  14.973
80440W        W45667  42.377   9.133  12.569
80441W        W45668  27.646  42.569   0.436
80442W        W45669  42.018   1.719  10.649
80443W        W45670  44.013  21.137   4.197
80444W        W45671  21.535   5.773  11.687
80445W        W45672  36.004   7.124   4.763
80446W        W45673  21.132  44.471  11.265
80447W        W45674  10.621  20.632   4.705
80448W        W45675  14.853  36.662   4.215
80449W        W45676   6.330  17.646  13.293
80450W        W45677  25.430   7.410   3.982
80451W        W45678  36.884  14.341   0.551
80452W        W45679  24.621  11.935   1.321
80453W        W45680  19.610  33.645   3.781
80454W        W45681  43.337   4.985   9.630
80455W        W45682  35.489  35.974  12.889
80456W        W45683  44.076   9.629   0.635
80457W        W45684  32.351   4.301   0.451
80458W        W45685  18.492  39.013   2.414
80459W        W45686  21.645  38.357  10.742
80460W        W45687  28.216  36.457  10.235
80461W        W45688   5.264  19.382   0.463
80462W        W45689   8.555  36.559  13.094
80463W        W45690  17.368  14.225  13.586
80464W        W45691   8.413   0.143  12.181
80465W        W45692  11.389  28.296  11.464
80466W        W45693   5.477   1.219  12.111
80467W        W45694  19.756  19.630   4.108
80468W        W45695  38.023  24.964   4.218
80469W        W45696  13.663  30.479  13.381
80470W        W45697  27.020  29.291   3.962
80471W        W45698   0.443  18.832   0.829
80472W        W45699   0.464  16.186  10.602
80473W        W45700   4.022  18.737  13.472
80474W        W45701  24.169  44.654  14.924
80475W        W45702  38.366  36.242  14.543
80476W        W45703  25.422  29.941   3.880
80477W        W45704  20.546   2.764  10.326
80478W        W45705  41.483   2.998  13.890
80479W        W45706   4.228  24.067  12.577
80480W        W45707  30.592   9.978   1.865
80481W        W45708  20.278  29.735  11.378
80482W        W45709  33.709  17.046  14.845
80483W        W45710  25.026   7.846   4.688
80484W        W45711  33.135  26.710  11.646
80485W        W45712  41.431  43.170   0.359
80486W        W45713  31.071  29.202   0.295
80487W        W45714  22.100  41.803  12.101
80488W        W45715  16.129  23.907  12.857
80489W        W45716  19.805  38.510   2.525
80490W        W45717  30.022  20.999   2.152
80491W        W45718  19.039  35.122  14.335
80492W        W45719  21.550  25.522   2.737
80493W        W45720   7.422   8.165   2.043
80494W        W45721  15.255  34.110  12.584
80495W        W45722  21.372  33.164  12.534
80496W        W45723  36.306  21.043   2.842
80497W        W45724  13.661  20.983  11.954
80498W        W45725  39.130  35.530  12.155
80499W        W45726   9.185  14.005   0.307
80500W        W45727  36.863  15.846   1.626
80501W        W45728  30.200  30.514  12.876
80502W        W45729  31.647  38.599   3.240
80503W        W45730  20.614  12.896  11.091
80504W        W45731   5.785  42.816   0.206
80505W        W45732  22.540  33.589   4.250
80506W        W45733  29.031   7.917   3.646
80507W        W45734  32.364   3.138  14.888
80508W        W45735  39.751  29.529  13.433
80509W        W45736  17.258  37.401   2.328
80510W        W45737  17.675   5.102   0.955
80511W        W45738  35.986  18.662   1.469
80512W        W45739  30.236  39.572  13.458
80513W        W45740  33.369  29.971  12.837
80514W        W45741  32.630  37.023   1.213
80515W        W45742  11.568  40.445   3.996
80516W        W45743  29.486  14.523  14.379
80517W        W45744  37.775   6.610   4.531
80518W        W45745   5.832  31.685   4.200
80519W        W45746   3.294   6.229  13.190
80520W        W45747   6.135   6.487  13.497
80521W        W45748  44.312  10.469   4.590
80522W        W45749   3.002   9.261  12.025
80523W        W45750   7.348  15.632  12.140
80524W        W45751  19.470  37.907  11.762
80525W        W45752  13.335   9.199   0.306
80526W        W45753   1.381  20.559   2.701
80527W        W45754   0.456  15.964  12.538
80528W        W45755   0.970  25.542  10.702
80529W        W45756  21.551  18.620   2.798
80530W        W45757   4.261  12.286   2.608
80531W        W45758  19.018  40.315  11.592
80532W        W45759  11.272  19.518   2.143
80533W        W45760  21.997  33.697  10.891
80534W        W45761  29.951   1.488  12.147
80535W        W45762  39.786  16.043   3.748
80536W        W45763  24.372   3.079  11.172
80537W        W45764  42.007  28.489   0.810
80538W        W45765   1.432   5.572  14.878
80539W        W45766   2.058  33.454  11.592
80540W        W45767  35.354  34.695   2.563
80541W        W45768  27.385  20.637   1.804
80542W        W45769  42.449   3.043   2.652
80543W        W45770   4.551  18.940   2.871
80544W        W45771  19.773  13.336  11.600
80545W        W45772  19.994   4.647  11.233
80546W        W45773  15.121  17.742  10.694
80547W        W45774   0.494  22.260  10.613
80548W        W45775  21.677   0.013  12.976
80549W        W45776  14.705  27.104   2.744
80550W        W45777  16.649   5.319  12.055
80551W        W45778  24.967   2.972   1.738
80552W        W45779   3.685  26.776   0.901
80553W        W45780  35.693  17.336  14.702
80554W        W45781  18.517  16.039  13.925
80555W        W45782   5.902  34.464   3.628
80556W        W45783  18.646   3.234   2.662
80557W        W45784  42.193  42.488   0.863
80558W        W45785   2.965  30.112  11.495
80559W        W45786  29.988  40.073  13.394
80560W        W45787  23.123  31.081   2.838
80561W        W45788   9.578  21.228  10.736
80562W        W45789  35.854  38.661   1.207
80563W        W45790  22.102  41.251   4.557
80564W        W45791   5.627   6.869  12.849
80565W        W45792  28.288  10.929  12.065
80566W        W45793  22.062  38.452  14.696
80567W        W45794  12.361  44.101  10.640
80568W        W45795  32.285  21.761  11.985
80569W        W45796  34.204  10.670   2.700
80570W        W45797  42.545  43.593  11.141
80571W        W45798   6.229  33.543   3.691
80572W        W45799  40.584  23.482  13.061
80573W        W45800  38.470   0.393  14.380
80574W        W45801  16.627  23.070  13.983
80575W        W45802  12.986  10.757  10.753
80576W        W45803  19.530  22.089  11.363
80577W        W45804  23.859  38.572  11.134
80578W        W45805  42.271  12.523  13.386
80579W        W45806   5.123  18.743  12.363
80580W        W45807   9.957  20.820  10.952
80581W        W45808  17.093  19.522  13.949
80582W        W45809  12.658  44.964  11.315
80583W        W45810  28.035  35.395   3.666
80584W        W45811   2.040  15.648   2.652
80585W        W45812  32.091  41.061  10.592
80586W        W45813  33.660  22.503  13.837
80587W        W45814  11.182  29.434  10.830
80588W        W45815   9.711   7.030   1.707
80589W        W45816  17.253  25.883   2.258
80590W        W45817  26.499   2.083   2.690
80591W        W45818  42.272  35.830   3.847
80592W        W45819  35.042  32.104  12.536
80593W        W45820  36.922  41.379   2.452
80594W        W45821   4.590   2.984   1.153
80595W        W45822   6.556  30.692   2.860
80596W        W45823   6.215  37.216  10.731
80597W        W45824  26.955   5.877  14.406
80598W        W45825   1.786  33.364  10.958
80599W        W45826  19.804   8.293   1.299
80600W        W45827  39.866   3.897  14.823
80601W        W45828   1.786  35.333   1.484
80602W        W45829  36.865   0.927   3.550
80603W        W45830   8.862  14.879   3.178
80604W        W45831   8.766  20.780   4.604
80605W        W45832  30.525   7.148  14.886
80606W        W45833  37.117  22.030   4.633
80607W        W45834   0.365  32.833   0.145
80608W        W45835  25.705  17.178  13.387
80609W        W45836  44.698  40.566   2.601
80610W        W45837  16.747  38.178  12.519
80611W        W45838  19.597  33.716   0.821
80612W        W45839  12.133   8.138   4.204
80613W        W45840   1.793   8.712  13.889
80614W        W45841  10.156  28.644   1.303
80615W        W45842  21.580   5.084  10.126
80616W        W45843   2.207   5.918   5.018
80617W        W45844  29.746   7.843   3.346
80618W        W45845   1.009  41.305  12.568
80619W        W45846  15.724   0.288   0.680
80620W        W45847  28.391  13.203   4.983
80621W        W45848  38.900   1.839  12.435
80622W        W45849  23.896   2.972  13.165
80623W        W45850  31.854  25.962   0.459
80624W        W45851  13.295  44.480   3.348
80625W        W45852  22.671  36.571   1.787
80626W        W45853   1.187  13.638   0.432
80627W        W45854  13.862  17.498  12.864
80628W        W45855  15.608   4.990  10.780
80629W        W45856  43.493   9.738  13.042
80630W        W45857   9.202  35.917  14.259
80631W        W45858   6.860  26.208   4.621
80632W        W45859  16.074  31.513   3.123
80633W        W45860  11.189  21.700   1.364
80634W        W45861  36.150   7.587  13.387
80635W        W45862  30.356  20.453   4.660
80636W        W45863  20.575   3.373  11.172
80637W        W45864  16.934  26.228  10.342
80638W        W45865  39.274  43.310  11.693
80639W        W45866  36.059  44.011  10.721
80640W        W45867  43.455  44.863   2.617
80641W        W45868   8.125  40.945   2.451
80642W        W45869  35.542  31.995  12.367
80643W        W45870   0.222   7.689   2.294
80644W        W45871  11.826   9.749   9.911
80645W        W45872  36.875  39.334  13.859
80646W        W45873  41.188  40.377  13.985
80647W        W45874   4.320   4.651   2.347
80648W        W45875  15.196  11.410  12.968
80649W        W45876   3.204  24.596   1.710
80650W        W45877   5.527  34.192   3.862
80651W        W45878  29.937  20.142   1.925
80652W        W45879   7.079   3.352   3.066
80653W        W45880  35.246  40.417   4.874
80654W        W45881  36.581   1.255   0.254
80655W        W45882  33.261  40.595   1.641
80656W        W45883   6.682  40.425  14.911
80657W        W45884  34.974  40.185  13.578
80658W        W45885  44.081  16.823  14.028
80659W        W45886  30.448  33.456  14.845
80660W        W45887  26.639   1.527  13.451
80661W        W45888   0.303  14.728   1.910
80662W        W45889  28.379  27.160  12.204
80663W        W45890   2.874  44.780   0.410
80664W        W45891  26.997  14.398  14.777
80665W        W45892   0.201   9.927  13.999
80666W        W45893   6.998  26.741  13.858
80667W        W45894  21.005  28.165   3.163
80668W        W45895  17.250  28.415  11.349
80669W        W45896  28.314  32.115  12.758
80670W        W45897   7.923  31.609   0.383
80671W        W45898  44.476  24.762  10.621
80672W        W45899  24.697  32.052  14.279
80673W        W45900   3.908  10.625   3.239
80674W        W45901  44.856  35.759  12.137
80675W        W45902  20.730  17.947  14.576
80676W        W45903   1.482  20.736   4.041
80677W        W45904  25.197  28.937   3.740
80678W        W45905  34.416  15.798  13.145
80679W        W45906  24.504  33.503  11.531
80680W        W45907  19.042   0.314   2.464
80681W        W45908  27.296  18.961   0.398
80682W        W45909  30.931  22.529   2.370
80683W        W45910   4.825  31.236   2.983
80684W        W45911  35.982   0.740   2.665
80685W        W45912  24.242  39.134  11.287
80686W        W45913  44.297  39.276  11.365
80687W        W45914  27.779  25.738  11.955
80688W        W45915  37.856  16.344   3.311
80689W        W45916  15.741  11.982   3.119
80690W        W45917   5.679  25.499   4.401
80691W        W45918   5.225  20.286  14.160
80692W        W45919  22.981  43.938  12.465
80693W        W45920  13.013   3.065   5.058
80694W        W45921   5.147   7.798  13.786
80695W        W45922  37.113  16.457   4.971
80696W        W45923  18.929  22.899  14.961
80697W        W45924  31.482  43.218  11.489
80698W        W45925  15.652   1.199   2.719
80699W        W45926  37.836  17.804  14.868
80700W        W45927  20.944   5.504   4.401
80701W        W45928   1.888  41.046   0.876
80702W        W45929  41.340  41.270   3.186
80703W        W45930  16.536  28.360   2.228
80704W        W45931  37.761  10.267  14.259
80705W        W45932   7.921  42.529   4.203
80706W        W45933  16.680  41.091   3.061
80707W        W45934  16.790   0.727   2.790
80708W        W45935  33.724   7.480   4.915
80709W        W45936  30.819   5.610  11.103
80710W        W45937  42.410  20.118  12.613
80711W        W45938  25.257  16.539   3.158
80712W        W45939  34.918  20.783  14.913
80713W        W45940   0.902  15.823   1.361
80714W        W45941  36.658   9.182  11.886
80715W        W45942  34.590  27.950   4.588
80716W        W45943   6.093  43.947   4.016
80717W        W45944  44.233  26.630   1.899
80718W        W45945  17.387  28.386  12.415
80719W        W45946  29.546  40.810  12.277
80720W        W45947  31.652  24.500   1.945
80721W        W45948  43.886  42.524  10.929
80722W        W45949  36.103  27.186   2.765
80723W        W45950  39.699  28.722   2.783
80724W        W45951  44.457  20.722  12.895
80725W        W45952  43.944  14.645   2.838
80726W        W45953  36.654  43.043   2.118
80727W        W45954  13.728  14.843  10.687
80728W        W45955   9.131  32.202   5.203
80729W        W45956  22.418  23.609  11.188
80730W        W45957  12.594  28.170   2.457
80731W        W45958   6.755  43.546  14.421
80732W        W45959  23.647   2.443   4.084
80733W        W45960  26.024   4.190   3.576
80734W        W45961  28.215  33.540   1.524
80735W        W45962  30.072  34.084  13.300
80736W        W45963  32.622  32.438  10.735
80737W        W45964  19.218  24.258   3.116
80738W        W45965  35.044   0.874  13.473
80739W        W45966  18.215   8.476   4.910
80740W        W45967  29.876  14.855  10.697
80741W        W45968  44.315  42.923   2.207
80742W        W45969   6.300   3.172   2.935
80743W        W45970  35.610  27.993   3.010
80744W        W45971  30.506   7.436   1.766
80745W        W45972   9.668  41.995   2.263
80746W        W45973  21.607  42.091  12.049
80747W        W45974   6.982  37.850  12.769
80748W        W45975  17.834  35.351   3.392
80749W        W45976   5.825  39.651  13.500
80750W        W45977  25.987  16.806   2.781
80751W        W45978  21.586  44.238   0.321
80752W        W45979   9.134  35.500  13.974
80753W        W45980   7.714  19.007   3.240
80754W        W45981  18.534  19.486  12.672
80755W        W45982  41.360  24.736  14.468
80756W        W45983  29.968  26.092   0.524
80757W        W45984  20.987  16.154  12.890
80758W        W45985  22.806  40.597   9.836
80759W        W45986  38.083  10.190  10.876
80760W        W45987  41.321  40.867   1.237
80761W        W45988   1.322   1.677   2.228
80762W        W45989  11.747  16.038  11.579
80763W        W45990   6.840  22.600  10.726
80764W        W45991  23.545  14.338   1.749
80765W        W45992   6.733  28.054   1.697
80766W        W45993  11.380  21.690  14.840
80767W        W45994  23.958  42.563   0.497
80768W        W45995  43.663   6.739   1.315
80769W        W45996  23.784  30.550  10.764
80770W        W45997   1.222  36.919  11.927
80771W        W45998  36.639  35.082   2.466
80772W        W45999  16.655  40.798  10.525
80773W        W46000  17.784  19.938   0.076
80774W        W46001   9.329  43.336   2.279
80775W        W46002  21.193  29.262  11.787
80776W        W46003  12.672  27.792  11.081
80777W        W46004  30.382  17.761   0.049
80778W        W46005  35.127  26.373   0.367
80779W        W46006  43.763   4.937  13.933
80780W        W46007  24.702  41.540  11.075
80781W        W46008  37.596   9.765   1.876
80782W        W46009  29.011   4.731  14.708
80783W        W46010  22.739  44.435   1.965
80784W        W46011  23.063  20.308  11.107
80785W        W46012  44.800  37.427  14.664
80786W        W46013  29.433  42.399  14.571
80787W        W46014  28.029   2.767  14.862
80788W        W46015  37.007   2.256  14.397
80789W        W46016  20.707  15.856  10.697
80790W        W46017  16.173   5.726  10.357
80791W        W46018  23.918  20.125  12.364
80792W        W46019  39.504   9.132  11.454
80793W        W46020  24.077   6.278  14.387
80794W        W46021  27.630  39.849   4.628
80795W        W46022  25.033   6.279  13.123
80796W        W46023  34.504  40.405  12.368
80797W        W46024  36.029  21.118   1.283
80798W        W46025  42.652  24.217   0.953
80799W        W46026  35.888   4.676  12.203
80800W        W46027  10.599  22.518   1.239
80801W        W46028  15.139   5.253   1.048
80802W        W46029  18.777  37.734  10.506
80803W        W46030   9.249   2.257  10.607
80804W        W46031  22.004  39.948  14.755
80805W        W46032  32.383  31.079  12.360
80806W        W46033  40.161  22.761  13.678
80807W        W46034  27.293  31.992   1.232
80808W        W46035  22.751   8.370  14.314
80809W        W46036  31.401  13.565  12.964
80810W        W46037  17.633  38.266  13.890
80811W        W46038  18.545  32.224  13.900
80812W        W46039  41.890  11.203  12.885
80813W        W46040  31.382  28.168   5.363
80814W        W46041  20.605  18.706   4.606
80815W        W46042  26.464  16.204  12.226
80816W        W46043  14.282   3.339   3.712
80817W        W46044   8.177  16.793   2.704
80818W        W46045  24.235  21.467   0.500
80819W        W46046   1.519  18.981  14.439
80820W        W46047  41.215  38.250   3.127
80821W        W46048  18.646  12.432  10.890
80822W        W46049  25.059  33.032  14.937
80823W        W46050  29.815  30.249  10.238
80824W        W46051  25.055   7.308  14.800
80825W        W46052  41.117   1.629   2.943
80826W        W46053  16.876  34.583   1.268
80827W        W46054   4.039   1.941   2.678
80828W        W46055  15.078   8.887  14.469
80829W        W46056  35.554  26.290   3.501
80830W        W46057  18.174  31.379  12.925
80831W        W46058  10.083  12.797  11.239
80832W        W46059  17.572  16.951   1.447
80833W        W46060  10.232  25.432   0.093
80834W        W46061   8.621  26.989  11.767
80835W        W46062  22.101   9.617  11.228
80836W        W46063  27.671  21.645   4.120
80837W        W46064  25.702   4.170   1.052
80838W        W46065  28.125  31.115  13.697
80839W        W46066   4.347  21.069   2.296
80840W        W46067   8.330  23.443   2.914
80841W        W46068  10.213   5.970  12.628
80842W        W46069  18.317  22.173  12.070
80843W        W46070  20.741  17.047   2.805
80844W        W46071  36.006  26.100  13.406
80845W        W46072  18.211  42.969  10.353
80846W        W46073  21.793  11.339  10.812
80847W        W46074  37.331  13.774   2.507
80848W        W46075   5.805  38.999   3.368
80849W        W46076  19.216  24.495  13.627
80850W        W46077   6.339  41.522   0.442
80851W        W46078  27.114  36.059   1.311
80852W        W46079  37.700  25.027  13.319
80853W        W46080  39.252   8.621  11.140
80854W        W46081  37.925  43.058   1.949
80855W        W46082  38.876  21.278  10.651
80856W        W46083  23.523   2.257  14.496
80857W        W46084   3.912  39.427  14.252
80858W        W46085  16.343  32.987   1.802
80859W        W46086  27.188  38.108   2.105
80860W        W46087  16.889  23.938  14.705
80861W        W46088  44.788  27.248   1.890
80862W        W46089   9.575  31.632  11.393
80863W        W46090  31.653   5.297  14.930
80864W        W46091  17.711  12.830   2.347
80865W        W46092  37.820  26.459  13.894
80866W        W46093   8.410  37.858  11.907
80867W        W46094  39.631   1.812   0.391
80868W        W46095   3.759  39.127   2.591
80869W        W46096  34.307  10.072  11.167
80870W        W46097  10.090   6.216  13.103
80871W        W46098  44.964  30.605   1.861
80872W        W46099  34.462  34.264  14.834
80873W        W46100  15.539  21.664  11.902
80874W        W46101  44.444  24.001   0.256
80875W        W46102  38.451  41.425  11.242
80876W        W46103  26.840  24.928  12.509
80877W        W46104  24.678   7.705   4.319
80878W        W46105  14.919  42.300   2.429
80879W        W46106  35.835  28.674  11.129
80880W        W46107  27.494  21.659   3.628
80881W        W46108   0.950  28.116  14.242
80882W        W46109  32.429   4.855   3.898
80883W        W46110  13.508  21.018   0.281
80884W        W46111  21.687  30.983  12.158
80885W        W46112  18.848  29.052  13.969
80886W        W46113  22.209  37.002   2.032
80887W        W46114  26.024  33.853  12.923
80888W        W46115  32.233   1.210   3.756
80889W        W46116  27.959   7.450  14.520
80890W        W46117   8.021  26.618  14.842
80891W        W46118  36.353  44.844   1.498
80892W        W46119  33.727  15.874  14.205
80893W        W46120  41.051  26.968   4.095
80894W        W46121  22.526  38.889  12.887
80895W        W46122  37.512  25.961   4.670
80896W        W46123  23.903  24.105  11.246
80897W        W46124  36.104  19.844  11.144
80898W        W46125  25.478  33.536   4.116
80899W        W46126  12.290  18.144   4.296
80900W        W46127  28.615  34.013   2.665
80901W        W46128  18.139  25.479  12.502
80902W        W46129  21.535  22.666  12.091
80903W        W46130  30.022  13.655  14.567
80904W        W46131  10.785  19.989   2.805
80905W        W46132  24.658  27.010  14.600
80906W        W46133  33.427   6.302   2.226
80907W        W46134  25.603  12.803   3.554
80908W        W46135  28.961  31.993   4.609
80909W        W46136  13.621  40.818  13.036
80910W        W46137   3.793  23.520   1.071
80911W        W46138  27.489  21.263   4.417
80912W        W46139  23.690   9.685   2.402
80913W        W46140  16.153  44.909  12.039
80914W        W46141  25.603  35.197  10.884
80915W        W46142  28.750  40.989   2.712
80916W        W46143  12.694  18.794   0.300
80917W        W46144  27.463  30.301  10.377
80918W        W46145  20.215  33.025   4.223
80919W        W46146  30.855  24.636   9.986
80920W        W46147  22.943   9.667  11.616
80921W        W46148  29.404  19.098  10.717
80922W        W46149  20.624   2.996  13.835
80923W        W46150   2.912  13.226  10.956
80924W        W46151  28.055  22.456  14.237
80925W        W46152  40.107   7.529   4.043
80926W        W46153  31.628  20.450   1.407
80927W        W46154  40.112  39.492  12.338
80928W        W46155  25.541   0.877   0.261
80929W        W46156  23.216  14.643  12.196
80930W        W46157  16.067  19.460   3.102
80931W        W46158  14.577   3.525  12.535
80932W        W46159   0.387   7.804   1.784
80933W        W46160   8.283   6.391  13.204
80934W        W46161  35.130  44.006  11.648
80935W        W46162  31.232  26.630   0.290
80936W        W46163   3.473  43.922  14.811
80937W        W46164  19.106   9.241  12.578
80938W        W46165  21.267  24.989   2.025
80939W        W46166   3.421  28.349   5.039
80940W        W46167  35.624  14.912   2.898
80941W        W46168  40.546  13.618   2.846
80942W        W46169   2.975  27.949   2.706
80943W        W46170   3.651  44.079   1.327
80944W        W46171   5.438  25.083  13.008
80945W        W46172  31.340   9.387  12.512
80946W        W46173  14.647  33.306   3.621
80947W        W46174  38.526   4.693  14.931
80948W        W46175  14.418  41.542   1.796
80949W        W46176  21.128  30.995  12.394
80950W        W46177  27.664   6.294  12.891
80951W        W46178  33.942  17.706   2.326
80952W        W46179  16.195  15.103  12.914
80953W        W46180  32.146  31.456   2.086
80954W        W46181  29.156  25.502  12.493
80955W        W46182  39.920  31.455  11.948
80956W        W46183  24.825  40.081   3.797
80957W        W46184  13.176  27.606   3.729
80958W        W46185  34.192  12.199  14.875
80959W        W46186  38.317  32.576   4.637
80960W        W46187   8.840   4.709  10.392
80961W        W46188  13.179  37.574  12.104
80962W        W46189  35.903  21.541  11.721
80963W        W46190  20.690  19.220   3.680
80964W        W46191  20.435   3.211   4.535
80965W        W46192  11.159  11.220  11.583
80966W        W46193  34.994  42.818   1.346
80967W        W46194  27.431  15.722  10.989
80968W        W46195  32.514  18.277   0.217
80969W        W46196  34.616  33.125  10.706
80970W        W46197   2.324  30.146   4.504
80971W        W46198  40.536  14.094  14.267
80972W        W46199  16.577   5.800  13.833
80973W        W46200  14.110  41.991   2.323
80974W        W46201   2.991  11.797  13.014
80975W        W46202  10.754  26.041   1.256
80976W        W46203  36.674  33.619  14.519
80977W        W46204  30.859  12.398   5.365
80978W        W46205  37.128  13.773   4.627
80979W        W46206  27.383  13.743  11.092
80980W        W46207  19.671  34.150   3.928
80981W        W46208  41.776  29.421   2.678
80982W        W46209   5.510  16.360  12.943
80983W        W46210  13.211   7.953  14.811
80984W        W46211  27.252  41.589  14.941
80985W        W46212  17.554  39.324   4.104
80986W        W46213  11.145  44.641  10.378
80987W        W46214  36.924   3.664   4.030
80988W        W46215  13.295  19.340   5.027
80989W        W46216  37.392   6.276   0.210
80990W        W46217  11.306  42.772  13.537
80991W        W46218  11.762  18.364   0.261
80992W        W46219  16.733  16.494  13.975
80993W        W46220  21.456  14.428   2.216
80994W        W46221  34.860  20.016  13.570
80995W        W46222  19.538  38.892   2.746
80996W        W46223  43.826  27.895   2.822
80997W        W46224  43.988  42.502   0.799
80998W        W46225  36.377  44.613   4.190
80999W        W46226  12.312  25.474   2.752
81000W        W46227  13.087  11.790  12.005
81001W        W46228  12.242  39.590   2.136
81002W        W46229   2.783  34.244  11.859
81003W        W46230  24.559  38.488   3.187
81004W        W46231  33.620   1.484   1.752
81005W        W46232  29.349  28.934  12.627
81006W        W46233  31.095   7.197  12.544
81007W        W46234  33.337  24.432  10.785
81008W        W46235  42.541   4.373  12.029
81009W        W46236  15.165  38.595   4.937
81010W        W46237  26.496  16.532  13.603
81011W        W46238  20.400   0.010   4.054
81012W        W46239  18.859  15.241   4.586
81013W        W46240  19.715  40.794  11.026
81014W        W46241  32.548  25.726   0.007
81015W        W46242  25.970   7.883   4.752
81016W        W46243   2.358  19.353  10.967
81017W        W46244   8.599   5.301   2.749
81018W        W46245   6.484  16.970   3.993
81019W        W46246  24.059  20.608  14.495
81020W        W46247  41.257  39.159   0.798
81021W        W46248  14.677   7.393   1.734
81022W        W46249  23.155  20.802  13.507
81023W        W46250  38.347  42.518   0.190
81024W        W46251  17.780  42.858   1.267
81025W        W46252  13.658  39.517   2.406
81026W        W46253  17.020  29.955  13.107
81027W        W46254  35.182   6.642   3.379
81028W        W46255  30.709  29.994  11.711
81029W        W46256  29.987   3.412   1.847
81030W        W46257  19.511   0.526  14.538
81031W        W46258   7.334  13.097   0.798
81032W        W46259   5.227  12.577   3.769
81033W        W46260  22.280  14.670  13.930
81034W        W46261   6.682  25.541   3.860
81035W        W46262   2.736  22.333   2.800
81036W        W46263   1.636  19.589   4.568
81037W        W46264   1.932  34.574  11.475
81038W        W46265  16.538  31.110   0.761
81039W        W46266  30.977  14.853  13.344
81040W        W46267  13.095  38.876  14.892
81041W        W46268  21.720  44.253   1.902
81042W        W46269  10.399  11.771   2.584
81043W        W46270  34.932   3.722  12.578
81044W        W46271  31.284  16.364  13.967
81045W        W46272  24.657  29.667  13.381
81046W        W46273  28.441  30.158   3.110
81047W        W46274  29.269  35.000  13.507
81048W        W46275  31.079  43.036  13.463
81049W        W46276  18.758   4.877  11.660
81050W        W46277  30.446  14.134   3.557
81051W        W46278   9.182   8.699   0.636
81052W        W46279  19.690  24.268   2.851
81053W        W46280  35.474  33.577  11.921
81054W        W46281   8.180  11.798  12.644
81055W        W46282  17.625   6.295   1.421
81056W        W46283  22.048  38.126   3.618
81057W        W46284  26.409  35.916   4.071
81058W        W46285  16.156  23.363  10.931
81059W        W46286  43.765  42.222   2.603
81060W        W46287  42.901   4.997  10.937
81061W        W46288  10.603  15.935   1.848
81062W        W46289  25.799  26.806  12.037
81063W        W46290  28.144  17.595  12.069
81064W        W46291   2.222  15.357   0.810
81065W        W46292  31.413  44.352  12.207
81066W        W46293  29.187  28.200  14.518
81067W        W46294  13.542  27.525   1.742
81068W        W46295   2.240  32.684   4.871
81069W        W46296   9.229  43.536  13.606
81070W        W46297  28.137  11.294   4.096
81071W        W46298  28.940  34.061  11.127
81072W        W46299  41.266   2.278   0.734
81073W        W46300  37.071  31.067  12.621
81074W        W46301  13.783  22.057  14.879
81075W        W46302  19.017  17.011  10.634
81076W        W46303  11.897   0.871   3.154
81077W        W46304  31.976   0.282  10.973
81078W        W46305   8.213   9.907  13.496
81079W        W46306  34.956  17.571  13.858
81080W        W46307  38.154  10.900   1.896
81081W        W46308  28.250  34.822   1.922
81082W        W46309  18.011  43.576  14.043
81083W        W46310  23.723  26.773   3.170
81084W        W46311  31.775  30.915   4.593
81085W        W46312  29.047  13.273  11.870
81086W        W46313  37.597  17.078   2.714
81087W        W46314  43.555  18.190   9.588
81088W        W46315  28.642  29.988  14.381
81089W        W46316   3.223  12.081  14.029
81090W        W46317  19.235  43.496   0.390
81091W        W46318  24.719  34.629   4.231
81092W        W46319   6.581  16.875   0.472
81093W        W46320  37.222  36.555   4.903
81094W        W46321   0.833  41.085  13.400
81095W        W46322  43.010  20.542  13.855
81096W        W46323   6.323  13.348   0.409
81097W        W46324  25.788  26.536  11.175
81098W        W46325  14.400   3.150   0.257
81099W        W46326  10.389  37.527   4.222
81100W        W46327  22.010  44.528  14.009
81101W        W46328  17.873  14.421   2.329
81102W        W46329  42.956   4.714   1.807
81103W        W46330  31.519  23.039  11.968
81104W        W46331  21.174  29.329  13.859
81105W        W46332  15.936  23.278  14.205
81106W        W46333   5.764  14.575   2.351
81107W        W46334   9.298  25.989  12.981
81108W        W46335  39.684  11.736  14.051
81109W        W46336  32.138   8.717   4.164
81110W        W46337  32.016  20.010   2.784
81111W        W46338  17.868  15.151   4.618
81112W        W46339  35.620  39.564  14.380
81113W        W46340   8.790  33.286   3.790
81114W        W46341  20.287   1.138   3.651
81115W        W46342  29.164  21.300  13.427
81116W        W46343  14.391  17.750   0.966
81117W        W46344  28.266   5.389   3.053
81118W        W46345  35.850  18.529   0.975
81119W        W46346  28.317  23.452   3.010
81120W        W46347  12.148   3.143   0.424
81121W        W46348  35.504  44.330  14.457
81122W        W46349   4.561  33.570   3.168
81123W        W46350  16.851   3.420   4.602
81124W        W46351  29.657  23.740   0.614
81125W        W46352   1.537  21.229  14.935
81126W        W46353  19.893   8.635  11.998
81127W        W46354  31.131  40.414  11.658
81128W        W46355  26.538  26.767  13.784
81129W        W46356  22.087  36.333   4.140
81130W        W46357  41.240  20.047   4.606
81131W        W46358  43.503  34.833  13.384
81132W        W46359   8.881  21.560  10.730
81133W        W46360   2.822  21.960   4.128
81134W        W46361   7.420  25.605   2.538
81135W        W46362  43.526  32.103   4.633
81136W        W46363   3.596   4.949  14.218
81137W        W46364  29.656  35.544  14.696
81138W        W46365  22.675  11.476   2.068
81139W        W46366  37.125   0.351  12.964
81140W        W46367   9.355  15.017  13.051
81141W        W46368   3.513  18.008   1.011
81142W        W46369   1.695   4.502   1.487
81143W        W46370   8.951   1.898   0.363
81144W        W46371  41.142   3.049   1.959
81145W        W46372  21.996   6.866  10.551
81146W        W46373   1.941  21.634  10.763
81147W        W46374   5.465   7.835   0.895
81148W        W46375  16.679   8.385  14.799
81149W        W46376  33.421  28.956  11.576
81150W        W46377   7.180  44.002   2.394
81151W        W46378  31.862   8.371  10.633
81152W        W46379  16.057   7.041   1.875
81153W        W46380  19.276  37.551  12.460
81154W        W46381  40.305   8.171   5.009
81155W        W46382  42.239  38.573  14.390
81156W        W46383  26.710  38.179   4.085
81157W        W46384  12.472  28.043   1.183
81158W        W46385  32.793  35.222  14.910
81159W        W46386  43.320  34.054   3.786
81160W        W46387  14.314  42.939  10.895
81161W        W46388  40.161  14.605   0.957
81162W        W46389  37.769  23.488   4.753
81163W        W46390  36.281  11.448  14.908
81164W        W46391  31.282  27.032  12.236
81165W        W46392  25.229  16.367  13.361
81166W        W46393   5.429  39.377   1.731
81167W        W46394   1.362  22.817  14.276
81168W        W46395  17.219  13.328  11.069
81169W        W46396  37.561  10.427  13.055
81170W        W46397  21.274   1.272   1.506
81171W        W46398   9.185   7.410   2.498
81172W        W46399   8.808  17.102   1.660
81173W        W46400  27.409   6.690  13.817
81174W        W46401  44.092  20.669   2.258
81175W        W46402  16.111  10.358  13.117
81176W        W46403  17.250  15.008  11.889
81177W        W46404  44.307  34.404  13.453
81178W        W46405  35.737  38.016   5.561
81179W        W46406  40.841  35.225   3.327
81180W        W46407  16.779   1.202   0.373
81181W        W46408  19.852   2.572   3.211
81182W        W46409  39.454  16.206   3.332
81183W        W46410  13.354  40.439  13.935
81184W        W46411  31.456  35.591   1.287
81185W        W46412  38.951  16.267   3.269
81186W        W46413   8.185  35.359  14.952
81187W        W46414  41.835  27.529   2.804
81188W        W46415  12.045  35.984  14.401
81189W        W46416  43.598  32.918  11.101
81190W        W46417   3.021  23.330   1.210
81191W        W46418   6.922  38.809  10.318
81192W        W46419  22.625  27.614  10.461
81193W        W46420  27.153  25.051   3.619
81194W        W46421  35.787  17.673   0.754
81195W        W46422   0.959  10.221   2.266
81196W        W46423   5.887  26.788  13.556
81197W        W46424  12.211  35.135  12.400
81198W        W46425  18.622   0.412  12.045
81199W        W46426  43.794  11.831  11.376
81200W        W46427  36.688  13.595  13.899
81201W        W46428   4.261  24.468   3.644
81202W        W46429   8.294  11.989  11.690
81203W        W46430  16.810  39.944  12.055
81204W        W46431  22.310  32.896  14.072
81205W        W46432   6.305  37.086   2.460
81206W        W46433  21.952  10.346  12.074
81207W        W46434  24.153  14.067   2.998
81208W        W46435  35.232  23.262   2.437
81209W        W46436  30.482   6.226   3.668
81210W        W46437  25.530  11.840  12.027
81211W        W46438   3.840  16.192   4.877
81212W        W46439   4.805  28.395   3.662
81213W        W46440  43.978  43.863  12.293
81214W        W46441  24.616  14.883   4.388
81215W        W46442  27.745   0.744   2.565
81216W        W46443  29.790  28.293   5.016
81217W        W46444  21.238  10.855   1.312
81218W        W46445   0.705  23.198   2.148
81219W        W46446  14.250  24.273  12.817
81220W        W46447  22.019   7.923   3.192
81221W        W46448  11.187   1.700  13.906
81222W        W46449  15.278   2.919   1.437
81223W        W46450  29.397  37.144   3.628
81224W        W46451   0.291  12.411   3.695
81225W        W46452  10.257  32.446  14.193
81226W        W46453   2.190  38.859   0.293
81227W        W46454  22.154  13.643   4.058
81228W        W46455  22.614  13.897  10.822
81229W        W46456  38.250  44.423  14.845
81230W        W46457   6.832   4.462  12.532
81231W        W46458  19.224   5.379   3.668
81232W        W46459  37.424  19.765   4.144
81233W        W46460  33.053   2.540  10.725
81234W        W46461  12.176  37.338   1.165
81235W        W46462  35.863   8.601  13.355
81236W        W46463  39.617  14.389   3.717
81237W        W46464   7.191  12.767   0.383
81238W        W46465  26.098  43.254   3.254
81239W        W46466  36.631  34.328   4.629
81240W        W46467  41.101  17.145   0.339
81241W        W46468  15.288   8.366  13.093
81242W        W46469   8.602   5.884  14.376
81243W        W46470  30.433  43.811   2.748
81244W        W46471  22.546  28.995   0.807
81245W        W46472  35.985  35.428   0.541
81246W        W46473  10.310  11.863   3.111
81247W        W46474   9.332  22.723  14.956
81248W        W46475  19.191  41.411  14.206
81249W        W46476  20.798  15.842   9.881
81250W        W46477  27.418   1.760  14.799
81251W        W46478   2.925  17.549  13.067
81252W        W46479  14.837  27.121  12.222
81253W        W46480  38.864  17.983  14.820
81254W        W46481  40.412  30.794  13.809
81255W        W46482   9.808  43.872   3.419
81256W        W46483   0.360   2.774   2.497
81257W        W46484  36.992  26.410   1.301
81258W        W46485  16.161  28.859  10.776
81259W        W46486  44.284  12.248  13.848
81260W        W46487  12.801  15.715  11.957
81261W        W46488  34.303  20.305  12.062
81262W        W46489  22.056  37.093   1.569
81263W        W46490  42.434  24.190   2.332
81264W        W46491   7.712  40.704   2.183
81265W        W46492  23.397  30.570   4.523
81266W        W46493  29.062   3.264  14.938
81267W        W46494  14.375  38.853  12.899
81268W        W46495  37.555  42.522   2.328
81269W        W46496   0.839  30.426  11.675
81270W        W46497  42.874  24.548   3.189
81271W        W46498  35.955   2.236  13.323
81272W        W46499  31.340   0.393   1.693
81273W        W46500  14.486  15.345  12.503
81274W        W46501  13.050  27.583  14.899
81275W        W46502  36.103  16.998   1.300
81276W        W46503  40.625  34.979   3.751
81277W        W46504   7.194  42.754   1.455
81278W        W46505  28.086   6.000  10.483
81279W        W46506  31.561  32.498   0.182
81280W        W46507   2.325  39.750  14.853
81281W        W46508  25.220  14.875   2.402
81282W        W46509  38.982  36.449   0.296
81283W        W46510  16.081  10.677   0.956
81284W        W46511  35.372  33.580  14.053
81285W        W46512   5.775  11.820   3.917
81286W        W46513  25.591  20.346   1.802
81287W        W46514   2.775  36.376   2.327
81288W        W46515  26.681   3.517  12.168
81289W        W46516  33.338  23.263  14.854
81290W        W46517   2.757  35.115  10.718
81291W        W46518  17.312  10.081   2.333
81292W        W46519  15.559  19.568  13.955
81293W        W46520  19.326  19.852   3.895
81294W        W46521  16.158  15.926  12.965
81295W        W46522  19.007  15.336   3.250
81296W        W46523  33.144  32.876   4.558
81297W        W46524  37.527  40.819   0.327
81298W        W46525   7.108   4.538   1.915
81299W        W46526   3.785  32.582   1.934
81300W        W46527  19.529   3.374  13.373
81301W        W46528   2.656  42.430  11.018
81302W        W46529  25.357   5.726   2.812
81303W        W46530  25.893  37.919  13.719
81304W        W46531   6.626  34.360   2.805
81305W        W46532  36.447  41.833  11.754
81306W        W46533  31.334  35.589   3.239
81307W        W46534  13.136  16.835   1.465
81308W        W46535  25.787  24.988  14.880
81309W        W46536  38.471  27.707  12.964
81310W        W46537  11.937  40.044  11.429
81311W        W46538  17.273  28.821   4.493
81312W        W46539  25.010  26.981   2.859
81313W        W46540  11.017  44.237   3.602
81314W        W46541  44.555  38.878   2.259
81315W        W46542  17.820   6.265  14.786
81316W        W46543  27.691  20.734  14.305
81317W        W46544  44.007  22.162  12.210
81318W        W46545  32.408  21.217  13.471
81319W        W46546   6.750  26.771  13.394
81320W        W46547   1.677  44.959   1.866
81321W        W46548  16.137  13.996   1.495
81322W        W46549  12.195  24.440  13.240
81323W        W46550  41.290  39.359  13.264
81324W        W46551  29.935   8.519  13.351
81325W        W46552  18.248  17.109   0.125
81326W        W46553  20.477  12.874   1.398
81327W        W46554  22.242  26.763   2.376
81328W        W46555  23.943  23.013  14.948
81329W        W46556  22.858  44.262   2.489
81330W        W46557  15.673  43.325   0.464
81331W        W46558  31.533  35.064   0.220
81332W        W46559   8.796  21.162   0.205
81333W        W46560  31.363  10.694   3.289
81334W        W46561   4.834  27.610   2.803
81335W        W46562  12.831  37.556   1.900
81336W        W46563   3.257  40.052   0.869
81337W        W46564  37.468  34.416  14.245
81338W        W46565  29.074  27.730  12.087
81339W        W46566   4.667  20.680   2.399
81340W        W46567  41.368   8.296  14.277
81341W        W46568  38.499  30.212  13.337
81342W        W46569  28.512   4.644  13.959
81343W        W46570  15.110   7.724   2.563
81344W        W46571  13.644  44.158  10.871
81345W        W46572  41.803  39.427   0.405
81346W        W46573  25.695  19.733   3.350
81347W        W46574  18.364   8.245   4.166
81348W        W46575  30.966  22.243   1.947
81349W        W46576  21.772  12.904  14.731
81350W        W46577  12.135  23.403  12.400
81351W        W46578  29.197  32.135   0.826
81352W        W46579  16.607  21.041  12.573
81353W        W46580  29.876  30.196  12.463
81354W        W46581  23.498   6.297  12.175
81355W        W46582   7.601  14.748   2.129
81356W        W46583  13.891  10.624  12.402
81357W        W46584  21.594  28.520  10.883
81358W        W46585  33.243  14.495   2.485
81359W        W46586  37.425  27.750  13.770
81360W        W46587  26.479   7.946  10.637
81361W        W46588   1.231  39.453   1.358
81362W        W46589   6.934  43.933   3.244
81363W        W46590  29.314  40.131  11.055
81364W        W46591  36.157  27.692   2.736
81365W        W46592  19.341  42.793  14.785
81366W        W46593   3.961  38.360  10.616
81367W        W46594  10.156  38.042   4.398
81368W        W46595   0.089  18.238  11.096
81369W        W46596  17.115   9.501  12.068
81370W        W46597  13.444  42.420   4.562
81371W        W46598  14.657   0.333  12.981
81372W        W46599  12.756   9.914  14.012
81373W        W46600  23.766   8.039   0.799
81374W        W46601  19.810  37.854   1.868
81375W        W46602   5.711  11.151   0.532
81376W        W46603  41.652   0.657   1.244
81377W        W46604   2.944  33.089  12.467
81378W        W46605  26.890  17.206  10.272
81379W        W46606  33.458  42.088  11.563
81380W        W46607   4.373   6.945  14.273
81381W        W46608   3.107   7.944  10.978
81382W        W46609  41.868  13.811   4.504
81383W        W46610  44.626  10.872  11.341
81384W        W46611  23.241  42.609   3.372
81385W        W46612  41.378  41.687  14.608
81386W        W46613   8.939  40.832  14.510
81387W        W46614  18.445   2.118  13.053
81388W        W46615   6.571  16.828  14.698
81389W        W46616  37.506  38.463  10.694
81390W        W46617  18.671  14.307  10.737
81391W        W46618  27.750  29.471  14.456
81392W        W46619  43.306  35.006  10.708
81393W        W46620  12.804  39.570   1.903
81394W        W46621  33.483  31.807  13.942
81395W        W46622  27.016  24.844   4.331
81396W        W46623  11.077  38.608   4.224
81397W        W46624  35.334  11.749  13.613
81398W        W46625  21.748  23.742  13.413
81399W        W46626  26.486   3.369  13.890
81400W        W46627  42.152  34.755   1.578
81401W        W46628  24.641   0.817   3.017
81402W        W46629  31.540   5.810   4.098
81403W        W46630  18.490  24.873  13.308
81404W        W46631  37.472  32.967  11.157
81405W        W46632  25.114  24.549  13.864
81406W        W46633  19.059  27.750   4.234
81407W        W46634  44.146  36.850   1.831
81408W        W46635  40.411  25.497  12.102
81409W        W46636   0.025  15.038  13.845
81410W        W46637   0.761   5.174   2.810
81411W        W46638   4.347  14.030   0.896
81412W        W46639   4.904  30.116  11.571
81413W        W46640  36.492   8.138  11.984
81414W        W46641   9.592   3.943  14.996
81415W        W46642  24.545  40.059   5.097
81416W        W46643  24.010  25.237  11.616
81417W        W46644   6.281  33.600   1.659
81418W        W46645  16.088  32.582   2.826
81419W        W46646  17.787   3.234   3.668
81420W        W46647  29.438  36.702   4.525
81421W        W46648  32.063  41.487   3.468
81422W        W46649  13.110  33.874  14.297
81423W        W46650   5.873  19.098  10.389
81424W        W46651  24.948  37.530   2.213
81425W        W46652  31.484  39.902   2.334
81426W        W46653  30.035  37.307  13.789
81427W        W46654  40.468  24.065  11.607
81428W        W46655   4.037  44.433   1.837
81429W        W46656  31.914  24.273   4.238
81430W        W46657  28.487  27.291   3.581
81431W        W46658  44.255  22.598  11.034
81432W        W46659  38.559   2.029  12.808
81433W        W46660   8.440  22.890  12.893
81434W        W46661  14.105  18.213  12.585
81435W        W46662   6.407  25.425   2.845
81436W        W46663  20.968  20.723   4.053
81437W        W46664  14.454   2.631  14.828
81438W        W46665  18.553  26.238  11.048
81439W        W46666  14.506  35.926   2.608
81440W        W46667   2.846  17.096   0.319
81441W        W46668   8.377  39.561   2.742
81442W        W46669  19.064  26.927  11.560
81443W        W46670   7.754  44.481   2.016
81444W        W46671   3.671  17.045   2.310
81445W        W46672  14.621  26.013   3.740
81446W        W46673  19.460  26.226  14.574
81447W        W46674  36.528  31.972  13.917
81448W        W46675  37.985  22.005   4.633
81449W        W46676   9.346  15.070   0.568
81450W        W46677  26.922  32.428  14.843
81451W        W46678  22.324  12.446   1.057
81452W        W46679  33.794  37.918   2.261
81453W        W46680   3.512  36.082   9.900
81454W        W46681  41.366  13.083  13.057
81455W        W46682  42.555  20.405   2.871
81456W        W46683  38.173  11.639  10.207
81457W        W46684  29.524  27.744   1.682
81458W        W46685  24.444  35.489  12.407
81459W        W46686  10.447   4.417  14.258
81460W        W46687   6.411  12.783  12.558
81461W        W46688  13.690  24.584  13.828
81462W        W46689  41.980  22.516  10.214
81463W        W46690  12.787   5.163   1.033
81464W        W46691  26.482  42.453   0.821
81465W        W46692  18.551  43.848  12.812
81466W        W46693  21.304  24.568  11.565
81467W        W46694  13.749   7.791  14.807
81468W        W46695  37.832  34.800  13.495
81469W        W46696  16.424  19.587   4.461
81470W        W46697  35.657   2.317   0.013
81471W        W46698  34.804  38.491   0.149
81472W        W46699  30.037  28.359   2.673
81473W        W46700  36.417  37.390  11.119
81474W        W46701  42.471  34.277   0.744
81475W        W46702  35.779  38.252  14.913
81476W        W46703  40.770  12.057  11.198
81477W        W46704  24.146   1.450   2.710
81478W        W46705  40.802  32.867   0.953
81479W        W46706  31.869  44.146  12.357
81480W        W46707  28.639  42.294  12.013
81481W        W46708  24.049  16.817  13.359
81482W        W46709  14.286  43.447  13.010
81483W        W46710  37.880  19.189   2.175
81484W        W46711  18.523  14.737  13.021
81485W        W46712  31.908   9.806  14.266
81486W        W46713  15.157  18.738   4.153
81487W        W46714  10.875  40.767  13.383
81488W        W46715  25.006  12.117   2.317
81489W        W46716  42.050  39.406  12.405
81490W        W46717   6.357   1.001  10.734
81491W        W46718  23.049   0.352  13.952
81492W        W46719  24.074  37.267  12.098
81493W        W46720  38.959  10.253  13.228
81494W        W46721  21.440  21.987  13.326
81495W        W46722  32.488  39.336   0.883
81496W        W46723  39.542   4.991  13.865
81497W        W46724  14.620  25.058  12.961
81498W        W46725   9.355  18.637   3.814
81499W        W46726   5.175  12.265  13.880
81500W        W46727  33.183  43.786  12.983
81501W        W46728  35.369   1.661   1.900
81502W        W46729  34.120  33.356  10.574
81503W        W46730  33.979   0.549   3.715
81504W        W46731  19.622  42.649   2.174
81505W        W46732  27.976  12.335   0.965
81506W        W46733   1.952  15.112   3.521
81507W        W46734  38.357  28.567   4.140
81508W        W46735  33.882   1.935   1.968
81509W        W46736   2.663  22.967  11.034
81510W        W46737  21.540  12.920  12.319
81511W        W46738  15.865  35.009   0.173
81512W        W46739  34.552  18.260  13.122
81513W        W46740   8.341  35.554  13.470
81514W        W46741  34.032  11.179  12.495
81515W        W46742  44.227  33.331  12.868
81516W        W46743   1.510  36.097   0.146
81517W        W46744  32.935  34.555   0.301
81518W        W46745  27.768   6.617   4.466
81519W        W46746  31.072  35.899   1.978
81520W        W46747  33.769  29.783   1.316
81521W        W46748   9.543  15.182   1.036
81522W        W46749  39.871   9.865  13.836
81523W        W46750  32.166  16.691  11.089
81524W        W46751  37.769  36.691  10.910
81525W        W46752  17.801  37.295   2.253
81526W        W46753  11.267  44.918   0.779
81527W        W46754  21.043  42.392   4.786
81528W        W46755  41.859  30.242  12.521
81529W        W46756  12.899  16.576   3.881
81530W        W46757  19.582   3.824   0.945
81531W        W46758   0.574  28.722  10.819
81532W        W46759  11.069  24.745  11.624
81533W        W46760   1.955   9.828  12.434
81534W        W46761  10.217   9.184  10.989
81535W        W46762  28.980   9.894  12.836
81536W        W46763   6.882   8.223  12.121
81537W        W46764  40.937  23.958  12.387
81538W        W46765  24.120  17.673  11.158
81539W        W46766   4.480  13.190   3.137
81540W        W46767  16.528   1.831  13.310
81541W        W46768  32.642   8.148  14.469
81542W        W46769  32.618   9.817  10.771
81543W        W46770  21.139   3.473   0.756
81544W        W46771   6.729  21.828   4.149
81545W        W46772  41.930  16.342   1.863
81546W        W46773   7.694  17.757   0.233
81547W        W46774  36.492   8.725   0.480
81548W        W46775  29.834  16.470  11.986
81549W        W46776  27.464  33.426   1.265
81550W        W46777  24.288  14.213   0.217
81551W        W46778  11.839   3.187   0.847
81552W        W46779  24.746   7.726   3.297
81553W        W46780  42.295  39.005   2.321
81554W        W46781  39.402   6.950   4.086
81555W        W46782  10.184  12.217   0.737
81556W        W46783  42.616  21.620   1.486
81557W        W46784  19.577   6.190   2.414
81558W        W46785  22.706  35.208   1.317
81559W        W46786  42.012  23.796   1.474
81560W        W46787  18.810  42.711   1.610
81561W        W46788  24.063  25.110  14.433
81562W        W46789  22.051  43.634  12.558
81563W        W46790   4.927   4.399  13.038
81564W        W46791  23.102  14.170  14.582
81565W        W46792   8.493  30.761   0.365
81566W        W46793  42.378  44.981   4.673
81567W        W46794   0.121  43.858  10.594
81568W        W46795   4.281  32.878  12.569
81569W        W46796  11.257  17.792   0.886
81570W        W46797  30.740  16.224  12.000
81571W        W46798  20.595  30.143  11.191
81572W        W46799  12.217  12.791   3.455
81573W        W46800  17.567  17.133   0.602
81574W        W46801  32.555  10.471  12.958
81575W        W46802  43.519  12.219   2.729
81576W        W46803   8.676   6.875   3.269
81577W        W46804  13.050  29.130   2.308
81578W        W46805   9.707   7.774  10.814
81579W        W46806  12.639  19.282   2.044
81580W        W46807   7.777  37.244  10.701
81581W        W46808  33.026   0.985   1.765
81582W        W46809  36.121  17.817   4.273
81583W        W46810  35.478  17.510  12.469
81584W        W46811  34.151  12.058  12.578
81585W        W46812  14.591  41.512  10.728
81586W        W46813   2.278  26.554   2.652
81587W        W46814  23.085  32.470   4.700
81588W        W46815  19.363  44.268   3.980
81589W        W46816  26.056  42.805   1.903
81590W        W46817  33.412  42.344   4.320
81591W        W46818   6.229  33.127   3.400
81592W        W46819   2.253  24.300   0.940
81593W        W46820  33.530  19.545  10.698
81594W        W46821  10.027  16.355  11.598
81595W        W46822   2.478  44.899   2.310
81596W        W46823   0.866  32.035  11.000
81597W        W46824   6.033  18.603  11.106
81598W        W46825  32.883  20.798  10.757
81599W        W46826  15.022   8.235  14.081
81600W        W46827  35.966  20.753  12.360
81601W        W46828  22.771   2.789   0.368
81602W        W46829   9.157   2.824  10.798
81603W        W46830  35.821  44.322   3.441
81604W        W46831  41.778  43.923  10.718
81605W        W46832  37.836  24.142  10.709
81606W        W46833  18.383  39.081   3.183
81607W        W46834  41.869  38.661   4.178
81608W        W46835  29.416  18.492  11.165
81609W        W46836  21.127  33.108   4.133
81610W        W46837  12.840  35.130  10.725
81611W        W46838  31.010  37.684   0.207
81612W        W46839  44.029  44.211   3.690
81613W        W46840  19.565  18.290  14.460
81614W        W46841  21.804  27.197   2.872
81615W        W46842  43.343   9.912  13.895
81616W        W46843  11.805  22.183   2.685
81617W        W46844  23.530   0.239  11.950
81618W        W46845  24.106  38.099  14.305
81619W        W46846  25.996  38.935   1.367
81620W        W46847  42.087  27.021  14.297
81621W        W46848   0.241   0.105   2.058
81622W        W46849  21.687  44.705   2.800
81623W        W46850  30.384  17.900   1.368
81624W        W46851  41.804  20.715  11.537
81625W        W46852  30.480  23.747   2.253
81626W        W46853  43.769  10.603  14.498
81627W        W46854  41.288  17.272  14.880
81628W        W46855  16.009   4.024  12.488
81629W        W46856  29.365   0.121   3.209
81630W        W46857  19.103  31.496   4.097
81631W        W46858  26.631  27.415   3.613
81632W        W46859  24.256   4.533  12.493
81633W        W46860  34.544  37.272   3.666
81634W        W46861  23.654  43.333  14.940
81635W        W46862  14.600  20.375   5.166
81636W        W46863   6.688   9.350  11.133
81637W        W46864  15.008  33.790   3.987
81638W        W46865   1.866  11.651   2.209
81639W        W46866  36.937   6.933  10.777
81640W        W46867  11.774  32.008   2.241
81641W        W46868   6.214  28.891   0.703
81642W        W46869   0.446  37.614   3.152
81643W        W46870  31.026  38.799   4.168
81644W        W46871  16.266  19.075   1.371
81645W        W46872  20.140   6.313  10.796
81646W        W46873  39.504  19.903  10.578
81647W        W46874   2.491  15.408  13.796
81648W        W46875  19.147  15.849  13.480
81649W        W46876  17.588   5.741  13.842
81650W        W46877  21.459  24.045   3.314
81651W        W46878  23.788  23.940  14.968
81652W        W46879  23.507  13.819   1.733
81653W        W46880  37.385  11.514   1.399
81654W        W46881  42.328  37.468  11.442
81655W        W46882  11.878   9.732  10.975
81656W        W46883  34.967  19.420   2.263
81657W        W46884   2.423  23.737   1.801
81658W        W46885   4.295  34.345  14.261
81659W        W46886  39.529  24.135  11.198
81660W        W46887  16.262  30.024   3.732
81661W        W46888   1.486  29.462  11.078
81662W        W46889  18.183  11.368  13.316
81663W        W46890  16.652  38.634   3.226
81664W        W46891  27.629   3.483   4.583
81665W        W46892   4.923  11.867   0.964
81666W        W46893  15.827  13.220   2.381
81667W        W46894  10.878  18.772  10.636
81668W        W46895   6.691  34.291  11.088
81669W        W46896   9.780   4.928  13.345
81670W        W46897  35.225  34.766   0.267
81671W        W46898  42.062   3.420   0.868
81672W        W46899  20.413  38.542  13.100
81673W        W46900  36.073  16.137   3.522
81674W        W46901  40.031  10.862  14.990
81675W        W46902  23.005  24.373  11.200
81676W        W46903  32.792  16.438   4.109
81677W        W46904  23.219   7.917  14.190
81678W        W46905  20.520  36.332   1.643
81679W        W46906   2.475  23.224   2.641
81680W        W46907  20.024  12.612   3.179
81681W        W46908   9.504  23.481   0.359
81682W        W46909  32.671  44.461   0.437
81683W        W46910   0.233   1.026   2.790
81684W        W46911   5.378  27.657  10.840
81685W        W46912  25.169  42.403   2.913
81686W        W46913  14.105   9.833  10.626
81687W        W46914  22.204  25.182  12.121
81688W        W46915   6.492  29.031   4.536
81689W        W46916   9.868   1.863   2.873
81690W        W46917  16.305   2.116   4.193
81691W        W46918  32.783  29.357  12.022
81692W        W46919  15.637  27.859   3.691
81693W        W46920  14.277  30.462   0.848
81694W        W46921   0.524  42.206  11.960
81695W        W46922  39.950  42.394  13.157
81696W        W46923   8.780  40.382   3.210
81697W        W46924  21.689   1.067   0.698
81698W        W46925  35.060  11.719   2.325
81699W        W46926  16.312   8.210   2.126
81700W        W46927  12.462  21.345   5.028
81701W        W46928   2.534   3.135   4.017
81702W        W46929  16.683   2.659   2.928
81703W        W46930  33.634  22.936   1.359
81704W        W46931  17.707  36.461  11.169
81705W        W46932  11.424  16.029   1.218
81706W        W46933  32.667  18.633  10.744
81707W        W46934  16.366  19.989  12.082
81708W        W46935  31.854  38.966  12.599
81709W        W46936  35.439  27.594   1.023
81710W        W46937  24.749  29.170   1.709
81711W        W46938   2.821  31.405   3.675
81712W        W46939  39.992  19.283   2.757
81713W        W46940  13.225  42.884   2.291
81714W        W46941  29.582  35.942  12.861
81715W        W46942  38.430  15.697  10.847
81716W        W46943   9.201  35.728  11.156
81717W        W46944   5.174   0.386   4.041
81718W        W46945  41.672  31.078   3.778
81719W        W46946  21.765  42.496   4.587
81720W        W46947  40.420  12.221   0.850
81721W        W46948  43.270  15.168   3.290
81722W        W46949  41.283  13.572   3.777
81723W        W46950  17.838  31.945  13.289
81724W        W46951  21.987  40.422   1.514
81725W        W46952  32.810  17.318  10.084
81726W        W46953  44.323  27.722   0.758
81727W        W46954  24.608  10.669  10.753
81728W        W46955  36.748  21.661  11.576
81729W        W46956  30.909  44.687  14.007
81730W        W46957  11.387  16.407   5.443
81731W        W46958   2.994  20.828  10.803
81732W        W46959  16.765  10.684   0.204
81733W        W46960  12.682  29.761  11.908
81734W        W46961  26.835   6.743  12.939
81735W        W46962   4.484  16.326  14.393
81736W        W46963  20.438   7.329  13.259
81737W        W46964  42.543  25.571  14.506
81738W        W46965  13.710  18.132  12.925
81739W        W46966  43.991  41.066  14.878
81740W        W46967  40.987  18.294   2.581
81741W        W46968   8.503   9.799  12.108
81742W        W46969  44.708  38.953   3.193
81743W        W46970  17.007  18.124  13.990
81744W        W46971  29.226  10.265  13.082
81745W        W46972  26.503  37.307   3.761
81746W        W46973  38.967  12.020  11.561
81747W        W46974  11.281  21.600  12.838
81748W        W46975  43.019  27.173  11.001
81749W        W46976  19.125  22.441  12.440
81750W        W46977  20.761  18.021   3.604
81751W        W46978  33.929  14.706   0.700
81752W        W46979  10.345  12.746   2.553
81753W        W46980  24.058   6.705   2.772
81754W        W46981   0.483  25.947   4.577
81755W        W46982  36.034  19.006  11.484
81756W        W46983  25.590  34.443  12.069
81757W        W46984   9.919  19.129  14.922
81758W        W46985  23.065  26.984   1.998
81759W        W46986  19.471  12.717   2.018
81760W        W46987  26.318  26.411   0.467
81761W        W46988  10.639  42.742  12.545
81762W        W46989  33.989  25.621  11.565
81763W        W46990  23.270   5.172   1.319
81764W        W46991   7.237  23.252  10.550
81765W        W46992  12.875  36.060  13.794
81766W        W46993   8.447  24.697   0.838
81767W        W46994  16.808  42.990   2.380
81768W        W46995   1.438  21.377   0.897
81769W        W46996  39.617  30.604   1.840
81770W        W46997  35.413  18.650   0.308
81771W        W46998  40.295  30.284   4.083
81772W        W46999  44.835  25.765  12.677
81773W        W47000  34.949  10.140  12.635
81774W        W47001  35.878   9.192   0.691
81775W        W47002  10.176  40.742  10.728
81776W        W47003   4.717  34.167  10.330
81777W        W47004  12.200  13.764   3.944
81778W        W47005   4.333  42.521   0.746
81779W        W47006   6.256  17.006   3.195
81780W        W47007  39.529  38.010   3.869
81781W        W47008  44.791  10.244  14.008
81782W        W47009  35.331  12.575  10.602
81783W        W47010  18.568  14.687   2.763
81784W        W47011  37.898  10.867   1.435
81785W        W47012  15.067   5.443  13.386
81786W        W47013  37.019  40.365   0.091
81787W        W47014   6.392  15.621   3.206
81788W        W47015  26.062   5.836  12.121
81789W        W47016  10.973  21.210   0.512
81790W        W47017   5.185  12.227   2.312
81791W        W47018   3.956  32.583  10.969
81792W        W47019  14.296  26.353  10.830
81793W        W47020   5.164  20.952   2.700
81794W        W47021  32.702   4.251  11.953
81795W        W47022  19.175  43.559   1.814
81796W        W47023  29.923   2.144   1.292
81797W        W47024  25.777  24.698   3.730
81798W        W47025   5.662  36.108  12.467
81799W        W47026   3.895  40.648  11.182
81800W        W47027  37.748  27.502  13.467
81801W        W47028   1.008   4.808  11.246
81802W        W47029  15.586  42.537   3.253
81803W        W47030  16.448  12.799  14.007
81804W        W47031  34.027  12.456   4.375
81805W        W47032  12.093   2.220   4.038
81806W        W47033   2.666  26.309   2.380
81807W        W47034  27.623  18.300   1.534
81808W        W47035  16.386   2.760   3.366
81809W        W47036  37.788  30.525  12.490
81810W        W47037  35.382  19.140   2.145
81811W        W47038  21.624  26.574   0.975
81812W        W47039  40.033   4.885   2.843
81813W        W47040  10.252  23.692  12.929
81814W        W47041   1.558  38.748   4.700
81815W        W47042   2.953  19.023  10.141
81816W        W47043  26.717  13.474  13.871
81817W        W47044  28.911  31.251   0.315
81818W        W47045  12.209  28.417   3.270
81819W        W47046   2.508  19.259   4.736
81820W        W47047  41.138  20.089   0.865
81821W        W47048  16.337  19.589   1.379
81822W        W47049  22.748   3.239   2.908
81823W        W47050  13.173  27.461   0.911
81824W        W47051   4.697   5.492   4.134
81825W        W47052  39.456   0.084  12.377
81826W        W47053  16.034   5.870  11.676
81827W        W47054  10.612  42.839  10.739
81828W        W47055  20.993   1.144   4.913
81829W        W47056  17.254  38.476   1.697
81830W        W47057  17.727  16.732  12.143
81831W        W47058  18.454  27.963   3.292
81832W        W47059  42.215   3.542  11.926
81833W        W47060  29.070  34.200  13.924
81834W        W47061   1.779  20.986   0.835
81835W        W47062  25.215   3.998   2.307
81836W        W47063  11.827  30.623   0.941
81837W        W47064  36.139  41.837  12.152
81838W        W47065  37.015   7.857   3.098
81839W        W47066  22.493  15.830   0.329
81840W        W47067   2.671  22.441   4.193
81841W        W47068  35.519   6.043   2.860
81842W        W47069  19.044  20.762  13.470
81843W        W47070   2.963  24.069  13.540
81844W        W47071  39.317  38.845   1.936
81845W        W47072  39.585  21.539  14.530
81846W        W47073  41.873  33.490   2.296
81847W        W47074  40.789   1.945  10.885
81848W        W47075  32.132  37.977   2.773
81849W        W47076   3.917  41.307  13.719
81850W        W47077  23.279   4.950   3.612
81851W        W47078  30.771   6.964  12.856
81852W        W47079  20.020  11.670   4.988
81853W        W47080  39.384  36.099   3.835
81854W        W47081  35.051  22.133   1.886
81855W        W47082  19.678   0.943   2.641
81856W        W47083   8.335  16.327  14.882
81857W        W47084  30.161  22.063  14.929
81858W        W47085  11.337  30.495   5.145
81859W        W47086  38.555  21.428  11.506
81860W        W47087   5.356  40.011   0.041
81861W        W47088  30.926  12.557   1.779
81862W        W47089   1.718  31.932  13.913
81863W        W47090   9.458  32.982   1.652
81864W        W47091   3.177  13.688  11.186
81865W        W47092  20.660  31.177  12.575
81866W        W47093   0.313   6.468   0.919
81867W        W47094   6.864  38.800   3.271
81868W        W47095  33.040  39.463   4.351
81869W        W47096   5.698  31.979  13.399
81870W        W47097  18.990  30.266  14.417
81871W        W47098  34.031  40.302   3.145
81872W        W47099  15.145  44.481   4.866
81873W        W47100   6.311   2.742   4.255
81874W        W47101  36.820  36.593  11.481
81875W        W47102  37.081   6.908   4.979
81876W        W47103  35.812  13.940  11.224
81877W        W47104  18.041  16.811  11.750
81878W        W47105  19.056  31.210   2.124
81879W        W47106  27.469  39.611   2.284
81880W        W47107   5.081  34.551  13.467
81881W        W47108   3.554  18.724   1.650
81882W        W47109   6.817   2.902   4.317
81883W        W47110  22.791  11.310  10.522
81884W        W47111  39.268  15.177   4.822
81885W        W47112  13.595  23.214   0.794
81886W        W47113  19.478  17.285  10.691
81887W        W47114   6.883   4.817   0.464
81888W        W47115  39.085  10.464   3.205
81889W        W47116  31.861  19.391   0.023
81890W        W47117  26.245  39.880  10.697
81891W        W47118   0.058  18.657   3.610
81892W        W47119  15.412   4.154  11.261
81893W        W47120  29.581  23.735  12.490
81894W        W47121  22.645  24.164   5.056
81895W        W47122  26.544   9.447   3.608
81896W        W47123  35.840  12.814  12.677
81897W        W47124   4.989  42.259   1.253
81898W        W47125  32.071  41.768   0.225
81899W        W47126   3.248  23.576   0.360
81900W        W47127  41.276  22.004   0.341
81901W        W47128  34.368   4.433  13.906
81902W        W47129  32.991  17.850   0.716
81903W        W47130  29.725  39.610  13.496
81904W        W47131  11.989  40.411   4.976
81905W        W47132   6.675  14.010  10.727
81906W        W47133  37.739  35.674   1.871
81907W        W47134  21.075  28.231   4.506
81908W        W47135  35.382  11.280   2.270
81909W        W47136  16.681  15.814  12.013
81910W        W47137  19.991  10.364   3.759
81911W        W47138  28.607  17.921   0.210
81912W        W47139  33.554  14.695   1.564
81913W        W47140   1.160   4.308   3.672
81914W        W47141  39.920  20.477  13.817
81915W        W47142  37.054  31.053  11.696
81916W        W47143  36.893   7.748   3.586
81917W        W47144  24.213  13.059   1.904
81918W        W47145   1.020  17.400  13.930
81919W        W47146  13.166  25.537   3.071
81920W        W47147  17.495  44.363  14.497
81921W        W47148  32.653  10.775  13.543
81922W        W47149  18.653  31.679  14.969
81923W        W47150  42.398  36.853  14.939
81924W        W47151   5.373  43.064  14.293
81925W        W47152  32.114  24.577   2.155
81926W        W47153  40.392  25.962  13.983
81927W        W47154  18.008  21.171   4.801
81928W        W47155  34.390  22.670   2.253
81929W        W47156   6.081  43.087   2.106
81930W        W47157  34.446  20.593   3.784
81931W        W47158   9.186  16.638   0.823
81932W        W47159  38.775   2.650  11.308
81933W        W47160  39.833  37.976   4.761
81934W        W47161  17.953   9.372  13.481
81935W        W47162  13.253  11.900  14.755
81936W        W47163  29.377  27.015   2.305
81937W        W47164  20.517  17.841   2.363
81938W        W47165  17.582  26.885   0.348
81939W        W47166  29.096  36.534   3.248
81940W        W47167   5.072  25.270  10.257
81941W        W47168   2.186  13.858  11.504
81942W        W47169  43.038  35.400   4.369
81943W        W47170   2.384  39.600   2.962
81944W        W47171   2.469  11.572   3.260
81945W        W47172   1.467  38.453   4.287
81946W        W47173   3.699  35.254  11.425
81947W        W47174  30.082  38.126  10.652
81948W        W47175  27.090  20.290   3.221
81949W        W47176  44.776  41.079  12.191
81950W        W47177   4.872  37.526  13.564
81951W        W47178   4.498  11.951   3.289
81952W        W47179  36.634  27.328  11.089
81953W        W47180  38.956  22.230   4.591
81954W        W47181  31.531  18.295  13.773
81955W        W47182   4.358   6.224  10.905
81956W        W47183  10.344  27.539  11.235
81957W        W47184   8.191  33.202   4.887
81958W        W47185  21.755  27.587   3.839
81959W        W47186  42.480  35.179   4.551
81960W        W47187  24.126  27.004  14.470
81961W        W47188  30.774  36.743   2.580
81962W        W47189  18.858  35.621  14.346
81963W        W47190   0.406  26.955  14.675
81964W        W47191  34.332  11.622   4.100
81965W        W47192  36.849  12.908  14.073
81966W        W47193  20.282   7.195  12.058
81967W        W47194  36.972  22.562  11.993
81968W        W47195  37.981  12.728   3.134
81969W        W47196  24.088  44.434   4.936
81970W        W47197   3.398  36.254  14.290
81971W        W47198  39.524  32.070  13.392
81972W        W47199  17.010   0.831  13.425
81973W        W47200   8.200  13.282   1.739
81974W        W47201  41.342   5.166   9.873
81975W        W47202  30.671  31.153   1.758
81976W        W47203  44.880  31.618  12.385
81977W        W47204  15.992   0.470   4.923
81978W        W47205  19.123  32.613   1.041
81979W        W47206   0.075  26.512   0.844
81980W        W47207  20.779  31.073   3.532
81981W        W47208  21.156   3.137  12.811
81982W        W47209   8.882  23.554  11.879
81983W        W47210  23.321  24.658  13.393
81984W        W47211  36.570   0.280   1.686
81985W        W47212  27.437   4.782   2.249
81986W        W47213  34.272  42.578   2.237
81987W        W47214  25.178  19.063  11.975
81988W        W47215  41.868  39.224  13.906
81989W        W47216   4.282  14.809   2.835
81990W        W47217  35.792  44.830  11.581
81991W        W47218   3.375   3.503   3.413
81992W        W47219  24.229  32.998   3.863
81993W        W47220  20.477  15.337  13.961
81994W        W47221  32.223  12.149   2.710
81995W        W47222  27.264  11.272   2.142
81996W        W47223   8.169   5.239  11.124
81997W        W47224   7.351  33.752   0.808
81998W        W47225   5.675   2.721  12.695
81999W        W47226  15.170   2.937   2.847
82000W        W47227  35.873   7.178  13.528
82001W        W47228  28.172  17.996   0.523
82002W        W47229  42.313  23.159  10.438
82003W        W47230  19.217  23.130  13.061
82004W        W47231  26.651  26.181  10.788
82005W        W47232  35.991  41.905   2.201
82006W        W47233  31.153  19.262  11.871
82007W        W47234  33.061   7.113  13.814
82008W        W47235  24.884  18.256   2.585
82009W        W47236  34.947  38.983  11.058
82010W        W47237  15.122   1.372   1.825
82011W        W47238  44.434  25.100  14.824
82012W        W47239  29.174  28.757   0.234
82013W        W47240   0.301  30.462  13.635
82014W        W47241  22.728  16.584   0.880
82015W        W47242  38.771  36.856  11.530
82016W        W47243   0.227  16.340  11.046
82017W        W47244   0.721  14.600  14.877
82018W        W47245  11.401  19.682   2.619
82019W        W47246   3.946  11.259  11.172
82020W        W47247   5.686  17.278   4.305
82021W        W47248  18.861  34.846   5.010
82022W        W47249   9.689  43.440   2.905
82023W        W47250  29.078   8.858   2.795
82024W        W47251  28.613   6.242   1.746
82025W        W47252   6.884  24.797  13.865
82026W        W47253  42.736   3.177  11.067
82027W        W47254  20.164  26.748  13.539
82028W        W47255   1.444  44.441  14.207
82029W        W47256  39.903  12.163   0.326
82030W        W47257  34.441  37.079  10.629
82031W        W47258  44.985  10.858  12.034
82032W        W47259  25.608  44.274  12.155
82033W        W47260  34.159  29.086   4.945
82034W        W47261   9.902  19.379  10.985
82035W        W47262   4.652  19.116   1.153
82036W        W47263   2.122  22.151  14.884
82037W        W47264  33.136  38.944   4.442
82038W        W47265   1.040  30.167   0.971
82039W        W47266  35.097  40.057  14.854
82040W        W47267  37.068  18.667   3.986
82041W        W47268  29.035   6.656  11.327
82042W        W47269   6.385  43.411  14.987
82043W        W47270  26.123   0.194   3.245
82044W        W47271  18.648  10.372   0.706
82045W        W47272  33.980  19.083  13.075
82046W        W47273  32.692  28.055  12.083
82047W        W47274  42.002  40.908   2.191
82048W        W47275   3.889   9.303  11.846
82049W        W47276  12.945  18.976   0.723
82050W        W47277  25.205  28.527   2.432
82051W        W47278  22.838  43.877  10.735
82052W        W47279  25.505  11.397   2.401
82053W        W47280  10.712  10.916  11.590
82054W        W47281  28.674   1.429  12.799
82055W        W47282  11.211  22.939   2.726
82056W        W47283  26.236  30.079   1.366
82057W        W47284   4.677  26.535  13.136
82058W        W47285  13.556  18.440  13.915
82059W        W47286  24.022   8.976   4.083
82060W        W47287  14.130  28.606   1.863
82061W        W47288  22.704  23.631  13.488
82062W        W47289  37.143   2.820   4.850
82063W        W47290  13.678  37.089  12.843
82064W        W47291  27.519  18.808  11.092
82065W        W47292  29.488   0.642   3.129
82066W        W47293  31.987  41.301  11.479
82067W        W47294  36.092  28.216  14.221
82068W        W47295   7.387   4.024  11.522
82069W        W47296  17.274  26.386   4.661
82070W        W47297  32.757  24.474   0.877
82071W        W47298  34.168  23.451   4.327
82072W        W47299  41.073  10.568  11.196
82073W        W47300   0.018   8.346   1.746
82074W        W47301  11.952  12.705   1.003
82075W        W47302  28.552  39.338  13.137
82076W        W47303  44.826  33.954   1.412
82077W        W47304  15.574  35.647  11.479
82078W        W47305  25.515  11.237  14.772
82079W        W47306  30.091  31.072  14.589
82080W        W47307   8.288  10.987  11.609
82081W        W47308   4.719  36.627  12.566
82082W        W47309  32.912  23.161   0.811
82083W        W47310  39.372  35.490  12.627
82084W        W47311  26.477   9.278   4.487
82085W        W47312  39.334  19.203  12.193
82086W        W47313  35.067  24.767  11.189
82087W        W47314  10.220  25.599  13.165
82088W        W47315  10.884  28.672  13.468
82089W        W47316  17.623   3.098  14.184
82090W        W47317  27.987  40.586  13.880
82091W        W47318   7.113  36.929  14.588
82092W        W47319  22.099  14.104  11.951
82093W        W47320  29.708  23.615   4.080
82094W        W47321  17.152  17.290   4.142
82095W        W47322  10.739   6.999   1.846
82096W        W47323  18.846  33.723   2.488
82097W        W47324   6.197  26.643   3.213
82098W        W47325  29.756  18.031   4.899
82099W        W47326  40.028   3.567  13.138
82100W        W47327   6.442  27.380  12.322
82101W        W47328   0.861   2.756   2.675
82102W        W47329  13.589   9.965  11.800
82103W        W47330  14.762  17.009   2.739
82104W        W47331  12.678  16.810  10.609
82105W        W47332   4.375  17.360  14.290
82106W        W47333   7.285  11.707   0.811
82107W        W47334  34.577  40.999  10.627
82108W        W47335   0.770  32.145   3.366
82109W        W47336  10.850  22.279   4.739
82110W        W47337  19.795  22.761  12.987
82111W        W47338  14.381  42.436   4.148
82112W        W47339  31.543  31.582   2.790
82113W        W47340  12.233   5.920   3.880
82114W        W47341   1.973  23.416  13.129
82115W        W47342  23.641  29.635   2.319
82116W        W47343   6.099  22.454   0.225
82117W        W47344  27.190  23.987   0.602
82118W        W47345   4.700  29.745   3.709
82119W        W47346  34.385  16.116   3.076
82120W        W47347  14.704  23.083   0.021
82121W        W47348   0.403   6.975  10.935
82122W        W47349  15.096  37.018  12.057
82123W        W47350   2.469   7.216   3.269
82124W        W47351   0.262  40.546   3.651
82125W        W47352  42.632  24.284   4.176
82126W        W47353   9.030  21.518  14.746
82127W        W47354  38.604   2.649   0.324
82128W        W47355  17.977  28.113  13.590
82129W        W47356  31.684  39.377   9.744
82130W        W47357  10.564  33.610   4.036
82131W        W47358  13.800   1.700   1.337
82132W        W47359   3.739  35.895  10.731
82133W        W47360  40.400  18.309   2.208
82134W        W47361  11.386  28.684   5.048
82135W        W47362  12.403   8.174  12.106
82136W        W47363   9.430  10.373  12.415
82137W        W47364  43.895   2.827   1.321
82138W        W47365   7.593  37.042  14.449
82139W        W47366  12.674  25.429   3.268
82140W        W47367   3.822   0.581   1.195
82141W        W47368   2.258   0.937   3.901
82142W        W47369  26.942  20.202  14.951
82143W        W47370   3.207  38.811  13.960
82144W        W47371  40.592  40.995  12.030
82145W        W47372  13.732   2.929  10.759
82146W        W47373  19.222  23.828   1.400
82147W        W47374  30.938  23.016   2.175
82148W        W47375  42.069  43.902  12.802
82149W        W47376  10.246   7.506  12.553
82150W        W47377  18.298  28.895   2.247
82151W        W47378  44.409  16.255  11.639
82152W        W47379  11.544  11.948  13.041
82153W        W47380  37.049  37.278   3.650
82154W        W47381   3.132   8.353   1.911
82155W        W47382  12.926  27.351  11.947
82156W        W47383  11.241  25.941   4.202
82157W        W47384  12.213  31.005  14.690
82158W        W47385  37.354  44.529  13.945
82159W        W47386  21.038  36.032   0.943
82160W        W47387   1.190  20.074   0.472
82161W        W47388  21.084  29.478   0.488
82162W        W47389  34.903  19.726  12.286
82163W        W47390  22.979  18.509   2.725
82164W        W47391  31.512   3.659  14.008
82165W        W47392  24.142  10.975   4.582
82166W        W47393  37.958   7.333   0.988
82167W        W47394  13.397  41.654   0.648
82168W        W47395  32.575  30.132  14.543
82169W        W47396  38.527  41.759   4.161
82170W        W47397  11.441   4.170   4.037
82171W        W47398  26.531  18.042   3.131
82172W        W47399   0.473  34.657   0.412
82173W        W47400  32.508  44.219  10.545
82174W        W47401   8.301  24.579  13.930
82175W        W47402  37.010  19.506  13.371
82176W        W47403  20.988  39.053  11.348
82177W        W47404  40.307  44.296   3.746
82178W        W47405  21.079  18.914   4.611
82179W        W47406  28.160  44.884   4.015
82180W        W47407  12.641  18.560   0.789
82181W        W47408  22.376  39.635   3.573
82182W        W47409  39.236  31.583   2.381
82183W        W47410   2.326  34.616  13.559
82184W        W47411   8.867   1.437  14.040
82185W        W47412  41.102   0.006  11.069
82186W        W47413   6.404   1.936  14.767
82187W        W47414  34.051  16.943  14.464
82188W        W47415  43.438  22.837   2.394
82189W        W47416  44.489   7.204   0.137
82190W        W47417   5.939  23.902  11.565
82191W        W47418  16.494  36.066  10.821
82192W        W47419  29.549  20.146   3.168
82193W        W47420  33.298   8.790  11.855
82194W        W47421  33.181  28.471  12.869
82195W        W47422  29.715  18.565  14.410
82196W        W47423  44.456  38.042  11.983
82197W        W47424  12.594  23.486  14.964
82198W        W47425   8.345  23.898   3.134
82199W        W47426  19.617  26.156   3.621
82200W        W47427  26.153  19.827   0.900
82201W        W47428  22.333  19.245  13.703
82202W        W47429  25.673  21.997   1.298
82203W        W47430   6.317  37.410  12.354
82204W        W47431  17.820  18.237   4.184
82205W        W47432  34.206  15.453   2.715
82206W        W47433   3.398   6.699  11.675
82207W        W47434  39.108  40.583  13.877
82208W        W47435   6.102  27.031  13.998
82209W        W47436  19.025  36.877  10.610
82210W        W47437  28.450   7.659   0.794
82211W        W47438  13.718  32.663  12.865
82212W        W47439   6.171  13.897  12.012
82213W        W47440  41.280  22.481   0.601
82214W        W47441   2.283  31.128  14.238
82215W        W47442  12.076  19.636  11.618
82216W        W47443  33.572   5.363   4.231
82217W        W47444   7.922  21.747   4.173
82218W        W47445   8.212  40.913  11.662
82219W        W47446   0.928  30.920   3.665
82220W        W47447  34.023  31.010  13.946
82221W        W47448  24.280  13.809   4.189
82222W        W47449  17.289  13.285   9.770
82223W        W47450  14.671   4.302  12.087
82224W        W47451  38.162  19.795  11.113
82225W        W47452  20.519   5.234  11.446
82226W        W47453  26.370   4.765  12.758
82227W        W47454   4.314  25.997   4.400
82228W        W47455   8.297   4.953  13.799
82229W        W47456   5.674  14.260  13.425
82230W        W47457  42.838  38.138   3.598
82231W        W47458  28.180  41.287  10.686
82232W        W47459   0.443  11.883  13.532
82233W        W47460  39.655  27.120  13.901
82234W        W47461  14.817   9.196   4.582
82235W        W47462  40.529   0.933  14.830
82236W        W47463  40.793  37.021   1.434
82237W        W47464  41.936  31.340  11.620
82238W        W47465   8.118  11.393  13.541
82239W        W47466   1.302  27.136  14.587
82240W        W47467  16.831  20.408  11.241
82241W        W47468  26.499  23.453  13.345
82242W        W47469  35.070  41.100  14.857
82243W        W47470  13.599   5.622   4.430
82244W        W47471  15.710  37.357   4.531
82245W        W47472  28.132  26.589   3.176
82246W        W47473  38.564  40.833   1.395
82247W        W47474   6.198  39.252  12.316
82248W        W47475  40.836  14.634   4.022
82249W        W47476  34.087   1.968  11.570
82250W        W47477   4.816  33.422   0.388
82251W        W47478  34.365  25.382  14.849
82252W        W47479  43.501   8.769  14.812
82253W        W47480  30.142  39.640  12.115
82254W        W47481  42.972  34.140  14.359
82255W        W47482  44.656   5.640   1.166
82256W        W47483  12.638  13.197   0.770
82257W        W47484  24.262   3.467   0.867
82258W        W47485  40.094  17.200   0.253
82259W        W47486   6.924  40.520   2.820
82260W        W47487  17.506  40.320   4.709
82261W        W47488  36.843   5.952  13.911
82262W        W47489  39.094   8.457   4.460
82263W        W47490  41.419  13.733   2.337
82264W        W47491   5.860  33.524   1.919
82265W        W47492  43.994  20.607  10.232
82266W        W47493  12.399  33.175  13.318
82267W        W47494  33.975  31.584  12.515
82268W        W47495  44.354  40.392  12.188
82269W        W47496  30.081  13.090   1.311
82270W        W47497  37.836  38.003   4.572
82271W        W47498  40.433  23.947  14.896
82272W        W47499   8.314  33.870  13.944
82273W        W47500  41.780  41.648  12.140
82274W        W47501   0.866  13.717  10.460
82275W        W47502  13.665  23.012   1.796
82276W        W47503   6.390  36.533   0.511
82277W        W47504  22.268   5.878   0.018
82278W        W47505  15.537   3.936  13.401
82279W        W47506  29.461  31.352  12.869
82280W        W47507  20.658   2.507  10.792
82281W        W47508   5.305  29.178   2.761
82282W        W47509  28.031  31.214   3.767
82283W        W47510  33.167  17.064  14.936
82284W        W47511  40.937  16.610   4.538
82285W        W47512   6.307  11.428  11.638
82286W        W47513  33.908  25.216  14.615
82287W        W47514   6.499  34.148  12.845
82288W        W47515  15.928  26.026   1.264
82289W        W47516   6.716  37.439  10.604
82290W        W47517   2.840  14.198   1.676
82291W        W47518  35.351  19.013  13.896
82292W        W47519  22.206   7.325   1.820
82293W        W47520  32.541  27.980   0.276
82294W        W47521  11.081  41.169   1.306
82295W        W47522  24.793   8.812   2.112
82296W        W47523  37.632   1.445   4.387
82297W        W47524  44.430   2.034   2.279
82298W        W47525  10.178  17.247   4.087
82299W        W47526  16.393  13.054   3.750
82300W        W47527  13.604  21.707   3.189
82301W        W47528   3.268  44.376  14.117
82302W        W47529  28.961   6.404   0.764
82303W        W47530  16.218  32.424   9.791
82304W        W47531  21.058  20.235   3.816
82305W        W47532  43.948  18.542   1.851
82306W        W47533   5.837  28.153  13.806
82307W        W47534  17.774  39.961  11.911
82308W        W47535   8.225  39.848  13.989
82309W        W47536  13.414  19.370   1.685
82310W        W47537  15.140  37.642  13.411
82311W        W47538  41.297   4.218  12.407
82312W        W47539  35.008  23.181  11.686
82313W        W47540  43.279   4.507   2.204
82314W        W47541  37.893   0.373   3.248
82315W        W47542  15.846  29.671  12.072
82316W        W47543   1.634  11.639   3.667
82317W        W47544  13.154  31.019   2.535
82318W        W47545  39.050   9.091  11.184
82319W        W47546  34.885  17.808   0.256
82320W        W47547  38.827   0.710   1.080
82321W        W47548  14.042  40.859  13.390
82322W        W47549  37.011   2.507   1.156
82323W        W47550  28.213  15.820  10.667
82324W        W47551   6.736  11.665  11.818
82325W        W47552   5.952  20.196   1.913
82326W        W47553  18.907  32.494   4.337
82327W        W47554  15.390  34.033   1.699
82328W        W47555  44.748  16.937   4.987
82329W        W47556   7.882  24.154   3.181
82330W        W47557  14.896  35.046  12.516
82331W        W47558  25.738  40.344   4.777
82332W        W47559  22.085  28.445  12.526
82333W        W47560  14.383  40.134  10.742
82334W        W47561  33.062  18.584  13.321
82335W        W47562  35.951  13.217  11.827
82336W        W47563  37.321  24.968  13.674
82337W        W47564   3.711  12.825  11.108
82338W        W47565   0.803   3.130   2.339
82339W        W47566  25.112   1.237  11.676
82340W        W47567   8.795  15.789   1.674
82341W        W47568  32.184  41.451  11.006
82342W        W47569  16.549  12.982   0.811
82343W        W47570   1.376  32.782  14.062
82344W        W47571  21.269  29.509  13.371
82345W        W47572  11.828  26.016  10.605
82346W        W47573  15.519  33.089  11.529
82347W        W47574  26.709   7.868  12.596
82348W        W47575  38.793  31.111   3.193
82349W        W47576  28.697  28.731   1.118
82350W        W47577  19.748  11.594  11.462
82351W        W47578  37.279  25.010  12.088
82352W        W47579   2.400  39.422  10.533
82353W        W47580  43.506  42.279  13.592
82354W        W47581  37.137   2.796   0.273
82355W        W47582   5.254  37.530  10.396
82356W        W47583  38.957  38.351  11.464
82357W        W47584  31.082  17.739  14.366
82358W        W47585  44.615   4.105   2.060
82359W        W47586  41.860  21.446  11.983
82360W        W47587  29.143  39.604   2.734
82361W        W47588  43.044  10.040  13.497
82362W        W47589  44.216   7.270   2.318
82363W        W47590  10.617   7.699  12.861
82364W        W47591   3.725  38.889  11.279
82365W        W47592  37.693  15.891   3.140
82366W        W47593   4.421   4.512  10.540
82367W        W47594   4.399  34.537   1.921
82368W        W47595  19.091  28.211   0.550
82369W        W47596  28.981  29.335  11.242
82370W        W47597  15.078  18.574   4.652
82371W        W47598  37.173  39.454  11.128
82372W        W47599  17.806   0.807  13.349
82373W        W47600  19.972  25.345  12.536
82374W        W47601  32.386   0.654  11.673
82375W        W47602  32.468  30.228   3.584
82376W        W47603  42.903  42.923  13.981
82377W        W47604  37.448  29.432   0.551
82378W        W47605  23.067  26.048   0.868
82379W        W47606  17.649  33.704  11.939
82380W        W47607   1.157  10.158   0.402
82381W        W47608  23.346  10.222  13.230
82382W        W47609  29.049  18.317  12.641
82383W        W47610  21.567   8.526  14.279
82384W        W47611  17.030  21.611   2.747
82385W        W47612  14.598  16.852   4.054
82386W        W47613  43.462  26.558   0.833
82387W        W47614  11.779  14.634  13.161
82388W        W47615   5.711   5.279   1.802
82389W        W47616  22.587  23.242  12.388
82390W        W47617  14.722  16.268  14.775
82391W        W47618   1.731  38.342   2.084
82392W        W47619  21.076  30.127  11.466
82393W        W47620  31.998  40.302  11.162
82394W        W47621  42.475  11.183  11.559
82395W        W47622   5.296  26.199  14.572
82396W        W47623  27.018  14.855   3.709
82397W        W47624  36.428  15.585   1.853
82398W        W47625  29.460  14.911  11.896
82399W        W47626  12.198  36.912  12.849
82400W        W47627  34.913  37.282   2.128
82401W        W47628  13.774   7.820   2.125
82402W        W47629   0.285  11.275  12.378
82403W        W47630  15.605  27.846   4.653
82404W        W47631  35.544  33.341   2.657
82405W        W47632  37.152  41.767  12.499
82406W        W47633  43.389  32.087   2.574
82407W        W47634  30.390   1.404   1.938
82408W        W47635  39.392  43.330  13.930
82409W        W47636  22.196  15.750  14.316
82410W        W47637  33.486  35.307  11.853
82411W        W47638  25.595  33.931  12.129
82412W        W47639  24.506  38.637  12.087
82413W        W47640   2.325   9.326  10.804
82414W        W47641   1.831  13.965   1.884
82415W        W47642  24.661   7.275  12.070
82416W        W47643  40.472  26.513   2.653
82417W        W47644   9.468  13.892   4.590
82418W        W47645  19.755  37.832  14.874
82419W        W47646  24.133   0.977  13.852
82420W        W47647   3.195   1.416  11.493
82421W        W47648  12.360  39.303  13.774
82422W        W47649  32.311  43.647  12.648
82423W        W47650  26.107  18.262  13.749
82424W        W47651  41.045  12.762  14.736
82425W        W47652  21.399  17.267   2.073
82426W        W47653  15.877  21.868  13.061
82427W        W47654  19.645  33.089  11.495
82428W        W47655   2.635  12.081  13.983
82429W        W47656  28.770   0.515  14.282
82430W        W47657  36.055   2.934  12.542
82431W        W47658  37.371  15.586  12.987
82432W        W47659   2.100  24.141  13.453
82433W        W47660   8.820  22.561  13.030
82434W        W47661   5.862  18.459   1.620
82435W        W47662  33.599  20.042  13.877
82436W        W47663   7.276  38.221  11.005
82437W        W47664  42.904  24.960   0.752
82438W        W47665  36.980  19.054   3.129
82439W        W47666  38.402  20.406   0.494
82440W        W47667  27.244  32.530   0.993
82441W        W47668  20.196  37.259   2.766
82442W        W47669  12.430   7.235  12.035
82443W        W47670  28.942  23.692  11.457
82444W        W47671  14.311   8.519   4.069
82445W        W47672   6.406   2.346   3.915
82446W        W47673   8.166  13.707   5.302
82447W        W47674   7.407  38.926  14.972
82448W        W47675   0.850  21.304  13.777
82449W        W47676  34.406  19.642  14.592
82450W        W47677  25.977  20.794  13.908
82451W        W47678  34.422   7.245  11.599
82452W        W47679  26.523  31.477  10.832
82453W        W47680  26.661  40.995  13.389
82454W        W47681   8.848  31.588   0.914
82455W        W47682  44.321  14.847   2.557
82456W        W47683  25.551  18.786  11.743
82457W        W47684  10.064  10.551  12.926
82458W        W47685   9.315  17.999   0.398
82459W        W47686  18.572  37.843  13.512
82460W        W47687   9.287  38.405   0.340
82461W        W47688  42.053  37.847   2.822
82462W        W47689  12.500  39.146  10.698
82463W        W47690  24.180   2.427  11.221
82464W        W47691  28.485  32.354  12.328
82465W        W47692  44.047   2.891   3.260
82466W        W47693  10.440   7.171  12.154
82467W        W47694  28.044  35.052  11.605
82468W        W47695  22.214   0.849   2.906
82469W        W47696  24.796  24.015   3.543
82470W        W47697  26.625  23.572  12.424
82471W        W47698  25.685  32.378  13.967
82472W        W47699  30.431   1.518  11.229
82473W        W47700  12.805  34.914   1.861
82474W        W47701   0.887   6.828  11.234
82475W        W47702  26.843  28.549   3.327
82476W        W47703  12.605  27.570   1.316
82477W        W47704  41.588   4.767   2.811
82478W        W47705  14.559  30.532   1.300
82479W        W47706   2.444  30.173  12.334
82480W        W47707  12.172  29.441  10.421
82481W        W47708  22.183  19.241   0.397
82482W        W47709  36.514  34.195  11.420
82483W        W47710  21.745  31.919  11.540
82484W        W47711  36.935  31.612  13.984
82485W        W47712  32.076  16.714  12.578
82486W        W47713   8.633  25.513  13.022
82487W        W47714  41.842  43.783  14.476
82488W        W47715  37.406   7.814   1.926
82489W        W47716  25.637  40.987  13.028
82490W        W47717  24.643  17.703  13.401
82491W        W47718  28.904  20.666   1.914
82492W        W47719  42.465   5.460  13.721
82493W        W47720   1.395   3.418  12.552
82494W        W47721  43.734  19.802   1.318
82495W        W47722  30.828  41.261  13.506
82496W        W47723   3.915   7.654  14.828
82497W        W47724  20.698  31.913   0.005
82498W        W47725  11.278  27.689  12.859
82499W        W47726  25.473  21.157   4.547
82500W        W47727  38.778  11.004   1.492
82501W        W47728   9.368   0.556  14.300
82502W        W47729  24.652  40.762   4.298
82503W        W47730  23.865  27.133  14.909
82504W        W47731  30.558  44.968  12.445
82505W        W47732  41.117  21.072  12.030
82506W        W47733  10.382  27.235   1.937
82507W        W47734   7.846  18.367  12.013
82508W        W47735  23.750  13.232   2.790
82509W        W47736  28.333  14.689  10.524
82510W        W47737  25.691  16.096   1.733
82511W        W47738  24.121  37.403   4.637
82512W        W47739  34.329   9.252   4.848
82513W        W47740  40.304   9.417  14.353
82514W        W47741  30.019  32.105   2.434
82515W        W47742  37.889  32.175   0.248
82516W        W47743   2.178  32.699  14.426
82517W        W47744  26.163  42.437  13.264
82518W        W47745  32.512  25.707  13.688
82519W        W47746  19.196  13.170  10.798
82520W        W47747  31.504  41.343   4.573
82521W        W47748   9.879  42.079   2.728
82522W        W47749   8.048  10.355  10.966
82523W        W47750  40.815  39.297  13.069
82524W        W47751  27.841  41.331   3.277
82525W        W47752  15.418  40.753   2.918
82526W        W47753   6.988   0.742   2.462
82527W        W47754  23.977  31.179  10.930
82528W        W47755   3.983  33.503   2.379
82529W        W47756   7.468  20.063  12.679
82530W        W47757  37.327  17.311   2.329
82531W        W47758   7.388   8.994   0.853
82532W        W47759   3.754   0.678   3.550
82533W        W47760  34.345   2.980  11.155
82534W        W47761  19.656   5.000  10.164
82535W        W47762  23.394  26.040   1.270
82536W        W47763  12.957   0.843  12.168
82537W        W47764  30.702  34.057  12.834
82538W        W47765  14.530  32.150   2.278
82539W        W47766  36.920  24.012   4.620
82540W        W47767  29.515  26.134  14.734
82541W        W47768  20.716  38.564  11.656
82542W        W47769  24.956   6.340   2.367
82543W        W47770   1.790  13.268   3.283
82544W        W47771   2.341  41.090  12.561
82545W        W47772  42.950  25.109   4.266
82546W        W47773  27.623  29.076  13.371
82547W        W47774   6.766  16.022   1.886
82548W        W47775   6.113  30.029  14.871
82549W        W47776  34.590   1.503  12.874
82550W        W47777  17.266  43.049  13.472
82551W        W47778  14.182  10.909  13.959
82552W        W47779  35.462  40.703   3.420
82553W        W47780  44.813  36.109   4.592
82554W        W47781  23.496  21.485   3.540
82555W        W47782  28.993  41.539   2.350
82556W        W47783  37.316  44.463   9.889
82557W        W47784  12.737   8.701   3.631
82558W        W47785  19.846   6.362   2.867
82559W        W47786  17.217  10.597  10.724
82560W        W47787  19.331  29.643  10.926
82561W        W47788  43.443   2.753   1.622
82562W        W47789  11.068  16.952  12.430
82563W        W47790  16.595  37.606   3.573
82564W        W47791  20.454   5.779  13.184
82565W        W47792  39.460  15.444  13.486
82566W        W47793  19.234  14.869   3.505
82567W        W47794   9.784  38.848  12.422
82568W        W47795  21.319  37.287  10.980
82569W        W47796   4.882  43.928  12.672
82570W        W47797  42.068   7.235  12.488
82571W        W47798  35.285  12.301   4.705
82572W        W47799  26.743  23.581   0.206
82573W        W47800   5.383  28.592  14.458
82574W        W47801  25.062  37.378  12.119
82575W        W47802  25.037  18.719   2.385
82576W        W47803   7.402  39.872   0.353
82577W        W47804   7.326  30.932   2.372
82578W        W47805  44.020  11.768   0.980
82579W        W47806  22.724  19.782  11.594
82580W        W47807  44.794   4.996   9.823
82581W        W47808  35.929  11.173   1.676
82582W        W47809  34.813   3.191  11.094
82583W        W47810  41.383  24.165  10.749
82584W        W47811  25.481  11.057   3.726
82585W        W47812   2.403  11.793   1.940
82586W        W47813  44.245  20.720  13.375
82587W        W47814  15.286  44.966   4.120
82588W        W47815   4.159  19.299   0.987
82589W        W47816  10.395  41.548  12.937
82590W        W47817  26.479  17.179  12.080
82591W        W47818  14.118  35.857  12.072
82592W        W47819  30.891  11.184  10.696
82593W        W47820  27.763  33.434   4.695
82594W        W47821   0.713  31.599   1.428
82595W        W47822  12.443  16.862  11.087
82596W        W47823  35.858   9.125   2.193
82597W        W47824  44.330  13.086   0.446
82598W        W47825  23.276   5.900  13.473
82599W        W47826   5.773  24.389   4.524
82600W        W47827   4.137  12.840   3.851
82601W        W47828  10.189  31.161   4.428
82602W        W47829  13.757  26.562  12.065
82603W        W47830   0.695  18.686  12.486
82604W        W47831  22.175  10.331  13.906
82605W        W47832  21.456   6.203  12.008
82606W        W47833  20.632   5.648   3.275
82607W        W47834  12.071   9.896   3.626
82608W        W47835   1.311  40.389  11.222
82609W        W47836   2.675  25.118   3.645
82610W        W47837  34.615  26.197  13.417
82611W        W47838   5.268   9.352   4.529
82612W        W47839   7.725   8.880   1.758
82613W        W47840  16.769  43.207  13.491
82614W        W47841  35.699  27.567  13.730
82615W        W47842   1.105  27.539  14.355
82616W        W47843  43.603   9.785  11.731
82617W        W47844  36.851  30.292   0.776
82618W        W47845  20.560   2.352  12.289
82619W        W47846  15.878  38.342  13.265
82620W        W47847  29.027   8.648  11.612
82621W        W47848  13.375  15.586  13.094
82622W        W47849   4.882  17.267  10.977
82623W        W47850  17.296  21.072  11.937
82624W        W47851  31.190  17.174  10.528
82625W        W47852  23.775  12.849   2.090
82626W        W47853  17.522  20.569  11.860
82627W        W47854  12.251  34.867  14.355
82628W        W47855   4.423  38.914   3.710
82629W        W47856  28.746  44.328  12.989
82630W        W47857  40.977  32.323   2.683
82631W        W47858  37.916  16.568   1.260
82632W        W47859  10.851   8.308   4.972
82633W        W47860   8.402  35.650   0.837
82634W        W47861  14.203  35.766   1.159
82635W        W47862  21.211  30.110   4.687
82636W        W47863  38.658  26.817   2.695
82637W        W47864  39.245  23.215   2.777
82638W        W47865  22.219  39.060   4.611
82639W        W47866  12.119  24.167   3.533
82640W        W47867  34.040  12.883  14.300
82641W        W47868  31.585   2.215   2.710
82642W        W47869  39.919  39.920   3.700
82643W        W47870  40.773  42.927   2.427
82644W        W47871  30.455  32.912   1.459
82645W        W47872  44.688  17.584   9.928
82646W        W47873  32.121  35.395  13.001
82647W        W47874  15.382  35.349   3.168
82648W        W47875  18.079  31.514   2.321
82649W        W47876  25.504   4.436   3.591
82650W        W47877  12.641  33.733   2.665
82651W        W47878   3.954  16.711   3.254
82652W        W47879   3.417   6.720  13.309
82653W        W47880  38.474  42.445   2.357
82654W        W47881  20.291  38.558   0.094
82655W        W47882   3.761  26.481   9.863
82656W        W47883  31.503  10.056   0.208
82657W        W47884  41.580  36.030  12.660
82658W        W47885  35.957  32.979  12.992
82659W        W47886   3.028   9.913   2.763
82660W        W47887  36.455  35.174   4.223
82661W        W47888  22.470  24.111  12.706
82662W        W47889  33.904  33.968  12.624
82663W        W47890  20.080   2.361  11.546
82664W        W47891  11.725   8.753  11.663
82665W        W47892  44.706   5.385   0.350
82666W        W47893  43.231  22.618   1.156
82667W        W47894  11.134  36.758  11.575
82668W        W47895  27.174  27.983  14.294
82669W        W47896  42.166  28.957  13.449
82670W        W47897  12.872  36.414   1.827
82671W        W47898  29.937  35.042  11.148
82672W        W47899   4.652  12.243  12.564
82673W        W47900  37.713  20.711   4.351
82674W        W47901  14.563  25.239  12.022
82675W        W47902   4.467   7.407   1.768
82676W        W47903  18.401  12.737  14.525
82677W        W47904  43.675  15.473  11.443
82678W        W47905  24.853  12.075  12.115
82679W        W47906  14.360  24.719   4.420
82680W        W47907  12.193  12.543   2.994
82681W        W47908  37.941  21.574  10.962
82682W        W47909  17.543  31.356  11.120
82683W        W47910  39.521  22.596   0.525
82684W        W47911  36.580  31.432   3.656
82685W        W47912   8.832   3.938  14.548
82686W        W47913   3.154   0.844  13.720
82687W        W47914  19.190  22.804   2.415
82688W        W47915  29.232  20.578   2.311
82689W        W47916   8.133  29.682   2.886
82690W        W47917  32.371  17.588  12.621
82691W        W47918   7.787  25.841   4.080
82692W        W47919  10.866  42.013   2.761
82693W        W47920  43.864   3.139   0.419
82694W        W47921  41.245   9.289   3.698
82695W        W47922  14.763  29.215  12.941
82696W        W47923  22.171   1.725  14.397
82697W        W47924  43.307  21.006  13.544
82698W        W47925  12.603  17.646  12.576
82699W        W47926  42.539  44.398   1.446
82700W        W47927  31.395  31.499  13.919
82701W        W47928  34.759   1.291  11.227
82702W        W47929  31.640  32.924  14.883
82703W        W47930  35.092  18.316  14.555
82704W        W47931   8.906  42.830   1.867
82705W        W47932  10.589  37.043   0.804
82706W        W47933  12.287  38.610   0.307
82707W        W47934  43.487  29.693   4.049
82708W        W47935  21.509   0.012  14.766
82709W        W47936  21.655   6.748  11.370
82710W        W47937  31.597   0.039   0.814
82711W        W47938   5.369  12.619   3.187
82712W        W47939  11.895  32.602  13.821
82713W        W47940   5.466   8.831  14.810
82714W        W47941  16.143  29.761   0.278
82715W        W47942  16.241  19.517   3.600
82716W        W47943  25.624  19.573  13.336
82717W        W47944  11.699  21.741   0.256
82718W        W47945  28.158  35.791  11.036
82719W        W47946  21.796  36.623  13.317
82720W        W47947   0.058  17.559  13.818
82721W        W47948  39.463  30.211   4.028
82722W        W47949   3.385  26.254  10.142
82723W        W47950   0.832  26.080  14.884
82724W        W47951  22.750  31.518   4.924
82725W        W47952  28.924  31.471  14.021
82726W        W47953  25.475  18.023   3.182
82727W        W47954  25.005  44.999   1.400
82728W        W47955  30.347  10.637   2.457
82729W        W47956  29.664  30.959   1.508
82730W        W47957  43.208  33.617   4.053
82731W        W47958   3.426  39.004  14.385
82732W        W47959   3.757  39.558  12.825
82733W        W47960  20.441  36.795   0.804
82734W        W47961  12.645  31.276  14.034
82735W        W47962  16.060  10.002   4.643
82736W        W47963  21.532  25.693  11.173
82737W        W47964  24.608  39.895   2.743
82738W        W47965  18.216   5.903   0.942
82739W        W47966   5.969  43.942  11.925
82740W        W47967  14.615  43.722   1.259
82741W        W47968  20.675   3.203  11.682
82742W        W47969  16.767  22.073   3.836
82743W        W47970   5.327  23.417  11.261
82744W        W47971  13.061  12.230   0.140
82745W        W47972  14.195   0.286  12.141
82746W        W47973  30.175  25.046  10.729
82747W        W47974   3.938  35.612   4.866
82748W        W47975   3.116  16.379   0.668
82749W        W47976  19.768  19.322  12.969
82750W        W47977  16.114  16.539  14.848
82751W        W47978  25.309  30.500  14.954
82752W        W47979  12.700  41.143   0.872
82753W        W47980  31.281  44.943   3.058
82754W        W47981  42.404  13.658   3.298
82755W        W47982  12.620  15.654  13.311
82756W        W47983   8.998   6.782   1.158
82757W        W47984  40.932  39.481  14.031
82758W        W47985  17.709  27.754  12.377
82759W        W47986  43.474  30.416   3.602
82760W        W47987  34.869  15.467  12.924
82761W        W47988  24.997  31.520  14.967
82762W        W47989  24.193  25.396  13.489
82763W        W47990   2.907   1.737   3.111
82764W        W47991  12.833  43.819  10.856
82765W        W47992   6.222  24.180   1.381
82766W        W47993  12.343  12.280   1.979
82767W        W47994  24.798   5.897   2.791
82768W        W47995   7.923  11.412   3.580
82769W        W47996   0.544   4.159  11.549
82770W        W47997  35.465  22.650   0.735
82771W        W47998  10.447   9.540   0.023
82772W        W47999   7.697  14.708  14.337
82773W        W48000  26.938   0.871   3.906
82774W        W48001  42.039  21.674  13.035
82775W        W48002   2.558  14.325  12.567
82776W        W48003   4.222   8.148  11.932
82777W        W48004  28.851   9.190  10.766
82778W        W48005  19.464  36.084   1.349
82779W        W48006  23.717  17.813   3.669
82780W        W48007  17.397  44.976   0.652
82781W        W48008  24.403  11.799  12.487
82782W        W48009  20.786  34.566  12.477
82783W        W48010  29.956   6.390  11.655
82784W        W48011  23.486  42.338  11.665
82785W        W48012  33.698  13.990  10.676
82786W        W48013  37.511  14.927  13.522
82787W        W48014  25.820  31.990   1.372
82788W        W48015   1.511  15.601   0.260
82789W        W48016   6.674  29.696  13.089
82790W        W48017  12.360  31.441   3.638
82791W        W48018  35.382  38.897   2.234
82792W        W48019   7.486   2.955  13.502
82793W        W48020  31.111  14.173   3.366
82794W        W48021  20.540   7.457   3.400
82795W        W48022  25.233   3.932  10.709
82796W        W48023  43.415   2.894   1.109
82797W        W48024  15.553  25.344   0.311
82798W        W48025   2.462  40.739   2.489
82799W        W48026  43.520  14.843  12.826
82800W        W48027  33.423  38.599   4.166
82801W        W48028  23.069  29.390  13.815
82802W        W48029  35.561  39.756   1.833
82803W        W48030  28.523  11.818  14.432
82804W        W48031  35.354  23.961  12.424
82805W        W48032   8.075  14.209   2.613
82806W        W48033  16.639   9.807   1.128
82807W        W48034  11.552  13.603  13.946
82808W        W48035  26.591  42.738   3.689
82809W        W48036   1.351  35.959  13.357
82810W        W48037   3.756  25.100  13.776
82811W        W48038  29.761  29.216   3.578
82812W        W48039  36.042  19.771   2.314
82813W        W48040  30.929  38.488   3.236
82814W        W48041  30.171  29.265   0.367
82815W        W48042  22.455  14.758   4.958
82816W        W48043  31.051  15.588  11.129
82817W        W48044  38.032  14.203  13.072
82818W        W48045  16.855  30.426   1.808
82819W        W48046   4.906  35.079   1.586
82820W        W48047  12.373   9.981   4.648
82821W        W48048   4.372  16.325   0.428
82822W        W48049  19.355  28.192  12.115
82823W        W48050  16.711   5.630   4.163
82824W        W48051  39.378   5.236  13.437
82825W        W48052  21.822  24.019  10.491
82826W        W48053   4.636  37.597   3.160
82827W        W48054  21.496  33.449   4.001
82828W        W48055  43.882  39.369  13.889
82829W        W48056  44.964  23.543   1.519
82830W        W48057  31.797   0.711   2.258
82831W        W48058  13.723   1.456   2.255
82832W        W48059  40.319  44.386  13.872
82833W        W48060   1.985   9.805   0.572
82834W        W48061  23.999  36.485   4.386
82835W        W48062  28.036  31.195  11.694
82836W        W48063  26.127  43.854  14.194
82837W        W48064  34.047  29.930  10.926
82838W        W48065  12.399   5.261  10.748
82839W        W48066  29.648   5.277  11.466
82840W        W48067  33.466   3.975  14.966
82841W        W48068  33.211  11.712  11.575
82842W        W48069   9.586  29.855   1.323
82843W        W48070   2.825  44.856   0.927
82844W        W48071  27.472  31.716  11.177
82845W        W48072   0.092  38.526  14.754
82846W        W48073  24.521  39.929  14.945
82847W        W48074   1.051  34.100  12.852
82848W        W48075  33.921  24.932  10.307
82849W        W48076  27.021  22.101   4.107
82850W        W48077   0.221  42.571   3.639
82851W        W48078  15.400   2.122  13.562
82852W        W48079  11.281  10.598  10.727
82853W        W48080  38.477   4.814  10.975
82854W        W48081   8.087  23.207  11.599
82855W        W48082  33.653  21.116   2.057
82856W        W48083  18.328  43.479  13.083
82857W        W48084  36.369  27.415   1.034
82858W        W48085  28.131  23.604   4.881
82859W        W48086  37.799  26.089   0.225
82860W        W48087  27.462  35.433  10.534
82861W        W48088   8.315  41.453  12.161
82862W        W48089   3.923  28.078   4.992
82863W        W48090  20.477   7.975  14.904
82864W        W48091  39.765  44.110  11.434
82865W        W48092  41.898  34.731  13.991
82866W        W48093   2.395  23.813   4.391
82867W        W48094  42.247   7.006  14.804
82868W        W48095  28.678  16.124   0.953
82869W        W48096   5.844  21.736  11.028
82870W        W48097  29.749   3.917  11.354
82871W        W48098  22.143  11.128  13.040
82872W        W48099  22.381  22.560   0.829
82873W        W48100  34.282  39.466   3.064
82874W        W48101  16.736   8.836  14.564
82875W        W48102  22.270  44.518  13.558
82876W        W48103  31.949  39.369  14.400
82877W        W48104  15.753  22.462   2.765
82878W        W48105  25.601  44.756  14.456
82879W        W48106   8.838  11.531  12.223
82880W        W48107  13.105  15.603   3.700
82881W        W48108  26.381  20.686   2.123
82882W        W48109  39.361  39.358   4.636
82883W        W48110  39.988  17.232  14.361
82884W        W48111  23.540  17.418   3.327
82885W        W48112  19.477  16.386  14.288
82886W        W48113  27.000  32.925  14.929
82887W        W48114  31.695  40.856   2.322
82888W        W48115  17.118  36.436   2.317
82889W        W48116  12.061  16.199  11.993
82890W        W48117  28.229  33.651   0.039
82891W        W48118  11.299   9.736   3.256
82892W        W48119   6.305   6.118   1.885
82893W        W48120   2.191   1.904   4.742
82894W        W48121  25.034   1.711  14.002
82895W        W48122  25.998  31.087   1.429
82896W        W48123   0.326  16.586   1.459
82897W        W48124   0.673  43.131   3.771
82898W        W48125  39.439  24.702   0.744
82899W        W48126  37.923   4.423   4.156
82900W        W48127  40.126  44.373   4.983
82901W        W48128   0.427  21.675  11.665
82902W        W48129  16.478  42.787  13.622
82903W        W48130   6.859  12.550   2.399
82904W        W48131  22.318  34.252   1.441
82905W        W48132  36.858  37.002   1.447
82906W        W48133  32.437   4.954   0.248
82907W        W48134  39.880  28.486  13.887
82908W        W48135  22.059  14.134  11.427
82909W        W48136   0.298  31.570  10.584
82910W        W48137  12.851   9.201  13.441
82911W        W48138   4.038   9.503   4.589
82912W        W48139  42.287  37.596   2.401
82913W        W48140  28.008   1.861   4.662
82914W        W48141  16.645  27.152  11.723
82915W        W48142  37.827   9.347   0.845
82916W        W48143  23.845  25.742  14.983
82917W        W48144  16.713  44.918  14.542
82918W        W48145  38.525  37.368  14.717
82919W        W48146   3.707  33.287   3.876
82920W        W48147   8.822  17.818   0.336
82921W        W48148  36.411  42.988   3.856
82922W        W48149  18.884  30.630  12.405
82923W        W48150  17.917  36.794   2.239
82924W        W48151  12.594  44.286  11.077
82925W        W48152  16.482  39.620  12.906
82926W        W48153  41.062  12.081   4.640
82927W        W48154  11.441  44.863   4.524
82928W        W48155  38.490  16.652   0.835
82929W        W48156   2.851  32.495  13.856
82930W        W48157  34.586  10.648  14.844
82931W        W48158  11.187  23.788   2.212
82932W        W48159  40.573  20.155  14.324
82933W        W48160  18.687   4.313  10.773
82934W        W48161   1.314  17.533  13.213
82935W        W48162  41.679  40.236  13.875
82936W        W48163  35.928  12.376  13.026
82937W        W48164   5.220  11.434  13.345
82938W        W48165   0.593  19.773  13.924
82939W        W48166  38.477   3.303   4.476
82940W        W48167   6.233  37.106  12.940
82941W        W48168   7.369  41.044   3.862
82942W        W48169  31.343   7.992  11.054
82943W        W48170  33.366  25.147  12.013
82944W        W48171  37.643  32.032  14.419
82945W        W48172  14.201  14.338   3.343
82946W        W48173   3.678   9.794   1.925
82947W        W48174  18.122  20.639   0.563
82948W        W48175  40.692  16.397   2.247
82949W        W48176   7.111  24.673   2.244
82950W        W48177  17.526  14.977   3.333
82951W        W48178  44.029  36.977  13.577
82952W        W48179   6.152  18.402  14.978
82953W        W48180  24.497   0.141  12.142
82954W        W48181  37.002  11.643  14.567
82955W        W48182  32.436   0.577  13.880
82956W        W48183  42.554  42.456  11.580
82957W        W48184  21.060  23.754   0.475
82958W        W48185   4.666   5.448   3.210
82959W        W48186   1.322   1.031  14.871
82960W        W48187  23.258   2.637  13.382
82961W        W48188   9.083  11.748   3.756
82962W        W48189  33.541  19.131  12.812
82963W        W48190   5.223   4.744  10.798
82964W        W48191  26.027  20.084   0.458
82965W        W48192  44.092  32.538   2.230
82966W        W48193  25.777  13.760  11.830
82967W        W48194   6.332   0.941   4.604
82968W        W48195  22.952  31.474  11.197
82969W        W48196  29.043  18.317   0.436
82970W        W48197  40.277   9.433   1.456
82971W        W48198  30.174  44.398  12.851
82972W        W48199  43.777  25.338  10.318
82973W        W48200   0.937  30.829   4.558
82974W        W48201  41.836  37.044   3.421
82975W        W48202  10.724  17.637   0.448
82976W        W48203  29.147   6.403   1.700
82977W        W48204  36.476  22.137  10.702
82978W        W48205   3.916  19.415   2.927
82979W        W48206  21.392  30.485   2.064
82980W        W48207  20.065  11.635  13.023
82981W        W48208   6.404   9.806  12.999
82982W        W48209  32.551  38.089  14.440
82983W        W48210  12.096  25.473  13.408
82984W        W48211  21.915  30.682   3.050
82985W        W48212  41.824  40.417   0.446
82986W        W48213   8.633  25.434   2.458
82987W        W48214  12.873  29.124  14.437
82988W        W48215   6.711  38.067   3.798
82989W        W48216  44.118   0.225   2.588
82990W        W48217  12.384   5.430   4.151
82991W        W48218  33.380  39.355  12.023
82992W        W48219  27.050   5.295  14.822
82993W        W48220  34.642  37.916  13.797
82994W        W48221   1.558  24.331   3.614
82995W        W48222  23.132  11.298   1.901
82996W        W48223  19.621   9.795  12.031
82997W        W48224  38.206  21.956   2.164
82998W        W48225  28.879  40.915  11.884
82999W        W48226  25.548  36.995   1.445
83000W        W48227  16.458  40.047   3.657
83001W        W48228  41.177  16.811  12.111
83002W        W48229  24.992  11.289   3.764
83003W        W48230  15.480  15.074  14.303
83004W        W48231  28.480   2.711  14.569
83005W        W48232  38.275  17.829   1.022
83006W        W48233  27.708   4.681   3.592
83007W        W48234  22.068  19.505  12.119
83008W        W48235  28.957  41.463  14.778
83009W        W48236   0.538  30.254   0.870
83010W        W48237  24.223  39.978   4.679
83011W        W48238  41.660  11.430  12.482
83012W        W48239  24.178  10.235  10.727
83013W        W48240  36.933   1.388   3.171
83014W        W48241  23.952  43.961   1.921
83015W        W48242   7.651  22.734   3.707
83016W        W48243  22.169   3.348   1.829
83017W        W48244  42.093   6.947   2.721
83018W        W48245  24.549  10.914   1.384
83019W        W48246  10.659   7.872  10.612
83020W        W48247  17.649  23.209   3.229
83021W        W48248  19.586  12.067  14.992
83022W        W48249  13.259   9.661  10.639
83023W        W48250  42.179  26.960  13.786
83024W        W48251   2.821  44.930  11.573
83025W        W48252   1.847  35.592   4.654
83026W        W48253  34.387   9.420   3.172
83027W        W48254  20.455  44.984  14.781
83028W        W48255   8.651  36.410  11.195
83029W        W48256  33.650  35.575   2.985
83030W        W48257   4.802  11.864   1.864
83031W        W48258  10.176  32.986  14.913
83032W        W48259  26.438  43.648  12.891
83033W        W48260  10.642  42.135  14.376
83034W        W48261   1.995  37.879   4.026
83035W        W48262   1.283   2.661   1.411
83036W        W48263  14.852  44.096  12.779
83037W        W48264  11.278  21.074   2.372
83038W        W48265  10.489  31.838   3.920
83039W        W48266  33.655  25.963   3.318
83040W        W48267  36.939   5.888  11.538
83041W        W48268  21.170  13.856   1.840
83042W        W48269  29.700  10.005   3.634
83043W        W48270  34.437  13.067  10.162
83044W        W48271   3.322   9.302  11.643
83045W        W48272  14.595  41.363  14.244
83046W        W48273  25.758  35.657  11.129
83047W        W48274  26.129  29.258   4.540
83048W        W48275  45.000  11.166  10.733
83049W        W48276  43.019  41.763   2.430
83050W        W48277  18.071  12.900  12.730
83051W        W48278  21.963  39.496  12.009
83052W        W48279  21.514  33.759  11.076
83053W        W48280  37.075   5.390  14.862
83054W        W48281  15.591  34.053   0.759
83055W        W48282  19.119  12.870   2.370
83056W        W48283  24.262   5.693   3.594
83057W        W48284  37.826  43.494  12.619
83058W        W48285  34.151  29.701  10.452
83059W        W48286  31.650  31.342   2.250
83060W        W48287   9.882  15.591   0.194
83061W        W48288  33.634   3.411   4.157
83062W        W48289  25.466  16.814   2.783
83063W        W48290  34.979   4.291   1.663
83064W        W48291  30.950  44.609  12.329
83065W        W48292  15.427   5.820   1.812
83066W        W48293  40.572  29.437   0.681
83067W        W48294  44.725  12.095  12.880
83068W        W48295  29.526  38.258  14.286
83069W        W48296   0.329  44.749  10.508
83070W        W48297  12.609   3.873   1.299
83071W        W48298  11.161  23.279   2.290
83072W        W48299  42.766  12.655  13.584
83073W        W48300  15.721  43.350   3.743
83074W        W48301   7.240  14.212   9.892
83075W        W48302  16.623   6.933   4.160
83076W        W48303   6.630  35.461  10.476
83077W        W48304   3.407  23.607   1.389
83078W        W48305   8.711  31.577  10.725
83079W        W48306  24.743   2.848   2.665
83080W        W48307  19.620   3.796  13.107
83081W        W48308  28.417   0.797  11.419
83082W        W48309  18.973   7.860   4.665
83083W        W48310  22.142  21.276  14.990
83084W        W48311  27.129  18.477   0.321
83085W        W48312  25.956  17.649   0.515
83086W        W48313   9.263  36.692   4.893
83087W        W48314  29.103  38.189   4.192
83088W        W48315  13.596   4.410  13.179
83089W        W48316  27.895  21.624  12.193
83090W        W48317  32.063  44.253  13.958
83091W        W48318  24.538  30.064  11.617
83092W        W48319  31.086   3.957   3.234
83093W        W48320  14.334  42.256  13.459
83094W        W48321  16.330  15.520   0.126
83095W        W48322  16.615  28.530  12.081
83096W        W48323  19.850  17.773  11.492
83097W        W48324   5.729  11.471   1.454
83098W        W48325   7.610  38.397  13.004
83099W        W48326  25.518  32.867  14.043
83100W        W48327  24.149   0.944   2.793
83101W        W48328  28.626  15.834  11.986
83102W        W48329  15.290  43.517   4.525
83103W        W48330  34.980  26.200  11.735
83104W        W48331  21.564  31.210   0.917
83105W        W48332  26.462  15.492   4.152
83106W        W48333   6.441  21.591   4.504
83107W        W48334   3.329   7.970  13.778
83108W        W48335  39.320  44.995  14.383
83109W        W48336  26.231   5.156  11.540
83110W        W48337  33.690   4.321  10.708
83111W        W48338  36.824  11.211   3.916
83112W        W48339   1.258   9.092  14.359
83113W        W48340  14.093  40.348   2.843
83114W        W48341  27.134  11.678   4.563
83115W        W48342  43.855   9.303   0.984
83116W        W48343  26.248  29.784  14.363
83117W        W48344  10.624   5.734  10.574
83118W        W48345  30.466  19.275  14.966
83119W        W48346   6.107  23.143   2.212
83120W        W48347  16.872   0.321  13.425
83121W        W48348  39.082  12.794  10.287
83122W        W48349   7.737   5.772   4.879
83123W        W48350  35.491  42.298  14.939
83124W        W48351  21.168  38.449   0.236
83125W        W48352  38.823   2.845   2.850
83126W        W48353  10.572  10.630  12.878
83127W        W48354  33.831  43.436  11.952
83128W        W48355  40.360  20.115  12.042
83129W        W48356  42.896  38.691  13.610
83130W        W48357  31.622  33.944   2.760
83131W        W48358  18.892   0.244  10.806
83132W        W48359  14.725  44.853  10.835
83133W        W48360  12.752   8.338   2.760
83134W        W48361  40.653   2.221  12.794
83135W        W48362   1.601   4.367  12.142
83136W        W48363  42.097  35.105   1.184
83137W        W48364   3.987   4.059   4.049
83138W        W48365  39.231  24.522  13.266
83139W        W48366  19.689   2.329  12.092
83140W        W48367  33.389  29.682   3.491
83141W        W48368  19.362  40.979   2.204
83142W        W48369   4.830  43.936  12.158
83143W        W48370   3.170   5.754  12.463
83144W        W48371  41.993  36.991  12.566
83145W        W48372  35.803  21.680  11.216
83146W        W48373  28.533  18.222   4.620
83147W        W48374  36.605  26.831  13.287
83148W        W48375  14.043   3.743  11.124
83149W        W48376  19.794  41.356  12.805
83150W        W48377  20.527  31.378   0.946
83151W        W48378  12.195   1.391   1.796
83152W        W48379  16.606  15.496   1.122
83153W        W48380  40.654  37.150   4.172
83154W        W48381  24.205  10.381   4.106
83155W        W48382   1.995  30.510   3.642
83156W        W48383   7.647  13.717   4.660
83157W        W48384  35.361  18.144   4.456
83158W        W48385  23.067  44.064   0.834
83159W        W48386  20.644  25.394  13.600
83160W        W48387   6.343  15.857  14.286
83161W        W48388  17.601  40.914   1.883
83162W        W48389  25.268  32.924  14.481
83163W        W48390   5.687  25.080   1.282
83164W        W48391  30.859  33.313   2.117
83165W        W48392  32.488  30.564  12.408
83166W        W48393  22.638  40.554  13.553
83167W        W48394  24.045  10.892  13.980
83168W        W48395  39.592  26.460   0.315
83169W        W48396  10.404  38.877   0.436
83170W        W48397  21.825   0.429  11.052
83171W        W48398  23.968  30.855  13.398
83172W        W48399   9.909  32.808   0.922
83173W        W48400  19.248   5.194  14.106
83174W        W48401   1.271   3.904   4.608
83175W        W48402  11.931   4.365  10.568
83176W        W48403  28.585  14.018  10.270
83177W        W48404  29.345  35.525   0.748
83178W        W48405  17.781  43.902   4.651
83179W        W48406  30.326   2.468   2.175
83180W        W48407   6.907  25.134   4.648
83181W        W48408  19.616  36.791   4.717
83182W        W48409  30.198   6.477   4.271
83183W        W48410  20.111  17.914   1.660
83184W        W48411  27.501  20.948  10.274
83185W        W48412  42.088   5.315   1.000
83186W        W48413  40.312  43.885  13.337
83187W        W48414  32.349   4.718   2.178
83188W        W48415   5.672  32.948  13.600
83189W        W48416   1.541  41.968   1.476
83190W        W48417  38.619  12.248  13.328
83191W        W48418  21.601  36.243  12.980
83192W        W48419  29.132   5.495   4.103
83193W        W48420   3.620  14.730  10.923
83194W        W48421  38.376  14.613   3.923
83195W        W48422   9.917   1.312  14.382
83196W        W48423   7.136  24.149   3.909
83197W        W48424  26.188  28.155   0.806
83198W        W48425  38.714   3.393  11.904
83199W        W48426  18.601  13.316   3.113
83200W        W48427  42.947  38.962  12.428
83201W        W48428  32.863   9.404   1.409
83202W        W48429  39.032  13.078  11.660
83203W        W48430  20.685  10.675  12.566
83204W        W48431  14.713   3.075  14.853
83205W        W48432  18.639  40.303   3.847
83206W        W48433  15.347  30.529   3.350
83207W        W48434   7.745  13.966   5.086
83208W        W48435  37.036  42.879   4.653
83209W        W48436  41.387  39.505  13.759
83210W        W48437  24.971  20.789   9.937
83211W        W48438  26.398  25.474  12.918
83212W        W48439  30.042   0.471  13.332
83213W        W48440  44.802  19.083   1.926
83214W        W48441  35.610  14.647   0.391
83215W        W48442  32.328  40.403   2.703
83216W        W48443   6.196  28.674   2.249
83217W        W48444  15.712   0.675   2.741
83218W        W48445   5.820  29.638   2.573
83219W        W48446  23.914   1.772   1.029
83220W        W48447   0.621   4.460  11.950
83221W        W48448  14.630  13.785  13.425
83222W        W48449  33.921  42.290  13.886
83223W        W48450   8.851  33.523  13.180
83224W        W48451  16.546  16.676  13.530
83225W        W48452  43.288   0.353  13.599
83226W        W48453   8.840  23.773  12.338
83227W        W48454  14.812   5.374  14.488
83228W        W48455  34.503   0.383   1.635
83229W        W48456  18.182  19.636  14.983
83230W        W48457  25.487  25.837  12.977
83231W        W48458  16.707   0.498  12.537
83232W        W48459  38.391  37.545   2.327
83233W        W48460  33.794   7.390   1.459
83234W        W48461  10.276  19.899  13.455
83235W        W48462   9.618  44.290   3.710
83236W        W48463   7.157  31.358  14.866
83237W        W48464  27.636  12.812  13.844
83238W        W48465   5.308  10.654   0.549
83239W        W48466  26.189  39.989  12.445
83240W        W48467  36.523  44.930   0.009
83241W        W48468  32.900  33.310   3.952
83242W        W48469  19.599  39.312   0.855
83243W        W48470  26.181  44.972  10.629
83244W        W48471  33.953   1.726   3.054
83245W        W48472  30.092  21.313  12.423
83246W        W48473  24.632  39.561  12.044
83247W        W48474  10.271   2.391  10.603
83248W        W48475  18.068   1.892   0.297
83249W        W48476   8.798  44.778   0.789
83250W        W48477  36.104  22.075   2.349
83251W        W48478  22.021  21.914   4.591
83252W        W48479  39.767  44.114   2.122
83253W        W48480  27.669  16.707   3.254
83254W        W48481  24.284  36.064   1.422
83255W        W48482  16.294  14.703   1.804
83256W        W48483   5.201   2.711  14.495
83257W        W48484  16.722  23.174  12.689
83258W        W48485  39.455   2.327  13.961
83259W        W48486   0.248  36.474   4.126
83260W        W48487  23.585  22.704   2.399
83261W        W48488  38.010  18.715   4.925
83262W        W48489  44.333  44.273  13.989
83263W        W48490  43.289  15.111   4.602
83264W        W48491  35.630  28.006  14.048
83265W        W48492  40.276  15.188  14.056
83266W        W48493  25.015  27.417   3.125
83267W        W48494  21.231  18.042  14.927
83268W        W48495  39.555   2.859   2.188
83269W        W48496  23.427  17.709   0.257
83270W        W48497  43.150  26.471   0.309
83271W        W48498   3.215  31.531  12.853
83272W        W48499  34.072  19.245  12.596
83273W        W48500  30.950  14.470   4.822
83274W        W48501  13.743  41.079   4.220
83275W        W48502  30.880  28.550   1.709
83276W        W48503  37.751   3.843   2.987
83277W        W48504  11.863  35.751   1.801
83278W        W48505  44.894  35.948   1.068
83279W        W48506  28.950  36.860   3.630
83280W        W48507  43.679  13.857  12.019
83281W        W48508  22.735  20.673  14.844
83282W        W48509  32.510  11.665  13.590
83283W        W48510   1.784  10.876   4.069
83284W        W48511   0.054  20.186   2.319
83285W        W48512  31.565  37.600   3.225
83286W        W48513  10.945   6.181   2.311
83287W        W48514  41.716   3.507  12.028
83288W        W48515  35.451  29.953  13.501
83289W        W48516  27.429  31.614  13.985
83290W        W48517  15.694  13.243   0.001
83291W        W48518  44.358   7.973   4.545
83292W        W48519  41.318  38.906   2.309
83293W        W48520  23.561  30.854   3.706
83294W        W48521  27.954  32.599   2.438
83295W        W48522  21.188  35.858   4.025
83296W        W48523  44.208  20.955   0.920
83297W        W48524   0.090  33.607  14.747
83298W        W48525   9.733   4.944  11.100
83299W        W48526  39.038  10.412   0.804
83300W        W48527  16.674  34.123   1.162
83301W        W48528  39.866  27.646   0.830
83302W        W48529  21.887  19.259   0.821
83303W        W48530  11.422  19.154   0.847
83304W        W48531  30.547  10.581   3.591
83305W        W48532  22.089  35.874   2.340
83306W        W48533  43.285  41.395  10.934
83307W        W48534  14.188   7.438  10.721
83308W        W48535   8.188  24.628  13.417
83309W        W48536   3.289   2.796   1.694
83310W        W48537  28.809  23.465   2.251
83311W        W48538  30.548   0.655  13.912
83312W        W48539   4.283  30.048   1.821
83313W        W48540   4.961  12.396   0.996
83314W        W48541  27.541  22.609   4.746
83315W        W48542  39.742  35.856  12.480
83316W        W48543  44.743  36.041  12.578
83317W        W48544  22.211  21.144  11.067
83318W        W48545   6.734   2.820   1.923
83319W        W48546   0.653  42.787  10.697
83320W        W48547  16.524  34.936   4.610
83321W        W48548  33.006  16.194  14.392
83322W        W48549   8.275   4.486  10.578
83323W        W48550  33.376  34.099   1.702
83324W        W48551   4.497  17.573   3.438
83325W        W48552  13.284  39.844  14.673
83326W        W48553   1.133   6.625   1.916
83327W        W48554  18.851   6.346  11.634
83328W        W48555   1.906  19.490   0.891
83329W        W48556   3.444  44.123   0.833
83330W        W48557  43.316   4.747  12.102
83331W        W48558  20.633  14.023   5.072
83332W        W48559  39.390  25.319   4.345
83333W        W48560  26.541  21.569  11.827
83334W        W48561   4.250  34.054  14.913
83335W        W48562  42.300  40.619  14.920
83336W        W48563   7.955  12.708  13.395
83337W        W48564   7.978  33.417  14.807
83338W        W48565  37.808   4.710   1.442
83339W        W48566  42.787  10.672   1.855
83340W        W48567  14.818  42.457  13.558
83341W        W48568   6.714  37.329  14.563
83342W        W48569  10.490  35.585  12.423
83343W        W48570  29.722   4.024  11.941
83344W        W48571  42.798  15.132  11.235
83345W        W48572  41.128  41.745   3.202
83346W        W48573  23.665  14.364   0.817
83347W        W48574  16.550  44.139  12.389
83348W        W48575   6.441   0.389  12.674
83349W        W48576  34.303  42.041  14.433
83350W        W48577  12.975  29.669  11.019
83351W        W48578  30.040  26.925  14.022
83352W        W48579  36.365   8.362   9.886
83353W        W48580  39.188  12.926   3.667
83354W        W48581   4.673  35.274  12.812
83355W        W48582  37.257   1.793  14.265
83356W        W48583   8.252  14.930  12.203
83357W        W48584   9.697   2.929   0.490
83358W        W48585  11.672   1.537   4.045
83359W        W48586  43.764  17.062   0.782
83360W        W48587   7.766  30.494  13.476
83361W        W48588  12.178  39.084   4.796
83362W        W48589  19.006  30.129   0.926
83363W        W48590  39.335  42.340  13.833
83364W        W48591  10.444  27.887   3.308
83365W        W48592  16.761   1.086  13.835
83366W        W48593  26.100  24.254   4.567
83367W        W48594   9.450  13.299  10.621
83368W        W48595  43.371  26.960  12.631
83369W        W48596  27.870  41.020   2.358
83370W        W48597  37.444  26.692   5.072
83371W        W48598  26.796  25.447  10.806
83372W        W48599  41.844  10.211  10.767
83373W        W48600  29.390  15.077   1.320
83374W        W48601  19.059  21.488   2.140
83375W        W48602  38.332  39.473   1.403
83376W        W48603   9.368  22.535   0.440
83377W        W48604  41.759  13.347   4.302
83378W        W48605  27.452  10.681   1.469
83379W        W48606  27.634  28.530   0.164
83380W        W48607   8.319  17.850  12.514
83381W        W48608  21.308  14.038   0.509
83382W        W48609  35.904   2.809  14.940
83383W        W48610  34.630  16.788  14.072
83384W        W48611  20.167   1.670   2.375
83385W        W48612   2.249  33.122  11.043
83386W        W48613  17.814  34.457   3.344
83387W        W48614  38.376  10.598   2.811
83388W        W48615  25.683  15.190   4.680
83389W        W48616  39.424  13.910  12.606
83390W        W48617  43.926  34.577   4.904
83391W        W48618  26.018   0.804   1.539
83392W        W48619  39.253   1.349  10.920
83393W        W48620  18.858   7.224  10.633
83394W        W48621  23.232  38.970   2.676
83395W        W48622  30.664   9.912   2.705
83396W        W48623  11.037  21.261  14.975
83397W        W48624  20.702  42.482   3.687
83398W        W48625  35.625  35.039   0.504
83399W        W48626  15.493  38.075   4.226
83400W        W48627   4.276  29.983  12.770
83401W        W48628  36.107  11.449   1.255
83402W        W48629  27.130  28.861  14.033
83403W        W48630  17.172   2.907  11.195
83404W        W48631  29.686   4.718   2.064
83405W        W48632  18.496  14.861  11.440
83406W        W48633  44.518  33.443  13.490
83407W        W48634  22.473  16.749  12.855
83408W        W48635  34.172  31.698  13.405
83409W        W48636   3.500   3.372  14.014
83410W        W48637   5.924  14.028  14.330
83411W        W48638  26.453  19.128   3.156
83412W        W48639  30.886  21.717   0.828
83413W        W48640  44.074  21.801   3.145
83414W        W48641  41.066   9.886   0.505
83415W        W48642  11.581  21.663  14.373
83416W        W48643  44.045  19.250   1.378
83417W        W48644   7.582  23.805  11.146
83418W        W48645   1.273  22.701   3.310
83419W        W48646   1.186  15.703  12.959
83420W        W48647  42.097  24.191  12.827
83421W        W48648  13.187  30.087  14.099
83422W        W48649  22.842  34.887   5.440
83423W        W48650   7.690  37.101  12.012
83424W        W48651   5.866  30.772  11.057
83425W        W48652   5.435  21.721   2.134
83426W        W48653  11.335  11.844   4.137
83427W        W48654   0.989  12.204   1.399
83428W        W48655  21.555   4.183  13.487
83429W        W48656  39.522  29.256  11.087
83430W        W48657  27.885  44.398   0.368
83431W        W48658   9.167   1.992  11.498
83432W        W48659   6.677  27.946  12.047
83433W        W48660  39.444  41.946   2.251
83434W        W48661  28.903  30.515   3.802
83435W        W48662  34.092  36.489   4.578
83436W        W48663   6.101  43.743  10.479
83437W        W48664  33.592  21.345  13.523
83438W        W48665  39.415  30.136   2.607
83439W        W48666  37.459  41.292   3.194
83440W        W48667  16.684  28.927   2.214
83441W        W48668  15.848  33.613   0.238
83442W        W48669  40.069  41.305  12.653
83443W        W48670  28.894  32.082  11.409
83444W        W48671  24.978  43.286   4.967
83445W        W48672  23.416   4.491  10.831
83446W        W48673  31.797  32.043   5.221
83447W        W48674  23.276  32.419  13.965
83448W        W48675  27.123  10.595  11.162
83449W        W48676  18.061   0.329   3.113
83450W        W48677  17.725  30.616   3.368
83451W        W48678  43.519  42.275  10.674
83452W        W48679  39.051   4.458   1.898
83453W        W48680  43.961  39.842  13.002
83454W        W48681  38.444   2.888   1.209
83455W        W48682   5.383  40.813  14.327
83456W        W48683  28.249  23.217  14.771
83457W        W48684   6.249   9.979   1.765
83458W        W48685  39.783  44.845   2.795
83459W        W48686   7.504  27.160   1.339
83460W        W48687  30.923  20.827  10.443
83461W        W48688  21.860  42.413   2.406
83462W        W48689   7.292  35.596  13.920
83463W        W48690  35.333  21.152  11.032
83464W        W48691  43.453  35.306  14.241
83465W        W48692  24.321  35.904  14.528
83466W        W48693  14.797  19.977  12.878
83467W        W48694  32.187  24.049   4.628
83468W        W48695   4.638   3.318   3.269
83469W        W48696   7.174   2.374  11.961
83470W        W48697  40.511  25.747  12.570
83471W        W48698   1.287  26.997  13.334
83472W        W48699  43.330  15.282   2.365
83473W        W48700  13.356  41.324   1.936
83474W        W48701  13.192  34.459   2.401
83475W        W48702  28.124  11.783  14.050
83476W        W48703  16.207  29.374  12.926
83477W        W48704  43.586   7.271  13.582
83478W        W48705   3.656   1.292   1.730
83479W        W48706  22.696  34.624   1.928
83480W        W48707  18.140  36.642   0.296
83481W        W48708  23.177  15.962  14.802
83482W        W48709   0.644  26.176  12.295
83483W        W48710  32.730   9.797   0.015
83484W        W48711  19.279  40.314   3.513
83485W        W48712   9.261   7.166   0.515
83486W        W48713  18.182  38.098   2.267
83487W        W48714  34.165  20.730   3.078
83488W        W48715  17.776   1.109   1.797
83489W        W48716  27.929  26.147  10.371
83490W        W48717  35.999  35.107   3.146
83491W        W48718   3.322  22.725  13.791
83492W        W48719  23.211  32.869   3.320
83493W        W48720  18.619  30.346  13.252
83494W        W48721  12.555   0.098   0.373
83495W        W48722  18.377  31.448   0.786
83496W        W48723  29.379  29.499   3.845
83497W        W48724   1.953  28.183  10.554
83498W        W48725   8.669  14.679  14.242
83499W        W48726  18.174  41.554   2.000
83500W        W48727  27.653  44.977   0.422
83501W        W48728  33.086   5.857   2.568
83502W        W48729  17.331  29.698   4.254
83503W        W48730  23.724   4.092   2.217
83504W        W48731   2.373  31.623  14.986
83505W        W48732   3.791  11.563  10.732
83506W        W48733  30.006   0.503  10.582
83507W        W48734  12.383  15.787  12.881
83508W        W48735   9.120  11.535   1.276
83509W        W48736  10.095   0.177   4.586
83510W        W48737   6.378  20.240  14.682
83511W        W48738  19.566  16.359  10.701
83512W        W48739  30.103   2.757  12.642
83513W        W48740  25.748   0.525  12.038
83514W        W48741  30.565  41.087   4.501
83515W        W48742  25.676  37.355  11.536
83516W        W48743  36.446  41.232   2.678
83517W        W48744   2.001  11.882  11.659
83518W        W48745  16.329  22.527  13.855
83519W        W48746  27.516   7.681  14.259
83520W        W48747  27.581  10.212   1.239
83521W        W48748  19.301  25.903  11.526
83522W        W48749   3.327  39.312  13.962
83523W        W48750  38.093   4.108   2.674
83524W        W48751  37.575   7.468  13.379
83525W        W48752  42.403  14.709  12.480
83526W        W48753  25.917  11.587   5.020
83527W        W48754  39.541   0.014   1.811
83528W        W48755  13.711  35.998  14.789
83529W        W48756  44.448  17.842   2.073
83530W        W48757  29.268  21.474   2.247
83531W        W48758  10.555  43.273  13.731
83532W        W48759  30.893  35.427  13.777
83533W        W48760  39.017   9.361  10.759
83534W        W48761  15.560  37.003   0.373
83535W        W48762  24.723   0.671  13.542
83536W        W48763  26.970  10.390   2.241
83537W        W48764  12.748  27.247  11.109
83538W        W48765  22.694   5.679  14.698
83539W        W48766  23.924  38.097   0.870
83540W        W48767  21.965  43.390  10.675
83541W        W48768  26.462  23.976  13.377
83542W        W48769  19.790  32.473  14.879
83543W        W48770   5.349  36.491  12.626
83544W        W48771   1.296   2.816  13.433
83545W        W48772  23.083   8.137  11.528
83546W        W48773  11.407  20.306  12.020
83547W        W48774  18.551  43.855   4.176
83548W        W48775  20.141  23.145  12.988
83549W        W48776  40.848   4.484   4.572
83550W        W48777  43.915  43.031  10.927
83551W        W48778  28.482  28.546  12.300
83552W        W48779  15.732   3.346   2.306
83553W        W48780  28.107  39.807   3.666
83554W        W48781  42.336  28.528   2.102
83555W        W48782   7.365  41.520   3.578
83556W        W48783  25.665   6.260   3.262
83557W        W48784  21.226  16.748   3.674
83558W        W48785  36.985  20.040   1.600
83559W        W48786  30.222  32.568   2.567
83560W        W48787   4.672   5.564  14.410
83561W        W48788  37.073  30.647   3.751
83562W        W48789  21.251  44.940   3.728
83563W        W48790  37.876  43.037   2.785
83564W        W48791  17.920  24.059   3.974
83565W        W48792   5.447  14.391   0.292
83566W        W48793  11.517  28.602   2.754
83567W        W48794  26.836  18.292   2.002
83568W        W48795  13.046  31.587  14.013
83569W        W48796  10.185   3.788  10.692
83570W        W48797  32.044  27.750   2.659
83571W        W48798  17.376  13.202   2.238
83572W        W48799   6.236  16.761  11.375
83573W        W48800  16.436  28.950   1.354
83574W        W48801  39.122   7.649   4.183
83575W        W48802  43.774  38.435   0.388
83576W        W48803  33.560  28.031  10.521
83577W        W48804  13.171  39.606   2.294
83578W        W48805  24.718  38.832  14.336
83579W        W48806  25.567  36.486   0.355
83580W        W48807  35.268  29.148   4.560
83581W        W48808  35.009  27.193   2.110
83582W        W48809  10.405  27.943  13.555
83583W        W48810   1.915  12.074  13.660
83584W        W48811   5.335  26.778   1.197
83585W        W48812  28.352  37.677   1.002
83586W        W48813   0.703  17.759   2.928
83587W        W48814   4.872  17.758  10.724
83588W        W48815  28.058  14.751  14.281
83589W        W48816  12.883  14.440   4.330
83590W        W48817  36.361  31.351  13.150
83591W        W48818  33.658  26.785   3.610
83592W        W48819   9.335   9.276   2.693
83593W        W48820  12.919  40.929  11.121
83594W        W48821  14.578   7.215   3.236
83595W        W48822  19.253  34.159   3.580
83596W        W48823  11.890  27.141  14.278
83597W        W48824  16.707  39.931   1.995
83598W        W48825  40.303  14.351   3.341
83599W        W48826  40.047  41.580   0.841
83600W        W48827   7.747  36.750   2.868
83601W        W48828   5.367  43.763   4.713
83602W        W48829  23.280  10.083  14.731
83603W        W48830  29.929  21.554   0.773
83604W        W48831  27.601  37.831   1.914
83605W        W48832   0.278  24.258   3.176
83606W        W48833  43.057   4.452  14.556
83607W        W48834  29.901  10.869  12.560
83608W        W48835  16.383   1.852  14.235
83609W        W48836  31.090  32.081   5.009
83610W        W48837  43.357  11.852   3.690
83611W        W48838  23.149  37.162   3.297
83612W        W48839  39.796  14.990  12.470
83613W        W48840   0.876  31.334   4.658
83614W        W48841  37.926   3.463  14.081
83615W        W48842  21.592  21.771  10.028
83616W        W48843  35.390  31.438  14.961
83617W        W48844   7.145  31.542  11.995
83618W        W48845  15.145   4.749   1.190
83619W        W48846   9.612   5.574  14.285
83620W        W48847   2.565  39.617  14.411
83621W        W48848  26.548  32.978  11.212
83622W        W48849  11.341  22.040  14.096
83623W        W48850  12.896  14.564  11.210
83624W        W48851   5.570  22.337   3.516
83625W        W48852  18.970  42.746  10.743
83626W        W48853  42.065  20.043  14.413
83627W        W48854  41.665  14.748   3.876
83628W        W48855  42.598   1.414  11.583
83629W        W48856  29.143  32.435  13.963
83630W        W48857  33.755  14.428  11.901
83631W        W48858  42.543   0.650  11.148
83632W        W48859  22.141  33.910   3.604
83633W        W48860  33.939  23.979   5.082
83634W        W48861  41.810  35.605   2.363
83635W        W48862  17.533   1.373  11.185
83636W        W48863  31.639  32.377  13.365
83637W        W48864  25.876  34.276   1.247
83638W        W48865  19.220  16.987   2.242
83639W        W48866  14.847  36.792   0.047
83640W        W48867  27.238  31.857   3.379
83641W        W48868  26.203  41.803   1.647
83642W        W48869  28.398  11.357   3.242
83643W        W48870  33.153  22.692   2.767
83644W        W48871   1.469  24.276   1.400
83645W        W48872   7.151   2.827   1.634
83646W        W48873  16.468  38.540   2.745
83647W        W48874  42.940  26.984  10.006
83648W        W48875  16.180  12.395  13.907
83649W        W48876  31.901  33.919   1.675
83650W        W48877   9.264  32.724  14.766
83651W        W48878  30.417  17.670  12.613
83652W        W48879   0.997  25.865   9.720
83653W        W48880  30.511   2.902  11.430
83654W        W48881  43.098   7.092   1.789
83655W        W48882  22.847  26.052  12.930
83656W        W48883  42.982  32.624  14.240
83657W        W48884  29.033  39.406  13.895
83658W        W48885  21.217  29.782   3.868
83659W        W48886  32.676  44.965  14.842
83660W        W48887  15.640  23.333  11.657
83661W        W48888  44.991  19.144  13.438
83662W        W48889  21.742  32.985  12.216
83663W        W48890  12.830  36.505   4.016
83664W        W48891  44.981  36.476  10.846
83665W        W48892  16.589  20.533   3.324
83666W        W48893  44.518  11.536  14.477
83667W        W48894   4.269  12.805  13.432
83668W        W48895  43.900  11.673   4.665
83669W        W48896   4.960  43.024  14.620
83670W        W48897  21.449   5.817   9.895
83671W        W48898   0.215   5.784   2.810
83672W        W48899  26.052  35.732  13.415
83673W        W48900  11.852  17.709   4.899
83674W        W48901  33.927  39.650  11.486
83675W        W48902  13.008  17.074   4.633
83676W        W48903  41.127  14.386   2.642
83677W        W48904  15.641  18.778  11.785
83678W        W48905  41.997  13.409   2.228
83679W        W48906  41.324  22.169  11.819
83680W        W48907  38.272  26.708  13.785
83681W        W48908  11.738  12.265   0.725
83682W        W48909  37.464   7.423  12.871
83683W        W48910   0.893   4.212   1.669
83684W        W48911   7.933  31.369  12.111
83685W        W48912   4.855  16.341  10.724
83686W        W48913  28.611  36.313   3.240
83687W        W48914  23.283  30.147  12.133
83688W        W48915  35.950  21.451  13.109
83689W        W48916   8.294  32.850   3.089
83690W        W48917  18.763  10.442   2.461
83691W        W48918  10.316  13.687  14.907
83692W        W48919  10.332  40.384   1.200
83693W        W48920  36.125  24.056   1.992
83694W        W48921  40.444   6.296  13.772
83695W        W48922  43.429  13.627  12.408
83696W        W48923  26.053   8.800  14.504
83697W        W48924  37.577  39.318  14.509
83698W        W48925  40.401  33.858  13.391
83699W        W48926  16.206   2.272   2.020
83700W        W48927  13.132   1.498  14.290
83701W        W48928  14.127  17.330  11.659
83702W        W48929  43.429  29.006  10.519
83703W        W48930  32.591  34.323   3.111
83704W        W48931  19.176  27.648   2.321
83705W        W48932  40.436  27.171   2.258
83706W        W48933  25.721  40.469   0.420
83707W        W48934  42.456  42.906   1.119
83708W        W48935  13.411  16.005  13.375
83709W        W48936  27.960  35.832   2.731
83710W        W48937   2.665  27.256  11.965
83711W        W48938   3.317  24.971  12.555
83712W        W48939  40.473  41.183  11.559
83713W        W48940  44.220  20.780  10.660
83714W        W48941   1.742  22.926   3.049
83715W        W48942   2.352   7.611  13.488
83716W        W48943  24.356  24.284  12.927
83717W        W48944  13.308  28.685  11.945
83718W        W48945   9.463   6.601  14.379
83719W        W48946   5.929   8.402   2.304
83720W        W48947  20.708  19.079  13.908
83721W        W48948   6.264  23.042   3.404
83722W        W48949   0.417  44.273   3.135
83723W        W48950  43.022  29.001   0.265
83724W        W48951  31.340  30.733   0.733
83725W        W48952   8.346  13.842  13.511
83726W        W48953   1.328  14.905  14.470
83727W        W48954   7.487  16.575   3.248
83728W        W48955  37.581  11.366  13.459
83729W        W48956   2.832  13.961   3.594
83730W        W48957  39.169  17.876  11.366
83731W        W48958  35.046  13.799  11.661
83732W        W48959  35.101  15.038  12.123
83733W        W48960  42.352  31.706  11.578
83734W        W48961  15.174   3.193  11.483
83735W        W48962  28.549  36.427  13.146
83736W        W48963  25.576  37.549   3.409
83737W        W48964  28.913  31.057  14.428
83738W        W48965   3.014  14.173  11.176
83739W        W48966   1.151  39.964  11.849
83740W        W48967   6.874  43.772   2.753
83741W        W48968  41.576   6.846   1.704
83742W        W48969  12.888  25.527   4.147
83743W        W48970  32.349  44.375  11.014
83744W        W48971  39.412   9.209  10.447
83745W        W48972  39.826  42.060   2.599
83746W        W48973   7.859  28.174   4.491
83747W        W48974  15.563  32.887  12.592
83748W        W48975  21.562  17.257   1.593
83749W        W48976   3.916   6.745   4.151
83750W        W48977  26.535  34.572  12.598
83751W        W48978   5.630   9.365  13.033
83752W        W48979  20.298  44.803   1.359
83753W        W48980  21.161   4.428  10.615
83754W        W48981   2.853  25.219  12.273
83755W        W48982  25.655  18.036   2.277
83756W        W48983  22.995  38.914  13.616
83757W        W48984  18.210  15.256  13.578
83758W        W48985  38.038  18.190   2.242
83759W        W48986  11.645  43.264  10.278
83760W        W48987   6.790  33.128  11.898
83761W        W48988  29.333  13.159   0.879
83762W        W48989   7.864  20.655  10.933
83763W        W48990  40.516  20.722   1.325
83764W        W48991  42.810  13.891   3.095
83765W        W48992  44.828  18.693  14.428
83766W        W48993  35.055  20.250  13.138
83767W        W48994  32.782  17.435   0.923
83768W        W48995  21.259  31.664  11.517
83769W        W48996   7.646  43.897  11.939
83770W        W48997  32.476  32.130  14.309
83771W        W48998   8.660  21.075  10.593
83772W        W48999  25.947  31.600  10.240
83773W        W49000  24.732   2.522   5.146
83774W        W49001   7.214   1.378   3.129
83775W        W49002  27.956  27.632  11.021
83776W        W49003  30.876  27.951  14.081
83777W        W49004   9.765   0.724   0.851
83778W        W49005  19.675  11.723   0.375
83779W        W49006  18.219  36.967  14.263
83780W        W49007  29.606  28.943   1.327
83781W        W49008  34.168  44.542   2.326
83782W        W49009  32.985  43.511   2.443
83783W        W49010  22.662  28.078   4.549
83784W        W49011  42.440   8.760   3.678
83785W        W49012  32.540  25.309   3.436
83786W        W49013  14.131   3.803  12.566
83787W        W49014  40.108  39.898  14.410
83788W        W49015  16.181  38.813  13.928
83789W        W49016  11.745  25.195  10.145
83790W        W49017  41.139  12.880   0.784
83791W        W49018  16.633  28.057   2.708
83792W        W49019  28.635  44.581   1.295
83793W        W49020  16.174   2.474   2.945
83794W        W49021   3.765  44.590   1.422
83795W        W49022  18.985  27.644   0.208
83796W        W49023  10.886  34.430   0.680
83797W        W49024  40.096  23.523  12.897
83798W        W49025   3.451  31.056  12.990
83799W        W49026   4.914  35.869  11.996
83800W        W49027  13.572  40.346   2.824
83801W        W49028  25.101   6.652  14.467
83802W        W49029   5.910   0.901   0.965
83803W        W49030  23.645   8.177  12.992
83804W        W49031  36.134  36.440  10.992
83805W        W49032  35.368  18.627  14.263
83806W        W49033  17.537   6.864  13.217
83807W        W49034   7.958  37.831  14.888
83808W        W49035  28.906  26.089   3.950
83809W        W49036  31.282   1.652   1.868
83810W        W49037  36.833   9.220   4.609
83811W        W49038  30.831   3.461  11.078
83812W        W49039  42.315  23.766   3.315
83813W        W49040   0.489  23.672   0.453
83814W        W49041   0.426  10.644   1.498
83815W        W49042   2.439  24.568   3.383
83816W        W49043  42.831  40.548  14.939
83817W        W49044  21.570   5.214  11.622
83818W        W49045  22.452  20.253  14.838
83819W        W49046  38.011  41.602  12.487
83820W        W49047  36.074  11.698   3.646
83821W        W49048  19.148  43.088  13.447
83822W        W49049  28.392  32.134  11.502
83823W        W49050  40.750  41.407   1.492
83824W        W49051  25.219  34.945   2.324
83825W        W49052  43.014   1.464   2.143
83826W        W49053  39.292   5.851  14.914
83827W        W49054   2.727  37.749   2.699
83828W        W49055  21.679  28.523   2.218
83829W        W49056   1.248  42.057   0.000
83830W        W49057   8.036   2.181  13.034
83831W        W49058  25.636   1.919   0.389
83832W        W49059  25.461  32.243   2.346
83833W        W49060  40.218  11.253   2.703
83834W        W49061  37.404  19.832  13.574
83835W        W49062  36.582  19.266   4.561
83836W        W49063  35.230  43.476   3.208
83837W        W49064  38.155  13.191  12.095
83838W        W49065  13.261  44.463  13.754
83839W        W49066  13.284  40.031   1.209
83840W        W49067  20.043  13.752  12.504
83841W        W49068  11.788  11.618   3.985
83842W        W49069  44.976  29.891   0.300
83843W        W49070  22.342   6.316  14.424
83844W        W49071  14.024  21.206   1.488
83845W        W49072   7.416  28.499  12.435
83846W        W49073  15.674  15.339   0.814
83847W        W49074   8.862  35.528   9.844
83848W        W49075   5.782  22.587  12.926
83849W        W49076  40.942   6.695  13.077
83850W        W49077  30.056  18.189   0.299
83851W        W49078  28.363  27.280   2.217
83852W        W49079   3.758   1.295  10.268
83853W        W49080   7.124  13.100  10.391
83854W        W49081   5.791   6.881  10.362
83855W        W49082  38.778   1.379  11.128
83856W        W49083   7.858  22.207   3.364
83857W        W49084  14.811   3.256  14.342
83858W        W49085  10.121  33.446   3.777
83859W        W49086  43.457  31.270  12.505
83860W        W49087  15.151  23.459  14.421
83861W        W49088   9.165   8.361  11.808
83862W        W49089  13.627  25.151   4.927
83863W        W49090   5.821  40.321  14.940
83864W        W49091  43.940  28.226   1.320
83865W        W49092  20.471  43.391   3.327
83866W        W49093  38.719  14.967   4.888
83867W        W49094  14.175  10.877   1.071
83868W        W49095  18.855   5.715   1.268
83869W        W49096   8.281  11.677  10.607
83870W        W49097  13.634  17.897   4.075
83871W        W49098  13.371  11.660  10.304
83872W        W49099  16.048   7.158  11.111
83873W        W49100  10.318  40.977   4.853
83874W        W49101  16.671  14.292   3.654
83875W        W49102  42.911  28.181   1.313
83876W        W49103  40.415  31.446   1.191
83877W        W49104   1.205  18.172   3.307
83878W        W49105  15.361  13.787  11.530
83879W        W49106  31.768  21.918   0.876
83880W        W49107  26.402  23.292   3.722
83881W        W49108   3.910  36.036  12.929
83882W        W49109  27.450   1.946   4.689
83883W        W49110  40.588  33.087  12.811
83884W        W49111  35.927  17.688   3.226
83885W        W49112   2.928  22.891  11.481
83886W        W49113  12.921  39.379   4.235
83887W        W49114  32.083  19.568  14.197
83888W        W49115  19.726  32.388   1.289
83889W        W49116  13.830  26.920   4.921
83890W        W49117  43.486  26.488  13.499
83891W        W49118   4.466   4.462  13.850
83892W        W49119  19.630   5.198   1.728
83893W        W49120  25.175  43.552   1.254
83894W        W49121  30.841   8.382  13.933
83895W        W49122  36.071   5.438  12.475
83896W        W49123  33.610  17.285  12.967
83897W        W49124  25.518  27.946  11.162
83898W        W49125  15.718  20.945   0.404
83899W        W49126  42.969  39.910   1.988
83900W        W49127  22.931   5.263  14.932
83901W        W49128  20.628   3.312   0.689
83902W        W49129  42.934   0.430   1.496
83903W        W49130   6.581  14.742   0.472
83904W        W49131  26.706   8.184  14.835
83905W        W49132  33.424   1.349  12.178
83906W        W49133  37.115  20.186  14.476
83907W        W49134  14.758   8.270  13.277
83908W        W49135   9.613   8.799  10.591
83909W        W49136  42.502  36.534   3.450
83910W        W49137  26.896   5.862   1.402
83911W        W49138  28.056   2.878  13.793
83912W        W49139  29.388  21.705  14.912
83913W        W49140  32.090  14.869   4.508
83914W        W49141  20.457  18.102  14.184
83915W        W49142  30.961  21.528  13.495
83916W        W49143   1.354  24.522  10.402
83917W        W49144  28.664  14.557   0.766
83918W        W49145  25.570  33.700  10.513
83919W        W49146  12.496  17.647   2.376
83920W        W49147  28.205  42.602  11.161
83921W        W49148  33.889   8.873  10.040
83922W        W49149  30.331  31.429  12.838
83923W        W49150  37.123   8.722  14.280
83924W        W49151  32.056  29.752  14.359
83925W        W49152   4.936   7.875   1.227
83926W        W49153  29.080   5.339  13.940
83927W        W49154  44.119  35.514  13.983
83928W        W49155  28.418  15.196   1.245
83929W        W49156  17.025  41.402  14.810
83930W        W49157   6.159  41.827   0.831
83931W        W49158  40.032   9.768  12.475
83932W        W49159  11.421   2.165   2.306
83933W        W49160   9.671   4.860   0.914
83934W        W49161  40.309  19.311   4.299
83935W        W49162  14.109  35.894   4.214
83936W        W49163  34.487  23.018   2.621
83937W        W49164  13.879  39.824   2.033
83938W        W49165   1.057  15.934   2.817
83939W        W49166  33.114  16.789   4.768
83940W        W49167  34.042  26.178  11.588
83941W        W49168  19.777  25.661  11.439
83942W        W49169  20.285  44.335   1.813
83943W        W49170   7.491   0.665  11.547
83944W        W49171   4.428  18.206   2.013
83945W        W49172  19.587  17.142   0.292
83946W        W49173  10.172  27.584   3.730
83947W        W49174  16.274  10.222  10.981
83948W        W49175  41.070  21.336  12.572
83949W        W49176  31.615  10.585   3.732
83950W        W49177  37.087  41.801   0.403
83951W        W49178   1.986  41.052   3.656
83952W        W49179  42.462  30.732   2.948
83953W        W49180  16.779   3.311   3.686
83954W        W49181  40.944   8.421   3.233
83955W        W49182   2.885  23.619   0.782
83956W        W49183  33.479  19.468   1.964
83957W        W49184  44.418  17.730  14.451
83958W        W49185  29.475  21.443  10.828
83959W        W49186   0.239  15.449   3.630
83960W        W49187  26.969  21.603   3.358
83961W        W49188   9.478  13.395   4.513
83962W        W49189  38.374  28.699   0.968
83963W        W49190   7.254  10.244  12.832
83964W        W49191  39.926  14.284  12.914
83965W        W49192  35.436  40.240   1.620
83966W        W49193  10.253  30.678   3.762
83967W        W49194  28.582  26.456   0.849
83968W        W49195  43.336   3.964  10.641
83969W        W49196   7.885  15.584   0.330
83970W        W49197  20.364  33.590  13.565
83971W        W49198  10.928  34.030  10.626
83972W        W49199  14.577  27.121  14.536
83973W        W49200  38.424  19.189  10.908
83974W        W49201  33.174  19.200   1.076
83975W        W49202  12.045  30.037  10.930
83976W        W49203  32.592  25.520   1.930
83977W        W49204  41.075  43.067   5.009
83978W        W49205  36.560  34.882  12.130
83979W        W49206  40.337  40.980  11.112
83980W        W49207  25.424  15.916   2.887
83981W        W49208   2.010  12.844  11.569
83982W        W49209  31.076  38.894  12.929
83983W        W49210  38.152  14.389   5.139
83984W        W49211  23.211   6.448   4.925
83985W        W49212  30.049  44.358  11.847
83986W        W49213  42.002  39.239  10.497
83987W        W49214  15.861   1.407   2.256
83988W        W49215  35.765  21.506   2.314
83989W        W49216  35.025   6.241   2.832
83990W        W49217  18.679  20.044  12.619
83991W        W49218  42.481  29.540   4.568
83992W        W49219  37.951  43.474   0.975
83993W        W49220   6.113  20.255   1.292
83994W        W49221  43.549  35.449   4.175
83995W        W49222  24.710  34.351  12.856
83996W        W49223   6.407  13.676  11.544
83997W        W49224   7.209   2.698   4.708
83998W        W49225  26.647  38.383   1.435
83999W        W49226  44.569  28.115  13.487
84000W        W49227  36.926   2.953  14.811
84001W        W49228  36.849  29.297  12.627
84002W        W49229  44.495  40.717  10.730
84003W        W49230  17.026   9.888   9.918
84004W        W49231   4.384  32.919  14.924
84005W        W49232  22.307  40.349  14.969
84006W        W49233  41.061   6.982   4.498
84007W        W49234  40.878   3.984   0.781
84008W        W49235  10.330  23.766   1.317
84009W        W49236  37.388  21.057   3.619
84010W        W49237  40.476  38.289  13.469
84011W        W49238  12.680   4.938  14.793
84012W        W49239  15.553   2.369   3.230
84013W        W49240  36.332   1.899  10.753
84014W        W49241  11.775   0.716  13.470
84015W        W49242  14.947  12.317   2.790
84016W        W49243  15.544  43.929   1.919
84017W        W49244  20.587  42.071   2.737
84018W        W49245  24.039   7.640   3.634
84019W        W49246  16.029   3.894   1.303
84020W        W49247  39.709  33.405   1.235
84021W        W49248  35.518  42.137  13.874
84022W        W49249   3.015  22.216   4.557
84023W        W49250  10.914   7.722  14.889
84024W        W49251   0.889  42.845   3.043
84025W        W49252  23.676  13.211   4.190
84026W        W49253  17.134  17.764   0.506
84027W        W49254  27.528  13.666  12.612
84028W        W49255  15.167  32.042   5.315
84029W        W49256  24.503  28.038   3.259
84030W        W49257  13.548  16.664  11.572
84031W        W49258  38.754  16.319   4.635
84032W        W49259  21.218  21.002  14.806
84033W        W49260   0.486   6.729  14.619
84034W        W49261   6.414  30.853   2.368
84035W        W49262  12.062   3.262   1.980
84036W        W49263  34.958  26.931   1.278
84037W        W49264  44.907  19.075  14.955
84038W        W49265  20.658  25.927  13.551
84039W        W49266  44.600  33.495  14.722
84040W        W49267  14.586  13.313  11.858
84041W        W49268  17.785  34.162  11.718
84042W        W49269  22.261  30.391  14.050
84043W        W49270  43.861   1.222   2.227
84044W        W49271  36.499  17.861   2.906
84045W        W49272  33.880  21.654  12.950
84046W        W49273  19.630   9.781  13.868
84047W        W49274   3.958   6.212  13.831
84048W        W49275  42.224   8.634   3.194
84049W        W49276   8.006   8.622   5.041
84050W        W49277  24.717  17.244   2.768
84051W        W49278  18.698  27.126   0.817
84052W        W49279  33.908  31.959   1.769
84053W        W49280  20.925  21.717   4.300
84054W        W49281  42.300  31.898  10.766
84055W        W49282   2.428  17.712  11.940
84056W        W49283  10.765  32.387   2.736
84057W        W49284  28.080   0.333   3.770
84058W        W49285  24.707  33.270  12.507
84059W        W49286  42.603  18.037   2.837
84060W        W49287  40.660  18.606   3.816
84061W        W49288   2.265  31.488  12.509
84062W        W49289   5.021   5.839  12.968
84063W        W49290   0.009  38.708   0.246
84064W        W49291  43.295  31.505  14.945
84065W        W49292  40.975  22.626  10.631
84066W        W49293  30.399   0.301   0.621
84067W        W49294  16.359  24.058  11.631
84068W        W49295   0.381  34.853  14.603
84069W        W49296  44.260   4.940  14.726
84070W        W49297  16.166  35.359  13.183
84071W        W49298   3.255  29.990  13.770
84072W        W49299  35.609  15.067  11.233
84073W        W49300  27.607  25.240  14.840
84074W        W49301   8.220  13.334   3.757
84075W        W49302   5.179   7.586   4.038
84076W        W49303  40.221  44.784  12.969
84077W        W49304  27.758  43.018  13.828
84078W        W49305  30.603   4.708   4.161
84079W        W49306   9.774  32.387   3.195
84080W        W49307  36.608  37.387   0.480
84081W        W49308  41.426  14.866   3.352
84082W        W49309  10.666  24.489   2.462
84083W        W49310  40.948  11.556  11.153
84084W        W49311  30.451  39.128  13.620
84085W        W49312  31.896   4.465   3.351
84086W        W49313  28.731  14.422  13.429
84087W        W49314  42.253  11.351   1.636
84088W        W49315  20.248  17.287   1.105
84089W        W49316   8.223  13.639  12.993
84090W        W49317  26.303   0.585   5.183
84091W        W49318  24.978  23.471   3.679
84092W        W49319  37.730  25.046   0.363
84093W        W49320   9.661  28.485   1.343
84094W        W49321  26.526  15.778  13.128
84095W        W49322  41.468  16.039   1.872
84096W        W49323   6.207  25.914  11.405
84097W        W49324  34.741  29.001   9.901
84098W        W49325  13.648  38.026  11.253
84099W        W49326  42.284   2.919   3.135
84100W        W49327  22.910  35.946  14.972
84101W        W49328  41.400  31.895   1.728
84102W        W49329  11.162  40.362   0.890
84103W        W49330  35.898  16.805   1.791
84104W        W49331   6.918  30.608  13.924
84105W        W49332  18.826  29.106  12.722
84106W        W49333  29.465  41.506  10.694
84107W        W49334  44.410  31.086  11.556
84108W        W49335  40.024  10.614  12.070
84109W        W49336   1.292   2.361   3.783
84110W        W49337  40.530  25.442  10.393
84111W        W49338   0.245  27.706   3.471
84112W        W49339  32.624  31.688  10.284
84113W        W49340  41.104  21.489   0.413
84114W        W49341   1.311  25.107  13.051
84115W        W49342  19.651  37.810   0.883
84116W        W49343  11.699  16.841  14.514
84117W        W49344  25.419  28.942  12.078
84118W        W49345  42.471   3.310   2.021
84119W        W49346  18.537  15.335   0.995
84120W        W49347  19.229  32.784  11.607
84121W        W49348   3.805  37.556   2.801
84122W        W49349  24.763  36.168  14.832
84123W        W49350  34.995   6.682  14.376
84124W        W49351  23.016   4.250  12.553
84125W        W49352   1.760  22.359  12.605
84126W        W49353  37.563  31.878  10.588
84127W        W49354  12.683  33.901  13.448
84128W        W49355  17.401  38.609  13.579
84129W        W49356  17.238  23.033   3.625
84130W        W49357  28.075  38.428   2.107
84131W        W49358   2.629   8.347   3.255
84132W        W49359  21.466  42.520  11.481
84133W        W49360  13.483  23.626  10.455
84134W        W49361   8.384  32.433  13.028
84135W        W49362  15.905  20.655   1.921
84136W        W49363   3.870  44.457  14.029
84137W        W49364  35.461  10.453   2.175
84138W        W49365  23.221  44.760  12.760
84139W        W49366  34.545  33.554  12.080
84140W        W49367  30.161   5.281  13.920
84141W        W49368   6.794  16.393   4.983
84142W        W49369  40.811  37.911  12.938
84143W        W49370  34.307  30.000   2.115
84144W        W49371  21.034  16.516  11.183
84145W        W49372  40.804  10.388  10.798
84146W        W49373   8.688   5.832   0.856
84147W        W49374   9.640  26.516   3.700
84148W        W49375  31.426  18.507  11.197
84149W        W49376   9.377  35.089  11.824
84150W        W49377  42.284  24.211  12.350
84151W        W49378  19.223   9.418   0.084
84152W        W49379  38.909  14.417  14.902
84153W        W49380  15.235  37.367   4.215
84154W        W49381  10.430  34.590   3.208
84155W        W49382  12.865  20.981  10.032
84156W        W49383  28.185  41.802  10.779
84157W        W49384  29.970  21.997   2.297
84158W        W49385  34.408  13.212  11.946
84159W        W49386   3.869  44.282  12.157
84160W        W49387   1.721  43.701  13.232
84161W        W49388   7.069  15.390  13.653
84162W        W49389  30.257  43.584  11.156
84163W        W49390   4.423  25.904  14.978
84164W        W49391  34.043  17.029  11.399
84165W        W49392  20.270  30.596   1.224
84166W        W49393   2.932  27.026   0.913
84167W        W49394  14.790  36.304  11.173
84168W        W49395   5.423  17.232  11.661
84169W        W49396  34.363  24.618  12.497
84170W        W49397  19.328  36.701   2.183
84171W        W49398  37.978  37.355  13.853
84172W        W49399   9.026  39.680  11.666
84173W        W49400  20.782  28.039  12.937
84174W        W49401  28.264  30.004   1.267
84175W        W49402  11.199  23.770   1.347
84176W        W49403  11.430  14.656  13.523
84177W        W49404   5.307  34.863   4.426
84178W        W49405  19.560  14.337   0.691
84179W        W49406  22.007   4.806   3.259
84180W        W49407  38.374  17.006  12.865
84181W        W49408  20.613  29.541   0.256
84182W        W49409  34.850  12.210   4.444
84183W        W49410   3.825  18.619  10.964
84184W        W49411  11.360   7.554  12.148
84185W        W49412  22.686  31.938  12.434
84186W        W49413  43.992  22.114   5.059
84187W        W49414   9.193  34.633  11.950
84188W        W49415   3.747  15.203  13.320
84189W        W49416  42.744   8.302   1.420
84190W        W49417   6.280  44.574   2.288
84191W        W49418  30.415  35.899   1.243
84192W        W49419  19.486  18.551   1.428
84193W        W49420  23.286  42.132  13.712
84194W        W49421  10.927  42.264  12.610
84195W        W49422  11.699  41.865  11.515
84196W        W49423  12.842  11.311  11.929
84197W        W49424  29.676  12.192   0.778
84198W        W49425  17.129  13.047   0.070
84199W        W49426  38.725  33.657   3.125
84200W        W49427  28.991  16.598   1.493
84201W        W49428  15.539  42.548   0.768
84202W        W49429  14.243   2.282  13.408
84203W        W49430  33.330  19.722  12.072
84204W        W49431   7.896   5.300   1.334
84205W        W49432  25.217  31.101  11.774
84206W        W49433  16.316  10.668   1.933
84207W        W49434  35.555  41.989  11.208
84208W        W49435  14.716   6.280  14.949
84209W        W49436   3.330  39.606   1.792
84210W        W49437  26.324  44.923   1.414
84211W        W49438  39.308  43.303   1.877
84212W        W49439  37.674  28.998  13.870
84213W        W49440  25.741   6.479  11.573
84214W        W49441  11.176  21.432   1.976
84215W        W49442  20.198  34.788  12.905
84216W        W49443  26.520  26.702  14.646
84217W        W49444  33.349   3.750   0.826
84218W        W49445  26.569  10.018   2.714
84219W        W49446  42.248  31.137   2.254
84220W        W49447  12.068  36.235   4.164
84221W        W49448  23.045   4.740  14.928
84222W        W49449  24.700  29.625   4.651
84223W        W49450  38.059   1.214  14.508
84224W        W49451  33.107  12.483   5.040
84225W        W49452  27.022  21.709   2.292
84226W        W49453  28.978   2.047  11.667
84227W        W49454  36.065  14.411  14.462
84228W        W49455  42.152  18.910   4.920
84229W        W49456  11.640  26.465   5.303
84230W        W49457  35.487  27.668   0.474
84231W        W49458   9.897  31.557  11.007
84232W        W49459   0.346  20.217   2.747
84233W        W49460   2.411  40.321  12.950
84234W        W49461  10.580   5.800   2.320
84235W        W49462  22.629   7.709  14.902
84236W        W49463  42.360  13.141  14.814
84237W        W49464  43.554  40.315   1.181
84238W        W49465   2.324   9.210  11.322
84239W        W49466  12.219  13.567   0.919
84240W        W49467  38.011  14.208  10.613
84241W        W49468  39.704  13.822   0.892
84242W        W49469   5.176  32.992  13.531
84243W        W49470  33.147  24.293   3.701
84244W        W49471  41.172   7.907   4.093
84245W        W49472  13.777   4.185   3.683
84246W        W49473  18.092  42.931  12.470
84247W        W49474  38.892  34.862  12.484
84248W        W49475  17.585   7.379   4.094
84249W        W49476   4.675  41.002  12.921
84250W        W49477  39.836   1.876  10.429
84251W        W49478  27.595  28.035   2.863
84252W        W49479  15.169  27.657   3.797
84253W        W49480   4.779  38.516   4.535
84254W        W49481  38.396   2.766   5.098
84255W        W49482  36.452  26.964   1.844
84256W        W49483  16.284  38.165  12.969
84257W        W49484  36.109  30.529   1.533
84258W        W49485   8.898  12.977  10.378
84259W        W49486  33.722  19.413   4.024
84260W        W49487  11.880  42.805  11.881
84261W        W49488  11.141   5.798  12.981
84262W        W49489  27.451  12.350  14.023
84263W        W49490  21.013  15.324   1.299
84264W        W49491  13.161  43.852   4.462
84265W        W49492  43.594   7.826   2.880
84266W        W49493  21.534   0.978  12.890
84267W        W49494  29.531  18.271   2.742
84268W        W49495  26.413  15.416   0.772
84269W        W49496  18.326  20.337   2.002
84270W        W49497  13.119  16.648   0.069
84271W        W49498  32.778  40.410   0.458
84272W        W49499  25.633   2.848  12.483
84273W        W49500  15.565  34.878   3.384
84274W        W49501   7.463  14.293  12.115
84275W        W49502  17.206   5.387   1.034
84276W        W49503  29.968  13.670   1.335
84277W        W49504  17.357  21.520  12.528
84278W        W49505  41.518  10.368   1.878
84279W        W49506  19.715  34.580  14.246
84280W        W49507  31.235  14.623  11.078
84281W        W49508  20.919   9.255   4.919
84282W        W49509  15.731   3.198   3.571
84283W        W49510  44.100  24.484  13.929
84284W        W49511   2.389  33.088   3.904
84285W        W49512  10.980  30.615  14.522
84286W        W49513   4.813  16.092  13.962
84287W        W49514  39.424  26.459  14.428
84288W        W49515  42.991  38.310  10.676
84289W        W49516  44.010   6.830  10.637
84290W        W49517   5.112   3.956  12.879
84291W        W49518   3.916   0.106   1.377
84292W        W49519  38.017  15.474  12.466
84293W        W49520  21.534   3.838   0.861
84294W        W49521  31.425  11.249  11.597
84295W        W49522  30.202  32.107   0.597
84296W        W49523   4.523  38.618  14.131
84297W        W49524  28.301   3.907   0.244
84298W        W49525  37.978  34.080  12.673
84299W        W49526  15.307  25.758  12.558
84300W        W49527  33.707  35.917   2.603
84301W        W49528   9.840  21.998   0.026
84302W        W49529  22.110   9.364  12.999
84303W        W49530  12.148  14.082  13.411
84304W        W49531  16.621  43.213   1.931
84305W        W49532  27.676   1.770  13.531
84306W        W49533  34.980   7.760  12.023
84307W        W49534   1.273  10.201   4.243
84308W        W49535   6.820  38.912  13.639
84309W        W49536  34.911   4.189  11.184
84310W        W49537  28.090  13.900  13.132
84311W        W49538  39.928   4.094  13.905
84312W        W49539  40.380  16.191  10.523
84313W        W49540  30.855  43.367   0.430
84314W        W49541  10.016  12.839  12.211
84315W        W49542  39.551  34.416  13.415
84316W        W49543  37.226  14.738   0.436
84317W        W49544   2.524  30.235  10.688
84318W        W49545  38.421  41.799   0.798
84319W        W49546   3.196  27.867  11.914
84320W        W49547   7.633  17.308   3.710
84321W        W49548  29.686   2.036  13.897
84322W        W49549  17.352  36.099   3.766
84323W        W49550  42.803  13.051  12.929
84324W        W49551  36.073   7.192  11.145
84325W        W49552  30.534  18.338  14.019
84326W        W49553  14.364  24.194   0.231
84327W        W49554  40.777   8.512   0.947
84328W        W49555   8.948  18.827   4.555
84329W        W49556  11.194  43.548  12.933
84330W        W49557  24.695  21.935   1.785
84331W        W49558  21.742  16.054   2.811
84332W        W49559  34.898  30.193  11.365
84333W        W49560  29.096  21.272  14.276
84334W        W49561   1.806  29.568   0.541
84335W        W49562  15.655  15.291  11.108
84336W        W49563  30.994  40.545   1.935
84337W        W49564  29.114   3.719   0.743
84338W        W49565  41.820  13.301  12.919
84339W        W49566  41.013   3.800  13.896
84340W        W49567   0.263  25.453   0.735
84341W        W49568  36.038  34.516  10.767
84342W        W49569  39.409  15.837  12.618
84343W        W49570  29.439  31.516  12.371
84344W        W49571  19.536  39.920   2.691
84345W        W49572  26.497   4.512  10.743
84346W        W49573  24.738  17.296   0.449
84347W        W49574  17.179  18.831  11.605
84348W        W49575  19.709  38.813  12.033
84349W        W49576  18.258  28.558  12.265
84350W        W49577  37.629   3.775   0.328
84351W        W49578  38.004  36.369  12.959
84352W        W49579  37.842   6.350   1.820
84353W        W49580  27.835  43.562   2.440
84354W        W49581   1.029  36.447  11.986
84355W        W49582   8.799  13.716  12.922
84356W        W49583   1.783   1.961   2.440
84357W        W49584  22.536   6.539   0.820
84358W        W49585   3.531  10.956   3.154
84359W        W49586  14.749   9.707   0.296
84360W        W49587  24.764   7.451  14.388
84361W        W49588  44.671   4.342   3.532
84362W        W49589  43.333  31.627   0.469
84363W        W49590  15.141  43.863   0.370
84364W        W49591   7.871   2.701  13.738
84365W        W49592  21.619   1.976  12.027
84366W        W49593  35.054  26.777   1.790
84367W        W49594  14.129   9.635   1.936
84368W        W49595  31.057  27.655  11.688
84369W        W49596  39.817  28.241  10.743
84370W        W49597   8.420  20.934   1.041
84371W        W49598  11.323  31.004   0.922
84372W        W49599  42.277  39.453  13.362
84373W        W49600   0.362  18.543  14.556
84374W        W49601  17.496  19.302   2.745
84375W        W49602  27.313  34.871   1.746
84376W        W49603  29.159   8.405  12.042
84377W        W49604  44.018  18.580   3.549
84378W        W49605   4.247   6.579  13.411
84379W        W49606  27.043  29.529  12.239
84380W        W49607  15.089  23.522  12.955
84381W        W49608  44.401  25.603   4.957
84382W        W49609  43.858  29.842  11.612
84383W        W49610  18.234   0.754  14.514
84384W        W49611  17.006  30.906   2.209
84385W        W49612  28.473  22.925  12.406
84386W        W49613  31.982  25.998  12.756
84387W        W49614   4.217  34.971  14.415
84388W        W49615  33.549  28.761   2.335
84389W        W49616   9.704  33.041  11.677
84390W        W49617  44.414  10.417  11.604
84391W        W49618   5.280  37.824  12.409
84392W        W49619  30.037  27.430  13.906
84393W        W49620  18.128  41.741  12.487
84394W        W49621  27.054  40.453   0.761
84395W        W49622  17.023  36.334  11.618
84396W        W49623  20.740  39.910  13.450
84397W        W49624  23.498  19.181  11.771
84398W        W49625  17.610   0.003  13.044
84399W        W49626  42.893  40.160   4.831
84400W        W49627  18.138  33.648   3.082
84401W        W49628  18.266  19.040  11.984
84402W        W49629  43.099  14.099  12.406
84403W        W49630  34.883   6.087  13.861
84404W        W49631  36.235  43.339   4.801
84405W        W49632   2.762  33.494   2.952
84406W        W49633  10.799  32.593  14.235
84407W        W49634  13.191   7.386   5.098
84408W        W49635  31.152  18.613   4.549
84409W        W49636  31.125  15.790  10.642
84410W        W49637  36.130   8.910  11.567
84411W        W49638  21.037   4.106  13.307
84412W        W49639   8.720  35.880  10.213
84413W        W49640  17.593   4.917  13.412
84414W        W49641  23.726  29.366   1.359
84415W        W49642  10.635  23.234  10.805
84416W        W49643  37.490  37.081   0.992
84417W        W49644  37.825  18.681   0.946
84418W        W49645  31.588  32.989   1.932
84419W        W49646   9.702   9.696  12.622
84420W        W49647  21.752  35.046  11.039
84421W        W49648   7.625  20.880   5.155
84422W        W49649   9.708  36.064  14.359
84423W        W49650  13.184  14.234   3.058
84424W        W49651  42.241  31.391  12.036
84425W        W49652   7.774  24.539  11.612
84426W        W49653  27.120  20.114  12.444
84427W        W49654   0.259  43.800  10.101
84428W        W49655  19.867  42.509   4.081
84429W        W49656  44.695  38.594   1.131
84430W        W49657  42.740  38.995   2.080
84431W        W49658  41.437  10.565  13.905
84432W        W49659  23.653  35.103  14.844
84433W        W49660   2.075  26.733  14.823
84434W        W49661  38.841   2.448  12.880
84435W        W49662  37.033  10.354   2.802
84436W        W49663  40.410   6.144   0.864
84437W        W49664  43.357  23.660   3.176
84438W        W49665  16.854  38.646  12.005
84439W        W49666   9.880  40.075   0.398
84440W        W49667  36.579   5.662  12.005
84441W        W49668  11.692  15.299  14.265
84442W        W49669  30.617  18.771   0.842
84443W        W49670  18.418  42.870   2.694
84444W        W49671  25.255  33.024  10.911
84445W        W49672  23.977  11.330   0.722
84446W        W49673  23.259   1.890   0.393
84447W        W49674   6.715  42.457   1.518
84448W        W49675  17.237  39.021   1.807
84449W        W49676  31.377  39.884  11.624
84450W        W49677   3.199  11.915   3.721
84451W        W49678  40.519   3.951   0.346
84452W        W49679   3.264   7.952   0.197
84453W        W49680   2.642  14.044   0.699
84454W        W49681   9.252  31.950  11.144
84455W        W49682   5.155   3.168  13.587
84456W        W49683   4.227   6.980  13.050
84457W        W49684  26.033  14.618  11.941
84458W        W49685  21.285  12.746  14.611
84459W        W49686  24.528  21.270  11.679
84460W        W49687   8.395   1.051   1.686
84461W        W49688  21.061  37.982   0.943
84462W        W49689  18.639  21.309  12.083
84463W        W49690  14.681  12.645   0.307
84464W        W49691   7.425  24.993   3.871
84465W        W49692  40.708  32.664   1.762
84466W        W49693  31.450  24.018   0.386
84467W        W49694  23.479  44.973  13.194
84468W        W49695  15.218  25.057   4.831
84469W        W49696   3.832  15.390   3.596
84470W        W49697   2.689  10.457  13.352
84471W        W49698  11.326  35.941   1.268
84472W        W49699   6.315  15.491   0.374
84473W        W49700  32.481  36.654   1.536
84474W        W49701   5.856  38.442  12.655
84475W        W49702  43.074  14.719  11.037
84476W        W49703  26.776  17.305  12.506
84477W        W49704  40.168  13.187   2.630
84478W        W49705  11.296  15.206  13.396
84479W        W49706  36.460   2.742   1.220
84480W        W49707  35.076  10.137  11.461
84481W        W49708  27.210  44.560   9.914
84482W        W49709  27.953   1.021  12.153
84483W        W49710  25.237  37.011  13.548
84484W        W49711  39.831   4.442   4.527
84485W        W49712  13.973  12.078   0.518
84486W        W49713   6.082  10.522  12.587
84487W        W49714  36.406   2.882   3.029
84488W        W49715   0.172  23.149   9.860
84489W        W49716  15.479  44.310  10.446
84490W        W49717   6.038  31.576  13.953
84491W        W49718  19.565  33.005  10.701
84492W        W49719  28.818  42.791  14.948
84493W        W49720  41.802  40.883   3.890
84494W        W49721  10.153   9.906   3.071
84495W        W49722   1.353  39.028  14.435
84496W        W49723  10.048  40.940   3.238
84497W        W49724  17.283  12.544   0.021
84498W        W49725  41.453  12.300  11.905
84499W        W49726  27.135  20.560   4.828
84500W        W49727  15.417  29.926  12.008
84501W        W49728  44.484  12.263   2.663
84502W        W49729  36.895   5.909   3.884
84503W        W49730  30.607  25.934  14.892
84504W        W49731   6.916   7.829   3.940
84505W        W49732   3.867   5.360   2.324
84506W        W49733  44.379  43.897   3.925
84507W        W49734  33.183  40.845  14.744
84508W        W49735   6.740  23.238   0.437
84509W        W49736  32.233   5.824  13.238
84510W        W49737  16.558  43.657   0.460
84511W        W49738  11.550  36.140   4.342
84512W        W49739  31.060  30.145  12.103
84513W        W49740  22.673  26.471   0.304
84514W        W49741  18.133  20.669   0.057
84515W        W49742  23.640  37.817   0.055
84516W        W49743  23.017  12.204  12.213
84517W        W49744  32.006  29.565   4.597
84518W        W49745  29.947  40.364   4.528
84519W        W49746  21.599  18.740  14.970
84520W        W49747   0.560  21.266  11.976
84521W        W49748  33.656   9.826  11.864
84522W        W49749  26.989  15.641  10.006
84523W        W49750  25.449  13.671  12.228
84524W        W49751  42.733  19.969   2.662
84525W        W49752  18.834   6.978  11.085
84526W        W49753  21.297  27.747   3.260
84527W        W49754  42.376  28.041  13.000
84528W        W49755   5.416   9.351  14.748
84529W        W49756   9.851  28.373  11.653
84530W        W49757   6.225  15.806  12.443
84531W        W49758  17.318  39.555   1.913
84532W        W49759  39.292  10.430  14.450
84533W        W49760  13.156   3.130   3.377
84534W        W49761   4.422  39.041  13.066
84535W        W49762  11.911  38.557   0.773
84536W        W49763  40.314  13.367  11.013
84537W        W49764  38.346  22.556   3.308
84538W        W49765  16.756   7.375   0.845
84539W        W49766  26.708  29.014  11.635
84540W        W49767  26.701  40.074  12.436
84541W        W49768   6.628  15.158   2.214
84542W        W49769   8.220  16.191   1.930
84543W        W49770   9.470   1.061  14.328
84544W        W49771  17.279  19.362   3.636
84545W        W49772   8.503  28.590   4.740
84546W        W49773  27.201  13.979   0.690
84547W        W49774   0.280  42.332  13.537
84548W        W49775  18.520  33.866  14.295
84549W        W49776   7.361  24.113   3.061
84550W        W49777  17.158  43.249   0.236
84551W        W49778   3.702  20.755  11.501
84552W        W49779  10.220   9.915   0.297
84553W        W49780  44.867  31.022   4.082
84554W        W49781  29.934   3.949  13.041
84555W        W49782  17.333  33.785   0.711
84556W        W49783   6.861   1.358  11.911
84557W        W49784  13.107   8.308  13.282
84558W        W49785  23.579  43.271   3.098
84559W        W49786   3.306  12.363   4.414
84560W        W49787   5.046  24.203  13.942
84561W        W49788  22.529  43.753  13.815
84562W        W49789  23.871  41.824   3.315
84563W        W49790   2.806  44.322   5.006
84564W        W49791  36.475  19.014  11.157
84565W        W49792  39.868  21.931   1.828
84566W        W49793  17.654  34.110   0.468
84567W        W49794  13.787  19.604   0.817
84568W        W49795  24.906  17.132  14.595
84569W        W49796  22.227  29.190  13.003
84570W        W49797  22.801   4.232  13.759
84571W        W49798  20.268  25.964   1.797
84572W        W49799  31.247  12.798  10.250
84573W        W49800  25.646  40.007   2.867
84574W        W49801  44.980  10.678  14.194
84575W        W49802  27.074   7.706   3.856
84576W        W49803   7.862  25.022  13.371
84577W        W49804  21.035   4.750   0.492
84578W        W49805  33.512  11.273  12.469
84579W        W49806  11.055  23.737   4.244
84580W        W49807  31.206  38.874   1.950
84581W        W49808   2.052   2.917  12.896
84582W        W49809   5.152   7.244   3.106
84583W        W49810   8.370  14.409  10.717
84584W        W49811  41.702  19.122   4.746
84585W        W49812  32.960  21.822  13.935
84586W        W49813  25.434  25.177   1.856
84587W        W49814  10.174  23.956  14.847
84588W        W49815   7.148  23.655  10.904
84589W        W49816  17.490  29.772  11.239
84590W        W49817   5.785  38.845   2.386
84591W        W49818  14.991  36.827   1.202
84592W        W49819  22.628  43.849   4.321
84593W        W49820  13.074  15.675  14.928
84594W        W49821   6.890  40.514   4.809
84595W        W49822  42.578  32.968  14.308
84596W        W49823   1.883   3.939  11.120
84597W        W49824  13.579  38.400  12.464
84598W        W49825  44.773  40.088   2.408
84599W        W49826  18.871  20.721   3.202
84600W        W49827  29.130  22.133   0.823
84601W        W49828  25.667   9.529  14.058
84602W        W49829  17.651  37.220   2.885
84603W        W49830  18.353  16.545   1.311
84604W        W49831  21.109  30.021  10.961
84605W        W49832   3.202  19.048  14.888
84606W        W49833  15.074  34.424  11.920
84607W        W49834  38.007  25.465  12.706
84608W        W49835  15.659  26.415   3.740
84609W        W49836   9.700  19.973   4.403
84610W        W49837   8.724  39.558   1.354
84611W        W49838  15.289  23.154   3.269
84612W        W49839   5.949  17.666  13.891
84613W        W49840   8.760   8.966   4.396
84614W        W49841   7.956  37.970   3.263
84615W        W49842  44.517  15.204   4.408
84616W        W49843   8.363  41.079   3.702
84617W        W49844  32.350   4.059  11.090
84618W        W49845  15.822   5.825  11.193
84619W        W49846  43.438  26.674  13.987
84620W        W49847  17.354  22.794   1.347
84621W        W49848  13.305   7.336   1.261
84622W        W49849  20.028  17.630   3.243
84623W        W49850   4.521  38.640   0.805
84624W        W49851  34.436   9.569  11.205
84625W        W49852  35.847  25.116   0.741
84626W        W49853  24.195  33.417  12.470
84627W        W49854  37.272   8.135   3.701
84628W        W49855  35.631  26.865  10.498
84629W        W49856  37.862  18.793   3.366
84630W        W49857  38.131  11.304  14.870
84631W        W49858  25.613   5.425   4.621
84632W        W49859  10.293  27.112   3.537
84633W        W49860  28.650   5.480  13.048
84634W        W49861   1.575   3.336   3.778
84635W        W49862  19.075  41.919  14.439
84636W        W49863  10.153  11.020   3.728
84637W        W49864  10.225  24.703  14.314
84638W        W49865  40.839  14.131  11.111
84639W        W49866  10.222   1.889  10.696
84640W        W49867  13.261  35.972   5.634
84641W        W49868   7.313  21.576  11.707
84642W        W49869  30.741  12.573  11.861
84643W        W49870  39.060  28.452   1.206
84644W        W49871  19.782   1.151   3.749
84645W        W49872   8.136   4.840  13.313
84646W        W49873  37.156  29.536   2.830
84647W        W49874  28.197  10.898   2.849
84648W        W49875  19.554  38.126   2.240
84649W        W49876  32.571  25.720  13.182
84650W        W49877  31.910  44.888   0.386
84651W        W49878  31.321  13.814  11.777
84652W        W49879   0.979  35.215   4.687
84653W        W49880  38.009   1.969  11.129
84654W        W49881  33.139  32.856   4.040
84655W        W49882   0.341  15.849   0.037
84656W        W49883  43.785  12.871   3.158
84657W        W49884  24.757  42.549   0.117
84658W        W49885  19.768   2.737   4.753
84659W        W49886  25.631  31.465  11.024
84660W        W49887  35.749  21.750   1.277
84661W        W49888  16.335  29.358  13.420
84662W        W49889  25.551   7.422  14.076
84663W        W49890  39.279  32.587   4.185
84664W        W49891  17.550  44.787   1.764
84665W        W49892  38.069  26.240  14.329
84666W        W49893  26.844  30.086   2.214
84667W        W49894  24.958  26.126  11.163
84668W        W49895  43.463  25.616   4.434
84669W        W49896  44.870   7.899   1.955
84670W        W49897  41.992  37.025  13.486
84671W        W49898  23.689   6.255   4.511
84672W        W49899  43.774  12.318   1.669
84673W        W49900  40.006   8.279  11.070
84674W        W49901  26.428  14.229   1.150
84675W        W49902   7.634  10.780  14.464
84676W        W49903  12.609  17.309  14.361
84677W        W49904  44.913  21.707   1.003
84678W        W49905   9.481  19.220   5.576
84679W        W49906   3.208   1.314  14.422
84680W        W49907  10.692  16.284   4.029
84681W        W49908  25.237  35.945  12.597
84682W        W49909  37.579   8.907   2.722
84683W        W49910  27.103  13.691   0.266
84684W        W49911  17.810  30.664   1.210
84685W        W49912   6.731   8.608   0.349
84686W        W49913  34.014  27.695   1.156
84687W        W49914   8.690  37.859  12.366
84688W        W49915  41.628  30.026   1.189
84689W        W49916   7.373  17.476  13.390
84690W        W49917  35.842  21.258   2.779
84691W        W49918  33.498  35.108   1.395
84692W        W49919  14.875   7.364  12.924
84693W        W49920  22.140  20.271   2.270
84694W        W49921  10.928  28.631   3.600
84695W        W49922  12.831  12.134   3.550
84696W        W49923   5.971  29.928  10.692
84697W        W49924   9.209   6.889   2.444
84698W        W49925  25.168  40.884   4.245
84699W        W49926  33.494  27.201  12.081
84700W        W49927  38.799  34.156   4.450
84701W        W49928  43.203  23.696   4.389
84702W        W49929  26.517  23.976   1.806
84703W        W49930  41.962  21.945   2.583
84704W        W49931   4.924   8.645   5.115
84705W        W49932  18.631   4.599  11.247
84706W        W49933  26.636  28.520  11.569
84707W        W49934  31.904  32.981   2.339
84708W        W49935  23.203  28.261  11.599
84709W        W49936   3.109  25.255   1.360
84710W        W49937  24.423  32.819  12.630
84711W        W49938  30.204  29.870  13.418
84712W        W49939  38.978   3.338  13.299
84713W        W49940   4.576   5.051  14.463
84714W        W49941  37.505  32.813   3.134
84715W        W49942  43.102   4.518  13.460
84716W        W49943  31.936  11.657   0.959
84717W        W49944  35.432  22.464   1.697
84718W        W49945  19.652  12.947  11.971
84719W        W49946  19.885  41.037   2.163
84720W        W49947  44.768  36.006  10.788
84721W        W49948   4.873  34.553   3.392
84722W        W49949  11.388  25.735   0.456
84723W        W49950  35.858  20.825   0.377
84724W        W49951  18.249   6.844  13.970
84725W        W49952  33.286  40.996  12.449
84726W        W49953  39.089  42.787  13.918
84727W        W49954  37.788  38.913  10.711
84728W        W49955   8.234  25.757  10.459
84729W        W49956  13.613  22.327  10.514
84730W        W49957  20.321  14.685   4.607
84731W        W49958   5.436  42.029   4.143
84732W        W49959   6.705   6.599   4.109
84733W        W49960  39.326   5.459   0.765
84734W        W49961  25.005   3.905   2.782
84735W        W49962  25.137  33.852  11.939
84736W        W49963  24.668  22.642   0.044
84737W        W49964   3.695  37.672  12.580
84738W        W49965   0.019  37.745   2.750
84739W        W49966  41.508  24.955   0.835
84740W        W49967   8.901   9.483  14.539
84741W        W49968  30.533  20.232   1.210
84742W        W49969  10.310  28.430   1.740
84743W        W49970   2.776  17.051  12.350
84744W        W49971  31.134  23.296  14.416
84745W        W49972   9.831  25.802   0.212
84746W        W49973  36.995   4.976   4.573
84747W        W49974   6.720  12.307  13.538
84748W        W49975  18.250   1.823   4.459
84749W        W49976   0.445  30.383   1.778
84750W        W49977  22.490   4.655  13.881
84751W        W49978   5.697  19.647  13.129
84752W        W49979  12.404   5.976   2.912
84753W        W49980   0.756  35.025   2.021
84754W        W49981   3.391  25.459   3.133
84755W        W49982  13.895  42.449   3.918
84756W        W49983   7.349  36.353   2.702
84757W        W49984   6.921  25.450   2.702
84758W        W49985   2.798  37.237   3.956
84759W        W49986  11.365   0.452  11.248
84760W        W49987   7.890  28.587  10.515
84761W        W49988  16.342  36.869  14.918
84762W        W49989  13.191  33.265   0.286
84763W        W49990  34.779  10.144   4.074
84764W        W49991  19.357   3.467   2.172
84765W        W49992   6.630  34.989  11.181
84766W        W49993  44.232   8.158   1.277
84767W        W49994  38.840  36.442   0.838
84768W        W49995  28.919  29.800   1.877
84769W        W49996  30.333   6.231   3.151
84770W        W49997  33.004  36.683  13.797
84771W        W49998  11.240  12.409  14.619
84772W        W49999  15.232  29.996  11.026
84773W        W50000  37.853  37.632   2.344
84774W        W50001  41.619  23.659  10.785
84775W        W50002  44.907  24.186  13.984
84776W        W50003  41.312  12.778   1.281
84777W        W50004  33.493  39.862   3.657
84778W        W50005  44.565  20.452   2.326
84779W        W50006   2.292  22.780   4.396
84780W        W50007  44.324  19.824   0.723
84781W        W50008  44.443   3.011  14.545
84782W        W50009   8.870  43.520  10.701
84783W        W50010  22.209   4.016  11.393
84784W        W50011  31.011  42.378   4.626
84785W        W50012  29.251  17.585   0.253
84786W        W50013   2.247  13.864   3.770
84787W        W50014  14.694  20.550   3.330
84788W        W50015  28.336  19.124  10.722
84789W        W50016   5.376  13.734  12.433
84790W        W50017   4.595  27.214   0.889
84791W        W50018   6.268  32.689  12.962
84792W        W50019   2.715   4.069   2.822
84793W        W50020   3.289  32.306  11.669
84794W        W50021  17.508   1.919  11.916
84795W        W50022  15.758  16.986   4.548
84796W        W50023   4.731  21.073   4.513
84797W        W50024  30.752  41.943   4.510
84798W        W50025  16.103  29.883  14.184
84799W        W50026   5.780  26.949   3.314
84800W        W50027   7.198  26.020  10.622
84801W        W50028   7.370  20.771   0.262
84802W        W50029  17.649   2.397   4.281
84803W        W50030  16.654  30.724  14.337
84804W        W50031  37.890   8.460   1.698
84805W        W50032  33.931   7.804   2.267
84806W        W50033  15.817  16.185  13.622
84807W        W50034  16.119  26.611   2.857
84808W        W50035  14.119  28.742  12.532
84809W        W50036  44.181  19.137  12.896
84810W        W50037  26.540  23.488   3.260
84811W        W50038  36.381  44.088  13.869
84812W        W50039  41.138  40.544   0.764
84813W        W50040  11.786  10.802   2.145
84814W        W50041  39.327  10.840   0.939
84815W        W50042  43.917  28.538  11.076
84816W        W50043  15.140  11.147  11.627
84817W        W50044   0.302   6.161   0.475
84818W        W50045   9.592  16.756  13.819
84819W        W50046  23.222  28.613  13.006
84820W        W50047  13.135  19.269   1.114
84821W        W50048  26.156  26.575  13.349
84822W        W50049   9.615  32.459  14.460
84823W        W50050  24.933  20.136  11.230
84824W        W50051  43.354  21.267  14.467
84825W        W50052  39.763  29.442  12.441
84826W        W50053   2.934  18.623  13.899
84827W        W50054  18.841  31.020  14.456
84828W        W50055  39.678  42.596   0.644
84829W        W50056  22.251  32.231  14.682
84830W        W50057  40.388  22.714  14.217
84831W        W50058  41.808  28.963  12.624
84832W        W50059   1.649  42.723   2.439
84833W        W50060   4.964  33.188  14.939
84834W        W50061  19.827  18.617  14.762
84835W        W50062  32.121  37.584  12.970
84836W        W50063  21.865  22.416  11.130
84837W        W50064   8.656  18.739  14.046
84838W        W50065  41.880   9.458   0.286
84839W        W50066  25.461  15.726  14.447
84840W        W50067  13.628  15.194   3.425
84841W        W50068   7.534   9.168  12.831
84842W        W50069  39.963  41.078   0.803
84843W        W50070  18.497   2.380  12.494
84844W        W50071   7.232  10.645  13.936
84845W        W50072  38.742  19.741   1.859
84846W        W50073  17.708  26.201   2.150
84847W        W50074  41.503  25.598  13.854
84848W        W50075  39.845  36.095  13.582
84849W        W50076  24.942  43.179   0.012
84850W        W50077  26.750   6.531   1.641
84851W        W50078  15.083  10.183  14.820
84852W        W50079  44.832  31.365  11.557
84853W        W50080  11.126  13.729   4.582
84854W        W50081   9.412  29.654   2.338
84855W        W50082  13.918  38.498  14.803
84856W        W50083  24.935   8.929   2.611
84857W        W50084   3.683  16.994   0.821
84858W        W50085  34.982  40.574   4.436
84859W        W50086  35.031  18.497   4.744
84860W        W50087  19.724   8.388  12.678
84861W        W50088  31.519  15.788  14.781
84862W        W50089  10.241  13.705  11.435
84863W        W50090  15.750  35.386  12.390
84864W        W50091  11.604  30.452   2.691
84865W        W50092  27.379  26.728  11.087
84866W        W50093  13.776  42.024   0.574
84867W        W50094  13.146  28.420   1.682
84868W        W50095  20.052  20.945  12.474
84869W        W50096  16.853   4.165  11.153
84870W        W50097  20.259  14.760   3.882
84871W        W50098  35.979   6.485   5.025
84872W        W50099  31.369  19.107   3.682
84873W        W50100  21.171  12.340  14.951
84874W        W50101  17.536   8.198   2.869
84875W        W50102  24.190  26.889   0.275
84876W        W50103  17.273  12.836   2.612
84877W        W50104  36.917  39.990  11.055
84878W        W50105  20.522  19.676   2.188
84879W        W50106  32.707  28.624  12.985
84880W        W50107   1.690  42.525  13.964
84881W        W50108  29.103  18.055   0.948
84882W        W50109  14.261  26.661   3.609
84883W        W50110  40.456   8.304  11.329
84884W        W50111  44.723   5.343  10.979
84885W        W50112   6.088   1.435  10.807
84886W        W50113  34.611  36.841   2.086
84887W        W50114   2.312   6.724  14.870
84888W        W50115  35.065  10.268   2.464
84889W        W50116  44.446  14.529   4.067
84890W        W50117  15.400  14.670   1.333
84891W        W50118  17.339  13.133  13.136
84892W        W50119  20.429  40.594   3.693
84893W        W50120   0.169  36.980   3.656
84894W        W50121  23.949  14.672  12.868
84895W        W50122  16.745   9.261   2.890
84896W        W50123  30.861  29.647   3.583
84897W        W50124  20.111  22.992   0.799
84898W        W50125  15.331  41.059  14.551
84899W        W50126  15.451  44.813  12.312
84900W        W50127  39.428  42.839  11.729
84901W        W50128   9.419   2.201   0.350
84902W        W50129   2.324  31.966   1.908
84903W        W50130  13.310  40.330  11.660
84904W        W50131  22.154  12.053   1.355
84905W        W50132  37.455   1.491  12.446
84906W        W50133  20.939  40.548  11.068
84907W        W50134   4.965  19.212  10.535
84908W        W50135  20.670  25.241   3.786
84909W        W50136   9.741   0.265  11.582
84910W        W50137  38.965  35.825  11.501
84911W        W50138  33.982  35.902   3.768
84912W        W50139  25.562   8.304  12.979
84913W        W50140   5.777  35.562  12.405
84914W        W50141   2.378  26.777  14.425
84915W        W50142   2.857  10.064  11.925
84916W        W50143  10.471  40.468  12.709
84917W        W50144   6.751  35.084   0.408
84918W        W50145  34.049  32.510   3.111
84919W        W50146  42.541  44.931  11.612
84920W        W50147  37.814  19.077  11.495
84921W        W50148   5.282  28.600   4.601
84922W        W50149  33.817  44.631   3.233
84923W        W50150  41.252  23.523  13.866
84924W        W50151  26.111  39.925   3.121
84925W        W50152  35.427  39.804  11.420
84926W        W50153  34.351  17.375  11.644
84927W        W50154  36.078  36.129  12.039
84928W        W50155   7.852  43.464  13.464
84929W        W50156  30.449  12.347   5.019
84930W        W50157  24.192  13.598   1.865
84931W        W50158  41.680  15.971   3.644
84932W        W50159  21.993  36.819  14.096
84933W        W50160   4.464   3.177   0.670
84934W        W50161   1.186  15.273  13.555
84935W        W50162   0.959   8.634  14.580
84936W        W50163  40.574  38.581   2.172
84937W        W50164  19.705  24.906  14.846
84938W        W50165  38.522  22.754  11.206
84939W        W50166  23.723   8.597  11.280
84940W        W50167   9.800  40.606   3.568
84941W        W50168  31.882  31.968   2.866
84942W        W50169  11.822  17.292   4.097
84943W        W50170  10.925  22.144  14.507
84944W        W50171  20.273  24.533  12.527
84945W        W50172  38.987  10.285  12.208
84946W        W50173  30.018   6.706  10.704
84947W        W50174   0.572  21.098   3.889
84948W        W50175   2.487   6.253   1.922
84949W        W50176  17.565  28.053  13.252
84950W        W50177  12.573  13.185   2.583
84951W        W50178  36.933   0.648   2.677
84952W        W50179   8.735  26.722  12.505
84953W        W50180  22.248  18.214   2.398
84954W        W50181   1.473  27.543   3.220
84955W        W50182   6.400  29.722  10.466
84956W        W50183   1.554  44.343   0.988
84957W        W50184  14.762  28.911  10.322
84958W        W50185  17.971  34.748   0.912
84959W        W50186  21.826   8.295   2.861
84960W        W50187   3.392   7.835   0.693
84961W        W50188  20.223  16.349   3.679
84962W        W50189  39.408   5.126  11.506
84963W        W50190  26.996  28.707  11.155
84964W        W50191  30.896  23.469  13.522
84965W        W50192  33.166  33.702   3.013
84966W        W50193  38.594  21.574   4.086
84967W        W50194  32.442  16.527   2.649
84968W        W50195  25.990  36.972  11.299
84969W        W50196   3.913  22.591   4.743
84970W        W50197  37.791   2.430  13.054
84971W        W50198  14.534   1.625  14.897
84972W        W50199  23.779  42.344   2.805
84973W        W50200  19.780  37.490   4.659
84974W        W50201  14.787  44.931   3.295
84975W        W50202  21.519  41.097  13.918
84976W        W50203  33.166  22.289  11.929
84977W        W50204  36.848   6.743   1.780
84978W        W50205   0.074  25.773  12.227
84979W        W50206  38.572  11.021   0.011
84980W        W50207   4.212  22.604  12.381
84981W        W50208  40.994  22.273  10.987
84982W        W50209  13.254  20.194   3.371
84983W        W50210  23.181  33.377  11.166
84984W        W50211   8.296  12.156  14.953
84985W        W50212  27.495  44.074   0.440
84986W        W50213  36.639  23.270  10.973
84987W        W50214   7.304  21.576   1.870
84988W        W50215  22.587  34.615  12.132
84989W        W50216  31.559  13.134   2.709
84990W        W50217   0.769  22.731   0.771
84991W        W50218  35.045  26.955  10.581
84992W        W50219   5.224   6.430   4.196
84993W        W50220  23.420   4.913  11.143
84994W        W50221  14.662  19.585   2.211
84995W        W50222  39.160  25.762   4.204
84996W        W50223  31.818  15.146   3.278
84997W        W50224  38.283  19.244  11.398
84998W        W50225  43.230   5.637  11.551
84999W        W50226  38.419  23.768   2.163
85000W        W50227   3.305  28.973   0.497
85001W        W50228  19.599  11.386   1.880
85002W        W50229  13.678  13.318   0.826
85003W        W50230  20.240  13.490   0.006
85004W        W50231   8.872  14.595   3.621
85005W        W50232   2.778  38.271   2.834
85006W        W50233  15.873  19.590  10.806
85007W        W50234  23.190  30.564   2.720
85008W        W50235  39.946  35.929   3.761
85009W        W50236   3.853   7.856  12.900
85010W        W50237  41.412  10.690   2.310
85011W        W50238  12.138   8.459   3.778
85012W        W50239   7.845  34.906   3.749
85013W        W50240   7.951  15.781   1.230
85014W        W50241  13.402  31.245  13.819
85015W        W50242  13.441  19.667   1.251
85016W        W50243  32.850  25.992   0.349
85017W        W50244  41.012  15.657   4.538
85018W        W50245  34.863  40.173  14.389
85019W        W50246  21.974  37.467   1.939
85020W        W50247   6.484  36.359  12.531
85021W        W50248  23.055  42.497   2.351
85022W        W50249  25.095  35.160  14.905
85023W        W50250   3.294  44.417  13.587
85024W        W50251  27.195  21.841  13.913
85025W        W50252  32.665  12.841  10.732
85026W        W50253  28.178   3.349   1.004
85027W        W50254  41.385   5.222   0.330
85028W        W50255  12.783  24.845   0.029
85029W        W50256  42.278  24.130   0.617
85030W        W50257  13.600  35.638  13.754
85031W        W50258  14.412  14.393  14.331
85032W        W50259  41.312   7.086  13.983
85033W        W50260   0.860  31.403  12.544
85034W        W50261  19.749  42.855   0.481
85035W        W50262   7.482  12.398  14.728
85036W        W50263  36.907  36.061   4.097
85037W        W50264  22.291  17.322   5.118
85038W        W50265  17.798   2.258  10.619
85039W        W50266   9.819  22.672   0.672
85040W        W50267  33.427   7.096   2.824
85041W        W50268   9.090  27.928   0.026
85042W        W50269   1.436  27.923  11.999
85043W        W50270   5.733   8.215  12.756
85044W        W50271  27.224  26.013   3.272
85045W        W50272  13.918  15.608  14.017
85046W        W50273  38.980  18.212  13.512
85047W        W50274  33.950  22.589  13.402
85048W        W50275   5.961  13.510  14.187
85049W        W50276  42.519  39.484  11.916
85050W        W50277  28.095  34.340  13.394
85051W        W50278  31.669   6.832   4.580
85052W        W50279  24.470  39.527  12.856
85053W        W50280  11.804  11.187  12.044
85054W        W50281  37.860   4.427   0.367
85055W        W50282   6.256  37.604  13.305
85056W        W50283  39.492   1.345   4.552
85057W        W50284  19.190  16.485   2.246
85058W        W50285  36.028  11.830   2.284
85059W        W50286  38.502   2.238  13.798
85060W        W50287   1.943  14.664   2.752
85061W        W50288  39.978  13.731  13.347
85062W        W50289  36.339  28.866   1.398
85063W        W50290  24.726   9.818   2.796
85064W        W50291  39.334   7.158  14.819
85065W        W50292   1.378  11.770  13.806
85066W        W50293  31.581  10.255   0.684
85067W        W50294  41.039   9.382  13.034
85068W        W50295  13.593   4.950   3.227
85069W        W50296   3.504  38.669  14.771
85070W        W50297  30.958   2.700   3.617
85071W        W50298  44.510   6.123  14.364
85072W        W50299  39.707   3.827   2.316
85073W        W50300  13.440  42.399  12.406
85074W        W50301   6.357  43.948  12.290
85075W        W50302  15.824  22.120   0.983
85076W        W50303  20.122  34.032  11.649
85077W        W50304  16.341   9.078  10.637
85078W        W50305  33.598  26.965  11.634
85079W        W50306  32.315  39.901  11.440
85080W        W50307   6.017  38.594   2.789
85081W        W50308  23.728   2.450   4.989
85082W        W50309  30.026  42.529  12.453
85083W        W50310  16.695   8.134   2.876
85084W        W50311  43.408  31.276  14.495
85085W        W50312  16.123   7.916  12.567
85086W        W50313   5.371   9.837  14.968
85087W        W50314  31.298  10.042  11.294
85088W        W50315  32.861  20.645   0.938
85089W        W50316   1.591  16.568  12.218
85090W        W50317   6.602  29.640   0.718
85091W        W50318  10.873  26.161  13.510
85092W        W50319   9.629   5.470  11.117
85093W        W50320   3.157  16.742  11.458
85094W        W50321   2.088   6.405   4.481
85095W        W50322  39.534  34.372   3.234
85096W        W50323  10.440   9.954  14.255
85097W        W50324  31.088  27.081   1.993
85098W        W50325  35.519  37.772  14.960
85099W        W50326  12.356  39.809  14.492
85100W        W50327  29.607  37.059   5.022
85101W        W50328  13.657  42.892  12.989
85102W        W50329   8.445  20.629  12.569
85103W        W50330  41.385   1.901  12.225
85104W        W50331  25.687  38.459  11.723
85105W        W50332  40.321  21.624   1.828
85106W        W50333  28.559  31.190   4.280
85107W        W50334  33.177  21.085  13.325
85108W        W50335  40.624   7.739  13.946
85109W        W50336  20.371  12.277  13.433
85110W        W50337   9.298  26.266  11.651
85111W        W50338  31.014   5.846  12.447
85112W        W50339   3.247  21.518   2.952
85113W        W50340  39.821  10.703  14.302
85114W        W50341  44.824   8.816   1.712
85115W        W50342   5.911  14.613  12.619
85116W        W50343  14.277   1.375   2.825
85117W        W50344  28.048   0.433  14.804
85118W        W50345  34.858  21.752   2.210
85119W        W50346  32.648  42.933   0.011
85120W        W50347   6.179  11.476   3.321
85121W        W50348  42.212  33.101  12.333
85122W        W50349  15.122   2.459  10.588
85123W        W50350   5.593  12.369  12.526
85124W        W50351  34.302  37.244  12.005
85125W        W50352  24.567   1.750  12.860
85126W        W50353   5.012  26.067  12.912
85127W        W50354  23.652  21.564  11.504
85128W        W50355  29.599  27.290   1.907
85129W        W50356  11.706  32.719  11.509
85130W        W50357  41.054  32.465   3.766
85131W        W50358  29.569  18.059  12.052
85132W        W50359   5.789  23.276   3.341
85133W        W50360  30.173  18.165  13.102
85134W        W50361  31.650  16.745  11.162
85135W        W50362  18.110  16.395   1.724
85136W        W50363  38.860  30.898  13.987
85137W        W50364  37.347  31.673  13.328
85138W        W50365  40.768   2.915  13.461
85139W        W50366  22.522  43.486   4.700
85140W        W50367  14.260  15.158  11.166
85141W        W50368  30.857  22.951  14.774
85142W        W50369   7.432  36.057  12.477
85143W        W50370  10.052  29.752  13.402
85144W        W50371  18.787  21.196   5.031
85145W        W50372   8.662  31.483  14.773
85146W        W50373  40.680  17.280  12.669
85147W        W50374  25.911  31.041  13.399
85148W        W50375  11.409  44.302   0.094
85149W        W50376  38.924  24.787   0.522
85150W        W50377   9.088  25.616   4.133
85151W        W50378  43.509  22.282  12.469
85152W        W50379   6.242  19.781  12.450
85153W        W50380   1.794  44.441   5.233
85154W        W50381  21.916  26.504  11.141
85155W        W50382  35.553  40.779  12.879
85156W        W50383  36.585  11.703   4.633
85157W        W50384  13.323  18.919   1.455
85158W        W50385  28.442  25.003   2.135
85159W        W50386   4.400   2.670  13.782
85160W        W50387  16.687   8.674  13.582
85161W        W50388   8.213  39.763   3.664
85162W        W50389  24.977   4.834   0.940
85163W        W50390  43.711   3.837   1.330
85164W        W50391  15.486  34.441  13.531
85165W        W50392  40.348  12.982   0.388
85166W        W50393   0.637   1.645  10.709
85167W        W50394  17.635   4.579   0.904
85168W        W50395  43.823  42.383  11.400
85169W        W50396  30.577  27.450  13.898
85170W        W50397  35.790   7.669  12.423
85171W        W50398  30.099   6.318   2.447
85172W        W50399  28.529  29.168  11.069
85173W        W50400  19.023  13.489   2.868
85174W        W50401   7.742  29.421  10.931
85175W        W50402  21.200   9.643  13.381
85176W        W50403  26.559  13.015  13.069
85177W        W50404  16.253  28.722   2.445
85178W        W50405   7.126  27.244  14.958
85179W        W50406  27.712  29.197  11.913
85180W        W50407   8.456  40.643   0.388
85181W        W50408  13.975  12.684  14.326
85182W        W50409   8.936   4.875  14.415
85183W        W50410  14.120  24.648   0.267
85184W        W50411   8.125  28.898   0.973
85185W        W50412  36.146  22.535  11.478
85186W        W50413   1.275   2.361  14.680
85187W        W50414   5.749   0.460   4.095
85188W        W50415  16.282  32.588  11.542
85189W        W50416  28.231   9.104   4.083
85190W        W50417  20.159  29.583  14.962
85191W        W50418  39.538  14.985  14.416
85192W        W50419  42.419   9.412   1.946
85193W        W50420  27.923  15.600   4.104
85194W        W50421  41.766  42.361   1.502
85195W        W50422  14.754  44.186   4.574
85196W        W50423  15.353   4.474   3.631
85197W        W50424  25.488  14.023   0.050
85198W        W50425  29.687  29.656   2.415
85199W        W50426  33.161  30.106  11.928
85200W        W50427  12.141  12.313  14.101
85201W        W50428  30.026  18.149   2.442
85202W        W50429   8.976  28.531  13.417
85203W        W50430   1.691  29.551  11.800
85204W        W50431   9.776   4.604  10.714
85205W        W50432   6.209   1.319   2.832
85206W        W50433  39.024  31.992  13.385
85207W        W50434  22.365  28.184  14.767
85208W        W50435   3.743  35.765   2.457
85209W        W50436  37.839  31.483   2.288
85210W        W50437  12.918  39.766  13.563
85211W        W50438  27.345  27.066  10.672
85212W        W50439   8.711  38.217  11.597
85213W        W50440  33.915  44.083  11.146
85214W        W50441  10.142  32.158  12.906
85215W        W50442   8.264  28.647  14.088
85216W        W50443  34.069  36.536   0.402
85217W        W50444  26.399  13.566   3.438
85218W        W50445   2.571  11.851  12.038
85219W        W50446  20.431   2.491   2.555
85220W        W50447  17.320  20.945  14.493
85221W        W50448  11.838  41.378   4.941
85222W        W50449  14.708  41.478   0.762
85223W        W50450  18.570  37.529  14.360
85224W        W50451  41.696  23.962   1.860
85225W        W50452  44.874   5.822   3.783
85226W        W50453  12.496  26.591   3.264
85227W        W50454  40.736   1.790  12.542
85228W        W50455  18.599  15.274   4.150
85229W        W50456   5.668  18.859  11.622
85230W        W50457   4.879  19.901  12.888
85231W        W50458  34.477  36.479  14.534
85232W        W50459   9.839  24.406  14.806
85233W        W50460  23.644  36.001  11.516
85234W        W50461  11.795  25.106   3.586
85235W        W50462   4.754  34.103   5.005
85236W        W50463  35.677  14.059   1.731
85237W        W50464  25.163  37.223   5.059
85238W        W50465  39.791  36.501  13.258
85239W        W50466  24.105  24.484   4.558
85240W        W50467  14.738  26.276  12.925
85241W        W50468   1.145  17.751   2.603
85242W        W50469  15.245  28.472  12.903
85243W        W50470   6.394   4.426   1.154
85244W        W50471   7.378   5.355   2.275
85245W        W50472  35.369  12.885  11.518
85246W        W50473  33.843   4.656  13.842
85247W        W50474  21.079  39.313   2.836
85248W        W50475  28.974  37.501  10.751
85249W        W50476  30.902  43.161  14.822
85250W        W50477  33.937   0.265  12.921
85251W        W50478  28.428  42.474  11.596
85252W        W50479  14.211  21.564  12.609
85253W        W50480  18.026  37.268  11.517
85254W        W50481  16.088   7.326   0.327
85255W        W50482  38.397  40.497   4.804
85256W        W50483  16.529  32.367  11.951
85257W        W50484  42.790   0.782  11.758
85258W        W50485  28.799   2.188  10.918
85259W        W50486  25.889  42.089  11.162
85260W        W50487  31.703  44.302  13.565
85261W        W50488   5.520  19.769  10.893
85262W        W50489  13.487  24.181  14.839
85263W        W50490  19.154   0.706  10.838
85264W        W50491   5.938  35.126  14.952
85265W        W50492  31.929   7.175  11.732
85266W        W50493  14.766  14.296   2.651
85267W        W50494   3.371  29.116   0.983
85268W        W50495  23.333  41.373  12.427
85269W        W50496  40.367   7.413  13.063
85270W        W50497  25.867  12.788   4.213
85271W        W50498  20.259  20.162   3.186
85272W        W50499   9.446  21.031  13.285
85273W        W50500  16.094   4.012  13.354
85274W        W50501   4.466  36.865   2.741
85275W        W50502  37.812  33.935   3.685
85276W        W50503   2.722   2.124   3.855
85277W        W50504  23.699  41.236  14.357
85278W        W50505   6.232   0.421  12.109
85279W        W50506  17.028  10.972   4.098
85280W        W50507  28.283  20.697  11.983
85281W        W50508  20.825  20.507   4.841
85282W        W50509  23.200  26.030   2.382
85283W        W50510  15.314  15.615   2.978
85284W        W50511  44.402  16.728   1.313
85285W        W50512   7.833  39.274   0.110
85286W        W50513  14.601  32.072  14.732
85287W        W50514  39.269   6.000   2.891
85288W        W50515  10.801  25.654   4.127
85289W        W50516  26.903  42.407  11.154
85290W        W50517  24.769   6.668   0.929
85291W        W50518  37.881  29.139  11.536
85292W        W50519  44.556  32.296   2.210
85293W        W50520   9.925  42.722   0.948
85294W        W50521  12.709  24.565  14.584
85295W        W50522   4.160  20.652  13.472
85296W        W50523  27.667  10.724   1.934
85297W        W50524  13.884  27.967   1.259
85298W        W50525   8.310  19.614   3.398
85299W        W50526  21.021  22.707   0.744
85300W        W50527   9.284  28.202   4.195
85301W        W50528  28.966  30.964   3.065
85302W        W50529  43.015  35.030   2.272
85303W        W50530  17.619   0.999   3.087
85304W        W50531  30.070  31.882   3.458
85305W        W50532   2.317  39.035  11.498
85306W        W50533  13.090  35.595  13.764
85307W        W50534  12.698  37.240   1.196
85308W        W50535  26.502  33.291  14.026
85309W        W50536   7.637  41.933  12.446
85310W        W50537  32.586  14.365   9.965
85311W        W50538  40.567   2.515  12.306
85312W        W50539  36.848  13.050   0.003
85313W        W50540  14.544  11.287  10.171
85314W        W50541  33.864  12.054  13.029
85315W        W50542  12.254  17.694  14.841
85316W        W50543  42.939  39.309   4.136
85317W        W50544  18.633  34.025   3.431
85318W        W50545  33.269  36.333   3.526
85319W        W50546  22.538  43.736   3.264
85320W        W50547   2.892  37.379   4.442
85321W        W50548  43.173   6.131   0.929
85322W        W50549  42.358  15.881   4.683
85323W        W50550  25.645  38.776   4.666
85324W        W50551  35.352   5.450  13.032
85325W        W50552   6.220  15.695   0.831
85326W        W50553   2.396  35.925   1.658
85327W        W50554   3.329  14.053  10.787
85328W        W50555  22.459  20.309   4.182
85329W        W50556  39.680  26.656   4.188
85330W        W50557  14.698  30.859   1.704
85331W        W50558   4.117  25.821  14.072
85332W        W50559  16.156   7.523   1.696
85333W        W50560  34.936  17.319   4.117
85334W        W50561   6.292  27.666   1.153
85335W        W50562  18.752  23.257  13.268
85336W        W50563  13.170   6.099  14.315
85337W        W50564   9.094  23.960   2.860
85338W        W50565  11.733  35.612  12.914
85339W        W50566  42.133  10.164   4.214
85340W        W50567  15.227  22.618   2.569
85341W        W50568  36.207  38.983   1.957
85342W        W50569  37.976  25.546   1.237
85343W        W50570  39.325  24.063  14.545
85344W        W50571  10.146  31.851  10.202
85345W        W50572  28.590  16.256   1.452
85346W        W50573  33.143   1.696  14.057
85347W        W50574  30.957  21.919   3.236
85348W        W50575  12.313  13.833  14.362
85349W        W50576  40.632  44.338  11.211
85350W        W50577   2.767  26.545   1.003
85351W        W50578   9.424   5.454  12.658
85352W        W50579   0.354  27.767  12.941
85353W        W50580   2.914   8.099  11.501
85354W        W50581   7.923  16.681  12.942
85355W        W50582  42.910  30.948  11.629
85356W        W50583  16.760  17.584  12.435
85357W        W50584  34.351  16.497  14.463
85358W        W50585  25.081  27.678  14.727
85359W        W50586  38.962  42.058  12.544
85360W        W50587   4.621  20.984  12.481
85361W        W50588  31.703  38.371  10.772
85362W        W50589   7.195  10.227  11.403
85363W        W50590  26.814  26.707  12.944
85364W        W50591   7.446  23.151   3.267
85365W        W50592  27.538  40.629  14.346
85366W        W50593  34.198  43.692  10.984
85367W        W50594  20.146  14.069   2.201
85368W        W50595  12.265  37.998   0.089
85369W        W50596  41.989   1.858  11.142
85370W        W50597  18.730  38.268   0.658
85371W        W50598  34.999  32.628  12.229
85372W        W50599  24.365  38.658  11.114
85373W        W50600   6.826  31.662  13.850
85374W        W50601  41.630  32.516   3.348
85375W        W50602  17.669  32.977   1.697
85376W        W50603   0.001  28.645  12.919
85377W        W50604  13.733  32.470   0.516
85378W        W50605  34.665  39.098  12.152
85379W        W50606  12.662  18.320  14.344
85380W        W50607  10.211  13.674   2.334
85381W        W50608  29.038   4.802   2.328
85382W        W50609  12.759  19.849  10.802
85383W        W50610  24.105  43.966   5.146
85384W        W50611  34.691   9.185  12.438
85385W        W50612  30.092  16.440  11.507
85386W        W50613  25.827  41.727   2.133
85387W        W50614   5.483  23.157  12.145
85388W        W50615  10.964  16.260   1.057
85389W        W50616  14.281   3.451  12.975
85390W        W50617  14.217  38.037  11.576
85391W        W50618  37.864  37.814  12.623
85392W        W50619   0.709  36.893  10.479
85393W        W50620  35.807   0.803  13.826
85394W        W50621  44.406  20.187  12.778
85395W        W50622  31.736  23.614  13.158
85396W        W50623  38.212  35.196  11.769
85397W        W50624  15.092  30.919  12.152
85398W        W50625  13.183  14.987   1.087
85399W        W50626  30.160  15.641  11.021
85400W        W50627  26.220  15.776   4.990
85401W        W50628  22.783   0.691   3.101
85402W        W50629   8.853  31.320   2.638
85403W        W50630  36.255  25.042   1.064
85404W        W50631  43.049   6.857   3.653
85405W        W50632  28.304  27.902  13.556
85406W        W50633   0.714   6.173  10.725
85407W        W50634  42.102  14.757  10.965
85408W        W50635  22.055   4.927  10.327
85409W        W50636  25.977  15.828   3.482
85410W        W50637  12.662   0.752   1.367
85411W        W50638  31.533   6.315   4.664
85412W        W50639  13.584  17.327   2.423
85413W        W50640  31.948  16.078  10.326
85414W        W50641  16.895  15.716   0.752
85415W        W50642  32.829  41.475   2.119
85416W        W50643  42.026   3.340   3.303
85417W        W50644  18.041  11.697  12.011
85418W        W50645   4.952  17.305   3.575
85419W        W50646  17.250  42.227  11.164
85420W        W50647  29.380  28.037  13.735
85421W        W50648  30.359  30.903   0.762
85422W        W50649  17.528  32.790  11.871
85423W        W50650  15.225  36.036   0.572
85424W        W50651   9.128  35.352   2.406
85425W        W50652  31.148   3.143   0.407
85426W        W50653   9.148  39.399  13.800
85427W        W50654  30.663   5.452  12.447
85428W        W50655  10.214   7.697   4.534
85429W        W50656  39.142  18.544  12.057
85430W        W50657  42.794  25.063   2.375
85431W        W50658   2.673  21.822   0.552
85432W        W50659  28.587  35.308   2.376
85433W        W50660  43.383   1.983  12.136
85434W        W50661  11.625   8.275  12.615
85435W        W50662   6.969   9.617  12.183
85436W        W50663  35.564   4.867  14.363
85437W        W50664   9.245   3.383  13.912
85438W        W50665   9.674  28.285   0.122
85439W        W50666  22.640  32.853  11.361
85440W        W50667  18.980   4.838  13.812
85441W        W50668  33.039  23.468  11.589
85442W        W50669  42.875  38.510  13.134
85443W        W50670  27.901   8.441  14.289
85444W        W50671  15.054  19.187   4.454
85445W        W50672  44.979  13.019  12.693
85446W        W50673  44.751  33.087  11.609
85447W        W50674  18.822  19.225   3.739
85448W        W50675  18.806  15.073   0.295
85449W        W50676   2.436  30.720   2.717
85450W        W50677  11.769  39.835  10.999
85451W        W50678  30.131  40.137  12.762
85452W        W50679  41.534  37.883   3.279
85453W        W50680   2.817  22.714   3.788
85454W        W50681  38.760  33.733   0.184
85455W        W50682  18.123  23.301  13.898
85456W        W50683   6.817  28.547  13.571
85457W        W50684  26.999  11.624   2.427
85458W        W50685  30.848  11.794  13.377
85459W        W50686  41.538   5.223   0.880
85460W        W50687  20.747  41.978   3.818
85461W        W50688  27.138  12.522   2.843
85462W        W50689  21.089  26.042  10.653
85463W        W50690  44.191   0.550   4.102
85464W        W50691  44.978   5.307  12.051
85465W        W50692  33.601   3.918  14.156
85466W        W50693  32.608  41.525  12.737
85467W        W50694  27.565   2.766  13.650
85468W        W50695  41.629  26.861  11.069
85469W        W50696  36.478   0.830   9.948
85470W        W50697   3.877  22.268   2.848
85471W        W50698  21.017  12.602   1.932
85472W        W50699  33.985  17.602  10.558
85473W        W50700  11.724   4.916  12.978
85474W        W50701  19.513   6.318  14.423
85475W        W50702   9.378  42.011   1.831
85476W        W50703   2.641  40.935  13.275
85477W        W50704  22.575  15.649   2.690
85478W        W50705  41.082  23.812  14.264
85479W        W50706   9.630   6.358   0.576
85480W        W50707  22.260  10.132   0.893
85481W        W50708  20.663  28.178   3.753
85482W        W50709  36.309  41.432   0.330
85483W        W50710  10.371  26.754   5.066
85484W        W50711  22.260   4.730   2.459
85485W        W50712   6.669  17.559   3.652
85486W        W50713   3.745  34.876  11.068
85487W        W50714  11.131  16.488  12.186
85488W        W50715  32.979  23.748   1.812
85489W        W50716  10.339  26.671  14.154
85490W        W50717  25.063  22.971  13.817
85491W        W50718  42.918  23.889  10.623
85492W        W50719  28.549  43.681  14.512
85493W        W50720  23.091   3.848  13.519
85494W        W50721  39.889   0.718  11.707
85495W        W50722  33.655   8.229   2.057
85496W        W50723  10.439  38.771  11.074
85497W        W50724  10.325  39.381   1.226
85498W        W50725  16.908  15.737  14.395
85499W        W50726   9.676  24.774  14.432
85500W        W50727  33.295   0.759  14.869
85501W        W50728  10.234  19.093   3.779
85502W        W50729   4.228  12.350   3.148
85503W        W50730  23.194   4.370   0.881
85504W        W50731  27.405   3.873  13.927
85505W        W50732  31.235  15.603  14.392
85506W        W50733  41.413  34.096  11.067
85507W        W50734  10.835  29.478   4.061
85508W        W50735  32.395  23.034   0.798
85509W        W50736  40.301  23.538   3.760
85510W        W50737   9.371  29.204  12.996
85511W        W50738  43.002  42.587   2.777
85512W        W50739  35.264   0.479   4.574
85513W        W50740  27.862  17.218  13.891
85514W        W50741  28.506  12.533   0.965
85515W        W50742   6.634  38.625   3.695
85516W        W50743  31.940  15.817   0.103
85517W        W50744  26.493   8.402   1.809
85518W        W50745   5.746  44.103   0.955
85519W        W50746  44.588  40.232   4.494
85520W        W50747  44.103  27.602   5.427
85521W        W50748  29.505  13.286  13.424
85522W        W50749   3.929  43.077  14.435
85523W        W50750  39.283   9.692   4.248
85524W        W50751  27.226  15.798  12.058
85525W        W50752  19.204   6.693   2.374
85526W        W50753  18.100  17.593  11.927
85527W        W50754  26.504  31.282  13.922
85528W        W50755  25.011  24.603   2.868
85529W        W50756  23.816  34.214   0.337
85530W        W50757  39.798  39.250  11.423
85531W        W50758  29.894   4.459  12.930
85532W        W50759  28.107  34.900   0.781
85533W        W50760   7.100  35.527   3.771
85534W        W50761  17.756  20.800  10.927
85535W        W50762  20.209  39.103   4.253
85536W        W50763  21.454  32.073  13.087
85537W        W50764  30.402  10.035   0.927
85538W        W50765  24.859  21.160   3.696
85539W        W50766  38.977  31.650   3.716
85540W        W50767  18.616  26.734  13.539
85541W        W50768  17.618   9.649  10.781
85542W        W50769  31.364  33.439   2.815
85543W        W50770   2.874   4.740   3.135
85544W        W50771   7.322  28.380  10.660
85545W        W50772  32.398  42.354   2.145
85546W        W50773  19.484   4.811  14.697
85547W        W50774  32.217  18.146  11.327
85548W        W50775  26.523  41.312   3.359
85549W        W50776   1.756  40.027  10.588
85550W        W50777  38.643  13.263  11.960
85551W        W50778  36.376  25.073  10.439
85552W        W50779  28.242  18.978  14.585
85553W        W50780   4.852  28.156  13.848
85554W        W50781   0.218   4.013  12.510
85555W        W50782  36.927  18.699   0.056
85556W        W50783  43.218   2.189   3.834
85557W        W50784  19.464   6.486  12.474
85558W        W50785  35.490   1.210  11.653
85559W        W50786  24.585  19.773   0.700
85560W        W50787  42.686  37.834  11.341
85561W        W50788  20.159  42.771  14.166
85562W        W50789   6.432   2.864   3.770
85563W        W50790  39.478  19.756   2.361
85564W        W50791  39.451  33.075   3.100
85565W        W50792  11.673  27.869   4.213
85566W        W50793  39.545  29.698   2.308
85567W        W50794  26.084  15.311  11.015
85568W        W50795  28.985  12.080  10.512
85569W        W50796  23.970  39.173   5.210
85570W        W50797  19.532  12.824   1.497
85571W        W50798  30.597  23.609  14.862
85572W        W50799  39.464  30.142  12.943
85573W        W50800  10.787  23.612   2.504
85574W        W50801  35.289  30.882   1.665
85575W        W50802  23.657  41.436   3.079
85576W        W50803  39.845  28.115  13.012
85577W        W50804   7.380  23.199   2.752
85578W        W50805  25.188  33.171   3.858
85579W        W50806  34.154  21.007  14.799
85580W        W50807  31.383  20.883  10.674
85581W        W50808  10.473  13.217   0.131
85582W        W50809  44.347  44.225  11.194
85583W        W50810  34.142  43.794   1.876
85584W        W50811  28.213  16.748  10.770
85585W        W50812  22.755   1.036   2.709
85586W        W50813  34.172  34.512   1.884
85587W        W50814   5.046  40.923  12.534
85588W        W50815  17.911  18.314   2.900
85589W        W50816  29.269  17.722  13.873
85590W        W50817  19.498  33.714  14.422
85591W        W50818  36.873  35.683  13.434
85592W        W50819  38.106  14.899  11.632
85593W        W50820  21.732   5.435   2.139
85594W        W50821  35.278  24.557   1.858
85595W        W50822   4.704   6.085  14.330
85596W        W50823  27.260  13.409   3.521
85597W        W50824  19.468  33.387   3.334
85598W        W50825  29.063  34.791   0.326
85599W        W50826  35.238  31.869  11.978
85600W        W50827   4.281  32.413   2.715
85601W        W50828  44.677  17.946   4.215
85602W        W50829  40.070  20.235  11.643
85603W        W50830  16.426  37.497  14.395
85604W        W50831  40.025  26.215   0.729
85605W        W50832   3.734   0.037   0.424
85606W        W50833  40.881  39.418   3.796
85607W        W50834   4.739  11.060  13.304
85608W        W50835  35.589  40.837   0.757
85609W        W50836   8.212   3.004   2.862
85610W        W50837   6.600  24.645   2.240
85611W        W50838  38.734  36.845   0.547
85612W        W50839  11.561  31.950   1.380
85613W        W50840  40.050  19.991   1.692
85614W        W50841  40.201   0.203  13.787
85615W        W50842  27.278  15.133  14.333
85616W        W50843  14.094   3.813   0.340
85617W        W50844  13.958  12.174  11.928
85618W        W50845  11.043  37.066  14.762
85619W        W50846  16.280  22.749   3.849
85620W        W50847  17.572   4.487  12.107
85621W        W50848   9.919  10.334  12.148
85622W        W50849  25.520  39.143  14.889
85623W        W50850  43.905  18.407   4.443
85624W        W50851   3.383   5.365  13.983
85625W        W50852  23.315  30.842   3.250
85626W        W50853  10.578  18.273   1.168
85627W        W50854   7.884   1.016   4.325
85628W        W50855  12.105  15.912  11.099
85629W        W50856  40.952   2.017   2.184
85630W        W50857   8.266  30.820   0.844
85631W        W50858   0.424  41.564   4.033
85632W        W50859  34.454  19.528   2.176
85633W        W50860  29.686  25.595  13.418
85634W        W50861  19.251   2.988  10.999
85635W        W50862  14.809  24.115  13.459
85636W        W50863  25.019   5.427  13.686
85637W        W50864  31.999   3.863  14.780
85638W        W50865   3.132   1.788   0.284
85639W        W50866  10.036  28.914  11.948
85640W        W50867  37.964  31.562   2.825
85641W        W50868  23.260  38.415   0.821
85642W        W50869   3.184  29.461  14.270
85643W        W50870  24.583  38.589   2.283
85644W        W50871  42.741   0.624   1.930
85645W        W50872  10.340  14.426   3.313
85646W        W50873  18.759  43.435  11.908
85647W        W50874  37.081  28.049   4.999
85648W        W50875   7.601   1.485   3.843
85649W        W50876   0.835  35.660   4.436
85650W        W50877  26.013  39.612  12.794
85651W        W50878  37.372  37.768   4.440
85652W        W50879  36.809  18.728   1.924
85653W        W50880   3.530  36.827   3.291
85654W        W50881  31.385  11.833   1.493
85655W        W50882   4.258  34.453  12.434
85656W        W50883  33.464  31.324  13.793
85657W        W50884  14.727  38.842   0.589
85658W        W50885   4.073  17.340   3.656
85659W        W50886  28.513  37.460   4.018
85660W        W50887  32.101  17.057   1.403
85661W        W50888  10.322  24.290  13.807
85662W        W50889  13.211  41.277  11.858
85663W        W50890  11.000  14.400  12.111
85664W        W50891  12.085  39.358  13.334
85665W        W50892  25.887   7.031  13.896
85666W        W50893  34.885  18.492   2.381
85667W        W50894  14.742  31.878  13.334
85668W        W50895  31.003   0.545  10.658
85669W        W50896  44.344  25.479  14.335
85670W        W50897  14.807  29.630   2.317
85671W        W50898   4.249  40.901  13.558
85672W        W50899  38.082  10.011  13.937
85673W        W50900   6.339   5.635  11.081
85674W        W50901  12.281  42.780  13.395
85675W        W50902   5.769  43.075   3.742
85676W        W50903   7.574  37.388   4.595
85677W        W50904  43.733   3.856  13.507
85678W        W50905  19.126   5.342  12.162
85679W        W50906   2.881  19.016  12.121
85680W        W50907   5.952  36.782   0.348
85681W        W50908   7.962   9.680  13.031
85682W        W50909  27.765  25.102  11.622
85683W        W50910  17.275   1.052  12.042
85684W        W50911  26.752  39.389   2.771
85685W        W50912  32.643   9.394   3.131
85686W        W50913  26.797  18.743   0.001
85687W        W50914  27.457  32.680  13.557
85688W        W50915   7.861  39.560   2.819
85689W        W50916  35.974  29.987   4.386
85690W        W50917  35.066  25.439   1.913
85691W        W50918  30.744  11.991  11.619
85692W        W50919   3.922   6.687   0.435
85693W        W50920  11.191  13.518  13.026
85694W        W50921  20.712   6.158  13.509
85695W        W50922  29.073  39.588   0.310
85696W        W50923   9.073  21.617  14.235
85697W        W50924   5.786   5.226   3.840
85698W        W50925  24.933  28.448  12.427
85699W        W50926  20.075  24.188  11.570
85700W        W50927  22.033  33.329  14.067
85701W        W50928  15.614  41.932  13.445
85702W        W50929  30.458   6.316  11.231
85703W        W50930  31.770  25.955  10.448
85704W        W50931   1.323  29.213  12.599
85705W        W50932  22.655  42.057  11.536
85706W        W50933   5.635  11.930   2.434
85707W        W50934  43.433   2.863   2.183
85708W        W50935  30.965  32.214  10.643
85709W        W50936  28.824  35.890  12.577
85710W        W50937  28.209  26.675  10.123
85711W        W50938  44.680  35.319   0.007
85712W        W50939  15.124  34.978  11.226
85713W        W50940  14.213  30.977   1.410
85714W        W50941   8.453   4.783   1.425
85715W        W50942  30.021   1.825   2.223
85716W        W50943  27.725  38.239   3.679
85717W        W50944   2.173  36.059  11.251
85718W        W50945  19.259  44.782   2.669
85719W        W50946  37.415   5.285   4.515
85720W        W50947   9.089  27.249   2.292
85721W        W50948  13.699  40.648   0.441
85722W        W50949  32.494  21.713   1.582
85723W        W50950  44.288   1.714   3.749
85724W        W50951   2.985  39.543  11.559
85725W        W50952  24.544  18.907   1.235
85726W        W50953  44.252  26.895   4.884
85727W        W50954  30.864  44.798   1.252
85728W        W50955  26.683  21.494  14.331
85729W        W50956   0.565  21.645  13.120
85730W        W50957  31.458  44.651  12.636
85731W        W50958   6.079   0.933  13.871
85732W        W50959  11.315  41.228  10.644
85733W        W50960  32.814  13.866  13.078
85734W        W50961  42.250  35.892   1.136
85735W        W50962   7.770  13.890   4.202
85736W        W50963  13.222  40.288  14.423
85737W        W50964  18.055  30.008   4.284
85738W        W50965  19.203   1.931  12.963
85739W        W50966  35.843   2.892  10.627
85740W        W50967  34.804  27.596   2.850
85741W        W50968  16.424  25.941   2.217
85742W        W50969  33.671   4.148   2.707
85743W        W50970  13.219  18.830  12.188
85744W        W50971   5.532   8.409   4.077
85745W        W50972  36.089  19.342   0.737
85746W        W50973  41.807  25.320  13.464
85747W        W50974  40.966  30.591  10.597
85748W        W50975  36.560  33.105   3.327
85749W        W50976  25.688  38.548   2.848
85750W        W50977  19.113  29.442  13.466
85751W        W50978   1.988  27.256  11.527
85752W        W50979   7.244  22.466   3.528
85753W        W50980  23.233   0.205  14.435
85754W        W50981  35.112  39.969   1.268
85755W        W50982  42.772  36.524  12.934
85756W        W50983  24.099   0.532   3.080
85757W        W50984  13.444   6.659   1.674
85758W        W50985  14.709  35.507  14.385
85759W        W50986  16.178  35.855   0.984
85760W        W50987  39.357   9.194   3.433
85761W        W50988  21.235  41.913  14.990
85762W        W50989  38.962   0.583   4.645
85763W        W50990  17.314  12.687   3.748
85764W        W50991  36.937  42.938  12.962
85765W        W50992  27.961  30.704  11.585
85766W        W50993  17.263  26.068  12.479
85767W        W50994   0.630   3.403   4.213
85768W        W50995   9.630  22.180  13.644
85769W        W50996  29.560   3.745  13.419
85770W        W50997  30.852  27.555   2.221
85771W        W50998  34.043  19.201   3.691
85772W        W50999  11.538  27.880  10.298
85773W        W51000   7.549  26.057  14.392
85774W        W51001  37.598  10.038  10.674
85775W        W51002  40.964  25.248  14.406
85776W        W51003  35.290   3.700  14.927
85777W        W51004  21.779   4.815   4.655
85778W        W51005  24.159  15.233  13.138
85779W        W51006   2.470  21.561   0.934
85780W        W51007  22.102  35.937  10.709
85781W        W51008   1.766  28.720  12.168
85782W        W51009  20.815   9.735   1.763
85783W        W51010  39.972  40.053  10.486
85784W        W51011   8.699  23.461   0.834
85785W        W51012  22.753   6.321   4.083
85786W        W51013  10.679  29.930  11.511
85787W        W51014  13.628  32.975   0.241
85788W        W51015  20.084   2.162   2.282
85789W        W51016  26.053  38.810  11.712
85790W        W51017  25.609  33.192   2.249
85791W        W51018  36.670  44.831   1.944
85792W        W51019  31.444  40.810   4.577
85793W        W51020  27.177  30.928   3.083
85794W        W51021  12.311  30.886  10.413
85795W        W51022  43.450   5.020   2.224
85796W        W51023  35.147  25.048   5.054
85797W        W51024  43.383  42.361   1.891
85798W        W51025  41.385  30.662   0.630
85799W        W51026  26.598  38.922  14.865
85800W        W51027   1.247  36.907  10.385
85801W        W51028  13.633   7.819  13.016
85802W        W51029  21.506  42.781   3.153
85803W        W51030   8.524  18.817   4.249
85804W        W51031  41.392   0.671  13.419
85805W        W51032  41.340  14.032   0.361
85806W        W51033  42.078  42.019   1.771
85807W        W51034  44.720   4.726   2.488
85808W        W51035   1.930   0.226   3.767
85809W        W51036  36.895  20.749   2.749
85810W        W51037   0.242  42.250   1.481
85811W        W51038  31.214  12.055  11.220
85812W        W51039  44.224   4.372   4.524
85813W        W51040  22.919  25.389  12.447
85814W        W51041  37.989  40.347   2.138
85815W        W51042  18.846  39.379  14.400
85816W        W51043  13.769   7.664   0.762
85817W        W51044  37.274  12.668  14.237
85818W        W51045  25.871   2.385  12.592
85819W        W51046  19.647   9.550  14.819
85820W        W51047  22.229   9.616  12.529
85821W        W51048  13.748  20.635   2.373
85822W        W51049   2.242  43.992   3.460
85823W        W51050   3.412  36.558   3.711
85824W        W51051  32.455  23.830   2.506
85825W        W51052  34.927  12.176   1.968
85826W        W51053   1.267   1.103  12.017
85827W        W51054  17.279  28.472  13.390
85828W        W51055   9.859   0.881   1.873
85829W        W51056  35.694  43.823  14.441
85830W        W51057   9.460   7.712  14.893
85831W        W51058   1.243   3.496  11.653
85832W        W51059  33.076   1.495   1.668
85833W        W51060  17.589  18.307   1.183
85834W        W51061   8.846  38.608  11.284
85835W        W51062  38.788  34.155   0.706
85836W        W51063  33.726  28.268  12.001
85837W        W51064  14.147  16.684   2.297
85838W        W51065  39.136   1.794  11.192
85839W        W51066  41.908  31.149  13.436
85840W        W51067   0.742   2.626  12.904
85841W        W51068  30.159  30.650  10.640
85842W        W51069  21.106   3.507  12.459
85843W        W51070  40.088  31.636  13.953
85844W        W51071  23.036  37.882  12.895
85845W        W51072  15.898  36.644   4.256
85846W        W51073   1.886  40.374  14.281
85847W        W51074  36.166  22.176  11.114
85848W        W51075  35.205   4.456  12.467
85849W        W51076  20.668  39.126  13.912
85850W        W51077  12.759  18.838  14.387
85851W        W51078  16.791  33.835   0.748
85852W        W51079  11.356  28.599   0.774
85853W        W51080  11.148  36.222  11.620
85854W        W51081   4.999  21.218   1.759
85855W        W51082  14.622  39.978   3.576
85856W        W51083  32.162  17.018  11.489
85857W        W51084  23.976  43.778   1.052
85858W        W51085  35.761  10.622   3.425
85859W        W51086  37.392  39.477   1.197
85860W        W51087  29.827   2.472  11.144
85861W        W51088  36.480  31.323   0.624
85862W        W51089  25.127  33.744   0.267
85863W        W51090  35.592   5.787   1.347
85864W        W51091  42.031  44.819  12.387
85865W        W51092   7.913   4.650  11.974
85866W        W51093   8.155  38.811   4.738
85867W        W51094  29.038  40.727  10.588
85868W        W51095   2.760   0.453  10.745
85869W        W51096  35.575  35.473  12.842
85870W        W51097  25.490  21.756  10.764
85871W        W51098  28.361  12.955   5.427
85872W        W51099  22.142  17.596  13.876
85873W        W51100  34.944  40.020  11.891
85874W        W51101  14.626  16.122   0.279
85875W        W51102  42.349  20.056  10.164
85876W        W51103  21.618  13.382   1.411
85877W        W51104  34.849  39.653  12.909
85878W        W51105  15.835  13.633  12.023
85879W        W51106  32.075  23.138  10.660
85880W        W51107   5.714   4.773   0.765
85881W        W51108  39.974  29.386   1.501
85882W        W51109  41.433  31.624  13.129
85883W        W51110  38.319  27.489   3.131
85884W        W51111  26.927   5.367  10.608
85885W        W51112   4.234   2.341   1.679
85886W        W51113   0.679  42.451  11.099
85887W        W51114  34.870  43.343  14.757
85888W        W51115  13.653   9.304  11.472
85889W        W51116  41.811  35.494  11.644
85890W        W51117   4.287  16.343   1.867
85891W        W51118  29.367   7.112   3.802
85892W        W51119  13.295  30.817   1.797
85893W        W51120  39.752  19.747   2.823
85894W        W51121   7.445  26.916  13.605
85895W        W51122  37.881  28.288  12.470
85896W        W51123   7.122   6.738  12.008
85897W        W51124  24.601  24.493   3.234
85898W        W51125   5.230  33.619   2.720
85899W        W51126   1.720  24.018  14.552
85900W        W51127  44.638  32.269   0.259
85901W        W51128  25.046  39.729  12.414
85902W        W51129  14.177  30.623  11.047
85903W        W51130  37.619  16.031  13.018
85904W        W51131  25.228  41.092   1.293
85905W        W51132  27.954  24.620  11.632
85906W        W51133  29.517  24.815   2.949
85907W        W51134  10.597  34.662  12.964
85908W        W51135   4.440  31.042   4.699
85909W        W51136  31.237  27.793   5.020
85910W        W51137  24.806  12.931   2.351
85911W        W51138  36.056   4.829   3.047
85912W        W51139  13.791  40.291   3.749
85913W        W51140  17.119  21.077  11.129
85914W        W51141   8.218  26.990   4.557
85915W        W51142  42.478  30.451   1.972
85916W        W51143  36.868  20.705  10.565
85917W        W51144  41.472  44.749  13.442
85918W        W51145  43.400   3.775   3.737
85919W        W51146   0.847  32.869   0.391
85920W        W51147  29.503  33.058  10.633
85921W        W51148  35.544   4.045  14.591
85922W        W51149  21.063  25.238  12.682
85923W        W51150  43.757   7.720  13.849
85924W        W51151  39.340  31.092  11.044
85925W        W51152   8.775  11.328  13.087
85926W        W51153  39.509  17.012   4.571
85927W        W51154  34.133  26.995   0.847
85928W        W51155  18.816  24.931  10.084
85929W        W51156  14.286  42.759   0.470
85930W        W51157  38.241  35.073  14.036
85931W        W51158  41.938  27.470   3.736
85932W        W51159  32.945  16.164  12.905
85933W        W51160  11.871  37.586   3.025
85934W        W51161  22.158  31.166   2.928
85935W        W51162  24.495  11.197   0.003
85936W        W51163  10.683  12.343  13.913
85937W        W51164   0.331  12.127   3.223
85938W        W51165  28.170   8.595  10.245
85939W        W51166  36.831  33.682   2.606
85940W        W51167  22.573  19.287   2.723
85941W        W51168   4.194  16.606  14.081
85942W        W51169  23.843  14.854  12.385
85943W        W51170  19.627  10.734  13.301
85944W        W51171  28.397  42.950   9.632
85945W        W51172  29.833  30.499   1.745
85946W        W51173  40.776  39.270   1.646
85947W        W51174  26.274  31.480  12.430
85948W        W51175  36.385  26.845  10.986
85949W        W51176   1.534  33.496  12.406
85950W        W51177  22.677  37.800  12.298
85951W        W51178   2.514  28.468  13.784
85952W        W51179   0.507  30.649   2.722
85953W        W51180  15.759  19.131  10.533
85954W        W51181  38.604  24.371  11.567
85955W        W51182  27.203   4.086   3.174
85956W        W51183   6.018  30.746   2.906
85957W        W51184  26.619  39.431  14.917
85958W        W51185  35.971  33.990  13.090
85959W        W51186  19.847  31.078   1.437
85960W        W51187  21.076  26.208   3.259
85961W        W51188  27.117  36.774   0.251
85962W        W51189  41.949  15.688  10.838
85963W        W51190  30.829  10.401   2.474
85964W        W51191   9.281  42.059   4.648
85965W        W51192  32.447  40.563   0.037
85966W        W51193   9.047  13.176   3.614
85967W        W51194   5.047  19.069   0.805
85968W        W51195  24.192   7.874  13.946
85969W        W51196   7.301   9.152   1.655
85970W        W51197  18.855   8.532  12.460
85971W        W51198  14.396  44.969  13.391
85972W        W51199  35.949  13.206  10.850
85973W        W51200  12.072  24.689   4.191
85974W        W51201  42.072  10.833  12.579
85975W        W51202  27.219  14.703  13.434
85976W        W51203  17.742  31.618   3.164
85977W        W51204  15.688  42.297   3.729
85978W        W51205  19.182  25.781   0.777
85979W        W51206  33.885  22.129  10.667
85980W        W51207  15.505   4.246  12.976
85981W        W51208  29.779  22.581  11.539
85982W        W51209  17.319  43.880   1.621
85983W        W51210  12.087   1.906  12.960
85984W        W51211   4.407  32.567   3.646
85985W        W51212  21.201  14.397  11.554
85986W        W51213  12.430   5.275  14.088
85987W        W51214  22.860  33.386  10.737
85988W        W51215  41.878  35.119   2.659
85989W        W51216   9.930  29.194  11.075
85990W        W51217  31.543  27.547  11.561
85991W        W51218  22.708  26.194  12.104
85992W        W51219   9.238  35.433  12.158
85993W        W51220  23.820   5.219  12.055
85994W        W51221  13.332  42.047  13.373
85995W        W51222  10.656  36.495  10.902
85996W        W51223  29.913  31.376  11.130
85997W        W51224  26.136   8.429   0.927
85998W        W51225  37.199  31.972   3.191
85999W        W51226  29.703  42.965   2.301
86000W        W51227  44.684  31.369  12.792
86001W        W51228  26.951  23.187   4.699
86002W        W51229  24.537  18.379  12.026
86003W        W51230  27.137  23.385  12.483
86004W        W51231  30.385  42.820   0.871
86005W        W51232  20.044   0.702  11.428
86006W        W51233  10.299  28.450  10.726
86007W        W51234   9.305   4.504   0.751
86008W        W51235  35.944   6.216   3.795
86009W        W51236  28.390  21.557   3.130
86010W        W51237   9.267  20.060  11.458
86011W        W51238  17.490  41.410   0.791
86012W        W51239  24.025  19.046   4.645
86013W        W51240  43.294   3.781  12.190
86014W        W51241   7.847  36.851  12.446
86015W        W51242  13.627  17.781   2.225
86016W        W51243  27.039  42.402   0.558
86017W        W51244   1.078   0.133   9.849
86018W        W51245  21.280  17.684  13.527
86019W        W51246  36.347  19.350   1.189
86020W        W51247  16.632  23.874   0.324
86021W        W51248  40.014  18.281   3.664
86022W        W51249   5.414  16.280   4.290
86023W        W51250  14.969   5.922  11.542
86024W        W51251  36.693  12.353  14.840
86025W        W51252  34.703  18.323  10.770
86026W        W51253  18.811  23.059   0.436
86027W        W51254  13.104  30.323   1.846
86028W        W51255  39.535  36.567   1.550
86029W        W51256  24.288  35.882   2.336
86030W        W51257   3.781   6.348  13.360
86031W        W51258   4.638   8.084  13.526
86032W        W51259  26.091  40.657  10.501
86033W        W51260  43.374   3.235   1.850
86034W        W51261  28.586   9.644  14.529
86035W        W51262  18.700   8.733  10.809
86036W        W51263  41.395   4.890  14.516
86037W        W51264   2.857  42.319   5.677
86038W        W51265  10.305  15.577  12.034
86039W        W51266  22.522  11.761   4.141
86040W        W51267  23.239  28.266  10.720
86041W        W51268  10.778  19.285  14.520
86042W        W51269  40.496  15.206   3.266
86043W        W51270  33.657  11.055   4.582
86044W        W51271  15.623  32.943   1.246
86045W        W51272  43.153  44.496  12.347
86046W        W51273  39.859  34.394   3.739
86047W        W51274  39.555  18.176   4.146
86048W        W51275   3.930  30.523  10.658
86049W        W51276  34.094  36.838   2.209
86050W        W51277  35.158  16.251   4.230
86051W        W51278   8.739  12.120   0.783
86052W        W51279  19.809  38.912   4.489
86053W        W51280  33.942  15.739  11.922
86054W        W51281   4.236   8.351   0.252
86055W        W51282  37.062   6.835   3.124
86056W        W51283   1.274  10.784  11.437
86057W        W51284  26.764   7.632  13.067
86058W        W51285  20.336  18.559  12.027
86059W        W51286  42.202   0.606  14.435
86060W        W51287  14.162  42.902   3.286
86061W        W51288  40.450  35.537  12.854
86062W        W51289  27.267  18.173  12.238
86063W        W51290  44.461  42.276  10.591
86064W        W51291  33.557  42.005   3.150
86065W        W51292   3.368   5.036   0.374
86066W        W51293  24.163   9.391   2.390
86067W        W51294  27.320  41.068   4.053
86068W        W51295  43.724   9.798   3.137
86069W        W51296  37.353  31.934  13.990
86070W        W51297  34.899   8.808   2.693
86071W        W51298  27.222  14.787  11.497
86072W        W51299  34.523  43.518  14.403
86073W        W51300  38.120   0.351  13.040
86074W        W51301  21.484   1.361   2.393
86075W        W51302  37.075   1.173   0.302
86076W        W51303  10.694  31.373  10.575
86077W        W51304  12.689  42.971   3.574
86078W        W51305  38.826   7.354   1.347
86079W        W51306  31.878  18.938   2.786
86080W        W51307   5.539  24.813  13.433
86081W        W51308   4.742   1.403   1.686
86082W        W51309  39.409   5.471  12.109
86083W        W51310   6.726  44.784   1.236
86084W        W51311  34.706  10.689   2.602
86085W        W51312  23.110   1.976   1.653
86086W        W51313  22.536  14.810  13.054
86087W        W51314  17.495   8.374  10.884
86088W        W51315  39.505  14.894  10.903
86089W        W51316  15.883  44.053   1.117
86090W        W51317   9.402  44.021  13.577
86091W        W51318  29.848  24.571  14.514
86092W        W51319  23.132  14.952   2.813
86093W        W51320  23.171  43.033  14.498
86094W        W51321  32.917  39.516   1.984
86095W        W51322  10.912  24.883  13.911
86096W        W51323  33.082  40.246   0.873
86097W        W51324  35.665   0.513   2.318
86098W        W51325  29.970  42.741  11.136
86099W        W51326   2.350  27.572  11.701
86100W        W51327  44.352  36.865  12.644
86101W        W51328  31.090  20.080  13.515
86102W        W51329  33.530   6.153   1.738
86103W        W51330  10.384  22.538   4.590
86104W        W51331  10.187  21.157  10.629
86105W        W51332  34.536  36.381   3.701
86106W        W51333  35.288  17.723   2.573
86107W        W51334  28.525   0.321  11.949
86108W        W51335   4.464   8.180  12.372
86109W        W51336  18.676  14.674   3.701
86110W        W51337  12.286  15.771   4.740
86111W        W51338  31.153  25.347  10.542
86112W        W51339  16.730   5.758  12.834
86113W        W51340  26.225  37.068  13.136
86114W        W51341  40.043  32.538   1.523
86115W        W51342  37.898  36.978   0.152
86116W        W51343   9.844  33.321  12.582
86117W        W51344  29.436  27.105  13.351
86118W        W51345  22.451  37.402  13.656
86119W        W51346   5.260  14.352  13.945
86120W        W51347   6.173  22.930  12.944
86121W        W51348  25.223  25.804   4.513
86122W        W51349   9.227  11.187  12.918
86123W        W51350  30.536  23.461   1.301
86124W        W51351  31.456  17.123   2.660
86125W        W51352  41.718  13.438  11.078
86126W        W51353  32.422  38.640   1.423
86127W        W51354  21.063   5.139  13.421
86128W        W51355  27.705   5.787  14.956
86129W        W51356  44.307   2.004  12.440
86130W        W51357  32.863  10.833  11.775
86131W        W51358  27.044  24.308  11.701
86132W        W51359   4.205  34.187   0.840
86133W        W51360  42.389   9.371  14.475
86134W        W51361   2.960  19.555   3.153
86135W        W51362  15.811  18.313  11.929
86136W        W51363   8.631  15.059   3.629
86137W        W51364   4.619  30.037   4.958
86138W        W51365  22.639  28.336   3.625
86139W        W51366   0.339  37.537   0.379
86140W        W51367  40.507  10.108  14.936
86141W        W51368  28.481  28.396   4.229
86142W        W51369   4.970   6.265  13.909
86143W        W51370  29.087  29.104   1.128
86144W        W51371  13.290  20.999   0.771
86145W        W51372  16.222  40.690   1.921
86146W        W51373  33.474   4.481  14.847
86147W        W51374  25.679  16.530   4.958
86148W        W51375  32.304  41.067  14.979
86149W        W51376  21.847   3.154  13.428
86150W        W51377   3.011   7.203  10.826
86151W        W51378   2.987  37.545   3.568
86152W        W51379  35.041  15.478  11.661
86153W        W51380   8.777  38.854   4.107
86154W        W51381   4.908  26.968  13.370
86155W        W51382   8.806   2.159   4.654
86156W        W51383  19.562  15.063  14.247
86157W        W51384   5.398  36.816   0.941
86158W        W51385  17.347   8.184   0.392
86159W        W51386  35.589  35.087   4.012
86160W        W51387  17.960   3.939   0.403
86161W        W51388  33.238  42.838   4.998
86162W        W51389  24.536  19.942  12.984
86163W        W51390  16.297   1.394   4.807
86164W        W51391  36.633  30.817  13.102
86165W        W51392  38.512   3.515  12.375
86166W        W51393   8.082  30.504   4.198
86167W        W51394   9.786   6.353  14.065
86168W        W51395  32.453  24.280   3.352
86169W        W51396  25.137   8.443   2.201
86170W        W51397  25.180  34.025  10.653
86171W        W51398  30.177  21.736   0.345
86172W        W51399  41.892  16.619   0.309
86173W        W51400  44.095   4.732   4.139
86174W        W51401  42.448  35.720  12.654
86175W        W51402  26.146  24.076  14.753
86176W        W51403  18.929   9.862   3.141
86177W        W51404  23.743  30.480  12.046
86178W        W51405  40.278  42.524  12.729
86179W        W51406  41.209   8.737  12.068
86180W        W51407   1.943  17.776   9.880
86181W        W51408  38.743  33.455  12.431
86182W        W51409  28.233   9.594   3.876
86183W        W51410  25.446  29.347   1.150
86184W        W51411   0.701  44.473  11.968
86185W        W51412   6.701  13.047   3.248
86186W        W51413  14.115  13.500  11.158
86187W        W51414  23.114  15.522   4.038
86188W        W51415  20.227  29.444  10.966
86189W        W51416   3.747  37.757  12.081
86190W        W51417   2.353  44.333  13.392
86191W        W51418   4.947  33.138  13.076
86192W        W51419  17.763  12.636   0.900
86193W        W51420  22.591   6.626  12.824
86194W        W51421  39.906   6.449   9.801
86195W        W51422  38.016   9.728   2.845
86196W        W51423  34.161  18.734  12.528
86197W        W51424   4.820   1.251  14.924
86198W        W51425  23.530  20.573   1.980
86199W        W51426  20.948   9.190   0.888
86200W        W51427   1.919  20.685   0.423
86201W        W51428  17.586  30.089   3.510
86202W        W51429  10.401   7.745   0.811
86203W        W51430  37.385   5.097   2.101
86204W        W51431   7.321  35.649  14.458
86205W        W51432  35.547  14.838   0.886
86206W        W51433  34.980  13.030  10.572
86207W        W51434  29.136  42.533   4.233
86208W        W51435  30.353   2.934   2.744
86209W        W51436   6.091   5.623  11.510
86210W        W51437  26.605  34.908  10.973
86211W        W51438  29.261  22.528   1.459
86212W        W51439  31.490   0.439  13.823
86213W        W51440  10.417  44.946   3.563
86214W        W51441   4.415  37.813  14.338
86215W        W51442   0.955  39.321   2.743
86216W        W51443  15.165  25.664   3.996
86217W        W51444  41.244  13.391   1.993
86218W        W51445   2.347  27.624  10.745
86219W        W51446  34.464   4.000  12.547
86220W        W51447   2.668  15.241   3.192
86221W        W51448  10.606  39.527  14.378
86222W        W51449  32.524  44.684  11.914
86223W        W51450  11.210   7.217  10.682
86224W        W51451   7.680  23.067   0.465
86225W        W51452  10.074  22.313   1.963
86226W        W51453   0.906   2.939   9.982
86227W        W51454  21.835  29.684   1.143
86228W        W51455   8.698  39.371   4.106
86229W        W51456   1.884  19.036  11.039
86230W        W51457  31.937  38.582   4.067
86231W        W51458   9.817  38.432   2.327
86232W        W51459   9.859   4.416  13.411
86233W        W51460  15.763   0.760   5.309
86234W        W51461  44.986   1.384  12.351
86235W        W51462  42.254  28.492  13.238
86236W        W51463  42.054   4.473  12.030
86237W        W51464   7.768  21.569  11.495
86238W        W51465  15.080  15.501  13.456
86239W        W51466  20.753  16.908   0.287
86240W        W51467  27.794  18.681   1.881
86241W        W51468  21.326  27.478  12.666
86242W        W51469  35.964  15.298  11.506
86243W        W51470  37.255  16.113  13.934
86244W        W51471  29.043  41.946  12.773
86245W        W51472   7.637   7.852  12.996
86246W        W51473  39.339  30.375   0.351
86247W        W51474  29.737  34.903  13.705
86248W        W51475  39.892  37.885  12.030
86249W        W51476  26.112  35.779   0.150
86250W        W51477  27.224  41.090  14.827
86251W        W51478  33.428  41.440   4.096
86252W        W51479  24.122  34.760   0.935
86253W        W51480  44.464  16.366  13.093
86254W        W51481  43.902   9.648  10.360
86255W        W51482  22.517  26.553   1.446
86256W        W51483  28.521  32.039  14.541
86257W        W51484   8.257  44.275  13.590
86258W        W51485  34.509   8.133  14.106
86259W        W51486  13.264  38.344  12.905
86260W        W51487  23.600  30.045   3.992
86261W        W51488  15.250   5.681  10.715
86262W        W51489   9.891  19.551  13.212
86263W        W51490  40.841  37.308   0.271
86264W        W51491  43.501   7.797   0.414
86265W        W51492   7.840  35.850  13.238
86266W        W51493  24.219  31.612   4.551
86267W        W51494   2.495  34.430   3.874
86268W        W51495  40.012  37.132   3.788
86269W        W51496  40.335  24.559  11.607
86270W        W51497  42.273   6.522  11.969
86271W        W51498  36.947  16.458   3.564
86272W        W51499  25.340  34.777  12.998
86273W        W51500  10.915  25.962   0.320
86274W        W51501  33.118  38.767   3.760
86275W        W51502   3.378  16.550  13.765
86276W        W51503  11.584   2.968   1.233
86277W        W51504   1.048  34.362  11.608
86278W        W51505  42.305  22.203   2.305
86279W        W51506  18.689  20.796  13.065
86280W        W51507  19.203  39.261   1.216
86281W        W51508  29.679   2.928   4.168
86282W        W51509  13.434  26.183   2.484
86283W        W51510  41.315  29.932   1.950
86284W        W51511  16.856  42.046   1.026
86285W        W51512  39.384  27.933  10.716
86286W        W51513  21.831  21.603  13.369
86287W        W51514  13.185  30.429  11.575
86288W        W51515  25.889  37.729   3.038
86289W        W51516  11.843  16.854  11.971
86290W        W51517   9.270  26.664  13.429
86291W        W51518   0.951  17.300  14.872
86292W        W51519  25.675   5.748   3.232
86293W        W51520  29.673  39.079   1.957
86294W        W51521  22.543   0.481   1.280
86295W        W51522   8.680  23.719   2.657
86296W        W51523   0.012  28.259   4.917
86297W        W51524  40.945   2.430  14.224
86298W        W51525  40.528   7.787  11.931
86299W        W51526  31.477  36.172   4.096
86300W        W51527  43.094  24.155   5.063
86301W        W51528  16.639  36.572  12.389
86302W        W51529  13.106  21.631  12.485
86303W        W51530  41.971   7.141  10.676
86304W        W51531  32.177  12.257  11.087
86305W        W51532  27.126  26.187   0.997
86306W        W51533  23.408  44.790   0.423
86307W        W51534  24.493  14.337   3.336
86308W        W51535  16.966   6.180  12.584
86309W        W51536  41.852  42.061   0.219
86310W        W51537  42.262  43.009   5.035
86311W        W51538  17.513  19.038  13.347
86312W        W51539  26.601  21.828   3.694
86313W        W51540  23.121  27.148   3.930
86314W        W51541  13.808  21.512   2.733
86315W        W51542  12.685  39.148  11.574
86316W        W51543  30.994  22.691   4.525
86317W        W51544  25.865  19.129  13.408
86318W        W51545  29.496  33.215   4.627
86319W        W51546  12.999  40.445   1.392
86320W        W51547  37.070   1.140   2.678
86321W        W51548   8.151  18.009   1.353
86322W        W51549  17.138   8.926   2.744
86323W        W51550  14.254  41.489   2.306
86324W        W51551   7.454  20.230   1.875
86325W        W51552  32.529   1.355  12.136
86326W        W51553  19.166  30.451   2.758
86327W        W51554  37.641   7.136  11.232
86328W        W51555  16.865  31.062  12.396
86329W        W51556  11.577   3.919  14.568
86330W        W51557  18.638  42.873  14.020
86331W        W51558   8.635  35.071   3.412
86332W        W51559   4.925  23.739  11.206
86333W        W51560  13.350  17.138   0.189
86334W        W51561  30.182  44.852  12.116
86335W        W51562  10.788  44.272  10.259
86336W        W51563  15.308  40.329  10.733
86337W        W51564  43.868   1.463  10.710
86338W        W51565   6.900   7.771   0.075
86339W        W51566  21.575  33.678   4.987
86340W        W51567  11.702   4.322  13.819
86341W        W51568  37.853  38.410  12.002
86342W        W51569  31.105  40.823  11.338
86343W        W51570   1.842  32.498   4.580
86344W        W51571  23.193   8.362   4.578
86345W        W51572  25.874  39.427  12.347
86346W        W51573  28.357  12.016  14.918
86347W        W51574  22.093  25.597   1.973
86348W        W51575  37.702  22.073   3.611
86349W        W51576  16.687   7.529  10.892
86350W        W51577   2.997  36.883   0.814
86351W        W51578  41.243  33.622   3.822
86352W        W51579   0.539  28.659  12.948
86353W        W51580  26.951  36.441  14.388
86354W        W51581   0.759  30.007  14.992
86355W        W51582  26.121  32.346  11.543
86356W        W51583  13.918  10.226  12.774
86357W        W51584  34.380   4.898  12.433
86358W        W51585  18.046   4.922   2.422
86359W        W51586  27.545  24.773  14.625
86360W        W51587   4.318  35.828   4.572
86361W        W51588  35.111   1.749  13.370
86362W        W51589  37.594  21.225   3.135
86363W        W51590  33.176  19.702   0.949
86364W        W51591  23.591  37.393  11.905
86365W        W51592  16.243   9.995  11.461
86366W        W51593  18.291  41.596   3.254
86367W        W51594  27.719  41.351  11.452
86368W        W51595   6.955  12.302   2.872
86369W        W51596  42.777  12.851   3.521
86370W        W51597  36.832  22.265   3.446
86371W        W51598  10.287  26.929  13.343
86372W        W51599  43.341   0.328   0.930
86373W        W51600  31.709  26.115   1.326
86374W        W51601  31.374  39.514   1.926
86375W        W51602   1.170  42.491   2.327
86376W        W51603  36.463   4.872  11.443
86377W        W51604  11.453   7.145  13.985
86378W        W51605  21.803  35.563   1.206
86379W        W51606  24.108  43.004  11.705
86380W        W51607  34.914  12.588  12.769
86381W        W51608   0.033  40.268  12.507
86382W        W51609  14.074  39.225   3.600
86383W        W51610   0.138  40.050   3.760
86384W        W51611  28.258  42.939   4.517
86385W        W51612   0.973   2.410  12.423
86386W        W51613  41.267  19.520   1.245
86387W        W51614  29.925  33.083  14.196
86388W        W51615  10.425  20.184  12.143
86389W        W51616  37.367  14.183   0.643
86390W        W51617  40.439  29.525   1.703
86391W        W51618  10.800  39.812   2.192
86392W        W51619   2.663  40.777  12.800
86393W        W51620  36.943  15.183   3.511
86394W        W51621  22.845  30.514  14.800
86395W        W51622  29.274   7.235   1.976
86396W        W51623  36.000  17.764   2.257
86397W        W51624  17.506  27.660  12.850
86398W        W51625  30.935  14.711   3.730
86399W        W51626  12.306   2.146  13.383
86400W        W51627  32.703  40.866   4.996
86401W        W51628  14.117   3.644   4.115
86402W        W51629  38.050   8.178  13.127
86403W        W51630  40.961  25.466  12.491
86404W        W51631  37.728  38.793   3.002
86405W        W51632   1.913  43.356  14.167
86406W        W51633  36.327  15.528  12.944
86407W        W51634  35.552  41.279   2.624
86408W        W51635  29.170  10.696  11.483
86409W        W51636  14.751  20.697  12.560
86410W        W51637  21.291  36.923  14.893
86411W        W51638  20.728  29.300   2.719
86412W        W51639  15.940   6.679  11.215
86413W        W51640  30.628  37.584  12.569
86414W        W51641   8.630  20.665   1.491
86415W        W51642  32.991   0.930   0.270
86416W        W51643  30.536  29.353   0.747
86417W        W51644  36.341  12.879  12.523
86418W        W51645  38.491  36.635   4.067
86419W        W51646  16.372   6.954  12.500
86420W        W51647  25.552  33.932   3.766
86421W        W51648  18.578  35.260  14.096
86422W        W51649  25.655  17.662  13.529
86423W        W51650   7.623  19.640  12.958
86424W        W51651  39.316  32.139   3.925
86425W        W51652  29.746  13.914   0.510
86426W        W51653  19.994  18.486   9.949
86427W        W51654  33.957   0.385  10.799
86428W        W51655   2.228   0.356   0.709
86429W        W51656  28.013   1.467   1.303
86430W        W51657  24.511  39.325  10.837
86431W        W51658   0.652  11.435   2.723
86432W        W51659   1.497  35.733   2.282
86433W        W51660  39.138  27.389   5.113
86434W        W51661  22.509  11.088   1.122
86435W        W51662  42.347  40.554   3.187
86436W        W51663  39.476  18.535   0.268
86437W        W51664   7.390   5.484  13.751
86438W        W51665  36.265   2.229   4.720
86439W        W51666  41.836  18.909  12.562
86440W        W51667  10.663   4.497  11.257
86441W        W51668  30.524  39.559   0.564
86442W        W51669  25.542  28.687   3.386
86443W        W51670  24.169  36.961   4.177
86444W        W51671  30.428  43.733   0.352
86445W        W51672  38.824   3.915   1.877
86446W        W51673   2.000   9.213   4.995
86447W        W51674  34.069  27.937   3.422
86448W        W51675  39.078  37.858  14.385
86449W        W51676  30.814  40.262   0.127
86450W        W51677  37.963  41.551  11.148
86451W        W51678  25.545  21.799   3.058
86452W        W51679  44.345  17.831   3.209
86453W        W51680  21.612  35.651   4.221
86454W        W51681   3.720   0.221  14.885
86455W        W51682  15.254  41.720  11.116
86456W        W51683  18.697  12.208   1.906
86457W        W51684  11.029  29.626   2.660
86458W        W51685  43.578  38.752  11.679
86459W        W51686  40.927  15.711  14.887
86460W        W51687  44.732  23.040  13.226
86461W        W51688  18.783  21.240   3.038
86462W        W51689  42.258  25.202  14.018
86463W        W51690  27.223  33.515   2.635
86464W        W51691  36.342  30.012   4.795
86465W        W51692  37.802  35.478  14.464
86466W        W51693  34.086  41.928  12.078
86467W        W51694  33.409  26.671   0.914
86468W        W51695  43.412  36.677  14.737
86469W        W51696  16.789   4.304   0.312
86470W        W51697  25.471  16.287  13.824
86471W        W51698  27.268  36.448   4.088
86472W        W51699   5.160   3.778   2.690
86473W        W51700   0.897  38.348  12.187
86474W        W51701  11.822  41.115   1.427
86475W        W51702   4.325  27.139  10.747
86476W        W51703  17.015  22.237  14.388
86477W        W51704   9.504  32.498   1.033
86478W        W51705  22.799  31.857   2.138
86479W        W51706   6.465   8.897  10.982
86480W        W51707   0.414  27.349  14.327
86481W        W51708  15.223   1.682  10.309
86482W        W51709  22.124  11.130  11.165
86483W        W51710  22.640  31.017  13.453
86484W        W51711  16.008  35.109  14.158
86485W        W51712  36.287  14.653   3.645
86486W        W51713  19.762  16.129   3.989
86487W        W51714   0.428  44.764   4.038
86488W        W51715  35.351  28.757   4.201
86489W        W51716  35.311  19.485  13.070
86490W        W51717  27.891   9.728   3.517
86491W        W51718  37.925   5.370  10.299
86492W        W51719  39.288   8.857  12.079
86493W        W51720  38.896  15.512  10.658
86494W        W51721  38.535  12.032   2.884
86495W        W51722  30.547  38.392   4.903
86496W        W51723  39.995  24.122  11.418
86497W        W51724  34.579   5.786  14.698
86498W        W51725  14.743  28.036  11.590
86499W        W51726   3.355  13.890  14.955
86500W        W51727  38.426  31.337   2.910
86501W        W51728  18.721  22.786   0.883
86502W        W51729  38.371  40.000   3.635
86503W        W51730  23.001  36.347  10.335
86504W        W51731  31.409   1.383   0.897
86505W        W51732  26.022  21.279  14.847
86506W        W51733   3.761  15.647   0.679
86507W        W51734  17.777   8.881  10.152
86508W        W51735   1.324   2.493   2.513
86509W        W51736  27.013  12.596  14.031
86510W        W51737  42.745  18.579  13.622
86511W        W51738  34.020  24.151   0.073
86512W        W51739  39.005   1.519   4.638
86513W        W51740  42.434  29.250   2.900
86514W        W51741  36.172  34.922   2.280
86515W        W51742  10.246   0.007  11.577
86516W        W51743  32.756  40.991   1.425
86517W        W51744  26.579  31.444   2.847
86518W        W51745  24.099  42.233  14.418
86519W        W51746  18.691  15.182  12.318
86520W        W51747   6.380  18.501  14.332
86521W        W51748   8.192  24.443  11.149
86522W        W51749  42.248  36.076   3.400
86523W        W51750  44.979  34.880  11.971
86524W        W51751  42.490  27.891  13.998
86525W        W51752  10.844  21.963  14.029
86526W        W51753  13.529  18.745   0.431
86527W        W51754  39.972  29.926  12.186
86528W        W51755  35.917  36.637   4.875
86529W        W51756   3.791  38.761  10.257
86530W        W51757   5.794  34.144  13.952
86531W        W51758  26.505  16.512   4.552
86532W        W51759  34.324   8.882   1.212
86533W        W51760  32.703  18.253  13.515
86534W        W51761   9.005  32.538   0.868
86535W        W51762  41.884  16.097   4.612
86536W        W51763  41.924  25.011  12.587
86537W        W51764   6.460   9.263  12.495
86538W        W51765  24.749  28.233   4.211
86539W        W51766   9.388  40.296  13.065
86540W        W51767  10.676  41.488   0.411
86541W        W51768  44.061  10.130   2.631
86542W        W51769  33.854  36.004   1.678
86543W        W51770  19.344  44.822   3.194
86544W        W51771  17.292  39.190  11.283
86545W        W51772  24.121   9.673  12.577
86546W        W51773  36.221  31.925  10.574
86547W        W51774  17.103  44.811  12.193
86548W        W51775  25.233  28.129  11.579
86549W        W51776  44.326   9.769   2.394
86550W        W51777   9.045  39.928   3.202
86551W        W51778   1.534  16.616   0.935
86552W        W51779  17.778   8.407  11.298
86553W        W51780  11.675   6.338   9.765
86554W        W51781  43.309  37.070  12.897
86555W        W51782  25.867  21.185   4.910
86556W        W51783  38.471  26.611   1.673
86557W        W51784  16.188  25.518   3.385
86558W        W51785   8.733   2.748   2.769
86559W        W51786  34.581  41.378  10.972
86560W        W51787  20.516   5.834   0.738
86561W        W51788  40.059  35.542  11.816
86562W        W51789  17.097  13.189  10.594
86563W        W51790  18.732  14.726  12.565
86564W        W51791  39.854  36.122  11.512
86565W        W51792  25.094  17.658   4.551
86566W        W51793  34.377   8.098   1.745
86567W        W51794   0.133   0.138  12.488
86568W        W51795  31.462   1.901  10.693
86569W        W51796   2.335  24.729   4.936
86570W        W51797   3.865  12.077  14.571
86571W        W51798   7.443   4.984  11.592
86572W        W51799  44.509  41.923   2.581
86573W        W51800  31.938  32.535  12.111
86574W        W51801  14.873  26.610   1.506
86575W        W51802  21.080   7.702   0.933
86576W        W51803   3.757   8.159   0.230
86577W        W51804  12.762   4.204   0.903
86578W        W51805  24.417  42.796  11.356
86579W        W51806  30.710  22.671   1.803
86580W        W51807  13.086  39.264   3.767
86581W        W51808  36.857  25.271   3.118
86582W        W51809  40.904  30.929   1.888
86583W        W51810  38.896   7.673  11.102
86584W        W51811  14.025   6.493   3.727
86585W        W51812  32.420  11.340  11.753
86586W        W51813  33.156  19.636   2.805
86587W        W51814  35.159  15.584   4.999
86588W        W51815   3.231  13.527   1.357
86589W        W51816  32.916  21.692   1.236
86590W        W51817  33.124  23.135   1.288
86591W        W51818  32.982  10.692  11.295
86592W        W51819  37.574  25.582  12.958
86593W        W51820  17.886   9.040  11.893
86594W        W51821  36.626   3.262   3.312
86595W        W51822  35.582  13.829  12.536
86596W        W51823  41.300  39.622   1.701
86597W        W51824  26.580  12.958   4.584
86598W        W51825  20.593   8.759  12.589
86599W        W51826  26.951  35.064  14.913
86600W        W51827   3.837  18.072  11.159
86601W        W51828   3.908  24.050   4.581
86602W        W51829   6.473  44.868  12.766
86603W        W51830   9.417  29.887   1.829
86604W        W51831  30.818  34.446   2.864
86605W        W51832  12.314  25.634   1.863
86606W        W51833  18.115  12.262  10.681
86607W        W51834   4.177  24.672  10.683
86608W        W51835   4.492   1.704  11.423
86609W        W51836  30.918  24.705   2.854
86610W        W51837  33.551  34.317  12.073
86611W        W51838  28.880  33.874  14.537
86612W        W51839  31.609  23.703  11.186
86613W        W51840  21.318   2.737  12.516
86614W        W51841   2.664  18.603   2.129
86615W        W51842   3.934   6.304   1.379
86616W        W51843  43.026  10.721  13.984
86617W        W51844  21.627  28.186   4.499
86618W        W51845  28.049  14.983  14.776
86619W        W51846  13.377  24.634  10.944
86620W        W51847  12.270  13.731   1.419
86621W        W51848  13.921   4.756  12.252
86622W        W51849  41.299  17.316  12.096
86623W        W51850  36.566  34.977   0.521
86624W        W51851  34.367  14.081  14.112
86625W        W51852   3.460   8.871  14.858
86626W        W51853   8.019  30.875   0.100
86627W        W51854  13.403  30.151   0.739
86628W        W51855  38.533  31.077  13.316
86629W        W51856  23.549  32.395   3.594
86630W        W51857   9.698  26.257  12.041
86631W        W51858  23.475   7.916   2.922
86632W        W51859  41.325  38.713  14.396
86633W        W51860  42.776  10.913  14.407
86634W        W51861  33.117  30.645  12.035
86635W        W51862  25.666  27.541   1.072
86636W        W51863  29.735  27.457   0.077
86637W        W51864  32.044  16.792   1.862
86638W        W51865  16.169   6.688  14.898
86639W        W51866  38.297  38.982  12.885
86640W        W51867  19.018   1.936   0.670
86641W        W51868  17.658  30.526  14.203
86642W        W51869  16.723  36.702   4.091
86643W        W51870  39.998  19.728  12.542
86644W        W51871  32.520  39.490   1.386
86645W        W51872  13.301  28.234  11.622
86646W        W51873  15.893  30.199   0.124
86647W        W51874  23.655  41.892   3.783
86648W        W51875  42.722  34.564  10.740
86649W        W51876  22.958  28.672  10.556
86650W        W51877  15.584  32.668   2.779
86651W        W51878  35.208  23.827  14.846
86652W        W51879  36.986  26.994   1.983
86653W        W51880   9.626   2.201  11.449
86654W        W51881   0.935  33.045  13.917
86655W        W51882  14.843  40.664  11.814
86656W        W51883  36.558   4.548  13.903
86657W        W51884  44.563  23.161   3.381
86658W        W51885   4.020  15.595   0.218
86659W        W51886  30.321  16.031  12.963
86660W        W51887   5.943  28.930   0.257
86661W        W51888  19.618  21.158  12.642
86662W        W51889  13.245  37.034   0.392
86663W        W51890  21.051  43.214  10.681
86664W        W51891  15.471  25.518  12.980
86665W        W51892  31.085  41.463   3.653
86666W        W51893  38.110  19.538  14.025
86667W        W51894  33.523   1.581   4.660
86668W        W51895  36.082  44.519  13.825
86669W        W51896  27.052  35.136   4.946
86670W        W51897  40.631  22.013  13.571
86671W        W51898   3.945  34.369   1.760
86672W        W51899  17.217  41.077  13.051
86673W        W51900  32.391  12.089   4.087
86674W        W51901  44.748  35.889   2.436
86675W        W51902  32.321   5.321   3.693
86676W        W51903  17.318   2.695  12.508
86677W        W51904  26.031  42.829  14.260
86678W        W51905  44.959  15.183  11.994
86679W        W51906   0.825  42.143   1.763
86680W        W51907  10.751   8.197   2.385
86681W        W51908  36.486  21.034  13.374
86682W        W51909  10.189  41.321  14.502
86683W        W51910  12.087  22.832   3.889
86684W        W51911   3.725  13.185   1.660
86685W        W51912  20.547  14.602   2.888
86686W        W51913  16.421  12.033   1.277
86687W        W51914  19.962  12.916  12.529
86688W        W51915  24.571   6.435  14.561
86689W        W51916  29.224  35.857  10.689
86690W        W51917  33.161   1.756   0.684
86691W        W51918  44.952  22.299   4.043
86692W        W51919  24.039  34.435   2.445
86693W        W51920  17.553  24.383   0.138
86694W        W51921  25.178  18.632   4.223
86695W        W51922  30.717  37.187   0.239
86696W        W51923  21.581  30.932  14.607
86697W        W51924  27.469  42.777  11.159
86698W        W51925  37.257  40.147   4.785
86699W        W51926   6.866   0.742   5.695
86700W        W51927  42.986  18.125   1.800
86701W        W51928  20.512  37.334   3.335
86702W        W51929  18.157  22.052  13.455
86703W        W51930  26.895  12.747   4.177
86704W        W51931  31.605  10.152  12.200
86705W        W51932  36.365  17.927   3.404
86706W        W51933   6.769   2.286  14.663
86707W        W51934  13.281  34.641  13.957
86708W        W51935  21.628  11.647  12.610
86709W        W51936  10.279   1.090   0.369
86710W        W51937  25.934  11.306   0.615
86711W        W51938  36.768  24.191  13.273
86712W        W51939  22.754  41.402  10.837
86713W        W51940   1.179  23.080   3.702
86714W        W51941  31.204  23.661   5.064
86715W        W51942  43.313  35.005  13.831
86716W        W51943  18.017  27.987   4.935
86717W        W51944  39.384  22.634   2.523
86718W        W51945  18.690  41.840  14.069
86719W        W51946  14.189   9.727  14.839
86720W        W51947   9.242  33.572  14.324
86721W        W51948  24.594  37.976   3.087
86722W        W51949  31.926  39.374  11.989
86723W        W51950  35.077  17.753  13.367
86724W        W51951   2.881  37.738   4.038
86725W        W51952   8.705  14.753   0.876
86726W        W51953   3.238  41.354  11.600
86727W        W51954  34.149  37.080  13.426
86728W        W51955  21.140   6.855  10.661
86729W        W51956   1.409  14.792  10.926
86730W        W51957  17.651  13.128   2.807
86731W        W51958  17.262  29.704  14.864
86732W        W51959  20.670  24.920   0.011
86733W        W51960   7.007  43.517   2.295
86734W        W51961  43.943  40.070   1.910
86735W        W51962  19.804   8.846  10.594
86736W        W51963  15.621   3.380  13.636
86737W        W51964  21.812  24.082  13.028
86738W        W51965  24.445  40.278   4.124
86739W        W51966  18.803  36.856   3.431
86740W        W51967  18.681  39.530   1.318
86741W        W51968  39.114  36.009  13.422
86742W        W51969   0.227  42.989  12.243
86743W        W51970  11.080  35.308   2.363
86744W        W51971  22.699  28.390  13.849
86745W        W51972   5.967  14.740  13.552
86746W        W51973   4.705   6.161  12.120
86747W        W51974  14.013  17.110  14.486
86748W        W51975  17.292   5.457   3.819
86749W        W51976  40.067   8.357   1.938
86750W        W51977  36.573   4.855   2.233
86751W        W51978  12.209  26.732   4.789
86752W        W51979  27.210  40.050  14.646
86753W        W51980  22.608  26.029   4.342
86754W        W51981   7.676  40.267  14.850
86755W        W51982  37.031  40.435   3.866
86756W        W51983  13.285  23.932  13.626
86757W        W51984  39.771   9.293  13.325
86758W        W51985  38.368  10.753  14.410
86759W        W51986  36.485  18.713  10.725
86760W        W51987  43.293   6.484  11.865
86761W        W51988  42.485  27.161   0.662
86762W        W51989  19.114  31.525  13.343
86763W        W51990  15.743  40.639   2.169
86764W        W51991  16.196  43.369  14.205
86765W        W51992  31.504  24.958   1.738
86766W        W51993  14.502  43.430  10.768
86767W        W51994  22.584  21.945  12.384
86768W        W51995  37.896  23.637   3.778
86769W        W51996  42.216   8.857  12.141
86770W        W51997  37.538  37.263   0.493
86771W        W51998  32.479  26.730  13.953
86772W        W51999  12.696  31.330   0.378
86773W        W52000  41.069  29.494   0.585
86774W        W52001   2.895   7.702  14.855
86775W        W52002  17.493  31.982  13.668
86776W        W52003  43.719   6.217   2.226
86777W        W52004  30.509  31.913  10.722
86778W        W52005  27.024  39.480  10.991
86779W        W52006  22.805  36.961  14.264
86780W        W52007  11.397  40.119  11.396
86781W        W52008  20.637  41.864  12.344
86782W        W52009  22.711  23.587  10.319
86783W        W52010   6.025  20.709  11.214
86784W        W52011  23.533  40.969   1.803
86785W        W52012  43.406   7.465   5.642
86786W        W52013  28.188   6.226   3.660
86787W        W52014  38.816  30.705   2.266
86788W        W52015  34.051  20.253   0.763
86789W        W52016  27.915  32.928   0.364
86790W        W52017   5.312  29.377  13.987
86791W        W52018  13.142  27.685  13.477
86792W        W52019  21.758  25.630  13.373
86793W        W52020  42.089   8.884  12.923
86794W        W52021  21.734   8.001   1.262
86795W        W52022  19.745   1.384   2.398
86796W        W52023  23.289   3.779   3.109
86797W        W52024  21.458   4.868  13.002
86798W        W52025   8.115   7.101  13.895
86799W        W52026  36.071  23.984   2.879
86800W        W52027  16.628  36.357  14.853
86801W        W52028  31.488   1.064  14.545
86802W        W52029  40.049  18.643  11.055
86803W        W52030  29.436  40.141   0.693
86804W        W52031  44.709  40.570  14.721
86805W        W52032   1.052  23.616   4.150
86806W        W52033  41.045  28.090   4.569
86807W        W52034  12.068  17.562  12.537
86808W        W52035  19.539  21.129  12.117
86809W        W52036  28.452   4.960   0.981
86810W        W52037   3.425  17.948   0.035
86811W        W52038  24.775  42.372   2.593
86812W        W52039  37.597  27.969   3.197
86813W        W52040  27.977  44.481  14.855
86814W        W52041   8.713   1.336  13.472
86815W        W52042  37.588  44.301  13.327
86816W        W52043   9.279   4.298  10.652
86817W        W52044  14.391   1.841  14.424
86818W        W52045   4.367  37.300  14.307
86819W        W52046  40.938  29.026  13.879
86820W        W52047  41.833  10.358   1.403
86821W        W52048   1.766  16.837   1.980
86822W        W52049  15.712  15.807   1.691
86823W        W52050  12.338  16.354   4.804
86824W        W52051  31.702  39.953   1.313
86825W        W52052  42.073  26.438  11.708
86826W        W52053  19.994   7.356   1.344
86827W        W52054   0.829  16.805   0.058
86828W        W52055  34.590  26.602  12.596
86829W        W52056  33.574  18.050  13.440
86830W        W52057  14.829  41.058  13.747
86831W        W52058  13.081  28.294   9.915
86832W        W52059  21.952  16.266   3.253
86833W        W52060  33.633   0.779   0.762
86834W        W52061  30.228  41.685   0.146
86835W        W52062  39.951  34.095  13.332
86836W        W52063  16.609  25.744   0.419
86837W        W52064   8.988  37.377   1.525
86838W        W52065  10.540  18.814   4.136
86839W        W52066   2.208  28.202  14.975
86840W        W52067   3.146   7.432   0.230
86841W        W52068  12.270  15.303   2.785
86842W        W52069  41.840  32.997   3.365
86843W        W52070   9.251  33.889   4.798
86844W        W52071  34.078  32.219  13.307
86845W        W52072  18.852  11.327   0.827
86846W        W52073   0.496   5.820   3.247
86847W        W52074  37.710  38.265   1.293
86848W        W52075  28.952  26.594  13.397
86849W        W52076  19.027  35.962   3.093
86850W        W52077  21.161   5.652   3.968
86851W        W52078  12.042   1.155  13.442
86852W        W52079  21.489  15.709  12.442
86853W        W52080   2.348   2.182   0.825
86854W        W52081  35.145  16.768   0.860
86855W        W52082   6.388  40.563  10.596
86856W        W52083  10.715  38.434  12.944
86857W        W52084  20.511  23.833   3.907
86858W        W52085  34.566  33.020   4.221
86859W        W52086  40.548  31.017   1.488
86860W        W52087  21.315  28.956  10.152
86861W        W52088  40.831  19.003  12.472
86862W        W52089  37.023   7.377  14.885
86863W        W52090  24.999  12.450  11.511
86864W        W52091   2.642  11.848   2.870
86865W        W52092  35.641  12.724  13.352
86866W        W52093  23.685  20.549  13.448
86867W        W52094  26.984   5.157   4.536
86868W        W52095  30.874  33.746   1.793
86869W        W52096  33.633  16.921   4.104
86870W        W52097  25.937  44.392  12.545
86871W        W52098   1.503   9.368   1.406
86872W        W52099  43.751  26.693  10.598
86873W        W52100  24.973   7.720   1.500
86874W        W52101  38.970  26.240  12.892
86875W        W52102  16.603  27.932  12.610
86876W        W52103  42.645  11.207   1.942
86877W        W52104  43.406   9.873   1.841
86878W        W52105  25.494  23.760  11.879
86879W        W52106  14.686  28.829  11.245
86880W        W52107  32.673  11.888   2.757
86881W        W52108  40.843  44.127   3.718
86882W        W52109  29.098  31.422   4.287
86883W        W52110  19.503  21.648   3.027
86884W        W52111   5.034  16.132   1.191
86885W        W52112  17.514  36.809  13.410
86886W        W52113   1.212  19.061   3.827
86887W        W52114   1.310  11.366   0.785
86888W        W52115   8.855  39.824  10.890
86889W        W52116   7.813  28.474  14.720
86890W        W52117  25.958  16.993  14.444
86891W        W52118  26.554   2.923  14.162
86892W        W52119   0.821   4.692   5.078
86893W        W52120  22.158  24.161  13.975
86894W        W52121   3.848  26.210   3.270
86895W        W52122  32.660  39.135   2.227
86896W        W52123  41.258  23.891   4.405
86897W        W52124  41.857  16.058   2.805
86898W        W52125  22.625  12.737  13.577
86899W        W52126  25.542  12.371  11.608
86900W        W52127  28.898  30.274   3.339
86901W        W52128  10.187   3.074   0.546
86902W        W52129  34.370   3.485  11.224
86903W        W52130   1.867   3.901   0.427
86904W        W52131  34.833   3.305   1.157
86905W        W52132  22.221   4.895   4.345
86906W        W52133  42.906  40.187  10.532
86907W        W52134  11.248  33.816   1.378
86908W        W52135  42.313   8.112   2.479
86909W        W52136  33.666  43.756  10.277
86910W        W52137  35.895  43.750   2.186
86911W        W52138   2.819  42.204   9.785
86912W        W52139  39.088   5.672  13.481
86913W        W52140  42.855  36.191   5.102
86914W        W52141  17.057   9.922   1.465
86915W        W52142   2.695  24.623   1.838
86916W        W52143   7.356   4.266   3.126
86917W        W52144  26.430  41.140  13.839
86918W        W52145  21.402  11.439   2.158
86919W        W52146  11.868  23.435  14.293
86920W        W52147  17.310  29.172  14.741
86921W        W52148  35.699   9.201  12.172
86922W        W52149   2.022   6.274   0.911
86923W        W52150   9.709  32.377   4.116
86924W        W52151  41.901  21.374   3.699
86925W        W52152  14.233  12.595  14.840
86926W        W52153  34.384  41.522  14.513
86927W        W52154  36.096  33.339   3.195
86928W        W52155   0.193  13.807  10.742
86929W        W52156  10.524  44.031  14.208
86930W        W52157  34.750   8.958  12.999
86931W        W52158  21.161  26.183  14.873
86932W        W52159  17.786  18.258  13.748
86933W        W52160  43.421   6.146   2.885
86934W        W52161  37.006   9.805  14.905
86935W        W52162  31.803  24.922  14.352
86936W        W52163  44.326  19.518  12.317
86937W        W52164   8.013  13.159  10.565
86938W        W52165   0.710   9.080  14.421
86939W        W52166  38.686  44.501   3.092
86940W        W52167  41.379   4.829   3.289
86941W        W52168  37.021  41.279   1.959
86942W        W52169  11.416  40.770   1.366
86943W        W52170  32.329   2.527   1.423
86944W        W52171  16.751  40.835   4.067
86945W        W52172  22.515   9.424  13.369
86946W        W52173   7.117  30.553  12.875
86947W        W52174   3.520  36.568   1.384
86948W        W52175   7.372  11.889   2.187
86949W        W52176  37.438  17.749   0.208
86950W        W52177  13.370  31.686   5.101
86951W        W52178   4.705  14.379  14.772
86952W        W52179  40.457  33.906   0.697
86953W        W52180  10.571  20.561   3.736
86954W        W52181  33.577  37.917   2.736
86955W        W52182  14.788  19.725  11.599
86956W        W52183  12.621  21.213   1.912
86957W        W52184  15.083  42.559  14.520
86958W        W52185  43.268  42.074  14.461
86959W        W52186   2.881  41.253   1.196
86960W        W52187  38.004  14.639   4.263
86961W        W52188  19.224  39.467  11.064
86962W        W52189  37.590  21.980  12.192
86963W        W52190  36.068  23.787  12.017
86964W        W52191  14.631  37.758  11.186
86965W        W52192   4.919  16.818   1.802
86966W        W52193   2.189  27.224   1.370
86967W        W52194  12.836  12.239   2.173
86968W        W52195   1.485  34.083  13.773
86969W        W52196  23.142  38.909   4.478
86970W        W52197  39.501  37.328  12.547
86971W        W52198  26.366  25.677   0.765
86972W        W52199   2.404  40.094  11.202
86973W        W52200   7.851  42.069   3.326
86974W        W52201  15.237  20.780  12.360
86975W        W52202   8.149   0.447   2.602
86976W        W52203  39.276  33.217  14.421
86977W        W52204  34.043  28.200  14.815
86978W        W52205  12.153  14.534  14.873
86979W        W52206   0.974  34.258   0.355
86980W        W52207   4.647   4.744   0.454
86981W        W52208   5.759  38.052  14.174
86982W        W52209  42.949  29.643   4.204
86983W        W52210  11.752  24.739  14.549
86984W        W52211  15.684  27.112  11.254
86985W        W52212  30.426  26.860   3.226
86986W        W52213  31.859  19.445   1.324
86987W        W52214  33.009  30.562   0.458
86988W        W52215  40.361  15.374   1.318
86989W        W52216  34.181  11.071   4.464
86990W        W52217  29.516  21.941   2.041
86991W        W52218  23.655  32.350   0.964
86992W        W52219  40.779  40.010   4.518
86993W        W52220  21.353  41.512  11.129
86994W        W52221   4.913  39.303   0.797
86995W        W52222  43.944   7.698   3.859
86996W        W52223  25.020  38.964  11.588
86997W        W52224  19.352  10.736   1.223
86998W        W52225   0.749  43.816   2.286
86999W        W52226  41.577  20.752  14.790
87000W        W52227  37.324  13.214   1.877
87001W        W52228  11.261   5.344   3.274
87002W        W52229  13.988  33.381   0.949
87003W        W52230  36.115  32.828   4.305
87004W        W52231  33.387  28.270   3.563
87005W        W52232  23.138  12.665  10.528
87006W        W52233  31.537  20.569  12.041
87007W        W52234  44.376   2.909   4.305
87008W        W52235  20.163  40.582   0.789
87009W        W52236  42.520  34.865   2.255
87010W        W52237   9.889   6.817   0.438
87011W        W52238   5.402  14.363  12.039
87012W        W52239  39.123  17.942  13.948
87013W        W52240  42.696  30.540  12.648
87014W        W52241  20.224   8.073  12.516
87015W        W52242  29.182  28.157   0.874
87016W        W52243  11.620   5.569   2.428
87017W        W52244  23.500  43.441  14.418
87018W        W52245  27.061   8.732   3.970
87019W        W52246  22.643   9.213   1.762
87020W        W52247  42.933   2.749  12.619
87021W        W52248   6.604  37.477  12.923
87022W        W52249   8.788  38.318  12.588
87023W        W52250   3.036  30.217  12.196
87024W        W52251   1.680  28.643   3.980
87025W        W52252  29.196   5.337  11.700
87026W        W52253  27.562  29.681   3.304
87027W        W52254   4.450  32.521  13.530
87028W        W52255   8.754   5.814  11.007
87029W        W52256  10.219  43.782   1.229
87030W        W52257  42.745  43.097   1.885
87031W        W52258  11.251  11.286   1.496
87032W        W52259   9.812  40.268  13.356
87033W        W52260  28.050   9.381  12.081
87034W        W52261  30.688  24.569   3.309
87035W        W52262  37.698  44.799  14.284
87036W        W52263  14.882  10.532   4.985
87037W        W52264  26.936  31.618   2.521
87038W        W52265  14.645   9.677   4.597
87039W        W52266   7.758   9.138   1.313
87040W        W52267  44.404  14.814  10.701
87041W        W52268  13.439  10.421   0.868
87042W        W52269  42.860  14.361   4.772
87043W        W52270  38.951  41.279  12.962
87044W        W52271  12.840   4.725  11.448
87045W        W52272  30.168   9.145   0.482
87046W        W52273  21.870  31.912  14.442
87047W        W52274   7.462  25.664   1.199
87048W        W52275  43.769  27.358   9.654
87049W        W52276   2.958  37.309  10.187
87050W        W52277  12.324  13.274  10.684
87051W        W52278   8.176  34.889   0.211
87052W        W52279  26.617   7.421   1.481
87053W        W52280  25.129  32.553  11.631
87054W        W52281  10.174  22.163   4.246
87055W        W52282  31.082  20.490   1.335
87056W        W52283  37.356  28.200   4.570
87057W        W52284   2.473  42.733   4.090
87058W        W52285  31.659  23.199  12.862
87059W        W52286   1.482   3.966  12.498
87060W        W52287   4.687   2.812   0.381
87061W        W52288   6.205  34.639   2.778
87062W        W52289  38.290  42.251   2.809
87063W        W52290  22.619  17.444   4.244
87064W        W52291  26.625  17.696   1.190
87065W        W52292  22.055   2.396  11.636
87066W        W52293   2.298  12.639   1.337
87067W        W52294  13.752  26.156  12.940
87068W        W52295  41.525  19.325  11.877
87069W        W52296   7.146  17.159   3.580
87070W        W52297  40.129  44.427  10.281
87071W        W52298   3.963   1.799  11.152
87072W        W52299  33.064  10.002   3.758
87073W        W52300   0.753  20.297  12.935
87074W        W52301  25.013  11.153  14.913
87075W        W52302  20.177   0.888  11.920
87076W        W52303   2.892  19.203   1.233
87077W        W52304   0.415  15.786   1.810
87078W        W52305  14.215  12.631   1.287
87079W        W52306  43.065   3.579   3.216
87080W        W52307  38.969  28.460   1.749
87081W        W52308   5.866  19.189  13.320
87082W        W52309   0.962  32.063   0.238
87083W        W52310  35.321  31.662  13.132
87084W        W52311  19.045  28.630   4.423
87085W        W52312  25.536  24.303  14.043
87086W        W52313  23.071  35.872   0.769
87087W        W52314  22.694  19.490  13.444
87088W        W52315  22.531  10.272  14.985
87089W        W52316  44.768  25.933   2.263
87090W        W52317  26.161  26.128   4.287
87091W        W52318   8.867  24.244  12.176
87092W        W52319  32.311  34.332   9.910
87093W        W52320  12.802   6.247   4.521
87094W        W52321  42.604  32.369  12.931
87095W        W52322  30.615   4.461   1.849
87096W        W52323  15.676  34.364   4.636
87097W        W52324  44.082  26.492  12.579
87098W        W52325  37.413   1.933  11.579
87099W        W52326  42.560   8.900  14.314
87100W        W52327  13.276  36.891  10.724
87101W        W52328   4.918  23.010   3.693
87102W        W52329  37.992  14.544  12.051
87103W        W52330  19.050   7.913  11.179
87104W        W52331  14.136   8.367   1.447
87105W        W52332   4.212   4.845  12.320
87106W        W52333  25.549  10.079   1.705
87107W        W52334  12.405  20.737   1.706
87108W        W52335  33.455   1.973  12.831
87109W        W52336  43.518   4.521  14.772
87110W        W52337  38.455  21.195  13.239
87111W        W52338   6.247  29.609   2.316
87112W        W52339   9.206  34.993   4.087
87113W        W52340  26.425  33.593   2.233
87114W        W52341  30.421   4.716   1.284
87115W        W52342  27.170  38.952  11.116
87116W        W52343  25.059  15.315  13.480
87117W        W52344  11.134   3.800  14.299
87118W        W52345   0.577  41.363  14.308
87119W        W52346  42.921  10.242  12.207
87120W        W52347   9.409  43.561   1.800
87121W        W52348  15.382  22.392  10.473
87122W        W52349  29.991  17.106  10.858
87123W        W52350   8.636   4.187   4.736
87124W        W52351  28.898  24.048   0.720
87125W        W52352   2.392  14.995  11.002
87126W        W52353  14.666  35.542   1.271
87127W        W52354  24.461  35.456   3.806
87128W        W52355  13.796   5.588  12.023
87129W        W52356   2.265   0.900   0.832
87130W        W52357  26.283  37.889   4.129
87131W        W52358  34.454  22.642  12.659
87132W        W52359  12.266  21.977  10.780
87133W        W52360   0.871   5.815   4.544
87134W        W52361  42.747   1.228  14.618
87135W        W52362  12.180  30.852  14.189
87136W        W52363  27.033   6.624   0.722
87137W        W52364  13.172  18.611   4.738
87138W        W52365  26.904   8.315   0.330
87139W        W52366  28.435  40.570  14.142
87140W        W52367  19.630  42.345  14.789
87141W        W52368  18.017  18.714  14.626
87142W        W52369  17.161  15.734  10.752
87143W        W52370   7.381  40.034  11.127
87144W        W52371  42.356  18.754  10.746
87145W        W52372  23.154  33.930   1.567
87146W        W52373  22.170  29.873   2.333
87147W        W52374   0.132  36.366  14.492
87148W        W52375  30.971   2.883  11.680
87149W        W52376  29.533  29.440   1.476
87150W        W52377  16.793  42.318  12.510
87151W        W52378  22.392   2.322  13.847
87152W        W52379  40.521  30.543   1.799
87153W        W52380  13.664  15.129  13.337
87154W        W52381  27.044  22.997   4.242
87155W        W52382  41.057  10.036  11.164
87156W        W52383  37.140  20.432  11.666
87157W        W52384   7.709   0.858   0.482
87158W        W52385   4.016   1.765   2.105
87159W        W52386   8.824  34.147   2.250
87160W        W52387  36.848  27.557   3.245
87161W        W52388  27.337  12.302  14.992
87162W        W52389  10.417   2.459   0.753
87163W        W52390  37.900   8.855  11.881
87164W        W52391  27.120  11.668  14.969
87165W        W52392  41.484  41.793   2.324
87166W        W52393  44.529  33.399  11.227
87167W        W52394  21.098   9.092  11.989
87168W        W52395  40.524  12.775  14.719
87169W        W52396  12.218  44.575  10.873
87170W        W52397  34.357  26.462   4.147
87171W        W52398  30.751  32.542   2.712
87172W        W52399  30.119  10.173   0.390
87173W        W52400  36.932   5.515   4.555
87174W        W52401  17.201  21.149   4.454
87175W        W52402   7.215   9.843  10.650
87176W        W52403   8.834  28.652  11.642
87177W        W52404  11.840  40.857   0.255
87178W        W52405  31.447  23.743   2.606
87179W        W52406  17.090  22.198  11.805
87180W        W52407  34.805  35.506   3.683
87181W        W52408  24.752  33.949  11.535
87182W        W52409   3.479  20.233  11.974
87183W        W52410  40.091   6.407  14.581
87184W        W52411  25.233  38.780  11.155
87185W        W52412  27.212  42.484  14.122
87186W        W52413  43.886  42.699  12.392
87187W        W52414  25.709  19.499   4.998
87188W        W52415  41.610   4.522   1.616
87189W        W52416   9.116  13.580   3.274
87190W        W52417   9.904  34.822  14.003
87191W        W52418  26.109  20.049   3.216
87192W        W52419  40.359  25.303   2.348
87193W        W52420  23.162  18.987  10.652
87194W        W52421  26.490  14.760  13.209
87195W        W52422   6.162  20.915  10.749
87196W        W52423  12.734  36.312   3.146
87197W        W52424  11.244  28.444   1.724
87198W        W52425   8.634  37.425  12.099
87199W        W52426  29.063   9.755   0.695
87200W        W52427  13.830  16.276  12.456
87201W        W52428  41.983  31.857   1.741
87202W        W52429  19.838  14.768  13.857
87203W        W52430  17.123   9.373  13.963
87204W        W52431   9.869  26.107  13.830
87205W        W52432  30.965  44.358  14.439
87206W        W52433  10.728  26.441   0.922
87207W        W52434  34.983   4.099  12.155
87208W        W52435   6.368  21.106  12.543
87209W        W52436  22.858   8.871  11.226
87210W        W52437  20.189   5.965   1.155
87211W        W52438  16.275   2.233   4.935
87212W        W52439  43.417  42.578  11.136
87213W        W52440  17.140   9.084   0.230
87214W        W52441  41.616  34.607  12.469
87215W        W52442  11.522  43.352  13.946
87216W        W52443  34.234   7.134   4.188
87217W        W52444  12.341   6.670  14.013
87218W        W52445  28.416  35.514  10.682
87219W        W52446  40.557  32.651   0.535
87220W        W52447  38.813   6.565  13.501
87221W        W52448  15.644  16.055   0.415
87222W        W52449  23.116  28.784   4.352
87223W        W52450  38.296   9.227   1.724
87224W        W52451   3.935   4.396  12.110
87225W        W52452  21.531   6.282  11.088
87226W        W52453  27.925  33.794   5.083
87227W        W52454  36.375   2.404   2.739
87228W        W52455  43.600  35.881   3.859
87229W        W52456   3.819  11.170  13.478
87230W        W52457  13.390  32.521  14.089
87231W        W52458  34.487  33.042   4.908
87232W        W52459  34.904  22.314  14.367
87233W        W52460  41.859  20.629  10.734
87234W        W52461  25.635   7.832  13.789
87235W        W52462  26.220   1.346  10.291
87236W        W52463  26.621  26.355  13.498
87237W        W52464  17.669  36.235  12.061
87238W        W52465  22.264  34.349   1.936
87239W        W52466  14.970  23.649   0.823
87240W        W52467   0.271   5.365   2.117
87241W        W52468   8.756   5.000   2.305
87242W        W52469   6.220  19.163   3.991
87243W        W52470   0.510  32.207   2.222
87244W        W52471  12.046  17.348   2.245
87245W        W52472  31.964  28.126  10.418
87246W        W52473   8.181  29.427  14.408
87247W        W52474   2.336  11.031  10.759
87248W        W52475  11.033  18.698   4.056
87249W        W52476   7.840   5.172  11.963
87250W        W52477  36.504  26.499   0.728
87251W        W52478  32.601  41.651  12.011
87252W        W52479  22.676  41.868   2.833
87253W        W52480  26.728  27.425   4.756
87254W        W52481  16.271  18.606   2.173
87255W        W52482  35.000  24.698   0.422
87256W        W52483  42.891   1.796  11.341
87257W        W52484  22.722  20.718   4.025
87258W        W52485   4.176   3.698  13.005
87259W        W52486  35.564  36.835   2.314
87260W        W52487   3.578   0.981   4.716
87261W        W52488  21.209  12.166   1.696
87262W        W52489  10.944  20.080   4.332
87263W        W52490  35.358  10.505  13.085
87264W        W52491  34.493   7.379   4.568
87265W        W52492  35.549   1.204  10.763
87266W        W52493  13.811  34.086   1.819
87267W        W52494   5.023  19.219  12.101
87268W        W52495  28.643  18.121  12.925
87269W        W52496  11.478  38.124  12.195
87270W        W52497  14.532   9.905   4.156
87271W        W52498   9.718  14.686   2.721
87272W        W52499  19.669  40.342   4.443
87273W        W52500  30.739  26.472   3.091
87274W        W52501  18.490  31.111   3.132
87275W        W52502  43.429  25.704   3.880
87276W        W52503   4.752  30.178   0.919
87277W        W52504  43.311  28.535   2.033
87278W        W52505  14.489  10.786  10.492
87279W        W52506  44.414  43.808  10.091
87280W        W52507  12.585  30.395  10.339
87281W        W52508  17.261   0.942   2.698
87282W        W52509   9.683  43.087   1.440
87283W        W52510  34.328  18.683   0.525
87284W        W52511   0.674  29.887   2.197
87285W        W52512  32.063   1.939   3.155
87286W        W52513  13.830  24.264  11.908
87287W        W52514  37.901   4.429   2.302
87288W        W52515  42.409  40.287  12.021
87289W        W52516   1.518  17.856   0.313
87290W        W52517  31.911  34.383   0.752
87291W        W52518   9.689   5.399  13.773
87292W        W52519  31.701  20.636   2.168
87293W        W52520  30.347  19.929  14.298
87294W        W52521  37.321   5.272  11.584
87295W        W52522   4.185   7.600   3.831
87296W        W52523   7.653  25.772  13.966
87297W        W52524  33.591  23.043  12.237
87298W        W52525  25.621  29.402  12.173
87299W        W52526  34.397  32.174  10.760
87300W        W52527  23.698  24.944  10.748
87301W        W52528  15.114  28.119   0.731
87302W        W52529  16.373  13.591  12.095
87303W        W52530  30.295  27.538   0.163
87304W        W52531  23.049   5.173  12.494
87305W        W52532  42.836  22.501  10.793
87306W        W52533  42.873   3.849   0.914
87307W        W52534   4.399   2.320   2.790
87308W        W52535  29.728  36.501  10.285
87309W        W52536   3.018   7.177   4.654
87310W        W52537  44.576  35.635   0.708
87311W        W52538   4.599  42.217   4.926
87312W        W52539  21.815  25.263  10.759
87313W        W52540  43.569   1.646  13.935
87314W        W52541  25.613  21.739   1.751
87315W        W52542  22.562  28.714   2.242
87316W        W52543  18.169  15.791   2.340
87317W        W52544  26.239  22.012  12.005
87318W        W52545  42.677   1.282   3.345
87319W        W52546  40.046  21.756  14.463
87320W        W52547  35.291  38.295   4.256
87321W        W52548  34.361   1.435  12.392
87322W        W52549  10.379  28.013   1.414
87323W        W52550   2.951  34.141   1.845
87324W        W52551  29.228  22.737   2.758
87325W        W52552  25.467  19.688   3.815
87326W        W52553   2.795  24.202   4.530
87327W        W52554   4.784  10.129  10.645
87328W        W52555  44.050  32.515  13.368
87329W        W52556  10.585  23.726  10.969
87330W        W52557   9.814  43.588   1.469
87331W        W52558   9.710  16.459   3.662
87332W        W52559  39.477  22.651  13.038
87333W        W52560  34.518  20.487  14.809
87334W        W52561  42.336  34.587   3.389
87335W        W52562  39.794   8.319  12.490
87336W        W52563   7.118  16.116   0.281
87337W        W52564   7.621  25.759  13.006
87338W        W52565  37.981  27.896  11.115
87339W        W52566  14.048   0.773  14.848
87340W        W52567   9.947   9.635   0.911
87341W        W52568  33.537  38.923  11.229
87342W        W52569   3.730  36.003  12.037
87343W        W52570  24.113  30.617  11.718
87344W        W52571  20.545   0.265   3.319
87345W        W52572  22.534   5.202  12.442
87346W        W52573  18.380  38.607  11.968
87347W        W52574  10.783  38.420  14.976
87348W        W52575  19.662  41.780   1.820
87349W        W52576  44.001  25.848   0.073
87350W        W52577  11.269  14.640   1.710
87351W        W52578  42.406  11.333   0.647
87352W        W52579   2.399  18.213   1.902
87353W        W52580  40.967  31.525  13.927
87354W        W52581   3.800   5.144  11.096
87355W        W52582  33.647  13.079  10.781
87356W        W52583   6.678  35.039   4.407
87357W        W52584  24.693   8.163   1.152
87358W        W52585  44.521  43.884   0.249
87359W        W52586   4.947  25.066   1.739
87360W        W52587  29.177  17.664   4.896
87361W        W52588  21.280  15.731  11.976
87362W        W52589   7.475   0.575   2.501
87363W        W52590  15.629  28.482  11.521
87364W        W52591  29.583  37.098   1.421
87365W        W52592   8.024   0.054   4.138
87366W        W52593  38.388  43.375   4.250
87367W        W52594  36.220  13.234   4.169
87368W        W52595   9.901   3.662   2.688
87369W        W52596  14.700  39.983  14.980
87370W        W52597   6.429  24.438  13.855
87371W        W52598  24.477  24.924   0.909
87372W        W52599  29.676   1.259  10.694
87373W        W52600  35.058  34.141   4.939
87374W        W52601   5.966  24.647   1.509
87375W        W52602   1.022   8.335   2.118
87376W        W52603  21.597   7.112  14.057
87377W        W52604  14.249   4.904   1.902
87378W        W52605  36.831   2.506  13.503
87379W        W52606  44.902  29.573   1.748
87380W        W52607  16.939   0.868   2.280
87381W        W52608  23.886  16.671  11.585
87382W        W52609  43.732  44.990   0.056
87383W        W52610  34.044  24.226   3.205
87384W        W52611  35.478  40.015  10.508
87385W        W52612   1.418  41.614   2.258
87386W        W52613  25.028  12.801   4.807
87387W        W52614   0.044  43.447   4.100
87388W        W52615  18.326  16.100  11.212
87389W        W52616   0.893  40.702   2.814
87390W        W52617  13.790  29.720  13.885
87391W        W52618   7.054   6.795  14.306
87392W        W52619  44.734  17.514  12.392
87393W        W52620  30.850  15.245  12.991
87394W        W52621   3.988  24.052  13.922
87395W        W52622  40.938   7.130   2.156
87396W        W52623  42.167   1.324   3.397
87397W        W52624  42.128   7.917  12.108
87398W        W52625  34.030  24.984   0.669
87399W        W52626  22.297  18.986  14.180
87400W        W52627  16.025  14.687  13.850
87401W        W52628   2.494  41.427  10.162
87402W        W52629  28.152  15.652   0.345
87403W        W52630  17.697  41.037  11.172
87404W        W52631   1.875  38.490  13.315
87405W        W52632  44.511  31.870  11.140
87406W        W52633  20.307   1.879   0.440
87407W        W52634  38.422   1.212   2.089
87408W        W52635  41.979  31.016   1.783
87409W        W52636  21.723   7.196  14.929
87410W        W52637   5.771  36.819  14.460
87411W        W52638  12.171  32.697   2.375
87412W        W52639  41.241  26.091  11.596
87413W        W52640  29.607  22.187  14.931
87414W        W52641   1.871  18.086  12.598
87415W        W52642  30.343  20.549   3.173
87416W        W52643  31.356  18.080   4.558
87417W        W52644  39.576  18.762  11.234
87418W        W52645  16.955   9.110  13.533
87419W        W52646  40.249   9.316  10.377
87420W        W52647  34.454  27.038   4.414
87421W        W52648  30.563  28.435   0.313
87422W        W52649  16.993  40.908  12.590
87423W        W52650  12.166  10.062  14.834
87424W        W52651   9.718  37.835  10.592
87425W        W52652  39.404  21.544   3.550
87426W        W52653   6.815  41.443  10.748
87427W        W52654   4.165  27.002  12.946
87428W        W52655   0.659  25.638   0.199
87429W        W52656  33.551  10.845  10.904
87430W        W52657  23.509  33.126  13.522
87431W        W52658  27.210  29.061  12.053
87432W        W52659   9.323  11.852  13.963
87433W        W52660  14.750  13.174  14.277
87434W        W52661  43.389  39.732  12.529
87435W        W52662  36.342  38.444  11.973
87436W        W52663  36.421  32.150  12.912
87437W        W52664  20.850   1.338  11.013
87438W        W52665  29.126  11.857  13.957
87439W        W52666  39.303  33.472   1.846
87440W        W52667  26.202  34.447   0.820
87441W        W52668  17.119  32.836  12.677
87442W        W52669  23.415  37.499  13.303
87443W        W52670  10.788   6.685  14.898
87444W        W52671  17.178  38.777  13.990
87445W        W52672   1.913  15.587  14.382
87446W        W52673  31.541   0.424  11.751
87447W        W52674  44.799  38.019  10.718
87448W        W52675  41.452  20.347  11.631
87449W        W52676   8.289  25.925   4.182
87450W        W52677   8.834   3.325  12.353
87451W        W52678  16.163  34.827  13.227
87452W        W52679  22.208   8.636   3.689
87453W        W52680   4.371  14.796   1.459
87454W        W52681  39.746  24.987   4.523
87455W        W52682  39.015  24.042  13.306
87456W        W52683  14.708  38.002   2.332
87457W        W52684   6.660  21.134  14.829
87458W        W52685   6.360  11.179   2.421
87459W        W52686  26.174   7.166  11.705
87460W        W52687   5.098  17.333  10.503
87461W        W52688   6.280  20.736  14.480
87462W        W52689   9.311  20.748  14.183
87463W        W52690   3.891   1.090   1.161
87464W        W52691  28.501  26.173  11.092
87465W        W52692  35.553   5.937  14.350
87466W        W52693   2.430  41.840   0.490
87467W        W52694  16.011  42.962  14.517
87468W        W52695  23.424  21.037   0.567
87469W        W52696  26.625  17.163   3.124
87470W        W52697  33.887   4.299  12.978
87471W        W52698  29.451  29.533  11.940
87472W        W52699  36.770  31.592   4.102
87473W        W52700   2.980   0.890  14.646
87474W        W52701  16.811   0.167  14.973
87475W        W52702  12.748  25.677   0.370
87476W        W52703  12.983  23.221  11.308
87477W        W52704   5.016  39.764  13.428
87478W        W52705  10.919  33.481  13.318
87479W        W52706  16.109  37.694   0.789
87480W        W52707  13.725  43.991  13.384
87481W        W52708  43.875  38.391  12.905
87482W        W52709  29.892  31.107   0.654
87483W        W52710   7.897  40.483   2.646
87484W        W52711  26.394  33.901   0.970
87485W        W52712  23.235  32.939   2.259
87486W        W52713   9.823  43.322   4.254
87487W        W52714   0.972  39.644  13.894
87488W        W52715  36.263  23.381  11.393
87489W        W52716  15.600  41.540   0.883
87490W        W52717  26.522  21.701   1.659
87491W        W52718  39.670  35.827   4.176
87492W        W52719  29.416  28.599  14.807
87493W        W52720  28.061   3.052   1.453
87494W        W52721  20.716  23.981  13.858
87495W        W52722  42.074  37.232   1.218
87496W        W52723   0.542  29.440  13.458
87497W        W52724  15.405  40.717   3.428
87498W        W52725  28.648   1.826  12.367
87499W        W52726  33.486  34.635  14.959
87500W        W52727  35.990  43.212   0.336
87501W        W52728  13.932  31.455   2.461
87502W        W52729   8.083  17.668   3.025
87503W        W52730  27.705  42.657   2.099
87504W        W52731  30.137  24.759  13.038
87505W        W52732  13.467  21.494   1.433
87506W        W52733  14.130   1.271  12.529
87507W        W52734  36.484  17.358   1.457
87508W        W52735  19.387   7.867  10.776
87509W        W52736  24.294  18.122   0.469
87510W        W52737  40.266  22.666   2.730
87511W        W52738  38.698  26.961   4.276
87512W        W52739  15.062  42.985   4.248
87513W        W52740  16.804  33.482  13.336
87514W        W52741   4.652  17.700  11.991
87515W        W52742  17.532  17.669   1.916
87516W        W52743   3.780   6.234   3.410
87517W        W52744  12.640  25.719  10.847
87518W        W52745   5.680  23.894   2.216
87519W        W52746   5.989   5.310  12.691
87520W        W52747  44.322  11.097   2.018
87521W        W52748  31.132  28.339  13.827
87522W        W52749  29.957  28.483  12.040
87523W        W52750  25.621  35.398  14.955
87524W        W52751  40.803  44.236   0.694
87525W        W52752  10.995  26.718  12.036
87526W        W52753  15.138  29.544  12.821
87527W        W52754  16.380  28.587  12.542
87528W        W52755   5.817  15.088  14.409
87529W        W52756  28.171  30.390  11.946
87530W        W52757  11.825   2.478   2.312
87531W        W52758  11.544  44.871   1.235
87532W        W52759  38.021  29.586   4.844
87533W        W52760  36.510  10.536   2.737
87534W        W52761  33.027  41.977  13.629
87535W        W52762  44.019  41.944  11.209
87536W        W52763   4.766  11.622   1.407
87537W        W52764  34.606  27.981  12.335
87538W        W52765  30.666   3.284   0.286
87539W        W52766   2.427  36.405   3.743
87540W        W52767  13.111  29.145  12.542
87541W        W52768  19.113  14.142   1.688
87542W        W52769  22.169  27.621  12.078
87543W        W52770   7.072   9.855  14.444
87544W        W52771   6.337   6.583  11.573
87545W        W52772  20.170  10.323   4.677
87546W        W52773   4.385  12.025  11.231
87547W        W52774  18.663   9.199   3.074
87548W        W52775  24.677  29.495  11.601
87549W        W52776  10.964  19.814   3.562
87550W        W52777  32.001   9.961  11.932
87551W        W52778   5.182   8.396   3.665
87552W        W52779  24.140   6.721  11.591
87553W        W52780  21.074  43.737   1.629
87554W        W52781  37.072  34.342  13.923
87555W        W52782  36.345  25.452   1.415
87556W        W52783   6.228  20.845  13.965
87557W        W52784  32.655  16.405   5.571
87558W        W52785  11.072  23.634  10.760
87559W        W52786  34.409  41.059  14.095
87560W        W52787  31.347  11.910  10.234
87561W        W52788  20.337   6.811  13.374
87562W        W52789  20.738  33.384  13.864
87563W        W52790  22.188   7.974  14.925
87564W        W52791  41.316   9.701  14.698
87565W        W52792  22.122  13.643   3.518
87566W        W52793   3.960  19.475  14.618
87567W        W52794  18.641  33.317   2.237
87568W        W52795  21.542  10.335  12.382
87569W        W52796  21.204  39.985  14.252
87570W        W52797  39.314  13.739  10.137
87571W        W52798   2.407  34.034   3.022
87572W        W52799  31.105  11.814   0.155
87573W        W52800   3.904  17.783   1.263
87574W        W52801   4.752  20.310  14.993
87575W        W52802  23.491  21.292   0.108
87576W        W52803  18.153   1.796  14.370
87577W        W52804   1.029  38.104  14.442
87578W        W52805   0.040  11.249  12.834
87579W        W52806  32.608  37.286  13.521
87580W        W52807  36.274  43.397   3.101
87581W        W52808  14.689  31.131   3.120
87582W        W52809  44.532  26.409  13.357
87583W        W52810  29.764  44.330  13.132
87584W        W52811  30.369   0.186  12.903
87585W        W52812  17.133  41.131   1.840
87586W        W52813   5.367  38.408   0.918
87587W        W52814  15.347   1.107  12.985
87588W        W52815  32.842  33.372  14.173
87589W        W52816  33.068   3.696   4.552
87590W        W52817  27.057  35.900  13.207
87591W        W52818  23.277  37.682   0.392
87592W        W52819  12.527  26.953   1.863
87593W        W52820  25.737  18.732  14.941
87594W        W52821   3.803  31.436   2.687
87595W        W52822  21.644  28.661  11.408
87596W        W52823  18.742  19.209  11.551
87597W        W52824   1.385   8.652  10.555
87598W        W52825  16.287   3.015  13.438
87599W        W52826  15.862   6.981  12.684
87600W        W52827  17.762  33.370  14.768
87601W        W52828  10.673   2.454   4.618
87602W        W52829  26.559  14.188  11.728
87603W        W52830  18.958   5.582   0.489
87604W        W52831   6.632  11.122  10.955
87605W        W52832  16.057  28.905  14.574
87606W        W52833  41.078  37.469   1.422
87607W        W52834  28.505   7.237   4.912
87608W        W52835  24.882  32.248  11.153
87609W        W52836  18.221  29.592   0.965
87610W        W52837   7.454  25.163  11.056
87611W        W52838  17.029  15.708  12.983
87612W        W52839  17.191  25.139   1.022
87613W        W52840  16.400  37.818  12.574
87614W        W52841   5.641  15.124   3.288
87615W        W52842  29.651   2.010  14.822
87616W        W52843  18.221  12.102   3.880
87617W        W52844  43.068  39.171  11.056
87618W        W52845  25.521  44.424   4.250
87619W        W52846  40.059  41.424  13.553
87620W        W52847  41.454   5.242   4.554
87621W        W52848   9.547  12.321  12.887
87622W        W52849  26.250  41.057   0.780
87623W        W52850  39.782   7.183  12.054
87624W        W52851  44.396  18.152   0.791
87625W        W52852   5.420  29.498   4.132
87626W        W52853  41.442  32.114  11.660
87627W        W52854   0.787   6.304   0.726
87628W        W52855   7.738  31.207   4.692
87629W        W52856  17.682  38.963  10.996
87630W        W52857  27.751  14.043   0.849
87631W        W52858   6.828  14.644  14.565
87632W        W52859  20.379  28.424  12.878
87633W        W52860   2.460  24.246   4.124
87634W        W52861   5.232  35.347  13.913
87635W        W52862  19.962   6.376  12.528
87636W        W52863  26.797  16.733   3.294
87637W        W52864   2.641  29.194  13.235
87638W        W52865  26.131   4.021   1.502
87639W        W52866  23.154  32.400  13.030
87640W        W52867  23.083   3.348  11.344
87641W        W52868  10.547   9.403  11.316
87642W        W52869  44.469  13.289  13.609
87643W        W52870  17.517   6.971   0.485
87644W        W52871  29.699  15.142  14.995
87645W        W52872  30.603  34.498   4.223
87646W        W52873  24.868  43.997  14.827
87647W        W52874   2.264  34.045  12.112
87648W        W52875  43.052   9.139   2.742
87649W        W52876  19.996  29.566  14.448
87650W        W52877  39.013  35.538   0.613
87651W        W52878  43.941  33.182   1.190
87652W        W52879  23.517  23.719   4.048
87653W        W52880   9.711   1.234  11.014
87654W        W52881   8.844   4.927   3.241
87655W        W52882   9.748  10.661   2.778
87656W        W52883   9.911  40.570   0.264
87657W        W52884  32.740  30.020   4.060
87658W        W52885  42.003   3.361  10.317
87659W        W52886  34.094   0.102  12.453
87660W        W52887  42.426  23.973  11.922
87661W        W52888   5.264  30.882   3.254
87662W        W52889  23.406  14.241   4.742
87663W        W52890  31.198  12.235  14.345
87664W        W52891  43.573   8.315  11.463
87665W        W52892   4.161  25.488  12.871
87666W        W52893  21.818  19.664   1.354
87667W        W52894  27.913  16.046  10.251
87668W        W52895  11.640  19.210  14.038
87669W        W52896  37.576   1.377   1.560
87670W        W52897  40.904  16.121   4.756
87671W        W52898  38.233  19.733   2.805
87672W        W52899  16.346  11.655  10.550
87673W        W52900  13.117  23.635   4.269
87674W        W52901  34.419   2.247   4.132
87675W        W52902  21.767   9.981   3.861
87676W        W52903  41.278   9.331   4.574
87677W        W52904  22.567  29.633   1.905
87678W        W52905  34.277  21.795  13.915
87679W        W52906  33.061  41.902   2.289
87680W        W52907  34.431  39.538   1.819
87681W        W52908  20.180   9.125  11.497
87682W        W52909  25.060  17.887  12.528
87683W        W52910  32.222  22.662   1.936
87684W        W52911  20.466  20.534   2.335
87685W        W52912  20.195  11.153   3.121
87686W        W52913   8.793   6.002  13.445
87687W        W52914  26.265  16.891  13.989
87688W        W52915  18.230   1.752   0.775
87689W        W52916  12.619   6.223  11.525
87690W        W52917  20.546  36.981  10.697
87691W        W52918  23.106   7.616   0.060
87692W        W52919  43.688  20.226   2.150
87693W        W52920  13.719  44.339   5.072
87694W        W52921  34.910  28.271  11.555
87695W        W52922   1.916  27.081   0.764
87696W        W52923  10.167  34.111   3.189
87697W        W52924  29.213  31.047  14.014
87698W        W52925   3.786   6.290   4.427
87699W        W52926  30.918  23.071  10.905
87700W        W52927  25.875  13.171   3.881
87701W        W52928  22.345  38.582  14.271
87702W        W52929   7.936  38.524  14.327
87703W        W52930   6.534   8.343  12.492
87704W        W52931  18.316  34.507  14.615
87705W        W52932  19.091  12.633  12.617
87706W        W52933  27.585  42.441   4.180
87707W        W52934   6.632   5.772  11.525
87708W        W52935  41.735  10.837   1.124
87709W        W52936  22.798  26.942   2.737
87710W        W52937  37.356  39.114  14.975
87711W        W52938  35.865  30.239  13.387
87712W        W52939  15.078  32.102   1.109
87713W        W52940   6.530  42.884  10.238
87714W        W52941  16.993  20.778  13.524
87715W        W52942  13.818  21.531   0.033
87716W        W52943  27.509  21.038  13.552
87717W        W52944  37.051  13.816  14.193
87718W        W52945  39.296  16.571  13.039
87719W        W52946  40.260   9.265   2.517
87720W        W52947  20.278  27.537  13.764
87721W        W52948  28.098   1.612  11.091
87722W        W52949  24.673   1.618   3.421
87723W        W52950  28.518  24.278   1.456
87724W        W52951   2.553  13.256  13.276
87725W        W52952  36.844   4.873   0.759
87726W        W52953   5.519   3.436  12.070
87727W        W52954   4.651  14.825  11.923
87728W        W52955  34.547   8.704  12.581
87729W        W52956  23.046  42.014   0.119
87730W        W52957  14.202  18.284  13.097
87731W        W52958  40.430  39.858  13.455
87732W        W52959   9.752   9.274   3.466
87733W        W52960  22.541  17.248  13.916
87734W        W52961  24.719  41.226  14.562
87735W        W52962  24.481  20.316   1.185
87736W        W52963   0.821  10.726  11.692
87737W        W52964  14.783  34.887   4.628
87738W        W52965   0.968  33.841  11.684
87739W        W52966  42.086   3.496  13.006
87740W        W52967  35.625  30.550   1.926
87741W        W52968  40.889  11.897  14.708
87742W        W52969  10.980  21.979   3.870
87743W        W52970  12.587  15.252   4.329
87744W        W52971  15.027  44.598   2.185
87745W        W52972  10.525  26.716   3.276
87746W        W52973  19.303   2.323   1.198
87747W        W52974   6.788   5.885   1.783
87748W        W52975   1.297  24.962   4.177
87749W        W52976  20.717  42.359  13.954
87750W        W52977   4.945  18.229   1.231
87751W        W52978  38.301   9.691  12.028
87752W        W52979  40.865   9.189  12.395
87753W        W52980  13.762  11.745  11.701
87754W        W52981  31.487   4.732   3.151
87755W        W52982  35.888   7.650   3.681
87756W        W52983   4.342  43.298  11.509
87757W        W52984   1.643  15.772  10.362
87758W        W52985   4.666  12.174  10.441
87759W        W52986  23.989  19.677   1.602
87760W        W52987  41.533  32.523  10.404
87761W        W52988   4.027  36.573   2.822
87762W        W52989  14.090   8.838  12.170
87763W        W52990   2.635  19.650  10.605
87764W        W52991  31.605  11.131   0.433
87765W        W52992  44.930   1.799  13.973
87766W        W52993   4.499  30.025  12.324
87767W        W52994  22.241  21.314  13.482
87768W        W52995   9.108  29.287  12.105
87769W        W52996  27.659  26.605   2.327
87770W        W52997  33.135   3.369  13.507
87771W        W52998  42.972  19.007   2.573
87772W        W52999   6.833  24.111  10.523
87773W        W53000  33.168   0.170  11.205
87774W        W53001   6.222  31.655   2.797
87775W        W53002  17.169   0.833   3.584
87776W        W53003  20.568  43.975  12.850
87777W        W53004  14.727   0.489  12.486
87778W        W53005   4.121  10.124   0.806
87779W        W53006  39.260  38.275  12.314
87780W        W53007   4.935   3.884  14.339
87781W        W53008  14.227   2.394   2.672
87782W        W53009  10.058  27.014  13.847
87783W        W53010  10.390  34.920   2.808
87784W        W53011  31.679  27.989  11.803
87785W        W53012  42.778  35.526  11.712
87786W        W53013  21.677  26.214  14.994
87787W        W53014  25.357  43.922  10.942
87788W        W53015  22.143  32.988   0.055
87789W        W53016  41.142  42.867  14.991
87790W        W53017  19.618  22.034  12.429
87791W        W53018  37.012  31.255  14.392
87792W        W53019  24.312  27.184   1.556
87793W        W53020  24.039  24.684  11.298
87794W        W53021  40.466   4.913  10.726
87795W        W53022  11.211  12.776  13.508
87796W        W53023  40.748  10.156   2.340
87797W        W53024  11.926  37.697   5.052
87798W        W53025   2.307  44.999  12.851
87799W        W53026   5.055  36.362  14.981
87800W        W53027  11.126  14.120  11.676
87801W        W53028  16.700  43.729  13.560
87802W        W53029  13.322  44.128   2.954
87803W        W53030  19.023  26.043   0.345
87804W        W53031  12.675  39.330  12.826
87805W        W53032  35.079  24.385  12.106
87806W        W53033  11.043  29.650   5.329
87807W        W53034  36.860  38.135   3.906
87808W        W53035   0.493   0.865   2.385
87809W        W53036  10.435   9.319   2.144
87810W        W53037  16.021  19.618  12.161
87811W        W53038   6.716  16.211   1.328
87812W        W53039  21.394  27.435   4.154
87813W        W53040  32.171  25.398  13.417
87814W        W53041  38.339  25.074   2.285
87815W        W53042   3.868  17.141   1.808
87816W        W53043   8.742  31.451  13.940
87817W        W53044  18.113  22.933  11.625
87818W        W53045  25.293   8.923   2.226
87819W        W53046  25.752  29.398  10.852
87820W        W53047  19.862  40.895   1.317
87821W        W53048   7.674   6.315  11.234
87822W        W53049   0.423  16.725  14.161
87823W        W53050  18.232  40.125  11.212
87824W        W53051  17.224  39.931  12.332
87825W        W53052  41.740  40.017   2.977
87826W        W53053  20.726  24.475   4.924
87827W        W53054  37.794  12.277   2.370
87828W        W53055   9.706  17.643  13.804
87829W        W53056  23.128  23.464  11.570
87830W        W53057  12.171  22.104  13.933
87831W        W53058  37.384  28.424   3.277
87832W        W53059   4.154  16.225   3.210
87833W        W53060  39.070  40.388   0.182
87834W        W53061  23.716  16.663   2.587
87835W        W53062   7.225   0.870   4.848
87836W        W53063  18.642   8.216  12.109
87837W        W53064  17.558   7.119   1.328
87838W        W53065  24.265   7.115   0.309
87839W        W53066  29.789  43.742  11.022
87840W        W53067   5.325  20.562   0.039
87841W        W53068  29.883   4.388  10.555
87842W        W53069   1.209  31.396   3.577
87843W        W53070  21.154   9.111  10.108
87844W        W53071  10.681  14.842  12.974
87845W        W53072  16.353  31.376  14.067
87846W        W53073  43.751  26.064   4.452
87847W        W53074  41.847  31.844  14.425
87848W        W53075  16.515  31.611   1.325
87849W        W53076   4.632  29.977  10.417
87850W        W53077  40.263  33.396  12.416
87851W        W53078   7.370  35.690  13.415
87852W        W53079  16.100  37.562  14.862
87853W        W53080  21.307  35.953   1.839
87854W        W53081  22.712   8.377  11.287
87855W        W53082   1.169  39.853   2.669
87856W        W53083   4.916  23.524   3.737
87857W        W53084  36.877  24.920  12.962
87858W        W53085  22.551  18.578   0.683
87859W        W53086  11.756  27.347   2.888
87860W        W53087  32.396   0.452  11.206
87861W        W53088   0.627   1.865  14.898
87862W        W53089  23.123  11.151   4.478
87863W        W53090  24.265  25.171  14.927
87864W        W53091   1.395  34.839  12.543
87865W        W53092  11.592  17.216  12.533
87866W        W53093  29.612  42.526   0.986
87867W        W53094  26.717  34.488  13.613
87868W        W53095  11.925  26.817   2.037
87869W        W53096  13.565  13.763   3.076
87870W        W53097  41.736  25.116  13.931
87871W        W53098   2.347  16.566  14.951
87872W        W53099  33.058   9.160   2.872
87873W        W53100   9.886  34.018   2.222
87874W        W53101  35.814  12.108   2.802
87875W        W53102  25.925   3.664  14.438
87876W        W53103  17.849  25.495   0.825
87877W        W53104  26.497  16.137   3.794
87878W        W53105   1.376  16.734   4.177
87879W        W53106   8.379  40.996  14.913
87880W        W53107  34.784  35.434  10.736
87881W        W53108  42.091  21.644   1.201
87882W        W53109  22.196  31.796  12.100
87883W        W53110  24.745  33.041  14.522
87884W        W53111   6.148   6.451   3.138
87885W        W53112   3.435   2.084  11.939
87886W        W53113   1.345  33.675   2.888
87887W        W53114   8.938   4.421  14.662
87888W        W53115  13.161   1.512   0.930
87889W        W53116  13.238   5.400   0.964
87890W        W53117  35.356  20.552  14.777
87891W        W53118   7.971  36.983  11.117
87892W        W53119  24.687   9.126   3.067
87893W        W53120  18.822  35.941   2.626
87894W        W53121  37.727   7.134   4.481
87895W        W53122  32.907  10.241   1.257
87896W        W53123  31.895   8.396   4.984
87897W        W53124  34.477  22.381   2.697
87898W        W53125  31.665   8.828  10.761
87899W        W53126  10.777  15.091  12.490
87900W        W53127  40.486   0.527  10.783
87901W        W53128  37.499  22.200   2.724
87902W        W53129  17.015  41.522  10.776
87903W        W53130  14.173   0.455  13.150
87904W        W53131  40.585  31.471   2.699
87905W        W53132   7.565  37.477   1.696
87906W        W53133  41.785  27.738   3.312
87907W        W53134  16.776   5.791  11.806
87908W        W53135  11.394  15.492   4.906
87909W        W53136  16.464  29.187  11.556
87910W        W53137  35.011  21.038   0.340
87911W        W53138  25.259  31.843   1.771
87912W        W53139  13.123  12.654   1.444
87913W        W53140  10.373   2.684   0.268
87914W        W53141  32.474  17.809   9.628
87915W        W53142   6.128  26.686  11.084
87916W        W53143  19.503  16.072   2.204
87917W        W53144  33.413   0.518   3.124
87918W        W53145  38.559  39.829  10.542
87919W        W53146   3.500   9.679  13.359
87920W        W53147   2.889  11.675  11.602
87921W        W53148  25.059  28.189  14.815
87922W        W53149  11.628  10.980  11.608
87923W        W53150  38.321  31.197  11.139
87924W        W53151  37.422  25.285   0.014
87925W        W53152  21.824  36.082   1.886
87926W        W53153  30.698   8.734   4.106
87927W        W53154  22.732  40.371  10.652
87928W        W53155  43.552  22.974  14.400
87929W        W53156  40.733  31.051  10.508
87930W        W53157  23.483  29.559  12.923
87931W        W53158  27.957   7.946  14.385
87932W        W53159  15.072  38.720  11.112
87933W        W53160  25.438  35.487  12.445
87934W        W53161  41.713   6.990  14.794
87935W        W53162  33.085  43.473  14.449
87936W        W53163  12.880   5.149  14.350
87937W        W53164  17.286  17.243  14.743
87938W        W53165  16.536  30.689  12.561
87939W        W53166  29.332  37.671   1.792
87940W        W53167  33.666  34.583   3.660
87941W        W53168  19.065  23.618  11.850
87942W        W53169   8.812  30.581  11.599
87943W        W53170  39.160  23.298   9.875
87944W        W53171   4.534   2.472   1.259
87945W        W53172  31.083  23.017  13.367
87946W        W53173   8.075  14.661   2.312
87947W        W53174   8.724  28.784   1.080
87948W        W53175   0.396   5.292  10.718
87949W        W53176  40.897  16.406   0.781
87950W        W53177  15.128  21.973   0.226
87951W        W53178   5.437  32.827   2.071
87952W        W53179   3.640  22.755   4.220
87953W        W53180  41.416  15.600  11.948
87954W        W53181   2.805  37.890  14.840
87955W        W53182  12.302  35.143   0.267
87956W        W53183  17.048  38.528  14.737
87957W        W53184  36.019  10.662   0.310
87958W        W53185  29.500  25.520   0.359
87959W        W53186   1.129  18.129  14.470
87960W        W53187  13.280  35.799  12.218
87961W        W53188  37.423  27.011  11.155
87962W        W53189  30.983  11.155   0.927
87963W        W53190  34.119  19.830   4.743
87964W        W53191  14.598  24.542   2.318
87965W        W53192  11.073  30.568  12.967
87966W        W53193  11.727  10.757   4.563
87967W        W53194   0.656   7.234   4.227
87968W        W53195  15.495  17.243   0.241
87969W        W53196   8.294  22.430  11.895
87970W        W53197  19.158  21.459   1.617
87971W        W53198  25.595  13.070   0.451
87972W        W53199  34.193  40.835  14.885
87973W        W53200   2.446   8.275   2.773
87974W        W53201  24.514  19.040   3.161
87975W        W53202  15.752   2.177   1.758
87976W        W53203   1.459  27.157   1.822
87977W        W53204  24.679  22.097   0.901
87978W        W53205  21.221  41.948   0.506
87979W        W53206   2.541   6.228   0.955
87980W        W53207  14.759  15.186   2.948
87981W        W53208  15.641   0.717   4.612
87982W        W53209  30.574  25.001  11.450
87983W        W53210  35.081  42.050   3.565
87984W        W53211  39.167  44.954   0.452
87985W        W53212   9.311  17.287   3.769
87986W        W53213  37.104   1.636   2.747
87987W        W53214   0.388   0.244   0.175
87988W        W53215  31.090  23.940  13.517
87989W        W53216  24.398  14.151  14.692
87990W        W53217  26.699  33.984  11.381
87991W        W53218  26.807  20.652   0.268
87992W        W53219  37.483  41.792  13.624
87993W        W53220  14.287  26.831  14.205
87994W        W53221  41.928  34.217   1.802
87995W        W53222  44.554  30.862  12.850
87996W        W53223  17.709  31.193   2.197
87997W        W53224  38.280  32.566   2.497
87998W        W53225  16.720   6.671  12.881
87999W        W53226   3.347  11.336  13.616
88000W        W53227   5.486   8.050   1.410
88001W        W53228  22.060  41.349  12.369
88002W        W53229  19.290  27.575  13.389
88003W        W53230  33.539  37.628   3.205
88004W        W53231  44.889  10.200   0.994
88005W        W53232  29.841  22.732  10.608
88006W        W53233  16.311  33.994   0.829
88007W        W53234  35.350  15.449  14.998
88008W        W53235  15.752  28.755  11.959
88009W        W53236  23.956  38.810   4.069
88010W        W53237  13.060  12.744  14.513
88011W        W53238  21.195  15.288  11.407
88012W        W53239  27.654  23.248  11.123
88013W        W53240  19.652  21.391   0.917
88014W        W53241  23.326  13.705   4.254
88015W        W53242  27.532  22.575  14.803
88016W        W53243  35.851  15.092  10.526
88017W        W53244  35.228  38.402   2.392
88018W        W53245  41.019  13.424  11.471
88019W        W53246   5.588  32.360  14.403
88020W        W53247  33.418  10.278   1.287
88021W        W53248  21.842  31.952   4.341
88022W        W53249  20.321  32.152  11.660
88023W        W53250  25.449  42.916   0.072
88024W        W53251   6.420  23.276   4.340
88025W        W53252  17.282   3.583   2.167
88026W        W53253  20.923  38.717   1.811
88027W        W53254  17.076  13.736  13.409
88028W        W53255  27.641  22.115   2.841
88029W        W53256   3.564  23.278  12.766
88030W        W53257  41.387  15.893  14.758
88031W        W53258  37.590  29.755   2.609
88032W        W53259   5.440  33.136  11.601
88033W        W53260  17.088   8.399   3.666
88034W        W53261  30.121   3.078  10.688
88035W        W53262  34.955  14.157  11.257
88036W        W53263  26.514  33.879   3.685
88037W        W53264  33.492  31.616   2.461
88038W        W53265  29.642  25.536   2.789
88039W        W53266  26.201  40.776  13.525
88040W        W53267  27.799  13.405  11.039
88041W        W53268   8.074  15.249  13.491
88042W        W53269  15.781  33.475   2.382
88043W        W53270  17.460  16.498   4.522
88044W        W53271   9.782   3.390  14.872
88045W        W53272  44.719   1.062   2.731
88046W        W53273  37.852  40.783   4.617
88047W        W53274  33.623  19.111   0.691
88048W        W53275  43.318  42.073  13.007
88049W        W53276  36.544   7.362   3.562
88050W        W53277  35.412   8.288  13.433
88051W        W53278  11.851   8.672   3.107
88052W        W53279   1.976  11.140   2.869
88053W        W53280   0.410  35.230   3.798
88054W        W53281  16.898  21.952  13.914
88055W        W53282  43.894  14.735  10.635
88056W        W53283  25.165  26.842  14.467
88057W        W53284  22.946  19.487  14.896
88058W        W53285   9.193  35.191   1.492
88059W        W53286  37.919  37.008  14.303
88060W        W53287  44.097  22.633   3.775
88061W        W53288  15.699  43.376  14.952
88062W        W53289  31.920  18.187   3.941
88063W        W53290  18.550  10.878   0.726
88064W        W53291  17.769  24.154  12.514
88065W        W53292  26.632   6.932  12.509
88066W        W53293  12.349  21.013   4.201
88067W        W53294  16.815   1.410   2.005
88068W        W53295  26.202   4.267   0.955
88069W        W53296  13.898  29.507   3.310
88070W        W53297  19.755  43.838  12.414
88071W        W53298  22.091  30.105  14.478
88072W        W53299  29.122   8.975   1.854
88073W        W53300  34.152   4.340  14.357
88074W        W53301  11.325  11.079   0.507
88075W        W53302  39.085   2.496  11.825
88076W        W53303  26.102  44.337   3.559
88077W        W53304  13.473  32.935   3.410
88078W        W53305  16.882  22.787   1.144
88079W        W53306   5.328   2.686  13.491
88080W        W53307  42.952  44.723   4.606
88081W        W53308  10.529  29.478   2.549
88082W        W53309   8.450  35.150  12.688
88083W        W53310   8.714  20.740  11.160
88084W        W53311   3.722  27.064   0.459
88085W        W53312   7.216   4.563   2.680
88086W        W53313  12.274  16.180  12.571
88087W        W53314   7.713  18.296   1.406
88088W        W53315  32.435  43.952  11.393
88089W        W53316  11.850  29.689  11.241
88090W        W53317  11.350   3.314  14.278
88091W        W53318   8.773  18.582  13.581
88092W        W53319   0.903  42.215   3.624
88093W        W53320   7.916  41.383   2.755
88094W        W53321  27.696  16.793  12.334
88095W        W53322  38.527  33.546  14.025
88096W        W53323  40.358  32.308   1.863
88097W        W53324  33.420  26.460   2.771
88098W        W53325  24.717  27.512   0.852
88099W        W53326  40.832   3.813   3.084
88100W        W53327  29.563  44.240   1.356
88101W        W53328   1.317   3.189  11.252
88102W        W53329  10.774  25.218   4.400
88103W        W53330  12.669   5.893  14.239
88104W        W53331   0.774  36.509   4.129
88105W        W53332  44.487  22.647  13.450
88106W        W53333  21.188  12.377   4.710
88107W        W53334  42.463  18.939   4.168
88108W        W53335  43.215  11.739  14.504
88109W        W53336  31.393  40.444   3.362
88110W        W53337  27.676   2.968   4.466
88111W        W53338   3.734  25.963  14.401
88112W        W53339  42.442   2.824  12.323
88113W        W53340   7.861  25.936   3.003
88114W        W53341  44.130  24.666  12.627
88115W        W53342  37.026  24.700  12.432
88116W        W53343  22.802  10.883  13.553
88117W        W53344   6.775  40.003   4.613
88118W        W53345   0.552  22.673   5.382
88119W        W53346  42.407  35.156   1.826
88120W        W53347   2.195  22.096  12.535
88121W        W53348  36.177  11.751   0.826
88122W        W53349  39.896   7.814   2.631
88123W        W53350  19.649  19.323  12.023
88124W        W53351  24.223   7.254  13.441
88125W        W53352   5.928   1.292   4.680
88126W        W53353   4.431   3.835  14.312
88127W        W53354  34.155  19.072   2.194
88128W        W53355  12.809  10.427  13.855
88129W        W53356  10.438  33.809   3.550
88130W        W53357  24.894  22.227  11.082
88131W        W53358  20.146   9.141  12.558
88132W        W53359  18.546  18.333   1.230
88133W        W53360  23.172  17.193  12.563
88134W        W53361   9.035  32.382  14.460
88135W        W53362  39.421  28.968   0.253
88136W        W53363  13.437  42.363   1.660
88137W        W53364  38.596   4.777  13.500
88138W        W53365  29.533  26.018   0.237
88139W        W53366   4.920  25.443   5.106
88140W        W53367   4.970  42.590  14.951
88141W        W53368  23.787  14.682   4.091
88142W        W53369  39.985   4.961   1.814
88143W        W53370  14.222  37.653  12.523
88144W        W53371  13.025  38.468  11.952
88145W        W53372  27.322  20.716   3.014
88146W        W53373  13.898  24.199   5.001
88147W        W53374  37.342  16.837  10.544
88148W        W53375  23.850  36.462  13.455
88149W        W53376  21.494  31.872  11.031
88150W        W53377  16.617  35.279  12.952
88151W        W53378  20.623  29.966  11.691
88152W        W53379   0.271  15.135   4.062
88153W        W53380  43.131  27.957   5.016
88154W        W53381   3.023  21.672  10.391
88155W        W53382  40.516  22.725   2.233
88156W        W53383  28.396  39.137   2.354
88157W        W53384  37.225  28.940   3.788
88158W        W53385  31.019  13.858   1.270
88159W        W53386  21.310   2.155  10.137
88160W        W53387  24.500  37.005   3.352
88161W        W53388   1.917  36.489   2.017
88162W        W53389  32.975   0.708  13.731
88163W        W53390  40.418  21.715   4.722
88164W        W53391  35.483  34.915   3.518
88165W        W53392  12.829  21.327  11.590
88166W        W53393  10.954   0.965   3.547
88167W        W53394  37.349  23.746  11.129
88168W        W53395   4.717  31.180  13.510
88169W        W53396  38.391   6.349   0.703
88170W        W53397  11.778   9.748   2.231
88171W        W53398  43.369   0.296   2.862
88172W        W53399   4.843  12.337  11.810
88173W        W53400  13.042   8.076   4.630
88174W        W53401  36.975  15.268   4.442
88175W        W53402  15.574  35.084  11.004
88176W        W53403  10.400   9.866  11.152
88177W        W53404  27.704  28.054  14.366
88178W        W53405  33.752  35.501  14.711
88179W        W53406  40.943  33.148  10.571
88180W        W53407  30.298  16.052   4.811
88181W        W53408  19.461  32.066   0.308
88182W        W53409  26.099  26.018  12.104
88183W        W53410  24.762  44.339   3.651
88184W        W53411  10.715  25.413   1.954
88185W        W53412   1.801   7.179   1.046
88186W        W53413  39.124   1.210  13.448
88187W        W53414  41.378  11.097  12.892
88188W        W53415   4.800   8.696  11.164
88189W        W53416  14.722  37.191   1.857
88190W        W53417  10.667  26.748  12.435
88191W        W53418  20.500  12.804   3.255
88192W        W53419  11.087  40.319  13.547
88193W        W53420  27.193  29.438   2.966
88194W        W53421   0.863  23.480  11.030
88195W        W53422  24.496  16.821  14.572
88196W        W53423  43.107  13.248   3.663
88197W        W53424  23.431  27.693  14.333
88198W        W53425  15.207  43.456   4.028
88199W        W53426  43.957  34.204  13.804
88200W        W53427   4.872  44.741   3.327
88201W        W53428  17.747  14.706  12.523
88202W        W53429  23.922  39.554  12.922
88203W        W53430  20.484   0.273  14.309
88204W        W53431  23.348   9.159   1.340
88205W        W53432  20.338   4.891  10.904
88206W        W53433  36.717  17.083  12.061
88207W        W53434   2.000  13.209   0.262
88208W        W53435  31.415  43.856   1.360
88209W        W53436   9.871  41.609  12.945
88210W        W53437  15.687  10.128  12.934
88211W        W53438  35.411  42.928  14.371
88212W        W53439  42.966  30.038  14.091
88213W        W53440  14.560  35.896   0.767
88214W        W53441  25.620  19.318  10.473
88215W        W53442   7.022  21.960   2.827
88216W        W53443  42.768   6.599   3.272
88217W        W53444  41.300  38.909  14.883
88218W        W53445   1.316  18.091   1.468
88219W        W53446  27.711  44.448  12.998
88220W        W53447   4.457   3.935   3.893
88221W        W53448  37.026  18.979  11.989
88222W        W53449  27.986  44.756  11.082
88223W        W53450   7.792  29.231   5.052
88224W        W53451  32.191   0.300   4.073
88225W        W53452   3.872  42.369   0.975
88226W        W53453  23.269  38.881  11.041
88227W        W53454  15.336  39.886  11.943
88228W        W53455  37.243  30.465   3.282
88229W        W53456  33.478   6.910   0.403
88230W        W53457   0.428  32.585  12.880
88231W        W53458  13.986   4.318  11.966
88232W        W53459   6.227  24.454   1.919
88233W        W53460  34.219  12.155  13.904
88234W        W53461  22.637  38.344   3.709
88235W        W53462  16.426   2.378   3.767
88236W        W53463   8.240  22.169  10.517
88237W        W53464  29.858  35.075  11.680
88238W        W53465   8.835  44.800   4.627
88239W        W53466   3.073  21.171  12.857
88240W        W53467   5.057  18.300  13.794
88241W        W53468  28.424  35.367   4.563
88242W        W53469  38.946   2.187   4.154
88243W        W53470  12.925  18.849  11.735
88244W        W53471  18.717  10.435  14.688
88245W        W53472  11.237   3.230   2.478
88246W        W53473  25.238   1.473  14.434
88247W        W53474  16.320  19.127  13.048
88248W        W53475   8.485  37.601   4.907
88249W        W53476  20.263  17.304  13.460
88250W        W53477  42.802  29.337   3.264
88251W        W53478  12.727  36.773   2.298
88252W        W53479  37.894   0.921   3.798
88253W        W53480  37.091  25.179   1.641
88254W        W53481  17.762  41.555  11.860
88255W        W53482  28.872  28.318  11.179
88256W        W53483  16.050  31.069   3.386
88257W        W53484  12.871   9.104  11.199
88258W        W53485  17.527  12.822   3.243
88259W        W53486  42.585  11.802   0.743
88260W        W53487  18.228  15.732  14.884
88261W        W53488   2.507  18.690  13.557
88262W        W53489  11.756   9.605  11.956
88263W        W53490  17.256  41.463  11.671
88264W        W53491  28.541  38.451   3.681
88265W        W53492   5.954   7.394   4.948
88266W        W53493   5.087  23.814  11.686
88267W        W53494  15.826  40.811  11.999
88268W        W53495  26.187   5.654  14.740
88269W        W53496  23.375  11.790  13.339
88270W        W53497  16.279  12.285  12.958
88271W        W53498   4.863  44.786  11.557
88272W        W53499  43.585  36.404   2.797
88273W        W53500  24.929   5.414  10.169
88274W        W53501  41.951  31.940  12.939
88275W        W53502  22.727   3.569   1.240
88276W        W53503   2.896  32.118  12.862
88277W        W53504  10.729  36.088   1.634
88278W        W53505   0.217   3.362  12.012
88279W        W53506   4.599  35.086   0.358
88280W        W53507  38.061  24.535  12.189
88281W        W53508  35.994  26.532   3.680
88282W        W53509  21.062  41.786   2.472
88283W        W53510  17.046  29.213   2.885
88284W        W53511  44.185  33.132   3.345
88285W        W53512  10.894  12.980   4.159
88286W        W53513  32.153  40.244  13.686
88287W        W53514   0.725  12.495   4.526
88288W        W53515  41.217  23.536  13.263
88289W        W53516   1.030   3.785   1.890
88290W        W53517   6.397  36.896  12.488
88291W        W53518  18.598  38.126  13.069
88292W        W53519   0.986  24.533   4.108
88293W        W53520  25.656  19.653  14.348
88294W        W53521  39.930  35.410   3.971
88295W        W53522  19.926  24.883  12.312
88296W        W53523  16.972  24.266   4.094
88297W        W53524  16.780   7.386  14.085
88298W        W53525  29.826  44.455   0.931
88299W        W53526  33.528  11.350  11.177
88300W        W53527   1.927  40.460  14.791
88301W        W53528  42.026   2.617   1.346
88302W        W53529   6.679  18.833  12.874
88303W        W53530   4.842   8.778   1.232
88304W        W53531  30.396   1.246   2.846
88305W        W53532  29.107  35.300   0.350
88306W        W53533   7.160  24.164  13.385
88307W        W53534  31.052  14.038  14.415
88308W        W53535  10.620  31.256   3.254
88309W        W53536  41.415  25.493  14.849
88310W        W53537  34.500  26.629  11.094
88311W        W53538   3.232  21.945   3.274
88312W        W53539  38.953  14.226   2.174
88313W        W53540  35.038  20.117  12.612
88314W        W53541   7.652  39.582   4.208
88315W        W53542  38.904  11.696  14.482
88316W        W53543  14.739  43.421   0.812
88317W        W53544  37.903  34.815  11.611
88318W        W53545  25.598   9.818   4.393
88319W        W53546  27.934  30.198  11.524
88320W        W53547  21.198  12.810  11.691
88321W        W53548  17.534  24.051  13.907
88322W        W53549  30.036   1.881  13.059
88323W        W53550  42.149  32.482  13.129
88324W        W53551  37.861  39.533  14.121
88325W        W53552   8.742  33.469  12.689
88326W        W53553   7.240  30.867   3.402
88327W        W53554  21.633  12.884   1.315
88328W        W53555  24.029  42.635  11.055
88329W        W53556  31.504  21.958   3.114
88330W        W53557  22.926  19.206   0.899
88331W        W53558  17.156  39.762   1.397
88332W        W53559   2.320  33.583   3.723
88333W        W53560   2.485  14.142  11.181
88334W        W53561  25.998  23.297  12.438
88335W        W53562  14.676   3.805  11.638
88336W        W53563  31.091  19.093   2.442
88337W        W53564  38.458  28.518  11.201
88338W        W53565   3.874  14.774   1.298
88339W        W53566  18.289  18.274   0.471
88340W        W53567   1.248  11.789   0.427
88341W        W53568  33.944   2.245  13.628
88342W        W53569  22.949  10.538  13.198
88343W        W53570   6.225  11.180   4.344
88344W        W53571  18.005  15.733  13.050
88345W        W53572  13.838   2.832   1.735
88346W        W53573   5.972  36.547  12.532
88347W        W53574  25.109   3.954  13.555
88348W        W53575  19.391  43.798   3.780
88349W        W53576   2.292   5.444  13.043
88350W        W53577  23.107  28.928  14.011
88351W        W53578  15.712  16.591   3.645
88352W        W53579   3.960  31.014   0.304
88353W        W53580  12.778  34.173   4.576
88354W        W53581   2.847   5.439  11.624
88355W        W53582  42.738  38.509  14.437
88356W        W53583  32.382  30.887  11.524
88357W        W53584  26.567   0.539   3.949
88358W        W53585  44.233  38.891   4.756
88359W        W53586   5.538  12.233   4.733
88360W        W53587  36.645   5.213   2.767
88361W        W53588  41.833  38.989   4.605
88362W        W53589  40.955  34.364  11.176
88363W        W53590  11.795  38.933  12.458
88364W        W53591  20.530  22.772   0.653
88365W        W53592  27.500  29.370   1.885
88366W        W53593   7.669  17.251   0.394
88367W        W53594  11.168  37.405   4.606
88368W        W53595  32.701  23.204  12.951
88369W        W53596  10.318  17.633  12.956
88370W        W53597  31.992  39.122   3.968
88371W        W53598   6.510   1.282   0.323
88372W        W53599  24.630  32.524  11.771
88373W        W53600   5.054   1.509  11.512
88374W        W53601  22.748  10.694   0.285
88375W        W53602  23.444  19.151   0.862
88376W        W53603  26.297  40.494  12.567
88377W        W53604  28.912  36.863   2.775
88378W        W53605  40.386   4.179   0.800
88379W        W53606   8.748   0.448  11.921
88380W        W53607  32.830  41.729   3.742
88381W        W53608  35.603   9.636  12.464
88382W        W53609  30.476   5.305  12.956
88383W        W53610  32.393  22.071  11.582
88384W        W53611  41.317  24.086  12.716
88385W        W53612   8.480   3.805  10.671
88386W        W53613  41.526   1.518   4.109
88387W        W53614  37.933  22.740   1.799
88388W        W53615  44.148  12.605   0.339
88389W        W53616   8.786   7.406  12.367
88390W        W53617  23.483  41.287  11.941
88391W        W53618  34.752  34.429  14.422
88392W        W53619  15.833  14.620   2.311
88393W        W53620  31.166  12.289   4.544
88394W        W53621  26.681  16.036  13.590
88395W        W53622   9.485  20.153  10.993
88396W        W53623  15.821  21.994  12.172
88397W        W53624  23.756  31.559  10.642
88398W        W53625   9.757  30.908   4.522
88399W        W53626   8.528  42.822   0.685
88400W        W53627  41.316   4.783  14.008
88401W        W53628   5.717  29.538  11.591
88402W        W53629  32.877   9.318  10.964
88403W        W53630  28.518  23.106   3.327
88404W        W53631  21.248   9.640  11.121
88405W        W53632   4.188  39.113   4.154
88406W        W53633  25.659  42.320  13.312
88407W        W53634  24.125  32.896   2.361
88408W        W53635  20.614  30.659  11.158
88409W        W53636   3.844  30.476   0.384
88410W        W53637  38.316  10.970  13.550
88411W        W53638  32.940  11.920  11.966
88412W        W53639  27.608   4.946  11.196
88413W        W53640   9.588   5.951   2.246
88414W        W53641   0.426   8.014  11.128
88415W        W53642  20.489  38.806   0.825
88416W        W53643  35.653  31.227  13.092
88417W        W53644  27.953   2.170   2.724
88418W        W53645  29.530  18.524  12.590
88419W        W53646   5.366  13.297   1.865
88420W        W53647  33.037  35.118   1.164
88421W        W53648   7.864  25.549  14.418
88422W        W53649  14.139   3.247   2.346
88423W        W53650  26.058  16.853  12.109
88424W        W53651  33.072   5.814  12.607
88425W        W53652  34.907  38.072   3.227
88426W        W53653  44.230  27.140   9.640
88427W        W53654  16.546  14.489  13.922
88428W        W53655  31.514  39.473   5.036
88429W        W53656   2.941  12.165  12.219
88430W        W53657   5.257  39.590  14.080
88431W        W53658  18.632  41.064   0.961
88432W        W53659  44.133  14.155  13.298
88433W        W53660  43.807  17.292  14.031
88434W        W53661   9.720  29.185  14.685
88435W        W53662  32.890   2.731   0.988
88436W        W53663   7.480   4.817   4.096
88437W        W53664  14.730  13.256  13.252
88438W        W53665  33.702  12.518   9.802
88439W        W53666  19.133   5.327   3.120
88440W        W53667  29.230  37.161   1.813
88441W        W53668  44.353   2.469  10.639
88442W        W53669  34.939  36.901  10.574
88443W        W53670  34.009  27.107   3.032
88444W        W53671  23.965  35.445   4.091
88445W        W53672  42.962  25.748   3.650
88446W        W53673   4.394  35.507  14.590
88447W        W53674  42.294  34.087  13.431
88448W        W53675  41.661   4.378  13.338
88449W        W53676   4.957  36.069   2.724
88450W        W53677  20.059  14.818   2.916
88451W        W53678  34.625   3.380   3.194
88452W        W53679  21.444  11.262   3.838
88453W        W53680  27.760  35.475  12.939
88454W        W53681  32.537  20.542  14.825
88455W        W53682  23.795  42.409   1.173
88456W        W53683  25.500  43.422  14.908
88457W        W53684  40.615   3.760   2.161
88458W        W53685  24.414  41.958   2.629
88459W        W53686   1.977  42.377  14.711
88460W        W53687  42.888  33.849  11.362
88461W        W53688  29.500  22.514   4.610
88462W        W53689  11.422  28.718   3.641
88463W        W53690  24.541  16.336  14.775
88464W        W53691  28.680  12.695   1.441
88465W        W53692  11.146  33.911   3.427
88466W        W53693   2.909  32.825  13.383
88467W        W53694  15.317  11.271   2.771
88468W        W53695  26.523  26.155  11.288
88469W        W53696   0.829   4.319  11.106
88470W        W53697  14.589  40.104  12.454
88471W        W53698  10.185  16.327   3.871
88472W        W53699  31.135  22.147  10.827
88473W        W53700  13.709   7.583  12.550
88474W        W53701   1.723  10.107   1.016
88475W        W53702  44.247   2.219   3.668
88476W        W53703  21.765  26.083  13.996
88477W        W53704  40.440  17.999   4.676
88478W        W53705  43.226   2.327  14.472
88479W        W53706  10.759  11.027   2.240
88480W        W53707  35.631  31.546   0.422
88481W        W53708   3.745  38.834  10.774
88482W        W53709  15.354   3.682  11.643
88483W        W53710  21.715   3.357  13.896
88484W        W53711   5.956   9.407   1.372
88485W        W53712   7.223  27.397   2.743
88486W        W53713  34.026  30.670  12.161
88487W        W53714  19.881  24.075  10.789
88488W        W53715  33.450  18.171  11.001
88489W        W53716  26.653  33.070   4.157
88490W        W53717  41.176  13.024   2.811
88491W        W53718  29.921   7.690  14.839
88492W        W53719  16.226   5.763   3.179
88493W        W53720   7.948  26.758  12.992
88494W        W53721   0.864   7.265  10.979
88495W        W53722   3.760  38.839  11.775
88496W        W53723  19.055   8.836   3.177
88497W        W53724  37.063   2.534  13.964
88498W        W53725   9.279  12.874   2.578
88499W        W53726  44.318  11.102   5.351
88500W        W53727   7.874  38.121   4.188
88501W        W53728  16.595  30.857  11.992
88502W        W53729  11.177   4.797  14.890
88503W        W53730  26.945   5.364  12.453
88504W        W53731  26.570  22.092  10.702
88505W        W53732  39.547  26.350  11.078
88506W        W53733  20.362   6.785   3.177
88507W        W53734  17.659   6.699  11.243
88508W        W53735   7.943   8.201   0.859
88509W        W53736  10.265  30.888  14.778
88510W        W53737  27.427   3.575   1.908
88511W        W53738  40.739   9.387  10.576
88512W        W53739  17.229  42.633  12.956
88513W        W53740   3.483   9.310  10.636
88514W        W53741  42.878   8.846  10.615
88515W        W53742  33.425   0.006  14.452
88516W        W53743  27.548  44.329  14.579
88517W        W53744  34.000  17.823   3.278
88518W        W53745  26.093  42.835  10.312
88519W        W53746   5.315  34.168   0.646
88520W        W53747   0.854  40.888  10.747
88521W        W53748  37.889  16.511  14.388
88522W        W53749  36.568  24.176  11.156
88523W        W53750  25.605   0.240  12.435
88524W        W53751  15.856  19.136  12.213
88525W        W53752  22.673   7.370   1.623
88526W        W53753  20.187  14.172  11.778
88527W        W53754  19.290  21.014   3.191
88528W        W53755  32.748   9.851   4.162
88529W        W53756  23.468  27.843   1.140
88530W        W53757   3.379  35.508  13.181
88531W        W53758  34.885  25.375  13.866
88532W        W53759  18.709  42.458  12.144
88533W        W53760  38.348  19.072  11.909
88534W        W53761  33.626   5.949   0.048
88535W        W53762  22.648  35.025   3.224
88536W        W53763   2.432  36.175  10.257
88537W        W53764  40.356  22.467   0.705
88538W        W53765  39.186  44.870   1.022
88539W        W53766  27.570  12.959   1.726
88540W        W53767  42.550   3.238   4.484
88541W        W53768  18.805  24.527   1.729
88542W        W53769  21.256  39.119   1.749
88543W        W53770  36.957  11.145   1.309
88544W        W53771   0.790  21.589   1.710
88545W        W53772   4.406  44.056   1.760
88546W        W53773  11.622   7.588  10.990
88547W        W53774  24.208  17.638   0.676
88548W        W53775  33.227   9.793  11.557
88549W        W53776   3.941  10.745   4.110
88550W        W53777  11.275  24.962  13.399
88551W        W53778  34.919  31.031  10.423
88552W        W53779  21.769  32.195   4.788
88553W        W53780  39.822   8.363   4.986
88554W        W53781  38.827  13.732   1.445
88555W        W53782  42.955  31.603  10.578
88556W        W53783  40.927  44.534   4.803
88557W        W53784  15.415  25.894   1.237
88558W        W53785  27.268  23.640   0.244
88559W        W53786   9.639  22.618   2.355
88560W        W53787  29.098  14.746   1.778
88561W        W53788   1.940  19.301  14.362
88562W        W53789  31.381  38.292  11.587
88563W        W53790  42.862  27.051  11.468
88564W        W53791   4.372  33.643   0.200
88565W        W53792  15.238  29.492  10.816
88566W        W53793  13.265   3.932   4.785
88567W        W53794  35.032   7.698  13.001
88568W        W53795   1.955   8.391   3.621
88569W        W53796  21.143  43.940  11.194
88570W        W53797  28.519  17.513   3.220
88571W        W53798  28.651  20.273   0.436
88572W        W53799  23.548  17.607  11.434
88573W        W53800   4.109  33.342   4.230
88574W        W53801  40.755  25.962  10.688
88575W        W53802  24.935  18.125   3.074
88576W        W53803  42.357  13.269  12.224
88577W        W53804  17.765   9.964  11.610
88578W        W53805  14.187  30.063   4.378
88579W        W53806  39.745   7.073  11.223
88580W        W53807  15.346  36.009   1.862
88581W        W53808  42.229  36.636   0.381
88582W        W53809   6.195  43.074   2.601
88583W        W53810  43.900   0.395   3.726
88584W        W53811  18.112   5.678   1.858
88585W        W53812  28.721  39.525   0.836
88586W        W53813  26.875  12.168   4.536
88587W        W53814   4.511   9.397  14.252
88588W        W53815  18.638  11.247   2.218
88589W        W53816  32.540  24.735  12.390
88590W        W53817  36.647  21.557  14.744
88591W        W53818  23.292   5.678   2.902
88592W        W53819  44.912  42.538  10.590
88593W        W53820  26.678   4.868   1.242
88594W        W53821  16.555  25.581   4.019
88595W        W53822  11.488  17.919   9.906
88596W        W53823   6.190  33.142   0.316
88597W        W53824  35.417  23.735   2.371
88598W        W53825  24.734  44.398  14.538
88599W        W53826  37.082   7.405   0.744
88600W        W53827  28.038  35.172  10.583
88601W        W53828   2.006  23.960   2.170
88602W        W53829  38.937  16.403  11.068
88603W        W53830  12.129   7.642  12.904
88604W        W53831  31.308   2.436  14.780
88605W        W53832  13.061  37.557   1.440
88606W        W53833  32.625  42.080  11.672
88607W        W53834  20.113   9.805   4.662
88608W        W53835  42.115  28.018  10.816
88609W        W53836  35.711  43.397   1.791
88610W        W53837   8.344   0.934   4.109
88611W        W53838  35.490  41.031  13.823
88612W        W53839  43.222   7.323   2.223
88613W        W53840  27.564  29.205  12.874
88614W        W53841  27.089  41.862   0.763
88615W        W53842  31.583   4.714  13.846
88616W        W53843  10.718  14.889  14.924
88617W        W53844  17.039  44.792   0.272
88618W        W53845   1.743   8.929  12.350
88619W        W53846  37.356  23.876   0.684
88620W        W53847  10.478  14.387   1.070
88621W        W53848  23.996   2.888   5.077
88622W        W53849  19.543  27.236  12.109
88623W        W53850  22.564  22.833  14.508
88624W        W53851  28.913  21.048   3.651
88625W        W53852  26.990  28.598  12.609
88626W        W53853  28.544  39.167  13.765
88627W        W53854   1.296  30.069   3.818
88628W        W53855  13.303  35.812  14.515
88629W        W53856  20.930  19.698  11.501
88630W        W53857  14.177  16.345  13.961
88631W        W53858  11.802  43.740   0.717
88632W        W53859  41.485   0.181   5.051
88633W        W53860  26.929  20.621   1.243
88634W        W53861  23.357   8.352   4.083
88635W        W53862  38.862  30.870   4.113
88636W        W53863   1.624  39.046  11.495
88637W        W53864   4.277  39.483   1.871
88638W        W53865  40.059   6.220   0.106
88639W        W53866  22.195   7.742  13.123
88640W        W53867  42.435  43.393  10.678
88641W        W53868  25.459  37.616  11.151
88642W        W53869  10.849   7.801  13.380
88643W        W53870  16.219   8.354   2.908
88644W        W53871  22.468  23.844   2.386
88645W        W53872   6.609  41.327  11.224
88646W        W53873   8.241  20.080   3.156
88647W        W53874  42.383   0.469  11.593
88648W        W53875   2.822   4.741   0.215
88649W        W53876  20.510   2.812   3.142
88650W        W53877   6.692  17.800  12.901
88651W        W53878  35.175  26.095   1.122
88652W        W53879   6.961  13.228  12.778
88653W        W53880  37.337  22.979  11.991
88654W        W53881   6.636   8.985  11.711
88655W        W53882  10.660  16.635   2.232
88656W        W53883  37.142  17.731  11.619
88657W        W53884  33.008  29.242  12.469
88658W        W53885   1.497  26.238  14.519
88659W        W53886  20.301  43.175  13.424
88660W        W53887   9.616  33.557  10.344
88661W        W53888  34.037   3.977  10.528
88662W        W53889  20.101  24.032   2.583
88663W        W53890  22.453  17.656  12.604
88664W        W53891  35.489  27.655   1.546
88665W        W53892   1.472  17.808  11.597
88666W        W53893   7.324   7.519  14.877
88667W        W53894  20.066   1.758  14.414
88668W        W53895  29.860  23.615   4.690
88669W        W53896  26.063  37.207   1.253
88670W        W53897  36.401  23.048  10.547
88671W        W53898   7.176  26.744   3.717
88672W        W53899  31.811  33.769  14.439
88673W        W53900  16.252  22.188   2.730
88674W        W53901  44.974   7.327   0.265
88675W        W53902  19.511   1.691  11.123
88676W        W53903  44.024   9.036  13.871
88677W        W53904  25.612  16.027  10.558
88678W        W53905  12.019   8.725  10.429
88679W        W53906  29.554  40.279   1.269
88680W        W53907  29.358  35.545   2.673
88681W        W53908  31.870  35.309  10.772
88682W        W53909  16.944   0.834   4.143
88683W        W53910  30.349   3.783  12.680
88684W        W53911  12.198  22.328   4.685
88685W        W53912  10.407  24.789  13.833
88686W        W53913   7.226  40.743   2.429
88687W        W53914  44.927  26.783   2.639
88688W        W53915  19.377  25.070   2.293
88689W        W53916  13.759  12.353  10.945
88690W        W53917  26.443  37.403  11.037
88691W        W53918  39.378   9.960   1.714
88692W        W53919   1.263  35.422  13.910
88693W        W53920  22.587  29.613   2.515
88694W        W53921  11.774  28.142  10.704
88695W        W53922  38.697  17.724  11.523
88696W        W53923  44.285  33.887   1.391
88697W        W53924   2.807  12.312   3.041
88698W        W53925  16.427  11.734  11.056
88699W        W53926   7.838  27.496  14.699
88700W        W53927  26.966   4.042  12.981
88701W        W53928  36.005  22.560  13.289
88702W        W53929   3.110   0.252   1.118
88703W        W53930  16.422  29.833  12.769
88704W        W53931   5.805  44.803   1.736
88705W        W53932  13.852  11.243  11.572
88706W        W53933  35.478  36.366   4.594
88707W        W53934  21.947  11.283   3.771
88708W        W53935   2.155  13.141   1.689
88709W        W53936  27.182  12.239  12.639
88710W        W53937  21.109  22.063  11.069
88711W        W53938  16.338  22.232   0.879
88712W        W53939  44.413  15.201  12.866
88713W        W53940  22.702  15.936  14.501
88714W        W53941  40.083  35.161   3.033
88715W        W53942  32.077  44.961  11.903
88716W        W53943  39.714  37.361  12.062
88717W        W53944  37.029   8.130   1.528
88718W        W53945  11.797  23.981  10.657
88719W        W53946  23.678  33.698   1.971
88720W        W53947  10.283  21.989   2.747
88721W        W53948  17.124  15.897   2.854
88722W        W53949   3.928  32.983   0.631
88723W        W53950  40.967  30.389   4.184
88724W        W53951  31.106  32.352   2.361
88725W        W53952  29.591   9.212  11.191
88726W        W53953  25.511  16.771  13.120
88727W        W53954  32.123  12.367   1.479
88728W        W53955  15.727  43.024  14.025
88729W        W53956   9.871  29.426   2.590
88730W        W53957  12.845   3.693   1.758
88731W        W53958  19.036  23.250   4.596
88732W        W53959  31.196   1.164   3.776
88733W        W53960  10.617  30.811   1.356
88734W        W53961  26.745  27.952  10.569
88735W        W53962   9.277  28.738   4.222
88736W        W53963  33.024  19.716  12.517
88737W        W53964   7.664   5.710  14.797
88738W        W53965   3.051   2.842  10.667
88739W        W53966   3.280   8.846  11.368
88740W        W53967  40.061  30.531  11.607
88741W        W53968  10.266  26.067   1.441
88742W        W53969   6.345  39.550   4.242
88743W        W53970  22.499  20.645  11.701
88744W        W53971  27.959  16.301  10.693
88745W        W53972  18.097   3.917  11.051
88746W        W53973  18.509   5.747  10.669
88747W        W53974  42.826  28.411  10.549
88748W        W53975  30.779  39.090   2.260
88749W        W53976  12.720  14.534  12.443
88750W        W53977  41.677  21.231  11.524
88751W        W53978  28.637  30.378   2.655
88752W        W53979  20.819  37.483   1.249
88753W        W53980  30.195  16.718  12.398
88754W        W53981  20.258  43.576  10.703
88755W        W53982  21.685  13.653   4.875
88756W        W53983  10.053  20.930   1.546
88757W        W53984   0.330  39.404  12.971
88758W        W53985   7.152  19.339  14.542
88759W        W53986  27.678   8.719  11.689
88760W        W53987   6.166  25.003  14.855
88761W        W53988  27.983  28.073  11.725
88762W        W53989  32.857  30.476  14.880
88763W        W53990  16.060   4.323  13.813
88764W        W53991  11.269  40.527  13.087
88765W        W53992  11.828  37.589  14.452
88766W        W53993  43.339   7.350  14.558
88767W        W53994  43.252  29.246   2.993
88768W        W53995  27.017  37.528  12.932
88769W        W53996  25.194   0.124   2.421
88770W        W53997   2.038   1.418  13.715
88771W        W53998  18.553  30.938   3.646
88772W        W53999  32.449  41.162  11.324
88773W        W54000  37.711  13.109  11.328
88774W        W54001  38.567  27.381  11.638
88775W        W54002  15.280  30.840  10.336
88776W        W54003  44.747  17.431   4.227
88777W        W54004  11.763   1.331  11.529
88778W        W54005   4.420  39.619   0.908
88779W        W54006  42.849   6.359  10.741
88780W        W54007  38.448  21.746   0.666
88781W        W54008  35.389   5.536  10.288
88782W        W54009  27.088  40.368  14.224
88783W        W54010  10.381  41.971   5.099
88784W        W54011  21.314  16.330   2.835
88785W        W54012  26.100  15.715   4.491
88786W        W54013  20.272  41.408  12.987
88787W        W54014  15.606  14.178   3.233
88788W        W54015  43.862  23.154  12.589
88789W        W54016  19.415  28.026   1.328
88790W        W54017  12.285  24.748   4.663
88791W        W54018  19.192  12.149   0.954
88792W        W54019  12.241  35.607   0.508
88793W        W54020  37.367  16.819   3.111
88794W        W54021  22.575  41.407  13.076
88795W        W54022   6.412  13.647  12.437
88796W        W54023  33.397  23.509  14.359
88797W        W54024  26.576  34.643  14.839
88798W        W54025  34.501  41.858   1.844
88799W        W54026   6.217  44.067   3.283
88800W        W54027   3.402   4.196  13.377
88801W        W54028  26.867   9.416  14.371
88802W        W54029  36.457  16.228  13.517
88803W        W54030  32.977  12.843  12.501
88804W        W54031  34.031  31.288   4.561
88805W        W54032  19.668  18.197  11.700
88806W        W54033  14.732   1.653   2.764
88807W        W54034  44.702  41.438  10.350
88808W        W54035   4.157  39.879   3.642
88809W        W54036  43.579  32.540   2.227
88810W        W54037  17.650  21.685   1.848
88811W        W54038  27.220   9.601  12.596
88812W        W54039   7.360  11.975   4.365
88813W        W54040   1.187  40.963   4.038
88814W        W54041  22.582  18.252   3.660
88815W        W54042  20.513  25.980  14.428
88816W        W54043  32.327  31.425  11.977
88817W        W54044  17.155  20.794  11.546
88818W        W54045  10.635   7.879   4.207
88819W        W54046  20.669  37.659  12.151
88820W        W54047  30.619  26.842   4.044
88821W        W54048   4.802  13.702  11.435
88822W        W54049  39.544  11.380   3.721
88823W        W54050  35.617  20.109  14.720
88824W        W54051  19.625   4.797   0.781
88825W        W54052   8.795   9.391   4.690
88826W        W54053   7.947  15.795   3.065
88827W        W54054  22.980  13.799  11.207
88828W        W54055   6.701  35.199   4.911
88829W        W54056  23.582  38.861   0.023
88830W        W54057   1.932  36.152   1.631
88831W        W54058  17.572  36.473   0.276
88832W        W54059  40.905  24.209  10.504
88833W        W54060  36.443   1.874  13.892
88834W        W54061  35.474  19.176   1.613
88835W        W54062   4.159  21.133  10.729
88836W        W54063  11.193  40.742  10.771
88837W        W54064   5.250  36.797  14.500
88838W        W54065   7.839  24.969  12.534
88839W        W54066   2.049   8.393  12.119
88840W        W54067  26.255  17.101  12.561
88841W        W54068  26.564   3.393   1.341
88842W        W54069  42.190  33.853   4.503
88843W        W54070  22.968  31.861   0.368
88844W        W54071  33.057  44.531  11.940
88845W        W54072  10.669  44.350  12.957
88846W        W54073  16.129  34.422  10.417
88847W        W54074  26.658  28.840  10.610
88848W        W54075  16.442  33.855   9.755
88849W        W54076  17.835  36.710  12.073
88850W        W54077  12.633  40.338  11.093
88851W        W54078  32.086  23.046   0.377
88852W        W54079  20.602  21.035   2.248
88853W        W54080  16.740  11.660  11.462
88854W        W54081  32.888   4.473   3.294
88855W        W54082  41.394  10.084   1.428
88856W        W54083  43.650  26.184   0.288
88857W        W54084  26.225  30.866   2.244
88858W        W54085   6.842  27.411  11.199
88859W        W54086  18.272   9.273  11.276
88860W        W54087  43.586  25.589  13.350
88861W        W54088  13.706   3.343  12.147
88862W        W54089  29.260   8.103  12.446
88863W        W54090   8.780   0.141   1.410
88864W        W54091  36.931  34.632  14.899
88865W        W54092   1.311  44.873  14.465
88866W        W54093  41.419   4.558   3.758
88867W        W54094  20.561  34.908  11.410
88868W        W54095  10.711  29.023  12.158
88869W        W54096  41.802  41.344   2.353
88870W        W54097  42.485  39.325  14.585
88871W        W54098  35.426  21.293  11.861
88872W        W54099  30.408  35.574  13.875
88873W        W54100  20.192  11.796   0.314
88874W        W54101  26.755  21.296   0.559
88875W        W54102  43.496  22.963   0.828
88876W        W54103  24.890  43.521   4.521
88877W        W54104   6.400  40.960   1.494
88878W        W54105  15.369  38.865   4.550
88879W        W54106  40.870  35.104   4.249
88880W        W54107  39.623  21.814  11.238
88881W        W54108  38.846  21.717  12.229
88882W        W54109  40.518  11.354   0.345
88883W        W54110   6.068  32.546  14.423
88884W        W54111   5.471  27.288  11.229
88885W        W54112  13.526   7.348   4.677
88886W        W54113  10.491   1.420  11.136
88887W        W54114  14.072   6.828   4.106
88888W        W54115  24.844   1.201  14.791
88889W        W54116   2.591   6.493  13.243
88890W        W54117  42.627  21.661  13.469
88891W        W54118   4.445  26.563  11.575
88892W        W54119  24.739  12.635   0.737
88893W        W54120  44.022   8.225  13.524
88894W        W54121  31.139  33.843  12.762
88895W        W54122  23.656  42.435   3.817
88896W        W54123   9.395  35.117   2.856
88897W        W54124   0.555  19.603   0.247
88898W        W54125  42.474   5.229  11.142
88899W        W54126  19.705  22.685   2.308
88900W        W54127  28.389  11.553   2.764
88901W        W54128  21.631   6.734   0.776
88902W        W54129   2.309  37.035   2.356
88903W        W54130  40.436  10.620  12.606
88904W        W54131  34.409  12.822  13.963
88905W        W54132  32.639  14.709  14.848
88906W        W54133  25.469  10.182   4.763
88907W        W54134  40.107  24.559   3.685
88908W        W54135  23.965  44.324  10.024
88909W        W54136  15.627  44.280  12.322
88910W        W54137  31.504   5.962   0.237
88911W        W54138  19.613  34.618  11.125
88912W        W54139   7.282   5.784  12.609
88913W        W54140   8.123  34.984   4.170
88914W        W54141  20.639   0.615   4.307
88915W        W54142  10.241  37.997   0.327
88916W        W54143   5.718  28.634  13.568
88917W        W54144   1.724   8.757   1.103
88918W        W54145  18.553  43.978  11.088
88919W        W54146  41.490   9.753  11.015
88920W        W54147  13.385  33.888  12.396
88921W        W54148  28.766  40.866   4.147
88922W        W54149  12.161  21.150   4.683
88923W        W54150  19.741  41.277   1.699
88924W        W54151  11.687  42.514   0.020
88925W        W54152   9.153  28.475  13.894
88926W        W54153  37.243  11.556  11.134
88927W        W54154   5.485  39.320  14.903
88928W        W54155  23.532   1.018   0.062
88929W        W54156   9.831  21.974   3.454
88930W        W54157  23.399  39.537  12.920
88931W        W54158  44.072   4.426   0.819
88932W        W54159  31.962  26.260  11.766
88933W        W54160   7.769  44.726   2.466
88934W        W54161  37.500   3.600  10.789
88935W        W54162   3.726  18.027   2.409
88936W        W54163  34.520  23.354   2.228
88937W        W54164  29.104  33.462  11.958
88938W        W54165  41.445  21.992   1.260
88939W        W54166  44.402  16.014   3.715
88940W        W54167  34.786  38.474   4.321
88941W        W54168  15.379  25.096  12.676
88942W        W54169  42.030   6.594  10.800
88943W        W54170   3.193   5.216  14.522
88944W        W54171  17.708  20.233  13.523
88945W        W54172   0.452  31.374   2.995
88946W        W54173   8.390   6.314  13.682
88947W        W54174  43.888   1.342  13.633
88948W        W54175  35.078  15.102   4.820
88949W        W54176  21.821  29.645  11.545
88950W        W54177  19.791  32.525  10.805
88951W        W54178  36.170  15.559   2.886
88952W        W54179  31.566  26.230   2.035
88953W        W54180  12.227  18.145  13.537
88954W        W54181   2.292  27.665   3.558
88955W        W54182  34.937   3.963  10.729
88956W        W54183  32.755  40.067   4.004
88957W        W54184  28.059  43.820   1.672
88958W        W54185  33.610  33.668  10.740
88959W        W54186   3.785  32.200   9.844
88960W        W54187   3.129  10.393  10.645
88961W        W54188  24.516  18.599   2.294
88962W        W54189  34.144  39.043   0.247
88963W        W54190  30.484   9.234  12.918
88964W        W54191   8.078  31.681   2.509
88965W        W54192   5.852  13.153   4.173
88966W        W54193  39.861  33.042  11.666
88967W        W54194  17.432   9.287  13.450
88968W        W54195  21.185  10.160  13.545
88969W        W54196  14.780  33.923  12.710
88970W        W54197  13.110  16.523  10.638
88971W        W54198  40.249  28.084   0.981
88972W        W54199  15.195   7.684   1.725
88973W        W54200  36.737  24.343   2.137
88974W        W54201  19.169  40.764   2.626
88975W        W54202  16.895  34.855  11.121
88976W        W54203  35.531  20.982  14.524
88977W        W54204  28.416   1.450   1.752
88978W        W54205  32.407  40.400  13.027
88979W        W54206  31.062  16.855  14.085
88980W        W54207  18.572   7.428  14.522
88981W        W54208  30.143  17.220   0.481
88982W        W54209  42.896  40.595   1.576
88983W        W54210  38.876  29.377   1.926
88984W        W54211   1.753  42.561  12.502
88985W        W54212   0.683  31.125  14.945
88986W        W54213  28.654  31.087   1.258
88987W        W54214  30.895  16.868  11.926
88988W        W54215  10.709  12.558   1.335
88989W        W54216  32.194  36.306   2.459
88990W        W54217  14.202   5.892  13.801
88991W        W54218  23.637  36.567  12.996
88992W        W54219  11.744   8.773  12.594
88993W        W54220   1.867  30.204  11.486
88994W        W54221  30.717  27.868   3.540
88995W        W54222  30.719  34.383  14.384
88996W        W54223  34.610  35.467  14.344
88997W        W54224  28.534  43.634   1.483
88998W        W54225  29.793  18.240   3.215
88999W        W54226   7.936  41.278  14.854
89000W        W54227  30.415  17.139   4.855
89001W        W54228  26.976  32.439   1.427
89002W        W54229  11.958  35.688  11.587
89003W        W54230  40.703  22.143  10.592
89004W        W54231  25.768   4.654   3.213
89005W        W54232  40.087  24.281  13.385
89006W        W54233   2.470  42.240  14.593
89007W        W54234  26.818   1.573   0.657
89008W        W54235   9.350  25.974   4.412
89009W        W54236  38.370  36.826   1.911
89010W        W54237  18.273  21.398   3.201
89011W        W54238   4.300  39.102   0.971
89012W        W54239  11.084   0.665   0.799
89013W        W54240  18.486   4.906   3.326
89014W        W54241  40.874  14.731   0.430
89015W        W54242  19.815  11.457   0.822
89016W        W54243  25.649  32.641   1.821
89017W        W54244   5.734  19.069   2.293
89018W        W54245   5.693  33.949  11.761
89019W        W54246  10.218   8.730  11.224
89020W        W54247  23.779  15.116   0.378
89021W        W54248  10.953  25.725   2.830
89022W        W54249  10.476  26.908   3.994
89023W        W54250  30.033   5.426  12.731
89024W        W54251  18.724  28.665   3.403
89025W        W54252  40.704  38.541   0.924
89026W        W54253   1.058   3.414   3.891
89027W        W54254  20.632  16.262   2.398
89028W        W54255   6.924   9.860  13.037
89029W        W54256  17.009   3.631   0.388
89030W        W54257  11.901  21.282  11.290
89031W        W54258   1.382  21.648  12.973
89032W        W54259  37.484   4.338   1.613
89033W        W54260  28.506   9.889  10.608
89034W        W54261  19.524  31.059   4.132
89035W        W54262  16.174  13.385   2.770
89036W        W54263  13.815   2.635   2.899
89037W        W54264  23.269   5.057   0.321
89038W        W54265  24.231  30.717  12.196
89039W        W54266  29.968   8.385   3.657
89040W        W54267  23.989  15.216  13.659
89041W        W54268  32.570  16.277  14.149
89042W        W54269  36.670   6.316  12.419
89043W        W54270   7.353  36.989  10.515
89044W        W54271  10.880   5.706   3.288
89045W        W54272  32.445  17.083   2.808
89046W        W54273  16.135   9.510   2.601
89047W        W54274  35.101  32.553   0.350
89048W        W54275  16.544   1.601  11.082
89049W        W54276  24.516  39.623   2.287
89050W        W54277  23.103  32.619   3.777
89051W        W54278  34.586  21.003  13.336
89052W        W54279   6.472  37.393  13.854
89053W        W54280  21.182   5.847   2.016
89054W        W54281  18.243   2.263  11.473
89055W        W54282   2.823   8.591  11.529
89056W        W54283  41.755  35.411   3.798
89057W        W54284   9.433  12.304  14.250
89058W        W54285   5.801  39.854   0.952
89059W        W54286  41.745  33.387  14.325
89060W        W54287  12.630  11.809   3.897
89061W        W54288  17.394  21.170   3.443
89062W        W54289   1.499  36.994  12.387
89063W        W54290  38.949   0.326  13.775
89064W        W54291  24.823  25.006   4.546
89065W        W54292  21.443   3.886   1.373
89066W        W54293  34.990  14.671   2.717
89067W        W54294  24.055   2.808  12.687
89068W        W54295   0.144  20.973   1.739
89069W        W54296   1.497  21.382  10.615
89070W        W54297   5.598  12.611   0.931
89071W        W54298  13.135   5.895  10.860
89072W        W54299  43.514  29.499  10.668
89073W        W54300  43.946   1.375   1.735
89074W        W54301   1.450   3.808   2.220
89075W        W54302  23.907  41.547  11.789
89076W        W54303  35.349  27.495  11.612
89077W        W54304   4.732  26.241   9.670
89078W        W54305  27.920  42.901   1.691
89079W        W54306  20.815  34.950  12.123
89080W        W54307  20.482  13.809  13.511
89081W        W54308  41.607  22.110   3.564
89082W        W54309  22.507  14.216  11.668
89083W        W54310  29.068  39.695  11.692
89084W        W54311  19.899  40.919  13.063
89085W        W54312  11.119  36.380  10.688
89086W        W54313  32.601  34.546  11.049
89087W        W54314  41.334  19.029  12.363
89088W        W54315  19.680  15.211  12.915
89089W        W54316  43.910  20.700   2.746
89090W        W54317  20.763   7.109   1.603
89091W        W54318   9.413  16.880   2.131
89092W        W54319  30.580  26.974   1.875
89093W        W54320  40.102  37.479  13.296
89094W        W54321   9.212   7.927  11.504
89095W        W54322   0.884  13.603   1.363
89096W        W54323  29.374  10.580  13.554
89097W        W54324   4.827   4.802   0.939
89098W        W54325  40.558  11.819   3.808
89099W        W54326  23.571   3.966   3.745
89100W        W54327  14.080  11.485   3.273
89101W        W54328  19.037  41.381   2.290
89102W        W54329  41.922  36.490  13.499
89103W        W54330   8.313  39.434  11.997
89104W        W54331  35.850   8.836  13.899
89105W        W54332   1.092  40.347  13.516
89106W        W54333   2.875  36.868  14.345
89107W        W54334  43.252  14.563   4.421
89108W        W54335   7.212  24.599   4.132
89109W        W54336  41.054  42.683  13.745
89110W        W54337  38.262  15.328  14.032
89111W        W54338  33.118  30.966   3.110
89112W        W54339  39.349  14.233  13.928
89113W        W54340  38.731   4.754   2.227
89114W        W54341  28.193  24.441  12.059
89115W        W54342  36.754  38.942  10.489
89116W        W54343   3.495  43.644   1.037
89117W        W54344   7.546  23.520  12.858
89118W        W54345  18.884   5.719  11.880
89119W        W54346  25.948  17.585  13.104
89120W        W54347  32.928   6.412  11.349
89121W        W54348   3.353  27.737  12.796
89122W        W54349  39.318  31.716   0.531
89123W        W54350  17.165  30.385  10.644
89124W        W54351  27.818  32.090   1.206
89125W        W54352  40.826   8.002  11.581
89126W        W54353  37.610  10.190  12.517
89127W        W54354  35.404   7.359   2.340
89128W        W54355  15.332  23.003   2.223
89129W        W54356  29.158  30.797   0.443
89130W        W54357  32.649   6.426   2.854
89131W        W54358  30.245   4.940  14.471
89132W        W54359  23.709  33.079  10.460
89133W        W54360  41.702  29.126   0.871
89134W        W54361   7.276  22.111  14.981
89135W        W54362  40.973  43.978  12.031
89136W        W54363   1.500  14.722   0.872
89137W        W54364  31.475  40.490   0.681
89138W        W54365  35.498   5.555   2.695
89139W        W54366  33.779   5.922  13.451
89140W        W54367   5.941  23.433   2.674
89141W        W54368  33.748  12.877   1.700
89142W        W54369  31.189  29.566   5.195
89143W        W54370  42.861   0.431  14.062
89144W        W54371   0.824  32.334   4.481
89145W        W54372  44.583  37.282  12.875
89146W        W54373  27.638  22.003  12.542
89147W        W54374  35.671  28.903  14.657
89148W        W54375  34.107  33.395   0.010
89149W        W54376  27.047  35.857   0.792
89150W        W54377  31.165  17.165   4.255
89151W        W54378  31.128   4.168  14.423
89152W        W54379  23.042  39.549   1.278
89153W        W54380  21.910  44.428  11.142
89154W        W54381  18.618   4.802  10.782
89155W        W54382  21.829  22.760   3.836
89156W        W54383  37.359  13.612   1.505
89157W        W54384  15.251  18.332   3.838
89158W        W54385  24.433  44.315   2.929
89159W        W54386   1.503  38.072   1.690
89160W        W54387  38.275   3.681  12.791
89161W        W54388   8.895   6.445   3.066
89162W        W54389  29.060  36.297   4.297
89163W        W54390   1.653   0.250   2.336
89164W        W54391  30.701  24.082   3.718
89165W        W54392  34.909  27.253  11.536
89166W        W54393  15.192  23.506   0.357
89167W        W54394  30.889  14.213   3.828
89168W        W54395  35.567  10.810   1.014
89169W        W54396  15.622  22.334  12.567
89170W        W54397   3.698  21.790   2.854
89171W        W54398  22.720  14.386   4.172
89172W        W54399  30.403  18.109  12.348
89173W        W54400   5.280  33.336   0.972
89174W        W54401   4.067  15.971  12.938
89175W        W54402   0.492   3.457  14.519
89176W        W54403  37.998  25.885  12.999
89177W        W54404  37.366  36.846   3.588
89178W        W54405  38.931  39.136   2.133
89179W        W54406  35.954  20.207   3.313
89180W        W54407  26.685  40.393   4.578
89181W        W54408   3.877  13.160  11.702
89182W        W54409  16.317  30.183  11.535
89183W        W54410  25.608  28.684   0.473
89184W        W54411  44.794  12.473   3.792
89185W        W54412  18.061  32.603   4.632
89186W        W54413  30.969  33.104   1.177
89187W        W54414  43.024  22.108   0.901
89188W        W54415  30.698   8.191   0.747
89189W        W54416  30.241  40.491  11.902
89190W        W54417  44.832  16.755   2.621
89191W        W54418   2.410  44.610   5.210
89192W        W54419  39.515  14.344  10.882
89193W        W54420  12.332  37.875  10.559
89194W        W54421  10.458   4.050  13.849
89195W        W54422  18.284   0.953  13.518
89196W        W54423  11.456  37.391  12.588
89197W        W54424  25.129  34.731  11.973
89198W        W54425  14.888  42.484   4.227
89199W        W54426   2.186   6.854  11.711
89200W        W54427  23.319  18.599  12.789
89201W        W54428   1.996  16.102  14.419
89202W        W54429  32.938   7.186   1.950
89203W        W54430  44.416  32.667  10.766
89204W        W54431  41.051  40.464   4.513
89205W        W54432  16.744  13.812  13.009
89206W        W54433  11.787  44.472  13.629
89207W        W54434   2.997   6.882   4.183
89208W        W54435  33.473  33.793   4.395
89209W        W54436   8.805  36.387  13.518
89210W        W54437  27.469  26.970  11.929
89211W        W54438  15.120  20.448  14.427
89212W        W54439  22.805  44.860  14.461
89213W        W54440  40.893  44.965   3.871
89214W        W54441  44.841  10.746   4.164
89215W        W54442  18.657  10.116   4.226
89216W        W54443  39.857  23.501  14.379
89217W        W54444  27.937   9.878   4.823
89218W        W54445  34.047  25.587   2.197
89219W        W54446  24.005  40.865  14.104
89220W        W54447  37.164  41.264  11.554
89221W        W54448  31.132   3.944  10.720
89222W        W54449  38.750  19.200  11.610
89223W        W54450  21.302  35.092  12.409
89224W        W54451   8.867  27.784  13.001
89225W        W54452  21.117  19.792  11.052
89226W        W54453  38.077  19.220   2.650
89227W        W54454  16.797   6.578   1.203
89228W        W54455  21.078  18.734  12.467
89229W        W54456  17.743  12.627  11.948
89230W        W54457  37.095  41.019  11.098
89231W        W54458   7.107  13.592   1.409
89232W        W54459  24.178  25.362  10.641
89233W        W54460  15.919   8.319  11.584
89234W        W54461  11.204  26.959   1.346
89235W        W54462  41.315  16.564  13.412
89236W        W54463  32.624  31.483  13.545
89237W        W54464   2.720  41.074   3.861
89238W        W54465   5.030   5.892   4.273
89239W        W54466   6.240  27.992   0.517
89240W        W54467  15.876   8.188   4.107
89241W        W54468  14.578   6.807   1.483
89242W        W54469  37.629  32.940  12.079
89243W        W54470   6.133  35.427  10.356
89244W        W54471  14.599  14.473   1.059
89245W        W54472  35.921  22.063   4.558
89246W        W54473  36.854  25.325   2.621
89247W        W54474  43.921  31.924   4.916
89248W        W54475  42.657  15.589  10.891
89249W        W54476  17.190  24.742  12.993
89250W        W54477  10.934  20.918   3.695
89251W        W54478   0.921   3.698  13.311
89252W        W54479  20.023  23.671  11.604
89253W        W54480  43.333  44.035  12.051
89254W        W54481   1.334  41.890   3.587
89255W        W54482  35.921  10.239   2.238
89256W        W54483  24.818   8.691   4.196
89257W        W54484  26.142  33.351  11.560
89258W        W54485  37.947  38.581   4.576
89259W        W54486   7.636  36.348   3.817
89260W        W54487  40.967  11.317   1.022
89261W        W54488  44.386   8.415  12.526
89262W        W54489  13.236  20.819   4.572
89263W        W54490  18.535  29.393  14.243
89264W        W54491   9.818   5.698  12.426
89265W        W54492   3.270  27.181   2.239
89266W        W54493  28.915  19.307   0.825
89267W        W54494   0.290  17.773   3.291
89268W        W54495  38.359  35.613   4.051
89269W        W54496  29.038   8.961  12.010
89270W        W54497  27.312   8.459   1.153
89271W        W54498  39.057  10.470  14.004
89272W        W54499  40.410  35.422  13.355
89273W        W54500   7.168  31.176  10.857
89274W        W54501  36.042   2.876   0.812
89275W        W54502   9.222  28.784   1.330
89276W        W54503   3.425  13.081  14.011
89277W        W54504  19.184  10.120  13.766
89278W        W54505   6.975  25.103   4.117
89279W        W54506   9.194  27.636   1.452
89280W        W54507  22.681  39.638   0.924
89281W        W54508  11.651  19.224   3.687
89282W        W54509  24.700  44.866  14.327
89283W        W54510   7.489  30.678  11.707
89284W        W54511  33.786  38.108  14.358
89285W        W54512  15.570  32.687   0.563
89286W        W54513  15.799  31.903   4.705
89287W        W54514  19.264  37.554   4.776
89288W        W54515  25.764   9.355   0.368
89289W        W54516  38.682  25.957   4.039
89290W        W54517   1.750  14.759   3.213
89291W        W54518  21.548  19.279  14.208
89292W        W54519  40.342  19.633   3.697
89293W        W54520   0.911  36.886   1.205
89294W        W54521  17.536  12.726   1.811
89295W        W54522  24.645  42.966  12.314
89296W        W54523  40.536  23.534  10.672
89297W        W54524  29.712  12.834  11.884
89298W        W54525  34.752  37.368   0.771
89299W        W54526  14.677   5.183   1.985
89300W        W54527  22.727  42.711   5.140
89301W        W54528  42.219  37.996  11.155
89302W        W54529  23.585  19.647   0.422
89303W        W54530   5.917  19.085  10.905
89304W        W54531  44.715  44.963   4.527
89305W        W54532  18.260  19.261   1.936
89306W        W54533  31.102  33.506  13.960
89307W        W54534  22.212   6.303   4.563
89308W        W54535   4.980  44.053   3.810
89309W        W54536  17.756  42.361   4.538
89310W        W54537  34.399  32.336  11.620
89311W        W54538  39.871  20.992  11.064
89312W        W54539  11.364  24.754   2.298
89313W        W54540  35.844  10.126  14.477
89314W        W54541  16.874   8.464   4.147
89315W        W54542  42.172   3.850  11.221
89316W        W54543  15.264  31.395  11.812
89317W        W54544  10.677  38.497   3.900
89318W        W54545  13.195  31.401  14.521
89319W        W54546   1.419   3.618   4.189
89320W        W54547  23.137  36.207   0.367
89321W        W54548  14.090  40.441   4.155
89322W        W54549  43.497  14.097   4.198
89323W        W54550  18.157  25.173  12.042
89324W        W54551  29.872   1.530   4.140
89325W        W54552  28.102  21.594   1.261
89326W        W54553  11.896  39.440  12.408
89327W        W54554  33.078   2.745   2.918
89328W        W54555  29.869  40.106  14.926
89329W        W54556  25.006  39.506  12.894
89330W        W54557   6.918  43.755  13.969
89331W        W54558  34.065  27.217  12.413
89332W        W54559   6.360   5.675   1.608
89333W        W54560  34.929  28.031  11.065
89334W        W54561  24.062  10.146   4.529
89335W        W54562  30.870   2.920   2.650
89336W        W54563   9.350   8.111   3.191
89337W        W54564  44.747   0.514  12.450
89338W        W54565  10.302  24.594  13.347
89339W        W54566   4.748  32.540   1.333
89340W        W54567   9.993  39.389  13.433
89341W        W54568  37.309  31.365   2.192
89342W        W54569  15.227  30.523   0.719
89343W        W54570  16.203  13.140   0.291
89344W        W54571   9.324   7.223  14.053
89345W        W54572   9.371  28.163  14.306
89346W        W54573  21.577  29.660  13.804
89347W        W54574  24.503  39.098   2.285
89348W        W54575  18.237  28.545  11.760
89349W        W54576  12.410  37.400  11.696
89350W        W54577  41.447  22.581  10.355
89351W        W54578  20.144  34.914  14.219
89352W        W54579  37.256  38.928  10.709
89353W        W54580  27.502  16.337  10.066
89354W        W54581  31.841  32.154  12.505
89355W        W54582  29.556  12.296   5.122
89356W        W54583  28.649  34.509   4.679
89357W        W54584   2.743  12.167   2.485
89358W        W54585  29.343  25.069   4.016
89359W        W54586  38.032  26.625  11.619
89360W        W54587  13.738  17.029   2.826
89361W        W54588  30.179  35.058  13.492
89362W        W54589   8.593   9.840   4.099
89363W        W54590  34.416  17.655  14.982
89364W        W54591   8.414  19.191   2.634
89365W        W54592   3.519  10.379  14.855
89366W        W54593  41.767  41.861  13.316
89367W        W54594  43.949   9.124  11.646
89368W        W54595  15.894  37.831   1.534
89369W        W54596  14.010  40.950  12.354
89370W        W54597   1.336  23.685  10.989
89371W        W54598  27.701  44.973  10.614
89372W        W54599  30.538  37.892   2.287
89373W        W54600  19.063  23.277  11.443
89374W        W54601  11.243  41.583  14.881
89375W        W54602  32.387   5.377  14.435
89376W        W54603  32.398  40.287  14.410
89377W        W54604  30.454  14.797  13.371
89378W        W54605  12.666  25.086  12.163
89379W        W54606  16.768  22.670  12.576
89380W        W54607  21.033   5.239   4.832
89381W        W54608   8.751  44.728  12.336
89382W        W54609  44.443  32.364  13.046
89383W        W54610  28.450  11.385  14.091
89384W        W54611  19.695  34.946   5.142
89385W        W54612  32.935  41.322  11.802
89386W        W54613  28.374  44.759   1.964
89387W        W54614  21.729  38.916   3.753
89388W        W54615  41.784  31.449  13.875
89389W        W54616   7.873   7.747   4.334
89390W        W54617  19.166  10.744  13.006
89391W        W54618  40.470   6.365   0.382
89392W        W54619   1.118  36.786   1.665
89393W        W54620  16.575  19.613  13.899
89394W        W54621  28.908  42.931   1.840
89395W        W54622  39.135  20.982  12.653
89396W        W54623   4.103  24.708   4.656
89397W        W54624  19.781  13.336  12.281
89398W        W54625  11.920  34.035   2.228
89399W        W54626  27.372   0.819   3.657
89400W        W54627  22.383  41.843   1.894
89401W        W54628  29.449  16.788   0.132
89402W        W54629   1.987  26.015  12.954
89403W        W54630  12.152  21.576  12.752
89404W        W54631   4.203   9.815   1.770
89405W        W54632  38.451  22.310   0.368
89406W        W54633  40.096  34.488   0.245
89407W        W54634   2.181  32.687   3.095
89408W        W54635  15.007  19.630  12.081
89409W        W54636  18.070  11.398  14.229
89410W        W54637  42.264  23.737  12.603
89411W        W54638   5.954  22.568   1.876
89412W        W54639  42.003   1.779   3.525
89413W        W54640  22.100  14.147  10.915
89414W        W54641  42.852   5.908   2.216
89415W        W54642  32.082  19.204   3.235
89416W        W54643   6.768   8.133   1.388
89417W        W54644   0.835  20.926   2.629
89418W        W54645   6.903  34.444  11.564
89419W        W54646   8.047  12.291  12.177
89420W        W54647   4.332   4.449   3.960
89421W        W54648  44.726  38.115   1.403
89422W        W54649  20.232  23.561  10.765
89423W        W54650  37.061  13.192  12.061
89424W        W54651  37.568  43.352   1.710
89425W        W54652  41.958  18.724   2.617
89426W        W54653  26.528  23.040   4.138
89427W        W54654   9.235   1.317  12.580
89428W        W54655  24.204  38.258   2.209
89429W        W54656  27.772   3.511   0.672
89430W        W54657   4.844  39.913  10.560
89431W        W54658  42.484   7.817   3.749
89432W        W54659  42.401  14.668   3.172
89433W        W54660   2.747  27.203   2.231
89434W        W54661   3.723   4.226   0.445
89435W        W54662  44.915  32.758   4.584
89436W        W54663  29.670  38.480  14.728
89437W        W54664   9.058   2.617  14.953
89438W        W54665  41.830  23.013   1.732
89439W        W54666  16.546   1.159   2.861
89440W        W54667  32.004  12.669   0.001
89441W        W54668  19.994   3.885  13.999
89442W        W54669  35.569  33.956  11.582
89443W        W54670   6.059  19.617   4.539
89444W        W54671  19.997  13.059  14.839
89445W        W54672   0.434  38.053   2.830
89446W        W54673   2.819  22.841   1.282
89447W        W54674  41.055  12.362   1.482
89448W        W54675  16.995  39.433  12.906
89449W        W54676  35.899  24.199  11.063
89450W        W54677   1.471  18.106   2.858
89451W        W54678   9.600  20.161   0.514
89452W        W54679   3.975  28.370  12.412
89453W        W54680  34.641  15.893   0.338
89454W        W54681  22.592   9.774   3.450
89455W        W54682  28.940  39.145  13.440
89456W        W54683  19.648   4.884  11.566
89457W        W54684  34.032  30.934  14.462
89458W        W54685  29.412  41.910  13.773
89459W        W54686  43.138  27.347  12.947
89460W        W54687  12.065  16.402  10.205
89461W        W54688  33.653  14.644   4.173
89462W        W54689  43.242  21.586   1.885
89463W        W54690   0.472  16.781  13.122
89464W        W54691  30.372   5.429   0.278
89465W        W54692  40.512  27.058   1.191
89466W        W54693  21.545   0.312   3.467
89467W        W54694  16.997   5.059   1.636
89468W        W54695  12.778  22.440   3.140
89469W        W54696  41.968  17.838  13.487
89470W        W54697   9.038   3.355   4.056
89471W        W54698  35.068  14.251   2.387
89472W        W54699  30.622  12.362   0.285
89473W        W54700  37.719  14.550   0.404
89474W        W54701  44.400   3.617  11.158
89475W        W54702  19.277  32.760   0.569
89476W        W54703   7.087  11.135  14.072
89477W        W54704  35.382   7.496   3.710
89478W        W54705   0.448   2.666   2.979
89479W        W54706  37.055   7.213  12.645
89480W        W54707  34.441   6.347  13.955
89481W        W54708  30.249  42.793  11.665
89482W        W54709  14.347   0.267   2.366
89483W        W54710  38.746  21.785  10.672
89484W        W54711   4.979  28.914   1.319
89485W        W54712   5.852  32.098   2.704
89486W        W54713   1.273   8.703   3.492
89487W        W54714  22.108   9.889  12.955
89488W        W54715  43.407   4.071  14.497
89489W        W54716  30.957  26.576  14.842
89490W        W54717  15.100  21.757  13.867
89491W        W54718  38.787  21.750  14.373
89492W        W54719  13.736  41.335  13.059
89493W        W54720   8.887  27.558  14.728
89494W        W54721  29.050  20.959   9.643
89495W        W54722  35.126  14.412   0.319
89496W        W54723  24.004   4.271  11.649
89497W        W54724  12.411  27.086   3.636
89498W        W54725  22.714  37.664   1.499
89499W        W54726  27.979  34.270   3.785
89500W        W54727   0.269  39.582   2.157
89501W        W54728  34.959  24.713  14.901
89502W        W54729  31.052  14.066  12.145
89503W        W54730  39.434   5.249   1.764
89504W        W54731  19.112  12.309  12.221
89505W        W54732   2.381  41.333  10.655
89506W        W54733  17.596  28.209   0.912
89507W        W54734  10.206  11.352  14.932
89508W        W54735   8.262   4.845  12.799
89509W        W54736  37.533  44.146  14.228
89510W        W54737  44.843  28.660   0.548
89511W        W54738  33.154  31.948  11.125
89512W        W54739  20.987  41.432  10.194
89513W        W54740  36.283  28.882   1.929
89514W        W54741  29.898  17.799  11.518
89515W        W54742  38.587  26.604  10.761
89516W        W54743   7.184  40.393  12.014
89517W        W54744  13.613  18.160   3.064
89518W        W54745  15.285  36.588   2.995
89519W        W54746  31.901  15.313   2.311
89520W        W54747  27.848  25.885  13.892
89521W        W54748  31.423   1.574  14.489
89522W        W54749  11.548  36.142  14.381
89523W        W54750  23.566  17.174  10.701
89524W        W54751  43.397  32.940  10.640
89525W        W54752   7.378  38.840   3.271
89526W        W54753  16.765  12.107   0.913
89527W        W54754  15.640   6.330  10.987
89528W        W54755  36.495  16.132  11.634
89529W        W54756  23.700  35.852  13.877
89530W        W54757  22.297  41.749  12.582
89531W        W54758   2.807   3.002   1.808
89532W        W54759  20.964   5.913   0.411
89533W        W54760  23.665  18.539   2.417
89534W        W54761  31.009  13.381   4.021
89535W        W54762  33.192   6.802   3.172
89536W        W54763  40.823   1.224   1.329
89537W        W54764   6.343   4.434  12.356
89538W        W54765  40.609   2.877   2.311
89539W        W54766   3.258  34.924  10.769
89540W        W54767  33.887   7.980  12.434
89541W        W54768   5.692  16.187  14.797
89542W        W54769  40.407  37.458   0.517
89543W        W54770  41.133   8.552  12.956
89544W        W54771  18.079  39.894   1.473
89545W        W54772  36.788  31.653   3.214
89546W        W54773  44.939  25.592  13.965
89547W        W54774  17.541  37.624  12.249
89548W        W54775  16.822   5.348  14.946
89549W        W54776   0.196  12.675   2.935
89550W        W54777   9.694  41.901   0.929
89551W        W54778   4.444  19.923   0.343
89552W        W54779  42.447  11.898   3.768
89553W        W54780  33.487  22.811  13.305
89554W        W54781  40.439  18.726  10.030
89555W        W54782   3.944  35.509   4.366
89556W        W54783   1.323  10.903   1.025
89557W        W54784  14.736  11.179   0.513
89558W        W54785  12.092   4.984   4.093
89559W        W54786  31.853  29.681  10.896
89560W        W54787  21.437   9.227   0.717
89561W        W54788  17.801  34.116   3.768
89562W        W54789  24.084  30.868  14.000
89563W        W54790  25.324   2.783  12.963
89564W        W54791   9.462  28.980  11.075
89565W        W54792  30.599   6.412  14.409
89566W        W54793   4.715  11.614  12.534
89567W        W54794  22.938  25.158  11.140
89568W        W54795   5.234  23.406   4.525
89569W        W54796  22.947  20.592  10.236
89570W        W54797  38.609  20.128  11.515
89571W        W54798  28.678   5.394  11.662
89572W        W54799  30.969   7.777   4.182
89573W        W54800   1.152   8.068  11.761
89574W        W54801  11.422  18.030   3.425
89575W        W54802  35.994  15.085   0.701
89576W        W54803   7.948  27.925  11.697
89577W        W54804  10.330  39.108  13.868
89578W        W54805  40.886  20.126   0.408
89579W        W54806  35.371   3.312   1.449
89580W        W54807   8.576  10.993   1.991
89581W        W54808   9.879  28.112   4.888
89582W        W54809  14.820  24.065   4.025
89583W        W54810  21.539   9.202   4.328
89584W        W54811  24.757  42.154  11.139
89585W        W54812  34.096  25.352   1.726
89586W        W54813  34.092   3.451  12.571
89587W        W54814  26.286  10.348   4.006
89588W        W54815  43.343   5.199   0.877
89589W        W54816   9.191  22.010   0.496
89590W        W54817  23.240  20.045   1.041
89591W        W54818  11.300  11.123  12.647
89592W        W54819  29.591  33.084   2.402
89593W        W54820  21.525  44.238  11.468
89594W        W54821   2.556  43.962  11.685
89595W        W54822   0.045  39.374   3.149
89596W        W54823  15.361  17.578   3.211
89597W        W54824   8.775  41.950   1.437
89598W        W54825  24.208  36.551  13.871
89599W        W54826  16.156  39.148   0.753
89600W        W54827  32.441  21.305  12.936
89601W        W54828  26.057  38.822  14.969
89602W        W54829   9.275  21.558   3.949
89603W        W54830  35.819  28.709   1.728
89604W        W54831  28.080   1.902   2.217
89605W        W54832   7.543  33.931  14.195
89606W        W54833  32.600  20.357   3.346
89607W        W54834  13.562   1.277   4.173
89608W        W54835  37.831  44.950   3.815
89609W        W54836  29.961  20.659   1.766
89610W        W54837  28.015   2.164  13.493
89611W        W54838  32.574  17.811   1.820
89612W        W54839  33.268  17.044   3.127
89613W        W54840  21.210  14.180  14.901
89614W        W54841   0.730  35.879  12.527
89615W        W54842  37.012   3.977   3.644
89616W        W54843   6.104  33.587  10.020
89617W        W54844   4.776   0.718  11.178
89618W        W54845  24.715  36.703  13.928
89619W        W54846  10.501   8.851   3.006
89620W        W54847  41.758  30.395   0.351
89621W        W54848  37.957   4.901   3.809
89622W        W54849  40.302  28.755   4.428
89623W        W54850  39.893  38.308   0.333
89624W        W54851  37.325  29.563  14.637
89625W        W54852  11.845  22.962   4.726
89626W        W54853  23.525  29.590  10.977
89627W        W54854  13.481   6.885   4.345
89628W        W54855  15.127  23.203  11.958
89629W        W54856   2.429  14.054   0.217
89630W        W54857   4.202  43.477   2.250
89631W        W54858  12.802  19.225  13.065
89632W        W54859  10.070   4.529   2.580
89633W        W54860  29.500  17.744  14.774
89634W        W54861  37.600  20.648   0.813
89635W        W54862  41.964  14.253   0.791
89636W        W54863  26.059  12.565  13.598
89637W        W54864  44.306  17.299  14.163
89638W        W54865  42.605  44.157  11.087
89639W        W54866  14.784  23.603   0.016
89640W        W54867  36.960  33.127  12.710
89641W        W54868   3.931  37.806  10.753
89642W        W54869  39.457  37.781  12.320
89643W        W54870  27.336  15.491  12.945
89644W        W54871  27.438  15.104   4.258
89645W        W54872  32.204   6.403  14.930
89646W        W54873   2.909  18.271   1.806
89647W        W54874  33.481  18.131   0.572
89648W        W54875  40.105   3.191   3.131
89649W        W54876  32.117  25.531   0.215
89650W        W54877  30.674   3.912  14.303
89651W        W54878   8.777  31.145   3.133
89652W        W54879  24.043  41.609   1.942
89653W        W54880  14.319  20.430   1.174
89654W        W54881  36.273   7.620   1.736
89655W        W54882   8.231   8.168   4.933
89656W        W54883  26.562   0.691   2.267
89657W        W54884  30.094  24.981  11.221
89658W        W54885  16.973  20.629  10.371
89659W        W54886  15.246  31.732   1.988
89660W        W54887   1.253  39.279  14.914
89661W        W54888  22.468  16.623   4.034
89662W        W54889  12.704   5.558   3.191
89663W        W54890  15.786   7.288  10.692
89664W        W54891   4.069  44.282  13.047
89665W        W54892  16.840  22.502  13.891
89666W        W54893  40.018  14.172  12.414
89667W        W54894  26.621  32.559   2.857
89668W        W54895  22.064  44.744   4.119
89669W        W54896  10.352  13.602  14.395
89670W        W54897   2.674  13.669  11.159
89671W        W54898  40.081  35.542   2.703
89672W        W54899  14.842  30.982   4.119
89673W        W54900  41.427  11.556   2.658
89674W        W54901  21.240   7.664   4.118
89675W        W54902  33.891  27.444   3.399
89676W        W54903  33.508  11.179   2.416
89677W        W54904  15.315  37.897   3.688
89678W        W54905  25.955  28.944   4.185
89679W        W54906  24.721   6.792  12.712
89680W        W54907  21.127   6.762  12.103
89681W        W54908  31.592   7.092  13.856
89682W        W54909  39.862  18.143   2.252
89683W        W54910  37.338  35.467  12.412
89684W        W54911  12.940  18.684   1.182
89685W        W54912  24.836  44.796  11.967
89686W        W54913  10.301   5.477  12.530
89687W        W54914  34.801  33.758   1.043
89688W        W54915  11.932  38.664   2.670
89689W        W54916  19.809  40.288   1.765
89690W        W54917  14.311  10.210  13.315
89691W        W54918   1.721  27.091   3.099
89692W        W54919  44.366  43.011   4.217
89693W        W54920  37.961  37.574  13.380
89694W        W54921  30.368   1.960  11.524
89695W        W54922  14.824  40.439   3.611
89696W        W54923  19.538  10.283   0.307
89697W        W54924  11.896  15.469   4.947
89698W        W54925  32.386  36.976   3.326
89699W        W54926   1.337  16.074   0.099
89700W        W54927  16.642  29.189   4.588
89701W        W54928  10.771  16.335  13.045
89702W        W54929  39.246  38.904  12.589
89703W        W54930  12.707  17.159  12.993
89704W        W54931  28.517   3.311   1.402
89705W        W54932  42.921   9.635  13.920
89706W        W54933  29.169   8.155  13.161
89707W        W54934  30.287   2.928   0.341
89708W        W54935  34.203  38.058  12.426
89709W        W54936   0.659  28.142  11.972
89710W        W54937  12.811   3.672   4.628
89711W        W54938   7.834  29.290   2.597
89712W        W54939   8.827  40.846  13.463
89713W        W54940  39.417   4.631  12.832
89714W        W54941  38.779  19.310  10.002
89715W        W54942  44.406  19.144   4.207
89716W        W54943   4.970   0.484   0.380
89717W        W54944  12.072  14.781   0.320
89718W        W54945  31.063  15.746  10.124
89719W        W54946  33.877  32.890  10.510
89720W        W54947  28.460  36.470  14.160
89721W        W54948  41.800   4.994   0.105
89722W        W54949   0.979  25.555   4.977
89723W        W54950  30.047  18.869   1.360
89724W        W54951  23.171  17.169   3.037
89725W        W54952  24.686  28.199  12.926
89726W        W54953  44.343  32.968   1.462
89727W        W54954  43.420  19.762   2.297
89728W        W54955  13.311  23.460  14.389
89729W        W54956  23.060  27.595  12.058
89730W        W54957  40.072  43.971   1.715
89731W        W54958  36.592  39.983   4.544
89732W        W54959  29.528   8.636   0.965
89733W        W54960  28.588  18.383  11.067
89734W        W54961  38.286  41.247  10.793
89735W        W54962   1.275  41.509  12.968
89736W        W54963   4.796  26.569   4.946
89737W        W54964   3.154  11.266   2.301
89738W        W54965  41.814  33.058  10.384
89739W        W54966  42.824  43.507   3.723
89740W        W54967  41.642  39.554  10.682
89741W        W54968  30.999  24.986   1.860
89742W        W54969  12.481  27.073  13.781
89743W        W54970  34.891   1.379  13.827
89744W        W54971  37.994  21.756   1.447
89745W        W54972  36.423  39.619  12.018
89746W        W54973  31.479   9.042   0.371
89747W        W54974   8.627  28.643  13.041
89748W        W54975  18.105  13.061   0.918
89749W        W54976  43.566  26.571   3.552
89750W        W54977   2.208   2.337  14.506
89751W        W54978  27.967   8.453   3.603
89752W        W54979  14.266   4.399   3.614
89753W        W54980  31.125  44.972   3.561
89754W        W54981  30.201   1.869  13.549
89755W        W54982   1.507   6.334  12.002
89756W        W54983  20.518  11.151  14.217
89757W        W54984  38.634  25.187  14.807
89758W        W54985  20.570   4.022  14.830
89759W        W54986   9.951  30.737  12.076
89760W        W54987   0.852   3.046   3.624
89761W        W54988  43.726   5.723  11.503
89762W        W54989  31.195   1.299   4.608
89763W        W54990  32.040   5.086  11.043
89764W        W54991   8.416  13.084  10.258
89765W        W54992  38.354  43.388  12.541
89766W        W54993  17.355  19.771   1.762
89767W        W54994  26.111  22.799  11.532
89768W        W54995  14.246  41.462   0.079
89769W        W54996  27.061  36.647  12.957
89770W        W54997   8.700  42.064   2.290
89771W        W54998  32.417  18.292   1.111
89772W        W54999   7.946  23.101   3.148
89773W        W55000  24.269  36.046   4.596
89774W        W55001  31.968  26.907  13.116
89775W        W55002  33.378  26.016  13.352
89776W        W55003  20.576  19.999   4.554
89777W        W55004  20.192  32.965   3.691
89778W        W55005  16.641  27.130   4.671
89779W        W55006   2.665  28.123   2.289
89780W        W55007   6.603  42.909   2.298
89781W        W55008  15.554  21.519  13.937
89782W        W55009   4.221  22.687  11.874
89783W        W55010  25.924   3.715   3.417
89784W        W55011  42.048  41.332  12.960
89785W        W55012  25.043  29.926  10.477
89786W        W55013  36.414  30.089   4.128
89787W        W55014  15.043  25.949  11.121
89788W        W55015  38.400  29.155  12.302
89789W        W55016  15.698  12.382   3.492
89790W        W55017   4.742  19.442  13.066
89791W        W55018   9.305  23.926  12.142
89792W        W55019   7.367  14.040   5.465
89793W        W55020  13.948  35.620   1.856
89794W        W55021  44.505  18.475   4.930
89795W        W55022  31.324  14.445   1.850
89796W        W55023  31.363  23.971  13.067
89797W        W55024  36.184  37.232   4.124
89798W        W55025   7.816  24.764  13.833
89799W        W55026   8.960  42.862   2.772
89800W        W55027  40.436  30.474  10.665
89801W        W55028  39.411  28.448  13.493
89802W        W55029  33.507  28.172  13.123
89803W        W55030  28.639   0.039  14.519
89804W        W55031   7.216  31.518   1.256
89805W        W55032   3.653  29.424   3.671
89806W        W55033  44.471   3.025   2.445
89807W        W55034  22.990  17.522   2.742
89808W        W55035  12.787  30.148   2.295
89809W        W55036  40.399  22.119   4.408
89810W        W55037   2.509  26.024   1.916
89811W        W55038  17.027  31.466   2.946
89812W        W55039   2.736  29.893   4.653
89813W        W55040   5.280  29.958  11.228
89814W        W55041  31.864  34.634   1.188
89815W        W55042   3.530  12.806   0.827
89816W        W55043  35.864  21.149   0.789
89817W        W55044  15.053  40.370   0.036
89818W        W55045  27.368  31.511  10.717
89819W        W55046   8.345  12.426  13.600
89820W        W55047  42.429  42.163   4.088
89821W        W55048  30.082  42.827  13.608
89822W        W55049  44.607  28.259   4.569
89823W        W55050   5.520  18.756   1.291
89824W        W55051  14.087  32.927   2.822
89825W        W55052  27.244  33.078  12.720
89826W        W55053  32.814  26.560   0.776
89827W        W55054  44.834  15.672  12.091
89828W        W55055  30.546  16.725   3.659
89829W        W55056  35.416  24.746   1.369
89830W        W55057  18.092   5.410  12.094
89831W        W55058  11.285  14.077   0.727
89832W        W55059  21.744   7.298   1.599
89833W        W55060  32.791   1.288  14.331
89834W        W55061   3.357  25.719  12.870
89835W        W55062  26.666  21.773  13.904
89836W        W55063  24.925   8.108   0.371
89837W        W55064  32.492  31.476   1.692
89838W        W55065  33.861   3.433  13.019
89839W        W55066  17.232   2.912  14.875
89840W        W55067  25.918   7.649  11.746
89841W        W55068   3.608  25.609   4.839
89842W        W55069   0.870   7.964   3.774
89843W        W55070   0.372  12.701   4.120
89844W        W55071  28.438   6.683   1.993
89845W        W55072  27.596   4.606  11.588
89846W        W55073  42.258   8.266   1.264
89847W        W55074  44.022  32.552   3.074
89848W        W55075  10.324  29.058  10.712
89849W        W55076  23.959  36.690   2.602
89850W        W55077  12.295   4.897  11.704
89851W        W55078   1.689   6.025  14.112
89852W        W55079  43.976  14.384   0.920
89853W        W55080  43.656  36.037   3.370
89854W        W55081  41.586   4.433  14.275
89855W        W55082  29.230   6.522   1.211
89856W        W55083  27.544   5.410  14.617
89857W        W55084  14.347   4.191  11.137
89858W        W55085   1.519  19.388   5.458
89859W        W55086  20.659  24.183  14.371
89860W        W55087  11.537  28.982   2.363
89861W        W55088  28.846  28.903   3.853
89862W        W55089  38.106  21.028  14.519
89863W        W55090  34.984   9.248   1.326
89864W        W55091  41.933   2.257   1.709
89865W        W55092   8.180  38.057   1.247
89866W        W55093  38.148   4.994  12.951
89867W        W55094  33.872   3.848   3.980
89868W        W55095  44.413  26.686   0.860
89869W        W55096  24.645  30.090  14.561
89870W        W55097  37.451  28.658   0.943
89871W        W55098  21.909  32.667  13.814
89872W        W55099  34.022  27.273  10.097
89873W        W55100  33.376  11.293   1.906
89874W        W55101   7.152  40.812  13.480
89875W        W55102  19.505  11.331  14.473
89876W        W55103   4.420  21.577  13.945
89877W        W55104  38.232  18.307   1.771
89878W        W55105   2.764  39.737   1.227
89879W        W55106  37.868   0.708  13.330
89880W        W55107  12.654  25.558  13.493
89881W        W55108  44.005   7.239  12.696
89882W        W55109  28.611  43.534  12.001
89883W        W55110  41.488   1.770   0.301
89884W        W55111   1.183  17.593   1.674
89885W        W55112  40.501  33.584   2.158
89886W        W55113  34.969   8.885   1.766
89887W        W55114  31.107  40.843   3.246
89888W        W55115   5.638  15.596   4.504
89889W        W55116  38.450  42.274   4.170
89890W        W55117  44.918   3.682   4.381
89891W        W55118  34.901  14.122   0.696
89892W        W55119  22.795  34.265  14.057
89893W        W55120  42.791  37.467  11.675
89894W        W55121  35.109  14.226   3.858
89895W        W55122  44.764  21.716   1.931
89896W        W55123  23.863   4.258  10.825
89897W        W55124  40.801  44.875  11.498
89898W        W55125  26.643  30.950   1.849
89899W        W55126   0.364  16.234   0.438
89900W        W55127  24.592  13.374   0.366
89901W        W55128  42.065   9.128   1.179
89902W        W55129  25.494  37.880  14.082
89903W        W55130  30.161  14.300   2.657
89904W        W55131  18.325  31.180  12.472
89905W        W55132   2.759  33.005  14.701
89906W        W55133   1.571  35.683  14.261
89907W        W55134  32.015   8.801  11.216
89908W        W55135  34.761  34.980  10.519
89909W        W55136  25.633  17.375   0.908
89910W        W55137  14.354  26.907  11.472
89911W        W55138  25.659  36.688  12.946
89912W        W55139  35.135  28.678  13.898
89913W        W55140  10.719  11.365   4.996
89914W        W55141  30.720  11.265  14.400
89915W        W55142  40.338  21.770   2.785
89916W        W55143   1.396  41.196  13.347
89917W        W55144  20.788  37.318  11.024
89918W        W55145  33.514  40.538  14.412
89919W        W55146  16.308  16.214  10.539
89920W        W55147  16.136  35.073   2.768
89921W        W55148  43.652  16.150  14.410
89922W        W55149   5.900  13.671  12.405
89923W        W55150  30.634   3.685   2.239
89924W        W55151  32.390  39.424   4.978
89925W        W55152  29.941  25.960   1.916
89926W        W55153   3.868  32.633   2.435
89927W        W55154  21.443  38.056   0.573
89928W        W55155  37.807  11.181   2.416
89929W        W55156  44.248   7.300  11.820
89930W        W55157  13.957   0.331   1.425
89931W        W55158  34.939  43.100   2.807
89932W        W55159  32.015   4.277   2.850
89933W        W55160  32.219  34.778   0.741
89934W        W55161  39.500  32.177   2.930
89935W        W55162  25.258  13.417  11.491
89936W        W55163  18.239  36.990  11.948
89937W        W55164  35.032   0.002  13.441
89938W        W55165  32.605  32.911  11.899
89939W        W55166  25.810  11.924  12.537
89940W        W55167   3.186  25.098   2.729
89941W        W55168  19.648   0.427   0.030
89942W        W55169   6.987  12.969  11.412
89943W        W55170   4.313  41.100  14.031
89944W        W55171  12.702   2.647   0.773
89945W        W55172  36.187   3.812   2.696
89946W        W55173  25.558  42.613  10.952
89947W        W55174   0.972  13.177   2.433
89948W        W55175  36.923   3.765   4.676
89949W        W55176  44.239  17.690   1.262
89950W        W55177  27.215  38.837  12.990
89951W        W55178   0.299  42.519  14.050
89952W        W55179   1.052  10.290   1.289
89953W        W55180  44.534  30.483   3.481
89954W        W55181   4.990   1.769   0.760
89955W        W55182  14.248  31.447  10.650
89956W        W55183  17.218  11.437  13.845
89957W        W55184  27.669  28.373  10.595
89958W        W55185  38.133  14.991   1.283
89959W        W55186  22.205  21.256  12.458
89960W        W55187  22.703  36.982   2.128
89961W        W55188  30.857  20.130  11.713
89962W        W55189  40.440  13.436  11.536
89963W        W55190  33.104   1.147   3.501
89964W        W55191  18.628  30.084  14.086
89965W        W55192  17.504  35.962   0.449
89966W        W55193   3.713  42.468  10.105
89967W        W55194  42.052  39.585   0.831
89968W        W55195   6.089  33.559   1.168
89969W        W55196  12.693   9.643  12.094
89970W        W55197  32.793  31.385  10.705
89971W        W55198  37.450  36.760  14.264
89972W        W55199  26.809  14.389  13.471
89973W        W55200  16.370  13.769  10.720
89974W        W55201  39.217  21.650   0.294
89975W        W55202   0.328  30.618  12.391
89976W        W55203  30.492  42.532  13.451
89977W        W55204  17.980   8.816   3.149
89978W        W55205  25.029  18.134   4.363
89979W        W55206   5.781  33.284   3.596
89980W        W55207  42.326   5.799   3.830
89981W        W55208  20.149  31.433  14.283
89982W        W55209  26.495  13.106  12.548
89983W        W55210  34.852  41.908   4.606
89984W        W55211  22.786  30.052  12.343
89985W        W55212   9.659  22.370  14.651
89986W        W55213  23.076  44.778  11.486
89987W        W55214   4.208  32.175  11.187
89988W        W55215   3.809  34.447  10.754
89989W        W55216   2.019  11.517  12.969
89990W        W55217  42.836  28.921   0.733
89991W        W55218  27.051   2.943  12.395
89992W        W55219  20.940  39.048   0.939
89993W        W55220  24.276  13.290   1.405
89994W        W55221  22.952   2.543  11.185
89995W        W55222  16.093  39.698   0.787
89996W        W55223  13.852  44.891  13.378
89997W        W55224  31.488   6.254   2.309
89998W        W55225  41.538  33.850   1.350
89999W        W55226  25.098  25.121   2.709
90000W        W55227  18.329  29.420  11.826
90001W        W55228  23.531   9.249  12.083
90002W        W55229  21.039   5.018   4.253
90003W        W55230   8.401  17.206  11.056
90004W        W55231  14.386  29.635   3.320
90005W        W55232  28.803  27.079  14.495
90006W        W55233  43.351   1.319   2.905
90007W        W55234   8.821  27.450  11.882
90008W        W55235  28.444  21.344  11.297
90009W        W55236   4.062  31.593   3.136
90010W        W55237  16.742  13.737   2.861
90011W        W55238  26.561  19.110  13.790
90012W        W55239  18.689  38.829   3.810
90013W        W55240  37.273  22.943  13.870
90014W        W55241  13.994  40.370  12.018
90015W        W55242  41.300  21.200  14.755
90016W        W55243  27.433   7.096  11.142
90017W        W55244  38.005   4.307   1.745
90018W        W55245  36.620  25.936   1.396
90019W        W55246  19.529  20.086   1.445
90020W        W55247  20.567  11.579   2.494
90021W        W55248   9.733   3.455   3.140
90022W        W55249  14.212   2.632   4.163
90023W        W55250  27.039  41.478   3.909
90024W        W55251  13.238  10.324   1.342
90025W        W55252   1.504  19.351   9.858
90026W        W55253  33.675  43.688  14.922
90027W        W55254   5.433   4.813  14.262
90028W        W55255  10.178  12.762  14.896
90029W        W55256   1.885  33.317   5.042
90030W        W55257   2.353  16.612   3.875
90031W        W55258   9.750  16.754  13.323
90032W        W55259  19.069  21.676   4.292
90033W        W55260   2.177  27.729  12.169
90034W        W55261   0.917  23.110   4.160
90035W        W55262  22.622   7.385   2.161
90036W        W55263  27.431  40.867   0.741
90037W        W55264  43.016  20.024  13.725
90038W        W55265  19.314  38.750  13.923
90039W        W55266   5.362   9.768   3.124
90040W        W55267  35.932  42.614   1.733
90041W        W55268  40.987  14.668   3.073
90042W        W55269  25.177  23.982   2.261
90043W        W55270  29.121   0.376  10.803
90044W        W55271  17.076   7.782   0.974
90045W        W55272  24.025  15.789   2.156
90046W        W55273   3.004   5.394   2.439
90047W        W55274  36.855  34.819   1.736
90048W        W55275  25.231  27.847   5.052
90049W        W55276  43.180  42.855   3.211
90050W        W55277  25.993  21.172   4.392
90051W        W55278  32.391  37.564  14.394
90052W        W55279  19.794   4.919   3.708
90053W        W55280  34.820  32.396   2.067
90054W        W55281  27.431   0.351   2.612
90055W        W55282  38.353  32.003  11.638
90056W        W55283  31.934  21.053  14.409
90057W        W55284  30.607  12.543   2.207
90058W        W55285  18.930  35.267   2.087
90059W        W55286  10.415  40.914  13.548
90060W        W55287   9.103   1.311   1.567
90061W        W55288   7.361   7.582  11.646
90062W        W55289  14.602  43.215   1.291
90063W        W55290   1.373  19.627   5.018
90064W        W55291  16.232  32.326   3.685
90065W        W55292  22.520  19.720  10.715
90066W        W55293  42.054  43.695   3.314
90067W        W55294   4.774  35.473   3.748
90068W        W55295   7.213  19.481  10.854
90069W        W55296   1.795  35.827  10.980
90070W        W55297  29.112  13.304  14.846
90071W        W55298  42.960   1.519   2.652
90072W        W55299  31.844  16.593   1.349
90073W        W55300  12.363  36.942  11.059
90074W        W55301  18.973  37.444  13.495
90075W        W55302  24.493  36.303  14.246
90076W        W55303  18.653  25.785  13.103
90077W        W55304  41.454   7.824  13.402
90078W        W55305  23.752   3.426   0.777
90079W        W55306  40.754  24.434  13.002
90080W        W55307  35.037  10.939  13.942
90081W        W55308  25.494  37.037   3.310
90082W        W55309  43.184   6.613   1.127
90083W        W55310  26.720  34.012   2.344
90084W        W55311   4.167   5.300   3.240
90085W        W55312  13.127   5.594  14.236
90086W        W55313  11.341  37.829  10.641
90087W        W55314   1.924  44.236  14.718
90088W        W55315  29.579   7.473  14.480
90089W        W55316   6.445   4.143  12.764
90090W        W55317  30.470  38.416   1.000
90091W        W55318  21.728   1.762  14.057
90092W        W55319  16.323  21.717  12.443
90093W        W55320   7.186  10.389   0.471
90094W        W55321  43.272  22.125  11.437
90095W        W55322   3.132  25.396  11.871
90096W        W55323  19.068   2.920  14.398
90097W        W55324  44.991  33.234   3.688
90098W        W55325   2.547  25.506  13.044
90099W        W55326  21.218  20.620   0.786
90100W        W55327  36.493   2.874  13.334
90101W        W55328  38.018  32.539  11.706
90102W        W55329  10.976   1.979  13.535
90103W        W55330  43.310  13.106   3.204
90104W        W55331  42.798  43.821   1.351
90105W        W55332   2.629   1.289   0.797
90106W        W55333  21.573   4.633  10.385
90107W        W55334  11.432  44.720   3.602
90108W        W55335  32.180  34.052   4.278
90109W        W55336   1.514  34.542  14.443
90110W        W55337  34.077  19.081   2.714
90111W        W55338   1.231  27.578  14.866
90112W        W55339  40.831  44.423  13.921
90113W        W55340  44.504  39.941  10.261
90114W        W55341   5.566  40.430  11.457
90115W        W55342  10.181  11.694  11.554
90116W        W55343  29.656   3.223   3.560
90117W        W55344  34.475  43.223  10.754
90118W        W55345  23.878   9.091  11.248
90119W        W55346  28.384   5.750   3.755
90120W        W55347   6.643  17.161   4.442
90121W        W55348  42.756  20.413   2.061
90122W        W55349  17.620  38.874  12.418
90123W        W55350  16.672   3.265  14.469
90124W        W55351  42.084  28.455   3.751
90125W        W55352   3.685  19.207  13.863
90126W        W55353  26.510  32.746  14.857
90127W        W55354   0.032   0.466  12.886
90128W        W55355  44.738  12.599  12.514
90129W        W55356   6.832  31.946  11.234
90130W        W55357   0.247  19.097   0.374
90131W        W55358  44.907  34.977   2.356
90132W        W55359  26.645  29.579   3.296
90133W        W55360  11.074  25.088  14.337
90134W        W55361  33.847  26.466   4.164
90135W        W55362  33.862  33.974   1.797
90136W        W55363  28.508   9.919  12.580
90137W        W55364  27.617   4.698  13.945
90138W        W55365  14.907  22.223   3.202
90139W        W55366   7.294  19.463  11.337
90140W        W55367  30.878  19.586  11.585
90141W        W55368  40.006  33.191   3.029
90142W        W55369  29.210  15.605   2.332
90143W        W55370   4.333  42.040   2.657
90144W        W55371   4.182   5.442  14.405
90145W        W55372  18.219  32.737   2.767
90146W        W55373   6.708  33.093   0.295
90147W        W55374  41.097  22.539   2.310
90148W        W55375  28.159  28.625   3.914
90149W        W55376  33.952  32.550  11.944
90150W        W55377  37.436  34.878   4.658
90151W        W55378  38.831   8.925   4.447
90152W        W55379  42.104  17.100   2.798
90153W        W55380  37.774  22.513  13.480
90154W        W55381   9.239  34.104  12.095
90155W        W55382  21.607  41.251  14.471
90156W        W55383  30.221  40.964  12.918
90157W        W55384  44.757  36.526  11.870
90158W        W55385  37.939  36.504  13.490
90159W        W55386  37.408  15.161  14.424
90160W        W55387  20.556  39.475   4.183
90161W        W55388  36.029   9.297   3.653
90162W        W55389  39.471  43.951  10.528
90163W        W55390  34.667  38.224  12.256
90164W        W55391  33.398  25.415  11.524
90165W        W55392  21.098  25.410   4.071
90166W        W55393  23.693  36.956   0.010
90167W        W55394  19.145  34.407  10.669
90168W        W55395   5.785  20.835  11.893
90169W        W55396  13.804  23.654  12.543
90170W        W55397  33.383  37.580   2.304
90171W        W55398   4.037  23.124  10.633
90172W        W55399   2.544  13.741   4.802
90173W        W55400  43.854  15.288  12.872
90174W        W55401   6.474  23.067  12.533
90175W        W55402   8.574   5.890   1.449
90176W        W55403  18.552  10.910  14.763
90177W        W55404  12.041  35.648  10.656
90178W        W55405  34.751  21.537   0.419
90179W        W55406  19.965  40.380  11.281
90180W        W55407  38.070  17.449  12.046
90181W        W55408  28.448  14.580   2.554
90182W        W55409  21.264  20.991   2.029
90183W        W55410  32.389  10.327  13.411
90184W        W55411  18.589  44.790   3.817
90185W        W55412  39.790  18.062   1.426
90186W        W55413  38.598  18.261   0.758
90187W        W55414  32.580   5.643   3.401
90188W        W55415  30.005   4.993   4.849
90189W        W55416  15.213  12.109  11.391
90190W        W55417   3.055  42.889   3.272
90191W        W55418  34.092  30.571   1.529
90192W        W55419  22.317   9.923   2.097
90193W        W55420  30.001  23.169   3.878
90194W        W55421  38.873  31.046   1.869
90195W        W55422   8.758  36.125   4.103
90196W        W55423  14.602   8.071  11.996
90197W        W55424  26.052  41.975  13.062
90198W        W55425  21.358  33.633  13.261
90199W        W55426  20.797   7.866  14.453
90200W        W55427  40.511  33.086   4.219
90201W        W55428   0.026   4.337   2.271
90202W        W55429  14.895  17.814   0.829
90203W        W55430  21.272   1.198   1.000
90204W        W55431  35.591  44.560   0.343
90205W        W55432  30.760  37.982   0.800
90206W        W55433  15.464  16.473   2.604
90207W        W55434  30.832  21.660  11.006
90208W        W55435   9.440  22.303   3.279
90209W        W55436  22.442   9.367   2.234
90210W        W55437  30.964  41.267  11.103
90211W        W55438  21.194  32.067  14.900
90212W        W55439   2.326  21.765   3.352
90213W        W55440  26.476  13.481  11.262
90214W        W55441  21.796  17.589   1.929
90215W        W55442  40.034  19.027  11.898
90216W        W55443  27.743  22.166  12.057
90217W        W55444   5.221  15.193  13.559
90218W        W55445  24.467  19.421  11.722
90219W        W55446  41.166  17.358   3.782
90220W        W55447  41.041  22.318  13.538
90221W        W55448   3.228  31.028   0.846
90222W        W55449  36.160   8.197  11.192
90223W        W55450  13.486  28.857   4.372
90224W        W55451  24.143  33.782   0.289
90225W        W55452  42.085  25.484   3.708
90226W        W55453  42.748  22.352  14.565
90227W        W55454  31.121  11.428  10.006
90228W        W55455  20.805  22.502   0.302
90229W        W55456  10.013  26.068   2.764
90230W        W55457  38.080  30.153  14.383
90231W        W55458   3.247  22.875  12.857
90232W        W55459  26.087  30.002   0.845
90233W        W55460  34.586   9.867   4.545
90234W        W55461  24.471  27.928   4.516
90235W        W55462  37.889  40.020  11.168
90236W        W55463  23.097  16.812  12.020
90237W        W55464  38.764  26.965  13.920
90238W        W55465   8.928  39.585  13.321
90239W        W55466  24.400  28.053   3.761
90240W        W55467  39.827  20.174  10.871
90241W        W55468   7.368   5.826   4.157
90242W        W55469  19.115   3.944  12.399
90243W        W55470  22.418   2.544  11.158
90244W        W55471  39.630  44.736   1.312
90245W        W55472   1.513  12.520   2.650
90246W        W55473  29.213  30.215  13.705
90247W        W55474   4.748  25.276   2.163
90248W        W55475  36.304  14.605  11.710
90249W        W55476  11.734  30.693  12.013
90250W        W55477  37.006  29.554   2.327
90251W        W55478  30.226  26.986   0.917
90252W        W55479  26.183   9.643  14.297
90253W        W55480  26.139  40.820   3.170
90254W        W55481  14.140  11.292   1.438
90255W        W55482  44.388  20.712   0.378
90256W        W55483  18.241   3.822  11.570
90257W        W55484  32.436  17.794   1.292
90258W        W55485  43.518  41.824   3.542
90259W        W55486  31.476  21.314   2.701
90260W        W55487  37.488  39.897   2.645
90261W        W55488   4.424  37.131   3.223
90262W        W55489  10.152  39.093  12.147
90263W        W55490  13.312  16.498  13.467
90264W        W55491  31.148   4.949  14.022
90265W        W55492  13.601  11.396  11.163
90266W        W55493  26.121   9.221  13.510
90267W        W55494  31.623  33.595   4.576
90268W        W55495  32.085  44.023   2.618
90269W        W55496  18.507  11.326  12.452
90270W        W55497   4.170  30.593   3.923
90271W        W55498  31.309  25.519   9.717
90272W        W55499  13.208   5.983   4.712
90273W        W55500  43.920  39.308  13.014
90274W        W55501  15.763  36.042  13.910
90275W        W55502  39.698   0.968  10.763
90276W        W55503  14.849  21.687  10.426
90277W        W55504   3.002  28.577  12.549
90278W        W55505  24.708   0.342  12.953
90279W        W55506  25.843  26.141  14.106
90280W        W55507  20.305  41.684  12.002
90281W        W55508  33.057   0.638   3.560
90282W        W55509  42.719  27.534  11.576
90283W        W55510  22.475  41.801  14.275
90284W        W55511   8.703  37.986  13.565
90285W        W55512  34.470  17.808   4.664
90286W        W55513  35.970  23.260  14.424
90287W        W55514  26.444  26.943  11.991
90288W        W55515   2.815  39.573   1.727
90289W        W55516  31.413  20.980  14.408
90290W        W55517  21.502  20.069   1.390
90291W        W55518  15.348  37.195  12.893
90292W        W55519  14.241  28.756   4.474
90293W        W55520   3.999  32.935  11.744
90294W        W55521   7.421  18.096  13.952
90295W        W55522  12.765  39.877  12.592
90296W        W55523   2.490  31.975  11.886
90297W        W55524  23.761  34.913  11.678
90298W        W55525  29.084  41.241   3.912
90299W        W55526  26.443  43.539   9.774
90300W        W55527  21.149   8.467   4.569
90301W        W55528   0.217  21.603  12.190
90302W        W55529  28.084  41.180  13.422
90303W        W55530  41.760  39.026  12.619
90304W        W55531  24.789  34.464   3.643
90305W        W55532  31.984  26.167  12.274
90306W        W55533  42.262  39.001   4.325
90307W        W55534   5.540  38.019   0.299
90308W        W55535  11.086   6.167  12.002
90309W        W55536  36.513  24.419   3.752
90310W        W55537  13.193   2.926  11.557
90311W        W55538  26.169  40.345  10.912
90312W        W55539  20.930  16.796  13.930
90313W        W55540  13.995  37.932   0.841
90314W        W55541  35.121  15.016  13.017
90315W        W55542  27.032  13.245   4.611
90316W        W55543  19.023   7.857  12.097
90317W        W55544  27.084  32.203   0.256
90318W        W55545  39.504  18.329  12.801
90319W        W55546  16.603  36.510  11.858
90320W        W55547  31.906   3.027  12.932
90321W        W55548   3.977  32.343  10.520
90322W        W55549   5.479   7.206   1.895
90323W        W55550  14.094  18.731  14.481
90324W        W55551  24.122  43.522   2.928
90325W        W55552   7.142  30.171   0.860
90326W        W55553   4.045  27.183   1.816
90327W        W55554   4.829  44.735   0.752
90328W        W55555  12.161  26.720  14.039
90329W        W55556  18.241  34.462   0.139
90330W        W55557  21.694  19.472  10.496
90331W        W55558  14.172  26.109  13.457
90332W        W55559  21.017  35.116  13.277
90333W        W55560   6.687  21.076  12.978
90334W        W55561  36.880  29.060   4.946
90335W        W55562  13.778  28.161   0.385
90336W        W55563  19.281  36.918   1.685
90337W        W55564  26.086  27.424   2.350
90338W        W55565  32.885  23.999   0.732
90339W        W55566  34.356  41.276   1.973
90340W        W55567  29.633  43.482  11.557
90341W        W55568  34.896  20.146   4.539
90342W        W55569  28.731   3.661  14.016
90343W        W55570  39.303  33.987   0.734
90344W        W55571  19.777  26.490   1.280
90345W        W55572  35.463  29.478   1.282
90346W        W55573  32.177   8.428  11.997
90347W        W55574  28.783  14.388  10.680
90348W        W55575  25.633  40.778   2.398
90349W        W55576  35.960   2.489   0.387
90350W        W55577  41.938   1.303   3.862
90351W        W55578  27.928   1.762  14.939
90352W        W55579  23.544  19.555   2.396
90353W        W55580  37.834  13.780  14.836
90354W        W55581  38.505  25.080   4.125
90355W        W55582  13.635  42.858   3.207
90356W        W55583  33.486  33.671  12.874
90357W        W55584   9.651   8.929  14.350
90358W        W55585  35.696   7.656  13.610
90359W        W55586  27.423  28.229   0.518
90360W        W55587  12.275  10.426  12.060
90361W        W55588   0.912   2.462   0.500
90362W        W55589   7.199  17.100   2.739
90363W        W55590  18.693  27.482   2.237
90364W        W55591  33.921   7.166   3.778
90365W        W55592  40.961  28.783  11.066
90366W        W55593  26.771   3.379  14.347
90367W        W55594  21.191  41.611   2.010
90368W        W55595  25.625  42.778   3.612
90369W        W55596  14.281   5.287  14.032
90370W        W55597  37.133  24.064  14.602
90371W        W55598  17.241  12.277   1.891
90372W        W55599  34.349  19.524   3.963
90373W        W55600  16.183  24.644   1.370
90374W        W55601  17.566  40.536   1.093
90375W        W55602  22.246   3.228  13.900
90376W        W55603  19.432  31.785   2.713
90377W        W55604  23.142  44.910  11.964
90378W        W55605  39.050  28.796  13.324
90379W        W55606  14.131  38.168   0.346
90380W        W55607  29.696  13.169  14.011
90381W        W55608  15.780  12.804   0.291
90382W        W55609   8.849  15.787   3.580
90383W        W55610  41.501  13.094  10.653
90384W        W55611  28.676  37.351   3.184
90385W        W55612  39.971  36.896   1.494
90386W        W55613   1.540   2.749  10.408
90387W        W55614  27.647   0.401  13.756
90388W        W55615  37.144  24.786   1.996
90389W        W55616  28.469  30.486  14.322
90390W        W55617  38.428  16.226  14.070
90391W        W55618  29.024  12.343   5.033
90392W        W55619  33.892  39.558  12.948
90393W        W55620  36.978   0.954  12.147
90394W        W55621  15.200  22.683   3.082
90395W        W55622  12.944  29.635  14.372
90396W        W55623  21.029  21.401   1.243
90397W        W55624  11.211  42.540  14.791
90398W        W55625  13.872  42.825  11.984
90399W        W55626  44.302  44.290  10.705
90400W        W55627  25.419   4.371  11.587
90401W        W55628  20.047  44.855   2.488
90402W        W55629   4.496   6.887   2.741
90403W        W55630  19.090  22.070   2.383
90404W        W55631  37.333  34.556   2.360
90405W        W55632   7.345  42.755  14.012
90406W        W55633  32.152  29.027  11.966
90407W        W55634   4.638   4.318  14.312
90408W        W55635  29.591   0.537  11.136
90409W        W55636  31.630  28.736   4.657
90410W        W55637  22.290  23.750   3.659
90411W        W55638  13.014  37.966  13.128
90412W        W55639   9.250  39.290  14.809
90413W        W55640  44.259  23.789   1.757
90414W        W55641  30.092  33.599   4.113
90415W        W55642   9.336  38.187  10.673
90416W        W55643  33.840   1.728  11.109
90417W        W55644  26.041  30.552  13.202
90418W        W55645   3.871  34.320   3.376
90419W        W55646  26.116  33.179  12.058
90420W        W55647  20.358  32.012   4.833
90421W        W55648  28.560  18.669  10.640
90422W        W55649  36.376  16.388   0.203
90423W        W55650  42.124  43.424  12.604
90424W        W55651  37.018  23.115  12.948
90425W        W55652   8.846   7.259   2.890
90426W        W55653   3.909  25.705   0.810
90427W        W55654  36.326  11.166   3.704
90428W        W55655  13.182  42.441  14.949
90429W        W55656  14.875  44.303   0.486
90430W        W55657  11.716  12.727  13.372
90431W        W55658   3.011  36.858   4.233
90432W        W55659   6.436  20.754  13.466
90433W        W55660  22.424  43.995  12.453
90434W        W55661   5.231  36.098   2.270
90435W        W55662  19.935  33.094   2.805
90436W        W55663   9.290   7.417  11.596
90437W        W55664   5.399  30.203   9.905
90438W        W55665  32.964  35.728   3.667
90439W        W55666  40.007  13.306  12.617
90440W        W55667  37.517  13.183  13.746
90441W        W55668  34.401  26.567   2.242
90442W        W55669  28.809   4.889  13.426
90443W        W55670  24.243  16.883  13.845
90444W        W55671  25.624  40.079   1.898
90445W        W55672  24.702  13.279  12.108
90446W        W55673   0.148   5.138   0.274
90447W        W55674   1.804  40.581   1.785
90448W        W55675  39.445  19.707   3.287
90449W        W55676  41.334   1.277   4.519
90450W        W55677   2.180  13.363   3.682
90451W        W55678   9.305  35.819   0.284
90452W        W55679  29.023  41.488  11.003
90453W        W55680   1.365  31.881   2.158
90454W        W55681  11.707  31.532  12.308
90455W        W55682  41.384  23.897   2.259
90456W        W55683   6.368  31.483  10.512
90457W        W55684   0.528  35.941  11.037
90458W        W55685  26.186  37.283   3.080
90459W        W55686   3.384  43.928  13.391
90460W        W55687  12.203  43.052   3.430
90461W        W55688   7.912  17.382  11.138
90462W        W55689  20.028  20.026   1.022
90463W        W55690  37.948  27.433  11.998
90464W        W55691  20.440  11.679  14.266
90465W        W55692  34.921  19.214  12.146
90466W        W55693  43.443  38.041  11.224
90467W        W55694  27.680  23.641   1.337
90468W        W55695  26.745  34.596  13.081
90469W        W55696  18.578  13.828   4.153
90470W        W55697   5.857  20.192  11.118
90471W        W55698  14.216  35.071   2.636
90472W        W55699  17.568  25.110   3.239
90473W        W55700   0.812  35.334  13.609
90474W        W55701  14.839  44.919  14.466
90475W        W55702  18.667  29.631   0.672
90476W        W55703   5.396   4.916   3.715
90477W        W55704  27.546  25.761   4.681
90478W        W55705  11.052   4.830  10.780
90479W        W55706  23.216  32.642   0.911
90480W        W55707  25.496  42.475  14.716
90481W        W55708  30.883  18.489   0.474
90482W        W55709  34.269  39.873  10.336
90483W        W55710   6.363  24.009  12.243
90484W        W55711  35.835   6.167  12.004
90485W        W55712  27.238  21.336   0.750
90486W        W55713  21.534  17.479  11.147
90487W        W55714   1.473  44.448  13.663
90488W        W55715  44.773  42.918  12.525
90489W        W55716  31.420  20.773   1.066
90490W        W55717  16.168   4.987   2.712
90491W        W55718  18.200  27.435   2.453
90492W        W55719   1.147  20.116   5.044
90493W        W55720  24.103  33.891   4.177
90494W        W55721  28.146  18.100  12.150
90495W        W55722  27.046  19.229   4.135
90496W        W55723  15.911  28.827   1.932
90497W        W55724  32.226   3.465  11.682
90498W        W55725  41.860  15.113  14.816
90499W        W55726  30.375  32.130   1.831
90500W        W55727  12.166  30.032   4.235
90501W        W55728  36.792   4.818  14.887
90502W        W55729  39.213   3.818   2.185
90503W        W55730  42.006  10.111  11.680
90504W        W55731  33.149  42.814  14.052
90505W        W55732  27.554  30.471  11.305
90506W        W55733  32.794  10.256  11.049
90507W        W55734  17.667  37.052   0.857
90508W        W55735  19.485   1.549  12.447
90509W        W55736  16.425  34.849  14.849
90510W        W55737  15.960  43.105   5.058
90511W        W55738  34.670  28.221   0.284
90512W        W55739   8.212  26.659  13.453
90513W        W55740  27.941   0.807  14.458
90514W        W55741  22.145  33.549   2.356
90515W        W55742  36.748   9.440   1.734
90516W        W55743   6.723  24.032  14.946
90517W        W55744  34.021   7.788  12.939
90518W        W55745  44.459  19.120  11.993
90519W        W55746  42.094  13.701  12.092
90520W        W55747  35.280  27.934  13.094
90521W        W55748  16.271  34.560   0.372
90522W        W55749  41.492  21.789  13.964
90523W        W55750  35.928   9.875  13.904
90524W        W55751   6.901  42.894  12.694
90525W        W55752  25.119  14.848  11.175
90526W        W55753   5.966  31.458   4.665
90527W        W55754  11.202  17.520   1.315
90528W        W55755  19.539  38.014  13.161
90529W        W55756  44.996  43.008   3.439
90530W        W55757  41.097   4.137   4.058
90531W        W55758  22.016   5.365  13.301
90532W        W55759   7.468  25.951   2.161
90533W        W55760  24.304  42.310  13.712
90534W        W55761   1.843   9.347  11.539
90535W        W55762  10.737  31.578  14.450
90536W        W55763  13.121  21.743   2.679
90537W        W55764  38.536   9.498   2.107
90538W        W55765  17.673  27.475   2.461
90539W        W55766  30.487   0.235   0.128
90540W        W55767  39.636  23.778  11.579
90541W        W55768   5.528  42.643   1.665
90542W        W55769  26.659  36.203  14.027
90543W        W55770   9.325  42.184   4.122
90544W        W55771  10.255  33.955   2.702
90545W        W55772   7.910   1.268  10.800
90546W        W55773  24.547   0.720  12.057
90547W        W55774  34.799   7.785  12.531
90548W        W55775  36.012  14.231   4.799
90549W        W55776  34.764   5.582  13.828
90550W        W55777  30.645   0.995  12.503
90551W        W55778  14.632  14.590  11.537
90552W        W55779   4.377  26.408   5.206
90553W        W55780   4.992  32.601   4.560
90554W        W55781  30.381  15.099   3.236
90555W        W55782  35.144  36.987  11.884
90556W        W55783   9.660  10.796   3.814
90557W        W55784   3.234  32.365   0.357
90558W        W55785  18.841  44.614   4.835
90559W        W55786  36.925  17.266   1.781
90560W        W55787   1.219  14.184   3.238
90561W        W55788  11.830  44.562  12.454
90562W        W55789   4.376   2.678   0.791
90563W        W55790  22.553  13.947  10.292
90564W        W55791  27.356  13.463   1.699
90565W        W55792  44.001   0.567   0.395
90566W        W55793  17.753  36.060  13.824
90567W        W55794  20.141  42.310  14.791
90568W        W55795  18.036  26.620   0.341
90569W        W55796  10.674  25.220  11.083
90570W        W55797  33.849   8.738   3.624
90571W        W55798  10.320  28.266   0.965
90572W        W55799   2.481  27.266  14.540
90573W        W55800  15.649   9.615  12.860
90574W        W55801  33.484  38.631  10.804
90575W        W55802  25.485  26.093  11.093
90576W        W55803  34.654  23.558   3.454
90577W        W55804   3.704  32.233   4.210
90578W        W55805  29.738  17.993   0.706
90579W        W55806  22.320  28.877  11.228
90580W        W55807  36.457  27.569  13.981
90581W        W55808  16.603   6.602   0.205
90582W        W55809  20.185  25.252   1.211
90583W        W55810  13.112  30.917  14.728
90584W        W55811   9.359  43.058   4.423
90585W        W55812  28.926  23.245   3.591
90586W        W55813  44.198  25.950  10.824
90587W        W55814  36.028  22.279   0.376
90588W        W55815  19.996  15.654   1.893
90589W        W55816  25.923  15.677   1.986
90590W        W55817   5.626   9.956  13.462
90591W        W55818   1.270  25.243  12.126
90592W        W55819  27.315   3.307   4.067
90593W        W55820  29.441  25.265   3.202
90594W        W55821  33.641  15.240   0.937
90595W        W55822   5.363  37.399   2.744
90596W        W55823   1.006   3.546   0.991
90597W        W55824  38.434  33.434  12.851
90598W        W55825  21.235  11.035   4.431
90599W        W55826   5.652  35.358   2.630
90600W        W55827  21.103  19.265   4.221
90601W        W55828  40.999  12.123  12.086
90602W        W55829   8.252  30.127   2.576
90603W        W55830   1.320  30.346  11.479
90604W        W55831  16.747  22.991   3.408
90605W        W55832  28.670  36.686   4.998
90606W        W55833  44.007   1.246  12.634
90607W        W55834  43.400  25.609   3.381
90608W        W55835  44.325  26.662   4.195
90609W        W55836  13.224  44.794   5.012
90610W        W55837  30.824   6.880   2.380
90611W        W55838  35.941  23.017  14.882
90612W        W55839  43.086  25.183  12.035
90613W        W55840  15.055   8.827  12.413
90614W        W55841  12.146  22.823  11.166
90615W        W55842  35.664  37.757   3.385
90616W        W55843  43.788  44.278  12.028
90617W        W55844  36.114  38.263   2.070
90618W        W55845  25.932  21.252  12.991
90619W        W55846  10.869   1.819   1.873
90620W        W55847  14.666  11.318   1.415
90621W        W55848  10.504  29.022   3.771
90622W        W55849  44.291  42.758  10.715
90623W        W55850  40.520  40.589   3.784
90624W        W55851  25.789  18.672  12.592
90625W        W55852  14.738  18.486  13.270
90626W        W55853  36.073  12.354  12.515
90627W        W55854   9.331  43.340   0.389
90628W        W55855  21.443   8.447   1.146
90629W        W55856  31.970  29.662   5.108
90630W        W55857  20.796  22.423   4.179
90631W        W55858  42.975  22.977  12.604
90632W        W55859  33.515  43.968  14.523
90633W        W55860  32.356   3.728   1.669
90634W        W55861  44.457  30.858  13.356
90635W        W55862   5.434  43.485   5.407
90636W        W55863   2.945   8.359  11.980
90637W        W55864  39.023  37.738  12.630
90638W        W55865  42.449  27.528  12.106
90639W        W55866  40.452  12.804   3.331
90640W        W55867  40.841  40.967  12.487
90641W        W55868  17.373  29.911  13.524
90642W        W55869   1.321  21.697   0.049
90643W        W55870  33.132   6.597   0.649
90644W        W55871   7.142   3.352   3.584
90645W        W55872   3.537  10.845   0.806
90646W        W55873  17.713  31.611   3.689
90647W        W55874  39.562   7.365  12.498
90648W        W55875  19.052  44.426   3.559
90649W        W55876  12.181  10.104  10.780
90650W        W55877  26.529  18.684  13.123
90651W        W55878   1.571  30.043  11.883
90652W        W55879   9.630  34.439  12.159
90653W        W55880  11.999   3.243   2.741
90654W        W55881  18.555  20.775   2.180
90655W        W55882   9.707  17.806  12.850
90656W        W55883   8.381  29.829   2.160
90657W        W55884  31.553   1.654   1.353
90658W        W55885  13.778  28.761  12.151
90659W        W55886  43.008   3.304   3.693
90660W        W55887  30.081   2.317  14.915
90661W        W55888  39.331   1.403  11.463
90662W        W55889   2.806  22.302   1.383
90663W        W55890  10.207  10.647  10.757
90664W        W55891  19.348  35.882  13.051
90665W        W55892  37.337   0.918   4.720
90666W        W55893  20.114  17.022   2.294
90667W        W55894   8.922  31.158  10.919
90668W        W55895  39.217  13.068   4.156
90669W        W55896  35.642  10.287  10.600
90670W        W55897  16.315   7.984   2.582
90671W        W55898  43.097   0.968   1.997
90672W        W55899  24.575  37.296  14.297
90673W        W55900   1.195   3.160  10.352
90674W        W55901  15.532  36.306  10.757
90675W        W55902  38.489  19.128  12.402
90676W        W55903   7.104  41.360  11.166
90677W        W55904  18.656  33.341   4.099
90678W        W55905  40.111  32.931  12.664
90679W        W55906  31.364  19.472   2.233
90680W        W55907  41.364  29.561  14.863
90681W        W55908  44.503  26.360   3.794
90682W        W55909  11.072  12.680   4.855
90683W        W55910  32.976  37.659  13.536
90684W        W55911  23.943   4.973   3.243
90685W        W55912  21.201   1.671  10.225
90686W        W55913   8.593  37.034   3.235
90687W        W55914  25.713  28.353   0.889
90688W        W55915  23.565   4.788  12.951
90689W        W55916   0.924  13.960   1.725
90690W        W55917   2.249   2.068  14.957
90691W        W55918   7.582  33.427  10.804
90692W        W55919  40.147  19.366   1.919
90693W        W55920  43.353   8.324   4.821
90694W        W55921   4.636  18.541   4.244
90695W        W55922  27.903  23.712   2.618
90696W        W55923  44.613  15.533   4.813
90697W        W55924  32.510  43.399   3.268
90698W        W55925  23.226   6.037   1.802
90699W        W55926   7.769   2.281  10.464
90700W        W55927  18.282  24.454  10.828
90701W        W55928   4.430   5.714  12.126
90702W        W55929  10.774  24.717  11.207
90703W        W55930  21.303  14.071  14.346
90704W        W55931  31.739  22.203   1.864
90705W        W55932  35.378   6.686   0.477
90706W        W55933  42.218  21.232  11.343
90707W        W55934  41.170  28.867  14.296
90708W        W55935  12.761   3.843  13.121
90709W        W55936   3.106  40.811  11.574
90710W        W55937  18.238   9.813   4.591
90711W        W55938  39.345  26.033  10.641
90712W        W55939  19.709   1.936   4.806
90713W        W55940  16.960  26.758  14.398
90714W        W55941  39.243  21.947  14.488
90715W        W55942  25.236  38.078   4.884
90716W        W55943  41.553  29.680  13.941
90717W        W55944  31.535  18.400  14.301
90718W        W55945   6.949  17.513  14.774
90719W        W55946  35.016   4.244   3.100
90720W        W55947  16.496  20.761  14.931
90721W        W55948   0.277  41.499   2.594
90722W        W55949  10.714   5.926  13.263
90723W        W55950  11.329  35.602   0.869
90724W        W55951  41.744  31.857   1.237
90725W        W55952  24.799  42.521   1.517
90726W        W55953  44.902   3.275  12.445
90727W        W55954   7.339  18.264   0.705
90728W        W55955  29.435   8.610  13.263
90729W        W55956   1.759  17.553  14.977
90730W        W55957  17.817  35.887   2.308
90731W        W55958  11.659   1.378   1.733
90732W        W55959  20.794  35.915  11.162
90733W        W55960   0.303   9.967  12.103
90734W        W55961  17.283  33.979  13.287
90735W        W55962  18.672  13.228   3.611
90736W        W55963  29.445  30.446  14.561
90737W        W55964  10.163  24.115   3.564
90738W        W55965  21.251  32.028  12.102
90739W        W55966   6.699  12.043  12.148
90740W        W55967  44.354  35.636  12.151
90741W        W55968   9.307  39.015   0.747
90742W        W55969  27.445  31.158  11.893
90743W        W55970  43.622  31.281   2.836
90744W        W55971  42.025  14.628   1.238
90745W        W55972  26.630  23.701  13.836
90746W        W55973   4.763  23.256  11.354
90747W        W55974  14.139  10.027   0.935
90748W        W55975  30.078  25.081   2.257
90749W        W55976  21.503  17.717   1.361
90750W        W55977  16.321  29.604   4.037
90751W        W55978  34.016  19.576  14.265
90752W        W55979  40.156   2.433  14.943
90753W        W55980   4.874  16.223   2.484
90754W        W55981  26.466  25.353   3.006
90755W        W55982  12.570  23.063   0.963
90756W        W55983  40.982  11.595   4.783
90757W        W55984  33.612  14.319  11.071
90758W        W55985   3.772  33.392   1.421
90759W        W55986  35.301  42.440   3.303
90760W        W55987  43.880  32.534  11.956
90761W        W55988   1.874  14.969  13.051
90762W        W55989  38.999  20.197   2.714
90763W        W55990  13.169   2.965  14.817
90764W        W55991  32.975   1.951  12.677
90765W        W55992  28.895   8.129   3.197
90766W        W55993   5.887  43.054  14.204
90767W        W55994   1.873  17.529   0.518
90768W        W55995  27.137  26.650  14.903
90769W        W55996  34.087  30.318  13.124
90770W        W55997  41.843  11.009  14.734
90771W        W55998  41.469  44.074   2.465
90772W        W55999  24.063  20.953  12.562
90773W        W56000  31.955  29.973   4.292
90774W        W56001  18.839  22.410   0.049
90775W        W56002  23.183  24.858  14.578
90776W        W56003  11.202  28.443  13.944
90777W        W56004  34.463  42.701   1.271
90778W        W56005  39.879  23.158  11.076
90779W        W56006  38.274  44.032  12.914
90780W        W56007  13.511   5.409   1.459
90781W        W56008  17.047  42.767   2.799
90782W        W56009  40.965  18.755  12.005
90783W        W56010   0.371  29.877   1.738
90784W        W56011  18.480  20.372   3.243
90785W        W56012  32.655   0.011   0.834
90786W        W56013  10.781  18.849  11.158
90787W        W56014  17.149  35.803  14.506
90788W        W56015  20.360  33.666   1.318
90789W        W56016  12.703  30.616  10.803
90790W        W56017   7.242  30.950   1.840
90791W        W56018   8.350  26.222  14.791
90792W        W56019  31.420  10.063  13.544
90793W        W56020   9.776  42.936   3.181
90794W        W56021  11.683  33.027  14.059
90795W        W56022   5.164  17.623  11.902
90796W        W56023  16.055  38.451  11.146
90797W        W56024  41.664   7.913  14.949
90798W        W56025  38.067  11.642  11.100
90799W        W56026  14.239  16.367   0.018
90800W        W56027   3.398   5.383   4.906
90801W        W56028   1.472  25.240  13.991
90802W        W56029   3.022  13.210  13.502
90803W        W56030  28.200  10.970  14.411
90804W        W56031   3.388  26.285   4.095
90805W        W56032  20.198   0.414  10.243
90806W        W56033  40.926  36.341   1.994
90807W        W56034   3.946   9.720  12.644
90808W        W56035  38.831   8.635  12.162
90809W        W56036  41.837  14.126   1.782
90810W        W56037  39.156  35.638  14.676
90811W        W56038  11.385  24.641   3.183
90812W        W56039  33.560  42.375   3.788
90813W        W56040   1.887  19.527   4.109
90814W        W56041  23.773   3.705   4.716
90815W        W56042  28.153  17.101   0.912
90816W        W56043   5.240  25.378   4.687
90817W        W56044  42.756   7.808  11.432
90818W        W56045  13.757  20.026  14.525
90819W        W56046  36.990  10.829   4.230
90820W        W56047  38.776  23.962  11.846
90821W        W56048  10.620   6.697  12.550
90822W        W56049  28.447   3.921  13.055
90823W        W56050  19.774  36.335  12.761
90824W        W56051  31.417  30.670  11.540
90825W        W56052  28.215  21.386   4.064
90826W        W56053  43.967   9.737  14.776
90827W        W56054  16.936  27.242   1.684
90828W        W56055  38.113  21.113   3.093
90829W        W56056  16.856  28.432   4.552
90830W        W56057  32.968  31.939  14.263
90831W        W56058  43.324  24.659   3.436
90832W        W56059  30.386   8.633   3.257
90833W        W56060  41.752   0.811   2.223
90834W        W56061  44.418  25.466   3.796
90835W        W56062  17.106   0.610   1.264
90836W        W56063   4.865  26.178  11.440
90837W        W56064   1.929  18.015   2.179
90838W        W56065   1.309  19.089   1.407
90839W        W56066  32.470  37.934   0.965
90840W        W56067  25.506  17.543   2.270
90841W        W56068  25.216  37.464   3.756
90842W        W56069  22.304  16.127   4.229
90843W        W56070  26.202   2.399  13.004
90844W        W56071   4.334  17.339  10.038
90845W        W56072  36.009  10.869  12.135
90846W        W56073  33.959  19.197  13.895
90847W        W56074   5.847  21.527  14.793
90848W        W56075  31.572  11.403   1.313
90849W        W56076   8.891  25.568  10.781
90850W        W56077  34.984  33.550   0.043
90851W        W56078  19.761  36.876   3.390
90852W        W56079  36.358  26.447   1.840
90853W        W56080  17.083  19.347   4.128
90854W        W56081  36.732  34.552   2.764
90855W        W56082  11.138  14.135  14.740
90856W        W56083  32.669  36.966   2.422
90857W        W56084  39.383   4.366   1.478
90858W        W56085  13.832  28.596   2.289
90859W        W56086   1.969  11.233   3.714
90860W        W56087  21.742  38.699   1.365
90861W        W56088   7.668   0.188   2.788
90862W        W56089   9.466  40.592  11.744
90863W        W56090  13.133  38.538  13.357
90864W        W56091  19.640  40.030  12.033
90865W        W56092  13.116  19.406   3.554
90866W        W56093  20.559   6.021  10.877
90867W        W56094  32.510  44.499  14.459
90868W        W56095  34.892  31.160  13.548
90869W        W56096  16.481  14.430  11.624
90870W        W56097   4.333  32.914   4.022
90871W        W56098   3.849  16.609   1.829
90872W        W56099  18.086  18.163  11.473
90873W        W56100  43.835  14.860   0.744
90874W        W56101  12.162  15.390  13.110
90875W        W56102  35.886  34.070   2.771
90876W        W56103   4.018   8.200   1.140
90877W        W56104   6.662  21.638   3.167
90878W        W56105  30.677  38.298  10.788
90879W        W56106  41.750  22.039   4.789
90880W        W56107   2.329  17.073  14.995
90881W        W56108  11.192  36.621  14.979
90882W        W56109   1.425  13.441   2.528
90883W        W56110  25.946  35.308   1.838
90884W        W56111  27.995  13.014   2.062
90885W        W56112  19.825  18.715  11.203
90886W        W56113  40.502  34.433   3.166
90887W        W56114   4.648  14.741   3.644
90888W        W56115  43.011  31.092   1.735
90889W        W56116  26.943  22.157   1.149
90890W        W56117  27.531  16.802   1.838
90891W        W56118  20.687  26.546  13.358
90892W        W56119  23.955  25.306   4.823
90893W        W56120  27.695  37.279   4.106
90894W        W56121  26.735  17.451   4.507
90895W        W56122   2.603  31.798  11.187
90896W        W56123  43.611  35.974   1.638
90897W        W56124  22.297   0.411   0.712
90898W        W56125  38.931  39.245  11.683
90899W        W56126  13.330  37.331   1.834
90900W        W56127  41.400  11.459  13.868
90901W        W56128  22.979   1.223  13.054
90902W        W56129  23.578  39.765  10.717
90903W        W56130   0.804  36.587  12.912
90904W        W56131  35.353  38.228   5.069
90905W        W56132  17.683  18.266  11.154
90906W        W56133   5.867  24.656  13.062
90907W        W56134  23.202  37.310  11.551
90908W        W56135  36.154  24.557   4.570
90909W        W56136   3.013  17.642  14.096
90910W        W56137  25.313  29.617   0.334
90911W        W56138  20.618  11.394  11.001
90912W        W56139  42.811  10.599  14.825
90913W        W56140  40.995  41.996   1.789
90914W        W56141  21.575   6.003   4.087
90915W        W56142  11.969  42.969  14.997
90916W        W56143  27.740   3.701  14.285
90917W        W56144   5.585  11.832   4.377
90918W        W56145  21.885  25.631  12.070
90919W        W56146  16.572  42.708   1.853
90920W        W56147  23.951  28.124  14.035
90921W        W56148  22.000  17.319  11.940
90922W        W56149  38.569  20.055  10.053
90923W        W56150  43.048  23.735  11.416
90924W        W56151  32.421  22.422  14.033
90925W        W56152  15.785   7.399  11.897
90926W        W56153  22.991  28.744   0.372
90927W        W56154   6.786  34.948  12.926
90928W        W56155  32.123  17.762  12.145
90929W        W56156  25.189  40.688  12.581
90930W        W56157  19.396  22.472   3.333
90931W        W56158   7.746  22.104  10.668
90932W        W56159   0.192  23.147   3.640
90933W        W56160  16.288  12.874   2.908
90934W        W56161  30.130  24.974  12.162
90935W        W56162  28.437  14.637  11.025
90936W        W56163  24.224  37.320   0.491
90937W        W56164  11.613  34.603   3.973
90938W        W56165   8.096  40.235   1.596
90939W        W56166  44.915  41.121  13.844
90940W        W56167   3.346   2.907   0.694
90941W        W56168   8.821   1.985  11.128
90942W        W56169  37.535   1.504   2.491
90943W        W56170  31.403  42.308  14.428
90944W        W56171   5.380   7.684  11.683
90945W        W56172  10.889   0.605   5.007
90946W        W56173   7.304   5.439   0.914
90947W        W56174  26.036  37.936   3.657
90948W        W56175  23.977   5.853  10.509
90949W        W56176   4.707  29.409  12.665
90950W        W56177  42.939   4.957   2.248
90951W        W56178  35.850  35.232  13.186
90952W        W56179   7.550   8.097  11.416
90953W        W56180  32.501   8.795  12.194
90954W        W56181  20.631   1.257  11.845
90955W        W56182  34.496  18.225  11.250
90956W        W56183  23.141  17.701  11.728
90957W        W56184  40.771  28.383   4.928
90958W        W56185  38.653  28.901   1.871
90959W        W56186  44.927  13.064   2.704
90960W        W56187  43.849  12.480  13.771
90961W        W56188  16.330  13.121  12.758
90962W        W56189  18.100   7.672   2.383
90963W        W56190   6.469  10.723   2.716
90964W        W56191  32.305  31.101   0.750
90965W        W56192  24.105  13.787   1.290
90966W        W56193   6.098  15.864  10.878
90967W        W56194  23.546  32.103  10.520
90968W        W56195   0.967  15.564  10.320
90969W        W56196  14.832  11.213  14.077
90970W        W56197  34.210  30.222  14.804
90971W        W56198  35.400  28.009  11.674
90972W        W56199   4.636  10.238  13.606
90973W        W56200  31.225  29.282   3.673
90974W        W56201   9.405  41.477   2.775
90975W        W56202  25.039  14.095   4.237
90976W        W56203   3.135  26.224   1.430
90977W        W56204  43.511  40.409  11.198
90978W        W56205  12.379  22.203   3.798
90979W        W56206   6.402  31.565  13.567
90980W        W56207  27.363  14.788   2.753
90981W        W56208  30.691  12.286  14.407
90982W        W56209   3.932  15.559  14.272
90983W        W56210  22.548  39.513  11.158
90984W        W56211   4.702  24.669  11.588
90985W        W56212  20.100  35.985  13.405
90986W        W56213  21.804  33.957   4.577
90987W        W56214  17.033  43.441   1.708
90988W        W56215  44.000   5.748   3.342
90989W        W56216  21.306  40.728  11.998
90990W        W56217   7.137   2.697   0.329
90991W        W56218  29.751  25.794   3.755
90992W        W56219  37.883  26.542   4.814
90993W        W56220  10.287  31.954  11.084
90994W        W56221  27.213   8.097  13.474
90995W        W56222  44.459   0.323  14.241
90996W        W56223   0.388  39.568   0.530
90997W        W56224  26.583  33.127  12.768
90998W        W56225  16.510  44.953  11.099
90999W        W56226  13.617   0.017  11.092
91000W        W56227  20.251  41.591  10.773
91001W        W56228  34.381  14.078  13.595
91002W        W56229  42.463  21.457  13.962
91003W        W56230  43.477  28.622  14.533
91004W        W56231  41.141   4.989  11.178
91005W        W56232  22.549  41.044  11.215
91006W        W56233  33.458  20.582   0.322
91007W        W56234  35.454  42.402  14.431
91008W        W56235  35.030   1.458  11.628
91009W        W56236  12.467  24.006  14.778
91010W        W56237  28.453  26.670   0.391
91011W        W56238  20.833  33.342   0.007
91012W        W56239  36.983   1.644  11.560
91013W        W56240   1.520  19.090   4.549
91014W        W56241   3.182  20.804   0.824
91015W        W56242   6.219   7.920  11.126
91016W        W56243  41.522  40.324   4.644
91017W        W56244  14.925  10.898  10.762
91018W        W56245   6.530  20.207  12.485
91019W        W56246   9.402  30.458  10.424
91020W        W56247  13.832  37.590   2.796
91021W        W56248  16.778  21.754  11.652
91022W        W56249  20.469  39.922  11.203
91023W        W56250  17.560  27.066   4.558
91024W        W56251   7.237   0.772   0.753
91025W        W56252  14.222  41.965  14.319
91026W        W56253  30.492  14.880   0.438
91027W        W56254  29.793  14.127  12.149
91028W        W56255  29.147  28.905   4.293
91029W        W56256  38.597  16.855   2.741
91030W        W56257  37.103  42.497   1.263
91031W        W56258  12.314  20.769  14.954
91032W        W56259  23.367  44.715  11.084
91033W        W56260  11.316  41.937   1.779
91034W        W56261  13.787  37.058  10.870
91035W        W56262   4.344  39.409   3.611
91036W        W56263  35.839  44.058  13.976
91037W        W56264  20.759  16.388   0.236
91038W        W56265   7.339  32.343   2.230
91039W        W56266  36.358  34.543  11.750
91040W        W56267  16.396  15.516   0.634
91041W        W56268  32.945  22.032   4.082
91042W        W56269  30.028  44.710  14.882
91043W        W56270   6.460  19.150   2.695
91044W        W56271  15.664   9.753   2.687
91045W        W56272  39.788  11.668  11.720
91046W        W56273  25.046  23.401   2.130
91047W        W56274  16.501  41.069  12.601
91048W        W56275   9.808   8.791   1.829
91049W        W56276  44.036  18.912   2.189
91050W        W56277  19.059   6.875  12.062
91051W        W56278  32.306   6.356   0.886
91052W        W56279  10.165   9.910  14.695
91053W        W56280  11.876   7.655  13.469
91054W        W56281   3.081  40.231   4.177
91055W        W56282   2.216  30.869   0.691
91056W        W56283  23.848  17.186  13.674
91057W        W56284  29.011  32.103   1.830
91058W        W56285  40.485  13.439   0.573
91059W        W56286  16.769  26.262  13.426
91060W        W56287  12.264  17.882   1.293
91061W        W56288   1.691  17.455   3.244
91062W        W56289  42.890  43.744  12.006
91063W        W56290  18.284  29.690   2.772
91064W        W56291  42.061  42.535  11.622
91065W        W56292  26.575  39.827   4.515
91066W        W56293  37.953  41.895  11.517
91067W        W56294  29.397  14.900   2.247
91068W        W56295  43.807  21.575   3.996
91069W        W56296  41.430   3.942  11.966
91070W        W56297   4.467  39.362   4.538
91071W        W56298  40.571  28.259  10.274
91072W        W56299  41.537  32.106   3.050
91073W        W56300  13.916  26.878  13.743
91074W        W56301  40.598  35.633  11.833
91075W        W56302  38.181   7.220  11.069
91076W        W56303   4.331  25.137  10.888
91077W        W56304   9.262   9.898  12.466
91078W        W56305   3.844  16.332   3.640
91079W        W56306  43.531  11.506  14.866
91080W        W56307  19.336   2.119   3.661
91081W        W56308  13.828  20.913   0.668
91082W        W56309  24.916  34.330  14.318
91083W        W56310  37.776  13.309  10.810
91084W        W56311  23.167  24.699   1.670
91085W        W56312   5.369  13.881   0.223
91086W        W56313  33.698  25.371   0.428
91087W        W56314  20.696  43.152   2.575
91088W        W56315  30.589  44.985  14.277
91089W        W56316  14.944  20.286  13.864
91090W        W56317  26.424   7.817   0.780
91091W        W56318  36.681  25.551  11.954
91092W        W56319  34.674  24.139  12.462
91093W        W56320  10.797  34.493   3.562
91094W        W56321   5.224  29.520  12.855
91095W        W56322  21.470  38.805  14.475
91096W        W56323  36.609   3.081  11.534
91097W        W56324  27.473  38.416  12.877
91098W        W56325  29.690  13.385  12.861
91099W        W56326  27.573   3.490   2.782
91100W        W56327  40.325  38.008  13.035
91101W        W56328  40.861  37.315   1.886
91102W        W56329  30.695  17.858  14.004
91103W        W56330  39.345  16.286   1.502
91104W        W56331  41.869   8.930   0.164
91105W        W56332  31.956  22.071   2.317
91106W        W56333  14.943  16.752  11.126
91107W        W56334  29.517  30.572   2.649
91108W        W56335  28.843  19.379  11.181
91109W        W56336   1.436  34.509   0.400
91110W        W56337  28.142   0.664   1.864
91111W        W56338  20.278  12.262   2.747
91112W        W56339  28.737  30.238  13.011
91113W        W56340   7.623  26.104  11.981
91114W        W56341  42.593  43.770   3.325
91115W        W56342  41.378  35.918   3.334
91116W        W56343  35.577  33.350   4.418
91117W        W56344  10.297  12.923   1.346
91118W        W56345  35.889  41.794  14.864
91119W        W56346  15.809  35.879  14.392
91120W        W56347  18.297  13.797   0.399
91121W        W56348  10.755  40.341  13.118
91122W        W56349  33.889  29.671   2.757
91123W        W56350  14.064  15.531   3.541
91124W        W56351   4.069  42.480   0.195
91125W        W56352  31.460  20.012   3.689
91126W        W56353  12.830  43.259   0.500
91127W        W56354  24.441   7.407  13.888
91128W        W56355  14.821  24.411  11.096
91129W        W56356  36.373  12.672  10.351
91130W        W56357   5.504  44.506   0.654
91131W        W56358  28.024   5.558  12.446
91132W        W56359   0.444  33.388   0.808
91133W        W56360  36.645   2.257  10.965
91134W        W56361  37.753  43.888   1.227
91135W        W56362  40.102  42.370   3.692
91136W        W56363  27.047  39.907  12.799
91137W        W56364  35.901   6.301  13.033
91138W        W56365  20.198  19.696   4.735
91139W        W56366  28.968  37.469   4.681
91140W        W56367  39.303   0.732  14.918
91141W        W56368  41.828   6.908  13.020
91142W        W56369  37.387  11.819  13.628
91143W        W56370  34.524  28.579   5.462
91144W        W56371  19.682  20.437   4.532
91145W        W56372   4.053   0.508  12.592
91146W        W56373  37.470   4.237   2.111
91147W        W56374  41.038   7.898   0.697
91148W        W56375   9.826  20.717  14.355
91149W        W56376  35.987  25.540   1.033
91150W        W56377  43.864   1.892   1.569
91151W        W56378  10.901  31.352   1.966
91152W        W56379  27.739  14.144  14.370
91153W        W56380  34.627  11.496  11.981
91154W        W56381  21.260  27.472  10.876
91155W        W56382  25.773  27.210  11.589
91156W        W56383  39.272  14.795   3.733
91157W        W56384  22.254  43.598   2.867
91158W        W56385  18.192  39.356  14.343
91159W        W56386  22.982   4.221  11.692
91160W        W56387  18.691  28.223   3.676
91161W        W56388   1.404  35.039  12.031
91162W        W56389   8.603   9.456   1.721
91163W        W56390  36.487  24.707   3.319
91164W        W56391   1.776  36.520  13.964
91165W        W56392  17.338  19.199  12.879
91166W        W56393  22.030  42.953   2.290
91167W        W56394  36.081  37.914  11.660
91168W        W56395   4.399  12.756   2.900
91169W        W56396  23.431  41.337  12.939
91170W        W56397  23.910  27.480  14.356
91171W        W56398   7.732  22.913  13.831
91172W        W56399  22.100  26.200  11.655
91173W        W56400  38.185   0.867   4.254
91174W        W56401  11.432   5.436  11.541
91175W        W56402  14.608   8.916  14.781
91176W        W56403  34.865   5.917   0.963
91177W        W56404  28.636  20.013  13.348
91178W        W56405   6.723  11.625   3.631
91179W        W56406  27.059  37.914   2.764
91180W        W56407  20.729  42.479   1.017
91181W        W56408  11.186  23.509   1.796
91182W        W56409  11.745   6.164   0.056
91183W        W56410  14.149  14.055  11.222
91184W        W56411   2.809  20.505   4.133
91185W        W56412  11.682  18.716  11.962
91186W        W56413  39.791  42.986   4.663
91187W        W56414   7.608  35.868   5.042
91188W        W56415  33.508  44.759   0.805
91189W        W56416   5.146  34.565  14.351
91190W        W56417   0.198  21.924   3.762
91191W        W56418  10.790  12.935   2.342
91192W        W56419   4.782  28.736  14.687
91193W        W56420  44.911   9.672  12.897
91194W        W56421  39.618   5.513  13.977
91195W        W56422  10.496   9.714   1.683
91196W        W56423  18.559   2.592   2.798
91197W        W56424  38.778   0.272   5.407
91198W        W56425  17.526  19.113   3.230
91199W        W56426   2.406  25.067   3.176
91200W        W56427  18.233   9.843   4.070
91201W        W56428  33.106  12.559  10.713
91202W        W56429  12.661  21.843  13.907
91203W        W56430  10.372   3.638  11.145
91204W        W56431  14.356  15.873  14.057
91205W        W56432   1.481  42.513  14.820
91206W        W56433  42.473  41.243   0.275
91207W        W56434  11.070  27.395  13.960
91208W        W56435  17.370  15.111  13.106
91209W        W56436  41.528   9.817   3.770
91210W        W56437   3.267  34.928  13.307
91211W        W56438   6.141   4.194  11.369
91212W        W56439   4.406  28.468   3.258
91213W        W56440  15.652  42.850  10.656
91214W        W56441  10.296  13.118  14.259
91215W        W56442   7.890  10.916   2.768
91216W        W56443  25.725  10.389   0.341
91217W        W56444  33.892  13.522  10.770
91218W        W56445  43.806  36.774  10.737
91219W        W56446   6.864   2.993  12.843
91220W        W56447  16.516  20.579  12.799
91221W        W56448  43.397   8.833   4.176
91222W        W56449  37.640  28.574   1.408
91223W        W56450  39.002  12.826  12.916
91224W        W56451   4.395   6.772   4.411
91225W        W56452  11.868  40.437   3.562
91226W        W56453  14.577  10.261   2.309
91227W        W56454  32.651  31.474   4.722
91228W        W56455   2.895  14.451   2.679
91229W        W56456   9.166  17.721  14.956
91230W        W56457   9.260  37.928   3.890
91231W        W56458  20.644  16.546  12.956
91232W        W56459  11.651  20.539   2.806
91233W        W56460  32.476   7.393  12.471
91234W        W56461   0.058  28.909  11.634
91235W        W56462  13.802  43.386  12.550
91236W        W56463   4.940   4.565  11.216
91237W        W56464  34.492  24.113  11.955
91238W        W56465  40.089   4.348  11.144
91239W        W56466   0.716  16.314  14.320
91240W        W56467  42.826  37.506   0.597
91241W        W56468  23.155  39.721  11.494
91242W        W56469   9.488  35.130  13.947
91243W        W56470  23.705  27.066   0.403
91244W        W56471   8.923   3.808   1.751
91245W        W56472  31.068  21.091  13.163
91246W        W56473  34.628  17.283   1.869
91247W        W56474  36.383   6.148   2.559
91248W        W56475   8.486  37.204   1.468
91249W        W56476  41.984  17.051   1.283
91250W        W56477  12.799  44.202   4.167
91251W        W56478  43.461  40.832   3.817
91252W        W56479   0.125  35.936   2.076
91253W        W56480  41.350  29.082   2.099
91254W        W56481   0.838   8.000  13.024
91255W        W56482   6.672  14.847  12.264
91256W        W56483   2.153  43.397  13.315
91257W        W56484  22.703  38.356  11.523
91258W        W56485  37.806  18.317   3.150
91259W        W56486   9.286  11.161  11.512
91260W        W56487   0.322  39.085  14.618
91261W        W56488  42.272   2.297   4.112
91262W        W56489  41.388  21.713  14.817
91263W        W56490  21.685  27.670  11.114
91264W        W56491  12.587  35.977   0.721
91265W        W56492  28.105   1.227  14.215
91266W        W56493  26.593  25.903  12.753
91267W        W56494  41.171  21.385  13.250
91268W        W56495  20.517  22.429   3.568
91269W        W56496  13.655  37.006   4.195
91270W        W56497  17.353   8.312  12.514
91271W        W56498   6.670  27.139  14.008
91272W        W56499  12.898  23.201   4.138
91273W        W56500  26.898   4.981  13.518
91274W        W56501  17.137   1.159  12.973
91275W        W56502   7.770  40.412  10.670
91276W        W56503  29.659   4.701   3.594
91277W        W56504  44.787  19.059  13.920
91278W        W56505   7.589  16.504  13.283
91279W        W56506  44.527  22.645   2.834
91280W        W56507  18.622  26.906  12.210
91281W        W56508   5.344  30.584   3.673
91282W        W56509  14.191  34.055   2.157
91283W        W56510  37.312  34.824  13.985
91284W        W56511  28.709  27.093  13.988
91285W        W56512  40.095  25.038   2.723
91286W        W56513   2.449  40.463  14.892
91287W        W56514  28.595  31.086   2.209
91288W        W56515   6.265  10.252   2.569
91289W        W56516  12.277  44.260  12.364
91290W        W56517  35.145   3.489  11.638
91291W        W56518  35.002   7.949   3.683
91292W        W56519  34.411  38.868  13.471
91293W        W56520  27.919  21.662   2.848
91294W        W56521   6.549  11.267  12.083
91295W        W56522  32.957  21.512  13.032
91296W        W56523  17.093  40.898   3.302
91297W        W56524  38.955   2.366  12.327
91298W        W56525  25.494  31.327  14.754
91299W        W56526  25.249  20.039  10.599
91300W        W56527  39.915   9.709   3.647
91301W        W56528  17.261  32.195   4.525
91302W        W56529   0.631  18.956   4.302
91303W        W56530   7.334  19.320   3.305
91304W        W56531  31.587  13.346   2.222
91305W        W56532  29.367  11.852  14.817
91306W        W56533  28.633  28.429   3.745
91307W        W56534  27.617  43.021   1.225
91308W        W56535  24.807   6.445   3.657
91309W        W56536  30.568  17.768   3.661
91310W        W56537  16.053  23.039   1.243
91311W        W56538   2.670  19.997   3.140
91312W        W56539  37.080  24.199  11.140
91313W        W56540  39.948  15.878  11.547
91314W        W56541  14.712   9.906   2.800
91315W        W56542  18.834   3.831   1.912
91316W        W56543  31.472  42.824  13.802
91317W        W56544  34.123   0.667  14.506
91318W        W56545  13.884  24.848  12.557
91319W        W56546   4.251  12.803   4.604
91320W        W56547   9.759   0.968   2.852
91321W        W56548  23.913   2.854  11.117
91322W        W56549  28.654  10.347   0.377
91323W        W56550   8.702  22.751   2.222
91324W        W56551  25.638  13.965   2.319
91325W        W56552   4.368  26.459   4.637
91326W        W56553  41.415  30.296  12.800
91327W        W56554   1.885  29.890   1.874
91328W        W56555  25.757  38.627   4.177
91329W        W56556  43.834   1.520   2.783
91330W        W56557  29.905  42.977   3.170
91331W        W56558   9.179  18.206  12.051
91332W        W56559  44.436  29.783  11.103
91333W        W56560  30.568  14.174   0.154
91334W        W56561   2.333   3.863  12.821
91335W        W56562  16.430   0.797  12.158
91336W        W56563  15.503   6.661   0.827
91337W        W56564  36.708  25.450  14.329
91338W        W56565   4.413  23.771  11.145
91339W        W56566  33.926  25.006  13.327
91340W        W56567  11.168  41.995   4.685
91341W        W56568   1.078  22.569   3.788
91342W        W56569   9.474  19.320   5.036
91343W        W56570   5.830  37.324  14.550
91344W        W56571  43.424  24.499  11.617
91345W        W56572  19.395   2.388   4.597
91346W        W56573  23.926   5.853  11.657
91347W        W56574  41.076  28.378   1.858
91348W        W56575  32.620  33.158   1.822
91349W        W56576  41.540   7.275  10.415
91350W        W56577  44.009  39.894  14.037
91351W        W56578   1.808  33.476   2.668
91352W        W56579  40.046  21.146   4.029
91353W        W56580  35.826  15.059   4.545
91354W        W56581  26.649  44.013   1.337
91355W        W56582  15.529  12.890   2.106
91356W        W56583  41.619  44.767  11.139
91357W        W56584   0.301  26.122   2.676
91358W        W56585  30.052   0.788  13.971
91359W        W56586   6.802   0.123  10.305
91360W        W56587  26.866   6.380  13.340
91361W        W56588  24.235  31.833   1.850
91362W        W56589  19.159  37.987  12.199
91363W        W56590  15.066  25.382  12.278
91364W        W56591  37.114  11.781   1.845
91365W        W56592  42.484  21.658  14.910
91366W        W56593  16.718  35.848   1.833
91367W        W56594  32.032   2.378   1.017
91368W        W56595  33.860  26.582   3.006
91369W        W56596  32.889  34.890   4.651
91370W        W56597  34.951  20.733   0.748
91371W        W56598  20.647  15.058   3.751
91372W        W56599  15.115  30.159   3.021
91373W        W56600  31.710  31.030  13.516
91374W        W56601  23.844  39.375  14.388
91375W        W56602  29.075  33.822  10.650
91376W        W56603  30.845   5.572  11.957
91377W        W56604   9.173   2.435   2.735
91378W        W56605  28.908  28.497  14.852
91379W        W56606  17.734  26.802  11.112
91380W        W56607  37.270   5.034  11.120
91381W        W56608  27.516  20.562   4.025
91382W        W56609   9.927  33.890   3.614
91383W        W56610  39.127   5.356  12.982
91384W        W56611  30.995   3.412  11.559
91385W        W56612  36.982   0.455   1.417
91386W        W56613   8.098  37.364   4.591
91387W        W56614  27.019   6.295  11.982
91388W        W56615   9.547   4.923  14.420
91389W        W56616  10.445  22.055   3.803
91390W        W56617  37.870  32.928   2.261
91391W        W56618  37.516  22.730   4.211
91392W        W56619  26.025  31.136  12.133
91393W        W56620  25.670  32.587  11.599
91394W        W56621   4.756  26.762  14.963
91395W        W56622  18.152  31.407  14.762
91396W        W56623  20.644  19.245   1.798
91397W        W56624   2.942  23.488  14.923
91398W        W56625  37.861  27.155   4.474
91399W        W56626  21.638   5.731  14.064
91400W        W56627  43.109  16.546   2.284
91401W        W56628  29.488  23.894   4.443
91402W        W56629  35.166   4.948   2.183
91403W        W56630  26.729  17.047  11.630
91404W        W56631  32.518  24.262  13.342
91405W        W56632  33.443  10.154   2.392
91406W        W56633   3.859  23.927   4.089
91407W        W56634  35.818  16.887  14.454
91408W        W56635   9.320  39.601  12.513
91409W        W56636  35.826  34.181  11.148
91410W        W56637  31.650  31.234  13.014
91411W        W56638   8.458  29.698   3.853
91412W        W56639  22.771   5.318   1.362
91413W        W56640  10.781  20.285  10.454
91414W        W56641   9.249   7.673   4.325
91415W        W56642  40.201  22.120  10.717
91416W        W56643  32.600  38.909  14.050
91417W        W56644   3.461  30.468  14.544
91418W        W56645  43.557   4.706  12.562
91419W        W56646   8.323   3.994   2.654
91420W        W56647  15.854  42.839   0.494
91421W        W56648  21.976   7.195   3.991
91422W        W56649  20.152  32.615   2.134
91423W        W56650   2.702   3.699  12.121
91424W        W56651  20.107  22.465   0.946
91425W        W56652  28.236  22.706   4.038
91426W        W56653  36.484  37.639  10.657
91427W        W56654  33.098  10.855   4.061
91428W        W56655   9.667  42.655  12.122
91429W        W56656  30.942  39.483  12.774
91430W        W56657  22.000   8.420  14.007
91431W        W56658  13.309  41.798  11.391
91432W        W56659  17.273   5.997  12.128
91433W        W56660  11.674   7.944   3.078
91434W        W56661   8.870  16.893  13.023
91435W        W56662   4.696  23.905  12.538
91436W        W56663   6.704  30.724  11.968
91437W        W56664  27.777  17.719  11.131
91438W        W56665  29.084  30.479   2.912
91439W        W56666  34.939  21.132  10.306
91440W        W56667  27.867  15.922  14.938
91441W        W56668  28.746  30.925  14.924
91442W        W56669  20.615  26.222   5.048
91443W        W56670   4.651  35.516   0.053
91444W        W56671  16.861  29.432  14.681
91445W        W56672  27.883  25.249   4.140
91446W        W56673  44.884  30.352  11.593
91447W        W56674  19.101  38.365  12.996
91448W        W56675  35.906   9.349  13.936
91449W        W56676  44.915   6.200  13.616
91450W        W56677  26.729  11.776   0.481
91451W        W56678   9.806   4.331   0.874
91452W        W56679  16.584  37.779   2.361
91453W        W56680   5.629  19.442  11.729
91454W        W56681  33.152  22.561  13.615
91455W        W56682  35.779  24.252  13.529
91456W        W56683  23.554  41.290  13.854
91457W        W56684  24.668   2.706  14.418
91458W        W56685  33.083  13.361   2.782
91459W        W56686   3.821  34.207   1.262
91460W        W56687  19.522  37.359   1.831
91461W        W56688  24.745   4.315  11.027
91462W        W56689  29.260  30.877  14.836
91463W        W56690  21.951  29.982  12.846
91464W        W56691  31.490   3.172   3.196
91465W        W56692  21.042  22.114   3.818
91466W        W56693  15.098   0.907  12.360
91467W        W56694  22.236  24.916  10.705
91468W        W56695  35.010  42.062   3.031
91469W        W56696  13.611   5.275  11.514
91470W        W56697  38.355  37.815  10.897
91471W        W56698   5.701  42.239   2.858
91472W        W56699  42.449  20.009   0.503
91473W        W56700  37.456  28.161  14.682
91474W        W56701  18.337   2.295   5.022
91475W        W56702  32.611  36.975   1.914
91476W        W56703  41.444  14.043  14.353
91477W        W56704   9.730   1.693  10.748
91478W        W56705  19.683  28.046  12.508
91479W        W56706   5.036   4.542  14.064
91480W        W56707  43.387  25.147   3.082
91481W        W56708   7.747  33.165   2.368
91482W        W56709  14.748  39.194   4.194
91483W        W56710  35.000   0.982  10.434
91484W        W56711  35.468  13.128   3.651
91485W        W56712  44.625  16.493  10.920
91486W        W56713  22.522   3.734   1.967
91487W        W56714  41.201  16.066  13.333
91488W        W56715  27.642  20.515   2.257
91489W        W56716   1.469  24.683   3.233
91490W        W56717  28.508  13.561  13.489
91491W        W56718  26.235   3.405   0.865
91492W        W56719  35.543   0.983   1.540
91493W        W56720  33.109   3.875   1.259
91494W        W56721  39.517  27.665  12.966
91495W        W56722  33.200  10.641   2.668
91496W        W56723  16.541  10.013  13.154
91497W        W56724  36.014  15.263  10.991
91498W        W56725  16.661  12.117  11.694
91499W        W56726  32.220  15.554   1.392
91500W        W56727  28.780  31.872   0.978
91501W        W56728  29.946  32.119  11.591
91502W        W56729  29.978  20.258   3.430
91503W        W56730  14.164  26.959   2.754
91504W        W56731  28.475  39.342   1.831
91505W        W56732  32.125  13.035  12.872
91506W        W56733  29.051  11.411  14.867
91507W        W56734  43.744   4.622  10.489
91508W        W56735  40.984  13.773  14.444
91509W        W56736   4.376  34.124  12.062
91510W        W56737  32.788  20.982  14.800
91511W        W56738  13.145  19.425  14.834
91512W        W56739   3.714   3.702   0.534
91513W        W56740  16.791  33.490   3.343
91514W        W56741  35.367   7.042  14.092
91515W        W56742  23.157  34.391   2.413
91516W        W56743  38.129   1.407  15.000
91517W        W56744   7.042  11.269  11.898
91518W        W56745  12.220  29.689  14.910
91519W        W56746  35.851  40.018  13.511
91520W        W56747  38.088  39.177  11.034
91521W        W56748  32.836   5.443   3.811
91522W        W56749   3.853   8.643  13.951
91523W        W56750  40.512   8.333   2.196
91524W        W56751  30.117  29.569   2.124
91525W        W56752  41.089  34.956   0.810
91526W        W56753  23.652  15.667   4.886
91527W        W56754  33.865  33.834  14.915
91528W        W56755  21.047  22.352   2.572
91529W        W56756   5.952  21.995   3.671
91530W        W56757   8.945   0.747  11.539
91531W        W56758   1.462   5.433  13.578
91532W        W56759   0.766  40.702   3.778
91533W        W56760  12.065  27.702   1.943
91534W        W56761  39.471  22.208  13.308
91535W        W56762   8.005  10.056   1.436
91536W        W56763  28.918  33.909   4.238
91537W        W56764   7.990  19.625   3.856
91538W        W56765  43.810   0.562   2.830
91539W        W56766  30.366  20.288  11.645
91540W        W56767  39.916  22.624  10.785
91541W        W56768  42.214  14.044   0.008
91542W        W56769  26.577   6.432  14.943
91543W        W56770  14.620  36.555   1.421
91544W        W56771  17.294  14.606   4.920
91545W        W56772   5.089   8.682   2.495
91546W        W56773   5.969   8.224  14.564
91547W        W56774  37.897  42.224  11.897
91548W        W56775  20.084  39.383   1.377
91549W        W56776   2.266   9.785  14.844
91550W        W56777  14.773   9.033  12.032
91551W        W56778  35.954  17.483  13.841
91552W        W56779   7.296   9.457   3.578
91553W        W56780  10.422  37.793  12.060
91554W        W56781  24.203  24.206  14.689
91555W        W56782  40.315  18.053  12.184
91556W        W56783  11.623  32.033  12.204
91557W        W56784  23.365  27.256   0.068
91558W        W56785  43.586   5.519  11.950
91559W        W56786  30.566  35.314   3.811
91560W        W56787  16.068   1.269   4.365
91561W        W56788   2.755  13.189  14.823
91562W        W56789  19.639  27.077   2.576
91563W        W56790  22.631  32.340  11.516
91564W        W56791  43.002  30.967  12.520
91565W        W56792   6.433  15.657  14.899
91566W        W56793   0.957  28.004  13.726
91567W        W56794  39.810  27.386  11.967
91568W        W56795   0.018  25.286   3.157
91569W        W56796  31.157  13.183  12.351
91570W        W56797   3.718  39.734  11.194
91571W        W56798  13.849  11.618   2.240
91572W        W56799  11.178  21.354   3.594
91573W        W56800   6.456   1.423   4.703
91574W        W56801  11.864  23.509  13.431
91575W        W56802  11.342  36.605   1.765
91576W        W56803  33.508  12.882  11.244
91577W        W56804   7.949  37.946  13.078
91578W        W56805  22.451  29.097   4.007
91579W        W56806  27.139   2.975  11.443
91580W        W56807   9.901  34.587   3.272
91581W        W56808  33.593  12.666   4.984
91582W        W56809  29.117  28.202  10.713
91583W        W56810  33.458  43.931   1.392
91584W        W56811  40.765  27.433   4.144
91585W        W56812  12.754  11.160  14.400
91586W        W56813  37.013  35.324  12.038
91587W        W56814  22.039   8.520   4.570
91588W        W56815  42.500  14.972   5.013
91589W        W56816  42.704   7.742  12.747
91590W        W56817   7.771   4.461   0.353
91591W        W56818  24.261  19.257  14.007
91592W        W56819  40.710  19.537   4.071
91593W        W56820  12.843   1.578   3.576
91594W        W56821  37.507  16.798  11.465
91595W        W56822  22.087  19.996  12.996
91596W        W56823  24.166   3.465   1.382
91597W        W56824  28.929  22.177   0.303
91598W        W56825  12.489  24.070   4.487
91599W        W56826  12.768  38.454  12.954
91600W        W56827  30.389   5.029  12.513
91601W        W56828   5.230  44.846  12.993
91602W        W56829  23.218  36.392   0.863
91603W        W56830  42.689  42.911  14.868
91604W        W56831   3.875  27.253  11.599
91605W        W56832  22.398   3.317   3.298
91606W        W56833  33.445  42.383   4.884
91607W        W56834  23.635  29.171  11.653
91608W        W56835  27.220  28.731  10.653
91609W        W56836  36.084   4.623   2.132
91610W        W56837  33.273   7.452   1.432
91611W        W56838  33.089  12.175   2.862
91612W        W56839   7.724  19.653   1.561
91613W        W56840   9.392   5.722  14.753
91614W        W56841  27.951  44.951   4.512
91615W        W56842  41.953  13.672   1.418
91616W        W56843  38.891  34.848   2.375
91617W        W56844   5.238   3.238  11.688
91618W        W56845  28.464  18.539  14.371
91619W        W56846  25.394   1.206   2.081
91620W        W56847   0.000   2.562   0.134
91621W        W56848  36.030  34.557   3.687
91622W        W56849   1.379  14.195   1.780
91623W        W56850   8.841   7.172  12.804
91624W        W56851  29.602  20.485  13.441
91625W        W56852  33.464  28.781   0.974
91626W        W56853   2.455  19.269   9.455
91627W        W56854  25.590  28.198   2.696
91628W        W56855  35.251   1.437   0.901
91629W        W56856  19.180   9.625  11.549
91630W        W56857  36.850  23.717  11.177
91631W        W56858  41.467  26.633  13.991
91632W        W56859  21.309  32.869   5.074
91633W        W56860   9.133  20.590   2.756
91634W        W56861  39.986   6.863  14.341
91635W        W56862  42.893   8.581   0.519
91636W        W56863   6.879  41.812   3.552
91637W        W56864   9.117   7.731  13.014
91638W        W56865   2.377  18.689   3.383
91639W        W56866   3.256   3.719  14.784
91640W        W56867   6.954   1.823  14.472
91641W        W56868  41.617   5.183  11.150
91642W        W56869  22.854  44.349   4.151
91643W        W56870  31.587   2.371   1.843
91644W        W56871  17.403   5.814  14.312
91645W        W56872  34.174   2.376   1.854
91646W        W56873  21.803  36.407   3.659
91647W        W56874  33.059  12.575  14.364
91648W        W56875  19.506  23.002  11.344
91649W        W56876  10.362  11.234  13.361
91650W        W56877   3.208  40.269   3.647
91651W        W56878  23.160  24.612   4.076
91652W        W56879  43.488  34.169   3.193
91653W        W56880   5.652  27.681   3.747
91654W        W56881  12.354  35.114   1.384
91655W        W56882  43.752  34.306  14.902
91656W        W56883   7.658   2.641   4.996
91657W        W56884   0.862   3.440  11.200
91658W        W56885  13.519  34.132  14.829
91659W        W56886  10.709  13.677  11.189
91660W        W56887  37.399  32.450   2.176
91661W        W56888  27.754  41.017  12.588
91662W        W56889   2.753  44.630   4.056
91663W        W56890  40.372  10.342   1.350
91664W        W56891  32.275  21.568   2.021
91665W        W56892   3.903  12.566   3.491
91666W        W56893   3.567  39.412   5.010
91667W        W56894   6.176   1.092  14.379
91668W        W56895   2.986  30.391   3.745
91669W        W56896   6.921  23.795  11.599
91670W        W56897  13.548   4.612  11.942
91671W        W56898  29.040  24.757   3.557
91672W        W56899  32.558  11.901   3.622
91673W        W56900  32.422  41.320   0.772
91674W        W56901   1.934   7.266  13.610
91675W        W56902  20.572  32.845  13.837
91676W        W56903  12.582  40.731  10.762
91677W        W56904   3.826  39.517   2.910
91678W        W56905   2.308  10.154  12.646
91679W        W56906   6.446  10.902  11.719
91680W        W56907  20.499  11.332  12.871
91681W        W56908  24.031  15.779   4.116
91682W        W56909  11.414  27.461  12.431
91683W        W56910  10.767  33.933   2.722
91684W        W56911  15.748  42.352   0.315
91685W        W56912  30.644  19.607   3.543
91686W        W56913  41.532  24.649   2.800
91687W        W56914  30.212   3.393  14.514
91688W        W56915  21.815  20.987  10.732
91689W        W56916   5.125  11.858   2.681
91690W        W56917  36.843   7.167   0.330
91691W        W56918  24.061   7.574   0.173
91692W        W56919  14.439  37.214  10.256
91693W        W56920  31.987   6.579  11.075
91694W        W56921  30.580  23.752  12.438
91695W        W56922   8.919   4.363   9.994
91696W        W56923   3.904  21.681  11.615
91697W        W56924  15.760  11.423   4.528
91698W        W56925  17.737  20.744  13.969
91699W        W56926   9.686  41.479   2.296
91700W        W56927  32.938  14.601  10.285
91701W        W56928   3.060  14.303  14.818
91702W        W56929  13.434  27.517   2.265
91703W        W56930  41.256  33.738   0.576
91704W        W56931  16.233  25.147   5.131
91705W        W56932  31.648   7.578   0.486
91706W        W56933  26.564  38.511  11.631
91707W        W56934  38.871   3.942   3.634
91708W        W56935  43.601  10.423   0.912
91709W        W56936  37.567  42.364   0.950
91710W        W56937  32.135   6.738  14.398
91711W        W56938  11.009  44.022  12.057
91712W        W56939   6.893  42.308  11.431
91713W        W56940  34.907  42.286  10.641
91714W        W56941  35.635  13.320  12.579
91715W        W56942  15.652  32.864  13.561
91716W        W56943  36.892  35.427   0.514
91717W        W56944  24.957  17.172   1.012
91718W        W56945   9.913  35.043  12.549
91719W        W56946  13.909  15.327  11.518
91720W        W56947  13.080  38.063   3.583
91721W        W56948  41.610  16.119  12.536
91722W        W56949   7.423  12.922   2.109
91723W        W56950   9.809  39.159   0.836
91724W        W56951  32.069  29.521   4.092
91725W        W56952  38.463   9.313   2.574
91726W        W56953  16.989  21.287  11.570
91727W        W56954  27.355  22.998   3.835
91728W        W56955   1.506  20.504   5.011
91729W        W56956  36.440  11.316   4.276
91730W        W56957  38.282  27.777  12.463
91731W        W56958  20.494  18.235   1.783
91732W        W56959  12.319   0.038   0.838
91733W        W56960  18.298  33.086   4.380
91734W        W56961   1.676  13.988  11.550
91735W        W56962  14.878   4.478   2.904
91736W        W56963  12.578  15.679  11.484
91737W        W56964  12.874  26.179   0.364
91738W        W56965  26.736  36.914  14.486
91739W        W56966  20.466  35.406   1.752
91740W        W56967  22.978  39.277  14.862
91741W        W56968  14.976   5.249   0.417
91742W        W56969  22.275  27.734   4.579
91743W        W56970  11.366  16.568  14.181
91744W        W56971  33.249  21.532   0.350
91745W        W56972  44.781  35.514  12.631
91746W        W56973   1.409  32.884   2.327
91747W        W56974   4.249  14.562  10.815
91748W        W56975   2.685   9.403   1.873
91749W        W56976  19.896  26.258  12.956
91750W        W56977  15.615  30.953   3.037
91751W        W56978  16.754  29.146   4.086
91752W        W56979  14.095  41.958   3.272
91753W        W56980  11.885  19.702   3.759
91754W        W56981  17.848  18.547   2.327
91755W        W56982  29.554  35.658  13.283
91756W        W56983  19.622  21.095  13.957
91757W        W56984  16.910  19.134  12.051
91758W        W56985  42.866  21.118  10.748
91759W        W56986  10.483  10.119  10.337
91760W        W56987  30.076  12.076   1.350
91761W        W56988  11.879  41.430  11.245
91762W        W56989  31.602  28.772   4.133
91763W        W56990   3.794  14.745  14.827
91764W        W56991  39.976   2.978  12.455
91765W        W56992   9.971  27.131   4.509
91766W        W56993   5.890  18.584   2.121
91767W        W56994  13.968  32.220  11.612
91768W        W56995   3.377  12.437  12.559
91769W        W56996  19.282  18.589   2.675
91770W        W56997  29.643  19.401  11.998
91771W        W56998  34.165  15.127   3.617
91772W        W56999  44.580  35.364   4.030
91773W        W57000  10.579  31.354   3.759
91774W        W57001  19.574  44.029  14.469
91775W        W57002  31.794   9.247  14.323
91776W        W57003  35.214  35.983   4.303
91777W        W57004  32.029   4.427  13.833
91778W        W57005   0.411  19.543   1.706
91779W        W57006  33.679  36.702   3.659
91780W        W57007   3.938  36.352   1.170
91781W        W57008   6.799  37.042   4.177
91782W        W57009  28.494   0.764   0.366
91783W        W57010  35.048  12.526   0.046
91784W        W57011  36.620  11.667   1.926
91785W        W57012  39.885  18.215  14.568
91786W        W57013  32.403  10.089   1.687
91787W        W57014  30.476  29.392   5.341
91788W        W57015  35.984  30.101   0.179
91789W        W57016  10.924  12.639   0.805
91790W        W57017  21.958  16.493   1.250
91791W        W57018   2.870  42.019  10.753
91792W        W57019  44.528  33.721  10.793
91793W        W57020  20.267  27.963   1.752
91794W        W57021   7.942  20.070  12.441
91795W        W57022  40.940  19.101   1.176
91796W        W57023  20.754  34.111   0.442
91797W        W57024  27.325  32.978  13.950
91798W        W57025  43.869  43.555   0.711
91799W        W57026   0.134  17.278   0.350
91800W        W57027   6.814   1.976   4.177
91801W        W57028  14.734  12.691   1.189
91802W        W57029  26.784  26.414   2.655
91803W        W57030  19.585  37.964   4.790
91804W        W57031  10.983  13.206   3.204
91805W        W57032  18.033   1.815  13.335
91806W        W57033  41.953   7.711   0.489
91807W        W57034  21.788   6.455   4.182
91808W        W57035   1.699   2.799   4.559
91809W        W57036  32.399   7.444   0.172
91810W        W57037   1.334   3.326   0.651
91811W        W57038  14.162  34.359  12.112
91812W        W57039  13.526  44.635   2.945
91813W        W57040   6.606  24.508   0.197
91814W        W57041  25.994  31.646  12.032
91815W        W57042   9.488   6.727   1.377
91816W        W57043   9.768  44.940  10.445
91817W        W57044  38.534  35.332   4.583
91818W        W57045   4.234   0.305  13.056
91819W        W57046  11.467  35.437   3.213
91820W        W57047  44.351  28.779  11.133
91821W        W57048  27.954  19.558   1.353
91822W        W57049  12.557  35.563  10.665
91823W        W57050  16.804  16.868   3.468
91824W        W57051  29.997  10.804  10.530
91825W        W57052  41.728   1.964   0.710
91826W        W57053  11.732  17.611  14.813
91827W        W57054  20.223  12.508   2.300
91828W        W57055   9.293  16.059   3.382
91829W        W57056  29.091  43.579  11.649
91830W        W57057  15.129  21.593   4.697
91831W        W57058  17.735  32.846  14.823
91832W        W57059  27.423   9.423  14.937
91833W        W57060  38.502  29.524   2.646
91834W        W57061  34.357  42.691   4.093
91835W        W57062  40.018  40.851  12.908
91836W        W57063  40.449  22.568  10.765
91837W        W57064  16.614  21.103  10.491
91838W        W57065  44.597   4.780   3.245
91839W        W57066  37.010   8.201   0.039
91840W        W57067  21.834  14.553   2.604
91841W        W57068  43.740  12.076  11.971
91842W        W57069   5.916  38.886   0.775
91843W        W57070  29.916  34.649  14.087
91844W        W57071  16.017  40.428  13.312
91845W        W57072   1.564  17.793  10.750
91846W        W57073   7.897  35.800  14.995
91847W        W57074   3.782  26.083  11.979
91848W        W57075  25.510  30.107  11.688
91849W        W57076  38.650  28.973  11.049
91850W        W57077  41.399  24.657  13.934
91851W        W57078  14.339   5.329  12.479
91852W        W57079   4.851  11.342   1.879
91853W        W57080  19.069   6.605   4.124
91854W        W57081  13.131  37.513   2.336
91855W        W57082  30.464  15.740  11.749
91856W        W57083  42.068  44.322   1.211
91857W        W57084  33.350  10.352  14.755
91858W        W57085  15.767  42.960  12.132
91859W        W57086   2.162  18.099   3.161
91860W        W57087  15.236  23.779   4.075
91861W        W57088  40.928  10.325  14.011
91862W        W57089  31.576   8.693   2.346
91863W        W57090  13.811   7.758  13.959
91864W        W57091  31.849  33.128   4.852
91865W        W57092   6.582   8.188   4.165
91866W        W57093  39.575  36.138   2.270
91867W        W57094  31.125  23.171   4.376
91868W        W57095   5.242   0.004  13.786
91869W        W57096   8.396  32.462  11.610
91870W        W57097   3.136  22.681   2.836
91871W        W57098  15.269   6.419  13.283
91872W        W57099  24.012  32.111  11.661
91873W        W57100  29.909  41.576   4.160
91874W        W57101  41.896  13.920   2.262
91875W        W57102  12.273  16.260   1.796
91876W        W57103  41.834  40.796   1.310
91877W        W57104  29.973  40.615   1.315
91878W        W57105   0.534  12.703  12.924
91879W        W57106   4.302  24.800  13.923
91880W        W57107  41.939  16.639  12.097
91881W        W57108  32.215  17.327   2.348
91882W        W57109  10.503  37.564  13.038
91883W        W57110  18.707  12.402  12.925
91884W        W57111  14.189  33.919   2.668
91885W        W57112  10.656   4.454   3.794
91886W        W57113  31.112  24.205   2.633
91887W        W57114  12.799  38.064   4.094
91888W        W57115   3.670  31.519  10.708
91889W        W57116  17.538  11.868  13.042
91890W        W57117  22.555   6.644  14.004
91891W        W57118  23.601   6.160  14.121
91892W        W57119   9.998  43.892  10.706
91893W        W57120  28.815  27.449   1.052
91894W        W57121  20.540  19.517  11.180
91895W        W57122   1.085  34.420  10.661
91896W        W57123   5.139  18.133  11.999
91897W        W57124  15.205  38.597   1.858
91898W        W57125  12.315  26.023   3.669
91899W        W57126  17.245   3.409  13.061
91900W        W57127  22.482  11.760  13.812
91901W        W57128  17.239  41.645  14.426
91902W        W57129   7.840   7.756  11.663
91903W        W57130  16.832  17.487   4.500
91904W        W57131  36.068  40.781  12.926
91905W        W57132   2.284  40.574  12.523
91906W        W57133  15.055  24.723  14.824
91907W        W57134  17.868  25.143  13.839
91908W        W57135   3.193  40.637   2.776
91909W        W57136   1.526  30.148  12.734
91910W        W57137  43.772  25.991   2.920
91911W        W57138  30.111   4.818  10.745
91912W        W57139  17.190   6.293   3.746
91913W        W57140   7.429  35.605  11.181
91914W        W57141   6.734  32.433   0.993
91915W        W57142  20.015  23.986   0.627
91916W        W57143  21.179  23.735  13.858
91917W        W57144  27.947  10.673   3.792
91918W        W57145  30.312  40.519  11.063
91919W        W57146   9.123  13.824  13.850
91920W        W57147  22.044   5.413  14.724
91921W        W57148   3.243  15.525   0.874
91922W        W57149  37.395  12.199   0.373
91923W        W57150  17.036  42.688   4.862
91924W        W57151   4.676  37.924  14.933
91925W        W57152  16.604  34.449   0.774
91926W        W57153  34.205  17.124   2.125
91927W        W57154  43.829  34.605  12.416
91928W        W57155   2.824   0.301  10.250
91929W        W57156  21.811  36.864  14.938
91930W        W57157   1.178   8.974   3.955
91931W        W57158  15.741  21.006  10.907
91932W        W57159   4.476  29.414   2.833
91933W        W57160  14.193  16.192   0.549
91934W        W57161  18.041  21.085   0.912
91935W        W57162  40.544  38.806  10.476
91936W        W57163  33.651  44.488   0.351
91937W        W57164  39.235   9.895  12.964
91938W        W57165   4.456  26.889   2.762
91939W        W57166  15.755  34.107  10.597
91940W        W57167  17.257   8.634  14.286
91941W        W57168   7.864  40.542   1.119
91942W        W57169  24.887   4.609   3.341
91943W        W57170  30.502   5.885  12.205
91944W        W57171  27.410  24.140   3.418
91945W        W57172  26.258  23.279  11.531
91946W        W57173  30.141  30.968   1.725
91947W        W57174  24.891  10.446  13.294
91948W        W57175  10.303  41.179  11.083
91949W        W57176  41.518  38.533  10.632
91950W        W57177   4.505  44.754  14.968
91951W        W57178  16.038  24.394  10.758
91952W        W57179  44.274   9.902  13.410
91953W        W57180  43.803  11.740   0.252
91954W        W57181  33.837  29.783  12.704
91955W        W57182  10.590  36.389   1.246
91956W        W57183  22.739  29.511   4.093
91957W        W57184   6.856   4.680  12.049
91958W        W57185  20.794  15.339   4.149
91959W        W57186   1.532  15.266   4.772
91960W        W57187  33.103  19.401   4.151
91961W        W57188  19.531  32.013  10.740
91962W        W57189  42.617  24.993  11.943
91963W        W57190  38.565  40.548   0.282
91964W        W57191  21.280  16.577  10.750
91965W        W57192  42.043  35.786  14.391
91966W        W57193  42.753   0.504   4.213
91967W        W57194  37.839  38.370  13.895
91968W        W57195  29.121  19.706   1.983
91969W        W57196  32.438  34.816  14.884
91970W        W57197  27.002  25.899   0.287
91971W        W57198  33.448   1.911   5.054
91972W        W57199  12.035  21.705  12.276
91973W        W57200   2.270  17.462   4.448
91974W        W57201  43.019  37.487   0.130
91975W        W57202  16.639  35.584   2.360
91976W        W57203   6.892  36.992  10.781
91977W        W57204  19.553  21.659   1.932
91978W        W57205  20.136  42.582   4.957
91979W        W57206  37.918  21.644   3.200
91980W        W57207  21.418  43.319   1.792
91981W        W57208   4.403  14.442  11.631
91982W        W57209   8.276  40.582  10.723
91983W        W57210  30.658   1.305   4.541
91984W        W57211   9.176  20.878  12.008
91985W        W57212  14.051  16.868  14.962
91986W        W57213   2.994  32.575  12.571
91987W        W57214  17.364  22.187   2.574
91988W        W57215   4.496  24.501  13.462
91989W        W57216  25.536  31.401   1.757
91990W        W57217  23.553  41.354   4.135
91991W        W57218  29.086   2.858  11.642
91992W        W57219  14.619  29.669  11.677
91993W        W57220  42.038  36.515   2.813
91994W        W57221  12.699  29.632   3.716
91995W        W57222  40.866  27.749  11.144
91996W        W57223  23.637  17.643   4.152
91997W        W57224  16.790  44.990  12.587
91998W        W57225  44.602   3.378  14.876
91999W        W57226   9.195   7.930   3.816
92000W        W57227  41.195   9.193  13.913
92001W        W57228  42.882  14.544   1.701
92002W        W57229  28.868  37.631  12.539
92003W        W57230  14.128  18.280   1.678
92004W        W57231  15.563   7.359  12.399
92005W        W57232  16.801   3.030  13.456
92006W        W57233  35.209  43.785  10.782
92007W        W57234  17.132  30.984   3.834
92008W        W57235  19.515  27.082   3.080
92009W        W57236  34.156  14.697   4.940
92010W        W57237  40.965  39.682   2.850
92011W        W57238   6.291   1.744   5.060
92012W        W57239   0.508  13.847   2.781
92013W        W57240  29.444  20.027   2.308
92014W        W57241  39.526  16.878   0.844
92015W        W57242  40.354  16.036  13.964
92016W        W57243  25.211  11.606   0.103
92017W        W57244   4.929  42.194  13.470
92018W        W57245  38.770  27.669   0.190
92019W        W57246  19.437  22.776  13.388
92020W        W57247   6.529   6.838  13.489
92021W        W57248  36.401  27.008   0.741
92022W        W57249   7.110  17.399  12.951
92023W        W57250   2.302   4.698  14.537
92024W        W57251  13.698  12.166   0.953
92025W        W57252   6.008  31.417   1.800
92026W        W57253  36.871  14.566   5.154
92027W        W57254   6.592  43.286  12.744
92028W        W57255  16.524  17.387   2.162
92029W        W57256  39.619  44.553   3.226
92030W        W57257  12.607  34.590   5.559
92031W        W57258  14.286   4.452   2.718
92032W        W57259  41.495   0.178  13.152
92033W        W57260  20.998  31.884  10.706
92034W        W57261  14.953   8.658   3.156
92035W        W57262  35.975  34.453  12.597
92036W        W57263  20.080   9.301  13.539
92037W        W57264   8.668  12.866   3.254
92038W        W57265  22.016  29.744   2.811
92039W        W57266  27.855  13.281  10.232
92040W        W57267  13.245  24.575  11.431
92041W        W57268  32.657  33.493   4.692
92042W        W57269  27.518  12.604  10.650
92043W        W57270  20.741  29.681  13.344
92044W        W57271  26.590  13.676  11.714
92045W        W57272  37.072   1.246  13.463
92046W        W57273   7.965  21.513  11.962
92047W        W57274  27.459   1.970   2.756
92048W        W57275  38.868   6.408  12.986
92049W        W57276  11.187  38.969  13.749
92050W        W57277   1.269  27.901   4.085
92051W        W57278  23.714  41.404   3.611
92052W        W57279  20.141   0.476   4.152
92053W        W57280  12.903  20.548   3.215
92054W        W57281  43.924  36.533   4.349
92055W        W57282   6.164  40.286   3.688
92056W        W57283  41.948  24.006   3.629
92057W        W57284  27.176  21.965   1.604
92058W        W57285  32.772   4.357  11.144
92059W        W57286   6.546  26.099   3.747
92060W        W57287  18.099  19.747   3.699
92061W        W57288  25.066  42.743   5.141
92062W        W57289  41.883  27.091  12.858
92063W        W57290   9.268  33.024   2.673
92064W        W57291  26.531   2.305  13.410
92065W        W57292  32.117  34.989  13.476
92066W        W57293  10.538   0.916  14.639
92067W        W57294  25.107  18.601   2.925
92068W        W57295  44.394  38.355  11.570
92069W        W57296  28.492  16.031  11.525
92070W        W57297  41.063  17.893   0.588
92071W        W57298   7.398  30.142   1.316
92072W        W57299  21.177   7.876  10.576
92073W        W57300  35.183   7.693   3.264
92074W        W57301  15.105  39.806   3.091
92075W        W57302   2.229   3.119  11.941
92076W        W57303  41.890  33.322   3.773
92077W        W57304  19.558  21.740  14.627
92078W        W57305  18.635  38.452  11.155
92079W        W57306  44.157  20.615  14.435
92080W        W57307  38.358  21.973   3.825
92081W        W57308  44.449   9.598   3.721
92082W        W57309  26.080   7.402  12.164
92083W        W57310  26.120  44.846   3.620
92084W        W57311  38.995  14.789  13.069
92085W        W57312   9.911  40.570  11.505
92086W        W57313  32.932  24.096  10.671
92087W        W57314  16.518  34.544  13.508
92088W        W57315  33.433  26.943  13.398
92089W        W57316  27.235  32.145   1.949
92090W        W57317  23.767  29.150  10.782
92091W        W57318  30.197  11.332   0.680
92092W        W57319  39.709  22.200   2.287
92093W        W57320  28.654   0.297   0.206
92094W        W57321  39.614  43.349   2.295
92095W        W57322   2.854  22.146  13.867
92096W        W57323   7.955  14.614   0.404
92097W        W57324  16.646   7.318  12.237
92098W        W57325  43.291  32.911   1.279
92099W        W57326  41.485  16.600   1.948
92100W        W57327  21.463  21.245   4.210
92101W        W57328  31.330  17.707  12.505
92102W        W57329  10.093  37.110  14.694
92103W        W57330  21.092  16.601   1.038
92104W        W57331  31.417  23.501  13.576
92105W        W57332   4.434  12.600  10.667
92106W        W57333  41.399  26.421  11.212
92107W        W57334  12.048  21.741   2.470
92108W        W57335  28.048  35.954   4.162
92109W        W57336  18.142  31.564   1.415
92110W        W57337  24.167  39.577   2.681
92111W        W57338  17.914   6.518   1.886
92112W        W57339   6.923   8.160  14.163
92113W        W57340   2.021  37.326  14.479
92114W        W57341   8.793  13.055   1.065
92115W        W57342  37.527  16.564   0.892
92116W        W57343  27.186  13.083  13.875
92117W        W57344  31.020  22.533   0.028
92118W        W57345  18.551   2.361   1.771
92119W        W57346  12.263  25.060  10.905
92120W        W57347  10.812  29.184   1.892
92121W        W57348  18.362  36.659   3.642
92122W        W57349   1.451  29.072  13.071
92123W        W57350  42.547  21.145  13.542
92124W        W57351   9.296  15.049   2.763
92125W        W57352  39.287  37.939   4.824
92126W        W57353  26.170   1.434  11.859
92127W        W57354  29.498   0.751  10.683
92128W        W57355   3.149  17.626  14.691
92129W        W57356   0.354  18.251   0.022
92130W        W57357  38.027  39.153   2.745
92131W        W57358  22.909  27.711  14.266
92132W        W57359  29.944  32.377  12.043
92133W        W57360   9.638  16.998  14.560
92134W        W57361  11.760  12.810   0.542
92135W        W57362  36.495  22.539  14.904
92136W        W57363  11.127  41.592   3.587
92137W        W57364   9.622  26.124   3.064
92138W        W57365  24.891  19.709   2.157
92139W        W57366  28.403   0.778  10.545
92140W        W57367  31.041  39.351   1.269
92141W        W57368  23.464  43.200  11.490
92142W        W57369  44.028  32.393   4.613
92143W        W57370  14.244  19.723   2.796
92144W        W57371  23.513  21.055  11.377
92145W        W57372  17.477  40.510  11.656
92146W        W57373  20.115   1.360   0.979
92147W        W57374  20.104  12.118  12.115
92148W        W57375  20.103  29.348   3.353
92149W        W57376   2.516  33.905  13.986
92150W        W57377  21.012   7.536   1.437
92151W        W57378  37.318  13.701   0.008
92152W        W57379  21.687  25.015   2.887
92153W        W57380   0.390   6.712   3.122
92154W        W57381  20.655  38.045   2.896
92155W        W57382  20.730  37.463   4.312
92156W        W57383  13.879  23.872  14.693
92157W        W57384  34.043  27.987   1.600
92158W        W57385   7.378   3.746  14.488
92159W        W57386   9.733  38.613   2.842
92160W        W57387  37.461  28.063  14.191
92161W        W57388  12.584  24.098  13.372
92162W        W57389  11.930  26.502   4.252
92163W        W57390  29.055  41.271   0.771
92164W        W57391  37.617   3.057   0.803
92165W        W57392  23.554  38.142   0.479
92166W        W57393   1.352  16.674  12.669
92167W        W57394  10.340   3.028   3.208
92168W        W57395   4.274   9.223   2.697
92169W        W57396  42.291  20.569  11.663
92170W        W57397   0.248  39.049  14.082
92171W        W57398  30.705  35.375  11.433
92172W        W57399  34.349  33.032   0.346
92173W        W57400  36.416  16.740  13.462
92174W        W57401  18.412   0.523   3.800
92175W        W57402  29.422  35.677   4.627
92176W        W57403  33.886  16.492  14.213
92177W        W57404  30.566  11.292   4.954
92178W        W57405   7.275   9.074  14.945
92179W        W57406  23.573  18.323  14.993
92180W        W57407  36.076  13.289  12.314
92181W        W57408  30.451   9.704  13.442
92182W        W57409   0.037  43.469   2.109
92183W        W57410  44.506  27.103   2.725
92184W        W57411  27.188  32.667  14.468
92185W        W57412  25.092  23.227  14.278
92186W        W57413  32.491   7.433   2.616
92187W        W57414  13.792  16.186   4.057
92188W        W57415   2.398  41.933  10.906
92189W        W57416  44.998  28.130   1.238
92190W        W57417  29.146  14.857   2.859
92191W        W57418  19.835  21.476   2.689
92192W        W57419  24.288  19.269  10.710
92193W        W57420  37.400   5.715   0.578
92194W        W57421  27.932  38.891  14.856
92195W        W57422  43.975  22.525  10.591
92196W        W57423  18.978  40.335   1.453
92197W        W57424  15.627  20.215  14.976
92198W        W57425  12.177  30.732  13.303
92199W        W57426  43.895   7.268  12.211
92200W        W57427  25.451  41.881  13.476
92201W        W57428  20.186  21.757  11.446
92202W        W57429  39.802  32.352   2.512
92203W        W57430  16.944  26.023   3.899
92204W        W57431   3.917  14.721  10.465
92205W        W57432  26.678   3.784  12.599
92206W        W57433   2.883   9.687   1.023
92207W        W57434  43.066  13.606   2.735
92208W        W57435  25.029  38.287   3.125
92209W        W57436  19.199  15.995  10.745
92210W        W57437  42.001  31.355  14.349
92211W        W57438   7.527  17.970  13.474
92212W        W57439  27.230  28.853   0.308
92213W        W57440   3.449  15.298   4.681
92214W        W57441  25.376  32.735   2.243
92215W        W57442   0.304   9.987  12.636
92216W        W57443  43.425  30.170  11.745
92217W        W57444   4.750  39.733  11.927
92218W        W57445  35.877  19.974   2.835
92219W        W57446  20.159  44.564   4.243
92220W        W57447  20.843  19.431   0.390
92221W        W57448   1.419   4.075  11.741
92222W        W57449  17.095   2.039  10.269
92223W        W57450  23.273  24.992  13.008
92224W        W57451   8.903   0.974  10.718
92225W        W57452  28.151   5.443  11.598
92226W        W57453  21.082  41.889  14.090
92227W        W57454   6.908  42.804   2.739
92228W        W57455   6.142  13.187  12.365
92229W        W57456   0.042  35.943  13.890
92230W        W57457  41.209   7.609  14.014
92231W        W57458  23.499  36.568   4.585
92232W        W57459  35.461  10.175  11.063
92233W        W57460  19.339  37.364   1.336
92234W        W57461   1.839  26.899  13.930
92235W        W57462  11.582  23.027  13.391
92236W        W57463   7.779  36.208  10.776
92237W        W57464   4.378  17.559  13.743
92238W        W57465   8.419   0.687  14.029
92239W        W57466  34.462  30.534   1.934
92240W        W57467   4.808  37.744  13.095
92241W        W57468  35.359  23.230   0.261
92242W        W57469  26.059   6.502   2.988
92243W        W57470   8.390  26.553   1.470
92244W        W57471  33.065   4.197   0.875
92245W        W57472   1.711   1.906   1.949
92246W        W57473  33.528  27.509  11.666
92247W        W57474  18.733  42.961  11.159
92248W        W57475  38.578  27.050   3.144
92249W        W57476  33.076  37.330  13.165
92250W        W57477   4.147  26.512  13.211
92251W        W57478  33.698  18.707   1.525
92252W        W57479  16.983  30.063   0.648
92253W        W57480  36.917  21.786   3.238
92254W        W57481  44.657  39.171  13.435
92255W        W57482  10.852   8.351   4.437
92256W        W57483  10.921  13.336  14.873
92257W        W57484  10.948  11.447  12.503
92258W        W57485   8.475  30.998   1.282
92259W        W57486  21.554  28.917  11.876
92260W        W57487  28.609  34.071  14.141
92261W        W57488  33.605  34.682   5.363
92262W        W57489  17.803  33.333  13.222
92263W        W57490   7.347  27.975  12.617
92264W        W57491  13.390   8.984  14.306
92265W        W57492  16.211  17.048  14.488
92266W        W57493   6.333  17.275   0.794
92267W        W57494  40.538  43.083   4.968
92268W        W57495  35.842  29.571   5.151
92269W        W57496  38.989   3.858  11.659
92270W        W57497  22.044  21.451   4.815
92271W        W57498  20.497  20.725  12.597
92272W        W57499  35.547  17.508   1.535
92273W        W57500  22.236  43.294   1.454
92274W        W57501   6.768  24.185  13.006
92275W        W57502   6.279  35.624  11.726
92276W        W57503  17.221  11.786   4.517
92277W        W57504  22.507  20.839  14.395
92278W        W57505  17.738  21.211  14.358
92279W        W57506   6.938  21.195   2.998
92280W        W57507  15.422  17.095   4.151
92281W        W57508   7.003   0.060  10.801
92282W        W57509  35.954  31.921   2.226
92283W        W57510  44.928  40.960  10.568
92284W        W57511  23.383  37.103   1.391
92285W        W57512   4.246  21.709  12.942
92286W        W57513  17.407  26.826  12.743
92287W        W57514  38.063  14.621  11.130
92288W        W57515  27.027  26.410   0.351
92289W        W57516   6.456  34.412  11.842
92290W        W57517   2.942   4.434   1.694
92291W        W57518  30.164  25.665  14.706
92292W        W57519  20.445  16.079  12.881
92293W        W57520   9.337  28.858  14.866
92294W        W57521  23.208  31.397  14.412
92295W        W57522  41.428   9.169   0.372
92296W        W57523  24.694  28.660  14.534
92297W        W57524  31.000  26.445  13.061
92298W        W57525  39.886   3.858  11.797
92299W        W57526   8.296  34.676  13.475
92300W        W57527   5.098  24.032   2.703
92301W        W57528  21.227  33.497   2.630
92302W        W57529  42.791   9.816   2.184
92303W        W57530   2.075  16.221   4.043
92304W        W57531  23.132  10.274  10.703
92305W        W57532   2.126  19.956   3.181
92306W        W57533  21.277  26.018  13.907
92307W        W57534  13.317   0.510  12.330
92308W        W57535  11.578   9.245   3.436
92309W        W57536  20.677  14.301  10.755
92310W        W57537   5.359   0.869  14.593
92311W        W57538  21.087  27.176  13.428
92312W        W57539  19.107   9.138  13.647
92313W        W57540  14.724  41.739   4.603
92314W        W57541  42.043  22.447   2.793
92315W        W57542   8.042  34.061  14.356
92316W        W57543  43.388   4.749  13.096
92317W        W57544  39.791  21.337  11.425
92318W        W57545  32.448  32.931  10.684
92319W        W57546  11.679  27.468  11.628
92320W        W57547  26.957   0.113  13.431
92321W        W57548  22.574  10.247   0.507
92322W        W57549  13.200  15.315  11.256
92323W        W57550  20.784  22.542   1.655
92324W        W57551  34.097  11.834   0.781
92325W        W57552  23.513  21.135  12.473
92326W        W57553   9.051  24.603  13.348
92327W        W57554  21.701  41.998   0.808
92328W        W57555   0.463  26.031  10.208
92329W        W57556  21.986   4.505  13.503
92330W        W57557   2.375  29.879  14.336
92331W        W57558  21.240  36.302   0.525
92332W        W57559  31.859   7.846  11.135
92333W        W57560  13.601   9.362  11.996
92334W        W57561  41.017  26.586  13.480
92335W        W57562  23.078  10.087   2.634
92336W        W57563   7.521  30.490  12.543
92337W        W57564  30.954   9.231   1.553
92338W        W57565  36.836  18.318  14.727
92339W        W57566  15.486  44.431  10.951
92340W        W57567  23.614   0.156   1.376
92341W        W57568   0.360  13.906  13.085
92342W        W57569  38.435   6.237  14.341
92343W        W57570  23.498  21.207   4.277
92344W        W57571  18.106   4.819   0.904
92345W        W57572  15.400  34.506  13.016
92346W        W57573  13.100  31.601   2.140
92347W        W57574  21.630  40.983   4.546
92348W        W57575  13.627  36.088   4.278
92349W        W57576  14.815  23.190  13.659
92350W        W57577   5.888   0.126  10.693
92351W        W57578   8.713  11.020  10.934
92352W        W57579  26.190  12.799   2.236
92353W        W57580   9.198   8.945   4.714
92354W        W57581  23.520  22.211  11.393
92355W        W57582  39.046  26.926   0.439
92356W        W57583  17.602  36.477   4.031
92357W        W57584   7.386  21.268  13.553
92358W        W57585  16.135  20.357  12.401
92359W        W57586  17.129  34.422  14.378
92360W        W57587   0.217  17.596  14.673
92361W        W57588   0.486   7.911   3.199
92362W        W57589  14.224  13.479   2.341
92363W        W57590  25.224   2.757   1.357
92364W        W57591  18.563  33.902  12.872
92365W        W57592  23.942  13.876  10.687
92366W        W57593  44.459  27.296   5.181
92367W        W57594  28.136  42.043  13.012
92368W        W57595  13.116  27.518   1.432
92369W        W57596   2.402   0.112  11.319
92370W        W57597  15.557  30.634   1.526
92371W        W57598  35.422   1.988   3.320
92372W        W57599  30.019  44.888   4.828
92373W        W57600  19.322  37.025  12.550
92374W        W57601  28.487  31.130   3.081
92375W        W57602  13.727  43.252   4.221
92376W        W57603   5.266  28.597  10.430
92377W        W57604   4.230   8.922  11.636
92378W        W57605  31.435  14.531  12.061
92379W        W57606  25.268  37.058  14.152
92380W        W57607  18.927  17.439  12.791
92381W        W57608  38.198  21.232   3.960
92382W        W57609  12.221   8.477  13.320
92383W        W57610  20.016  16.739   1.869
92384W        W57611  17.342   7.912  10.721
92385W        W57612  33.534  21.272  10.291
92386W        W57613  10.584  36.122   4.150
92387W        W57614  34.219  34.527  14.439
92388W        W57615  18.770  14.156   2.586
92389W        W57616  28.922  38.954   1.317
92390W        W57617  43.931  41.415   0.418
92391W        W57618  41.158  30.570   3.188
92392W        W57619  30.501  14.611  12.495
92393W        W57620   9.899  28.119   1.632
92394W        W57621   7.297  10.671   3.262
92395W        W57622  32.501  39.100   3.162
92396W        W57623  34.033  15.557   4.301
92397W        W57624  41.900   5.495  14.977
92398W        W57625  21.635  43.433  13.946
92399W        W57626  14.124   0.826   4.654
92400W        W57627  16.272  13.831   1.020
92401W        W57628  34.683  28.261   5.040
92402W        W57629   9.816  14.187   3.334
92403W        W57630  12.292  11.461  11.064
92404W        W57631  22.954  30.460   3.157
92405W        W57632   0.981  16.107  13.804
92406W        W57633  19.234   5.758   0.918
92407W        W57634  25.327  43.809   2.486
92408W        W57635   0.852  11.398   1.792
92409W        W57636   9.403  33.071  14.377
92410W        W57637  22.618  32.432  13.149
92411W        W57638   6.907  19.751   4.327
92412W        W57639  15.129  39.139  13.471
92413W        W57640  24.136   8.632  14.364
92414W        W57641   6.421  42.317  14.501
92415W        W57642  13.903  42.391   4.907
92416W        W57643  10.409  20.440   2.331
92417W        W57644   6.689  18.133   2.684
92418W        W57645  37.756  13.525   0.269
92419W        W57646  24.726  30.336   0.395
92420W        W57647   1.907  37.028  13.725
92421W        W57648  43.468   2.826  12.615
92422W        W57649  41.038  37.381   4.502
92423W        W57650   4.841  20.179  13.804
92424W        W57651  20.232   4.992   4.659
92425W        W57652   8.361  39.100  12.506
92426W        W57653   0.046  36.232  12.167
92427W        W57654  38.056   7.176   2.267
92428W        W57655  19.087  23.239   3.186
92429W        W57656  38.299  36.439  11.627
92430W        W57657   3.833  33.658  12.437
92431W        W57658  40.816  12.538   4.763
92432W        W57659  20.733   9.994  13.409
92433W        W57660   4.831  41.405  12.613
92434W        W57661  10.405  16.995  13.470
92435W        W57662  29.869  30.564  11.564
92436W        W57663  32.852   6.220   0.437
92437W        W57664  42.328  24.165   4.578
92438W        W57665  13.895  19.629   0.273
92439W        W57666   7.577   0.600   0.005
92440W        W57667  41.704  21.513   2.756
92441W        W57668  28.388  13.094  10.251
92442W        W57669  28.296   9.525  11.653
92443W        W57670  12.052   0.203   0.424
92444W        W57671  17.886   5.343  13.706
92445W        W57672  12.442  44.600  10.408
92446W        W57673  12.860  27.902   2.807
92447W        W57674   8.320  12.784   2.558
92448W        W57675  34.256  28.568   5.014
92449W        W57676  36.921  23.620  13.142
92450W        W57677   4.385  27.078  11.573
92451W        W57678  41.342  44.957  11.518
92452W        W57679  16.539   7.417   3.372
92453W        W57680   7.616  26.731   1.827
92454W        W57681   9.721   2.235   0.836
92455W        W57682  23.081  26.172  13.399
92456W        W57683  31.078   0.833   1.734
92457W        W57684  13.145  34.648  12.851
92458W        W57685  20.028  18.076   0.782
92459W        W57686   8.581  39.202   0.453
92460W        W57687  22.607  30.085   4.725
92461W        W57688  43.377  22.063   1.687
92462W        W57689  24.470  25.423   0.759
92463W        W57690  20.047  15.646  10.287
92464W        W57691  16.593  41.845  12.463
92465W        W57692  14.055  16.746   3.138
92466W        W57693  13.105  28.487   4.276
92467W        W57694   3.753   0.906   3.083
92468W        W57695  35.936  39.127   1.517
92469W        W57696   2.704   7.206   0.030
92470W        W57697  30.985  10.692   1.671
92471W        W57698  43.523  44.055   3.766
92472W        W57699  38.793  37.647   5.015
92473W        W57700  15.119  32.089  14.805
92474W        W57701   6.716  23.517  12.579
92475W        W57702  29.444   1.035  10.259
92476W        W57703  42.959  14.780  13.563
92477W        W57704  21.343   7.198  13.042
92478W        W57705  13.946  36.533  14.686
92479W        W57706  32.915  44.372  14.119
92480W        W57707   6.170   3.876  14.969
92481W        W57708  34.986  12.901   0.413
92482W        W57709  42.156  11.916  14.648
92483W        W57710  27.328  35.405   4.102
92484W        W57711   1.693  29.225  14.330
92485W        W57712   5.800   0.244  12.520
92486W        W57713  23.755   2.710   1.358
92487W        W57714  23.252  21.651   0.419
92488W        W57715   1.066  31.135  10.540
92489W        W57716  25.979   6.936   1.725
92490W        W57717  40.623  29.148  13.394
92491W        W57718  34.576  36.308  12.601
92492W        W57719  37.056  28.604  11.535
92493W        W57720   3.450  25.389  13.489
92494W        W57721  32.623  29.142  12.825
92495W        W57722  32.658  16.200  11.641
92496W        W57723  10.690   7.221   3.340
92497W        W57724  20.987  29.874   3.292
92498W        W57725  19.130  41.442  14.700
92499W        W57726   2.885  31.916   3.647
92500W        W57727   7.064  42.351  13.826
92501W        W57728   3.912   2.464   2.674
92502W        W57729  14.102  19.111  12.804
92503W        W57730  15.586  39.913  13.959
92504W        W57731  25.752  28.095   4.131
92505W        W57732  17.635  12.163   2.663
92506W        W57733  21.286  27.936   1.285
92507W        W57734   4.853   0.523   1.247
92508W        W57735  26.040  25.652   3.108
92509W        W57736  41.130   7.430  12.507
92510W        W57737   6.402  39.861  11.195
92511W        W57738  22.287  34.123   0.921
92512W        W57739   8.404  35.926   3.788
92513W        W57740  29.594  35.965  10.283
92514W        W57741  36.831  42.072  13.374
92515W        W57742  38.114  33.570   4.858
92516W        W57743   6.483   1.119   5.624
92517W        W57744  35.915  36.774   4.089
92518W        W57745  26.423  39.555   1.858
92519W        W57746  14.265  35.913   0.259
92520W        W57747  35.146  16.596  13.047
92521W        W57748  21.689   4.237   0.561
92522W        W57749  41.796  28.167  11.163
92523W        W57750  14.334  19.789  13.041
92524W        W57751  32.645  43.890  14.824
92525W        W57752  44.378  20.586  14.891
92526W        W57753  37.603  34.717   3.366
92527W        W57754  17.363  10.760   4.472
92528W        W57755   8.714   7.861   1.702
92529W        W57756  35.400  39.790   2.836
92530W        W57757  23.117  12.719   4.511
92531W        W57758  36.539   1.921   0.931
92532W        W57759  29.463  18.127   3.609
92533W        W57760  40.536   5.669   1.757
92534W        W57761  40.573   1.890   1.370
92535W        W57762  28.467  43.909  11.066
92536W        W57763  13.129  21.172   3.910
92537W        W57764  34.997   9.826  14.654
92538W        W57765  13.722   8.305   2.929
92539W        W57766  10.873  43.796  14.784
92540W        W57767  18.627  28.489   2.317
92541W        W57768  17.216  35.505   3.673
92542W        W57769  35.190  38.543  13.643
92543W        W57770  27.851  27.611  13.621
92544W        W57771  11.097  40.357   2.819
92545W        W57772  19.117  11.238   2.435
92546W        W57773  30.692   6.447   4.101
92547W        W57774   1.387  15.588  13.923
92548W        W57775  15.678  28.404   1.764
92549W        W57776  25.577  23.776  13.997
92550W        W57777   5.899  25.029  12.734
92551W        W57778   6.230  31.704  13.087
92552W        W57779  32.404  28.543  12.168
92553W        W57780  28.655  16.981   3.274
92554W        W57781  30.058  43.818   2.066
92555W        W57782  22.018   4.506   2.835
92556W        W57783  39.576  19.808   1.362
92557W        W57784  37.190  28.266   2.780
92558W        W57785  33.072  35.610  13.024
92559W        W57786  30.866   8.054   4.908
92560W        W57787   3.751  30.499  13.970
92561W        W57788   0.257   0.911  11.676
92562W        W57789  32.635  40.266  13.935
92563W        W57790  28.100  12.941   1.562
92564W        W57791  26.739  41.039  12.483
92565W        W57792  11.263  36.351   0.420
92566W        W57793  31.527  30.900  12.632
92567W        W57794  33.380  19.785   2.368
92568W        W57795  14.419  26.744   0.532
92569W        W57796  34.513  41.841   2.796
92570W        W57797  14.508  15.097   4.600
92571W        W57798  11.329   9.450   1.571
92572W        W57799  12.831   6.694   3.632
92573W        W57800  17.489  40.733   0.329
92574W        W57801  29.091  16.537   4.081
92575W        W57802  19.413  32.708  14.569
92576W        W57803  41.997  35.092  13.630
92577W        W57804  17.117  20.319  11.673
92578W        W57805  13.357  25.397  14.344
92579W        W57806  19.357   0.989   0.835
92580W        W57807  19.714  22.882   3.292
92581W        W57808   7.313  44.462   1.761
92582W        W57809   1.805   2.003   0.913
92583W        W57810  12.173  26.718  13.498
92584W        W57811   1.823  24.532  14.570
92585W        W57812   5.368   9.336   3.995
92586W        W57813  10.847  31.555  12.541
92587W        W57814  19.699  29.258   4.438
92588W        W57815  12.704  13.086  14.338
92589W        W57816   5.352   1.909  12.943
92590W        W57817  31.310   5.225   3.143
92591W        W57818  31.386  32.924  14.435
92592W        W57819  24.351  39.632  11.225
92593W        W57820  33.028  31.480   3.347
92594W        W57821  38.854  11.359  13.715
92595W        W57822  14.434  15.337  14.462
92596W        W57823  19.500  31.163   1.856
92597W        W57824   8.243  18.561  13.733
92598W        W57825  17.520  22.169  10.551
92599W        W57826  26.592   4.079   4.137
92600W        W57827  17.988   7.726  12.787
92601W        W57828  31.159   1.894   0.870
92602W        W57829   8.792  30.205  13.539
92603W        W57830  15.839  33.622  14.735
92604W        W57831  44.878  14.020  13.885
92605W        W57832  15.303  37.005   0.829
92606W        W57833  36.230  40.014   2.661
92607W        W57834   4.474  33.127   3.575
92608W        W57835  25.753  30.098   1.537
92609W        W57836  38.000  41.233   3.301
92610W        W57837  36.007  38.854   0.496
92611W        W57838   7.840   5.492   3.304
92612W        W57839  16.686  44.501   2.121
92613W        W57840  23.030  20.651   0.301
92614W        W57841  31.208  38.003   0.547
92615W        W57842   7.847   5.031   2.401
92616W        W57843   7.766  26.976  12.154
92617W        W57844  30.479   2.854   4.629
92618W        W57845   2.732  39.240  11.255
92619W        W57846  43.352   4.429  10.848
92620W        W57847  38.124   3.974   0.311
92621W        W57848  36.318  10.281   4.533
92622W        W57849  41.484   0.331  11.186
92623W        W57850  34.373  13.798   0.472
92624W        W57851   2.498  25.575   2.862
92625W        W57852  40.190  25.177  14.886
92626W        W57853   0.277  16.880  12.615
92627W        W57854  36.809  29.089  10.705
92628W        W57855  26.179  13.686   4.907
92629W        W57856  18.792  40.956   2.911
92630W        W57857  39.294  41.972  11.543
92631W        W57858  33.622   2.465  11.587
92632W        W57859  21.716  18.605  11.007
92633W        W57860  44.893  30.581  11.147
92634W        W57861  34.210  40.626   3.504
92635W        W57862  13.554  15.381   1.911
92636W        W57863  27.569  36.893  14.038
92637W        W57864  15.633  41.024  10.683
92638W        W57865  38.745   5.121   2.807
92639W        W57866  18.119  42.638   3.917
92640W        W57867   5.446  40.404   2.721
92641W        W57868  37.367  17.690   2.703
92642W        W57869  30.014   6.780   2.149
92643W        W57870  10.641   7.842   2.742
92644W        W57871  39.181  16.619   4.654
92645W        W57872  38.632  29.915  13.818
92646W        W57873  19.779  39.075   3.981
92647W        W57874  41.500  14.027   3.780
92648W        W57875   4.715   2.155  12.146
92649W        W57876  13.210   2.910   3.831
92650W        W57877  18.201   7.255  12.765
92651W        W57878  44.785  37.320   1.849
92652W        W57879  38.038  12.416  11.683
92653W        W57880   1.851  40.579  13.807
92654W        W57881  18.732  21.289  14.475
92655W        W57882  36.121   7.850  13.835
92656W        W57883  15.564   5.029   1.310
92657W        W57884   4.399   3.219  11.133
92658W        W57885  31.019  31.713  10.603
92659W        W57886  33.337   0.238  12.497
92660W        W57887  40.770  28.992   4.218
92661W        W57888   8.455  14.099  10.323
92662W        W57889   8.914  43.003   4.130
92663W        W57890  22.162  36.382   0.965
92664W        W57891  28.836   0.013   3.330
92665W        W57892  33.903  24.963   2.599
92666W        W57893  43.910   7.242   4.790
92667W        W57894  32.428  24.952  11.930
92668W        W57895  10.084  26.624   0.793
92669W        W57896  13.840  37.763  10.693
92670W        W57897  37.815  44.563   2.585
92671W        W57898  16.271   1.030   3.384
92672W        W57899  44.810  10.007  10.213
92673W        W57900  36.045   9.402  12.544
92674W        W57901  41.837  40.447   2.317
92675W        W57902  24.146  41.215   3.858
92676W        W57903  37.034  14.024  14.682
92677W        W57904  16.450  20.715   2.851
92678W        W57905   7.934  34.097   3.099
92679W        W57906   3.920  34.810  12.620
92680W        W57907  40.511  43.829   1.977
92681W        W57908  29.862   8.263  12.584
92682W        W57909   4.958  23.320  14.915
92683W        W57910  30.305  17.526  13.923
92684W        W57911   9.966  32.002   0.518
92685W        W57912  37.284  33.976   3.786
92686W        W57913   3.845  30.708  14.858
92687W        W57914  17.680  26.617  14.914
92688W        W57915  19.333  29.959   0.063
92689W        W57916  44.913  14.221   0.449
92690W        W57917   3.586  26.760   4.113
92691W        W57918  37.179   5.075  12.017
92692W        W57919  16.276  10.666  10.683
92693W        W57920  41.624  14.411   3.502
92694W        W57921  44.025  20.581   3.614
92695W        W57922  25.977   6.409   2.455
92696W        W57923  38.100  44.026   1.690
92697W        W57924  40.520  17.849   3.316
92698W        W57925   7.551   9.381   2.590
92699W        W57926  29.168  38.505  14.833
92700W        W57927  22.258  35.799   1.814
92701W        W57928  12.593  40.956   3.847
92702W        W57929  27.391  12.070  11.421
92703W        W57930   4.801  10.441  12.004
92704W        W57931  12.758  42.997  13.440
92705W        W57932  15.600   0.496  13.905
92706W        W57933  41.258  10.208   2.332
92707W        W57934   3.347  41.535   4.812
92708W        W57935  12.543  32.844   3.065
92709W        W57936  40.473  37.110   9.704
92710W        W57937  20.515  26.919  11.797
92711W        W57938  41.623  16.991  12.358
92712W        W57939  44.231  11.367   0.427
92713W        W57940  34.430  30.258   0.286
92714W        W57941  15.781  40.113   2.179
92715W        W57942   6.209  28.747   3.226
92716W        W57943   5.864   9.467  13.484
92717W        W57944  35.117  11.699   0.774
92718W        W57945  42.586  23.453  14.300
92719W        W57946   6.965  35.811  11.206
92720W        W57947  27.532  13.134  11.473
92721W        W57948  17.825  32.746  12.292
92722W        W57949  27.938   6.540   4.939
92723W        W57950  23.502   3.866   1.732
92724W        W57951  22.733  34.769  14.561
92725W        W57952  30.731   3.680  13.025
92726W        W57953  40.725   9.182   4.608
92727W        W57954  44.391  33.685   4.670
92728W        W57955  39.457  35.303   1.871
92729W        W57956  14.082   0.277  14.960
92730W        W57957   5.510  33.043  12.106
92731W        W57958   8.455  21.565  11.694
92732W        W57959   5.271  35.360  12.454
92733W        W57960   0.358  42.032   3.695
92734W        W57961  20.267   0.812  13.372
92735W        W57962   4.767  29.086  12.006
92736W        W57963  16.091  36.402  14.067
92737W        W57964  36.903  10.851   2.750
92738W        W57965  35.858   5.377  12.952
92739W        W57966  21.335   7.595  13.366
92740W        W57967   3.148  33.207   4.561
92741W        W57968  27.937   2.699  10.578
92742W        W57969  33.692  23.196  12.710
92743W        W57970  40.053  30.959   3.676
92744W        W57971  44.220  42.375  12.141
92745W        W57972  29.069  21.747  14.015
92746W        W57973  39.315  33.049  13.015
92747W        W57974  40.543  39.461   3.249
92748W        W57975  19.653  14.252  11.788
92749W        W57976  44.918  34.095  14.613
92750W        W57977  29.257  14.415  11.319
92751W        W57978  16.131  14.520  13.368
92752W        W57979  38.505  20.551  10.202
92753W        W57980  42.462   9.291   1.459
92754W        W57981   5.300  28.009  10.106
92755W        W57982  29.030  35.521   1.728
92756W        W57983   0.002  31.641   2.694
92757W        W57984  27.343  18.102   3.718
92758W        W57985  28.430  40.681  10.202
92759W        W57986  21.444  11.466  14.492
92760W        W57987  34.014  29.974   0.315
92761W        W57988  30.699  19.332   0.776
92762W        W57989   4.954  39.896   2.223
92763W        W57990   0.964  22.363   2.664
92764W        W57991   6.427  42.991  14.313
92765W        W57992   8.960  24.396  13.808
92766W        W57993   9.496  29.205   4.069
92767W        W57994  11.840  11.222  11.202
92768W        W57995   0.749   9.671   0.966
92769W        W57996  19.061  32.593   4.849
92770W        W57997   4.906  36.989   2.460
92771W        W57998  12.021  30.025  13.609
92772W        W57999  30.201  18.689   1.809
92773W        W58000   9.289  41.937  11.418
92774W        W58001   9.747  13.357   3.712
92775W        W58002   4.050   4.286  13.062
92776W        W58003  27.881  44.635   0.843
92777W        W58004  42.451  29.489   0.904
92778W        W58005  36.926  15.342  14.280
92779W        W58006  41.524   4.072   2.863
92780W        W58007  23.382  33.917   2.734
92781W        W58008   0.722  26.972   2.991
92782W        W58009  31.543   6.286  14.650
92783W        W58010  26.655  32.288  13.756
92784W        W58011  23.853  36.798  10.805
92785W        W58012   7.139  21.539  14.405
92786W        W58013  33.671  33.916   1.292
92787W        W58014  35.659  29.398  12.060
92788W        W58015  42.425  42.203  12.010
92789W        W58016  20.717   9.859  14.727
92790W        W58017  31.936  29.096   4.360
92791W        W58018   3.216  33.668   3.148
92792W        W58019  28.440  44.554   0.804
92793W        W58020  36.199  23.097   1.993
92794W        W58021  38.443  29.167   0.807
92795W        W58022  15.019   0.927  13.371
92796W        W58023   6.511  22.018   2.859
92797W        W58024  24.651  33.474  13.788
92798W        W58025  41.479  11.669  11.678
92799W        W58026  38.738   7.409  12.438
92800W        W58027  14.585   4.079  12.555
92801W        W58028  31.309  22.374  14.630
92802W        W58029  23.560  31.031   0.338
92803W        W58030  40.904  34.628   2.357
92804W        W58031  35.468  21.708  13.111
92805W        W58032   9.849  20.694  13.358
92806W        W58033  12.857  12.729   4.290
92807W        W58034  33.084  10.129  10.648
92808W        W58035  14.947  22.968  14.529
92809W        W58036  32.067  30.973  11.933
92810W        W58037  40.275  40.178  11.745
92811W        W58038  21.233   8.283  12.663
92812W        W58039  15.671   3.685   3.726
92813W        W58040  42.363   8.393   1.743
92814W        W58041   7.953  32.679  11.578
92815W        W58042  36.420  34.908   3.778
92816W        W58043  15.696  26.078   0.799
92817W        W58044   0.341  43.475  11.595
92818W        W58045  16.068  27.334  12.952
92819W        W58046  29.649  38.870   4.012
92820W        W58047  40.288  23.044  12.853
92821W        W58048   3.197  34.011   0.795
92822W        W58049  20.840  27.189  12.617
92823W        W58050  30.905  15.149   1.398
92824W        W58051   1.922  14.319   0.224
92825W        W58052  39.448  42.437   2.448
92826W        W58053  32.216  21.260   1.462
92827W        W58054  26.819  16.327   2.740
92828W        W58055  18.253  12.565   1.055
92829W        W58056  29.379   6.407   2.892
92830W        W58057  14.533  16.993  11.659
92831W        W58058  13.249   3.458   0.981
92832W        W58059  31.722  39.934  13.562
92833W        W58060   8.533  35.145   9.714
92834W        W58061  24.212  33.633  14.786
92835W        W58062  15.062  20.535  10.764
92836W        W58063  18.651   5.725   2.638
92837W        W58064  42.478  28.796   3.914
92838W        W58065   5.460  22.041  10.788
92839W        W58066  44.888   8.160  12.675
92840W        W58067  33.864  15.111   4.074
92841W        W58068   5.943  19.281   2.749
92842W        W58069  43.319  37.606  10.683
92843W        W58070  43.351   8.649  10.577
92844W        W58071  38.222   2.876  14.373
92845W        W58072  32.827  24.594  10.809
92846W        W58073  31.977   5.178   0.380
92847W        W58074   9.634   7.223   2.294
92848W        W58075  12.703  15.784   0.737
92849W        W58076  38.119  38.202   3.713
92850W        W58077  20.540  44.250   0.437
92851W        W58078   1.292  23.789  14.379
92852W        W58079  30.100  19.659   1.750
92853W        W58080  40.632  11.330   3.030
92854W        W58081   3.429  35.138   1.446
92855W        W58082  33.894  27.360  12.872
92856W        W58083  22.227  22.085   3.281
92857W        W58084   4.494  36.504  13.034
92858W        W58085  27.552  40.481   2.554
92859W        W58086  24.185  10.763   2.022
92860W        W58087  13.331   7.760  10.927
92861W        W58088  34.445  18.323  11.762
92862W        W58089  29.264   7.676   3.223
92863W        W58090  42.905  35.513  10.816
92864W        W58091  31.336   0.739   1.264
92865W        W58092  27.497   6.849   4.902
92866W        W58093  35.433  32.089  11.533
92867W        W58094  17.795  33.305  11.076
92868W        W58095  42.637  18.826   1.203
92869W        W58096  44.482  39.928  11.946
92870W        W58097  26.091  16.559  13.062
92871W        W58098  43.465  39.117   0.820
92872W        W58099  17.884   7.306  11.929
92873W        W58100  20.352  23.235   0.353
92874W        W58101  30.994  10.161   1.542
92875W        W58102  38.300   4.183   4.574
92876W        W58103   5.016   7.050  10.133
92877W        W58104   8.504  44.804  11.361
92878W        W58105  32.063   4.882  12.052
92879W        W58106  22.989  26.130   3.230
92880W        W58107  12.776  19.386  14.450
92881W        W58108  22.744  33.482   0.057
92882W        W58109   9.404  35.950  13.788
92883W        W58110  31.728  33.175   3.131
92884W        W58111   7.281  39.011   1.737
92885W        W58112   1.736  19.493  11.184
92886W        W58113  44.826  39.780  13.572
92887W        W58114  26.000   8.805  10.679
92888W        W58115   2.942   8.122  14.358
92889W        W58116  26.116  14.119  11.992
92890W        W58117  18.494  24.956   3.342
92891W        W58118  37.422  15.221   3.720
92892W        W58119  42.367  43.058   2.726
92893W        W58120  20.254  24.539   1.735
92894W        W58121  43.478  33.977  12.134
92895W        W58122  12.336  14.083   2.175
92896W        W58123  34.845  36.963   5.008
92897W        W58124  17.021  32.231  10.453
92898W        W58125  30.950   2.397   4.027
92899W        W58126   5.543  42.523   3.264
92900W        W58127  18.054  25.576  10.730
92901W        W58128  19.128  20.221   1.029
92902W        W58129  11.115   2.774   1.237
92903W        W58130  27.078  40.878  14.367
92904W        W58131  25.513  23.753   2.810
92905W        W58132  11.259  13.574   0.829
92906W        W58133   9.629  14.195   3.825
92907W        W58134   0.906  24.121   2.277
92908W        W58135  16.096  31.578   2.606
92909W        W58136  13.116  18.439  14.561
92910W        W58137  31.230  26.002   4.978
92911W        W58138   2.685  22.964  13.388
92912W        W58139   5.891  28.110   0.890
92913W        W58140   3.854  35.053   1.770
92914W        W58141   5.429  37.604   4.177
92915W        W58142   9.803  23.766  12.201
92916W        W58143   4.917  19.908   2.117
92917W        W58144  31.632  27.728  12.598
92918W        W58145   3.471  20.936   4.991
92919W        W58146  22.793  17.430  12.226
92920W        W58147  34.134  11.722   1.910
92921W        W58148  10.340   5.048   0.321
92922W        W58149  43.310  11.267  12.133
92923W        W58150  42.841   9.655   4.178
92924W        W58151  21.282  21.470   1.803
92925W        W58152  28.105  14.270   2.837
92926W        W58153  27.174   6.717   1.911
92927W        W58154   1.537  23.352   3.992
92928W        W58155  38.877  20.476  14.814
92929W        W58156  16.224   6.187  13.082
92930W        W58157  25.135  28.611   1.203
92931W        W58158  44.350  34.472   4.159
92932W        W58159   8.289  17.141   1.703
92933W        W58160  22.608  16.756  10.664
92934W        W58161   9.303  17.512  14.201
92935W        W58162   6.042  42.012  11.873
92936W        W58163  43.910  24.362  12.111
92937W        W58164  27.607  31.587   3.162
92938W        W58165  15.858  16.681  11.006
92939W        W58166  26.837  34.146  14.521
92940W        W58167  11.062   0.829  14.793
92941W        W58168  41.589  20.418   2.702
92942W        W58169  39.569  36.987   4.022
92943W        W58170  39.604   1.920  12.997
92944W        W58171   7.976  12.345   3.701
92945W        W58172  42.072  20.078  13.004
92946W        W58173   0.709  18.985   3.784
92947W        W58174   7.972  38.657  13.824
92948W        W58175  39.444   8.574  14.759
92949W        W58176   4.738   4.646   3.273
92950W        W58177  27.438  27.656  14.585
92951W        W58178  42.343  43.427   4.600
92952W        W58179  17.555  42.537   1.939
92953W        W58180  28.924  12.090  12.936
92954W        W58181  16.116  24.543   3.088
92955W        W58182   4.257  33.391  13.331
92956W        W58183  27.444  35.509   0.926
92957W        W58184  13.278   5.335  12.860
92958W        W58185   8.605  44.742   0.309
92959W        W58186  17.874   1.912  11.483
92960W        W58187  11.327  27.451   4.151
92961W        W58188  25.232  17.520  10.789
92962W        W58189  25.010  36.950   1.354
92963W        W58190  43.542  14.331   1.880
92964W        W58191  36.681  42.659   4.169
92965W        W58192  17.793   8.217   2.390
92966W        W58193   2.696   3.236  10.712
92967W        W58194  20.012  42.021  13.483
92968W        W58195   8.195  44.698  12.242
92969W        W58196  35.266  31.573   2.365
92970W        W58197   6.853  22.992  11.280
92971W        W58198  28.715  25.770  10.798
92972W        W58199   3.688  29.639   0.864
92973W        W58200   0.058   0.887   1.210
92974W        W58201  21.562  43.543   5.122
92975W        W58202  25.129  33.156   4.868
92976W        W58203  38.661   5.148  12.955
92977W        W58204  28.236  23.659   0.668
92978W        W58205   9.297  11.703  10.647
92979W        W58206  26.523  18.575  14.491
92980W        W58207   3.381  12.445   4.944
92981W        W58208  25.651  35.911  14.889
92982W        W58209  39.941   4.360  12.637
92983W        W58210  10.361  41.514   1.735
92984W        W58211  21.446  19.809   4.491
92985W        W58212  26.457  26.823   2.562
92986W        W58213  18.836  11.729  12.410
92987W        W58214  22.046  18.247  11.460
92988W        W58215  28.168  19.088   1.271
92989W        W58216  42.953   7.650  14.715
92990W        W58217  18.690  23.643  12.540
92991W        W58218  17.059  33.743  13.741
92992W        W58219  14.146   9.815  11.141
92993W        W58220  10.011  26.941  14.899
92994W        W58221  23.005  40.569  11.565
92995W        W58222  34.062  39.376   0.654
92996W        W58223  30.908  17.881  13.443
92997W        W58224   5.829  14.082   4.315
92998W        W58225  44.595  28.551   2.715
92999W        W58226  42.426  43.984   4.617
93000W        W58227  42.558  28.768  11.107
93001W        W58228  42.307  16.654  14.975
93002W        W58229   8.457  31.052  13.264
93003W        W58230   9.832   8.793  12.504
93004W        W58231  34.633   4.691  12.831
93005W        W58232  35.406  41.258  13.065
93006W        W58233  40.235   6.156   2.647
93007W        W58234  38.014  34.168   3.237
93008W        W58235  10.353  31.965  14.407
93009W        W58236  33.735  14.628   2.266
93010W        W58237   3.975  31.961  12.894
93011W        W58238  29.359  25.990  12.457
93012W        W58239  42.855  15.660  14.853
93013W        W58240   3.667   5.432  14.435
93014W        W58241  13.217  13.089  13.226
93015W        W58242  18.768  27.633   0.693
93016W        W58243  17.914  19.550   0.987
93017W        W58244  12.274  13.173  11.685
93018W        W58245  37.412  28.156   1.157
93019W        W58246  32.381   5.425  12.946
93020W        W58247  42.139  42.983   0.711
93021W        W58248  15.801  38.950   1.073
93022W        W58249  29.349  11.706  11.245
93023W        W58250  18.402  21.826  13.884
93024W        W58251  33.779  32.040   4.758
93025W        W58252  17.826  29.576  12.010
93026W        W58253  41.356  41.880  12.449
93027W        W58254  26.842  26.313  12.594
93028W        W58255   6.202  24.602   4.773
93029W        W58256  12.103  27.187   1.696
93030W        W58257   9.699  11.255  12.047
93031W        W58258  18.744   7.613   3.125
93032W        W58259   3.796  18.631   4.522
93033W        W58260  24.504  40.378  11.674
93034W        W58261  24.128  28.734   2.266
93035W        W58262  15.709  33.854   4.589
93036W        W58263  43.454  28.154  11.941
93037W        W58264  36.307  34.846   2.812
93038W        W58265  38.877   7.114  13.512
93039W        W58266  37.281  24.185  13.275
93040W        W58267  34.176   6.233  12.171
93041W        W58268  35.427   7.967  14.428
93042W        W58269  37.386  18.265  11.517
93043W        W58270  14.384  16.116   3.862
93044W        W58271   1.199  39.288   3.807
93045W        W58272  17.925  39.645   1.027
93046W        W58273  35.435  27.211   2.391
93047W        W58274  25.676  36.570  11.168
93048W        W58275  12.366  16.635   3.814
93049W        W58276  10.483  18.261  12.903
93050W        W58277  15.555   4.196  12.070
93051W        W58278  21.614   0.242   2.961
93052W        W58279  17.616  18.521   4.566
93053W        W58280  11.697   7.871  13.007
93054W        W58281   3.350   6.729  12.593
93055W        W58282  43.499  16.073   0.789
93056W        W58283  25.119   4.718   3.806
93057W        W58284  13.864   5.509  13.817
93058W        W58285  10.738  42.888   3.875
93059W        W58286  41.967  17.995  14.941
93060W        W58287  30.467  38.553  11.207
93061W        W58288  21.439  19.821  11.450
93062W        W58289  13.780  42.919   3.710
93063W        W58290  30.570  13.569  14.990
93064W        W58291   5.481  35.007   0.240
93065W        W58292  17.145  37.063   4.616
93066W        W58293  18.401  14.341  10.267
93067W        W58294  30.515  20.913   1.972
93068W        W58295  22.251  40.602  11.293
93069W        W58296  37.274  11.207  12.637
93070W        W58297   2.920  28.924   1.257
93071W        W58298   9.443  24.340  12.999
93072W        W58299   1.475  18.200   1.942
93073W        W58300   3.336   4.735   0.835
93074W        W58301  23.375  34.047   0.569
93075W        W58302  40.582  44.040   4.154
93076W        W58303   1.476  29.619  14.013
93077W        W58304  10.106   9.188  11.498
93078W        W58305  27.467  39.395  11.753
93079W        W58306   5.622  13.889  12.029
93080W        W58307  30.638  29.185  12.847
93081W        W58308  36.299  26.721   2.314
93082W        W58309  11.409   5.148   2.768
93083W        W58310   6.714  21.594   4.930
93084W        W58311   4.000  38.899   1.384
93085W        W58312  39.170  27.281  13.913
93086W        W58313  16.835  28.525   2.607
93087W        W58314  28.155  27.741   2.347
93088W        W58315  10.595  40.019  11.952
93089W        W58316   1.395  21.728  14.502
93090W        W58317  39.617  16.698   1.331
93091W        W58318  24.455   6.149   2.326
93092W        W58319  43.493  30.295  13.026
93093W        W58320   0.018  38.688   2.368
93094W        W58321  32.402   2.483  11.099
93095W        W58322  17.590  36.269  14.253
93096W        W58323  13.272  37.568   4.489
93097W        W58324   3.954   1.788   0.885
93098W        W58325  28.996   3.012   1.330
93099W        W58326   9.127  36.522   1.903
93100W        W58327  35.691   4.244  12.448
93101W        W58328  30.036  12.083   5.200
93102W        W58329  25.198  19.043  11.447
93103W        W58330  21.014  18.253  10.667
93104W        W58331  28.723  39.013  14.220
93105W        W58332  40.125  29.095  13.519
93106W        W58333   1.224   4.355   2.806
93107W        W58334  15.320  23.599   4.541
93108W        W58335  31.481  39.647  12.099
93109W        W58336  39.744   4.795  12.083
93110W        W58337  43.178   8.312  11.792
93111W        W58338  11.678  12.189  11.031
93112W        W58339  27.952  21.517  10.721
93113W        W58340   1.237  13.378  11.180
93114W        W58341  41.319  41.751  11.079
93115W        W58342  40.548  21.618   4.217
93116W        W58343  41.013  38.941   3.595
93117W        W58344  43.492  37.595   0.922
93118W        W58345   5.523  18.896   2.762
93119W        W58346  19.146  31.012  11.184
93120W        W58347  21.590   7.438  14.465
93121W        W58348  15.128  36.617  14.141
93122W        W58349  22.086  25.517  12.976
93123W        W58350   9.041  42.627   0.850
93124W        W58351  19.195   7.427   3.763
93125W        W58352  10.747  25.704   3.283
93126W        W58353  31.611  11.587  14.068
93127W        W58354  20.596  16.672   4.470
93128W        W58355  10.550  18.115   2.845
93129W        W58356  40.590   3.548  12.424
93130W        W58357  18.899  13.074  12.458
93131W        W58358  38.738  37.495  10.873
93132W        W58359  13.402  37.993   1.521
93133W        W58360  21.312   5.398   2.732
93134W        W58361   3.811  29.922  12.543
93135W        W58362  40.179  40.234   4.113
93136W        W58363  31.511  39.013   4.149
93137W        W58364  20.949   3.987  10.480
93138W        W58365  35.034  42.483  14.785
93139W        W58366   6.804  18.568  13.431
93140W        W58367  37.828  30.898  13.894
93141W        W58368  39.327   0.605  12.512
93142W        W58369  14.896  24.085   3.093
93143W        W58370  18.283   7.468   0.945
93144W        W58371  23.103   7.397  13.327
93145W        W58372  28.509  31.668   0.472
93146W        W58373  38.316   3.869   1.821
93147W        W58374  23.886   5.897  11.137
93148W        W58375  26.117   4.727  13.589
93149W        W58376   1.246  44.520  12.645
93150W        W58377  44.782   9.321  12.502
93151W        W58378  25.650  21.441  14.494
93152W        W58379  11.379   6.284  10.678
93153W        W58380   9.862  28.331   2.660
93154W        W58381  32.598   2.882   2.779
93155W        W58382  34.983   7.671  11.077
93156W        W58383   1.735  24.259   1.850
93157W        W58384  33.558  29.575   0.609
93158W        W58385  30.966  35.602   1.502
93159W        W58386   5.969  38.176   0.011
93160W        W58387   6.316  30.662   3.919
93161W        W58388  32.868   7.892  12.242
93162W        W58389  30.581  22.488  13.498
93163W        W58390  44.911  40.810   4.822
93164W        W58391   4.813  10.210   1.509
93165W        W58392  42.981   8.239   4.151
93166W        W58393  29.198  23.209   1.921
93167W        W58394  36.465  38.540  10.613
93168W        W58395  36.698  17.166  13.414
93169W        W58396   9.750   1.597  13.957
93170W        W58397   6.178  42.350   0.834
93171W        W58398  38.912  10.508   1.374
93172W        W58399  36.304  16.519   1.874
93173W        W58400   1.378  26.669   0.344
93174W        W58401  38.035   7.107  14.555
93175W        W58402  24.671   6.946  14.461
93176W        W58403   0.215  16.937  12.085
93177W        W58404  43.722  20.755  13.329
93178W        W58405  18.446  36.271  14.776
93179W        W58406  35.461  21.748  11.598
93180W        W58407  14.485  33.548   0.950
93181W        W58408  31.923  20.523  12.945
93182W        W58409   6.216  14.674  13.076
93183W        W58410   0.175  40.541  10.728
93184W        W58411  41.957  21.560   1.716
93185W        W58412  15.246  13.758  10.720
93186W        W58413   7.288  18.719   2.365
93187W        W58414  27.671  38.293  14.947
93188W        W58415  28.435   4.380   2.862
93189W        W58416  24.201   7.084  11.939
93190W        W58417  41.368  27.047   0.723
93191W        W58418  37.999   4.470  13.774
93192W        W58419  15.870  14.671   3.223
93193W        W58420  36.515  32.380   4.555
93194W        W58421  21.083  32.968   0.264
93195W        W58422  31.012  44.196   2.780
93196W        W58423  20.567  26.753  12.653
93197W        W58424   9.248   9.354   3.751
93198W        W58425  32.991  25.131  14.861
93199W        W58426  16.096  18.045  14.337
93200W        W58427  14.248  27.848  11.625
93201W        W58428  23.581   5.682  10.796
93202W        W58429   7.196   4.623   4.495
93203W        W58430   2.540  17.620  10.561
93204W        W58431  17.784  13.368  13.207
93205W        W58432  41.887  33.923  10.806
93206W        W58433  32.073   2.532   1.874
93207W        W58434  13.130   8.348  12.777
93208W        W58435  22.667  19.416  10.222
93209W        W58436  19.697  38.860  12.552
93210W        W58437  44.194  30.964  14.745
93211W        W58438  17.368  27.299  14.454
93212W        W58439  16.819  35.074  13.948
93213W        W58440  25.067  39.032  13.202
93214W        W58441  39.152  24.243   0.828
93215W        W58442  41.881  43.335   4.887
93216W        W58443   2.982  21.507   0.852
93217W        W58444   2.790  23.303   0.383
93218W        W58445  37.989  16.841   0.817
93219W        W58446  19.735   0.080  13.955
93220W        W58447   3.419  41.994   1.227
93221W        W58448  23.998  30.062   3.656
93222W        W58449  31.571   3.408  13.092
93223W        W58450   8.932  31.063  13.004
93224W        W58451  13.060  25.900  14.012
93225W        W58452  41.732  29.976  12.100
93226W        W58453  25.638   5.543  12.926
93227W        W58454  15.170   5.637   0.708
93228W        W58455  20.598  32.356   2.638
93229W        W58456   7.847  33.518  11.244
93230W        W58457  44.435  31.870  14.249
93231W        W58458  29.193   8.758  10.795
93232W        W58459  16.149  25.183   1.289
93233W        W58460  43.432  22.362   5.752
93234W        W58461  20.154  40.044  14.817
93235W        W58462  20.765  15.330  10.650
93236W        W58463   7.383  37.402   4.099
93237W        W58464  22.481  34.509   2.391
93238W        W58465  12.861  37.031   0.742
93239W        W58466  17.832  22.321  13.100
93240W        W58467  25.085  42.650  12.454
93241W        W58468  26.290   3.907  12.273
93242W        W58469  38.801  10.866   0.983
93243W        W58470  15.343  19.757  14.935
93244W        W58471   4.434   7.511  14.388
93245W        W58472  36.690  29.019  13.808
93246W        W58473  10.389  20.559   0.734
93247W        W58474  12.730  17.279  10.415
93248W        W58475   0.314  10.487   0.914
93249W        W58476  30.535  15.584  14.994
93250W        W58477  20.237  11.379   4.632
93251W        W58478  22.701  12.205  13.599
93252W        W58479  32.622   5.551   2.344
93253W        W58480  14.602  41.892   2.416
93254W        W58481   4.608  11.958   2.792
93255W        W58482   6.711  23.690   2.246
93256W        W58483   2.075  18.046  11.113
93257W        W58484   3.879  37.563  13.049
93258W        W58485  11.861  14.725   4.967
93259W        W58486  18.845  39.761  10.566
93260W        W58487  40.065  40.719   4.083
93261W        W58488   2.323  24.663  13.554
93262W        W58489  33.124   5.394   2.278
93263W        W58490  28.702  40.338   0.988
93264W        W58491   3.966  43.366  11.844
93265W        W58492  31.384  17.615  14.779
93266W        W58493  17.487   8.673   1.226
93267W        W58494  21.036   1.555  14.133
93268W        W58495  43.769  23.432  14.880
93269W        W58496  32.605  11.424   1.420
93270W        W58497  14.041  20.998   4.965
93271W        W58498  23.620  25.499   2.739
93272W        W58499  10.837  27.187   4.360
93273W        W58500  31.140  32.428   1.189
93274W        W58501  23.962  16.207   1.405
93275W        W58502  20.038   9.862  10.761
93276W        W58503  31.854  11.150   0.936
93277W        W58504   6.215   0.479   0.957
93278W        W58505   3.816   2.198   3.122
93279W        W58506   5.094  42.765   3.204
93280W        W58507  19.006  44.599  13.762
93281W        W58508  27.955  31.950  10.290
93282W        W58509  14.791   0.734   0.377
93283W        W58510   4.446  29.899  10.890
93284W        W58511  38.143  17.297   4.112
93285W        W58512  15.596  44.518  14.279
93286W        W58513  20.023  11.298   0.381
93287W        W58514  13.739   0.971   0.260
93288W        W58515   6.338   9.266  13.392
93289W        W58516  41.390  31.808  13.631
93290W        W58517  21.191  20.494  14.870
93291W        W58518  22.323  31.880   4.590
93292W        W58519  33.840   9.376   3.231
93293W        W58520  32.948   4.450  12.686
93294W        W58521  15.968  42.939  13.551
93295W        W58522  16.550  23.149   1.344
93296W        W58523  31.856  12.707   2.761
93297W        W58524  41.817  24.704   2.375
93298W        W58525  24.272  19.799  10.663
93299W        W58526   0.661   7.958   2.216
93300W        W58527  23.646  15.330  13.273
93301W        W58528  19.973  39.808  13.839
93302W        W58529  15.829  29.693   4.309
93303W        W58530  16.318  43.914  11.296
93304W        W58531  43.425  39.451   2.394
93305W        W58532   9.639  36.637   1.887
93306W        W58533  40.734  31.519   3.187
93307W        W58534  22.083  29.347  11.223
93308W        W58535  23.606  31.121   1.231
93309W        W58536  44.305   0.291  13.466
93310W        W58537  39.188  22.207   2.325
93311W        W58538  31.338  20.098   4.761
93312W        W58539  28.076  25.516  14.241
93313W        W58540   3.304  27.561  14.864
93314W        W58541   3.676  32.063  14.670
93315W        W58542   0.360  37.242  12.108
93316W        W58543  20.392  27.706   1.191
93317W        W58544  42.642  44.510  13.591
93318W        W58545  38.734  19.761   2.806
93319W        W58546  24.626  22.933  14.450
93320W        W58547   2.061  37.441  12.010
93321W        W58548   2.266  18.371  10.696
93322W        W58549   2.214  33.403  12.979
93323W        W58550  42.283  13.630   4.286
93324W        W58551  23.503  42.260   2.369
93325W        W58552  22.060  31.049   0.927
93326W        W58553  33.463  24.217   5.088
93327W        W58554   5.809  18.551   3.066
93328W        W58555  39.371  35.575  14.199
93329W        W58556  21.676  35.814  12.671
93330W        W58557   6.219  31.863   0.425
93331W        W58558  26.895  20.882  12.387
93332W        W58559  15.701  37.867   0.068
93333W        W58560   7.240  13.479  14.872
93334W        W58561  17.055  27.220   4.366
93335W        W58562  17.718  42.539  12.819
93336W        W58563  39.910  36.177   0.934
93337W        W58564   0.585   8.976  14.925
93338W        W58565  38.272  27.080   1.794
93339W        W58566  16.155  15.528  11.094
93340W        W58567   6.730  29.745  11.611
93341W        W58568  41.375  22.646  13.853
93342W        W58569  13.177  37.630   0.388
93343W        W58570  17.147  25.767  12.064
93344W        W58571  44.285  44.738   4.703
93345W        W58572  38.816  25.550  12.605
93346W        W58573  15.186   4.837   0.148
93347W        W58574   3.316  24.203   2.026
93348W        W58575   8.161  12.615  12.924
93349W        W58576  32.698  34.569   0.767
93350W        W58577  25.971  44.813   4.436
93351W        W58578  38.937  20.770   4.579
93352W        W58579  23.585   9.399  13.748
93353W        W58580   6.822  24.132   0.475
93354W        W58581   3.010  19.092   4.709
93355W        W58582  41.822  18.064  13.960
93356W        W58583  15.725  24.467   2.773
93357W        W58584  15.034  33.518   0.870
93358W        W58585   1.961  18.658   1.421
93359W        W58586   1.433   5.918   0.268
93360W        W58587   4.405  27.209  12.501
93361W        W58588  25.173  39.378  13.593
93362W        W58589  41.540   8.273   3.432
93363W        W58590   3.591  29.077  10.595
93364W        W58591  13.993  35.678   3.717
93365W        W58592  28.872  27.185   9.460
93366W        W58593  28.169   8.520  11.717
93367W        W58594   4.207  28.556   2.385
93368W        W58595  34.235  34.799  12.380
93369W        W58596   7.445  13.778   1.754
93370W        W58597  35.087  36.039  14.734
93371W        W58598   5.908  36.277   0.465
93372W        W58599  17.657   5.115   3.667
93373W        W58600  44.882  29.530  11.158
93374W        W58601  31.143  17.229  11.582
93375W        W58602  31.091  36.848   0.336
93376W        W58603   7.705   8.579  11.290
93377W        W58604  14.591   3.099   4.657
93378W        W58605  22.280  11.568   1.252
93379W        W58606  12.376  33.387   3.108
93380W        W58607  32.667  32.313   1.463
93381W        W58608   6.137  11.861  11.437
93382W        W58609  23.695  41.696   0.421
93383W        W58610  42.594  16.023   3.809
93384W        W58611  33.766  35.968   1.158
93385W        W58612  31.390   6.410   1.832
93386W        W58613  39.916   6.672   3.303
93387W        W58614  13.656   4.720   4.564
93388W        W58615  30.177  19.413  14.568
93389W        W58616   7.821  41.430  12.468
93390W        W58617  26.993  23.606  12.045
93391W        W58618  24.253  13.540  14.633
93392W        W58619   4.249   8.788   2.403
93393W        W58620  26.738  13.239   4.175
93394W        W58621  17.313  27.755  14.198
93395W        W58622   0.684  38.503  13.110
93396W        W58623  20.589   3.818   0.833
93397W        W58624  34.856  37.096   1.645
93398W        W58625  24.736  30.445  12.803
93399W        W58626  24.523   2.195   2.669
93400W        W58627  23.374  40.883  14.826
93401W        W58628  23.414  31.217   2.424
93402W        W58629  37.040  29.025   4.285
93403W        W58630  18.119  17.152  14.104
93404W        W58631   4.867  37.149   2.949
93405W        W58632  23.948  17.221   0.857
93406W        W58633   4.390  31.754  14.207
93407W        W58634  37.450   3.782   2.354
93408W        W58635  15.254  10.401  13.016
93409W        W58636  19.169   6.476  13.837
93410W        W58637   4.954  33.643  14.029
93411W        W58638  35.521   8.268  14.940
93412W        W58639  22.441  40.444  12.167
93413W        W58640   6.663  41.973  13.927
93414W        W58641  14.718  38.867  13.703
93415W        W58642  10.679  27.721  10.438
93416W        W58643  14.560  28.800  13.548
93417W        W58644  32.325  38.053  14.925
93418W        W58645  32.068   3.624   4.731
93419W        W58646  23.292  38.596  12.469
93420W        W58647  11.870  38.944   0.372
93421W        W58648   5.818  42.467  13.245
93422W        W58649  23.880  40.909  14.734
93423W        W58650  27.023  22.695   2.889
93424W        W58651  25.594  31.572   0.742
93425W        W58652   5.885  28.174  10.252
93426W        W58653  33.692   7.665   3.260
93427W        W58654  33.487  17.759  10.677
93428W        W58655  11.674  37.040   4.074
93429W        W58656  41.890  19.170   3.476
93430W        W58657  34.757  35.000   1.442
93431W        W58658  39.833   4.873  12.588
93432W        W58659  43.773  32.642   0.414
93433W        W58660  28.179  21.200  14.833
93434W        W58661  36.287  19.093   4.166
93435W        W58662   3.830  13.853  13.837
93436W        W58663   7.896   7.431   2.840
93437W        W58664  28.166   1.283  10.661
93438W        W58665  30.967  25.130   3.183
93439W        W58666  27.839  21.200  12.490
93440W        W58667  13.894   1.585  13.198
93441W        W58668  43.412  11.784  13.033
93442W        W58669   4.964  10.262   0.074
93443W        W58670   8.101  17.448   1.301
93444W        W58671  43.963  27.197   1.390
93445W        W58672  22.603  42.762   2.193
93446W        W58673   7.232  17.564   0.389
93447W        W58674  32.545   6.041   2.472
93448W        W58675   7.298  28.742  12.867
93449W        W58676  11.182  13.076   0.835
93450W        W58677  36.059  13.757  13.440
93451W        W58678  35.568  33.911  13.397
93452W        W58679  34.861  29.611   2.729
93453W        W58680  15.314  32.508   3.713
93454W        W58681  36.563   4.707   0.352
93455W        W58682  40.959  32.899  11.012
93456W        W58683  13.125  14.408   1.070
93457W        W58684  25.138  44.412   3.287
93458W        W58685  34.396  24.600   3.084
93459W        W58686  35.925  40.807  10.632
93460W        W58687  38.845  23.535   0.916
93461W        W58688  15.632  20.349  14.477
93462W        W58689   9.244  38.136  11.555
93463W        W58690   8.182  42.909  10.597
93464W        W58691  28.567   5.153  13.886
93465W        W58692  11.703  40.905  11.880
93466W        W58693  26.066  21.528   2.108
93467W        W58694   4.453  11.373  12.950
93468W        W58695   4.715   7.909   2.660
93469W        W58696  40.505  10.004   4.524
93470W        W58697  19.797  24.061  12.008
93471W        W58698  40.860  41.764  12.333
93472W        W58699   1.258   9.272   4.391
93473W        W58700  42.143  22.454   0.386
93474W        W58701  19.475  33.110  13.303
93475W        W58702  14.521   2.847   3.665
93476W        W58703  24.882   2.426  12.387
93477W        W58704  18.831  17.820   1.303
93478W        W58705  15.460   4.759  10.336
93479W        W58706  41.020  44.292   2.677
93480W        W58707  30.969  27.976  13.004
93481W        W58708  17.336  28.828  11.639
93482W        W58709  36.762  21.234  10.441
93483W        W58710  27.453   3.971   4.670
93484W        W58711   4.418  36.035  12.858
93485W        W58712  16.239  25.254  14.667
93486W        W58713   7.174  12.756  12.973
93487W        W58714  11.806   5.941   1.369
93488W        W58715  19.680   6.149   0.424
93489W        W58716  31.807  38.097  14.933
93490W        W58717  25.060  31.237  12.229
93491W        W58718  39.032  10.132  11.223
93492W        W58719  19.269  13.664  10.777
93493W        W58720  17.181  31.692   0.001
93494W        W58721  26.130  44.554  13.839
93495W        W58722  44.485  31.103  13.804
93496W        W58723  29.382  17.851   2.460
93497W        W58724  39.365   5.569   2.586
93498W        W58725  19.908  27.881   1.380
93499W        W58726  21.259  10.681   1.812
93500W        W58727  16.080   1.688  13.099
93501W        W58728   4.793  19.279   4.714
93502W        W58729  30.591  21.939  13.446
93503W        W58730  17.631  16.500   0.766
93504W        W58731   4.311  14.482   0.084
93505W        W58732  18.082  43.930  14.787
93506W        W58733  40.437   6.442   2.254
93507W        W58734  34.625  27.359   1.334
93508W        W58735  28.151  26.356  13.896
93509W        W58736   2.671  34.403  13.900
93510W        W58737  33.715  39.959  10.984
93511W        W58738  10.348  25.630  11.169
93512W        W58739  25.943   3.646   4.403
93513W        W58740  42.848  32.546   4.066
93514W        W58741  20.083   6.970   0.246
93515W        W58742  36.793   5.345  10.295
93516W        W58743  28.210  28.169  12.562
93517W        W58744  29.428  34.106  10.373
93518W        W58745  37.153   2.468  12.011
93519W        W58746  10.344  28.794  11.139
93520W        W58747  24.276  18.927  11.562
93521W        W58748  40.354   4.397  13.997
93522W        W58749  41.720  23.451  13.438
93523W        W58750  33.515   3.586  11.218
93524W        W58751  16.661  36.804   4.624
93525W        W58752  39.452  38.529  13.077
93526W        W58753  12.112  11.193  11.645
93527W        W58754  12.824  27.708  12.894
93528W        W58755  33.393  37.043  14.982
93529W        W58756  38.743  42.655  14.888
93530W        W58757   1.347  36.208  11.262
93531W        W58758  12.158  40.412  13.466
93532W        W58759  19.857  40.166  13.474
93533W        W58760  38.596  38.961  12.021
93534W        W58761  23.046  28.089   3.380
93535W        W58762   0.202  12.289   1.786
93536W        W58763  37.676  25.506   4.485
93537W        W58764  14.178  21.983   0.209
93538W        W58765  13.280  36.035  11.277
93539W        W58766  42.902   8.798  11.154
93540W        W58767  11.629  33.054  12.616
93541W        W58768  16.489   0.034   4.079
93542W        W58769  15.550  11.829  14.192
93543W        W58770  18.184  14.000  14.887
93544W        W58771   3.785  13.633  13.389
93545W        W58772  39.972  28.751  10.857
93546W        W58773  29.431  37.637   2.623
93547W        W58774  21.212  30.698   4.942
93548W        W58775  14.787  18.045  13.547
93549W        W58776  29.028   2.468   4.521
93550W        W58777  21.627  16.422   0.403
93551W        W58778  41.603  13.742  11.988
93552W        W58779  43.807  26.117   2.402
93553W        W58780  41.513  13.069   0.434
93554W        W58781   2.561  12.604  13.921
93555W        W58782  17.120  37.327  14.924
93556W        W58783   0.747   7.507  10.031
93557W        W58784  28.667  33.159   1.284
93558W        W58785  30.554  38.622   4.003
93559W        W58786   0.839  42.856  13.541
93560W        W58787   6.759  35.589  11.986
93561W        W58788  41.399  21.798   3.219
93562W        W58789  24.020  36.845   0.455
93563W        W58790  28.478  39.116   3.150
93564W        W58791  35.214  29.918  12.099
93565W        W58792  29.207   3.962  11.494
93566W        W58793  30.598   0.618   3.180
93567W        W58794  35.621  43.589  11.931
93568W        W58795  22.462   4.680   2.008
93569W        W58796  42.485   1.930  10.705
93570W        W58797  21.462  42.380  13.495
93571W        W58798  40.139  32.147  12.047
93572W        W58799  43.652  36.855   1.989
93573W        W58800  17.606  33.553   4.480
93574W        W58801   1.832  25.113  12.336
93575W        W58802  26.495  32.081  12.899
93576W        W58803  14.255  16.046  13.544
93577W        W58804  34.200  15.462   1.285
93578W        W58805  16.335   4.466  13.385
93579W        W58806  18.067  12.275  11.552
93580W        W58807  12.836  21.863   4.243
93581W        W58808  38.249   1.498  11.044
93582W        W58809  43.291   6.170   1.904
93583W        W58810  39.772  39.728   3.104
93584W        W58811  32.734  15.217   2.629
93585W        W58812   9.369  20.723  14.678
93586W        W58813  10.324  13.309  11.066
93587W        W58814  14.994   4.252   3.346
93588W        W58815   7.179  12.526  11.206
93589W        W58816  20.039  36.812  13.870
93590W        W58817  31.413   7.098  12.936
93591W        W58818   4.988  27.355  11.036
93592W        W58819  30.930   1.036  11.553
93593W        W58820  31.552  33.453  10.750
93594W        W58821  42.388  30.290   4.216
93595W        W58822  31.896  13.578  14.622
93596W        W58823  43.014  17.215  14.412
93597W        W58824  35.144  38.513   3.407
93598W        W58825  38.084  21.456   2.721
93599W        W58826  36.990  22.794  11.527
93600W        W58827  29.110   0.720   2.648
93601W        W58828  42.155   9.611  11.551
93602W        W58829  32.491  27.595  11.989
93603W        W58830   9.322  24.956   2.917
93604W        W58831  15.149  44.425   0.913
93605W        W58832  35.633  23.015  12.844
93606W        W58833   4.920  40.915   1.641
93607W        W58834  26.678  24.906  10.823
93608W        W58835   6.433  41.481  14.797
93609W        W58836  15.637  19.511  12.495
93610W        W58837  28.721  34.468  11.978
93611W        W58838   9.433   3.488  13.435
93612W        W58839   3.827  31.719  13.490
93613W        W58840  41.440  18.164   3.298
93614W        W58841  41.952   1.472  14.458
93615W        W58842  23.097  24.466  12.986
93616W        W58843  21.735  14.342  12.207
93617W        W58844  44.633   7.514   4.262
93618W        W58845  21.056  23.552  12.115
93619W        W58846  44.557  27.883   2.395
93620W        W58847  26.444  15.680   1.814
93621W        W58848  43.445   6.234   1.382
93622W        W58849  35.015   5.637   4.179
93623W        W58850  16.392  36.795   3.483
93624W        W58851  16.757  30.568   1.286
93625W        W58852  24.223   0.479   3.990
93626W        W58853   3.080  24.731   2.240
93627W        W58854  37.427  13.298  12.389
93628W        W58855  36.251  42.983   2.437
93629W        W58856   9.401  36.052  11.557
93630W        W58857   2.024  17.013   3.715
93631W        W58858   2.761  35.507  12.513
93632W        W58859  41.541  11.174   4.366
93633W        W58860  14.094  27.253  14.535
93634W        W58861   9.869  14.628   1.706
93635W        W58862  10.994  40.385  12.632
93636W        W58863  42.010  41.821   2.269
93637W        W58864  25.102   9.207  10.631
93638W        W58865  30.510   1.905  14.226
93639W        W58866  31.661  17.780   1.885
93640W        W58867   5.164  24.339   3.522
93641W        W58868  29.450  33.543  11.557
93642W        W58869  24.770   5.410  12.886
93643W        W58870  10.944  18.747  13.640
93644W        W58871  32.589  10.422  11.493
93645W        W58872  17.192  23.506  14.637
93646W        W58873  13.152   5.227   3.326
93647W        W58874  34.880   7.362   1.687
93648W        W58875  23.157  27.643   4.092
93649W        W58876  27.263  10.732   0.995
93650W        W58877   5.066  38.303   3.573
93651W        W58878  29.531  16.538  10.770
93652W        W58879  44.895   6.743  13.288
93653W        W58880   4.216  37.715   0.784
93654W        W58881  16.598  28.117   0.962
93655W        W58882  33.613  25.444   4.252
93656W        W58883  17.851  12.243  13.972
93657W        W58884   9.052  17.729  11.976
93658W        W58885   4.403  36.824   3.670
93659W        W58886   7.699  42.872   1.417
93660W        W58887  43.360  40.824   1.681
93661W        W58888  17.797   4.371  14.770
93662W        W58889  35.885  25.901   2.438
93663W        W58890  34.891  12.353   3.932
93664W        W58891  16.142  19.832   4.008
93665W        W58892  33.955   7.520  10.710
93666W        W58893   5.392  40.982  12.111
93667W        W58894  37.039  19.802  11.061
93668W        W58895   2.886   5.275   4.833
93669W        W58896   0.457  13.648   4.810
93670W        W58897  23.434  34.679   3.786
93671W        W58898   8.484  44.501  12.684
93672W        W58899  13.188  12.299   0.653
93673W        W58900  44.325  29.299  12.045
93674W        W58901   8.126  27.110  14.905
93675W        W58902   8.812  26.234   1.484
93676W        W58903   3.349  44.256   3.218
93677W        W58904  42.498  39.486   4.349
93678W        W58905  16.157   9.869  11.981
93679W        W58906   4.493  33.296  10.242
93680W        W58907  41.547  22.189  13.585
93681W        W58908  37.916  41.738   2.414
93682W        W58909   9.964  21.292  10.191
93683W        W58910  17.734  20.473  12.854
93684W        W58911  22.367  11.472   0.759
93685W        W58912  43.579   5.739   1.952
93686W        W58913  34.455  15.274  13.155
93687W        W58914   8.174  32.653   4.081
93688W        W58915  28.165  33.525   0.530
93689W        W58916  24.418  33.994  13.069
93690W        W58917  31.303  14.607   0.635
93691W        W58918  38.585  35.147  13.003
93692W        W58919   1.107  44.798   4.115
93693W        W58920  30.678  30.461  11.972
93694W        W58921  40.559  18.011  14.773
93695W        W58922  20.135  21.825  13.943
93696W        W58923  10.438  41.700   2.673
93697W        W58924  20.252  39.297   1.849
93698W        W58925  31.255  43.858   2.354
93699W        W58926  39.875  37.003  13.353
93700W        W58927   4.903  22.479  13.470
93701W        W58928  44.035  19.677   3.152
93702W        W58929  16.821   9.694   2.528
93703W        W58930  33.682  32.290  12.455
93704W        W58931   0.234  18.571  10.745
93705W        W58932   3.825   9.649   0.592
93706W        W58933  11.252  30.470  14.044
93707W        W58934  27.943  11.261  14.022
93708W        W58935  34.844  11.086  14.907
93709W        W58936  28.193   2.434  13.998
93710W        W58937  31.614   8.112   4.646
93711W        W58938  29.096  39.318  10.449
93712W        W58939  36.652  39.625   4.112
93713W        W58940  23.611  16.895  14.659
93714W        W58941  21.575  11.353  12.174
93715W        W58942  15.229   1.580   4.829
93716W        W58943  32.579   8.862   0.843
93717W        W58944   3.802  44.409  10.500
93718W        W58945  28.384  16.123  14.770
93719W        W58946  31.116  31.077  12.343
93720W        W58947  40.986  25.755   2.841
93721W        W58948  16.520  18.260  14.056
93722W        W58949  29.499  36.278   9.867
93723W        W58950  32.299  16.252  11.304
93724W        W58951  41.577   3.261   5.292
93725W        W58952  17.883  34.317  13.794
93726W        W58953  33.628  20.016  11.708
93727W        W58954  42.332  32.901  13.852
93728W        W58955  14.511   0.304  14.536
93729W        W58956  33.057   5.057  14.412
93730W        W58957  24.731   5.267  14.800
93731W        W58958   3.169  24.181   3.654
93732W        W58959  20.586  41.977   4.550
93733W        W58960  12.949  41.823   0.435
93734W        W58961  35.568  39.802  14.853
93735W        W58962  31.630  38.939   0.274
93736W        W58963   0.674  24.775   3.782
93737W        W58964  16.648  25.021  14.888
93738W        W58965   8.775  40.884   2.421
93739W        W58966  34.788   7.686  14.046
93740W        W58967   7.896  29.040   0.519
93741W        W58968  21.832  15.181   0.002
93742W        W58969  22.991  44.444  14.906
93743W        W58970  31.142   2.492  12.957
93744W        W58971  38.014   1.207   0.854
93745W        W58972  16.622  23.539  10.796
93746W        W58973   2.241  32.656  11.340
93747W        W58974  27.632  11.782  12.809
93748W        W58975   3.414  17.200   5.145
93749W        W58976   1.216  17.299   2.361
93750W        W58977  28.134  36.579  12.890
93751W        W58978  32.177   3.385  10.818
93752W        W58979  14.745  38.361   1.921
93753W        W58980   3.354  15.058   3.154
93754W        W58981  26.530   1.488   2.738
93755W        W58982  27.783  28.970   1.728
93756W        W58983  19.282  29.457  13.979
93757W        W58984  32.649   7.379  14.728
93758W        W58985  33.493  34.081   3.976
93759W        W58986  38.824  23.042   2.448
93760W        W58987  44.351   4.526   0.355
93761W        W58988  40.229  21.191  11.625
93762W        W58989  30.611  41.749   3.750
93763W        W58990  16.966  16.576   4.652
93764W        W58991   8.878  15.851  13.097
93765W        W58992  14.165   5.498   4.527
93766W        W58993  17.611  24.087   0.883
93767W        W58994  28.974  34.758   2.673
93768W        W58995  37.967  35.321   0.804
93769W        W58996  37.388  11.738   5.013
93770W        W58997   8.584  33.997  13.442
93771W        W58998  36.547   0.901  11.031
93772W        W58999  42.943  42.595   1.913
93773W        W59000  37.591   1.157  12.047
93774W        W59001  36.173  38.397  11.471
93775W        W59002  39.426  41.365   4.273
93776W        W59003  14.641  23.014  13.204
93777W        W59004  40.881  36.577  12.609
93778W        W59005  27.296  40.547  13.381
93779W        W59006  31.758  38.304   4.537
93780W        W59007   8.209  31.005   4.719
93781W        W59008  10.433  26.882   4.492
93782W        W59009  17.115  25.271  14.823
93783W        W59010  35.850  24.001   2.417
93784W        W59011  39.859   6.874  10.751
93785W        W59012  15.733  14.696   4.587
93786W        W59013  28.632  24.104  11.404
93787W        W59014  20.441  38.083  14.384
93788W        W59015  21.629  28.173  12.437
93789W        W59016  43.982  19.124   3.285
93790W        W59017  36.238   8.805   3.556
93791W        W59018  17.815  16.681   2.339
93792W        W59019  32.199  21.073   0.963
93793W        W59020  29.088  14.278  14.992
93794W        W59021  10.690  33.485  14.253
93795W        W59022  23.425  27.646  13.428
93796W        W59023  17.616  22.341   1.293
93797W        W59024  40.353  10.468   4.657
93798W        W59025   1.799  18.837   4.881
93799W        W59026  11.747  17.121   0.370
93800W        W59027   2.034  44.029   2.611
93801W        W59028  36.813  20.048  14.024
93802W        W59029  23.961  22.182  12.966
93803W        W59030  36.345   5.846   1.728
93804W        W59031  41.602  28.185   1.669
93805W        W59032  36.965  22.552  14.028
93806W        W59033  33.920  38.971   3.330
93807W        W59034   8.406   1.867  10.852
93808W        W59035  28.660  42.245  12.977
93809W        W59036  33.011  15.340  12.733
93810W        W59037  39.142  34.587   2.899
93811W        W59038  26.988  22.565   2.401
93812W        W59039   5.148  19.675   1.691
93813W        W59040   5.818  41.473  11.053
93814W        W59041   7.591   9.027   3.560
93815W        W59042  37.709  18.348   1.692
93816W        W59043  14.606  27.212   0.398
93817W        W59044  12.504   5.680  13.785
93818W        W59045  21.692  10.133   2.886
93819W        W59046  25.882  35.399   3.234
93820W        W59047  31.675  42.730  14.313
93821W        W59048  18.140  21.200  13.233
93822W        W59049  20.099  21.975  13.431
93823W        W59050  12.837   4.333   1.398
93824W        W59051   4.955  26.619   9.936
93825W        W59052  36.844  15.616  12.959
93826W        W59053   7.349  30.166   2.769
93827W        W59054  13.285  13.220  11.117
93828W        W59055   0.593  18.576   3.511
93829W        W59056  20.196   6.487   1.137
93830W        W59057  13.617  33.432  13.040
93831W        W59058  15.024  17.469   2.819
93832W        W59059   8.677  32.687  10.749
93833W        W59060  19.117  42.034  13.360
93834W        W59061  25.609  43.891  14.129
93835W        W59062   2.578   0.308   2.591
93836W        W59063  23.125  41.623  13.765
93837W        W59064  38.804  22.280  14.464
93838W        W59065   8.926  28.056  12.500
93839W        W59066  39.372  32.063  10.980
93840W        W59067  29.473  40.782   1.380
93841W        W59068  31.477   5.008   2.696
93842W        W59069  21.078  43.028   3.310
93843W        W59070  43.725  26.684  14.463
93844W        W59071  12.263  36.061  10.914
93845W        W59072   1.054  38.840   4.592
93846W        W59073  34.724  16.316   2.710
93847W        W59074   8.393  26.072  12.051
93848W        W59075  14.572   5.798   3.318
93849W        W59076  22.034  30.660  12.352
93850W        W59077   2.927  22.021   0.944
93851W        W59078  39.320  41.369   1.671
93852W        W59079  17.952  27.045   3.237
93853W        W59080   2.395  28.550  14.295
93854W        W59081   9.333  18.016  11.611
93855W        W59082  19.150  10.304  14.431
93856W        W59083   8.731  17.954  11.002
93857W        W59084  37.527  37.793   1.694
93858W        W59085   4.479  44.587   3.006
93859W        W59086   2.068  44.321   3.043
93860W        W59087  36.567  41.455  12.598
93861W        W59088  23.218  44.982   2.884
93862W        W59089  13.093  15.120   2.094
93863W        W59090  10.353   9.884   5.010
93864W        W59091  23.978  42.560  13.403
93865W        W59092  26.437   0.548   2.757
93866W        W59093  36.600  32.375  12.113
93867W        W59094  35.007  15.804   3.997
93868W        W59095  44.400  18.871   3.136
93869W        W59096  36.986   6.256   1.922
93870W        W59097   3.084  44.082  12.552
93871W        W59098  27.169   1.510  13.526
93872W        W59099  15.114  29.197   1.272
93873W        W59100   0.493  25.574  10.486
93874W        W59101  20.804  19.191  12.542
93875W        W59102  11.016  15.408   4.133
93876W        W59103  11.782  18.730  10.381
93877W        W59104  16.356   8.312  13.368
93878W        W59105  43.708  10.312   1.819
93879W        W59106  19.290   1.369   1.429
93880W        W59107  14.809  16.299   1.719
93881W        W59108  28.374  13.455   4.538
93882W        W59109  43.437  27.107   9.973
93883W        W59110  43.194  12.737  12.716
93884W        W59111   2.855  41.484   3.566
93885W        W59112  13.705  38.709   1.174
93886W        W59113   4.094  40.909  12.123
93887W        W59114  11.039  20.318   3.622
93888W        W59115   3.228  37.912  12.093
93889W        W59116  33.105   5.909  11.520
93890W        W59117   0.378  30.968  14.538
93891W        W59118  36.124  22.949   0.794
93892W        W59119   5.951  27.462  12.895
93893W        W59120   7.269  34.702  14.323
93894W        W59121  13.832  11.931   3.176
93895W        W59122  34.657  20.106  11.757
93896W        W59123  29.898  21.367   4.180
93897W        W59124  42.639   6.813  10.138
93898W        W59125  22.663  38.781   2.475
93899W        W59126  16.124  42.480   4.523
93900W        W59127  34.302  41.930  13.866
93901W        W59128  29.112  37.323  14.410
93902W        W59129   7.984  30.679  12.652
93903W        W59130  40.541  23.482   2.691
93904W        W59131   1.122   9.797   3.492
93905W        W59132  13.278  18.095   4.607
93906W        W59133  38.398  16.351   1.249
93907W        W59134   5.681  19.737   1.776
93908W        W59135  27.461  37.102   2.527
93909W        W59136  31.972  14.397   0.769
93910W        W59137  13.874   3.714   1.855
93911W        W59138  23.911  21.611  14.664
93912W        W59139  35.999   8.605   0.698
93913W        W59140  36.191  28.255  13.486
93914W        W59141  35.079  37.343  14.447
93915W        W59142   8.429  43.094  13.112
93916W        W59143  25.097  34.920   3.398
93917W        W59144  30.535  14.578   2.859
93918W        W59145   1.324  24.647  13.320
93919W        W59146   4.422   3.253  14.828
93920W        W59147  18.393  29.487  11.321
93921W        W59148  42.385   0.940   2.696
93922W        W59149  24.479  42.121   3.956
93923W        W59150  12.021   0.253  13.471
93924W        W59151  34.466   6.232   4.054
93925W        W59152   5.439   4.393  12.858
93926W        W59153  19.581  41.314   0.922
93927W        W59154  31.982  31.831  11.539
93928W        W59155   9.436  25.152  12.839
93929W        W59156  21.805  22.219   4.210
93930W        W59157   2.735  44.829   3.575
93931W        W59158   2.889  26.092   2.782
93932W        W59159  13.506  27.139   3.456
93933W        W59160  33.071  35.106  13.822
93934W        W59161  13.585   0.963  14.757
93935W        W59162   3.500  15.358  14.066
93936W        W59163  31.769  35.355  14.855
93937W        W59164  19.497  33.430  12.888
93938W        W59165   1.866  33.136   0.794
93939W        W59166  44.081  31.007  13.039
93940W        W59167  22.174   4.661   4.930
93941W        W59168  25.649  35.341  13.992
93942W        W59169  27.615  31.056  11.418
93943W        W59170  18.691  24.220   0.431
93944W        W59171  20.449  26.256  12.681
93945W        W59172   5.079  41.398   1.937
93946W        W59173  11.815   8.754   1.587
93947W        W59174  28.043   8.742  14.691
93948W        W59175   7.983  28.966  14.866
93949W        W59176  28.776  44.428  12.156
93950W        W59177  41.516  23.056   0.364
93951W        W59178   4.793  42.507   4.529
93952W        W59179   3.760  41.711  10.749
93953W        W59180   2.566  13.128  13.788
93954W        W59181  21.363  19.250   0.642
93955W        W59182  21.719  40.592  13.801
93956W        W59183  10.414   7.822   3.666
93957W        W59184  29.415   1.015  12.911
93958W        W59185  39.028  13.591  12.512
93959W        W59186   6.042  19.111  11.906
93960W        W59187  16.803  28.888  12.423
93961W        W59188  17.229   8.649   2.251
93962W        W59189  10.698  43.091   4.391
93963W        W59190  10.223  26.900   2.911
93964W        W59191  25.317   1.763  10.265
93965W        W59192  30.069  28.891   2.650
93966W        W59193  20.130  26.510  10.078
93967W        W59194  26.617  37.214   4.962
93968W        W59195   0.895  22.303  14.506
93969W        W59196  19.542   0.753   3.103
93970W        W59197  19.706   5.232  14.333
93971W        W59198   6.820  30.079  14.005
93972W        W59199  14.560  39.094   3.701
93973W        W59200   5.420  25.038   0.222
93974W        W59201   1.969  13.146  11.113
93975W        W59202  25.672  37.444   2.349
93976W        W59203  25.724   0.267  14.433
93977W        W59204  27.441  31.641  12.104
93978W        W59205  44.925  29.439  14.956
93979W        W59206  32.358   7.400  13.004
93980W        W59207  21.775  21.826  12.916
93981W        W59208   1.616  29.292  10.601
93982W        W59209  25.854  18.696   0.915
93983W        W59210  44.204  13.238   1.862
93984W        W59211  44.507  28.932   1.210
93985W        W59212   0.962  12.595  11.522
93986W        W59213  13.113  15.085  10.798
93987W        W59214  20.555  40.572   2.806
93988W        W59215  34.311  43.346  12.257
93989W        W59216   8.433  12.512   3.994
93990W        W59217  15.844  13.781   1.899
93991W        W59218  24.131  36.358   3.407
93992W        W59219  30.035  17.074   3.331
93993W        W59220  26.957   7.693   4.893
93994W        W59221  13.078   6.172  11.307
93995W        W59222  20.853  14.399   1.288
93996W        W59223   8.712  33.496   1.743
93997W        W59224  41.887  22.781   1.230
93998W        W59225   1.253  17.569   4.535
93999W        W59226  18.776  44.098   1.468
94000W        W59227  34.591  12.629   4.246
94001W        W59228  31.920   5.989  14.924
94002W        W59229  17.195  35.812  10.218
94003W        W59230  21.427  17.281   4.574
94004W        W59231  17.120   0.019  10.555
94005W        W59232   5.427  41.332   0.254
94006W        W59233   4.167   6.373  12.879
94007W        W59234   0.021  41.918   1.141
94008W        W59235  42.827  31.933  11.599
94009W        W59236  23.017   9.390   0.867
94010W        W59237  13.243  41.391  10.067
94011W        W59238  41.839  18.649  10.700
94012W        W59239  30.982  28.509   5.429
94013W        W59240  42.896  37.479   2.138
94014W        W59241  12.463  38.238   4.489
94015W        W59242   7.601  35.377   3.716
94016W        W59243   3.313  13.813  14.206
94017W        W59244  36.990  11.283   1.811
94018W        W59245  22.582  37.061   1.626
94019W        W59246  21.648  23.987  13.839
94020W        W59247  41.192  24.780   1.838
94021W        W59248  33.911  27.471  13.906
94022W        W59249   6.974  31.033  12.978
94023W        W59250  43.000  35.982   4.574
94024W        W59251  36.973  16.988  12.513
94025W        W59252  10.386   0.950  12.982
94026W        W59253   4.697   2.221   4.639
94027W        W59254  15.562  40.733  12.444
94028W        W59255  43.853  33.128  14.281
94029W        W59256  10.268  13.687   0.826
94030W        W59257  19.519  37.458   3.214
94031W        W59258  40.439  44.789  11.114
94032W        W59259  41.932   0.361   3.857
94033W        W59260  19.974  33.990  12.504
94034W        W59261  22.365   1.999   4.994
94035W        W59262  19.622  17.777   2.327
94036W        W59263  13.239   2.627   4.241
94037W        W59264   1.172   6.120   3.624
94038W        W59265  39.041  21.134  10.094
94039W        W59266  31.512   9.351   0.880
94040W        W59267  27.678  36.790   2.163
94041W        W59268  14.604  17.607  13.357
94042W        W59269  43.433  27.931  10.435
94043W        W59270  15.416  44.685   1.399
94044W        W59271  44.510  28.785  14.393
94045W        W59272  28.985  17.271  13.839
94046W        W59273   3.681   1.358  11.672
94047W        W59274  14.286  15.644   4.544
94048W        W59275   1.800  16.920   3.264
94049W        W59276  24.973  18.350   9.994
94050W        W59277  11.777  34.068  14.040
94051W        W59278  24.811   9.594  13.852
94052W        W59279  13.222   7.600  11.389
94053W        W59280  38.360  37.622   0.701
94054W        W59281   5.234   8.812  10.898
94055W        W59282   3.454  11.242  12.032
94056W        W59283  44.811  10.192  13.032
94057W        W59284   3.569  16.126   0.823
94058W        W59285   0.270  10.869   4.546
94059W        W59286  21.786  30.462  11.926
94060W        W59287  37.463  31.471   0.663
94061W        W59288  43.311  43.205   0.220
94062W        W59289  38.878  12.356   1.967
94063W        W59290  16.844  26.622   1.262
94064W        W59291  31.028  17.381  13.375
94065W        W59292  16.540   2.050  12.354
94066W        W59293  44.400  29.008  11.599
94067W        W59294  24.906   5.780   1.896
94068W        W59295  27.443  20.064  14.472
94069W        W59296   8.344   8.870  13.379
94070W        W59297  30.405  43.971  13.616
94071W        W59298   8.372  22.708   1.806
94072W        W59299  41.314  35.628   2.228
94073W        W59300   6.662   5.883  14.350
94074W        W59301  28.560  40.381  13.174
94075W        W59302  12.570   4.940  13.466
94076W        W59303   2.284  14.056   1.174
94077W        W59304  37.339   0.898  14.045
94078W        W59305  35.676  10.827  14.947
94079W        W59306   6.281  26.215  10.999
94080W        W59307  17.129   4.934  13.685
94081W        W59308  31.658   3.697   1.332
94082W        W59309  26.703  42.514  11.615
94083W        W59310   7.782   9.353   4.494
94084W        W59311  19.595  25.923  14.186
94085W        W59312  35.283   2.261   4.365
94086W        W59313  41.378  14.087  10.654
94087W        W59314  15.236   2.252  14.031
94088W        W59315  20.528  14.203   4.608
94089W        W59316  31.557  24.232   3.481
94090W        W59317  29.450  11.880  10.765
94091W        W59318   4.320  35.090  14.908
94092W        W59319  17.332  15.526  13.408
94093W        W59320  16.775  14.358  14.448
94094W        W59321  10.852  28.641   2.045
94095W        W59322  33.651  38.817   3.735
94096W        W59323  37.544  29.087  10.252
94097W        W59324   4.918  43.517   5.482
94098W        W59325  35.057  42.332  12.009
94099W        W59326   2.216  20.254  13.425
94100W        W59327   6.047  30.384   0.235
94101W        W59328  27.746  10.713  14.340
94102W        W59329  14.162  34.334  12.627
94103W        W59330  11.693  20.691  10.802
94104W        W59331  19.033   9.494   2.282
94105W        W59332  38.783  22.619  12.116
94106W        W59333  41.917  23.885   2.764
94107W        W59334  19.979  29.183   0.934
94108W        W59335  35.973  10.251  11.462
94109W        W59336  20.122  42.839   1.476
94110W        W59337   1.702  29.750  10.366
94111W        W59338   5.757  27.629   1.013
94112W        W59339   5.908  12.885  13.506
94113W        W59340   4.165  27.030  12.032
94114W        W59341  13.403   9.358   0.792
94115W        W59342  10.356  27.859  12.379
94116W        W59343   8.090  31.943  14.254
94117W        W59344  33.269  26.566  10.025
94118W        W59345  12.822  34.652   4.682
94119W        W59346  11.102  10.909  14.920
94120W        W59347   3.737  14.866   3.561
94121W        W59348  13.176  36.629   3.101
94122W        W59349  25.655   6.808   2.330
94123W        W59350  25.619  31.801  10.639
94124W        W59351  11.193  32.655   2.680
94125W        W59352   2.654  12.900   1.600
94126W        W59353  15.705  13.781   4.600
94127W        W59354  17.731  38.400  11.155
94128W        W59355  26.201  27.185   1.218
94129W        W59356   8.139  23.720   1.978
94130W        W59357  26.959  33.056   2.711
94131W        W59358  29.697  19.073   2.360
94132W        W59359   9.180  42.174  13.867
94133W        W59360   0.159   7.414   4.273
94134W        W59361   2.768  11.182  11.486
94135W        W59362  36.835   1.909  10.614
94136W        W59363  34.170  34.374   2.829
94137W        W59364   7.836   6.891   2.886
94138W        W59365  18.205  15.223  14.084
94139W        W59366   0.972  11.026   2.710
94140W        W59367   2.209   6.309  12.900
94141W        W59368  10.907  41.329   4.756
94142W        W59369  22.515   1.143   3.189
94143W        W59370   1.053  23.052  13.943
94144W        W59371  15.649  17.761   0.414
94145W        W59372  41.318  25.895   4.650
94146W        W59373  41.454  11.371   4.823
94147W        W59374  39.886   5.270  12.245
94148W        W59375  44.754   7.916   0.846
94149W        W59376  39.429   7.789   5.156
94150W        W59377  36.761  30.998  14.783
94151W        W59378  25.055  21.093  14.601
94152W        W59379  43.390  37.112   0.044
94153W        W59380  31.470  35.372   3.672
94154W        W59381  40.423  43.813   3.717
94155W        W59382  44.966   3.140  10.477
94156W        W59383  10.639  25.688   2.412
94157W        W59384  39.329  41.977  13.389
94158W        W59385  40.842  22.824  14.450
94159W        W59386  42.987  18.460  11.469
94160W        W59387  33.308  31.431   2.904
94161W        W59388   3.764  26.578  12.191
94162W        W59389   1.812  21.971   4.195
94163W        W59390  37.902  27.934  12.094
94164W        W59391   5.311  37.098   3.199
94165W        W59392  16.286  20.793  10.920
94166W        W59393  25.694  21.407   0.261
94167W        W59394  19.336  37.801   1.637
94168W        W59395  16.182  24.527   3.611
94169W        W59396  24.820   5.891   0.925
94170W        W59397  17.757  11.691   4.568
94171W        W59398  17.808  41.263   2.224
94172W        W59399  18.777  36.717  13.924
94173W        W59400  25.393  24.682   0.792
94174W        W59401  38.772  31.423  11.187
94175W        W59402  14.646  33.769   2.855
94176W        W59403  41.216  35.765  13.979
94177W        W59404  19.105  28.342   1.574
94178W        W59405   3.276  30.647  10.322
94179W        W59406   2.765  19.586   2.137
94180W        W59407   1.219   2.774  14.970
94181W        W59408   6.982  29.155  12.918
94182W        W59409  21.191   6.357  11.569
94183W        W59410   5.903   3.749  11.859
94184W        W59411  31.390   2.871   2.766
94185W        W59412  21.282  15.200   2.849
94186W        W59413  22.708  14.431  10.132
94187W        W59414  13.719  29.033   0.238
94188W        W59415  15.242  28.111  12.520
94189W        W59416  29.874   6.182   2.927
94190W        W59417  40.547  12.573  13.286
94191W        W59418  15.067  32.690  12.440
94192W        W59419  29.705   3.159  12.611
94193W        W59420  20.483  44.643   2.243
94194W        W59421  37.185  11.828  11.605
94195W        W59422  21.144  23.917  11.100
94196W        W59423   2.019  18.671   3.880
94197W        W59424   4.538  41.600   2.490
94198W        W59425  33.040  29.047   1.058
94199W        W59426  38.740  22.811  14.339
94200W        W59427  24.611  27.565   3.412
94201W        W59428  35.967  22.747  13.950
94202W        W59429  10.181  29.472  12.990
94203W        W59430  27.984  37.529  12.898
94204W        W59431   7.136  23.033   1.372
94205W        W59432  32.886  22.312  10.693
94206W        W59433  34.115   4.161  11.001
94207W        W59434   4.449  16.347  13.692
94208W        W59435  19.691  37.311  14.837
94209W        W59436  17.632   1.274  13.871
94210W        W59437  34.096   0.998   1.569
94211W        W59438  10.758  13.933   0.851
94212W        W59439   5.662  37.551   0.525
94213W        W59440  35.916  43.554   1.277
94214W        W59441  16.136  36.586  13.102
94215W        W59442  10.349   5.923   0.535
94216W        W59443  40.733  28.474   0.437
94217W        W59444   4.408  37.509  14.816
94218W        W59445  14.614  36.973  12.907
94219W        W59446  18.860  38.343   3.654
94220W        W59447  16.912   0.344  14.342
94221W        W59448  24.233  44.975  12.570
94222W        W59449  25.400  43.820   0.374
94223W        W59450   5.414  14.525  11.105
94224W        W59451   9.893   6.346   3.413
94225W        W59452  41.598  39.412   3.241
94226W        W59453  37.986  31.387   0.704
94227W        W59454   2.663   7.132   3.829
94228W        W59455  15.699  42.504  12.338
94229W        W59456  23.989  31.657  11.920
94230W        W59457   1.503  36.036  12.853
94231W        W59458  30.724  24.563  11.690
94232W        W59459  32.906  10.367   4.081
94233W        W59460  32.367  21.116  11.607
94234W        W59461  42.623  16.152  12.530
94235W        W59462  31.754  42.110  13.028
94236W        W59463  29.724  14.856   3.541
94237W        W59464  33.034  28.601  14.717
94238W        W59465  33.947  27.411  11.965
94239W        W59466  30.196  42.827  10.430
94240W        W59467  33.990  26.522  14.935
94241W        W59468  22.958  14.550   3.698
94242W        W59469  29.009  39.956   4.153
94243W        W59470   0.318  15.955   3.631
94244W        W59471  24.283   1.573   4.920
94245W        W59472  43.828  44.494  10.673
94246W        W59473  17.043  11.694  11.930
94247W        W59474  10.026  39.961   3.229
94248W        W59475   7.232  31.443   4.212
94249W        W59476  33.023   3.230   2.753
94250W        W59477   3.395   2.319  12.394
94251W        W59478  26.132   1.928  10.872
94252W        W59479   9.601  44.396  14.880
94253W        W59480  40.860  10.223   3.380
94254W        W59481  21.882   6.049   2.746
94255W        W59482   5.955  25.535   0.044
94256W        W59483   6.886  36.618   0.263
94257W        W59484  35.596  42.023   3.427
94258W        W59485  44.575  38.530   1.815
94259W        W59486  34.415  41.421   0.528
94260W        W59487   6.936   5.641  13.982
94261W        W59488  29.663   1.773  14.339
94262W        W59489  37.085   5.972   2.914
94263W        W59490   5.562  42.000   3.292
94264W        W59491  18.488  40.210  13.352
94265W        W59492  22.454  36.387  11.580
94266W        W59493  39.614   7.789   5.654
94267W        W59494   3.659   8.761  12.515
94268W        W59495   1.295  24.153  10.779
94269W        W59496  12.810  35.622  12.005
94270W        W59497  43.041   4.151   0.525
94271W        W59498  32.312  34.462   2.137
94272W        W59499  38.045  44.426  14.213
94273W        W59500  18.736  24.196  12.517
94274W        W59501  34.023  33.935  13.113
94275W        W59502  38.200  40.182   3.009
94276W        W59503  22.034  20.374   0.126
94277W        W59504  10.407  30.237  12.872
94278W        W59505  14.481  22.461  12.500
94279W        W59506  15.968  23.412   0.910
94280W        W59507   2.523   2.835   2.215
94281W        W59508  43.898  22.569   2.401
94282W        W59509  40.560  43.337   1.291
94283W        W59510   4.005  30.216  12.124
94284W        W59511  17.373   5.847   1.205
94285W        W59512  12.869  29.630   2.406
94286W        W59513   6.868  39.640   2.888
94287W        W59514  40.515   8.070   3.695
94288W        W59515   7.301  10.318  10.887
94289W        W59516   7.281   3.206   1.981
94290W        W59517   2.758   4.767  10.538
94291W        W59518  11.816  26.607  14.414
94292W        W59519  32.778  14.397   5.276
94293W        W59520  43.225  11.900  10.670
94294W        W59521  39.328   6.418   4.023
94295W        W59522  17.107  44.318   2.798
94296W        W59523   4.444  32.332  10.753
94297W        W59524  27.493   4.306   0.492
94298W        W59525  24.092  34.665  14.054
94299W        W59526  36.965  36.868  14.911
94300W        W59527  20.221   2.308   0.723
94301W        W59528  23.229  25.186  12.101
94302W        W59529  11.824  24.559  11.488
94303W        W59530   8.861  27.527   0.817
94304W        W59531  38.107  31.347  13.905
94305W        W59532  35.527  44.365  11.608
94306W        W59533  26.939  23.525  10.732
94307W        W59534  43.870   9.378   0.184
94308W        W59535  31.941   7.928  13.921
94309W        W59536   0.546   4.400  14.782
94310W        W59537  10.178  37.337   3.737
94311W        W59538   9.336  44.228  14.022
94312W        W59539  31.014  34.823  14.298
94313W        W59540  19.713  31.967  14.855
94314W        W59541   3.290   5.806   2.634
94315W        W59542   7.138   3.703  11.120
94316W        W59543  34.441   0.324  11.037
94317W        W59544  24.254   3.774  14.860
94318W        W59545  11.206  32.878   1.607
94319W        W59546   1.364  33.738   0.063
94320W        W59547   1.800  34.680  13.355
94321W        W59548   7.781   7.385  12.841
94322W        W59549  35.844   8.573  11.297
94323W        W59550  15.322   6.197  13.739
94324W        W59551  14.039  18.296   3.349
94325W        W59552  18.426  22.155  11.197
94326W        W59553  40.201  13.195   4.153
94327W        W59554   2.345  21.688  14.959
94328W        W59555  38.515  10.066   3.724
94329W        W59556  29.279  43.098  12.550
94330W        W59557  18.175  17.599  14.868
94331W        W59558  36.022  13.111  11.344
94332W        W59559  10.218   0.018  14.100
94333W        W59560  17.786   7.401  12.436
94334W        W59561  29.364  13.105   1.695
94335W        W59562  28.185  17.218  11.592
94336W        W59563  21.777  32.593   3.710
94337W        W59564  25.964  41.966  12.525
94338W        W59565  43.765  38.024   0.034
94339W        W59566   3.796   1.191   3.756
94340W        W59567  38.537  14.548  13.036
94341W        W59568  38.973  32.169  11.716
94342W        W59569  23.488  29.008   4.096
94343W        W59570   0.831  44.609  12.974
94344W        W59571  42.370  33.444   2.109
94345W        W59572  36.943  20.254   0.817
94346W        W59573  35.950  12.998  10.365
94347W        W59574  10.187  29.602   4.660
94348W        W59575  12.549  34.022  12.032
94349W        W59576  42.855  32.840   4.484
94350W        W59577  15.179  21.993  11.641
94351W        W59578  35.304  13.551  12.945
94352W        W59579  10.405  44.630   0.019
94353W        W59580   6.353  32.381   5.093
94354W        W59581   2.547  20.826   9.667
94355W        W59582  18.524   2.704  11.163
94356W        W59583  25.696  13.195  11.603
94357W        W59584  35.640  34.192   1.805
94358W        W59585  20.695  31.699   2.872
94359W        W59586   5.793   7.628  11.080
94360W        W59587  16.151  30.724  14.504
94361W        W59588  10.278  38.931   0.962
94362W        W59589  39.099  27.656  12.581
94363W        W59590  41.903  34.688   3.138
94364W        W59591  31.121  16.692   4.537
94365W        W59592  25.092  12.751   2.772
94366W        W59593  35.782  10.218   4.560
94367W        W59594   7.905  35.473   3.300
94368W        W59595  30.382  28.514   1.843
94369W        W59596  34.707  44.511   1.594
94370W        W59597  26.447  10.665   1.391
94371W        W59598  31.718  31.661   5.587
94372W        W59599   0.656   3.890  12.772
94373W        W59600   7.468  32.645  11.418
94374W        W59601  20.200  17.828   2.782
94375W        W59602  37.411  35.997   0.933
94376W        W59603  26.620  30.796  14.042
94377W        W59604   1.532   2.973  12.989
94378W        W59605  43.520  13.315   4.044
94379W        W59606  26.538  15.248  13.352
94380W        W59607  17.713  16.059  13.356
94381W        W59608  38.531   0.612  12.956
94382W        W59609  27.914  13.835   4.163
94383W        W59610  25.366  43.900  14.742
94384W        W59611  44.737  40.241  10.664
94385W        W59612  20.202  11.117  11.179
94386W        W59613  42.480  15.827   2.352
94387W        W59614   5.251  38.770   3.318
94388W        W59615  43.337  43.828   1.484
94389W        W59616  31.039  24.798  13.077
94390W        W59617  13.256  13.769  13.433
94391W        W59618  40.336   1.030  11.656
94392W        W59619  14.658  19.129   0.745
94393W        W59620  17.468  18.521  10.626
94394W        W59621   0.959  25.654   1.181
94395W        W59622  43.497  32.357   4.184
94396W        W59623  44.184  40.381   4.827
94397W        W59624   7.032  21.166   1.720
94398W        W59625   7.208   5.028   4.828
94399W        W59626  42.705  14.362  11.068
94400W        W59627  39.114   9.221   4.119
94401W        W59628   2.041  19.792   0.482
94402W        W59629  38.372  11.324   1.569
94403W        W59630  27.496   7.244  14.536
94404W        W59631  35.424  24.013  10.924
94405W        W59632  40.631  13.774   0.955
94406W        W59633  18.701  44.704   3.252
94407W        W59634  18.572   0.520   2.434
94408W        W59635  44.970  28.458  13.507
94409W        W59636  36.986  22.162  10.823
94410W        W59637  10.457  31.203  12.756
94411W        W59638  31.919  39.880  10.389
94412W        W59639  34.898   4.836   1.727
94413W        W59640  18.302  40.444  12.023
94414W        W59641  44.735  41.852   4.410
94415W        W59642  44.696  36.602   4.617
94416W        W59643  17.156  41.679   2.172
94417W        W59644  32.462  16.629  13.348
94418W        W59645  10.916  38.005  14.714
94419W        W59646  33.454  14.556  12.319
94420W        W59647  44.459  34.294   5.121
94421W        W59648   3.715  27.711   1.658
94422W        W59649  10.339   1.714   2.715
94423W        W59650  25.178  14.745  12.595
94424W        W59651   1.360  21.108   0.432
94425W        W59652  44.750   7.289  10.788
94426W        W59653  24.362  21.615  12.324
94427W        W59654  16.182   1.937   1.267
94428W        W59655  20.960  10.144   0.465
94429W        W59656  44.055  33.211  13.800
94430W        W59657  18.750  44.319  12.967
94431W        W59658  22.699  10.162   4.264
94432W        W59659  32.528  15.104  12.793
94433W        W59660  36.068  14.244   3.389
94434W        W59661  33.128   5.026  10.934
94435W        W59662  21.529  36.562  11.804
94436W        W59663  33.455  44.429  10.977
94437W        W59664  44.887  22.156  14.075
94438W        W59665   8.353   5.790  13.700
94439W        W59666  32.776  19.559  11.131
94440W        W59667  16.754   1.442  14.247
94441W        W59668  14.385  31.651   4.784
94442W        W59669  23.304  23.160  12.919
94443W        W59670  29.557  22.000  12.928
94444W        W59671  40.414  11.455  12.851
94445W        W59672  43.703  30.459   0.688
94446W        W59673  32.543  30.897  14.888
94447W        W59674  19.537  13.703  12.540
94448W        W59675  15.659  18.752  13.201
94449W        W59676  43.546  20.660   2.374
94450W        W59677   9.312  39.997  13.471
94451W        W59678   3.242  41.682   4.266
94452W        W59679  35.214  26.476  10.514
94453W        W59680  25.715  17.763  11.196
94454W        W59681   4.727  16.647   4.607
94455W        W59682  11.458  16.753  11.107
94456W        W59683   3.284  23.611   4.022
94457W        W59684  29.217  19.252  13.044
94458W        W59685  11.314  13.311   1.300
94459W        W59686  19.666  13.228   4.822
94460W        W59687  12.384  39.497   0.677
94461W        W59688  13.669  26.550  14.056
94462W        W59689  19.414  27.368   0.009
94463W        W59690  14.980   3.358  12.889
94464W        W59691   4.945  17.341   1.775
94465W        W59692   3.368  37.092  14.865
94466W        W59693  41.804  34.226  12.097
94467W        W59694  27.580  43.771   4.462
94468W        W59695  12.563  38.904  14.013
94469W        W59696   7.631  39.075   4.072
94470W        W59697  19.206  11.170  12.665
94471W        W59698   9.593  11.869   3.655
94472W        W59699   0.357   2.345  13.854
94473W        W59700  21.028   1.945   0.773
94474W        W59701  30.508   2.079  14.714
94475W        W59702  18.139  29.014   4.643
94476W        W59703   8.903  28.049  14.518
94477W        W59704  13.155  35.476   2.355
94478W        W59705  20.115  37.508  13.109
94479W        W59706  22.709  24.674   0.877
94480W        W59707  39.296  37.055  11.390
94481W        W59708   1.560  17.729   1.168
94482W        W59709  12.882  22.925  12.079
94483W        W59710  32.832   6.333   0.999
94484W        W59711  35.288  12.785   4.862
94485W        W59712  36.776  16.671   2.573
94486W        W59713  29.627  31.270  14.789
94487W        W59714  18.204   3.734   1.344
94488W        W59715  22.873   6.861   4.881
94489W        W59716   9.813  42.814   4.314
94490W        W59717  24.773  26.118   1.150
94491W        W59718   7.080  27.971   3.931
94492W        W59719  12.237  31.948   3.494
94493W        W59720  34.290  43.867  11.460
94494W        W59721  42.824   5.740   4.759
94495W        W59722  28.179  25.652   1.204
94496W        W59723  40.323  16.012   4.929
94497W        W59724  26.057  24.897  11.925
94498W        W59725  39.726  17.753   4.368
94499W        W59726   0.975  36.010  12.964
94500W        W59727  31.602  28.131  12.292
94501W        W59728   3.122  23.219  11.106
94502W        W59729   4.496  39.343  11.525
94503W        W59730  15.876   1.054  11.629
94504W        W59731  21.837  10.132  11.612
94505W        W59732  43.210  15.708   4.884
94506W        W59733  30.525  32.413   4.128
94507W        W59734  35.992  20.095  10.714
94508W        W59735  18.205  11.164  11.172
94509W        W59736  28.205  15.084   2.474
94510W        W59737  28.957  17.566  11.677
94511W        W59738  15.174  31.497   0.371
94512W        W59739   1.130   7.331   3.145
94513W        W59740   1.883   7.739   4.602
94514W        W59741  30.029  29.491   3.222
94515W        W59742  18.929   0.990  14.811
94516W        W59743  18.508   9.415   0.769
94517W        W59744  21.977  27.383  13.281
94518W        W59745   2.435  41.198   5.024
94519W        W59746  22.424  31.416   0.839
94520W        W59747  22.445  43.486   1.924
94521W        W59748  32.940   2.465   0.126
94522W        W59749  24.275  12.789  12.981
94523W        W59750  36.332  13.836   0.914
94524W        W59751  35.578  28.453  14.316
94525W        W59752  34.378  10.189  14.853
94526W        W59753  16.590  23.032  10.848
94527W        W59754  27.230  16.162  11.235
94528W        W59755  30.104  16.086   2.358
94529W        W59756  24.548  28.942  14.091
94530W        W59757  28.482  23.800  14.326
94531W        W59758  26.855  22.770  14.001
94532W        W59759  27.017  11.745  11.165
94533W        W59760  15.242  35.484  11.116
94534W        W59761   0.193  10.383   1.893
94535W        W59762  44.932   2.938   1.221
94536W        W59763  21.291   9.438   1.192
94537W        W59764  31.673   1.332   1.790
94538W        W59765  12.389  12.909  12.997
94539W        W59766  41.608  33.839  11.458
94540W        W59767  22.939  32.309   2.382
94541W        W59768  22.615  25.882  12.499
94542W        W59769   2.924  29.991   1.094
94543W        W59770  31.868  31.909  13.356
94544W        W59771  38.625  23.055   3.523
94545W        W59772  32.432  20.282  11.222
94546W        W59773   9.384  27.516  14.903
94547W        W59774  16.598   2.567  13.314
94548W        W59775   2.648  10.764  14.879
94549W        W59776   1.386  11.134  13.985
94550W        W59777  20.349   0.378   5.001
94551W        W59778  17.814  12.295  12.964
94552W        W59779  30.492  25.950   5.473
94553W        W59780  20.195  22.419  13.669
94554W        W59781  11.096  29.861   0.321
94555W        W59782  21.338  39.970   2.078
94556W        W59783  14.214  20.538  14.266
94557W        W59784  36.442  35.472   1.324
94558W        W59785  39.298  28.468   0.047
94559W        W59786  24.584  30.857   0.393
94560W        W59787  33.393  30.173  14.504
94561W        W59788  40.987  25.803   0.589
94562W        W59789  29.447  34.119   4.532
94563W        W59790  27.544   8.113  11.943
94564W        W59791  39.972   3.309  13.582
94565W        W59792  31.584  11.055  11.161
94566W        W59793  33.081  15.326  14.170
94567W        W59794  33.587  15.561  13.226
94568W        W59795  14.824  39.866  12.017
94569W        W59796  12.824   7.161   1.367
94570W        W59797  31.497   4.773   2.216
94571W        W59798  17.661  31.462   4.178
94572W        W59799  24.138   3.398   5.211
94573W        W59800   8.208  20.642   1.807
94574W        W59801  31.060  28.251  10.585
94575W        W59802  42.881  21.167  14.825
94576W        W59803  41.179  36.489  10.577
94577W        W59804   3.935  14.567   4.530
94578W        W59805  13.555  27.962  11.205
94579W        W59806   2.016  43.422   0.167
94580W        W59807   0.266  22.652   0.745
94581W        W59808  23.111   9.707   3.431
94582W        W59809   5.809  27.181  11.610
94583W        W59810  20.455  24.888   3.068
94584W        W59811  19.052  16.287  13.085
94585W        W59812   3.898  11.857  10.292
94586W        W59813  14.481  21.084  13.405
94587W        W59814  25.645  37.503   1.291
94588W        W59815   8.252  32.065  12.357
94589W        W59816   8.704  15.268  11.489
94590W        W59817  33.542  38.623  14.738
94591W        W59818  16.381  24.835  11.995
94592W        W59819  21.542  39.370   2.110
94593W        W59820   7.351  34.185   1.082
94594W        W59821  24.191  30.669   2.767
94595W        W59822  22.634  43.791  11.211
94596W        W59823   8.392  18.483  13.240
94597W        W59824   6.965  29.066   2.235
94598W        W59825  28.930  33.695  13.989
94599W        W59826  12.381  32.906   3.577
94600W        W59827  21.077  41.332   4.119
94601W        W59828  24.672  21.979  12.979
94602W        W59829  27.222   4.393   0.906
94603W        W59830  29.854  25.947  14.411
94604W        W59831  23.568   6.517  13.192
94605W        W59832  12.317   6.482  10.759
94606W        W59833  16.294  37.260   4.628
94607W        W59834   0.197  40.305  13.471
94608W        W59835  34.570  14.154   3.811
94609W        W59836   7.269  13.608   0.863
94610W        W59837  13.583  40.591   4.144
94611W        W59838  38.736  36.032   1.821
94612W        W59839   9.392  37.777  13.163
94613W        W59840   4.995  28.099   2.688
94614W        W59841  13.248   1.808   0.457
94615W        W59842   9.542  39.793   3.246
94616W        W59843  22.158  30.707  12.849
94617W        W59844  39.365  38.980  11.500
94618W        W59845   3.256  28.707   4.012
94619W        W59846  18.789   3.187  10.885
94620W        W59847  18.815  32.983   4.416
94621W        W59848  26.549  44.772  14.621
94622W        W59849  33.616  20.502   3.690
94623W        W59850  14.135  25.935  12.173
94624W        W59851   8.640  36.956  11.897
94625W        W59852  43.050   5.980  14.861
94626W        W59853   3.214  31.604   0.386
94627W        W59854  42.997  11.104   2.813
94628W        W59855  38.250  31.722   1.509
94629W        W59856  20.036  43.858   0.710
94630W        W59857  11.954  30.488   4.073
94631W        W59858   9.264  20.156   4.125
94632W        W59859  12.217   0.941   3.562
94633W        W59860  25.170  44.033   3.669
94634W        W59861  30.449  36.828  14.427
94635W        W59862  40.511  38.884   0.391
94636W        W59863  30.282  33.786  12.880
94637W        W59864   2.093  36.689   2.887
94638W        W59865  31.530  13.017  12.053
94639W        W59866   1.709  26.950  11.840
94640W        W59867  23.308  22.306   2.249
94641W        W59868   2.692  29.678  13.399
94642W        W59869   6.979  28.698  11.619
94643W        W59870  16.326  21.767   0.296
94644W        W59871   1.286   3.073   4.797
94645W        W59872  16.622  18.152   4.660
94646W        W59873  14.485  32.827   3.604
94647W        W59874  33.369  43.236   0.814
94648W        W59875   4.759  13.853  13.889
94649W        W59876  36.601  29.796  12.197
94650W        W59877  15.366  31.160   2.212
94651W        W59878  29.638  44.199   0.153
94652W        W59879  43.230  17.175  14.908
94653W        W59880   7.688  41.825  11.549
94654W        W59881  20.127  44.396   0.736
94655W        W59882  16.276  38.634   0.934
94656W        W59883   3.694   3.972  14.596
94657W        W59884   1.158  42.262   4.067
94658W        W59885  27.537  23.986   0.980
94659W        W59886  36.628  18.858   2.708
94660W        W59887  16.660  29.161  10.696
94661W        W59888   7.776  28.650   0.217
94662W        W59889   2.534  32.837   2.070
94663W        W59890  30.335  11.829  13.341
94664W        W59891   8.479  26.230  12.596
94665W        W59892   9.772  21.027  11.974
94666W        W59893   2.166  19.800   1.319
94667W        W59894  40.318  44.761   1.207
94668W        W59895  28.474  25.906  13.237
94669W        W59896  34.748   2.173   2.485
94670W        W59897   9.145  44.250  11.086
94671W        W59898  34.765  31.076  11.869
94672W        W59899  29.985  18.205   1.914
94673W        W59900  12.792  43.560  11.695
94674W        W59901  28.576   4.453   1.815
94675W        W59902   4.300  41.417   3.390
94676W        W59903   6.132   7.624  10.281
94677W        W59904  31.592  25.549   0.273
94678W        W59905  16.110  43.067   1.853
94679W        W59906   1.356  12.632  12.486
94680W        W59907  29.029  40.990  13.086
94681W        W59908  37.048  41.208   1.453
94682W        W59909  22.826  32.295   1.804
94683W        W59910  12.878  41.546  12.119
94684W        W59911  44.004   4.126  13.085
94685W        W59912  41.819   2.972  11.176
94686W        W59913   3.898  19.752   0.499
94687W        W59914  19.021  34.330   1.336
94688W        W59915   8.302  44.229  13.081
94689W        W59916  28.949  25.077   3.162
94690W        W59917  38.633   4.329  10.563
94691W        W59918  22.210  31.897   0.882
94692W        W59919   1.015   9.082  10.560
94693W        W59920  12.330  42.854   0.953
94694W        W59921  33.414  33.874   0.852
94695W        W59922  20.798   5.195  10.582
94696W        W59923  11.049  42.065   3.774
94697W        W59924  13.665  43.990   3.699
94698W        W59925  37.486  38.811  14.494
94699W        W59926  31.688  43.978  11.919
94700W        W59927  20.659   8.332   4.602
94701W        W59928  29.983   0.700   1.310
94702W        W59929  44.860  17.767  11.953
94703W        W59930   6.632  18.738   1.954
94704W        W59931  15.357  17.803  12.029
94705W        W59932  39.526  26.546   2.394
94706W        W59933  12.808  38.939   5.010
94707W        W59934  41.416  16.703   2.473
94708W        W59935  24.147   3.857  13.570
94709W        W59936  21.744  10.387   0.254
94710W        W59937   0.309  37.837  10.750
94711W        W59938  42.266  32.049  14.198
94712W        W59939   2.040  25.927   4.510
94713W        W59940  16.707  30.560   0.749
94714W        W59941  20.066  21.132  14.239
94715W        W59942  27.454  25.678   0.433
94716W        W59943  12.831  32.458  12.805
94717W        W59944  17.522  37.823  12.698
94718W        W59945  42.983   2.182   0.327
94719W        W59946   8.283  36.403   4.111
94720W        W59947  34.421  43.663   1.472
94721W        W59948  16.280  20.946   1.160
94722W        W59949  22.517  24.042   0.859
94723W        W59950  16.606  29.116   0.261
94724W        W59951  35.827  40.512  11.045
94725W        W59952   0.764  37.486   1.205
94726W        W59953   5.490  23.664   0.488
94727W        W59954   0.863  19.008  11.211
94728W        W59955  44.460  44.243   4.639
94729W        W59956   6.708  11.583  13.465
94730W        W59957  23.552  30.144   2.218
94731W        W59958  27.464  38.454  13.667
94732W        W59959  20.068  39.081   0.941
94733W        W59960  18.598  35.254   3.967
94734W        W59961  26.690  36.469  11.107
94735W        W59962   1.350  13.148  12.568
94736W        W59963  42.473   8.536  11.027
94737W        W59964  11.896  14.621  11.621
94738W        W59965  24.712   6.692   3.195
94739W        W59966  35.924  29.776  11.513
94740W        W59967  29.674  44.370  13.943
94741W        W59968  44.275   4.267   4.013
94742W        W59969  16.727   1.472  12.943
94743W        W59970  14.191  29.919  11.577
94744W        W59971  36.985  44.742   0.376
94745W        W59972  29.003  26.116  14.516
94746W        W59973  28.846  38.380  13.934
94747W        W59974  12.798  38.923   0.325
94748W        W59975  29.793   5.856  12.882
94749W        W59976  39.936  34.045   1.852
94750W        W59977   8.128  34.510   4.392
94751W        W59978  20.715   3.710   0.339
94752W        W59979  20.086  41.479  14.708
94753W        W59980  31.162   7.061   2.741
94754W        W59981  29.558   5.269   3.934
94755W        W59982  13.577  27.142  10.444
94756W        W59983  35.409  11.277   1.751
94757W        W59984  32.106  29.085  11.036
94758W        W59985  11.682  12.329  10.539
94759W        W59986  15.849  41.633   2.811
94760W        W59987  16.390   0.690  14.037
94761W        W59988  25.495  38.757   0.710
94762W        W59989  44.709  28.102   1.679
94763W        W59990  12.260   0.350   4.346
94764W        W59991  22.609  44.835  10.563
94765W        W59992  43.411  36.381  13.437
94766W        W59993   9.970   6.210   0.955
94767W        W59994  30.534  31.594   2.708
94768W        W59995  20.483   9.725   3.293
94769W        W59996  10.207   3.273   1.314
94770W        W59997  15.595   6.409  12.830
94771W        W59998   9.177  35.678   3.865
94772W        W59999   5.438  37.007  13.742
94773W        W60000  29.907  44.951  11.189
94774W        W60001   0.415  32.866   0.669
94775W        W60002  28.231  21.468   9.907
94776W        W60003  27.092  29.766   0.868
94777W        W60004  31.563  13.978   0.781
94778W        W60005  28.817  25.555   3.321
94779W        W60006  17.313  12.206   4.200
94780W        W60007  26.627  20.048   3.239
94781W        W60008  16.724  38.439  12.980
94782W        W60009  44.203   2.424   1.155
94783W        W60010  23.616   2.862   4.706
94784W        W60011  28.949  15.345   4.527
94785W        W60012  39.789  15.822  13.431
94786W        W60013  36.948  37.354  12.392
94787W        W60014  43.895  15.064  11.051
94788W        W60015   0.874  41.176   0.698
94789W        W60016   5.270  38.003  14.018
94790W        W60017  26.973  33.425  13.002
94791W        W60018  38.465  33.150  11.062
94792W        W60019  40.261  36.276   2.729
94793W        W60020   7.701  37.279  13.546
94794W        W60021  33.256  24.056   3.172
94795W        W60022   6.369  36.318   4.566
94796W        W60023  36.794  41.406  11.880
94797W        W60024  37.835  32.223   4.558
94798W        W60025  38.120  32.822  12.146
94799W        W60026  24.621  34.968   3.675
94800W        W60027   8.248  10.607  12.996
94801W        W60028  38.467  14.258  14.693
94802W        W60029  39.329  44.493  13.836
94803W        W60030  16.187  15.970   0.460
94804W        W60031  34.600  36.593  11.308
94805W        W60032  27.781  34.846   0.375
94806W        W60033  33.532  17.774  13.894
94807W        W60034   8.192   5.383   3.679
94808W        W60035  37.832  36.496  14.531
94809W        W60036  19.706  41.955   2.721
94810W        W60037   5.334  39.104   2.336
94811W        W60038   7.735  41.792  13.841
94812W        W60039  25.763  14.178  10.535
94813W        W60040  37.115  10.740  12.994
94814W        W60041  44.887   8.115  10.603
94815W        W60042  14.046  41.493   4.192
94816W        W60043  35.578   9.325  14.469
94817W        W60044  10.186  30.702  11.587
94818W        W60045  32.507  35.910   2.272
94819W        W60046  11.045  10.167   0.265
94820W        W60047  39.002  27.836   4.192
94821W        W60048  13.413  18.976  11.680
94822W        W60049  44.716  31.907  12.892
94823W        W60050   4.837  41.160   0.276
94824W        W60051  23.710  20.099   1.849
94825W        W60052  23.136  29.512   3.731
94826W        W60053  44.128  29.123   3.265
94827W        W60054   6.760  32.603  11.895
94828W        W60055   3.176  12.426  14.963
94829W        W60056  39.856  13.274  13.106
94830W        W60057   6.449  35.813  13.857
94831W        W60058  14.671  21.341  12.917
94832W        W60059  31.543  43.134   4.066
94833W        W60060  17.645  11.621   2.719
94834W        W60061  25.073  31.302  10.362
94835W        W60062  40.265  36.914   2.188
94836W        W60063  21.967  42.466  11.443
94837W        W60064  37.562  13.778  12.485
94838W        W60065  28.403  26.769   1.220
94839W        W60066  21.916  41.488   0.786
94840W        W60067  29.420   8.517   4.532
94841W        W60068  43.681   5.884  13.796
94842W        W60069  11.786  29.051   3.962
94843W        W60070  21.881   2.961   4.040
94844W        W60071   5.397   6.250  12.953
94845W        W60072   8.755  43.652   1.520
94846W        W60073   8.657  26.440   1.031
94847W        W60074   5.736  26.586   4.674
94848W        W60075  43.691  27.548   5.106
94849W        W60076  25.075  36.266  12.200
94850W        W60077  29.581  36.307   3.227
94851W        W60078   5.907  31.527  11.385
94852W        W60079  22.030  16.222   2.417
94853W        W60080  26.129  37.404  13.526
94854W        W60081  17.563  15.633   2.894
94855W        W60082  26.859  23.607   1.922
94856W        W60083  20.701   9.180  12.321
94857W        W60084  16.118  12.264  14.759
94858W        W60085  25.097  44.669  11.500
94859W        W60086  34.872  21.450  11.885
94860W        W60087  11.305   8.299  10.717
94861W        W60088  23.247  39.040  11.892
94862W        W60089  39.401  21.095   1.936
94863W        W60090   8.907  14.095   4.471
94864W        W60091  21.052  34.995   0.758
94865W        W60092  40.747  10.160   2.860
94866W        W60093  15.811  10.678   1.822
94867W        W60094   6.769   9.608   0.338
94868W        W60095  13.931  41.039  11.096
94869W        W60096  32.354  20.582  10.826
94870W        W60097  37.626  34.406   3.791
94871W        W60098   2.881  29.262  14.715
94872W        W60099  41.624  25.468   4.506
94873W        W60100  40.449  11.907   9.940
94874W        W60101   2.877  38.630   1.789
94875W        W60102  27.735  35.376  11.926
94876W        W60103  29.471  19.953  11.182
94877W        W60104  40.537   1.250  12.179
94878W        W60105  43.367  36.383   4.636
94879W        W60106  27.542  29.683  14.021
94880W        W60107  29.249   5.978   0.771
94881W        W60108  19.572  40.869  14.996
94882W        W60109  11.664  26.404  11.530
94883W        W60110  40.905  13.573   4.589
94884W        W60111  21.756   3.462  14.791
94885W        W60112  10.396   4.872   2.371
94886W        W60113  15.668   2.318  14.297
94887W        W60114  14.234  24.713  14.489
94888W        W60115  15.244  36.988   2.655
94889W        W60116  17.261   0.656  11.677
94890W        W60117  28.033  40.215   4.628
94891W        W60118  22.586  42.718  13.424
94892W        W60119  30.023   9.371   4.815
94893W        W60120  16.831  20.086   3.161
94894W        W60121  39.388  44.436   0.794
94895W        W60122  23.494  11.360   3.687
94896W        W60123  24.796  11.412   1.876
94897W        W60124   4.677  41.804  10.755
94898W        W60125  15.314  10.556  10.789
94899W        W60126  32.952  12.427   4.153
94900W        W60127   7.825  39.873   2.400
94901W        W60128   4.826  32.388  11.953
94902W        W60129   6.022  41.408   2.663
94903W        W60130  14.985   9.308   1.698
94904W        W60131  33.955  30.172  12.331
94905W        W60132  30.511   5.450  13.486
94906W        W60133  24.996  17.298   1.694
94907W        W60134  10.664  22.151   0.865
94908W        W60135  19.909  10.549  11.565
94909W        W60136   2.908  25.583  12.655
94910W        W60137  20.522  34.831   0.028
94911W        W60138   5.940  14.277  11.179
94912W        W60139  33.104  42.372  11.310
94913W        W60140  10.329   3.371   2.820
94914W        W60141  19.652  16.700   4.713
94915W        W60142  24.677  14.377  13.396
94916W        W60143  28.081  43.809   1.166
94917W        W60144  43.570  27.115  14.212
94918W        W60145  33.767   4.181   0.325
94919W        W60146  14.030   4.779   2.357
94920W        W60147  24.689   5.134   1.397
94921W        W60148  39.159  14.830  14.778
94922W        W60149   9.657  31.446  10.564
94923W        W60150   5.517  17.882  10.262
94924W        W60151  19.715  11.133  12.374
94925W        W60152  19.278  11.088  11.375
94926W        W60153   7.820  33.322  13.395
94927W        W60154   1.694  40.490  10.851
94928W        W60155  33.713  40.799  13.402
94929W        W60156  44.326  31.572  12.453
94930W        W60157  44.554   6.880  11.921
94931W        W60158  34.462  14.056   1.827
94932W        W60159  20.117  12.261  10.400
94933W        W60160  20.715   8.337  14.292
94934W        W60161   3.868   6.931  13.439
94935W        W60162  13.666  37.135   5.052
94936W        W60163  43.151  44.414   3.725
94937W        W60164  36.107   6.579   1.382
94938W        W60165  35.051  44.942   4.255
94939W        W60166   5.676  24.655   0.511
94940W        W60167  25.106   7.412   4.409
94941W        W60168  18.441   1.443   2.208
94942W        W60169   3.826  38.827   4.576
94943W        W60170   9.806  32.394  13.920
94944W        W60171  33.183  44.818  14.897
94945W        W60172  15.579   8.903  14.380
94946W        W60173  29.955   4.345  14.818
94947W        W60174  12.424  30.942  13.719
94948W        W60175  25.102  23.666   0.683
94949W        W60176   4.869  24.513   0.513
94950W        W60177  37.774  29.155   5.097
94951W        W60178   0.775  26.010   3.291
94952W        W60179   7.749  34.027   2.604
94953W        W60180  32.200   9.738  13.282
94954W        W60181  40.058   3.347   4.986
94955W        W60182  13.324   7.359  13.788
94956W        W60183  20.584  20.825   2.734
94957W        W60184  43.831  23.130   2.227
94958W        W60185  23.522  26.959  11.437
94959W        W60186  16.508  31.066   2.187
94960W        W60187  31.847  43.046   1.715
94961W        W60188  43.266  17.528   3.214
94962W        W60189   4.457  39.123   2.285
94963W        W60190  15.276  38.290   3.335
94964W        W60191  36.633  43.962   0.995
94965W        W60192  28.916  10.283   3.046
94966W        W60193  41.199   1.533  12.583
94967W        W60194  25.739  12.960   1.392
94968W        W60195   5.696  15.245   4.889
94969W        W60196  28.113   1.121  11.151
94970W        W60197  28.140   8.088   2.139
94971W        W60198   1.829  17.635   3.703
94972W        W60199  41.550  10.003   2.700
94973W        W60200  14.569   4.896  10.718
94974W        W60201  20.178  12.259   1.814
94975W        W60202   7.244  44.741   1.323
94976W        W60203   0.645  15.620   2.748
94977W        W60204  43.814  22.214  14.816
94978W        W60205  40.758  36.596  11.530
94979W        W60206  13.049  44.419   1.851
94980W        W60207   2.495  22.204   3.747
94981W        W60208  13.852  40.527   2.387
94982W        W60209  11.590  25.527  10.576
94983W        W60210  31.534  14.070  13.019
94984W        W60211  35.734  38.572  14.494
94985W        W60212   9.631  35.593  14.111
94986W        W60213  21.052  11.794  10.633
94987W        W60214  11.782  44.663  11.158
94988W        W60215   4.990  18.343   3.393
94989W        W60216  15.854  22.895  12.934
94990W        W60217  14.640  34.650  12.047
94991W        W60218   5.405   6.571   4.964
94992W        W60219  35.396  36.963   2.818
94993W        W60220  34.949   3.464   3.603
94994W        W60221  42.528  21.478   9.461
94995W        W60222  22.532  40.880  14.028
94996W        W60223  29.255  28.261   5.028
94997W        W60224  36.782   7.699   1.679
94998W        W60225  34.636   1.863  12.458
94999W        W60226   5.759  19.726  12.623
95000W        W60227  21.044  22.891   4.119
95001W        W60228  11.851  20.426   3.938
95002W        W60229   1.947  24.455   3.267
95003W        W60230   3.001  14.080   0.314
95004W        W60231  12.337   0.408  14.094
95005W        W60232  26.404   9.957   1.922
95006W        W60233   3.649   1.624  13.792
95007W        W60234  42.699  19.794   0.055
95008W        W60235  17.311  13.733  14.522
95009W        W60236  16.315   5.297   2.314
95010W        W60237  15.293  25.395   1.208
95011W        W60238   7.682   0.347   1.814
95012W        W60239  30.300  19.055  12.114
95013W        W60240  18.361  39.610   3.284
95014W        W60241   8.267  44.309   1.241
95015W        W60242   9.270  30.911  13.525
95016W        W60243  40.368  18.378  11.358
95017W        W60244   5.873   6.313   0.978
95018W        W60245  37.679  16.141  14.927
95019W        W60246  32.342  34.441  12.182
95020W        W60247  26.465  29.064   1.339
95021W        W60248  21.612  39.235  14.759
95022W        W60249  28.830  27.650   2.944
95023W        W60250  31.817  39.862  11.382
95024W        W60251  34.695  12.372  13.871
95025W        W60252  38.852  17.185  10.780
95026W        W60253  20.060  26.993  10.413
95027W        W60254  27.236  28.356  13.932
95028W        W60255   3.005   1.502   4.542
95029W        W60256  37.820  19.611  12.331
95030W        W60257  27.168  36.064   2.211
95031W        W60258  14.828  35.794  10.231
95032W        W60259  26.457  28.102  13.845
95033W        W60260  20.201  30.743   4.157
95034W        W60261  38.436  23.652  12.134
95035W        W60262  31.048  32.567  11.002
95036W        W60263  28.150  10.646  12.538
95037W        W60264  34.841   3.758  13.488
95038W        W60265  23.694  39.702   0.423
95039W        W60266  20.856  40.951   3.649
95040W        W60267  24.663  25.617  13.469
95041W        W60268  25.195  21.676  11.954
95042W        W60269  33.147  17.028  10.361
95043W        W60270   4.376  41.430  13.531
95044W        W60271  29.525  32.781   1.963
95045W        W60272  19.726   6.614  10.699
95046W        W60273  27.236  42.786  10.694
95047W        W60274   6.490  16.338  14.575
95048W        W60275  25.513   9.203  12.640
95049W        W60276   3.208   0.644  10.091
95050W        W60277  16.149   5.191  12.156
95051W        W60278  25.050  16.069   4.058
95052W        W60279  36.855  22.101  13.034
95053W        W60280   6.132  15.222   3.042
95054W        W60281   3.488  32.196   2.067
95055W        W60282  40.375  23.531   4.267
95056W        W60283  44.814   1.902  12.462
95057W        W60284   4.522  33.419  14.772
95058W        W60285  15.400  30.861  12.548
95059W        W60286  20.986  12.986   3.290
95060W        W60287   0.769  11.989   0.506
95061W        W60288  28.119  36.471   0.926
95062W        W60289  27.565  39.218  12.967
95063W        W60290  36.919  34.080   1.292
95064W        W60291  19.376  28.892   2.187
95065W        W60292  21.324  26.417   4.156
95066W        W60293  36.986  36.198  13.417
95067W        W60294  24.940   8.684   3.066
95068W        W60295  39.285  18.036  12.055
95069W        W60296  40.865  21.362  11.141
95070W        W60297  28.278  20.969   1.235
95071W        W60298  37.778  28.569   0.360
95072W        W60299  13.647  25.305  12.659
95073W        W60300  43.444   9.062  12.433
95074W        W60301  36.972  17.314  14.883
95075W        W60302  19.811   8.870  12.852
95076W        W60303  37.866  26.173  13.444
95077W        W60304  19.095  29.086   0.536
95078W        W60305  15.813   7.801  10.836
95079W        W60306  40.953  25.750  13.626
95080W        W60307  26.670   3.230  13.306
95081W        W60308  12.713  22.313  13.072
95082W        W60309  27.613  32.891  13.014
95083W        W60310  10.142  33.013   9.853
95084W        W60311  38.551  15.803  10.367
95085W        W60312   1.454  35.388   1.899
95086W        W60313  36.412  15.806   2.338
95087W        W60314   0.231  31.445  13.289
95088W        W60315  31.968  38.402   2.221
95089W        W60316  40.943   6.971  12.639
95090W        W60317   5.155  39.630   1.375
95091W        W60318  30.163  17.685   4.832
95092W        W60319  11.918  11.568  12.348
95093W        W60320   8.323  33.161  13.504
95094W        W60321  31.934   9.271   4.406
95095W        W60322  35.919  36.468   3.252
95096W        W60323  32.314  37.428   1.118
95097W        W60324   7.793  16.038   1.671
95098W        W60325  13.541   5.281  14.248
95099W        W60326  41.513   3.177  10.210
95100W        W60327  21.359  36.783  11.080
95101W        W60328  39.013  29.367  10.976
95102W        W60329   3.353   7.964  11.916
95103W        W60330  26.811  34.947   3.216
95104W        W60331  39.472  19.414  10.691
95105W        W60332  11.681  42.063  12.023
95106W        W60333   6.684  15.734   1.047
95107W        W60334   0.354  16.699  13.619
95108W        W60335  38.825  29.931   0.977
95109W        W60336   3.763  28.130  12.007
95110W        W60337   7.090   8.977   3.406
95111W        W60338   0.716  24.659  11.993
95112W        W60339   0.505   6.757  14.106
95113W        W60340   1.237  21.390  12.549
95114W        W60341  26.992  10.303  14.325
95115W        W60342  18.745  40.792  11.524
95116W        W60343  20.066  21.879   4.101
95117W        W60344  33.470   2.120   2.220
95118W        W60345  37.404   1.873   1.486
95119W        W60346  35.848  23.882   3.637
95120W        W60347   8.278   3.661  11.521
95121W        W60348  15.398  19.532  12.959
95122W        W60349  40.921  35.562   4.963
95123W        W60350  43.658  20.564  14.304
95124W        W60351  20.862  42.307   4.252
95125W        W60352   1.072  38.439   3.331
95126W        W60353  15.047   5.350   3.378
95127W        W60354   9.922  39.391  11.395
95128W        W60355  15.946  44.202  11.017
95129W        W60356  31.904  11.928  10.726
95130W        W60357  40.122  19.555  11.261
95131W        W60358   0.552  15.497  12.345
95132W        W60359  35.166   5.162   2.687
95133W        W60360   0.994   5.853  14.938
95134W        W60361  32.600  41.440   2.586
95135W        W60362  21.066  40.641   1.822
95136W        W60363  18.699  43.299   1.859
95137W        W60364  19.846  43.020   5.063
95138W        W60365  42.776  34.038  14.829
95139W        W60366  32.644  25.593   2.687
95140W        W60367  27.480   4.926   3.191
95141W        W60368  23.534  15.217   2.126
95142W        W60369  33.511  26.663   5.307
95143W        W60370  23.871  18.539  11.098
95144W        W60371  35.191  44.726   1.748
95145W        W60372   1.782   2.492   0.283
95146W        W60373  36.534  35.002  14.962
95147W        W60374  41.353  25.799  12.416
95148W        W60375  40.876  26.130   3.770
95149W        W60376  17.898  41.785  13.932
95150W        W60377  13.823   3.667   2.764
95151W        W60378   5.458  21.540  11.315
95152W        W60379   6.667   4.821   1.847
95153W        W60380  17.198  26.431  14.719
95154W        W60381   3.479  17.624   3.177
95155W        W60382  33.832  30.469  14.551
95156W        W60383  36.894  24.840   2.431
95157W        W60384  24.654   3.714  13.593
95158W        W60385   3.087  35.029   2.368
95159W        W60386   3.430   4.217   1.674
95160W        W60387  24.006  38.959  14.038
95161W        W60388  25.390  28.952   1.502
95162W        W60389  17.892  38.352  14.983
95163W        W60390  34.182  23.029  11.610
95164W        W60391   1.367  14.783   4.782
95165W        W60392  17.339  42.511  13.502
95166W        W60393  24.614   9.403  12.455
95167W        W60394  16.290  35.563  10.741
95168W        W60395  15.421  28.664   3.666
95169W        W60396  28.496   3.483  10.498
95170W        W60397  44.438  39.428  10.345
95171W        W60398  25.324  41.114   0.772
95172W        W60399  29.819  10.062  10.886
95173W        W60400   6.445   0.064  10.685
95174W        W60401   6.202  25.896   2.830
95175W        W60402  42.520   7.355  13.504
95176W        W60403   0.580  36.408   2.848
95177W        W60404   9.107  36.949  14.911
95178W        W60405  26.000  29.210   0.591
95179W        W60406   4.273  35.811   2.367
95180W        W60407  26.023   2.699   0.455
95181W        W60408  32.792  20.518   2.895
95182W        W60409  17.854  40.815  10.739
95183W        W60410  18.075  10.094   0.030
95184W        W60411   1.172  35.895   1.116
95185W        W60412   1.370  35.338  12.453
95186W        W60413  20.500   8.123   0.783
95187W        W60414  15.643  10.905  12.351
95188W        W60415  19.153  44.526   0.358
95189W        W60416  21.274  32.625   4.210
95190W        W60417   3.466  16.604  14.818
95191W        W60418   7.870   2.445   3.664
95192W        W60419  17.350  12.930  10.207
95193W        W60420  44.140   0.153  10.292
95194W        W60421   1.745  33.605  14.141
95195W        W60422   2.307  32.152  11.458
95196W        W60423   9.311  26.533   2.699
95197W        W60424  33.350   1.923   1.767
95198W        W60425   9.142  22.609   3.001
95199W        W60426  40.814  29.642  13.400
95200W        W60427  39.397   3.752   4.178
95201W        W60428  15.084  22.415   4.356
95202W        W60429   1.880  42.863   1.410
95203W        W60430  42.724  39.977   3.352
95204W        W60431  26.205  37.938  14.756
95205W        W60432  29.403   6.889   4.946
95206W        W60433  12.442  30.543   2.219
95207W        W60434   9.524  26.614   3.202
95208W        W60435   6.777  31.503   2.887
95209W        W60436  44.049  17.788  14.015
95210W        W60437  34.622  38.456   3.439
95211W        W60438   3.404  18.333   1.996
95212W        W60439  21.585  21.633  12.080
95213W        W60440  13.758  30.467  12.536
95214W        W60441   7.003  36.806   1.402
95215W        W60442  14.588  22.710   1.853
95216W        W60443  40.076  30.794   1.664
95217W        W60444   7.457  40.062   4.042
95218W        W60445  34.387  33.499   1.315
95219W        W60446  21.455  27.950   4.068
95220W        W60447  44.899  26.010   3.710
95221W        W60448  28.610  28.046  13.070
95222W        W60449  15.678   1.323   1.167
95223W        W60450  16.535  32.449  11.110
95224W        W60451  36.760  10.404   4.010
95225W        W60452  29.136  26.200   2.514
95226W        W60453   0.002  34.459  11.570
95227W        W60454  10.768   3.360   2.295
95228W        W60455  30.171  29.910   2.969
95229W        W60456  21.639  44.629   1.577
95230W        W60457  23.961   7.136   3.597
95231W        W60458  11.897   6.836  13.817
95232W        W60459  23.223   4.024  10.664
95233W        W60460   0.786  15.111   4.065
95234W        W60461  28.600   6.181   3.307
95235W        W60462  18.219   9.411  12.650
95236W        W60463   6.583  10.140   2.145
95237W        W60464  17.109  18.070   1.386
95238W        W60465  13.007   8.389  11.039
95239W        W60466  28.532  40.362   2.020
95240W        W60467  21.555  38.446   4.663
95241W        W60468  17.854  30.226  12.537
95242W        W60469  32.530  14.753  12.069
95243W        W60470   3.216   1.844   2.090
95244W        W60471  24.350   1.462  12.434
95245W        W60472  32.010  44.002  11.039
95246W        W60473  32.521  11.254  12.810
95247W        W60474  34.001   6.113   1.530
95248W        W60475  10.436  11.938   2.103
95249W        W60476  20.072   7.454   0.418
95250W        W60477  40.930  38.397  13.089
95251W        W60478  43.852  20.078  12.607
95252W        W60479   4.900  43.714  13.601
95253W        W60480  37.971  13.627   1.182
95254W        W60481   7.723  38.068  14.471
95255W        W60482  32.158   3.697   0.249
95256W        W60483  31.989  21.646  13.762
95257W        W60484  37.911  19.694  13.555
95258W        W60485   6.796  20.591   2.443
95259W        W60486  11.439   3.949   3.245
95260W        W60487  17.189  24.587   0.447
95261W        W60488   6.353   3.348  12.912
95262W        W60489  22.236  29.692   1.480
95263W        W60490   7.608   6.926  12.919
95264W        W60491  16.726   4.787   0.057
95265W        W60492  14.587  20.070   1.919
95266W        W60493  15.263  41.004   4.403
95267W        W60494   6.340   6.178   5.086
95268W        W60495   4.682  40.516   3.266
95269W        W60496   6.796  25.570  12.554
95270W        W60497  28.305  11.039   3.685
95271W        W60498  27.924  15.168   4.470
95272W        W60499  26.157   6.024  13.945
95273W        W60500  29.536  43.800   0.446
95274W        W60501  17.269   0.916  13.848
95275W        W60502  17.217   9.406   3.676
95276W        W60503  44.520  39.879  14.228
95277W        W60504  12.578   7.283   4.728
95278W        W60505   6.922  30.363   1.302
95279W        W60506  35.598  25.116   4.087
95280W        W60507  31.835  33.455   2.601
95281W        W60508  34.982  37.590   1.203
95282W        W60509  12.370  27.108   0.821
95283W        W60510  27.006  15.939  12.958
95284W        W60511   1.023   4.880  13.028
95285W        W60512  40.827  36.126  10.739
95286W        W60513   4.998  22.084   4.041
95287W        W60514  17.535  21.886   0.525
95288W        W60515  15.136  44.094   2.237
95289W        W60516  23.936  37.885  11.544
95290W        W60517  18.124  29.116  11.064
95291W        W60518  13.769  44.447  13.635
95292W        W60519  27.605  28.021  13.859
95293W        W60520  32.372  33.655  11.089
95294W        W60521  10.355  20.131  10.692
95295W        W60522  18.118  38.006  13.316
95296W        W60523   8.177  19.522  13.767
95297W        W60524   0.019  22.895  11.867
95298W        W60525  41.546  22.212   2.703
95299W        W60526   5.848  21.233  12.538
95300W        W60527  39.262  42.587   2.894
95301W        W60528  43.460  28.665  11.958
95302W        W60529  21.752   7.221   2.117
95303W        W60530   7.406  24.211   2.226
95304W        W60531  14.238   2.916   2.762
95305W        W60532  43.390  18.115  13.506
95306W        W60533  25.229  18.511  11.460
95307W        W60534  19.075  41.002   0.000
95308W        W60535  44.646  15.169  13.484
95309W        W60536  36.125   4.280   3.772
95310W        W60537  42.112  14.637   4.109
95311W        W60538  38.455  31.079   2.197
95312W        W60539  39.317   7.628  13.964
95313W        W60540  24.994  36.522   2.765
95314W        W60541   2.782   5.092  11.986
95315W        W60542  13.615  28.364   4.300
95316W        W60543   8.908  37.598   3.265
95317W        W60544  35.027  18.344  12.467
95318W        W60545  44.957  31.009  12.505
95319W        W60546  42.645  17.392  12.968
95320W        W60547   2.221  15.537   3.286
95321W        W60548   7.516  32.134  12.928
95322W        W60549   5.947   6.003  12.102
95323W        W60550  11.533  21.825   1.796
95324W        W60551  39.701  22.692  14.518
95325W        W60552   1.690  16.368  13.099
95326W        W60553   4.221  31.369  10.751
95327W        W60554  16.211  23.564   1.336
95328W        W60555  35.412  15.894  14.678
95329W        W60556  19.763  32.777   4.116
95330W        W60557  11.880  39.587   0.873
95331W        W60558   5.326   2.412  10.645
95332W        W60559  28.992  39.240   3.160
95333W        W60560  11.702  38.911  13.483
95334W        W60561   8.729  19.253  12.428
95335W        W60562  15.626  21.279  14.998
95336W        W60563  12.770   7.648  14.817
95337W        W60564   2.130  40.111   0.157
95338W        W60565  34.011  26.918   2.152
95339W        W60566   8.288   5.384  14.588
95340W        W60567  40.573  15.083  14.459
95341W        W60568   6.912  15.595   3.147
95342W        W60569   1.574  14.690   1.779
95343W        W60570   4.848  37.124  12.637
95344W        W60571  27.367  23.051  14.707
95345W        W60572   0.350  14.569  14.509
95346W        W60573  42.033  32.418   3.677
95347W        W60574   2.943  44.780  14.847
95348W        W60575  41.480  36.986  14.918
95349W        W60576  37.190  44.651  12.595
95350W        W60577   3.204  15.025  12.375
95351W        W60578  30.566  10.187  13.589
95352W        W60579  19.194   8.215  14.420
95353W        W60580   4.171  17.126   2.260
95354W        W60581  14.835  21.035  11.143
95355W        W60582   2.887  35.298  14.995
95356W        W60583  14.862  23.872  11.675
95357W        W60584  33.565  42.864   3.501
95358W        W60585  16.292  10.301   4.259
95359W        W60586  30.962  25.871   1.913
95360W        W60587  13.396  39.291  12.465
95361W        W60588  30.689  27.975  12.149
95362W        W60589  33.462  43.770   4.529
95363W        W60590  27.207  42.274  10.757
95364W        W60591  19.216   2.679  13.968
95365W        W60592  43.008  21.466  12.401
95366W        W60593  13.366  35.191  10.743
95367W        W60594  28.965  26.951  12.467
95368W        W60595  30.483  40.035  14.159
95369W        W60596   5.786  13.806   2.963
95370W        W60597  32.898  38.864  12.645
95371W        W60598   0.285  44.295  14.267
95372W        W60599  44.914  35.195  11.147
95373W        W60600  30.013  31.087  11.546
95374W        W60601   4.492  34.586   3.795
95375W        W60602  16.394  33.190   3.449
95376W        W60603  40.198  11.732  10.617
95377W        W60604  41.865   0.202  12.784
95378W        W60605  26.417  13.447   1.823
95379W        W60606   4.910  31.528  14.889
95380W        W60607  13.844  41.539   0.420
95381W        W60608   5.905  35.108  13.333
95382W        W60609  32.484  33.402   3.662
95383W        W60610  41.413  29.566  12.039
95384W        W60611  34.788  32.045  14.500
95385W        W60612  25.049   7.711  10.807
95386W        W60613  42.964  17.197  12.393
95387W        W60614  25.992  37.998  14.240
95388W        W60615   7.418  37.172  11.062
95389W        W60616  26.078  24.532   4.138
95390W        W60617  44.119  43.566  13.439
95391W        W60618  12.804   3.134  12.391
95392W        W60619  33.099   8.888   4.362
95393W        W60620  36.569  19.644   2.256
95394W        W60621  37.511  38.160  11.152
95395W        W60622  29.463  10.078  13.516
95396W        W60623  16.307  30.301  13.831
95397W        W60624   3.761  25.457   0.309
95398W        W60625  37.246  30.551  11.597
95399W        W60626  42.326   2.227  14.300
95400W        W60627  32.461  39.958   3.571
95401W        W60628  23.435  38.949   0.790
95402W        W60629  14.909  17.198  13.478
95403W        W60630  10.252  27.495  10.727
95404W        W60631  42.889  27.655   4.650
95405W        W60632  21.592  33.274  12.998
95406W        W60633  20.983  37.743   2.631
95407W        W60634  10.214  22.068  10.612
95408W        W60635  17.576  41.469   2.706
95409W        W60636   5.499  20.469   3.903
95410W        W60637  35.491   9.490  12.983
95411W        W60638  20.132   6.618  12.939
95412W        W60639  44.805  11.107  14.432
95413W        W60640  43.042  21.980  14.351
95414W        W60641  41.996  31.593   2.232
95415W        W60642   9.764  31.236   2.226
95416W        W60643   8.381  21.085   3.291
95417W        W60644   3.252  12.918  12.461
95418W        W60645  39.477  27.429  13.464
95419W        W60646  42.875  39.793  11.714
95420W        W60647  26.111  37.509   2.620
95421W        W60648  38.418  24.219   2.621
95422W        W60649  18.783  23.858  14.333
95423W        W60650   7.153  27.680   0.821
95424W        W60651  42.384  31.198   3.172
95425W        W60652  15.190   5.955   4.684
95426W        W60653  29.274  40.553  13.840
95427W        W60654  29.846  12.253  10.763
95428W        W60655  40.977   1.608  12.139
95429W        W60656  13.051  13.772   3.245
95430W        W60657  36.350  36.917   1.297
95431W        W60658  33.094  32.068  13.762
95432W        W60659  35.974  35.103  11.993
95433W        W60660   5.411  32.795   4.946
95434W        W60661   7.838  17.509  14.257
95435W        W60662  26.121  28.182   2.693
95436W        W60663  38.577  31.410  12.019
95437W        W60664   8.548  10.540  11.683
95438W        W60665  10.585  19.438  12.573
95439W        W60666  13.946  17.768   3.281
95440W        W60667  38.406   7.153  13.773
95441W        W60668  28.176  26.993  11.312
95442W        W60669  24.999  35.735   0.875
95443W        W60670  25.039  18.082   0.736
95444W        W60671  20.102  12.694  12.984
95445W        W60672  24.077  37.607  14.492
95446W        W60673   6.048   1.822  14.370
95447W        W60674   4.727  42.661   1.077
95448W        W60675   5.508  17.709  11.495
95449W        W60676  30.911  44.764   2.715
95450W        W60677  18.292  43.995  14.279
95451W        W60678  26.650  37.574   1.882
95452W        W60679  19.223  37.870  10.797
95453W        W60680   7.788  18.144   0.920
95454W        W60681  34.886  18.223   3.990
95455W        W60682  40.042  25.428  12.457
95456W        W60683  18.764  21.421  10.320
95457W        W60684   4.690  33.612   2.672
95458W        W60685  19.781  13.682   4.580
95459W        W60686  36.334  34.426   2.407
95460W        W60687   5.930  44.180  11.126
95461W        W60688   0.121   7.551   3.350
95462W        W60689  22.067  40.305  11.647
95463W        W60690  33.113  42.491  14.464
95464W        W60691  10.081   5.820   2.254
95465W        W60692   0.060   8.649  12.989
95466W        W60693  36.488   6.282   4.539
95467W        W60694  37.493   8.081   3.224
95468W        W60695   8.869   5.763   2.777
95469W        W60696  39.543  41.136  14.638
95470W        W60697  33.888  33.756  14.104
95471W        W60698  36.950  40.952   4.485
95472W        W60699   7.252  41.001   1.042
95473W        W60700  26.643  42.226   3.800
95474W        W60701   9.270  44.888   4.905
95475W        W60702  17.784  19.004  14.976
95476W        W60703  21.595  15.900   0.395
95477W        W60704  24.098   1.277  10.296
95478W        W60705  40.881   6.320   1.603
95479W        W60706  42.301  18.099   3.919
95480W        W60707  25.554  13.633  14.061
95481W        W60708  11.400   8.110  14.059
95482W        W60709  26.494  39.254   2.324
95483W        W60710  34.360   8.734   3.641
95484W        W60711  34.063  42.884   3.295
95485W        W60712  41.728  35.387   4.354
95486W        W60713   9.186  17.372  12.481
95487W        W60714   6.240  29.247   3.262
95488W        W60715  35.132  33.041  10.815
95489W        W60716  44.797  15.513  13.833
95490W        W60717  10.569  20.054  13.862
95491W        W60718   4.930  22.233  11.472
95492W        W60719  27.579  35.008   0.851
95493W        W60720   2.944  38.810  14.490
95494W        W60721  26.449   1.881  13.106
95495W        W60722  38.053  39.396   0.429
95496W        W60723   6.639  25.917  11.722
95497W        W60724   6.911  43.392   0.874
95498W        W60725   4.866  44.272   2.844
95499W        W60726  40.500  16.835  13.549
95500W        W60727  18.943  18.180   2.688
95501W        W60728  37.658  29.617  11.576
95502W        W60729  18.247  12.053   1.166
95503W        W60730  18.594  27.093  11.702
95504W        W60731  28.433  40.076  14.025
95505W        W60732   3.008  43.755  10.777
95506W        W60733  11.166   4.676   0.387
95507W        W60734  28.161  19.350   3.692
95508W        W60735   6.881  25.906   0.718
95509W        W60736  17.845   7.629  14.000
95510W        W60737  32.411  29.754   3.781
95511W        W60738  15.382  23.454   3.673
95512W        W60739  24.638  33.026  13.491
95513W        W60740  22.605  34.684   2.851
95514W        W60741   4.365   5.490  10.418
95515W        W60742   9.690  17.756  14.988
95516W        W60743   7.674  37.473  13.063
95517W        W60744  43.953  24.861  14.736
95518W        W60745  13.803  40.809  10.637
95519W        W60746  40.023  44.388   1.427
95520W        W60747  28.063  37.454  11.924
95521W        W60748  13.139   1.458   3.099
95522W        W60749  26.043  40.569   2.163
95523W        W60750  10.262   5.729  13.075
95524W        W60751   6.700  39.942   0.903
95525W        W60752  18.737  43.388   4.313
95526W        W60753   7.285   5.216  12.762
95527W        W60754  24.155  25.831   1.898
95528W        W60755  10.759  27.404  14.952
95529W        W60756  35.537  11.305   4.707
95530W        W60757   1.934   5.314  10.707
95531W        W60758  43.964  32.571   4.103
95532W        W60759  30.548  38.592  13.857
95533W        W60760  19.141   5.186  14.612
95534W        W60761  25.246  20.599  14.578
95535W        W60762  35.294  26.466  11.388
95536W        W60763   7.740  11.852  13.344
95537W        W60764  11.442   4.773  14.453
95538W        W60765  15.362   8.575   2.801
95539W        W60766  23.707  21.314   2.952
95540W        W60767  43.525  10.683   0.478
95541W        W60768  42.937  14.214  10.642
95542W        W60769  26.982  16.229  10.789
95543W        W60770  30.863   5.898  11.539
95544W        W60771  18.064  16.497   3.700
95545W        W60772  42.483  12.444   0.936
95546W        W60773  35.085  12.317  11.573
95547W        W60774  40.915  24.048  14.677
95548W        W60775  41.885  32.410   1.212
95549W        W60776  44.655  27.040  12.161
95550W        W60777   1.862   8.837   3.378
95551W        W60778   4.145  13.235   1.214
95552W        W60779  29.466  17.674   1.031
95553W        W60780  25.066  14.219   0.295
95554W        W60781  32.515  12.841   0.932
95555W        W60782  37.420  44.718  10.606
95556W        W60783   5.627   3.886  12.879
95557W        W60784  11.874   9.262  12.593
95558W        W60785   8.187  16.306  12.698
95559W        W60786  28.235  15.619   2.295
95560W        W60787  15.161  41.369  12.950
95561W        W60788  34.875   4.897  10.710
95562W        W60789   2.427  14.774   3.344
95563W        W60790   9.170  12.405   2.768
95564W        W60791  23.393  12.102  12.578
95565W        W60792  38.016  16.107  11.098
95566W        W60793  41.210  26.463  12.995
95567W        W60794  30.419   0.680  12.988
95568W        W60795  35.798   1.656   0.763
95569W        W60796  16.774  14.231  12.006
95570W        W60797   2.756  37.038   3.474
95571W        W60798  41.831  17.037  14.952
95572W        W60799  15.706  42.792   4.621
95573W        W60800  22.171  24.421  14.826
95574W        W60801  44.202  27.955  10.792
95575W        W60802  11.808   8.364  10.731
95576W        W60803  39.435   8.655   1.313
95577W        W60804  13.203  32.076   3.321
95578W        W60805  32.414   6.514   0.394
95579W        W60806  18.155   1.679   3.179
95580W        W60807  43.240  24.047  11.810
95581W        W60808  25.619  32.810   4.515
95582W        W60809  17.487  42.839   4.551
95583W        W60810   4.169  15.051   3.772
95584W        W60811  24.712  27.538  12.046
95585W        W60812  15.912  14.596   5.066
95586W        W60813  26.084  21.965   1.780
95587W        W60814  38.888  37.012  14.558
95588W        W60815  28.047  30.670   2.354
95589W        W60816   6.287  36.122   0.808
95590W        W60817  28.018  19.125   1.756
95591W        W60818  43.093  24.666  13.935
95592W        W60819   5.904  22.992   0.877
95593W        W60820   3.774   3.026  13.733
95594W        W60821   6.816   5.394  14.513
95595W        W60822  14.717   0.762   1.244
95596W        W60823  25.061  22.013  10.637
95597W        W60824  43.675   2.670   0.263
95598W        W60825  23.469   6.447  12.700
95599W        W60826   3.515   2.770   2.149
95600W        W60827   4.815  26.232  14.878
95601W        W60828  29.733   9.263  11.693
95602W        W60829   0.796  16.497   3.769
95603W        W60830  20.061  13.442   4.096
95604W        W60831  11.100  38.805  10.425
95605W        W60832  38.067  20.661  11.242
95606W        W60833  22.229  32.239  12.341
95607W        W60834  11.674  33.033  13.548
95608W        W60835   1.023  43.649   0.182
95609W        W60836  19.038  31.035   3.864
95610W        W60837  17.089   4.293   3.287
95611W        W60838  44.267  28.044  13.068
95612W        W60839  15.168  11.785   1.789
95613W        W60840  14.049   1.788  14.872
95614W        W60841  39.519  21.671  11.715
95615W        W60842  43.840  32.335   0.835
95616W        W60843  20.725  18.739  14.978
95617W        W60844  11.286  31.902   3.230
95618W        W60845  26.374  25.998  13.995
95619W        W60846  23.127  27.722   0.751
95620W        W60847  18.576  12.836   0.753
95621W        W60848   6.159  14.039   0.734
95622W        W60849  27.304   0.081   9.642
95623W        W60850  24.081  23.344  13.680
95624W        W60851   3.528  44.466   1.907
95625W        W60852  34.601  14.069  11.729
95626W        W60853  15.892  14.035  13.279
95627W        W60854  39.393   9.437   1.828
95628W        W60855  20.923  33.255  10.135
95629W        W60856   6.814  41.817   2.509
95630W        W60857  20.620   9.858   4.825
95631W        W60858   2.353  22.541   1.272
95632W        W60859  30.015  28.547   2.201
95633W        W60860   5.731  14.572   4.080
95634W        W60861   4.208  36.178  10.555
95635W        W60862  26.023   9.948   0.719
95636W        W60863  34.223  34.373  10.467
95637W        W60864  23.766  42.842  13.004
95638W        W60865  19.923  44.602  13.931
95639W        W60866   1.354  38.448   2.419
95640W        W60867  11.371  43.926  10.883
95641W        W60868  11.358  42.327  14.330
95642W        W60869   5.726  35.883   4.161
95643W        W60870  12.427  28.913  12.096
95644W        W60871   3.037  41.884   2.336
95645W        W60872  35.106  34.416  11.960
95646W        W60873  30.916   6.775  13.677
95647W        W60874  20.614  37.525   2.891
95648W        W60875  35.570  28.060  12.676
95649W        W60876  16.185   5.696  12.929
95650W        W60877  24.306  43.049   3.058
95651W        W60878  10.261  39.962   0.801
95652W        W60879  24.427  14.670  11.541
95653W        W60880  24.372  43.040  10.790
95654W        W60881  15.971  20.839  10.481
95655W        W60882  40.571  36.691  13.805
95656W        W60883  37.907  22.978  14.946
95657W        W60884  10.561   6.305  12.931
95658W        W60885  32.019  13.983   2.087
95659W        W60886  21.791  25.053   0.493
95660W        W60887  17.720  38.355   1.509
95661W        W60888   2.453  16.986   4.662
95662W        W60889  35.413  36.407   5.623
95663W        W60890  32.009   0.479  11.994
95664W        W60891  25.952  22.241  13.297
95665W        W60892   4.641  25.959   1.292
95666W        W60893  28.428  25.166   1.636
95667W        W60894  21.259  41.736   3.867
95668W        W60895  17.309  35.337  14.316
95669W        W60896  41.548   9.370  10.256
95670W        W60897  20.520  24.407   3.236
95671W        W60898  40.828  27.984  10.667
95672W        W60899   2.220  13.621   1.955
95673W        W60900  28.971  32.521   4.570
95674W        W60901  13.353  39.994  13.713
95675W        W60902  39.104  32.487   2.775
95676W        W60903  40.856   5.414   2.822
95677W        W60904  42.908  30.747   2.644
95678W        W60905  36.430  17.276  10.700
95679W        W60906   8.223  20.765   2.334
95680W        W60907  14.292  37.570  13.892
95681W        W60908  38.336  18.578   0.439
95682W        W60909  16.579  22.200  11.747
95683W        W60910  31.013  13.877   0.008
95684W        W60911   0.387  20.046  14.340
95685W        W60912  36.217  44.441  12.482
95686W        W60913   0.589  16.126   2.836
95687W        W60914  11.703  30.156   3.788
95688W        W60915  24.260  28.508  13.828
95689W        W60916  12.365   6.317   4.254
95690W        W60917  19.204  30.600   1.262
95691W        W60918  29.020   8.264  10.681
95692W        W60919  11.708  42.978   3.282
95693W        W60920  17.774  30.397   2.623
95694W        W60921   1.003  30.691  14.840
95695W        W60922  22.123  23.143  11.893
95696W        W60923  43.125   7.847   2.307
95697W        W60924  36.456  37.085   1.796
95698W        W60925  34.935   8.616   2.202
95699W        W60926  29.349  12.871  10.545
95700W        W60927  39.798   7.361  14.995
95701W        W60928  17.758  20.549   4.571
95702W        W60929  29.779  16.076  13.129
95703W        W60930  35.434   4.518   4.479
95704W        W60931  23.646  39.917  11.579
95705W        W60932  32.138  11.330  13.357
95706W        W60933  15.200  39.986  14.320
95707W        W60934  32.861   7.612   1.698
95708W        W60935  20.202  44.137  12.433
95709W        W60936  25.176  40.748  11.335
95710W        W60937  32.455   2.936   3.688
95711W        W60938  19.182  31.419   4.600
95712W        W60939  34.393   8.567  11.203
95713W        W60940  31.004   6.453  14.093
95714W        W60941  33.948   1.421  13.771
95715W        W60942  35.349  41.325   0.745
95716W        W60943  32.422  29.928   0.464
95717W        W60944  11.827  18.540  13.451
95718W        W60945  25.320  20.336   4.558
95719W        W60946  28.528  37.495  12.171
95720W        W60947  33.199   6.369   1.381
95721W        W60948   7.621  33.931  11.592
95722W        W60949  19.624  41.385   0.004
95723W        W60950  38.076  27.140   0.238
95724W        W60951  21.535  12.809   2.250
95725W        W60952  39.419  11.032   2.965
95726W        W60953  37.677  15.968  10.722
95727W        W60954  38.820  41.818   1.190
95728W        W60955  11.342   9.436   2.223
95729W        W60956   5.311   2.274  13.915
95730W        W60957  25.990  32.391  13.235
95731W        W60958  21.497   4.537   5.016
95732W        W60959  24.396  41.950   4.457
95733W        W60960   9.188  43.389   2.789
95734W        W60961  21.274  35.625  12.417
95735W        W60962  33.115  41.301   3.710
95736W        W60963  35.617  11.270   1.263
95737W        W60964  21.471  33.096  10.478
95738W        W60965  26.954  14.612  12.474
95739W        W60966  41.595  12.085   4.594
95740W        W60967  33.921  13.173  14.875
95741W        W60968   4.438   7.787   1.406
95742W        W60969  34.855  35.170  11.506
95743W        W60970  15.700  35.977   0.332
95744W        W60971   0.672  44.814   1.994
95745W        W60972  23.882  22.985  11.947
95746W        W60973   0.199  18.052  12.931
95747W        W60974  37.522  43.645  14.048
95748W        W60975  19.960  43.374  11.640
95749W        W60976  37.930  32.411   2.149
95750W        W60977   3.740   6.751  11.006
95751W        W60978  27.267  29.272   0.940
95752W        W60979  18.544  26.892   0.360
95753W        W60980  42.964  11.831   5.044
95754W        W60981  36.470  32.480   3.601
95755W        W60982  34.375  32.708  13.995
95756W        W60983  24.734  20.060   1.733
95757W        W60984   6.939  42.188  14.319
95758W        W60985  35.611   6.799   4.154
95759W        W60986  30.912  10.596   4.320
95760W        W60987   5.622  12.870   0.371
95761W        W60988  36.761   0.057   3.592
95762W        W60989  38.974  35.605   4.473
95763W        W60990  10.834  39.458   3.502
95764W        W60991  22.252  26.056   2.695
95765W        W60992  31.399  33.275   2.325
95766W        W60993  40.885  11.565   2.216
95767W        W60994  26.585  25.910  13.253
95768W        W60995  15.247  32.400  13.858
95769W        W60996  14.546  44.372  10.886
95770W        W60997  21.965  35.537   2.776
95771W        W60998  10.439   9.623   0.734
95772W        W60999  14.782   4.984   2.929
95773W        W61000  20.155  44.120  10.223
95774W        W61001  35.262  41.246   1.675
95775W        W61002  17.671  29.102   2.258
95776W        W61003   9.334  13.091  11.076
95777W        W61004  28.074   4.786  12.932
95778W        W61005  33.786  17.394   4.058
95779W        W61006  39.916  16.434  12.804
95780W        W61007   2.174   1.334  13.011
95781W        W61008  17.292  15.112   0.336
95782W        W61009  40.480  29.176  10.655
95783W        W61010   3.269  40.779   3.779
95784W        W61011  26.074  36.121   3.649
95785W        W61012   3.781  28.567   4.283
95786W        W61013  29.899   2.561  13.077
95787W        W61014  28.488  29.660   3.107
95788W        W61015   0.555   4.941   4.677
95789W        W61016   1.427  16.141   4.689
95790W        W61017   8.587  16.192   3.762
95791W        W61018  37.020  38.391  14.707
95792W        W61019  43.541  22.440   2.047
95793W        W61020   4.365  24.850   0.797
95794W        W61021  32.939  43.897   2.786
95795W        W61022  29.969   4.332  11.074
95796W        W61023  37.149  39.303   0.750
95797W        W61024  11.351   2.539   3.110
95798W        W61025  39.488  19.203  12.712
95799W        W61026  31.135  26.663   1.669
95800W        W61027   6.775  11.851   0.971
95801W        W61028   4.368  17.273  10.968
95802W        W61029  44.258  28.084   9.876
95803W        W61030  10.805  30.085   2.840
95804W        W61031   5.179  17.786   1.410
95805W        W61032  43.626  18.587  13.310
95806W        W61033  34.225  13.766  12.927
95807W        W61034  34.949  25.957   4.510
95808W        W61035  15.806   2.081  10.911
95809W        W61036   4.826  16.340   0.718
95810W        W61037  34.103  39.851  14.963
95811W        W61038  43.850   6.663  13.345
95812W        W61039  15.108   7.172   3.227
95813W        W61040  44.709  24.318   3.958
95814W        W61041  27.692  22.884   1.712
95815W        W61042  37.102   9.804   1.763
95816W        W61043  31.906   6.779   2.345
95817W        W61044  16.791  38.392  14.317
95818W        W61045   8.497  34.973   2.939
95819W        W61046   5.312  44.305   2.111
95820W        W61047  11.204   2.243   1.318
95821W        W61048  44.827  43.479  11.720
95822W        W61049   9.704  11.138   3.418
95823W        W61050  20.845  20.869  11.272
95824W        W61051  27.510  25.062   5.013
95825W        W61052  16.181  43.971   0.271
95826W        W61053   4.743  20.123  14.335
95827W        W61054  28.540   2.706   5.034
95828W        W61055   1.319  11.381  14.436
95829W        W61056  35.292  28.314   3.948
95830W        W61057  25.567  23.511  14.455
95831W        W61058  17.087  26.965  11.552
95832W        W61059  30.788  11.894   4.139
95833W        W61060   0.578   4.084  13.247
95834W        W61061  35.531  18.760  12.358
95835W        W61062   2.254  20.734   1.429
95836W        W61063  42.275  35.353   3.646
95837W        W61064  15.697  42.283   4.721
95838W        W61065  26.039  35.151   3.688
95839W        W61066   9.120  19.461   3.990
95840W        W61067  15.275  28.550  10.899
95841W        W61068  34.125  24.845   4.917
95842W        W61069  22.983  39.211   4.056
95843W        W61070  20.729  38.985   1.413
95844W        W61071  21.581  24.640   2.232
95845W        W61072  26.479  38.963   2.765
95846W        W61073   8.183  34.648  14.397
95847W        W61074  32.421  40.420   3.212
95848W        W61075  11.332  28.880   4.119
95849W        W61076  42.351  34.730   4.330
95850W        W61077  30.888  11.159   3.755
95851W        W61078   6.495  40.489   2.465
95852W        W61079  36.137  20.871   4.933
95853W        W61080   8.730   1.535   2.433
95854W        W61081   2.851  20.724   3.662
95855W        W61082  38.872  31.546   0.755
95856W        W61083  42.644  30.044   1.487
95857W        W61084  18.256  25.841   0.776
95858W        W61085  12.021  14.545  13.600
95859W        W61086  30.639  44.786   0.738
95860W        W61087  34.420   5.109   3.149
95861W        W61088  13.605   5.117  12.014
95862W        W61089  35.876  41.386  12.187
95863W        W61090  32.881  25.367   4.750
95864W        W61091  28.439  37.628   4.822
95865W        W61092   0.465  13.240  12.453
95866W        W61093   1.733  15.195   1.718
95867W        W61094  34.836  39.208  11.549
95868W        W61095  11.616  23.531   1.510
95869W        W61096   1.333  24.698  14.727
95870W        W61097   1.374  39.018  12.601
95871W        W61098  36.404  18.718  12.595
95872W        W61099  21.529  30.177   0.107
95873W        W61100  41.396  39.419  14.468
95874W        W61101  20.178  15.429  13.538
95875W        W61102  38.369  19.579  12.100
95876W        W61103  23.802  32.331  13.907
95877W        W61104  33.578  15.407  11.725
95878W        W61105  43.956   7.775   4.849
95879W        W61106  40.816   3.367  12.865
95880W        W61107   3.209  43.118  12.151
95881W        W61108  12.101  30.300   1.311
95882W        W61109  31.488  34.195  12.490
95883W        W61110   3.472   3.259   1.544
95884W        W61111  27.868  12.269   0.457
95885W        W61112  17.237  16.239   3.297
95886W        W61113  28.102  30.926   4.193
95887W        W61114  12.946  30.460   3.104
95888W        W61115  40.498  13.179  13.894
95889W        W61116   7.034  20.694  12.995
95890W        W61117  25.588   9.108   0.781
95891W        W61118   3.800  19.703   3.767
95892W        W61119  27.552  13.216  14.709
95893W        W61120  27.222  37.987  12.943
95894W        W61121  27.333  30.412   0.045
95895W        W61122  27.454  12.305   1.050
95896W        W61123   6.460  16.150   0.876
95897W        W61124  23.915  16.111  12.753
95898W        W61125   0.325   1.370   2.245
95899W        W61126  20.196  37.795   2.762
95900W        W61127   1.280  16.577   0.019
95901W        W61128  40.873  26.981  10.683
95902W        W61129  31.434  24.536   0.227
95903W        W61130  21.158   4.519  11.312
95904W        W61131  12.706  32.908  13.019
95905W        W61132  15.288   5.362  14.258
95906W        W61133  33.206  33.660  11.557
95907W        W61134   3.838   2.978   1.796
95908W        W61135   0.010   4.315  14.722
95909W        W61136  42.742  21.210   0.810
95910W        W61137  27.417  15.759   0.863
95911W        W61138   5.802   8.351  11.937
95912W        W61139   8.780   1.019   2.403
95913W        W61140  34.932  10.424   2.001
95914W        W61141   4.443  36.100  13.364
95915W        W61142  21.767  25.940  12.945
95916W        W61143  22.497  37.854   2.287
95917W        W61144  13.404  16.270  14.380
95918W        W61145  42.587  40.198   1.269
95919W        W61146  43.908  44.031   3.223
95920W        W61147   4.018  17.672   3.222
95921W        W61148  44.563  42.051  11.934
95922W        W61149   1.382  43.421   1.884
95923W        W61150  27.584   5.971   0.802
95924W        W61151  30.913   9.393   3.376
95925W        W61152  32.131   6.628   2.842
95926W        W61153  11.565  41.623  12.246
95927W        W61154  41.761  31.678   0.512
95928W        W61155  38.076  18.602   1.396
95929W        W61156  38.396   7.576   3.370
95930W        W61157  44.385  12.879   4.971
95931W        W61158   8.742   9.892   2.642
95932W        W61159  39.864  38.085  12.490
95933W        W61160   0.503  26.950  12.564
95934W        W61161  37.982   7.722   2.271
95935W        W61162  11.759  40.746   1.775
95936W        W61163  37.776  10.979  12.278
95937W        W61164  37.603  17.832   3.169
95938W        W61165  10.147  34.965   0.871
95939W        W61166  23.632  24.486   3.742
95940W        W61167  27.358  36.063  13.604
95941W        W61168  16.293  27.554   0.849
95942W        W61169  28.423  28.262  11.502
95943W        W61170  39.871  27.747   0.231
95944W        W61171   0.516   5.394  14.048
95945W        W61172   0.770  12.274  11.127
95946W        W61173  44.981  34.958  12.526
95947W        W61174  22.486   4.269  11.729
95948W        W61175  26.054  43.844   3.829
95949W        W61176  34.457  32.475   2.787
95950W        W61177  12.007   8.770   2.607
95951W        W61178   9.067   6.869  13.775
95952W        W61179  41.929  37.240  11.207
95953W        W61180   7.957  33.672   0.263
95954W        W61181  15.019   3.829   4.516
95955W        W61182  22.125  40.837  12.440
95956W        W61183  12.441  24.241   1.819
95957W        W61184  29.114  39.812   3.195
95958W        W61185  23.492  21.903   0.837
95959W        W61186  22.547  18.755   3.679
95960W        W61187  30.349  25.091   4.081
95961W        W61188  42.907  26.091   1.927
95962W        W61189  29.058  22.496   2.328
95963W        W61190  22.059  27.023  14.935
95964W        W61191  42.884  27.253   2.346
95965W        W61192  20.666  30.077   0.201
95966W        W61193  11.085  36.359  14.534
95967W        W61194  28.529  17.776   1.433
95968W        W61195  44.729  13.547   1.006
95969W        W61196  11.349  32.958   0.491
95970W        W61197  22.800  15.529  10.103
95971W        W61198   9.077  34.372  10.748
95972W        W61199  15.061  23.956  13.878
95973W        W61200   5.916   3.973  14.520
95974W        W61201  30.957  26.190   0.243
95975W        W61202  12.222  29.289   1.840
95976W        W61203  10.414   8.190  11.955
95977W        W61204  25.508  14.361   3.065
95978W        W61205  42.529  21.569  12.558
95979W        W61206  37.754  32.368   0.857
95980W        W61207  25.872   5.967  13.096
95981W        W61208  10.624  28.654  10.368
95982W        W61209  23.249  25.689  13.476
95983W        W61210  12.999   4.180   1.879
95984W        W61211   6.256  28.453   0.955
95985W        W61212  34.147  25.663  12.455
95986W        W61213   5.010  26.401   1.340
95987W        W61214  41.770  36.880   0.356
95988W        W61215  32.863  19.077   0.097
95989W        W61216  28.735  17.394  11.207
95990W        W61217  22.161  13.158   3.768
95991W        W61218  14.548   8.865  12.476
95992W        W61219   9.229  34.944  14.352
95993W        W61220  18.730  42.527  13.031
95994W        W61221  44.693  29.413  14.464
95995W        W61222  37.955  12.215   0.385
95996W        W61223  31.443  17.087   4.721
95997W        W61224  24.961  32.044  14.760
95998W        W61225  43.791   6.133  13.121
95999W        W61226  11.905  12.504   4.604
96000W        W61227  20.368   3.314   3.112
96001W        W61228  40.547  34.618  13.806
96002W        W61229   7.885  14.867   1.289
96003W        W61230  15.135   7.844  11.626
96004W        W61231  23.702  18.584  13.141
96005W        W61232  21.311   5.749  12.190
96006W        W61233  42.118  25.890  11.316
96007W        W61234  39.256  40.022  12.666
96008W        W61235   7.347   0.906  10.750
96009W        W61236  40.558  11.369   4.584
96010W        W61237  34.068   4.418   3.589
96011W        W61238  11.655   0.548   0.480
96012W        W61239  11.441  27.131  12.019
96013W        W61240  11.799  13.569   4.563
96014W        W61241  13.378   0.953  12.580
96015W        W61242  29.487  36.973  12.016
96016W        W61243  26.712  41.282   2.325
96017W        W61244  40.928  21.733   1.331
96018W        W61245   3.437  37.568  13.936
96019W        W61246  24.662  32.517  14.552
96020W        W61247  10.147  32.397  14.695
96021W        W61248  18.722  36.225  13.807
96022W        W61249  23.109  21.539   1.322
96023W        W61250  39.575  22.770   0.043
96024W        W61251  18.752  29.608  12.578
96025W        W61252  17.152  19.836  11.781
96026W        W61253  19.466  35.780   0.001
96027W        W61254  34.044  29.015   1.701
96028W        W61255  23.563  13.777  12.061
96029W        W61256  22.699  41.811   2.317
96030W        W61257  17.008  13.850   0.460
96031W        W61258  39.127  10.439   5.136
96032W        W61259  25.908  24.027  11.723
96033W        W61260  32.919  28.917   4.124
96034W        W61261   8.522  24.122   0.800
96035W        W61262  43.214  18.316   0.463
96036W        W61263  41.461  35.045   0.411
96037W        W61264  26.153   0.584  11.234
96038W        W61265   7.510  20.245  12.189
96039W        W61266  40.275  30.128   0.486
96040W        W61267   5.228   6.954   0.519
96041W        W61268  31.407  30.762   0.019
96042W        W61269   3.893   2.945  10.265
96043W        W61270   8.142  39.967  12.684
96044W        W61271  43.927  40.555   3.860
96045W        W61272   8.716   5.990  11.486
96046W        W61273  22.119  26.187   1.673
96047W        W61274  41.264  10.329  11.606
96048W        W61275  40.775  24.721   0.393
96049W        W61276  31.544  29.616  13.236
96050W        W61277  41.287  15.130   1.295
96051W        W61278  27.172   3.386  10.563
96052W        W61279  28.962  10.625  13.845
96053W        W61280  10.780  43.804   3.421
96054W        W61281  27.719  13.504  13.118
96055W        W61282   3.402   4.096   2.191
96056W        W61283  15.312  26.066  10.670
96057W        W61284  20.259  10.245  13.407
96058W        W61285  25.723  15.284   1.228
96059W        W61286  28.268   8.442  12.238
96060W        W61287   0.900  42.044   0.833
96061W        W61288  43.536  21.563   2.341
96062W        W61289  41.966  22.448   4.551
96063W        W61290   0.574  24.257  10.083
96064W        W61291   9.070  43.198  14.968
96065W        W61292  27.713  22.524  13.833
96066W        W61293   5.901  20.630  14.805
96067W        W61294  27.136  28.726  11.657
96068W        W61295  42.141  18.162  13.023
96069W        W61296  36.025  22.890   3.365
96070W        W61297  11.179  16.655  13.163
96071W        W61298  32.947   1.200  12.451
96072W        W61299  26.204  21.993   2.305
96073W        W61300  20.787   7.423   9.925
96074W        W61301   7.295  27.604  11.357
96075W        W61302   2.681   5.165  12.876
96076W        W61303   6.431  35.828  11.256
96077W        W61304  44.305  24.681  13.123
96078W        W61305  18.561  10.671  11.110
96079W        W61306  37.390   1.866  10.703
96080W        W61307  21.662  44.441   4.088
96081W        W61308  40.993  39.616   0.789
96082W        W61309   5.714  21.738  12.289
96083W        W61310  39.821  15.539   4.622
96084W        W61311  42.384   4.881   1.013
96085W        W61312  35.738  29.289  13.836
96086W        W61313   8.293  19.657  14.563
96087W        W61314  30.127   2.203   2.578
96088W        W61315  37.599   0.922  14.481
96089W        W61316  42.748  10.747  11.479
96090W        W61317  39.987  31.423   0.860
96091W        W61318  12.146  12.033   4.581
96092W        W61319   5.142  44.316  13.024
96093W        W61320   3.431  15.641   3.803
96094W        W61321  43.470  15.124   0.452
96095W        W61322   3.742  37.020   3.726
96096W        W61323  24.277  31.772  13.457
96097W        W61324  30.640  22.046  10.701
96098W        W61325  40.775  27.644   4.609
96099W        W61326  30.068  28.227  14.482
96100W        W61327  37.279   4.829   1.669
96101W        W61328   0.296  36.624  12.986
96102W        W61329  40.161   7.382   1.476
96103W        W61330  26.642  40.060   0.456
96104W        W61331  31.209   7.776   4.640
96105W        W61332  24.760  14.929   0.747
96106W        W61333  43.356  19.499  11.852
96107W        W61334  39.514  18.294  13.317
96108W        W61335  33.302  32.717   1.926
96109W        W61336   8.376  21.639  10.779
96110W        W61337  29.079   8.599  14.952
96111W        W61338   1.232  34.566  12.072
96112W        W61339  35.022   0.679  12.026
96113W        W61340  25.436  18.633  12.213
96114W        W61341  34.366  28.535  14.511
96115W        W61342  20.988  38.076  11.413
96116W        W61343   4.921  26.539  12.166
96117W        W61344  14.426   6.885  12.455
96118W        W61345   8.286  30.045   1.160
96119W        W61346  26.455  34.854  13.893
96120W        W61347  29.524   6.993   4.291
96121W        W61348  23.756  28.264  10.761
96122W        W61349   9.378  12.587  13.368
96123W        W61350  43.199  12.608   3.378
96124W        W61351  36.038  21.450  13.988
96125W        W61352  41.355  16.071  11.734
96126W        W61353  12.701  30.948   3.833
96127W        W61354   4.681  40.761   2.587
96128W        W61355  12.536  28.242  13.911
96129W        W61356  20.563   7.662   0.320
96130W        W61357  39.385  44.441  11.548
96131W        W61358  31.385  11.870  10.768
96132W        W61359  22.001  15.660  12.425
96133W        W61360   4.747  19.783   4.653
96134W        W61361   5.952  23.071  12.421
96135W        W61362  25.201  32.539   2.728
96136W        W61363  10.956  20.219   4.849
96137W        W61364   6.881  28.954  14.261
96138W        W61365   6.536  28.462   2.886
96139W        W61366  19.689  42.173  11.157
96140W        W61367   7.133   5.055   1.887
96141W        W61368  16.762   8.436  14.261
96142W        W61369  28.901  21.523   0.070
96143W        W61370  15.348  27.743   2.604
96144W        W61371  14.169   7.120  13.358
96145W        W61372   2.139   8.313  13.831
96146W        W61373  14.317   1.839   0.304
96147W        W61374  40.422   8.319  11.843
96148W        W61375  40.967  15.204   4.801
96149W        W61376  19.212  29.423   2.893
96150W        W61377  10.835  16.642   0.388
96151W        W61378  12.658  28.242   4.129
96152W        W61379  42.505  28.528   4.389
96153W        W61380   2.519   5.165   1.901
96154W        W61381  27.086   8.815  11.424
96155W        W61382  14.799  32.743  11.799
96156W        W61383  26.290  18.812   2.756
96157W        W61384  12.607  43.077  11.698
96158W        W61385  23.460  25.505  11.736
96159W        W61386  20.075  25.040  14.316
96160W        W61387   2.953  42.064  14.489
96161W        W61388   1.256  35.457  13.386
96162W        W61389  41.412   0.836   2.639
96163W        W61390  25.611   7.858   0.448
96164W        W61391  40.645   7.126   0.775
96165W        W61392  27.190  20.156   1.963
96166W        W61393  25.038   6.425  12.109
96167W        W61394   7.802  18.237   0.404
96168W        W61395  26.143  19.769  12.644
96169W        W61396  31.417  31.815  11.740
96170W        W61397  19.175  42.438   1.174
96171W        W61398  44.744  31.208  12.035
96172W        W61399  19.246  26.421  11.543
96173W        W61400  20.319  26.469  14.492
96174W        W61401  20.220  36.929   1.647
96175W        W61402   9.276  22.915  11.133
96176W        W61403  12.110  12.051   2.874
96177W        W61404  32.508  40.766   4.516
96178W        W61405  29.140  10.802   4.105
96179W        W61406  43.745   3.516  14.046
96180W        W61407   2.267  21.824  12.969
96181W        W61408  26.491  35.049  12.985
96182W        W61409   9.086  36.974   3.120
96183W        W61410  19.140  21.469   3.374
96184W        W61411   8.557  16.745   1.935
96185W        W61412  24.151   6.246   1.870
96186W        W61413  33.212   9.595  14.257
96187W        W61414  16.310   5.946   4.071
96188W        W61415   8.970   5.244  12.534
96189W        W61416   0.343  38.946   3.218
96190W        W61417   3.431  31.096  11.985
96191W        W61418  20.563  35.785  13.507
96192W        W61419  26.526  24.298   3.929
96193W        W61420   7.572  23.070  11.558
96194W        W61421  11.509  18.726   1.208
96195W        W61422  30.400  40.513  14.421
96196W        W61423  22.293   5.126   0.492
96197W        W61424   9.464  11.511  11.135
96198W        W61425  19.740  44.090   4.328
96199W        W61426  43.333  11.164  11.038
96200W        W61427   1.238  42.911  13.212
96201W        W61428  33.995  35.114  13.459
96202W        W61429  36.348   4.458   4.241
96203W        W61430  41.994  36.531   3.326
96204W        W61431  30.708  14.524   3.323
96205W        W61432  10.774  16.833  12.859
96206W        W61433  33.114  14.062   1.252
96207W        W61434  33.143  33.193   1.774
96208W        W61435   2.599  40.302  13.424
96209W        W61436  43.557  22.505  10.229
96210W        W61437  44.972  24.656   4.228
96211W        W61438  20.657  32.187   3.123
96212W        W61439  26.631  11.229  10.035
96213W        W61440   0.048   3.315  12.937
96214W        W61441  38.890  31.613  14.687
96215W        W61442  39.803  43.771   1.286
96216W        W61443   1.474   7.211   4.603
96217W        W61444  14.883  24.959  12.534
96218W        W61445  34.187  43.873  13.146
96219W        W61446  33.432  35.516  10.838
96220W        W61447  12.173  44.175  14.498
96221W        W61448  29.393  14.726   4.385
96222W        W61449  21.214   6.343  13.555
96223W        W61450  21.855   9.603   4.653
96224W        W61451  35.161  12.645   3.006
96225W        W61452  24.113  11.931   4.452
96226W        W61453   6.283  13.367   4.415
96227W        W61454  23.314  38.224   2.228
96228W        W61455  30.913  12.256  13.914
96229W        W61456  12.074   7.774  10.370
96230W        W61457  18.500  29.872   4.587
96231W        W61458  42.574  19.285  12.057
96232W        W61459  19.787  42.852   3.693
96233W        W61460  36.294  39.465  12.959
96234W        W61461  26.475  18.035  11.581
96235W        W61462  36.059  42.255   3.227
96236W        W61463  29.587   1.832  12.405
96237W        W61464  28.971  33.649   0.889
96238W        W61465  23.314  44.683  14.530
96239W        W61466  32.922  28.145   2.744
96240W        W61467   6.223  16.968   0.050
96241W        W61468   7.688  42.824   3.838
96242W        W61469   3.650  33.444   2.848
96243W        W61470  13.602  44.545   0.005
96244W        W61471  42.983   5.987  11.061
96245W        W61472   0.459  11.801   0.896
96246W        W61473   9.942  28.141  13.226
96247W        W61474  40.947  17.621  11.879
96248W        W61475  11.529  26.942   3.318
96249W        W61476  27.634  32.430  14.585
96250W        W61477  17.213  28.455   2.287
96251W        W61478  29.910  22.135  11.758
96252W        W61479  27.614   3.296   3.631
96253W        W61480  10.830  19.200  13.333
96254W        W61481  21.984  43.549   3.317
96255W        W61482  10.625  31.131   2.344
96256W        W61483  42.728  39.984   4.380
96257W        W61484  25.752  18.289  11.163
96258W        W61485  20.061  17.101   3.208
96259W        W61486   9.912   7.354  11.077
96260W        W61487  22.538  23.575  12.839
96261W        W61488  13.879  39.432  14.054
96262W        W61489  10.567  28.495   3.933
96263W        W61490  37.664  44.417   3.578
96264W        W61491  28.515  11.437  12.496
96265W        W61492   4.478  32.975  11.581
96266W        W61493  21.598  44.886  12.035
96267W        W61494  20.829  14.765  11.514
96268W        W61495   7.672  44.590  14.379
96269W        W61496  13.159  32.014  12.158
96270W        W61497  42.244  23.681   0.883
96271W        W61498  10.179  26.741   1.787
96272W        W61499  31.315  16.661   1.269
96273W        W61500  26.046  24.262  12.441
96274W        W61501  20.961  33.932  14.424
96275W        W61502  20.077  17.547   2.357
96276W        W61503  44.962  15.288   1.198
96277W        W61504   5.728   1.107   1.432
96278W        W61505  30.961  29.883   2.912
96279W        W61506  17.744  31.473   1.771
96280W        W61507  39.717  23.062  10.593
96281W        W61508  17.719  34.610   4.527
96282W        W61509  42.891  16.526  11.972
96283W        W61510  35.341  14.845  10.423
96284W        W61511  42.919   4.477  11.679
96285W        W61512  19.458   1.041  14.698
96286W        W61513  25.268  23.797   4.621
96287W        W61514  35.955   5.173   3.887
96288W        W61515  44.739   4.174  12.375
96289W        W61516  27.295  27.366   1.905
96290W        W61517  37.826  16.078   4.602
96291W        W61518  24.865  25.889   2.202
96292W        W61519  18.095  25.105   4.654
96293W        W61520  15.197  15.145   2.682
96294W        W61521  27.786  23.960   4.187
96295W        W61522   7.611  24.108  13.044
96296W        W61523  27.735  12.879  11.051
96297W        W61524  36.508  14.052   1.824
96298W        W61525   9.701  24.766   0.401
96299W        W61526   8.464  24.682   2.779
96300W        W61527  43.577  40.248   4.121
96301W        W61528  13.058  44.932  13.864
96302W        W61529   5.859  15.383   1.022
96303W        W61530  25.705  17.040   4.814
96304W        W61531  38.949   2.509  13.864
96305W        W61532  15.183  30.781   1.859
96306W        W61533  22.924  18.970  14.988
96307W        W61534  10.722  27.674  10.941
96308W        W61535   3.482  32.297   2.609
96309W        W61536  21.303   0.036  10.661
96310W        W61537  16.130  41.449   3.788
96311W        W61538   5.284  38.575   4.410
96312W        W61539  26.102   6.284  11.881
96313W        W61540  12.112  33.666  11.662
96314W        W61541  39.789  39.314   0.519
96315W        W61542  14.284  44.583   1.856
96316W        W61543  21.573  14.757   3.076
96317W        W61544  25.571  42.294   4.672
96318W        W61545  43.769  39.591  13.424
96319W        W61546  36.534  10.606   0.146
96320W        W61547  31.027  17.347  12.070
96321W        W61548  27.183   2.806   4.216
96322W        W61549  20.205  12.611  11.204
96323W        W61550  43.973   7.908   2.490
96324W        W61551  39.983  16.254   2.737
96325W        W61552  27.148   1.221  13.972
96326W        W61553  13.265  35.538  10.060
96327W        W61554  34.038  42.785  13.958
96328W        W61555  44.336  10.436   5.112
96329W        W61556  36.089   1.938   1.767
96330W        W61557  15.316  42.050   0.366
96331W        W61558  23.036  10.255  10.193
96332W        W61559  31.826  33.467  13.242
96333W        W61560   9.696  35.216   0.849
96334W        W61561  21.683   3.810  14.321
96335W        W61562  39.940  42.520   2.352
96336W        W61563  28.769  33.017   4.615
96337W        W61564  26.520   3.278  11.181
96338W        W61565  10.854  23.744   0.055
96339W        W61566   8.882  12.450   5.514
96340W        W61567   2.732  34.925   0.927
96341W        W61568  12.608  34.085  14.455
96342W        W61569  36.304  15.774  14.344
96343W        W61570   6.680  33.936  12.426
96344W        W61571  42.641  16.726   3.107
96345W        W61572  13.351  21.469  11.968
96346W        W61573  32.088  35.326   2.808
96347W        W61574  38.143  22.911   3.669
96348W        W61575  15.837  17.083  13.410
96349W        W61576  34.713   3.305   4.986
96350W        W61577  11.681  15.846  12.062
96351W        W61578   1.848   2.177  11.542
96352W        W61579  27.413  12.149   4.553
96353W        W61580  29.823  33.192  12.858
96354W        W61581  41.708  34.392  12.939
96355W        W61582  21.155  22.017   2.981
96356W        W61583  36.024   2.729   2.453
96357W        W61584   4.373  39.320  10.613
96358W        W61585  40.914  20.175  14.703
96359W        W61586   6.520  38.656   2.886
96360W        W61587  43.838   8.831   0.264
96361W        W61588  39.476   5.529  10.150
96362W        W61589   6.078   1.779   4.592
96363W        W61590  15.965  36.996   1.222
96364W        W61591   0.765   0.052  12.698
96365W        W61592  12.721  20.804  13.744
96366W        W61593  43.328  36.580  10.759
96367W        W61594  20.180   4.036   1.094
96368W        W61595  14.570   7.829  10.747
96369W        W61596  36.087  39.073   4.573
96370W        W61597   2.369  15.193   2.512
96371W        W61598  24.270  11.715  14.073
96372W        W61599  26.928  20.157  14.428
96373W        W61600  42.447   9.626   3.392
96374W        W61601  43.506  31.174   0.289
96375W        W61602  19.059  23.024  13.597
96376W        W61603   6.690  31.712  11.841
96377W        W61604  17.104  24.513  10.743
96378W        W61605  25.654  42.492  11.448
96379W        W61606  24.718  10.695  14.914
96380W        W61607   8.036  43.555   0.870
96381W        W61608  44.419   1.254   3.619
96382W        W61609  44.373   2.192  11.963
96383W        W61610  24.654  24.758   2.236
96384W        W61611  15.545  19.797  13.419
96385W        W61612  20.630   9.810  12.947
96386W        W61613  30.678  34.065   1.032
96387W        W61614  43.341   3.146  14.013
96388W        W61615  22.163  34.338  13.868
96389W        W61616   1.503  29.704   4.109
96390W        W61617  12.665  37.574  12.141
96391W        W61618  41.449  37.337  12.441
96392W        W61619  29.245  10.688   1.356
96393W        W61620   9.734  38.437  11.572
96394W        W61621  16.531  38.779  11.601
96395W        W61622  12.271  32.265   4.285
96396W        W61623  10.933  40.858   2.849
96397W        W61624  41.749   0.686  12.620
96398W        W61625  16.417   7.220   2.190
96399W        W61626   1.187  11.893   3.547
96400W        W61627  42.688  31.098  13.898
96401W        W61628  15.299   8.945   0.355
96402W        W61629  22.976  20.781   3.592
96403W        W61630  37.774  32.491  12.344
96404W        W61631  13.750  41.406  14.900
96405W        W61632  34.851   6.146  11.131
96406W        W61633  17.593  39.726   0.340
96407W        W61634  10.300  28.601  11.610
96408W        W61635  11.840  12.480  11.446
96409W        W61636  32.481  13.293  14.485
96410W        W61637  31.731   4.701  11.200
96411W        W61638  20.745   1.449   3.578
96412W        W61639  20.544  40.414  14.621
96413W        W61640  11.175  25.106   4.721
96414W        W61641  19.729  38.384  14.704
96415W        W61642  37.827   9.859  11.988
96416W        W61643   5.847   9.880   2.305
96417W        W61644   6.662  11.503   3.151
96418W        W61645  17.290  18.913   4.832
96419W        W61646  31.618  16.957  12.944
96420W        W61647  16.150  37.343  12.594
96421W        W61648  30.511  42.782   1.405
96422W        W61649   3.738  42.324  14.479
96423W        W61650  19.889  36.699   0.814
96424W        W61651   2.731   0.676   9.869
96425W        W61652  44.165   2.303  11.511
96426W        W61653  44.089   2.257   2.635
96427W        W61654  42.459  10.586   4.421
96428W        W61655   8.429  20.658   5.006
96429W        W61656  16.393  11.612  12.423
96430W        W61657  31.051  21.732  10.528
96431W        W61658  43.716  34.895  11.660
96432W        W61659  22.383  37.390  12.402
96433W        W61660   6.963  38.404  12.417
96434W        W61661  22.751  40.480   3.724
96435W        W61662  10.868  35.247  12.563
96436W        W61663  27.099  27.588  10.518
96437W        W61664  44.225  25.203   1.686
96438W        W61665  11.098  37.981  11.071
96439W        W61666  34.292  37.800   2.193
96440W        W61667  11.701  28.191   0.680
96441W        W61668  36.821  29.627   1.860
96442W        W61669   9.590  16.398   5.183
96443W        W61670  26.956  16.284   4.504
96444W        W61671  16.272  18.155   3.341
96445W        W61672  23.844  39.211   3.730
96446W        W61673  32.538  43.583   0.264
96447W        W61674  42.297   7.703  11.659
96448W        W61675  12.779   4.663   2.922
96449W        W61676   5.915  11.107  11.698
96450W        W61677  39.484  12.631  11.074
96451W        W61678  42.753   7.442   4.041
96452W        W61679  24.518  29.462  12.931
96453W        W61680  40.449   4.541  12.409
96454W        W61681  16.583  44.365   2.619
96455W        W61682  21.298   5.359  10.480
96456W        W61683   0.677  43.027   9.854
96457W        W61684  13.875   6.313  13.887
96458W        W61685   5.690  39.014   2.865
96459W        W61686  29.993  37.100  12.031
96460W        W61687  44.497   9.120   1.439
96461W        W61688   2.153  38.102   0.865
96462W        W61689  13.347  42.922  11.220
96463W        W61690  39.999  41.041  11.675
96464W        W61691  11.463  13.732  11.685
96465W        W61692  13.149  24.860  12.152
96466W        W61693  29.591   9.671  11.426
96467W        W61694  26.441  22.679  10.727
96468W        W61695  32.635  31.686   2.129
96469W        W61696  32.671  29.456   2.300
96470W        W61697   8.362  25.288  10.675
96471W        W61698  38.301  38.802  10.165
96472W        W61699  22.786  31.448  12.549
96473W        W61700   4.490  36.852   4.621
96474W        W61701  40.974  39.299  11.918
96475W        W61702   7.665  37.807   2.842
96476W        W61703  37.642  20.124  12.526
96477W        W61704  44.468  34.857   3.668
96478W        W61705  30.431  31.895  11.461
96479W        W61706  44.403  31.399   3.791
96480W        W61707  39.119   6.224  11.725
96481W        W61708  20.994  32.493   0.988
96482W        W61709  14.616   9.996  14.892
96483W        W61710   9.955   2.730   2.603
96484W        W61711  27.449  33.625  11.998
96485W        W61712   9.162  36.266  11.164
96486W        W61713  19.532  35.476  12.777
96487W        W61714  27.542  14.768   3.626
96488W        W61715  12.408   4.869   2.146
96489W        W61716  25.657  12.874   2.195
96490W        W61717  14.093   4.192  14.019
96491W        W61718  14.245   6.465   0.018
96492W        W61719  30.611  13.981  14.670
96493W        W61720   5.316   3.649  12.504
96494W        W61721  35.289  12.735   0.809
96495W        W61722  23.028  20.755  14.414
96496W        W61723  25.962  28.160  13.984
96497W        W61724  13.718  16.680  14.331
96498W        W61725  13.736  26.563   3.586
96499W        W61726  20.352  33.915  12.138
96500W        W61727  26.502  26.905   3.566
96501W        W61728   2.026   6.444  12.023
96502W        W61729  19.284  39.943  10.746
96503W        W61730  39.887   9.950  10.774
96504W        W61731  17.073  38.196  11.870
96505W        W61732   3.499  16.115  13.502
96506W        W61733   2.413  42.921   3.225
96507W        W61734  12.069  15.606  11.498
96508W        W61735  14.774  30.274   0.837
96509W        W61736  39.830  28.928  14.524
96510W        W61737  12.375  29.664   3.280
96511W        W61738  21.695  26.120   1.386
96512W        W61739  17.369  26.548   1.209
96513W        W61740   3.770  23.027   2.392
96514W        W61741   3.853  40.586  13.338
96515W        W61742  39.692  42.527  10.839
96516W        W61743  30.019  34.700   3.535
96517W        W61744  44.368  30.031  12.813
96518W        W61745   3.834  14.687  12.482
96519W        W61746  15.317  29.708   2.160
96520W        W61747  15.362   9.479   1.351
96521W        W61748   0.003  40.606  13.861
96522W        W61749  21.802  22.405  11.639
96523W        W61750   1.429  31.333   2.173
96524W        W61751  33.059  43.030   4.237
96525W        W61752  33.370   1.484   1.059
96526W        W61753  20.962  10.988  13.967
96527W        W61754  38.872  33.953  12.377
96528W        W61755  10.477  15.380   0.083
96529W        W61756  18.484  10.568  14.230
96530W        W61757  24.060  27.519   4.128
96531W        W61758  14.809  26.855   4.779
96532W        W61759   6.980  27.359   1.249
96533W        W61760  18.262   0.859   0.883
96534W        W61761  22.117  10.055   0.363
96535W        W61762  21.022   8.802   2.679
96536W        W61763   5.412  41.438   3.289
96537W        W61764  29.212  38.285  13.105
96538W        W61765  30.005  25.734  10.265
96539W        W61766  23.047  20.654   1.787
96540W        W61767  13.027  39.882   4.325
96541W        W61768  44.476   8.720  13.890
96542W        W61769  38.356  37.052  11.776
96543W        W61770  32.563  41.088  12.073
96544W        W61771  44.957  31.865   0.373
96545W        W61772  17.964   4.028  12.046
96546W        W61773  31.526  13.897  10.815
96547W        W61774  34.539  40.414   3.096
96548W        W61775   3.538   9.342  14.302
96549W        W61776  35.358  23.481   1.927
96550W        W61777   1.365  22.556  14.698
96551W        W61778  20.151  44.792  12.985
96552W        W61779  27.639  18.609  11.580
96553W        W61780  29.661  44.731  12.138
96554W        W61781  37.935   3.011   3.222
96555W        W61782  44.846  39.358  12.184
96556W        W61783  33.977  32.178   2.707
96557W        W61784   1.792   4.480   4.573
96558W        W61785   2.744  24.620   2.629
96559W        W61786  43.316  26.815  10.821
96560W        W61787   1.939  17.293   1.146
96561W        W61788  23.116  14.498   2.515
96562W        W61789  15.549  44.942   1.834
96563W        W61790  10.102  20.733  10.049
96564W        W61791  10.828  42.832  13.843
96565W        W61792   5.868  15.655   3.196
96566W        W61793  21.690  40.448  12.787
96567W        W61794   2.943  25.577   3.647
96568W        W61795  28.868  43.395   2.333
96569W        W61796  15.530  25.208   4.069
96570W        W61797  38.740  41.991   2.757
96571W        W61798   3.356   1.978   3.841
96572W        W61799   9.767  13.174   0.768
96573W        W61800   7.417  14.337   1.830
96574W        W61801  17.764  37.849   2.840
96575W        W61802  33.499  34.734   0.484
96576W        W61803  37.647  23.299  11.112
96577W        W61804  29.560  16.401   2.319
96578W        W61805  18.195   0.272  14.760
96579W        W61806  17.936  24.149   2.440
96580W        W61807  36.019  25.851  13.896
96581W        W61808   7.553  26.093  11.468
96582W        W61809  15.350   6.146   0.794
96583W        W61810   5.181  20.788   3.637
96584W        W61811   5.467  33.681   2.278
96585W        W61812  12.679  27.517   0.802
96586W        W61813  18.770   4.891   4.449
96587W        W61814   3.967  42.763  12.387
96588W        W61815  21.791   3.418   0.715
96589W        W61816  34.097  24.596   0.318
96590W        W61817  37.978  35.587  13.959
96591W        W61818   9.866  34.922   2.774
96592W        W61819   7.308   0.037   2.446
96593W        W61820  32.478   0.826   0.428
96594W        W61821  26.710  24.960   2.723
96595W        W61822  35.109   1.947   1.273
96596W        W61823  24.119  26.608  12.087
96597W        W61824  34.388  28.045  13.294
96598W        W61825  20.634  32.307   1.328
96599W        W61826  36.329  41.194  10.496
96600W        W61827  22.143  25.682  11.642
96601W        W61828  44.629   0.360   2.508
96602W        W61829   6.114   9.099  13.843
96603W        W61830   1.328  43.890   0.937
96604W        W61831  42.055  28.013   2.814
96605W        W61832  37.530  20.470  14.854
96606W        W61833  30.606   0.809  14.414
96607W        W61834   8.361  40.845  11.188
96608W        W61835  29.932  24.471  12.112
96609W        W61836   9.330   6.076   2.767
96610W        W61837  17.205   9.851   3.448
96611W        W61838  27.087  19.711  14.211
96612W        W61839   0.560   4.408   0.800
96613W        W61840  11.834  22.101   2.149
96614W        W61841  10.841   0.976   1.635
96615W        W61842   1.228   2.099  12.052
96616W        W61843   5.168  18.194   2.889
96617W        W61844  44.855  14.600  14.798
96618W        W61845  11.750  36.535   1.233
96619W        W61846  26.519  26.448  14.200
96620W        W61847  31.457  22.067  11.209
96621W        W61848  23.195  21.367  13.506
96622W        W61849  17.235   1.712  14.324
96623W        W61850  30.086  28.317  13.018
96624W        W61851  35.634  44.880  12.450
96625W        W61852   6.163  19.569  12.917
96626W        W61853   4.621  14.893  10.735
96627W        W61854   3.772  27.519   2.651
96628W        W61855  43.854  39.531  11.594
96629W        W61856  35.464   4.244   1.431
96630W        W61857  43.012  36.481   2.722
96631W        W61858  44.838  15.609  14.910
96632W        W61859  42.290  16.186   1.437
96633W        W61860   9.853   6.956  14.340
96634W        W61861  28.587  18.341   2.170
96635W        W61862  38.999  21.523  13.920
96636W        W61863  37.936  34.648  13.992
96637W        W61864  12.619  41.913  11.162
96638W        W61865   4.912  28.516   3.175
96639W        W61866  16.235   1.384   0.362
96640W        W61867   9.935   7.476  12.995
96641W        W61868  18.346  21.485   3.729
96642W        W61869  14.568  28.975  14.944
96643W        W61870  31.955  34.857   1.636
96644W        W61871  20.634   0.489  12.758
96645W        W61872  30.853  22.117  11.253
96646W        W61873  29.289  39.129  14.277
96647W        W61874  10.252  22.980   2.650
96648W        W61875  15.287   3.757  12.143
96649W        W61876  25.666  23.101  11.645
96650W        W61877  31.542   7.610  13.838
96651W        W61878  31.145  24.817  11.726
96652W        W61879  12.449  42.281  14.214
96653W        W61880  26.580   3.844   2.756
96654W        W61881   4.830  44.883  13.341
96655W        W61882  41.025  24.457  12.504
96656W        W61883  39.566  14.941  13.563
96657W        W61884   7.300  44.516   2.363
96658W        W61885   8.771  13.880   2.088
96659W        W61886  30.499  23.256  11.615
96660W        W61887  16.287   2.783   1.821
96661W        W61888  33.989   4.216   3.107
96662W        W61889  35.939   9.064  11.122
96663W        W61890  14.033  10.776  10.732
96664W        W61891  13.222  29.632  12.350
96665W        W61892  35.474  35.545   4.204
96666W        W61893  15.520   6.342   1.708
96667W        W61894  27.048   7.752   4.380
96668W        W61895  24.773  24.149   4.058
96669W        W61896  40.448  35.543   3.144
96670W        W61897  17.228  33.879   4.382
96671W        W61898   9.178  32.362   4.155
96672W        W61899  12.085  10.586   0.728
96673W        W61900   5.366  41.862   0.279
96674W        W61901  41.946  15.813   1.858
96675W        W61902  32.813  29.623  13.915
96676W        W61903  16.732  37.363  11.372
96677W        W61904  34.012  37.609   2.614
96678W        W61905  42.497   5.319  14.254
96679W        W61906  12.616  14.844  12.048
96680W        W61907   4.343  42.461   2.325
96681W        W61908   8.334  34.032   1.320
96682W        W61909  29.222  35.293  13.071
96683W        W61910  31.678  41.405   1.201
96684W        W61911  37.661  22.102   2.230
96685W        W61912  14.306  22.741  12.886
96686W        W61913  41.517  37.336   4.352
96687W        W61914  16.625  34.415  12.352
96688W        W61915  34.282  27.010  12.835
96689W        W61916  43.505  15.747  13.024
96690W        W61917  41.089  37.892   2.757
96691W        W61918  27.686  34.465  14.336
96692W        W61919  37.067  43.036   3.179
96693W        W61920  30.877   9.663  12.531
96694W        W61921   4.300   2.173   0.826
96695W        W61922   6.257  35.542   1.449
96696W        W61923  36.306  33.914  11.045
96697W        W61924  10.717   1.261   4.353
96698W        W61925  31.003  40.499  13.066
96699W        W61926  16.233  12.974   1.438
96700W        W61927   2.600   2.968  10.293
96701W        W61928   5.447   3.798  14.307
96702W        W61929  32.138  31.345  11.510
96703W        W61930  21.461  30.203  12.222
96704W        W61931   0.966  36.176   4.521
96705W        W61932   5.328  40.982   4.157
96706W        W61933  44.419   6.828   3.190
96707W        W61934  23.919  13.081   3.253
96708W        W61935  38.472  18.769   4.130
96709W        W61936   6.206  36.007   5.280
96710W        W61937  37.533  15.718   1.266
96711W        W61938   9.125  18.192   0.910
96712W        W61939  39.933  35.645  12.898
96713W        W61940  23.735  30.100  14.504
96714W        W61941  15.118  20.033  10.697
96715W        W61942  39.578   6.297   1.857
96716W        W61943  34.506   7.897   4.492
96717W        W61944  12.724  36.539  13.887
96718W        W61945  32.115  22.306  11.036
96719W        W61946  10.866  22.754  10.694
96720W        W61947  42.684  37.241  11.189
96721W        W61948  21.118  19.559  12.344
96722W        W61949  15.691  11.582  12.913
96723W        W61950   1.373   1.430   3.871
96724W        W61951  34.880  36.484   5.647
96725W        W61952  43.065   9.347  11.297
96726W        W61953  32.123  20.192  11.622
96727W        W61954   2.988  21.091   5.038
96728W        W61955   9.320  35.557  11.636
96729W        W61956  33.964   7.508  14.354
96730W        W61957  39.846  29.246   1.017
96731W        W61958  10.261   7.943   1.753
96732W        W61959  31.695  33.026  14.007
96733W        W61960   2.086  16.161   1.306
96734W        W61961  10.208  35.915   0.454
96735W        W61962  20.908  30.739  13.505
96736W        W61963  36.895  33.052   0.432
96737W        W61964  44.612   3.445  10.737
96738W        W61965  43.863  32.322   2.638
96739W        W61966  43.420  38.605  10.594
96740W        W61967   9.465   2.745   2.438
96741W        W61968  11.277  25.643   3.244
96742W        W61969  39.454   3.157  14.770
96743W        W61970  15.508  20.445   4.297
96744W        W61971  37.296  10.637  14.462
96745W        W61972  11.181   9.771  13.774
96746W        W61973  14.370  14.090   0.742
96747W        W61974  31.331   9.580   4.686
96748W        W61975   4.247  32.619  12.071
96749W        W61976  43.383  29.517  14.085
96750W        W61977  20.080  16.466  11.423
96751W        W61978  33.248  28.724   1.898
96752W        W61979  23.001  10.532  11.454
96753W        W61980  17.657   4.227   2.650
96754W        W61981  32.334  33.055   4.699
96755W        W61982  29.906  41.468  10.403
96756W        W61983  41.770  11.810   0.235
96757W        W61984  11.512   3.268  12.857
96758W        W61985  29.208   0.379  14.006
96759W        W61986  38.907   9.183   1.947
96760W        W61987   1.887  12.556  12.819
96761W        W61988  21.664   4.368   4.070
96762W        W61989  17.278  32.917   3.328
96763W        W61990   8.182  33.465   2.419
96764W        W61991   2.998  40.617  13.481
96765W        W61992  35.053  36.821  11.412
96766W        W61993  22.030   7.699   0.359
96767W        W61994  36.544  11.365  14.418
96768W        W61995  21.790  10.630   2.710
96769W        W61996  18.596  21.060   4.065
96770W        W61997  12.893  14.812  11.641
96771W        W61998  18.842  42.243  11.682
96772W        W61999  30.871   7.386  11.762
96773W        W62000   8.764  28.841   0.468
96774W        W62001  44.434   9.841  12.925
96775W        W62002  21.598  15.447   3.677
96776W        W62003  14.716  36.461   4.665
96777W        W62004   2.223   8.166  14.768
96778W        W62005  44.409  42.019  12.451
96779W        W62006  23.893   2.937   1.806
96780W        W62007  36.994  44.733  13.645
96781W        W62008  11.103  41.871  14.420
96782W        W62009  19.351  11.575   4.154
96783W        W62010  32.967  43.693  12.500
96784W        W62011  29.479  18.569  12.072
96785W        W62012  20.961  30.612   4.121
96786W        W62013   6.891   6.374   1.673
96787W        W62014  38.863  30.869   4.995
96788W        W62015  25.454  29.046  13.853
96789W        W62016  17.144   8.696  14.856
96790W        W62017  27.406  15.595   5.019
96791W        W62018   2.279  43.265  13.798
96792W        W62019   6.380  18.817  14.767
96793W        W62020  27.526  23.922  12.560
96794W        W62021  44.408  43.758  13.916
96795W        W62022   6.894  31.044  14.291
96796W        W62023  23.364  44.242   4.139
96797W        W62024  15.659   4.108   0.952
96798W        W62025  25.177   9.655   3.593
96799W        W62026  37.937  40.962   0.002
96800W        W62027  43.620   5.418  13.514
96801W        W62028  38.112  25.077  10.972
96802W        W62029  11.614  38.453  12.574
96803W        W62030  24.642  41.907   3.507
96804W        W62031  23.065  13.666  10.727
96805W        W62032  33.557   6.999  13.928
96806W        W62033  19.650  35.360  12.285
96807W        W62034  40.612  41.768   3.279
96808W        W62035  24.017  21.287   0.074
96809W        W62036  35.850  41.581   3.660
96810W        W62037  35.099  10.059  13.174
96811W        W62038  42.402   5.021  10.683
96812W        W62039  43.458  36.325   0.671
96813W        W62040  27.576  26.140  11.192
96814W        W62041  24.148   1.336   4.424
96815W        W62042   3.319  34.034   2.792
96816W        W62043  12.325  11.864  12.392
96817W        W62044  10.829  35.669  12.836
96818W        W62045  43.261  11.764   2.721
96819W        W62046  13.573  39.545  12.045
96820W        W62047  21.568  24.777  10.849
96821W        W62048   5.889  34.055   0.989
96822W        W62049  33.832  33.896  12.081
96823W        W62050  17.762  29.622   3.324
96824W        W62051  40.006  21.983  13.979
96825W        W62052  41.180  21.815  13.558
96826W        W62053  37.602   3.433  14.914
96827W        W62054   4.936  23.852  14.982
96828W        W62055  15.447  25.595  10.353
96829W        W62056  30.721  16.591  12.347
96830W        W62057  14.675  22.657   3.370
96831W        W62058  42.875  20.245   0.276
96832W        W62059  20.990   2.270  14.160
96833W        W62060  14.133  32.935  12.667
96834W        W62061  43.736  41.898   0.271
96835W        W62062  25.169  11.979  11.657
96836W        W62063   1.070  38.814   2.661
96837W        W62064  34.911  25.267  11.259
96838W        W62065  23.916   7.918   3.185
96839W        W62066  44.696  18.735   0.293
96840W        W62067  19.638  18.807  12.055
96841W        W62068  44.380  39.999  13.707
96842W        W62069   3.719  30.864   4.130
96843W        W62070  24.493  13.319  12.661
96844W        W62071  31.731   8.837  13.843
96845W        W62072  31.481  26.041   2.596
96846W        W62073  27.555  41.950  11.656
96847W        W62074  44.691  15.257  12.421
96848W        W62075  19.235   1.900   4.554
96849W        W62076  26.030  14.762  11.047
96850W        W62077  40.798  22.284  12.533
96851W        W62078  25.177  33.581   1.665
96852W        W62079  30.834   5.820   2.797
96853W        W62080  16.716  33.104  13.978
96854W        W62081  31.514   9.467   1.786
96855W        W62082  31.229  44.944  10.667
96856W        W62083  36.112   0.412  13.933
96857W        W62084  20.529  39.873   3.380
96858W        W62085  17.626  32.490   3.931
96859W        W62086  20.599  43.735  11.107
96860W        W62087   8.908  22.815  12.589
96861W        W62088  40.441   8.094  14.896
96862W        W62089  35.851  39.289  14.772
96863W        W62090   1.124   8.529   1.659
96864W        W62091  35.002  43.327   1.287
96865W        W62092  21.607  38.394   3.751
96866W        W62093   2.979   4.109  12.042
96867W        W62094  40.368  11.856  12.510
96868W        W62095  25.572   9.577   2.981
96869W        W62096  25.131  12.198  13.491
96870W        W62097  29.893   8.720   1.344
96871W        W62098  25.147  32.410  14.310
96872W        W62099  28.378  38.265  11.133
96873W        W62100  28.556  11.954  12.345
96874W        W62101  25.463   4.891  11.533
96875W        W62102  29.270  30.158  11.122
96876W        W62103   9.107  34.853  10.956
96877W        W62104   0.899   6.842   3.173
96878W        W62105  33.059   9.805  11.062
96879W        W62106  30.723  33.699  10.570
96880W        W62107  34.976  35.867  14.249
96881W        W62108   6.484   0.912  12.708
96882W        W62109  29.212   6.543   2.426
96883W        W62110  39.481  17.507  11.560
96884W        W62111  24.949  28.080  13.759
96885W        W62112  15.037  37.533   0.047
96886W        W62113  13.576  40.030  10.940
96887W        W62114  43.420  14.663   3.144
96888W        W62115  14.278  12.231  14.463
96889W        W62116   3.355   5.262   0.839
96890W        W62117  22.861  41.576  10.315
96891W        W62118   8.609  25.546   4.351
96892W        W62119  28.938  12.186  11.008
96893W        W62120  34.500  44.998   2.979
96894W        W62121   6.693  14.536  10.793
96895W        W62122  10.263  19.681  10.431
96896W        W62123  43.653  10.953   0.970
96897W        W62124  16.524  34.957   0.827
96898W        W62125  23.161  37.318  14.884
96899W        W62126  14.722  43.301  13.945
96900W        W62127  19.678   6.939   4.853
96901W        W62128   9.336  21.113   4.534
96902W        W62129  44.338  39.867   2.199
96903W        W62130  42.745  10.143  13.915
96904W        W62131   1.516   2.268  12.456
96905W        W62132  12.940  12.752   0.802
96906W        W62133  24.111  42.572   3.224
96907W        W62134   1.937  19.473  12.667
96908W        W62135  37.363  22.415   3.372
96909W        W62136  20.518  34.940  13.290
96910W        W62137   1.244   5.259  11.264
96911W        W62138  14.021  14.227  12.978
96912W        W62139  42.038  31.420   3.534
96913W        W62140  24.948  19.261  14.929
96914W        W62141  36.096  13.739   4.615
96915W        W62142  21.765  41.537  14.081
96916W        W62143  40.045   7.508   5.515
96917W        W62144   4.048  40.944  12.625
96918W        W62145  23.294  37.600  13.846
96919W        W62146   1.508  34.145  10.828
96920W        W62147  23.171  14.860   2.160
96921W        W62148  15.162   2.940   0.241
96922W        W62149  24.098  26.166  11.789
96923W        W62150  42.623  27.445  13.002
96924W        W62151  14.225  19.173   0.258
96925W        W62152  32.445  20.359  12.101
96926W        W62153  11.354  27.036   2.805
96927W        W62154  41.910   4.968   2.343
96928W        W62155  15.256  39.980  12.928
96929W        W62156  27.177  17.284  11.558
96930W        W62157  34.417   4.408   2.348
96931W        W62158  21.798  13.451  11.644
96932W        W62159  18.230  11.731   4.850
96933W        W62160  21.285  33.912   3.194
96934W        W62161   6.659  39.846  13.596
96935W        W62162  15.744  30.133   4.058
96936W        W62163   7.425  10.365   2.325
96937W        W62164  30.742  18.790  13.556
96938W        W62165  34.176  15.638  14.411
96939W        W62166  41.885  43.341  14.761
96940W        W62167   0.139  20.072   0.278
96941W        W62168  12.189  29.510   3.740
96942W        W62169  25.182   1.489  13.491
96943W        W62170  23.001   5.381   4.324
96944W        W62171  35.105  22.104  13.023
96945W        W62172   8.313  36.647  12.421
96946W        W62173  15.343  32.022  12.351
96947W        W62174   8.213  16.480   3.571
96948W        W62175   8.706   9.998  11.570
96949W        W62176  33.437  32.188  12.955
96950W        W62177  35.254  30.828  12.055
96951W        W62178  19.694  39.971   3.602
96952W        W62179  36.280  34.976  12.976
96953W        W62180  22.786  31.402   2.458
96954W        W62181  36.629  25.601   4.615
96955W        W62182  34.438  38.490  11.492
96956W        W62183  36.500  17.264   4.054
96957W        W62184  40.561  20.096   1.926
96958W        W62185   5.950  31.131   2.243
96959W        W62186  31.063  26.690  11.750
96960W        W62187  38.251   4.857   5.048
96961W        W62188  13.290  37.032   2.261
96962W        W62189  28.961  10.126  14.001
96963W        W62190  28.990  43.047  11.054
96964W        W62191   5.228  28.363  12.919
96965W        W62192   1.945  34.856  14.309
96966W        W62193  36.727  18.848  14.578
96967W        W62194  12.558  12.712   2.192
96968W        W62195  15.814  19.120  13.960
96969W        W62196  34.491   9.391   1.160
96970W        W62197  12.448  33.213  11.557
96971W        W62198  31.887  14.052   1.202
96972W        W62199  37.152   4.844   5.095
96973W        W62200  36.428  34.104   1.085
96974W        W62201  34.735  26.457  14.437
96975W        W62202   1.090  37.163   2.870
96976W        W62203  19.453  20.426  14.770
96977W        W62204   8.271  22.823  13.373
96978W        W62205   8.208  35.342   0.467
96979W        W62206   6.220  16.733   2.773
96980W        W62207   8.720  37.077  10.687
96981W        W62208  32.575  16.541   3.633
96982W        W62209  36.447  29.066  14.287
96983W        W62210  39.729  31.632  13.589
96984W        W62211  39.778  41.107   1.841
96985W        W62212   3.170  19.578  10.355
96986W        W62213   5.545  18.798  10.076
96987W        W62214   4.354  43.531   3.094
96988W        W62215  32.827  34.380  12.809
96989W        W62216   9.826  10.686   2.257
96990W        W62217  14.210  33.460   1.394
96991W        W62218   9.387  44.355  11.539
96992W        W62219  20.125  26.875   1.288
96993W        W62220  39.501   8.614   9.829
96994W        W62221  38.473   5.413  12.269
96995W        W62222  26.478  24.098   0.174
96996W        W62223   5.783  25.511  12.844
96997W        W62224   2.661  27.690  14.305
96998W        W62225   8.452  39.616  12.459
96999W        W62226  23.977  12.228   0.803
97000W        W62227  11.279   5.747   1.488
97001W        W62228  14.533  22.537  12.005
97002W        W62229   5.945  24.068  14.466
97003W        W62230  32.384  12.776   1.898
97004W        W62231  21.306  28.949  11.035
97005W        W62232  34.147  21.537  11.436
97006W        W62233  27.101  18.672   4.582
97007W        W62234   7.625  41.227  11.143
97008W        W62235   3.931  27.002  12.473
97009W        W62236  44.421  26.089  12.460
97010W        W62237   0.321  10.936  13.583
97011W        W62238  16.263  25.035  11.539
97012W        W62239   3.798  13.829   2.343
97013W        W62240  11.392  36.927  12.814
97014W        W62241  33.702  36.583  11.672
97015W        W62242  10.613  20.673  12.125
97016W        W62243  16.241   6.472   2.753
97017W        W62244   0.256  26.582  11.690
97018W        W62245  44.445  44.255   5.153
97019W        W62246  16.142  16.060  10.997
97020W        W62247  10.711  43.252   1.570
97021W        W62248  39.615  22.710  11.222
97022W        W62249  24.990  36.434   1.465
97023W        W62250  21.098  31.647   0.197
97024W        W62251  33.098  39.442  12.438
97025W        W62252   1.935  38.878  12.837
97026W        W62253  25.719  43.435  13.323
97027W        W62254  44.447  27.632   1.712
97028W        W62255   2.716   8.834   3.826
97029W        W62256  17.927   5.746  11.369
97030W        W62257  20.499  41.372   0.512
97031W        W62258  33.646  16.864  10.234
97032W        W62259  12.389  23.291  11.185
97033W        W62260  12.629  43.473  13.580
97034W        W62261  10.352   3.024   2.348
97035W        W62262  27.950  33.625  12.200
97036W        W62263   9.943  30.997  10.491
97037W        W62264   4.950  21.028   0.426
97038W        W62265   6.466  42.561   3.198
97039W        W62266  36.373  17.693  14.503
97040W        W62267  42.025  44.351  13.038
97041W        W62268   3.567  29.794  13.400
97042W        W62269   1.602  25.145  14.487
97043W        W62270  10.394  10.907  11.178
97044W        W62271   5.349  13.125   3.946
97045W        W62272  19.143  41.499   0.712
97046W        W62273  15.657  37.239  10.071
97047W        W62274  21.503  25.707   1.756
97048W        W62275  29.038  19.728   0.522
97049W        W62276  33.785  32.139   0.453
97050W        W62277  19.190   2.018   2.123
97051W        W62278   6.789  16.543  10.265
97052W        W62279  37.417  37.643  11.107
97053W        W62280  28.453  38.850   1.508
97054W        W62281  44.793   5.507   2.846
97055W        W62282  40.874  17.584  14.682
97056W        W62283   6.246   6.085  11.683
97057W        W62284  40.343   0.530  12.440
97058W        W62285  39.421   5.383   4.433
97059W        W62286  19.129  31.234   0.817
97060W        W62287  30.095   4.869  12.105
97061W        W62288  31.681  31.948   3.348
97062W        W62289  18.157   6.295  13.965
97063W        W62290  23.226  10.868   4.056
97064W        W62291  40.915  35.066   4.794
97065W        W62292   8.569  30.396   1.898
97066W        W62293  40.299  13.041   1.830
97067W        W62294  18.601  30.516  13.751
97068W        W62295   5.167  23.750  12.579
97069W        W62296   9.395  11.849  10.160
97070W        W62297  17.093  21.095  12.395
97071W        W62298  16.717  33.837  14.995
97072W        W62299  27.110  17.651   3.648
97073W        W62300   8.937  17.514   0.743
97074W        W62301  22.150  35.945  12.859
97075W        W62302  14.046  16.800  11.608
97076W        W62303  27.072  40.362   2.782
97077W        W62304  38.620  23.740  10.602
97078W        W62305  11.343  10.067  14.415
97079W        W62306  42.059  33.493   0.708
97080W        W62307  34.014  40.865   1.890
97081W        W62308  13.175   8.206   0.512
97082W        W62309  42.597  12.125   4.190
97083W        W62310   7.817  26.111  14.830
97084W        W62311  22.602   9.744  11.259
97085W        W62312  34.669   8.049   0.498
97086W        W62313  30.082  18.689   3.248
97087W        W62314  15.871  32.532   2.320
97088W        W62315   4.267  28.890  11.899
97089W        W62316  25.729  40.918   1.284
97090W        W62317  42.589   4.181  11.201
97091W        W62318  12.615  33.713   4.466
97092W        W62319  22.987  20.577   2.747
97093W        W62320   3.532  22.446  10.120
97094W        W62321  32.836  33.804  14.959
97095W        W62322  35.503  26.588  14.024
97096W        W62323  21.714  24.246   1.859
97097W        W62324  42.852  22.182  13.051
97098W        W62325   5.878  43.547   0.841
97099W        W62326  18.568  43.246   2.364
97100W        W62327   0.881   1.730  12.004
97101W        W62328  15.838  35.522   1.241
97102W        W62329  11.737  16.996  10.705
97103W        W62330  10.938   0.319  13.867
97104W        W62331   0.408  18.570   3.981
97105W        W62332  35.047  41.239   2.385
97106W        W62333  27.509  31.198   4.378
97107W        W62334  13.186  44.202   0.042
97108W        W62335  21.160  27.310  10.388
97109W        W62336  14.119   2.732   2.261
97110W        W62337  30.696  33.051  12.650
97111W        W62338  21.836  34.999   4.847
97112W        W62339   7.329  29.571  12.453
97113W        W62340  31.927  44.652  12.422
97114W        W62341  18.575  27.019  10.709
97115W        W62342  15.661   1.050  11.146
97116W        W62343  43.146  30.470  12.411
97117W        W62344  26.409  21.146  13.142
97118W        W62345  41.168  31.657  14.895
97119W        W62346  17.833  31.085  14.512
97120W        W62347  39.774   6.287   3.637
97121W        W62348   0.262  35.043   3.328
97122W        W62349  42.663  43.542  12.621
97123W        W62350  43.573  26.519  11.584
97124W        W62351  44.091  40.571  12.631
97125W        W62352  19.649   7.527  13.795
97126W        W62353   7.867   7.307  10.889
97127W        W62354  21.276  31.050  11.396
97128W        W62355  23.667  36.818   1.040
97129W        W62356  25.753  35.595   1.420
97130W        W62357  33.926   4.189  14.816
97131W        W62358   6.885  37.553   4.077
97132W        W62359  43.734   7.638  14.366
97133W        W62360   0.572  33.760   3.958
97134W        W62361   9.789  25.304   0.366
97135W        W62362  41.287  36.412   3.748
97136W        W62363  39.002  14.592  10.061
97137W        W62364  17.093  35.007   2.912
97138W        W62365  37.982  38.882   0.219
97139W        W62366  44.752  38.620  10.300
97140W        W62367  44.903   3.112  11.006
97141W        W62368  14.582  32.075  12.891
97142W        W62369  40.397  38.397   0.489
97143W        W62370  17.108  43.393  13.836
97144W        W62371  25.185   4.919   1.396
97145W        W62372   6.433  12.307   2.229
97146W        W62373  29.069  29.308  13.831
97147W        W62374  26.393  12.414   4.530
97148W        W62375   2.709  29.917   3.691
97149W        W62376  38.938  30.990  10.251
97150W        W62377  30.147  34.623   1.256
97151W        W62378  23.452   3.916   0.850
97152W        W62379  42.367   2.819   4.206
97153W        W62380  39.961  32.137  11.129
97154W        W62381  19.412   7.942  14.012
97155W        W62382  11.154   6.835   3.666
97156W        W62383   9.582   1.428   3.070
97157W        W62384  44.758   7.956  14.176
97158W        W62385  25.118  23.491  13.833
97159W        W62386  32.940   3.624   3.692
97160W        W62387  40.342  20.646  12.116
97161W        W62388   8.373   1.631   3.667
97162W        W62389  42.250  41.678   4.073
97163W        W62390  35.740  23.730  14.093
97164W        W62391   8.336  33.151   1.602
97165W        W62392  29.524  30.646   2.141
97166W        W62393  34.187  28.489  13.993
97167W        W62394  18.764  14.218  11.242
97168W        W62395  34.926  28.730  13.360
97169W        W62396  36.045  44.279   0.304
97170W        W62397   2.186  41.582   2.763
97171W        W62398  32.755  12.772   1.486
97172W        W62399  44.315   4.529  14.428
97173W        W62400  22.835  26.140  11.248
97174W        W62401  13.381  43.807  13.038
97175W        W62402  42.987  20.728   0.098
97176W        W62403  44.090  15.866  14.375
97177W        W62404  23.344  29.667  11.937
97178W        W62405  37.647  36.026  13.837
97179W        W62406  17.090  38.160  11.176
97180W        W62407   7.873  27.738   0.403
97181W        W62408  37.395   6.806  11.575
97182W        W62409   8.572  39.910  13.529
97183W        W62410   9.658  14.583  14.887
97184W        W62411  28.507  11.790  12.845
97185W        W62412  32.754  11.520  14.594
97186W        W62413   8.754  31.545  13.078
97187W        W62414  41.898  17.121  13.629
97188W        W62415  27.425  19.165  12.490
97189W        W62416  10.651   0.321   2.850
97190W        W62417  34.062  31.424   1.802
97191W        W62418   6.566  37.479  11.487
97192W        W62419  36.115  43.041   1.948
97193W        W62420  18.871  30.071   3.644
97194W        W62421   7.191  11.801   0.280
97195W        W62422  40.533  19.129   3.836
97196W        W62423  26.996  36.306   2.681
97197W        W62424  16.312  27.509  11.963
97198W        W62425   8.156  12.154  14.029
97199W        W62426  34.828   2.692  11.085
97200W        W62427  25.693   1.221   1.626
97201W        W62428   9.230  18.655   1.807
97202W        W62429  27.472  44.438   0.074
97203W        W62430  31.172   5.286   1.365
97204W        W62431  35.534  44.048   0.354
97205W        W62432  41.238  21.274  13.766
97206W        W62433   5.804  16.872  11.635
97207W        W62434  26.600  33.108  12.223
97208W        W62435  21.425  10.004  14.405
97209W        W62436  23.332  23.229  13.777
97210W        W62437  19.291  24.802  10.931
97211W        W62438  17.004  42.509   3.606
97212W        W62439  34.772  39.457   0.601
97213W        W62440  27.299  11.446  13.962
97214W        W62441  21.477  38.957  11.515
97215W        W62442  39.064  37.235   3.676
97216W        W62443  28.594   7.668   4.599
97217W        W62444  10.131   4.380   3.812
97218W        W62445  11.721  25.916   3.288
97219W        W62446  22.093   1.042  13.397
97220W        W62447  31.833  22.704   3.322
97221W        W62448   2.012  24.706  12.077
97222W        W62449  10.214  18.585   1.848
97223W        W62450  39.937   6.697  12.122
97224W        W62451  29.944   2.922   4.628
97225W        W62452  41.813  26.992   2.734
97226W        W62453  18.098  27.579   1.956
97227W        W62454  10.423  42.913   0.024
97228W        W62455   1.458  27.928  12.518
97229W        W62456  44.275  41.759   4.630
97230W        W62457   8.647  24.203   2.785
97231W        W62458  37.652  20.728  12.343
97232W        W62459  26.094   8.762   5.365
97233W        W62460   5.687   8.785   3.327
97234W        W62461  36.483  11.014  12.011
97235W        W62462   5.364  39.503   4.033
97236W        W62463  44.720   4.506  11.424
97237W        W62464   1.181  28.696   4.024
97238W        W62465  32.624  20.062   0.170
97239W        W62466  10.256  25.502   3.326
97240W        W62467   8.470  33.390  12.131
97241W        W62468  44.371  38.696  13.486
97242W        W62469  24.093  28.504   3.716
97243W        W62470  12.761  22.005  14.780
97244W        W62471  10.949  22.223  11.322
97245W        W62472  11.055  10.725  12.931
97246W        W62473  24.050  22.413   1.388
97247W        W62474  35.475  22.126  13.407
97248W        W62475   7.394  38.378   4.270
97249W        W62476  31.404  41.286  14.759
97250W        W62477  37.806  27.475  13.994
97251W        W62478   9.650  14.804  13.991
97252W        W62479   5.946  18.592  12.009
97253W        W62480  16.820  33.153  12.934
97254W        W62481   2.947  22.154   2.345
97255W        W62482  36.544  10.586  13.004
97256W        W62483  14.663  30.184  11.598
97257W        W62484   5.167  15.508   4.680
97258W        W62485   6.897  13.003  11.908
97259W        W62486  21.563  10.411  11.254
97260W        W62487  13.561  42.435  11.882
97261W        W62488  32.683  32.198  11.180
97262W        W62489  27.625   2.264  11.439
97263W        W62490  15.985  39.552  13.049
97264W        W62491  19.082   9.340   3.343
97265W        W62492  24.584  22.286  10.674
97266W        W62493  32.075   1.687   1.374
97267W        W62494  35.035  10.862   4.641
97268W        W62495  29.840  13.919   2.695
97269W        W62496  27.533   3.937   0.908
97270W        W62497  32.286   2.505   3.101
97271W        W62498  32.047  18.628  14.346
97272W        W62499  13.358   5.596  11.187
97273W        W62500  34.944  22.117   2.758
97274W        W62501   9.190  24.321   3.778
97275W        W62502  25.495  21.959  14.487
97276W        W62503  40.331  22.632   3.243
97277W        W62504   0.639  17.803  14.946
97278W        W62505  31.535  37.618   0.741
97279W        W62506  26.475  19.855  11.026
97280W        W62507  29.853   4.954  12.581
97281W        W62508   2.908   2.820   3.783
97282W        W62509   1.965  13.650   0.952
97283W        W62510  28.445  41.986   1.751
97284W        W62511  16.347  23.728  11.239
97285W        W62512  28.100  14.727  11.396
97286W        W62513  29.005  40.223   1.885
97287W        W62514  33.118  16.717  13.757
97288W        W62515   9.224  41.718   2.314
97289W        W62516  10.949  38.872   1.922
97290W        W62517  44.068  13.097   3.611
97291W        W62518   4.440  41.134  14.926
97292W        W62519   0.816  44.819  14.628
97293W        W62520  22.934   3.006   0.834
97294W        W62521  41.815  32.528   4.290
97295W        W62522  16.101  35.529   4.321
97296W        W62523   6.961  31.064   1.233
97297W        W62524   7.892  40.157  12.041
97298W        W62525  38.959  25.596  11.670
97299W        W62526   6.658  30.476   3.306
97300W        W62527   9.245  14.295   4.816
97301W        W62528   8.812  24.018   3.300
97302W        W62529  42.016  36.639   4.198
97303W        W62530  20.598  12.726  13.987
97304W        W62531  38.517  19.294   2.917
97305W        W62532  30.116  39.212  13.008
97306W        W62533  23.879  36.754   2.087
97307W        W62534  34.035   5.509  10.650
97308W        W62535  16.659   6.802  11.995
97309W        W62536  40.123   2.299   1.713
97310W        W62537  42.138  18.542   4.118
97311W        W62538  13.647  34.818  12.905
97312W        W62539   9.768  23.768  10.780
97313W        W62540   0.282  40.968  11.576
97314W        W62541  26.458  24.039   1.286
97315W        W62542  34.567  10.867   1.192
97316W        W62543  18.084  36.318   2.199
97317W        W62544  42.300  35.376  11.623
97318W        W62545  42.709   5.397   2.300
97319W        W62546   1.730   5.105   3.166
97320W        W62547  28.919  37.927  11.442
97321W        W62548  22.960  14.672  14.462
97322W        W62549  33.560  33.900  13.340
97323W        W62550  40.537  37.450   4.571
97324W        W62551   8.430  10.234  12.413
97325W        W62552  38.721  22.482   5.011
97326W        W62553  28.891  14.810   4.579
97327W        W62554   5.383  33.331   1.879
97328W        W62555   2.908  23.553   1.679
97329W        W62556  44.347  42.524  12.619
97330W        W62557  38.781  24.500  12.508
97331W        W62558  14.328   2.110  11.603
97332W        W62559  44.058  19.039  10.500
97333W        W62560  43.677  30.011  10.449
97334W        W62561  43.234   9.354   0.226
97335W        W62562  15.873  43.701  11.134
97336W        W62563   3.991  20.998   1.924
97337W        W62564   4.199  31.112   3.275
97338W        W62565  17.137  31.405   0.426
97339W        W62566  23.176  18.000  14.917
97340W        W62567  17.295  37.593   2.822
97341W        W62568  15.357   3.397   0.431
97342W        W62569  30.901  31.937   2.137
97343W        W62570  42.059  12.634   0.727
97344W        W62571  14.791  11.403  12.569
97345W        W62572  41.161   3.175   1.132
97346W        W62573  41.136  13.104  13.972
97347W        W62574  22.473  14.427  13.438
97348W        W62575  12.227  19.310   3.618
97349W        W62576  36.890  43.380  14.343
97350W        W62577  21.655  13.480   0.489
97351W        W62578   1.935  32.377  11.714
97352W        W62579   8.875  25.044  13.131
97353W        W62580   7.720  42.296   3.786
97354W        W62581  25.900   9.452  12.405
97355W        W62582  28.534  22.332  14.049
97356W        W62583  14.639  29.530  13.588
97357W        W62584  43.913   3.330   1.244
97358W        W62585  26.474  15.194   5.002
97359W        W62586  26.073  38.355  10.925
97360W        W62587  35.628  15.021  12.889
97361W        W62588  19.407  35.168   4.235
97362W        W62589  24.223  24.061  14.192
97363W        W62590  26.444  11.886   4.377
97364W        W62591   8.114  20.258   2.311
97365W        W62592  31.023  29.645   2.087
97366W        W62593  12.383  19.188   3.060
97367W        W62594  39.854  22.494   4.929
97368W        W62595  20.706   5.375   3.761
97369W        W62596  19.736  29.663   2.745
97370W        W62597  40.943   6.525   0.223
97371W        W62598  19.821  14.257   0.259
97372W        W62599  38.582   0.662  13.938
97373W        W62600  15.651  33.006  10.248
97374W        W62601   9.400  31.007   0.000
97375W        W62602  38.761   7.812  11.619
97376W        W62603  23.982  21.172  13.749
97377W        W62604   1.790  36.923  12.824
97378W        W62605  25.024  25.703  10.891
97379W        W62606  38.949  39.380  10.658
97380W        W62607  32.681  26.577  13.430
97381W        W62608  31.827  21.472   1.195
97382W        W62609  22.227  28.656  12.979
97383W        W62610  29.014  33.275  11.447
97384W        W62611  19.877  43.208  12.470
97385W        W62612   6.282   3.259   2.405
97386W        W62613  11.401   7.442   2.272
97387W        W62614  26.705  25.960  14.430
97388W        W62615  31.363  37.957  13.869
97389W        W62616  15.071  32.808   0.341
97390W        W62617  42.698  18.572   1.697
97391W        W62618  36.504  39.900   3.635
97392W        W62619  34.192  27.374   5.119
97393W        W62620  23.015  10.211   4.690
97394W        W62621  20.114   3.561  10.067
97395W        W62622  31.830  29.601   2.520
97396W        W62623   1.354  26.600  11.986
97397W        W62624   0.305   2.237   1.350
97398W        W62625  40.428  43.249   2.117
97399W        W62626   9.672  25.483   0.845
97400W        W62627   4.188  13.609  13.062
97401W        W62628  12.679  24.627   2.831
97402W        W62629  39.414  29.869   0.321
97403W        W62630  24.280  44.153   0.822
97404W        W62631  33.172  14.198   3.896
97405W        W62632  39.507  12.838  10.590
97406W        W62633  26.744  17.494  11.055
97407W        W62634   4.955  44.105   4.710
97408W        W62635  44.043  19.912  11.401
97409W        W62636  22.165  14.105   0.503
97410W        W62637  37.825  36.183   1.895
97411W        W62638  32.960  43.182  12.560
97412W        W62639  35.944  33.905   2.279
97413W        W62640   6.394   8.224  14.240
97414W        W62641  44.028   9.890   3.563
97415W        W62642  15.189  29.471   2.624
97416W        W62643  41.720  34.628  13.508
97417W        W62644  22.333  32.003  14.217
97418W        W62645  11.298  32.430   1.182
97419W        W62646   0.778  39.923   4.617
97420W        W62647  37.705  11.190   0.225
97421W        W62648  44.914  23.997  10.498
97422W        W62649  28.442  25.205   3.296
97423W        W62650  19.743  10.055  14.884
97424W        W62651   9.877  44.200  11.609
97425W        W62652  38.768  40.433  14.769
97426W        W62653  12.875  18.758   2.754
97427W        W62654   7.279  20.865   0.783
97428W        W62655  20.194  21.857   0.377
97429W        W62656  31.078  33.688   4.837
97430W        W62657  23.328   6.576  11.720
97431W        W62658  20.058  25.498   0.295
97432W        W62659  38.610   9.327   4.032
97433W        W62660   4.730  43.204  12.485
97434W        W62661  36.072  23.415   3.637
97435W        W62662  13.121   9.237  12.959
97436W        W62663  39.707  10.228  13.529
97437W        W62664  18.060  21.869   3.477
97438W        W62665  28.951  34.917  12.114
97439W        W62666  26.032   2.004  14.965
97440W        W62667  40.996  14.313  14.353
97441W        W62668  20.722   4.691  10.621
97442W        W62669  14.274  12.846  12.594
97443W        W62670  26.510   1.321   3.244
97444W        W62671  26.996  13.867  11.456
97445W        W62672  22.570  13.539   3.749
97446W        W62673  42.368  15.853  12.153
97447W        W62674  29.328  14.632  12.330
97448W        W62675  44.090   9.830  12.552
97449W        W62676  17.796  42.271  13.769
97450W        W62677  30.148  14.123  14.857
97451W        W62678   9.224  10.916   3.392
97452W        W62679   3.248   6.744   0.771
97453W        W62680   6.219   4.887  13.615
97454W        W62681  33.069   2.997   1.402
97455W        W62682  33.864  40.302  13.444
97456W        W62683  36.466  39.006  13.648
97457W        W62684   7.014  36.530  14.291
97458W        W62685  19.925   8.166   3.488
97459W        W62686   9.192   0.680   5.020
97460W        W62687  34.770  42.423  11.560
97461W        W62688  36.100  23.697   0.397
97462W        W62689   2.693  22.655  10.620
97463W        W62690  15.283  30.914  13.075
97464W        W62691   9.480  24.944   5.143
97465W        W62692  13.250  29.560  11.844
97466W        W62693  12.358  27.896  14.290
97467W        W62694  39.927  32.385   4.592
97468W        W62695  34.400  12.714  12.135
97469W        W62696  39.213  31.823  14.236
97470W        W62697  26.617  26.421   1.103
97471W        W62698   8.378  43.826   3.927
97472W        W62699  22.774  36.047   1.959
97473W        W62700  17.586  10.452  12.914
97474W        W62701   2.003  21.619  13.530
97475W        W62702  17.328   9.269  10.999
97476W        W62703  39.372   4.862  14.766
97477W        W62704   4.220  38.822  10.584
97478W        W62705  11.110  18.575  12.404
97479W        W62706  16.522  27.508  13.820
97480W        W62707  16.237  33.387   1.139
97481W        W62708   1.782  22.517  11.814
97482W        W62709  13.797  10.889  11.168
97483W        W62710  25.754  16.673  12.684
97484W        W62711  42.408  25.022   1.164
97485W        W62712  10.658  23.636  10.442
97486W        W62713  37.377  24.303  12.522
97487W        W62714  12.749   5.436  11.969
97488W        W62715  37.077  23.524  10.762
97489W        W62716  22.203  43.980  12.931
97490W        W62717  10.846  26.754  12.910
97491W        W62718   7.889  29.846   1.949
97492W        W62719  11.561  25.566   3.658
97493W        W62720  26.496  44.125   3.810
97494W        W62721  17.618  11.141  14.364
97495W        W62722  18.281   9.743   0.389
97496W        W62723  33.646  30.006   1.810
97497W        W62724  42.274  30.618   3.866
97498W        W62725  12.748  26.469   2.293
97499W        W62726  33.855  20.683  12.935
97500W        W62727  27.495  28.942   1.277
97501W        W62728   5.292   5.048   1.009
97502W        W62729  28.542  35.543  14.289
97503W        W62730  25.295  11.636  12.510
97504W        W62731   5.268  10.100   2.684
97505W        W62732  26.249  19.759  12.072
97506W        W62733  14.107  25.790  10.885
97507W        W62734  38.583  26.900  12.474
97508W        W62735   4.739  30.077  13.519
97509W        W62736  29.734   4.401   2.785
97510W        W62737   4.574  36.636   4.133
97511W        W62738  26.892   5.236  11.973
97512W        W62739  13.056  40.903   1.962
97513W        W62740   3.940   5.213  13.453
97514W        W62741   6.813  35.543  14.154
97515W        W62742  22.554  20.786   4.498
97516W        W62743   9.822  33.559  11.549
97517W        W62744   4.137  27.619  10.653
97518W        W62745  35.829   2.335  14.523
97519W        W62746  32.969   6.358   3.305
97520W        W62747   1.669   2.973   0.177
97521W        W62748  14.888   0.005   0.886
97522W        W62749  32.855   3.375  13.071
97523W        W62750  31.212  42.731   4.169
97524W        W62751  20.024   2.149  11.087
97525W        W62752  37.109   8.343   2.330
97526W        W62753  33.083  24.420   0.464
97527W        W62754   2.985   6.083  14.527
97528W        W62755  15.275   7.800  13.841
97529W        W62756  21.647   6.226  13.303
97530W        W62757  27.468  21.931   0.719
97531W        W62758  23.004  14.244  10.950
97532W        W62759  31.900   9.227   2.691
97533W        W62760  17.170  24.970   4.711
97534W        W62761  15.384  18.721  14.911
97535W        W62762  22.261  10.661  12.680
97536W        W62763  19.349  44.115  11.514
97537W        W62764  40.559  32.581   3.824
97538W        W62765  28.848  20.214  11.803
97539W        W62766   8.308  13.732   2.285
97540W        W62767  11.172  24.521   0.667
97541W        W62768  28.062  10.173  13.930
97542W        W62769  16.160  28.589  11.211
97543W        W62770  21.600   9.868  13.054
97544W        W62771  27.921  17.705  14.658
97545W        W62772  23.640   3.698  13.584
97546W        W62773  19.609   5.381  11.398
97547W        W62774  17.129  21.243  13.368
97548W        W62775  24.318   0.316  13.342
97549W        W62776  29.142  43.532   3.210
97550W        W62777  32.347   7.781   1.717
97551W        W62778  38.992   1.052   2.439
97552W        W62779  16.533  12.249  13.528
97553W        W62780  15.563  32.605  14.549
97554W        W62781  20.484   0.929  14.851
97555W        W62782  19.319   4.146   4.309
97556W        W62783  32.166  17.217   4.108
97557W        W62784  21.484  13.074   4.160
97558W        W62785  30.709  19.585  14.325
97559W        W62786  29.098  23.026  11.095
97560W        W62787  25.120  32.667   4.532
97561W        W62788  28.061   5.028   1.401
97562W        W62789  18.536  44.390  10.391
97563W        W62790  25.792  28.434  11.108
97564W        W62791  13.614   6.189   1.796
97565W        W62792  11.293  24.477  14.821
97566W        W62793   3.824  14.705  13.430
97567W        W62794  37.083  20.511  14.051
97568W        W62795  23.706  37.142   3.749
97569W        W62796   8.271  14.203   3.114
97570W        W62797  24.643  17.488   1.294
97571W        W62798  17.340  26.572  12.255
97572W        W62799   5.920  44.246   4.679
97573W        W62800  17.606  33.717  12.944
97574W        W62801   3.177   7.943  12.430
97575W        W62802   9.778  37.321   0.081
97576W        W62803  12.636   4.072  12.264
97577W        W62804  43.722  35.967  13.472
97578W        W62805  33.601  32.670   2.876
97579W        W62806  15.543  33.282  14.476
97580W        W62807  13.172  36.528   2.228
97581W        W62808   8.345  21.184  12.010
97582W        W62809  40.275  26.478  13.060
97583W        W62810  32.651  20.554  12.520
97584W        W62811  14.185  16.637  13.505
97585W        W62812  39.972  11.909   2.947
97586W        W62813  30.336  21.452  11.098
97587W        W62814  38.431  22.141  14.829
97588W        W62815  29.375  16.614   1.876
97589W        W62816  18.004   4.381   1.653
97590W        W62817  25.522   1.944  12.953
97591W        W62818  35.496  15.136  14.511
97592W        W62819  23.646   2.297  13.924
97593W        W62820  34.760  43.037   5.088
97594W        W62821  30.558  29.001  14.888
97595W        W62822  29.173   6.623   3.320
97596W        W62823  20.198  39.940  14.282
97597W        W62824   9.441  11.267   0.358
97598W        W62825   9.311   6.408   3.710
97599W        W62826  42.484  11.253   4.565
97600W        W62827  35.006  21.804  14.437
97601W        W62828  36.497  29.092  12.302
97602W        W62829  25.089  29.881  10.976
97603W        W62830   6.063   7.207  11.134
97604W        W62831  15.787  41.902  10.487
97605W        W62832  23.483  37.609   1.735
97606W        W62833   6.149  44.888   3.643
97607W        W62834   2.520  43.216  12.569
97608W        W62835  12.306   9.889  11.248
97609W        W62836  28.677  19.496   4.726
97610W        W62837  33.476   6.293   4.494
97611W        W62838  42.085  27.416  12.453
97612W        W62839  37.901  33.004  14.427
97613W        W62840   2.186  15.876  10.265
97614W        W62841  10.663  34.843  13.456
97615W        W62842  35.868  42.326   4.167
97616W        W62843   1.059  35.786   0.256
97617W        W62844  11.384  14.837   4.108
97618W        W62845  18.301  15.371  14.546
97619W        W62846   9.194  14.991  12.148
97620W        W62847  43.880  36.211   4.761
97621W        W62848   5.024  14.085  11.134
97622W        W62849  25.962  23.553   0.822
97623W        W62850  29.999  17.808  13.468
97624W        W62851  24.449   9.120   4.342
97625W        W62852  22.189  22.581   4.203
97626W        W62853  24.106   2.828  12.135
97627W        W62854  21.195  14.206   3.830
97628W        W62855  30.826  34.203  11.453
97629W        W62856   2.381   1.330  10.389
97630W        W62857  13.481  20.508   0.655
97631W        W62858  31.985  38.502  12.804
97632W        W62859  14.623   7.841   2.690
97633W        W62860  21.146  21.362   4.603
97634W        W62861  42.076  30.390  12.041
97635W        W62862  42.012  22.549  11.047
97636W        W62863  22.856   8.556  10.389
97637W        W62864   8.188   4.501   0.779
97638W        W62865  25.350  28.094   1.161
97639W        W62866  21.181  13.658  12.120
97640W        W62867  20.639  19.598   4.183
97641W        W62868   3.871  40.837  13.926
97642W        W62869  44.334   0.679   2.795
97643W        W62870   0.315  22.960  14.460
97644W        W62871  40.005  13.124   1.265
97645W        W62872  14.043   0.474   3.849
97646W        W62873  14.859   8.596  12.858
97647W        W62874  21.660  18.390  14.199
97648W        W62875  27.120  10.670  13.929
97649W        W62876  23.728  25.215   3.187
97650W        W62877  26.377  38.322   3.627
97651W        W62878  37.566  23.549   2.128
97652W        W62879   1.510  40.897  11.609
97653W        W62880   2.441   6.251   3.728
97654W        W62881  28.865  44.100  14.522
97655W        W62882  25.394  27.230  12.915
97656W        W62883  29.048  38.427   2.454
97657W        W62884  32.362  19.793   1.290
97658W        W62885  34.078  17.545   4.857
97659W        W62886  43.474  12.858  11.731
97660W        W62887  29.056  35.599  14.042
97661W        W62888  41.771   9.371  10.728
97662W        W62889  33.092  13.724   0.851
97663W        W62890  21.040  12.843  10.173
97664W        W62891  35.629  43.041   3.273
97665W        W62892  21.171  39.459  14.347
97666W        W62893  19.142  44.976  14.606
97667W        W62894  39.222  27.927  12.062
97668W        W62895  17.553  41.815  13.523
97669W        W62896  25.056   9.358  12.849
97670W        W62897  29.766   0.928  14.936
97671W        W62898  30.622  11.377   1.257
97672W        W62899  35.616  30.255  13.891
97673W        W62900  34.163  12.729   2.718
97674W        W62901  44.702  21.152  13.032
97675W        W62902  10.710  39.434  10.326
97676W        W62903  21.720  13.477   3.823
97677W        W62904  39.375  28.248   4.282
97678W        W62905   0.299  43.813  14.801
97679W        W62906  41.303  24.866   3.243
97680W        W62907  21.510  42.972   2.377
97681W        W62908   7.904  30.494  11.513
97682W        W62909  21.691  18.372  13.692
97683W        W62910  34.733  31.097  11.318
97684W        W62911  41.748   6.446  12.122
97685W        W62912  39.534  36.595   3.240
97686W        W62913  21.023  15.578  13.311
97687W        W62914  21.159  10.027   5.252
97688W        W62915  18.826  24.049  11.740
97689W        W62916  40.916  36.515   1.504
97690W        W62917  32.179  30.978  14.062
97691W        W62918  44.202   4.427  11.407
97692W        W62919  10.267  15.615  14.003
97693W        W62920  23.806  10.577   4.648
97694W        W62921  28.425  37.124  14.785
97695W        W62922  14.932  34.020   0.866
97696W        W62923  10.930  27.226  11.971
97697W        W62924  28.504  11.703  13.356
97698W        W62925  12.215   1.628  13.384
97699W        W62926   9.558  22.585   1.300
97700W        W62927   8.515  21.936   1.324
97701W        W62928  21.582  40.321  11.826
97702W        W62929   6.190  39.090  12.886
97703W        W62930  28.761   7.147  13.111
97704W        W62931  30.885  26.802  11.272
97705W        W62932  18.242  29.418   2.326
97706W        W62933  39.611  22.257  11.539
97707W        W62934  14.832  17.060  13.963
97708W        W62935  27.044   2.026   0.552
97709W        W62936  11.143  29.469  14.026
97710W        W62937   1.040  39.393   3.263
97711W        W62938  31.408  21.230   3.662
97712W        W62939  29.626  10.603  11.727
97713W        W62940  35.735  15.780  13.390
97714W        W62941  31.384  40.972   0.430
97715W        W62942  25.646   6.908  12.672
97716W        W62943  44.749  17.279   5.407
97717W        W62944  23.967  35.968  14.929
97718W        W62945  36.592  20.632   0.785
97719W        W62946  30.141   1.608  14.514
97720W        W62947  16.314  33.978   3.942
97721W        W62948  19.637  35.114   0.169
97722W        W62949  34.174  43.823  11.953
97723W        W62950  30.999  14.174   0.431
97724W        W62951  40.500   6.340  12.359
97725W        W62952  25.066  30.539  13.190
97726W        W62953  36.565  39.578  14.991
97727W        W62954  29.495   1.552  11.072
97728W        W62955  32.506   0.142  11.628
97729W        W62956  22.271  33.574  13.444
97730W        W62957  36.040   5.767  14.237
97731W        W62958  18.301  28.921   1.479
97732W        W62959  19.309  31.170  14.590
97733W        W62960  34.927  14.906  11.622
97734W        W62961  30.525   6.859  13.293
97735W        W62962  12.602  42.443  11.219
97736W        W62963  18.586  30.046   1.446
97737W        W62964  24.116  10.852   3.213
97738W        W62965  37.202  14.291   0.139
97739W        W62966  26.727  26.987   5.040
97740W        W62967  34.045  12.908   5.017
97741W        W62968  34.559  28.486   4.599
97742W        W62969  20.687  14.720   3.364
97743W        W62970  44.015  18.416  11.579
97744W        W62971  23.087  10.544   3.670
97745W        W62972  39.630  40.572  13.844
97746W        W62973   9.225  14.263  13.519
97747W        W62974  10.889   5.977  14.306
97748W        W62975  25.852  12.276  11.191
97749W        W62976  44.529  41.409  11.270
97750W        W62977   5.764  35.871   0.797
97751W        W62978  42.863   0.528   2.856
97752W        W62979  22.762   8.696   1.013
97753W        W62980  27.594   3.210  14.384
97754W        W62981  37.497   5.119   3.639
97755W        W62982   3.007  11.047  11.890
97756W        W62983  42.387   9.725   3.911
97757W        W62984  32.071  15.224  12.560
97758W        W62985  30.721  44.920  11.958
97759W        W62986  14.900  27.779  11.039
97760W        W62987  31.794  18.133  13.311
97761W        W62988  34.914  14.777   4.462
97762W        W62989  35.081  12.571  14.526
97763W        W62990  44.802   0.484   2.028
97764W        W62991  10.246  36.937   0.401
97765W        W62992  12.870  28.209   0.261
97766W        W62993   7.423   8.168   3.708
97767W        W62994  29.491   1.216   0.393
97768W        W62995  23.037  44.619  13.218
97769W        W62996  24.166  15.681  12.839
97770W        W62997  16.101  35.750  12.344
97771W        W62998   1.802   8.197   1.443
97772W        W62999  44.209   7.627  12.966
97773W        W63000  30.766  24.106  11.427
97774W        W63001  19.856  35.001   1.404
97775W        W63002  37.368  41.239   2.672
97776W        W63003   8.151  17.220   4.477
97777W        W63004  15.745  15.519   1.277
97778W        W63005  12.164  43.612  10.620
97779W        W63006  38.080  12.655   2.150
97780W        W63007  28.615   4.075   0.793
97781W        W63008  35.390  43.337  11.078
97782W        W63009  22.616   3.953   0.519
97783W        W63010  39.371  15.319  12.600
97784W        W63011  39.466  40.040  11.654
97785W        W63012  21.826  15.633   1.317
97786W        W63013   3.961  23.976  13.050
97787W        W63014  25.924  36.981  14.932
97788W        W63015  19.260   5.947  11.050
97789W        W63016  37.992  15.094  13.400
97790W        W63017  21.457  30.140  12.739
97791W        W63018  15.235  43.062  10.457
97792W        W63019  40.344  22.769   5.043
97793W        W63020  15.667   9.375   0.462
97794W        W63021  31.558  30.853   3.569
97795W        W63022  19.634   2.045  14.823
97796W        W63023  25.964  44.828   2.216
97797W        W63024  26.079  18.280   3.247
97798W        W63025  35.443  16.068   4.655
97799W        W63026  31.020   8.153  14.380
97800W        W63027  44.552  32.035  12.409
97801W        W63028   6.816  34.087   0.943
97802W        W63029  15.295  15.597   1.940
97803W        W63030  17.652  33.980   3.171
97804W        W63031  41.870   1.748  14.928
97805W        W63032  29.434  22.695  14.874
97806W        W63033  26.978  24.060   0.117
97807W        W63034  38.119   2.295  13.426
97808W        W63035  29.093  22.699  14.457
97809W        W63036   8.387  34.662   0.618
97810W        W63037  34.018  20.254  13.635
97811W        W63038  23.938  42.509   2.332
97812W        W63039  14.111  36.999  13.144
97813W        W63040  42.412   8.231   3.455
97814W        W63041  36.997   7.413   2.788
97815W        W63042  14.685  26.551  14.042
97816W        W63043  23.691  18.916  12.167
97817W        W63044  44.417  12.132  11.453
97818W        W63045  31.328   6.753   2.286
97819W        W63046  43.878  42.542   1.290
97820W        W63047  28.480   5.388  11.196
97821W        W63048   0.944  17.224   1.373
97822W        W63049  13.295  33.375  12.366
97823W        W63050  32.132  41.724   1.262
97824W        W63051   9.073  42.779   3.644
97825W        W63052   8.276  17.261   9.969
97826W        W63053   6.647  43.352   4.550
97827W        W63054   5.636  13.856   1.908
97828W        W63055   2.635  16.701  10.638
97829W        W63056  18.280  27.453  10.742
97830W        W63057  29.298  23.563   2.347
97831W        W63058  33.246  31.435  10.475
97832W        W63059  37.475  22.002  14.283
97833W        W63060  42.236  17.038  12.944
97834W        W63061  32.135   4.827  11.537
97835W        W63062   5.384  39.402   0.396
97836W        W63063  27.415  16.130   0.147
97837W        W63064  32.058  27.577  11.692
97838W        W63065  40.472  38.037   3.400
97839W        W63066  22.420   1.286  13.079
97840W        W63067  26.207  35.418   2.816
97841W        W63068  17.804  41.403  14.314
97842W        W63069  16.062   6.152  12.151
97843W        W63070  23.217  20.235   3.647
97844W        W63071  37.014  42.790  14.689
97845W        W63072  27.039   8.084  12.981
97846W        W63073  27.701   8.369  14.815
97847W        W63074  11.595  34.911  11.779
97848W        W63075  24.133  28.246   4.770
97849W        W63076  32.721  36.325   1.215
97850W        W63077   8.749  11.773   2.211
97851W        W63078  27.427   7.001   2.729
97852W        W63079  26.484   7.448   4.144
97853W        W63080   6.394   2.239   3.409
97854W        W63081  24.682  41.371   0.138
97855W        W63082  10.339   0.029   1.696
97856W        W63083  36.480  19.124  12.077
97857W        W63084  37.928  38.898  11.414
97858W        W63085  28.586  40.457  10.637
97859W        W63086  18.452  37.953  12.598
97860W        W63087  31.905  10.147  13.394
97861W        W63088   6.683  23.123  13.009
97862W        W63089  23.202  26.505  11.171
97863W        W63090  21.577  19.721   0.004
97864W        W63091  36.783   0.714  11.694
97865W        W63092  23.036   7.943  14.662
97866W        W63093  26.761   7.208  13.428
97867W        W63094  31.154  34.414   4.203
97868W        W63095  18.173  34.921   1.339
97869W        W63096  24.057   6.280   0.787
97870W        W63097  21.161  12.862   3.789
97871W        W63098  24.068   9.233  10.780
97872W        W63099  34.608   0.392  11.995
97873W        W63100  10.065  37.076   0.876
97874W        W63101  17.053   8.938   4.201
97875W        W63102  12.910  20.782   1.828
97876W        W63103  43.278  12.619   2.395
97877W        W63104  10.809  18.467   2.563
97878W        W63105  18.034  39.973   0.483
97879W        W63106  34.991  11.089   3.009
97880W        W63107  20.808  25.534  14.467
97881W        W63108   3.766  24.601  13.975
97882W        W63109  21.089  38.238   1.773
97883W        W63110  30.019  19.849   0.457
97884W        W63111  39.991  18.643   2.189
97885W        W63112  30.031  14.302   1.763
97886W        W63113  30.433  43.521   2.307
97887W        W63114  38.881  16.973  14.992
97888W        W63115  26.543  13.987   3.704
97889W        W63116  40.291  15.198  12.593
97890W        W63117  29.571  40.358  11.446
97891W        W63118   0.981  30.179  10.537
97892W        W63119   8.969  14.332   2.252
97893W        W63120  17.119  27.111   0.412
97894W        W63121  40.265  17.101   3.790
97895W        W63122  44.129   8.363   2.266
97896W        W63123  11.930   9.371   3.830
97897W        W63124  17.324  13.841  13.916
97898W        W63125   3.283  40.457   1.504
97899W        W63126  14.425  20.490  12.052
97900W        W63127   1.406  42.841   1.660
97901W        W63128   2.148  37.085   0.872
97902W        W63129  17.778  42.730   2.409
97903W        W63130  42.759  23.523   0.888
97904W        W63131  13.210  39.782  12.362
97905W        W63132   2.990   9.707   4.166
97906W        W63133  31.502  43.124  12.858
97907W        W63134  38.396  31.635   0.019
97908W        W63135   1.426   0.658  11.035
97909W        W63136  30.461  23.532   0.380
97910W        W63137   6.758  36.326   3.303
97911W        W63138  30.676  24.577   2.405
97912W        W63139  22.768  21.879   1.526
97913W        W63140  20.487   4.698   1.838
97914W        W63141  44.830  21.783  11.632
97915W        W63142  38.823   4.354  13.359
97916W        W63143  37.375  12.283   2.926
97917W        W63144   6.703  28.482  14.071
97918W        W63145  30.051   2.105  14.425
97919W        W63146  29.567  22.436   1.868
97920W        W63147  29.340  13.873   0.169
97921W        W63148  27.690   3.313   1.170
97922W        W63149   2.406  29.858   0.796
97923W        W63150  16.139  38.856  11.940
97924W        W63151  37.953  36.730   1.173
97925W        W63152   8.107  18.260   4.982
97926W        W63153  43.547  11.277  13.163
97927W        W63154   1.943  28.547   4.422
97928W        W63155  40.870  30.584   0.482
97929W        W63156   2.251  25.505   4.305
97930W        W63157  42.700  11.176   1.420
97931W        W63158  12.756   3.681  11.412
97932W        W63159  23.861  11.613  13.352
97933W        W63160  28.064  40.328  10.400
97934W        W63161  25.050   2.116   5.131
97935W        W63162  41.152  15.222  11.542
97936W        W63163   1.469  39.862  10.993
97937W        W63164   7.073  12.791   3.558
97938W        W63165  38.721  44.966  14.564
97939W        W63166   7.006   6.227  12.080
97940W        W63167  27.499  12.885   2.853
97941W        W63168  11.444  14.851  14.344
97942W        W63169  31.223  39.903   4.118
97943W        W63170  42.964   0.030   2.724
97944W        W63171  15.013   3.512  14.923
97945W        W63172  34.976  37.967   1.577
97946W        W63173  43.057   1.509   1.615
97947W        W63174  41.431  29.178  13.905
97948W        W63175  14.646   1.081  10.779
97949W        W63176  42.603  21.007  11.625
97950W        W63177  33.113  38.042   1.329
97951W        W63178  44.764  32.096  13.388
97952W        W63179  38.131   5.546  13.904
97953W        W63180  28.400   8.798   4.448
97954W        W63181  14.707  27.706   0.238
97955W        W63182   4.766  11.603   4.641
97956W        W63183  42.922  33.406   3.690
97957W        W63184  12.695  11.709   3.306
97958W        W63185  44.506  23.814   2.705
97959W        W63186  31.348  39.105  12.538
97960W        W63187  24.462  21.413   4.535
97961W        W63188   9.195  31.632  14.869
97962W        W63189  11.836   0.539   4.113
97963W        W63190  40.510  44.242   1.567
97964W        W63191  15.311   5.295   2.364
97965W        W63192  19.560  15.349  12.438
97966W        W63193  38.486  11.659  11.927
97967W        W63194  17.043  10.325  14.915
97968W        W63195  16.043  24.157  11.222
97969W        W63196  26.261  31.061  11.222
97970W        W63197  33.639  24.706   2.932
97971W        W63198   3.798  33.411   0.916
97972W        W63199  34.093  12.845   0.260
97973W        W63200   1.743  17.087  11.118
97974W        W63201  40.832  22.216   4.106
97975W        W63202   5.613  40.606   2.285
97976W        W63203   5.443  20.862   0.436
97977W        W63204  36.198  29.938  12.805
97978W        W63205  20.284  38.621  11.394
97979W        W63206  25.497   1.452  13.068
97980W        W63207   4.922  32.551   0.804
97981W        W63208  40.363  34.579   2.373
97982W        W63209  16.867  20.308   3.715
97983W        W63210   3.183  33.399   2.097
97984W        W63211  11.607  34.225   1.833
97985W        W63212  16.226  24.388   4.152
97986W        W63213  20.222  30.464   4.623
97987W        W63214  24.027  40.240   3.373
97988W        W63215  19.787  15.463   0.228
97989W        W63216  13.936  38.892   4.727
97990W        W63217  42.053   7.847   2.828
97991W        W63218  40.890  20.956   3.566
97992W        W63219  40.625  20.345  12.408
97993W        W63220   5.668  11.386   3.239
97994W        W63221  27.234  29.602  11.075
97995W        W63222  28.195  41.177   0.834
97996W        W63223  10.199  18.939  12.503
97997W        W63224  36.403  44.247  12.927
97998W        W63225  39.896  23.236   3.825
97999W        W63226  42.933  20.050   0.755
98000W        W63227  44.268  34.246   4.632
98001W        W63228  24.386  31.600  14.932
98002W        W63229  14.099   5.314   0.068
98003W        W63230  23.392  14.065  13.779
98004W        W63231  13.588  29.402  12.610
98005W        W63232   0.359  40.550  14.957
98006W        W63233  42.227   6.871   4.995
98007W        W63234   0.754  20.749  13.911
98008W        W63235  32.204  25.528  12.867
98009W        W63236  38.453  24.868  12.168
98010W        W63237  11.695  30.896  10.190
98011W        W63238  37.908  12.293  13.909
98012W        W63239  41.390   7.319   2.346
98013W        W63240  15.256  15.371  13.943
98014W        W63241   5.013  25.777   9.809
98015W        W63242  43.749  11.106  14.629
98016W        W63243  15.809  33.825   1.960
98017W        W63244  22.022  42.001   3.249
98018W        W63245   5.864  11.318   3.981
98019W        W63246   4.867  11.144  10.131
98020W        W63247   1.666  35.968   4.967
98021W        W63248  36.884  43.970  12.967
98022W        W63249   4.429  40.085   3.259
98023W        W63250  27.557  30.252   4.548
98024W        W63251  34.590  16.288  13.827
98025W        W63252  28.877  42.838   2.730
98026W        W63253   8.831   5.602  11.824
98027W        W63254  44.405   7.395  12.397
98028W        W63255  44.885  32.555   2.713
98029W        W63256  40.036  33.962  10.918
98030W        W63257  38.347  36.083  13.206
98031W        W63258  38.559  17.919   2.822
98032W        W63259  38.304  32.764  10.719
98033W        W63260  18.037  43.839   3.038
98034W        W63261   2.352  12.051   4.114
98035W        W63262   6.563  31.049   0.864
98036W        W63263  20.755   4.847   3.854
98037W        W63264  34.087  13.902   9.871
98038W        W63265  12.800  31.947  12.588
98039W        W63266  35.905   1.711   2.629
98040W        W63267  39.929  16.707   0.558
98041W        W63268   8.903  24.094   1.763
98042W        W63269  11.344   7.076   2.684
98043W        W63270   7.903  20.268   1.639
98044W        W63271  31.427   9.892  12.609
98045W        W63272  36.423  16.923   3.278
98046W        W63273  13.579  16.715   0.396
98047W        W63274  30.920   4.279  11.471
98048W        W63275  14.607  16.309  14.259
98049W        W63276  13.040  14.535  12.932
98050W        W63277  25.255  11.128  11.170
98051W        W63278  27.864  15.351  12.932
98052W        W63279  20.585  27.988   0.781
98053W        W63280  38.137  19.521  10.630
98054W        W63281  40.933   5.932   2.759
98055W        W63282  28.297  11.331   0.299
98056W        W63283  39.374  29.301   3.191
98057W        W63284  18.914   8.828  12.039
98058W        W63285  39.078  27.752  14.208
98059W        W63286  43.464  38.101  10.720
98060W        W63287  44.391   4.426  13.251
98061W        W63288  41.639  18.326  12.908
98062W        W63289  36.085  31.478  11.865
98063W        W63290  24.500  36.559   4.187
98064W        W63291  28.898  30.526   4.353
98065W        W63292   0.811  39.536  14.780
98066W        W63293  16.188  38.713  10.615
98067W        W63294  38.650  34.768   4.195
98068W        W63295  24.191  10.632   1.140
98069W        W63296  43.140  34.904   3.877
98070W        W63297  27.841  26.633   4.528
98071W        W63298  44.243  22.175   0.129
98072W        W63299  22.000  30.642  14.438
98073W        W63300  10.329  26.583   1.263
98074W        W63301  29.108   3.316  14.060
98075W        W63302   8.837   3.491   1.270
98076W        W63303  24.539  23.080   4.544
98077W        W63304  30.262  25.573  10.686
98078W        W63305  32.143  23.653  14.928
98079W        W63306   4.360   4.342   1.478
98080W        W63307  30.855  38.947  12.468
98081W        W63308   8.250  12.745   1.626
98082W        W63309  32.087  26.275   1.830
98083W        W63310  33.849  33.010   0.382
98084W        W63311  41.020  25.770   0.082
98085W        W63312  42.591  43.204  12.053
98086W        W63313  44.716  44.696  14.892
98087W        W63314  32.078  21.601  14.335
98088W        W63315  39.113  42.048   1.817
98089W        W63316  42.266   8.759   4.176
98090W        W63317  33.290  14.546  14.277
98091W        W63318  24.567  18.070   4.546
98092W        W63319   4.286  20.081  14.872
98093W        W63320  20.030  34.663  10.811
98094W        W63321  22.186   9.350  10.794
98095W        W63322  18.585  42.018  13.125
98096W        W63323  15.662  27.486  13.542
98097W        W63324  30.640  14.136   2.516
98098W        W63325   9.244  26.087   1.228
98099W        W63326  26.173  22.150  13.996
98100W        W63327  14.692   0.802  12.062
98101W        W63328   1.889  28.179  12.125
98102W        W63329  35.664   6.419   3.340
98103W        W63330   4.872  40.352   4.261
98104W        W63331  37.317  31.017  12.142
98105W        W63332  36.177   2.435  10.772
98106W        W63333   4.869  20.638  14.060
98107W        W63334  20.702  12.191   1.788
98108W        W63335  18.313  23.397  10.714
98109W        W63336  32.433  40.775   1.818
98110W        W63337  17.744  26.090  14.939
98111W        W63338   2.912  41.790   1.288
98112W        W63339   1.944  25.620  12.598
98113W        W63340  18.819  39.289   4.101
98114W        W63341  38.983  43.987  11.225
98115W        W63342   5.713  22.721  14.488
98116W        W63343  20.495   3.302  10.292
98117W        W63344  37.771  30.513  11.583
98118W        W63345   2.488  19.543   0.358
98119W        W63346  10.727  26.643  13.409
98120W        W63347   3.595  12.322  11.185
98121W        W63348  33.372   1.119   1.422
98122W        W63349  20.635  20.223  12.623
98123W        W63350  40.910  26.994   1.988
98124W        W63351   4.921  24.967   3.991
98125W        W63352  20.205  29.708   2.404
98126W        W63353   1.220   3.843   2.725
98127W        W63354  13.871  36.373  13.293
98128W        W63355   2.836   6.356  12.277
98129W        W63356   0.071  24.465   0.359
98130W        W63357  19.280  43.400   1.184
98131W        W63358  34.139  33.471   2.873
98132W        W63359  24.228  27.899  14.400
98133W        W63360   0.862   3.651   2.368
98134W        W63361  10.914  15.829  10.147
98135W        W63362   6.326  36.296   3.584
98136W        W63363  13.662  13.069   4.866
98137W        W63364  12.338   4.181   3.018
98138W        W63365  31.014  40.346  11.156
98139W        W63366   7.795  14.542  12.893
98140W        W63367  10.576  41.945   1.379
98141W        W63368  36.567  35.376   4.709
98142W        W63369  41.353   4.631   4.654
98143W        W63370  18.619  30.766   4.542
98144W        W63371   2.272  35.585  11.101
98145W        W63372  31.334  34.916   0.833
98146W        W63373  28.925   3.397  13.585
98147W        W63374  27.637   6.897  12.464
98148W        W63375  27.157  41.029  11.339
98149W        W63376  26.516  13.338   5.141
98150W        W63377   7.411  43.430   0.726
98151W        W63378  38.413  35.337   0.531
98152W        W63379  37.529  31.448   3.683
98153W        W63380  20.558  22.746   3.168
98154W        W63381   3.901  30.912   3.633
98155W        W63382  24.493  34.988   1.347
98156W        W63383  29.978  37.118   2.237
98157W        W63384  14.821  43.548  12.637
98158W        W63385   0.219   7.947   3.666
98159W        W63386  12.944   4.742   5.077
98160W        W63387  10.204  36.839  14.252
98161W        W63388  20.448   4.531  14.609
98162W        W63389  26.920  14.251   5.019
98163W        W63390  15.833  44.654  13.336
98164W        W63391   7.517  18.742  12.147
98165W        W63392  27.635  26.293  13.651
98166W        W63393  11.967  37.023  13.839
98167W        W63394  10.552  40.381  13.603
98168W        W63395   0.673  14.072   4.977
98169W        W63396   8.860  19.739  12.439
98170W        W63397  43.513  30.524  10.420
98171W        W63398  33.988  31.760   3.696
98172W        W63399  10.210  35.027  13.026
98173W        W63400  37.523  12.811   4.551
98174W        W63401  43.535  10.061   3.647
98175W        W63402  43.374  29.511  14.615
98176W        W63403  16.363   3.237   4.629
98177W        W63404  15.806  18.374   4.926
98178W        W63405  30.984  40.937   4.754
98179W        W63406  18.120  27.584  12.115
98180W        W63407  23.591  24.461  11.573
98181W        W63408   0.861  17.959  12.453
98182W        W63409  21.675  37.655  11.127
98183W        W63410   2.797  43.956  12.150
98184W        W63411  44.355   9.415   1.036
98185W        W63412  28.005  21.803  13.531
98186W        W63413  20.599  39.943  12.045
98187W        W63414  15.779  12.828   1.213
98188W        W63415  20.533  23.111   2.392
98189W        W63416   0.833  16.726   1.522
98190W        W63417  40.059   1.403  12.065
98191W        W63418  38.516  12.734  13.097
98192W        W63419   1.212   7.084   5.026
98193W        W63420   3.773  12.944   2.406
98194W        W63421  35.189  11.206   4.278
98195W        W63422  28.125  18.387   4.124
98196W        W63423  35.408  25.802   3.610
98197W        W63424   1.747  26.301  12.141
98198W        W63425   0.702  30.661   4.086
98199W        W63426  29.981  40.735   2.722
98200W        W63427  28.942   6.768  12.760
98201W        W63428  44.809  36.512   5.100
98202W        W63429   4.224  36.040   0.865
98203W        W63430  18.510  41.182   4.953
98204W        W63431  10.745  11.930  10.750
98205W        W63432  10.548  25.953  14.477
98206W        W63433  23.812  11.570   0.264
98207W        W63434   1.489   3.207  14.748
98208W        W63435  16.064  37.815   2.444
98209W        W63436  14.217  43.111   4.695
98210W        W63437  20.009  18.426   1.736
98211W        W63438  43.544  31.943  13.993
98212W        W63439  32.512   1.925  13.022
98213W        W63440  29.564  31.526   2.217
98214W        W63441  43.045   7.751   5.032
98215W        W63442  29.229   4.835   3.880
98216W        W63443  31.392  29.360  11.593
98217W        W63444  14.565   6.891   4.026
98218W        W63445   4.221  22.577  11.024
98219W        W63446  14.634  19.917  14.753
98220W        W63447  33.903  25.853   0.445
98221W        W63448   1.262  20.054   2.699
98222W        W63449   4.376  33.171   0.463
98223W        W63450  36.290   4.923   1.773
98224W        W63451  13.398  16.534   4.119
98225W        W63452   2.226  14.083   2.248
98226W        W63453   4.691   4.849  10.817
98227W        W63454  31.568   9.383  12.978
98228W        W63455  37.609  32.033  10.090
98229W        W63456  28.245  32.191   3.538
98230W        W63457  20.494  32.487  11.991
98231W        W63458  10.978  15.102  13.801
98232W        W63459  39.089  41.374  12.110
98233W        W63460  12.095   7.464   3.880
98234W        W63461  21.590  37.884   3.773
98235W        W63462   1.175   9.565   1.761
98236W        W63463  36.109   8.393  11.713
98237W        W63464  14.763  13.483   0.385
98238W        W63465  14.266  19.827   0.592
98239W        W63466  21.799  29.393  13.406
98240W        W63467  22.140   7.209  12.441
98241W        W63468  38.936  24.672   1.006
98242W        W63469  38.990  12.355   4.583
98243W        W63470  12.116  28.320   0.971
98244W        W63471  21.512   5.666   0.987
98245W        W63472  22.083  26.902   0.919
98246W        W63473  29.468  36.187   4.586
98247W        W63474  43.891   0.930  10.875
98248W        W63475   1.738   2.932  11.082
98249W        W63476  24.703   7.058  11.172
98250W        W63477  34.396  17.781  14.474
98251W        W63478   9.502  13.924   5.129
98252W        W63479  18.283   8.747  13.412
98253W        W63480  37.970  43.098  11.842
98254W        W63481  14.157  28.671   3.105
98255W        W63482  31.872  12.726   0.512
98256W        W63483   3.202  44.414   0.146
98257W        W63484  11.287  35.146  12.249
98258W        W63485  32.945  17.524  14.771
98259W        W63486   2.488  44.580  10.579
98260W        W63487  27.392   6.787  12.945
98261W        W63488  27.775  39.584   2.823
98262W        W63489  21.541   0.475   0.443
98263W        W63490  41.526  29.557   3.819
98264W        W63491  37.459  35.115   0.519
98265W        W63492  34.851  36.569   0.943
98266W        W63493  41.819  37.593  10.265
98267W        W63494  15.581   6.867   1.774
98268W        W63495  18.228  42.751  11.248
98269W        W63496   1.306  16.342   3.824
98270W        W63497   1.275  16.184  12.833
98271W        W63498  44.406  18.194   5.363
98272W        W63499  25.381  40.985  14.833
98273W        W63500  18.290  14.272   4.102
98274W        W63501  19.606  39.551   1.338
98275W        W63502   4.702   3.092  10.708
98276W        W63503  40.191  37.547   0.972
98277W        W63504  14.778  25.835  12.631
98278W        W63505  10.454   5.796  14.085
98279W        W63506  22.868  10.594  14.328
98280W        W63507  15.839  22.704   4.595
98281W        W63508  40.403  39.800  10.645
98282W        W63509  13.169  28.689   4.776
98283W        W63510  28.040   0.333   3.259
98284W        W63511  44.957  30.946   0.472
98285W        W63512  28.907  23.755   2.676
98286W        W63513   6.347  15.106  13.819
98287W        W63514  13.528  38.357   3.655
98288W        W63515  33.518  36.351  13.519
98289W        W63516  11.100  31.361  13.543
98290W        W63517  14.796  21.506  13.438
98291W        W63518  30.026  22.965   2.414
98292W        W63519  18.123  14.775  11.781
98293W        W63520   8.492  13.159   0.341
98294W        W63521  29.414  30.642   5.176
98295W        W63522   5.793   5.791   1.014
98296W        W63523  19.153  30.551  11.400
98297W        W63524   0.345  12.665   0.088
98298W        W63525   0.443   3.906   0.869
98299W        W63526  39.937   1.914   2.145
98300W        W63527  28.361  16.519  12.813
98301W        W63528  32.354  42.419  10.645
98302W        W63529  10.692   4.815  12.850
98303W        W63530  16.144   0.430   4.110
98304W        W63531  25.026  13.655  11.918
98305W        W63532  17.087   1.829   1.776
98306W        W63533  29.193  38.826  13.078
98307W        W63534   2.522  17.508   1.188
98308W        W63535  38.159  34.632   4.139
98309W        W63536  40.733  26.227  13.713
98310W        W63537  26.356   8.968   1.731
98311W        W63538  23.459  16.377   3.296
98312W        W63539  38.522  35.932  14.141
98313W        W63540   6.654  38.914   2.453
98314W        W63541   4.694  38.355   2.199
98315W        W63542  32.080  16.062  11.741
98316W        W63543  20.100  14.784   1.654
98317W        W63544   5.003  25.625   3.391
98318W        W63545  13.139  30.973  14.194
98319W        W63546  18.302  42.822   1.223
98320W        W63547   4.361  14.552   2.376
98321W        W63548  32.608  35.304  12.098
98322W        W63549   0.830  34.977  14.373
98323W        W63550  26.219   2.676   1.376
98324W        W63551  38.444  39.035   0.444
98325W        W63552  17.314  27.604   3.711
98326W        W63553   0.676  33.956  12.511
98327W        W63554  38.497  20.647  14.483
98328W        W63555   5.633   8.821   2.415
98329W        W63556  29.669   7.715   1.301
98330W        W63557   1.369  35.413   2.668
98331W        W63558  30.350  32.066  11.963
98332W        W63559  19.072  18.489  13.646
98333W        W63560  36.852  19.104   4.151
98334W        W63561  40.537  44.865  14.001
98335W        W63562  11.767  43.067  13.560
98336W        W63563   9.071  26.680   0.819
98337W        W63564  10.826  32.573   1.453
98338W        W63565  41.338  18.770  12.822
98339W        W63566  28.564  26.048   1.822
98340W        W63567  13.842  39.368   1.808
98341W        W63568  14.594   4.531  14.990
98342W        W63569  28.084   2.465   3.316
98343W        W63570  36.453   6.415  14.669
98344W        W63571  18.325  26.612  13.106
98345W        W63572  17.558  33.100  10.671
98346W        W63573  15.165  26.021  13.481
98347W        W63574  37.337  43.427  10.682
98348W        W63575  33.126   1.969   0.020
98349W        W63576  16.354  32.466   1.222
98350W        W63577  26.441  40.644  13.994
98351W        W63578  17.183  20.073  14.699
98352W        W63579  27.171   5.817   1.890
98353W        W63580  16.551  22.243   0.323
98354W        W63581  36.279   9.840  12.624
98355W        W63582  14.194  21.751  14.739
98356W        W63583  13.508   4.129  14.114
98357W        W63584  12.130   1.910   1.507
98358W        W63585  40.678  44.468   0.251
98359W        W63586  21.094  31.878   1.213
98360W        W63587  27.869  15.097  12.049
98361W        W63588  22.560  12.341  13.096
98362W        W63589  14.081  26.210   3.838
98363W        W63590  22.585  44.877   3.261
98364W        W63591  43.376  33.677  11.303
98365W        W63592   5.360   4.045   2.210
98366W        W63593  14.464  19.295  13.091
98367W        W63594  19.111   2.587   2.037
98368W        W63595   6.406  26.114   0.687
98369W        W63596  23.469  19.524  10.811
98370W        W63597   0.457  14.408   2.782
98371W        W63598   0.299  29.231   2.687
98372W        W63599   1.523  11.419  13.068
98373W        W63600   5.842  35.180  11.490
98374W        W63601   5.204  21.757  12.144
98375W        W63602  14.480   0.813  14.451
98376W        W63603  44.200  37.575  11.130
98377W        W63604  43.701   5.524   4.977
98378W        W63605  43.850  17.649   3.243
98379W        W63606  18.780  35.637  12.141
98380W        W63607  33.605  16.085   1.351
98381W        W63608   1.762   1.364  11.189
98382W        W63609   5.711  23.173  12.858
98383W        W63610   8.880  19.538  10.663
98384W        W63611  31.150  25.147   1.387
98385W        W63612  41.949  30.627  13.343
98386W        W63613  32.427  19.212   4.584
98387W        W63614  39.869   0.996  14.354
98388W        W63615  29.151   7.255  14.719
98389W        W63616  36.573  23.327   2.271
98390W        W63617   2.063  38.298   4.933
98391W        W63618  22.540  40.404   4.579
98392W        W63619  31.551  39.357  11.611
98393W        W63620  24.663  21.061  13.506
98394W        W63621   0.270  14.322  10.670
98395W        W63622  37.313   5.833  14.063
98396W        W63623   6.662  29.652   1.581
98397W        W63624  39.623  17.310   4.143
98398W        W63625   0.574  19.018  14.474
98399W        W63626   9.663  13.701   3.253
98400W        W63627  18.653  25.749   4.910
98401W        W63628  18.134  36.334  11.862
98402W        W63629  33.826  23.058  13.585
98403W        W63630  28.802  37.102  12.465
98404W        W63631  11.176   3.135   1.977
98405W        W63632  14.132  17.357  14.043
98406W        W63633  38.888  43.858   2.286
98407W        W63634  39.496  41.978  14.743
98408W        W63635  32.927   9.100  12.957
98409W        W63636  28.471   5.273   3.554
98410W        W63637  38.362   7.933   3.013
98411W        W63638  43.533  19.345   1.378
98412W        W63639  20.094  27.460   3.696
98413W        W63640   4.713  35.948   0.767
98414W        W63641  31.622   5.072   1.194
98415W        W63642  16.833  44.777  13.499
98416W        W63643  25.011  41.242   1.855
98417W        W63644  38.923  22.537   1.169
98418W        W63645  37.490   3.276  11.739
98419W        W63646   1.930  16.396   1.761
98420W        W63647  39.437   5.534   0.283
98421W        W63648   8.025  30.501   0.467
98422W        W63649  26.321   6.663   1.320
98423W        W63650  44.706  20.992  14.938
98424W        W63651  36.464  18.104  13.458
98425W        W63652   9.422  19.091  13.133
98426W        W63653  37.903  22.971   2.797
98427W        W63654  44.654   1.957  13.417
98428W        W63655  18.843  29.694  11.081
98429W        W63656  22.115  22.080  12.122
98430W        W63657  44.039  39.379  14.726
98431W        W63658   3.591  30.231  10.891
98432W        W63659   6.763  13.910  13.878
98433W        W63660   8.978   7.685   1.288
98434W        W63661   3.083   3.250  11.500
98435W        W63662   1.983  39.571   3.324
98436W        W63663  23.542  32.896   1.740
98437W        W63664  28.053  14.538   3.707
98438W        W63665  11.145  27.497  10.695
98439W        W63666   2.081  38.531   1.174
98440W        W63667   2.623  34.542   3.355
98441W        W63668   1.822  33.024   4.618
98442W        W63669  33.946  12.288   3.383
98443W        W63670  16.921  34.994  14.938
98444W        W63671  19.546   8.764   1.357
98445W        W63672   7.898   9.394  12.554
98446W        W63673   0.630  29.048   1.388
98447W        W63674  32.916  14.273  14.954
98448W        W63675   4.465  16.184  13.209
98449W        W63676  22.528  39.485  12.044
98450W        W63677  23.983  38.834  13.538
98451W        W63678  30.147  38.151   4.548
98452W        W63679  27.379   0.269   1.688
98453W        W63680  17.219  34.717   2.085
98454W        W63681  28.237  17.597  13.835
98455W        W63682  32.635  28.890  11.866
98456W        W63683  23.444  43.405  11.985
98457W        W63684  15.656  40.762  14.269
98458W        W63685   4.698  13.630  11.945
98459W        W63686  32.326  28.954  13.198
98460W        W63687   4.531  13.299  14.348
98461W        W63688  32.539  33.615  10.615
98462W        W63689  27.889   8.910   4.466
98463W        W63690  19.085  15.084  14.848
98464W        W63691  25.063  12.934  11.252
98465W        W63692  31.141  34.589  11.448
98466W        W63693   0.402  26.623   0.415
98467W        W63694  27.119   3.471  13.480
98468W        W63695  18.091   2.610   1.663
98469W        W63696  17.511  22.644   0.068
98470W        W63697  35.089  39.368   4.087
98471W        W63698  10.119   6.676   4.382
98472W        W63699   0.265  33.010  11.567
98473W        W63700  20.126  20.685  13.383
98474W        W63701   7.372   6.128   3.733
98475W        W63702  34.497  26.643   0.735
98476W        W63703  34.381  14.858  10.335
98477W        W63704  32.735  21.964   1.958
98478W        W63705  19.734  17.800  14.504
98479W        W63706   4.979  30.944   3.797
98480W        W63707  25.935   2.380   2.289
98481W        W63708  37.409  19.105  11.193
98482W        W63709  42.830  13.119   1.749
98483W        W63710  30.330  43.517  13.380
98484W        W63711  36.133   6.372  12.365
98485W        W63712  17.220  13.623   0.889
98486W        W63713   6.863  21.639  14.812
98487W        W63714   6.228  21.981   0.774
98488W        W63715  10.864   9.604   1.337
98489W        W63716  21.961  30.675  10.717
98490W        W63717   3.774  35.127  11.935
98491W        W63718   3.952   9.781  11.164
98492W        W63719  40.893   7.279  13.044
98493W        W63720  10.847  31.257  11.863
98494W        W63721  29.044   9.761  14.342
98495W        W63722  40.380  12.816   4.715
98496W        W63723  18.131   9.093  13.043
98497W        W63724  19.423   8.086   2.126
98498W        W63725  26.430  10.857   2.277
98499W        W63726   8.918  23.917  13.637
98500W        W63727  12.353  13.577  14.827
98501W        W63728  21.605  23.947  12.579
98502W        W63729  31.583  16.832  13.905
98503W        W63730  44.253  26.213   0.988
98504W        W63731  18.315  23.109   3.620
98505W        W63732   5.443  41.061  14.794
98506W        W63733  29.937  43.934  11.524
98507W        W63734  37.098  36.837  12.979
98508W        W63735  38.513  14.145  11.432
98509W        W63736  20.606  20.902   5.125
98510W        W63737   4.447  40.955   3.224
98511W        W63738  17.753  22.716   0.956
98512W        W63739  42.930  18.033   0.839
98513W        W63740  34.529  41.277   3.579
98514W        W63741  30.456  32.130   3.222
98515W        W63742  44.017   7.585   4.354
98516W        W63743  23.501  13.343   0.757
98517W        W63744  19.986   6.282  14.214
98518W        W63745  18.200  36.678   4.546
98519W        W63746   2.959  14.188   4.575
98520W        W63747  32.914  24.760  14.517
98521W        W63748  19.546  12.968  10.486
98522W        W63749  30.610   9.191  14.813
98523W        W63750  34.020   4.334  11.506
98524W        W63751  12.134   9.483  13.019
98525W        W63752  21.598  43.372  12.498
98526W        W63753  13.670  38.322  14.366
98527W        W63754  15.505   3.927   1.401
98528W        W63755  17.349  18.521  13.902
98529W        W63756  18.777  30.220  10.930
98530W        W63757  25.638   0.783  12.476
98531W        W63758  33.860  19.110  14.417
98532W        W63759  11.871  41.286   3.842
98533W        W63760  18.751  40.310  14.777
98534W        W63761   1.060  40.346   2.443
98535W        W63762  32.197  36.372   1.220
98536W        W63763  41.214  19.184  11.022
98537W        W63764  35.142  43.803   0.576
98538W        W63765   3.626  12.792  11.991
98539W        W63766  27.399  43.247  13.391
98540W        W63767   1.478  33.016   1.315
98541W        W63768  15.326  23.000   0.362
98542W        W63769  11.700  44.838  12.000
98543W        W63770   1.270   9.800   2.211
98544W        W63771  14.225  28.104   3.696
98545W        W63772  10.779   7.426  10.872
98546W        W63773  19.660  43.534  12.810
98547W        W63774  18.489  22.168   3.411
98548W        W63775  29.476   1.684   4.459
98549W        W63776  15.443  11.630  13.367
98550W        W63777   7.424  30.040   3.306
98551W        W63778   4.854  41.877   2.799
98552W        W63779  41.393   6.404   0.785
98553W        W63780   1.190   9.376   3.141
98554W        W63781  25.496  29.187   0.572
98555W        W63782   2.399  35.358   3.771
98556W        W63783  10.591  43.041   0.483
98557W        W63784   3.395  14.158   1.892
98558W        W63785  13.390  36.460  13.049
98559W        W63786  41.279  33.349  13.477
98560W        W63787  11.758  32.408   2.572
98561W        W63788  37.196   6.220  12.503
98562W        W63789  44.323   8.931   4.114
98563W        W63790  12.383  34.682   5.006
98564W        W63791  29.209  37.445   1.318
98565W        W63792  30.401  40.173   4.310
98566W        W63793  25.637  11.618   1.948
98567W        W63794   4.358  19.487   3.724
98568W        W63795  36.114  41.282  13.532
98569W        W63796   6.685  26.220   2.114
98570W        W63797  21.340  24.124   1.451
98571W        W63798  12.799  34.992  13.060
98572W        W63799  34.857   4.221  12.761
98573W        W63800  20.162  34.175   4.623
98574W        W63801  23.906  25.837  10.491
98575W        W63802  23.045   4.795  12.984
98576W        W63803  40.862  34.140  10.731
98577W        W63804  14.275  29.132  14.400
98578W        W63805   1.678  16.614  14.059
98579W        W63806  32.213  44.289  13.458
98580W        W63807   2.291  14.728   4.368
98581W        W63808  38.767  44.490  14.791
98582W        W63809  36.844  38.177   5.029
98583W        W63810  38.990  20.604  13.429
98584W        W63811   1.266  43.712   1.425
98585W        W63812   8.315  37.400   4.062
98586W        W63813   5.714  11.645  14.829
98587W        W63814  34.448  31.158  14.194
98588W        W63815  31.544  25.261  12.405
98589W        W63816  24.531  12.680  14.367
98590W        W63817  23.126  19.493  13.825
98591W        W63818   9.891  35.999   2.715
98592W        W63819  21.089  29.817  11.890
98593W        W63820  13.846  41.186   2.000
98594W        W63821  41.283  32.141  10.674
98595W        W63822  10.718   4.915  10.405
98596W        W63823   3.967  33.069   2.695
98597W        W63824  38.807  19.766  11.829
98598W        W63825  31.424  24.157   4.304
98599W        W63826  34.441  14.001  11.254
98600W        W63827  41.891  33.850  12.448
98601W        W63828   2.218  32.897  13.905
98602W        W63829  25.086  27.417   2.592
98603W        W63830  18.012  10.195   3.302
98604W        W63831  43.737  41.899  11.636
98605W        W63832  30.988  39.524  12.279
98606W        W63833   1.629  21.678   0.515
98607W        W63834  40.072  18.320   1.086
98608W        W63835  15.349  29.627   4.586
98609W        W63836  39.922   4.460   1.573
98610W        W63837  40.897  27.724   2.760
98611W        W63838   6.228   3.960  12.216
98612W        W63839  32.089   3.947   1.147
98613W        W63840  38.955  30.027  14.596
98614W        W63841   2.406  34.878  14.026
98615W        W63842  33.940  24.009  10.680
98616W        W63843  16.306  11.349  13.115
98617W        W63844  10.637  14.774   9.718
98618W        W63845   4.727  21.018   1.364
98619W        W63846   5.629   5.738   4.915
98620W        W63847  42.803  34.387  11.612
98621W        W63848   8.447  22.325   0.956
98622W        W63849   4.800  40.809   4.515
98623W        W63850  40.946   3.502  11.066
98624W        W63851  35.875  36.359  10.534
98625W        W63852  36.872   0.045  10.783
98626W        W63853   1.306  26.898   1.399
98627W        W63854  34.403  44.176  10.852
98628W        W63855  10.143   9.123   0.022
98629W        W63856   0.056  41.136  10.094
98630W        W63857   5.405  25.307  13.481
98631W        W63858   4.159   7.807   0.282
98632W        W63859  43.506  11.911   4.979
98633W        W63860   6.307  31.487   4.255
98634W        W63861  11.753  15.498  13.779
98635W        W63862  30.457  23.959   1.385
98636W        W63863  27.968   1.276  14.705
98637W        W63864  19.089  35.954  14.029
98638W        W63865  27.517  38.013   0.361
98639W        W63866  26.695   1.533  12.105
98640W        W63867  42.432  29.898  12.908
98641W        W63868   2.691   4.805  13.763
98642W        W63869  24.785  41.955   2.269
98643W        W63870  41.287  39.486   0.377
98644W        W63871  20.325  13.426  11.568
98645W        W63872  37.811  19.113   0.194
98646W        W63873  27.202  23.629  12.914
98647W        W63874  25.458  17.278  11.187
98648W        W63875  12.873  22.637  10.701
98649W        W63876  30.357  11.806   1.682
98650W        W63877  11.331  29.121   2.806
98651W        W63878  24.293  22.539  13.704
98652W        W63879  28.478  22.414   3.316
98653W        W63880  23.946   1.657   2.260
98654W        W63881   2.867   7.859  12.032
98655W        W63882   1.874  18.775  12.947
98656W        W63883   0.769   5.655  13.405
98657W        W63884  33.954  27.981   2.098
98658W        W63885  13.755   8.872  10.945
98659W        W63886  10.930   2.715   1.776
98660W        W63887  19.151  18.843  14.030
98661W        W63888  38.437  11.155  11.534
98662W        W63889  44.756  11.642  12.583
98663W        W63890  26.857  38.500   0.651
98664W        W63891  11.786  34.857  12.257
98665W        W63892  16.495   4.955  12.516
98666W        W63893  39.770   8.263   2.887
98667W        W63894  32.843  31.177  12.609
98668W        W63895  19.663  30.597  11.287
98669W        W63896  17.844  34.754  12.540
98670W        W63897  26.121  31.885   4.940
98671W        W63898  35.312  32.124  14.452
98672W        W63899  33.098  44.364  11.452
98673W        W63900  14.795  44.714   4.231
98674W        W63901  25.304  13.230  11.962
98675W        W63902  44.348  16.590   1.859
98676W        W63903  20.560  29.636   1.166
98677W        W63904   0.058   8.663   4.815
98678W        W63905  30.984  33.552  13.469
98679W        W63906  29.643   6.325   1.454
98680W        W63907  16.436   7.073  13.822
98681W        W63908  10.714  15.110   3.790
98682W        W63909  43.982  43.316  14.764
98683W        W63910   9.340  11.295   4.657
98684W        W63911  44.445  24.531   4.360
98685W        W63912  34.390  18.737   1.013
98686W        W63913  36.403  14.244  12.060
98687W        W63914  44.701  25.988   1.414
98688W        W63915  29.124   3.225   3.672
98689W        W63916  20.316  13.128  13.804
98690W        W63917  40.793  33.656   0.336
98691W        W63918  43.244  33.945   4.684
98692W        W63919  40.964  28.480  14.609
98693W        W63920  23.460  19.275   2.823
98694W        W63921   2.299  37.136   1.409
98695W        W63922   5.066  29.025  10.715
98696W        W63923   6.830  28.527   0.065
98697W        W63924  17.683  37.013   1.820
98698W        W63925  16.274  17.971   0.002
98699W        W63926  30.381   2.466  12.291
98700W        W63927  23.049   3.607   2.671
98701W        W63928  26.480  15.616  10.114
98702W        W63929  43.308  22.146  14.749
98703W        W63930  24.633  31.373   1.196
98704W        W63931  13.628  30.535   4.061
98705W        W63932   0.456   3.393  10.402
98706W        W63933  32.332  37.581   0.618
98707W        W63934  32.179  11.000  10.660
98708W        W63935   7.792  31.914  13.307
98709W        W63936  32.522  18.829  14.427
98710W        W63937  26.985  32.158  10.311
98711W        W63938  19.998  33.855  14.392
98712W        W63939  31.583  23.234   4.625
98713W        W63940   3.702   4.326   3.669
98714W        W63941  13.711  14.605  11.598
98715W        W63942  20.674   3.780  12.354
98716W        W63943  10.891  15.120   1.329
98717W        W63944  28.148  38.791  11.896
98718W        W63945  17.655  30.540  10.495
98719W        W63946   8.199   6.076  14.101
98720W        W63947  29.382  41.559   4.208
98721W        W63948   7.414  24.424  13.866
98722W        W63949  28.504  40.645   3.328
98723W        W63950   5.279  19.993   3.991
98724W        W63951  34.814   0.986  11.669
98725W        W63952   5.308  43.083  13.768
98726W        W63953  38.477  15.056  13.101
98727W        W63954  12.305   5.901   1.108
98728W        W63955  21.165   3.641   1.940
98729W        W63956  28.632   8.962  13.769
98730W        W63957  42.459  13.995  13.624
98731W        W63958   3.344   6.477   4.212
98732W        W63959  23.519  43.926  14.226
98733W        W63960  24.958  41.497  14.048
98734W        W63961  13.605  40.035   3.283
98735W        W63962  12.961  27.150  14.587
98736W        W63963  41.791  36.277   0.274
98737W        W63964  20.180  19.389   4.325
98738W        W63965  31.447   2.056  12.959
98739W        W63966  40.935  40.922   4.315
98740W        W63967  19.362  38.424  11.962
98741W        W63968  22.579  26.191   0.732
98742W        W63969  11.410  14.952   4.906
98743W        W63970  30.713  22.251  13.049
98744W        W63971  44.807   6.860   3.710
98745W        W63972   1.063  23.370  10.276
98746W        W63973  15.267  43.389  14.668
98747W        W63974   1.714  19.238   3.588
98748W        W63975  42.036  35.224  12.037
98749W        W63976  21.928  10.007   4.979
98750W        W63977   8.514  42.374  13.864
98751W        W63978  24.800   9.312   3.742
98752W        W63979  26.727  38.111   0.984
98753W        W63980  32.604  35.771   4.202
98754W        W63981  24.938  18.514   0.986
98755W        W63982  34.685  11.781  10.756
98756W        W63983  19.603  30.738   2.826
98757W        W63984   7.798   3.405  11.252
98758W        W63985  27.249  34.953   0.430
98759W        W63986  44.465  26.351   0.481
98760W        W63987   8.005  38.682  10.689
98761W        W63988  30.240  34.494   0.261
98762W        W63989  18.337   7.881  12.435
98763W        W63990  19.852   3.434  11.980
98764W        W63991  38.982  19.057   1.291
98765W        W63992  23.187  16.805   4.719
98766W        W63993  26.056   6.174  14.433
98767W        W63994  34.521   9.543  12.108
98768W        W63995  18.782  44.222   3.137
98769W        W63996  29.316  31.241   0.661
98770W        W63997  38.652  43.786   4.077
98771W        W63998  10.282  40.963   4.289
98772W        W63999  10.318  10.275  12.569
98773W        W64000  38.531  20.450  13.198
98774W        W64001  15.382  11.898   1.271
98775W        W64002  14.143  34.138  11.495
98776W        W64003  34.506  29.735   4.391
98777W        W64004   5.386  17.909   2.460
98778W        W64005  10.232  41.891  11.593
98779W        W64006  18.660  28.206   2.794
98780W        W64007  20.985   1.781   3.232
98781W        W64008  37.935   7.935  14.025
98782W        W64009   4.930  21.536   1.346
98783W        W64010  11.076   9.699   2.800
98784W        W64011  18.869  37.282  12.655
98785W        W64012  22.075  20.933   4.950
98786W        W64013  38.760  38.955  10.416
98787W        W64014  12.304  37.499   2.095
98788W        W64015  42.225  10.949   1.282
98789W        W64016   4.179  17.680  13.288
98790W        W64017  40.529  20.600   1.818
98791W        W64018  32.644  14.584   3.252
98792W        W64019  24.150  19.931   3.137
98793W        W64020   8.464  25.253   3.898
98794W        W64021  26.560  11.880   3.349
98795W        W64022  44.071  28.152   0.462
98796W        W64023  21.684  37.374   2.376
98797W        W64024   6.126  24.739  11.844
98798W        W64025  40.509  18.271  13.539
98799W        W64026  33.936  28.824   0.378
98800W        W64027   1.673  20.065   1.767
98801W        W64028  14.029  26.639   0.848
98802W        W64029   0.172  41.754   4.694
98803W        W64030  12.884  29.523   3.268
98804W        W64031  11.435  30.041   5.406
98805W        W64032  39.011  12.859   4.568
98806W        W64033  27.491  22.576  11.483
98807W        W64034  29.346   1.305   1.315
98808W        W64035  33.370  28.860   2.808
98809W        W64036  32.415  32.127   1.901
98810W        W64037  36.012  33.567   2.686
98811W        W64038  38.019  12.870  13.783
98812W        W64039   6.379  22.917  10.619
98813W        W64040   8.127  22.550   3.929
98814W        W64041  31.184  14.117  11.195
98815W        W64042  24.239  29.373  14.282
98816W        W64043  21.148  34.377   2.476
98817W        W64044  25.038  42.744  14.744
98818W        W64045   8.126  26.031   0.236
98819W        W64046  11.305  41.523  12.965
98820W        W64047  35.470  10.593   4.409
98821W        W64048   3.421  19.237  14.388
98822W        W64049   3.827  15.810   1.190
98823W        W64050  42.062  36.042  12.458
98824W        W64051  19.481  44.729  13.641
98825W        W64052  21.445  38.635   1.806
98826W        W64053   1.862   8.273   2.252
98827W        W64054  30.718  26.155   5.031
98828W        W64055  27.527  19.625  11.637
98829W        W64056  39.344  39.539  12.101
98830W        W64057  11.161  33.519  13.780
98831W        W64058  31.755  11.709   4.874
98832W        W64059  13.167  43.378  11.370
98833W        W64060  29.102   5.657  12.837
98834W        W64061   5.637  26.966  14.858
98835W        W64062  29.893  44.234   3.714
98836W        W64063  27.494  33.988   1.838
98837W        W64064  33.679  13.564  13.976
98838W        W64065  44.029  33.360   2.855
98839W        W64066   0.777  35.692   3.092
98840W        W64067   7.237  13.311  12.139
98841W        W64068  30.211  21.107   0.817
98842W        W64069  37.429  15.504   2.287
98843W        W64070  40.229  24.510   1.815
98844W        W64071  18.894  23.453  10.034
98845W        W64072  26.577  37.830   3.699
98846W        W64073  11.709  37.465  13.957
98847W        W64074  33.987   6.999  14.317
98848W        W64075  29.809  15.391   1.449
98849W        W64076  32.311  28.293  13.026
98850W        W64077   0.348  15.904   0.896
98851W        W64078  20.040  11.367  14.407
98852W        W64079  38.545  33.375  14.892
98853W        W64080  39.718  18.698   0.731
98854W        W64081  24.980  10.713   2.279
98855W        W64082  19.263  33.045   4.673
98856W        W64083  22.070   9.838  12.105
98857W        W64084  38.031   1.475  12.060
98858W        W64085  33.656  19.079   2.361
98859W        W64086  27.049   0.773   0.598
98860W        W64087   6.664  42.267  12.557
98861W        W64088  30.896   7.855  14.777
98862W        W64089  19.236  40.012   2.221
98863W        W64090   1.578   6.347  11.057
98864W        W64091  14.751  22.884  11.692
98865W        W64092  29.986  15.640  11.882
98866W        W64093  36.210  42.872  11.050
98867W        W64094  33.815  28.045   5.031
98868W        W64095  38.977  17.126   4.679
98869W        W64096   4.799  44.732  13.845
98870W        W64097  23.658  32.899   3.597
98871W        W64098  31.489  26.731   0.738
98872W        W64099  33.648  43.034   3.010
98873W        W64100  18.682  36.025   0.700
98874W        W64101  34.626  16.819   2.135
98875W        W64102  30.007  39.713  13.018
98876W        W64103  15.675  11.193   0.336
98877W        W64104  26.251  28.185  11.607
98878W        W64105   0.015  15.310   4.527
98879W        W64106  28.637   3.552   0.829
98880W        W64107  42.011   3.634   1.381
98881W        W64108   2.747  39.124  11.755
98882W        W64109  29.966  33.915  12.091
98883W        W64110  16.523  38.976  13.546
98884W        W64111   7.061   2.188   0.378
98885W        W64112  33.083  39.965  13.543
98886W        W64113  37.951  27.584   2.789
98887W        W64114  21.625  25.075   1.011
98888W        W64115  30.558  15.071   0.923
98889W        W64116  16.322  20.319  11.194
98890W        W64117  26.348  19.613   3.418
98891W        W64118   1.967  38.988  13.366
98892W        W64119  18.369  15.384   0.357
98893W        W64120  11.101  34.284   1.163
98894W        W64121  31.628  31.565   0.303
98895W        W64122  26.175  36.604  13.975
98896W        W64123  40.962  25.216   4.099
98897W        W64124   0.849  28.172  14.901
98898W        W64125  34.894  25.249  13.034
98899W        W64126  24.277  42.363  12.030
98900W        W64127  23.424   8.790   0.083
98901W        W64128  11.847  40.830  13.410
98902W        W64129   7.810  34.338   4.767
98903W        W64130   6.259  37.496   1.482
98904W        W64131  25.990  13.247  11.191
98905W        W64132  19.650  21.701   3.552
98906W        W64133  12.253   6.931  13.396
98907W        W64134  24.216   2.854  13.538
98908W        W64135  11.665  21.316  13.046
98909W        W64136  39.109  24.430   2.289
98910W        W64137  40.978  27.226   1.014
98911W        W64138  28.955   8.841   4.546
98912W        W64139  12.184   9.225  13.891
98913W        W64140  40.814  35.144  13.523
98914W        W64141   0.153  30.745   5.030
98915W        W64142  18.706  13.673  13.836
98916W        W64143  38.172   2.420   0.105
98917W        W64144  21.614  21.931   0.472
98918W        W64145   3.386  17.715  12.873
98919W        W64146  19.576  41.428   2.385
98920W        W64147   8.293  21.298   0.691
98921W        W64148  26.226   7.392   0.127
98922W        W64149  29.400  38.897  12.597
98923W        W64150   4.237  17.384   1.352
98924W        W64151   9.158   9.715   2.915
98925W        W64152   6.680  40.466   0.806
98926W        W64153  36.005  41.464  11.226
98927W        W64154   3.246  20.273  14.463
98928W        W64155   1.051  19.817   3.126
98929W        W64156   8.123  11.519   4.027
98930W        W64157  42.190  11.111  13.840
98931W        W64158  22.722  20.783   0.711
98932W        W64159   6.415  23.652   0.268
98933W        W64160  41.322  24.137   0.450
98934W        W64161  39.038  33.875  13.868
98935W        W64162  20.550  13.704   0.408
98936W        W64163   9.667  31.657   1.319
98937W        W64164  15.401  17.270  10.581
98938W        W64165  15.152  40.815  10.671
98939W        W64166  35.158  28.868   0.632
98940W        W64167  14.664  28.980   3.675
98941W        W64168  18.067  36.008  10.672
98942W        W64169  41.827  28.135  10.398
98943W        W64170   5.919  34.411   2.109
98944W        W64171  35.962  39.387  11.858
98945W        W64172  10.203  20.228  10.202
98946W        W64173  16.375  39.877   4.217
98947W        W64174  17.563  21.583   0.951
98948W        W64175  16.021  16.831   3.297
98949W        W64176  22.972  10.185   2.109
98950W        W64177  15.166  15.152   2.164
98951W        W64178  14.103  12.004  13.409
98952W        W64179   4.263  18.823  11.488
98953W        W64180  19.925  38.222  11.341
98954W        W64181  43.077  43.934  13.903
98955W        W64182  20.496   2.820   1.829
98956W        W64183   6.262   6.980   2.227
98957W        W64184  15.637  44.559   4.150
98958W        W64185  35.083  20.404   3.270
98959W        W64186  44.222   6.837   1.165
98960W        W64187   8.345  18.100   0.426
98961W        W64188   9.156  18.365   3.422
98962W        W64189  33.984  43.471  11.458
98963W        W64190  15.192  23.995  13.115
98964W        W64191  38.608  26.122   3.166
98965W        W64192  27.019  39.526   4.523
98966W        W64193  16.613  30.359   3.483
98967W        W64194  38.439  36.403   3.619
98968W        W64195  32.930  24.436   3.217
98969W        W64196  14.659  41.993   4.154
98970W        W64197  25.093  17.196   2.185
98971W        W64198  44.929  11.792  13.527
98972W        W64199  19.958  26.713   4.137
98973W        W64200  20.248  17.296   2.771
98974W        W64201  43.308  39.245  11.601
98975W        W64202  31.668  15.902   3.701
98976W        W64203   0.923  23.275   2.608
98977W        W64204   1.706  15.218   0.869
98978W        W64205  10.044  31.167   3.595
98979W        W64206  37.404  44.334  11.886
98980W        W64207  29.086  27.410   1.902
98981W        W64208  44.112   4.176   1.286
98982W        W64209  40.613  26.216   2.253
98983W        W64210  41.698  33.647  13.644
98984W        W64211  13.042  27.382   1.934
98985W        W64212   9.839   2.437  12.083
98986W        W64213  40.042   6.518  13.559
98987W        W64214  33.939   7.824  14.815
98988W        W64215  33.171  39.980  12.444
98989W        W64216   4.454  36.539   1.777
98990W        W64217   8.085  30.860  10.655
98991W        W64218  20.572  21.091   1.236
98992W        W64219   7.316  36.618   1.798
98993W        W64220  34.980  15.589   2.124
98994W        W64221   8.295  25.723   0.790
98995W        W64222  42.724  27.450   4.218
98996W        W64223  20.048  39.910   3.182
98997W        W64224  27.064   0.453  12.396
98998W        W64225  16.487  10.936  13.427
98999W        W64226   2.426   9.644  12.536
99000W        W64227   5.233  36.501  13.656
99001W        W64228  35.922  17.888  12.629
99002W        W64229  40.647  18.781   2.124
99003W        W64230  35.103  23.385  12.169
99004W        W64231  36.548  38.541  13.928
99005W        W64232  40.377   4.323   3.663
99006W        W64233  13.982   9.378   1.480
99007W        W64234  17.059  15.493   3.736
99008W        W64235  20.654  39.472  14.298
99009W        W64236  38.571  34.580   1.738
99010W        W64237  23.632   9.434  12.565
99011W        W64238   5.941  40.808  10.698
99012W        W64239  11.998  36.524  10.775
99013W        W64240  40.844  37.347  14.749
99014W        W64241  11.493  34.573   2.824
99015W        W64242  42.509   6.417  13.615
99016W        W64243  28.952  33.377  12.961
99017W        W64244  31.425  34.180   2.293
99018W        W64245  15.587  34.161   2.891
99019W        W64246  18.665  25.718  13.606
99020W        W64247   9.548   1.856   2.336
99021W        W64248   1.321  39.533   0.371
99022W        W64249  25.474  22.703  10.355
99023W        W64250  22.037  44.865   5.502
99024W        W64251  43.904  27.678  13.100
99025W        W64252  33.495  39.957   0.689
99026W        W64253   3.360  17.932  13.809
99027W        W64254  38.383   5.452   2.640
99028W        W64255  38.043  17.133  11.198
99029W        W64256   8.340  32.390   4.488
99030W        W64257   7.310  41.493   3.059
99031W        W64258  31.582   4.509   2.669
99032W        W64259  22.491  12.667   1.516
99033W        W64260   6.881   0.956  10.468
99034W        W64261  43.016  39.519   3.220
99035W        W64262  40.984   7.063   5.325
99036W        W64263  19.183  22.307  11.701
99037W        W64264  44.956  42.310   4.528
99038W        W64265  12.703  10.415   4.566
99039W        W64266  44.525   2.943  10.661
99040W        W64267  17.709  16.763   0.282
99041W        W64268  12.653  14.906   1.853
99042W        W64269  41.586  43.268  11.962
99043W        W64270  39.082  17.706  14.443
99044W        W64271   1.888   3.787   2.932
99045W        W64272  37.941   3.782  11.034
99046W        W64273  12.676   2.955   3.227
99047W        W64274   3.899  28.091  13.942
99048W        W64275  26.961  19.600  12.392
99049W        W64276  25.792  30.994   2.527
99050W        W64277  12.956  31.569  12.293
99051W        W64278   7.077  37.591  11.576
99052W        W64279  24.340  39.444   3.551
99053W        W64280   2.692  38.792   4.635
99054W        W64281  20.853  27.897   0.330
99055W        W64282  30.944   9.630   3.854
99056W        W64283  11.496   7.150  11.881
99057W        W64284  37.850  32.066  11.891
99058W        W64285  31.635  28.647   1.157
99059W        W64286  35.083  24.975  11.658
99060W        W64287  18.767  16.464  13.846
99061W        W64288  32.586  19.566   2.846
99062W        W64289  21.028  13.617  13.519
99063W        W64290  16.111  29.031   0.970
99064W        W64291   9.697   2.797  14.113
99065W        W64292   7.342  39.090  10.198
99066W        W64293  13.284   1.313   3.566
99067W        W64294  11.738  28.426  12.572
99068W        W64295  13.902   5.964   4.103
99069W        W64296  38.999   2.173   1.133
99070W        W64297  13.125  21.184  13.657
99071W        W64298   5.505  35.476   1.028
99072W        W64299   3.945  21.359  12.146
99073W        W64300   7.978  25.774  12.123
99074W        W64301  17.903   1.351   2.260
99075W        W64302  14.696  23.276  12.217
99076W        W64303   2.540  24.662   3.868
99077W        W64304  20.252  27.311  14.922
99078W        W64305  29.800  32.346  12.877
99079W        W64306  16.017  34.896   0.691
99080W        W64307   7.345  42.455   3.117
99081W        W64308   8.213  18.987   1.181
99082W        W64309  10.908  19.145  12.828
99083W        W64310  42.515  11.575  13.152
99084W        W64311  28.958   8.889   3.734
99085W        W64312   1.234  44.332   2.208
99086W        W64313  29.971  15.326  13.758
99087W        W64314  23.115  31.439   2.055
99088W        W64315  10.148  12.267  14.729
99089W        W64316   1.417  36.897  13.782
99090W        W64317  16.792  44.064   0.847
99091W        W64318  23.160  19.248   2.200
99092W        W64319  28.374  36.603  11.357
99093W        W64320  30.941   8.735   0.761
99094W        W64321  30.198   7.233  11.890
99095W        W64322  26.723  38.294  13.609
99096W        W64323  14.719  26.447   3.484
99097W        W64324  15.907  17.582   0.821
99098W        W64325  16.804   6.862   2.081
99099W        W64326  16.082  41.019   0.499
99100W        W64327  13.148  22.776   0.341
99101W        W64328   4.012   7.342  10.621
99102W        W64329  35.155   2.258  12.020
99103W        W64330   8.529  31.064   3.633
99104W        W64331   5.196  31.363  14.286
99105W        W64332  27.904  32.472   3.280
99106W        W64333  18.514  40.329  11.576
99107W        W64334  34.498   5.821  10.930
99108W        W64335  10.283  12.297   4.184
99109W        W64336  34.562   4.935  11.436
99110W        W64337   5.323  14.116   4.202
99111W        W64338   9.319  38.782  14.746
99112W        W64339   8.924  23.045   4.186
99113W        W64340  21.467  15.076   1.347
99114W        W64341  15.814  37.959   2.014
99115W        W64342  32.615  15.650   3.212
99116W        W64343  32.209  15.723  12.118
99117W        W64344  18.078  17.243  10.665
99118W        W64345  28.739  44.919   3.822
99119W        W64346  12.085  31.386   2.231
99120W        W64347  11.603  19.529   4.682
99121W        W64348  28.617   6.217  12.153
99122W        W64349   5.356  37.002  12.766
99123W        W64350   1.506   9.461  11.140
99124W        W64351  43.856  36.939   3.286
99125W        W64352  31.493  20.810  13.033
99126W        W64353   9.459   1.601  11.742
99127W        W64354  13.037   7.534   4.628
99128W        W64355  40.273  15.139   1.784
99129W        W64356  30.238  13.804   0.366
99130W        W64357  42.700   4.003   2.414
99131W        W64358  18.184   7.648  13.287
99132W        W64359  44.003   7.702   1.434
99133W        W64360   7.891   7.127   3.662
99134W        W64361  40.441  37.976   3.907
99135W        W64362  20.521  15.749  11.485
99136W        W64363  21.060  43.981  12.651
99137W        W64364   2.171   7.250   3.836
99138W        W64365  25.373   1.251  12.544
99139W        W64366   2.394  11.516  11.647
99140W        W64367   7.717  18.424  13.626
99141W        W64368  43.418  23.635  13.932
99142W        W64369  29.698  37.590  13.488
99143W        W64370  24.532   1.813  14.076
99144W        W64371  18.316   6.185  11.618
99145W        W64372  26.643  37.493   0.504
99146W        W64373  44.297   0.317   2.126
99147W        W64374  41.356   3.845   2.412
99148W        W64375   0.935  20.997  13.384
99149W        W64376  38.908   5.404   1.298
99150W        W64377  40.887  22.612   3.178
99151W        W64378  15.127  17.730   4.508
99152W        W64379  42.448  35.323   0.877
99153W        W64380  18.659  12.215  12.467
99154W        W64381  40.060  15.298   4.211
99155W        W64382  11.672  12.487   1.378
99156W        W64383   4.019  19.592  12.479
99157W        W64384  11.703  16.603   0.509
99158W        W64385  13.077  18.468  12.544
99159W        W64386   0.778  18.205   0.310
99160W        W64387  16.349   7.367  12.840
99161W        W64388  34.351  36.411   0.849
99162W        W64389  22.623  42.272   2.482
99163W        W64390  22.020  31.776  13.692
99164W        W64391  39.810  35.109  10.993
99165W        W64392  12.043   8.849   0.239
99166W        W64393   9.300  31.430  12.948
99167W        W64394  21.303  17.156  13.404
99168W        W64395  23.785  44.507   2.655
99169W        W64396  34.819  20.554   1.205
99170W        W64397  22.490  27.367  13.363
99171W        W64398   4.848  25.481   3.865
99172W        W64399   3.060  16.885   0.740
99173W        W64400  39.714  19.625   1.893
99174W        W64401  39.222  43.942   2.685
99175W        W64402  26.529   3.349  14.829
99176W        W64403   9.723   5.422   2.362
99177W        W64404  24.016  19.952  12.860
99178W        W64405  37.701   5.840   0.989
99179W        W64406   1.271  35.584  12.888
99180W        W64407  37.929  41.550   0.956
99181W        W64408  26.170  41.729  12.078
99182W        W64409  21.394  42.952   1.421
99183W        W64410   1.433  26.752   0.867
99184W        W64411  38.867  15.113   2.696
99185W        W64412  40.714  21.702   0.874
99186W        W64413  38.285   5.455  12.752
99187W        W64414  22.708   2.565   2.135
99188W        W64415  16.747  26.902   3.706
99189W        W64416  13.459  35.399  11.487
99190W        W64417  44.862   2.792   2.710
99191W        W64418  20.147   1.268  10.420
99192W        W64419  39.296  18.787  13.031
99193W        W64420  41.045  10.568   2.675
99194W        W64421  39.366  38.093  14.021
99195W        W64422  15.863  33.509  11.548
99196W        W64423  32.163  15.775   3.676
99197W        W64424  12.249  35.990   2.380
99198W        W64425  36.136  17.199  13.434
99199W        W64426  28.990   9.227  12.441
99200W        W64427   8.351  41.792   0.918
99201W        W64428  37.290  26.150  11.546
99202W        W64429  10.132  25.101   2.725
99203W        W64430  10.518  38.922  13.034
99204W        W64431  20.771  13.491  11.853
99205W        W64432  33.569   1.089   2.406
99206W        W64433  41.883   5.974  13.951
99207W        W64434  41.764  39.105  12.098
99208W        W64435  39.488  31.637   3.673
99209W        W64436   4.124   4.824   1.437
99210W        W64437   5.433   8.685   1.954
99211W        W64438  11.995  33.387  12.401
99212W        W64439   7.438  10.647  11.542
99213W        W64440   2.265  40.675  13.504
99214W        W64441  39.740  43.737   0.392
99215W        W64442  13.105  32.818  14.945
99216W        W64443  22.701   6.127  10.713
99217W        W64444  14.828   2.694   1.734
99218W        W64445   1.946  23.227   2.687
99219W        W64446  17.958  10.997   3.226
99220W        W64447  11.216  40.805  12.145
99221W        W64448  26.161   5.918   0.930
99222W        W64449  32.543  34.895   2.375
99223W        W64450  11.028  38.377   4.709
99224W        W64451  28.975  30.622   4.895
99225W        W64452  32.086  27.389   0.866
99226W        W64453  41.718  38.174   4.293
99227W        W64454  15.304  40.760  12.011
99228W        W64455   2.508  19.407  11.448
99229W        W64456   6.417  37.945  11.618
99230W        W64457  34.200  38.830   2.033
99231W        W64458  12.571  16.075  14.136
99232W        W64459   0.548  20.370   2.287
99233W        W64460   8.238  16.325   5.158
99234W        W64461  10.967  39.018  12.800
99235W        W64462  10.632  17.169   2.196
99236W        W64463  37.374  44.279   2.728
99237W        W64464  14.877  12.645  14.844
99238W        W64465  23.778  40.794   0.846
99239W        W64466  37.543  37.360   4.701
99240W        W64467   4.122  22.245   3.667
99241W        W64468  26.782  19.132   4.568
99242W        W64469  20.220  35.533   2.221
99243W        W64470  12.914  38.395  14.821
99244W        W64471  38.636  12.762  11.555
99245W        W64472  19.552   9.541   3.238
99246W        W64473  24.339   5.610   4.925
99247W        W64474  41.847  38.472  12.802
99248W        W64475   4.892  39.428   2.747
99249W        W64476  31.580  43.796   0.869
99250W        W64477  16.182   3.781   3.026
99251W        W64478  30.705  28.882   2.067
99252W        W64479  27.297  38.514   3.799
99253W        W64480  40.410  20.811   2.280
99254W        W64481  25.777  27.504  11.170
99255W        W64482  44.392  23.839  12.524
99256W        W64483  34.873  26.437  12.177
99257W        W64484  34.336   9.222   4.323
99258W        W64485  33.499  30.286  10.130
99259W        W64486  23.783  43.323  13.835
99260W        W64487  11.036   3.210  11.594
99261W        W64488  32.925  17.937   1.292
99262W        W64489  43.389  23.056   1.381
99263W        W64490  12.398  36.389  14.459
99264W        W64491  34.702  26.570  10.524
99265W        W64492  17.878  27.168  14.416
99266W        W64493  31.136  19.451  11.148
99267W        W64494   2.077  13.761   3.272
99268W        W64495  36.399  39.001  13.144
99269W        W64496  44.411  22.750  13.957
99270W        W64497  35.604  16.801  10.719
99271W        W64498  37.427   0.679   1.250
99272W        W64499  12.990  35.176   9.789
99273W        W64500   5.650  37.692  11.597
99274W        W64501  35.121  25.511  13.427
99275W        W64502  10.191  27.594   1.633
99276W        W64503   3.490  38.960   1.353
99277W        W64504  22.711  14.549   2.223
99278W        W64505  15.959  44.350  14.602
99279W        W64506  22.029  10.374   4.632
99280W        W64507  18.383  42.134  11.894
99281W        W64508  32.493  10.678  11.064
99282W        W64509  38.413   7.999  14.903
99283W        W64510  17.583  24.398  14.303
99284W        W64511  37.048   4.418   3.892
99285W        W64512   3.976   8.363  12.377
99286W        W64513  21.408  27.400  11.446
99287W        W64514   5.336   5.317   0.569
99288W        W64515  35.879   0.791   1.924
99289W        W64516  34.476  36.195  10.506
99290W        W64517   5.183  15.784   3.811
99291W        W64518  14.288  13.637   4.739
99292W        W64519  44.303  23.107  13.573
99293W        W64520  17.795   7.340   2.869
99294W        W64521  35.883   9.635   2.280
99295W        W64522  11.545   3.071   2.848
99296W        W64523  39.052   1.458  12.010
99297W        W64524  42.548  32.172   3.219
99298W        W64525  10.756  35.641  13.337
99299W        W64526   2.179  25.962   4.012
99300W        W64527  18.580  43.891  14.704
99301W        W64528  28.402   6.353  10.249
99302W        W64529  15.734  41.152   2.215
99303W        W64530  28.044  23.841  13.821
99304W        W64531  42.779   5.346   3.192
99305W        W64532  28.668  42.965  13.527
99306W        W64533  27.371  21.294  13.112
99307W        W64534  10.164  25.121   9.955
99308W        W64535   4.324  33.336   4.694
99309W        W64536  26.609  13.480   1.323
99310W        W64537  36.365  39.494  13.892
99311W        W64538  13.568  38.901  11.393
99312W        W64539   6.691   6.084   4.174
99313W        W64540  37.994  14.081  11.143
99314W        W64541  35.317  24.559   2.686
99315W        W64542  30.813  37.983  13.969
99316W        W64543  11.442   2.643   1.605
99317W        W64544  18.834  36.481   0.961
99318W        W64545  38.346  22.741   4.238
99319W        W64546  38.959  39.892   0.295
99320W        W64547  30.186  43.973  13.135
99321W        W64548  40.484  42.294  14.890
99322W        W64549  14.271  18.713  12.512
99323W        W64550  40.968  26.598  14.021
99324W        W64551   6.329  18.209   3.638
99325W        W64552  34.468   9.825  10.732
99326W        W64553  24.220  44.426   1.251
99327W        W64554  15.191  13.808   3.668
99328W        W64555  11.825   9.834   4.082
99329W        W64556  18.979   0.007  12.071
99330W        W64557  26.039  23.041   0.860
99331W        W64558  31.000  20.668  12.877
99332W        W64559   1.187  12.884   2.822
99333W        W64560   0.831  11.077   4.570
99334W        W64561  32.855   6.947  11.227
99335W        W64562  18.116  28.397   2.295
99336W        W64563  33.051  15.363  13.256
99337W        W64564  18.042   2.268   4.583
99338W        W64565  36.421   6.150   3.060
99339W        W64566  30.529   9.766   4.122
99340W        W64567  17.662  38.761   2.354
99341W        W64568  36.038  18.712   3.236
99342W        W64569  42.324  38.102   2.399
99343W        W64570   5.416  18.841   0.390
99344W        W64571  17.798   5.342  10.574
99345W        W64572  17.708  19.505  10.652
99346W        W64573  25.242  13.644   3.389
99347W        W64574  32.072   1.358   0.101
99348W        W64575  31.522  12.641  14.409
99349W        W64576   9.228  12.872   4.812
99350W        W64577   0.230   3.398  14.051
99351W        W64578  16.416   9.689   2.137
99352W        W64579  23.711   0.436   1.827
99353W        W64580  16.130  28.032   3.476
99354W        W64581  13.219  27.902   1.909
99355W        W64582  22.872  42.852  14.119
99356W        W64583   2.740  12.455   2.048
99357W        W64584  20.182  41.984   0.432
99358W        W64585  28.997  16.319  10.701
99359W        W64586  25.068  18.265   3.881
99360W        W64587  20.762  38.547   3.686
99361W        W64588   9.085  23.535   4.105
99362W        W64589   5.130  35.860  10.735
99363W        W64590  29.989  21.327   1.233
99364W        W64591  43.619   9.494   3.545
99365W        W64592   8.385  36.686  14.261
99366W        W64593  43.787  26.533   4.226
99367W        W64594  10.044  32.322   1.840
99368W        W64595  23.975  35.099   1.302
99369W        W64596  14.572  21.477  12.200
99370W        W64597  24.369   9.741   4.634
99371W        W64598  16.373  25.660  12.647
99372W        W64599  18.051  29.077   2.679
99373W        W64600  33.108  13.077   1.230
99374W        W64601  15.721  24.184  14.473
99375W        W64602  10.660  41.526   3.192
99376W        W64603  29.616  30.681  12.028
99377W        W64604   8.810   2.718  14.095
99378W        W64605   2.917  43.577   4.053
99379W        W64606   5.511  31.698  11.116
99380W        W64607   6.756   0.311  13.709
99381W        W64608  41.508  39.058  10.561
99382W        W64609  23.296  43.468  10.224
99383W        W64610  15.507  15.719   0.027
99384W        W64611  35.456  21.798   0.466
99385W        W64612  18.631  31.060   2.623
99386W        W64613   7.063  14.649  13.468
99387W        W64614   6.858   0.998   4.481
99388W        W64615   4.386  40.326   5.070
99389W        W64616  13.875  24.056   4.132
99390W        W64617  14.641  28.542   1.836
99391W        W64618  27.684   5.039   0.429
99392W        W64619  11.619  42.784  11.444
99393W        W64620  38.021  44.410  12.066
99394W        W64621  14.282  27.557  13.112
99395W        W64622  10.412   0.259   2.378
99396W        W64623  20.316  12.872   4.830
99397W        W64624  20.075  18.067   2.155
99398W        W64625  19.503  18.451  13.961
99399W        W64626   7.660   2.962   4.543
99400W        W64627  25.303   9.225  13.285
99401W        W64628  39.432  22.552   1.027
99402W        W64629  31.575  21.834  10.481
99403W        W64630  40.319  10.227  10.843
99404W        W64631  14.058  42.986  14.629
99405W        W64632  23.346   2.363   3.644
99406W        W64633  16.110  39.930   3.272
99407W        W64634  28.655   9.333   2.373
99408W        W64635  38.170  21.327   0.495
99409W        W64636   6.338   7.669   0.177
99410W        W64637  28.594  31.381  12.440
99411W        W64638  34.483  22.722  12.156
99412W        W64639   1.413  27.667  11.079
99413W        W64640  13.774   3.143   2.706
99414W        W64641   5.760  11.220   1.919
99415W        W64642  18.856  18.120  12.611
99416W        W64643  16.001   3.643  14.735
99417W        W64644  31.721  17.054   3.196
99418W        W64645  15.144   6.717  12.886
99419W        W64646  17.173  17.879  12.339
99420W        W64647  36.070   9.892   4.285
99421W        W64648  39.345  37.782   0.917
99422W        W64649   9.475   7.545   1.302
99423W        W64650  14.837   2.178   2.654
99424W        W64651  39.430  40.354  10.422
99425W        W64652   7.809  42.729  13.746
99426W        W64653  15.810  34.540  11.630
99427W        W64654   3.759  22.785  14.909
99428W        W64655  16.863  25.979   1.945
99429W        W64656  19.462  35.169   0.660
99430W        W64657  15.777   6.781   2.260
99431W        W64658   1.804  21.272  11.633
99432W        W64659  39.582  32.824   4.563
99433W        W64660  43.807  14.246   1.403
99434W        W64661   8.716  41.873  13.565
99435W        W64662   1.983  31.873  11.903
99436W        W64663  44.384  33.971   0.916
99437W        W64664  39.830   3.023   3.735
99438W        W64665  35.016  20.603  12.453
99439W        W64666  37.288  23.131   3.892
99440W        W64667   5.861  36.556   1.846
99441W        W64668  25.697  35.842   3.418
99442W        W64669  38.226  43.948  11.939
99443W        W64670  26.110  14.111  14.305
99444W        W64671  16.584  32.106   3.335
99445W        W64672  31.608  17.984  12.084
99446W        W64673  25.106  10.179  14.451
99447W        W64674   4.524  29.454  13.544
99448W        W64675  38.782  32.615  12.578
99449W        W64676   5.779  12.288   3.696
99450W        W64677   0.039  21.825   4.247
99451W        W64678  19.230  34.652  14.480
99452W        W64679  33.697  44.337   4.109
99453W        W64680  27.016   7.284  11.927
99454W        W64681  42.541  31.069  11.100
99455W        W64682  39.631  34.426   4.220
99456W        W64683  22.085  38.363   3.122
99457W        W64684  14.917  25.520   4.805
99458W        W64685   4.394   6.671  14.723
99459W        W64686  36.307  13.141   1.902
99460W        W64687  13.961  10.975   3.194
99461W        W64688   6.682   9.660  13.444
99462W        W64689   7.542   5.430   0.354
99463W        W64690  38.073  21.023  13.561
99464W        W64691  29.372  21.903  14.390
99465W        W64692  25.143   5.059  12.100
99466W        W64693  17.706  20.406   2.175
99467W        W64694  44.780  27.608  14.042
99468W        W64695  41.460  11.297   0.885
99469W        W64696  27.307  12.015   2.135
99470W        W64697  39.456  16.659   4.216
99471W        W64698  13.292   3.861  12.886
99472W        W64699  22.506   5.140  14.029
99473W        W64700  33.058  35.475  14.528
99474W        W64701  28.709  30.232   1.205
99475W        W64702  19.739  21.242   3.286
99476W        W64703  31.874   4.108   0.493
99477W        W64704  18.368  42.383   1.550
99478W        W64705  18.462  32.047   2.841
99479W        W64706  13.679  40.553  11.073
99480W        W64707  40.147  30.331  12.841
99481W        W64708  24.198  24.608  14.377
99482W        W64709   2.510   9.770  11.072
99483W        W64710  34.455  15.067  12.174
99484W        W64711  39.481  33.940  13.609
99485W        W64712  24.685  11.674   2.342
99486W        W64713  37.031  37.940   2.987
99487W        W64714  11.703  36.560  13.783
99488W        W64715  20.458  33.075   2.719
99489W        W64716  38.888  39.794   3.698
99490W        W64717  44.260   2.552   2.255
99491W        W64718  43.908  32.072   3.337
99492W        W64719  22.759  25.554  10.865
99493W        W64720   7.373  44.575  13.823
99494W        W64721  44.115   5.808   4.243
99495W        W64722   0.522  15.257   0.278
99496W        W64723  22.174  41.803   3.702
99497W        W64724  27.167   9.163  13.999
99498W        W64725  32.028   6.182   2.367
99499W        W64726  10.419   5.442   3.661
99500W        W64727  40.259  27.522   0.498
99501W        W64728  39.041   1.498   1.710
99502W        W64729  26.547  30.516  13.272
99503W        W64730  29.620  39.995  10.545
99504W        W64731  36.920  37.632   4.022
99505W        W64732  29.105  29.720  12.567
99506W        W64733  12.590  41.921  11.976
99507W        W64734   1.980  24.184   1.386
99508W        W64735  38.068  16.630  11.128
99509W        W64736  26.452   7.104  14.425
99510W        W64737  12.677  11.066  12.352
99511W        W64738  21.090   1.224   3.870
99512W        W64739  16.764   7.646   3.789
99513W        W64740  30.540  42.119  14.310
99514W        W64741  36.285  10.407   3.187
99515W        W64742  10.865  36.321  13.850
99516W        W64743  16.233  41.778  11.194
99517W        W64744   9.730  26.475  12.513
99518W        W64745  43.196   2.429   1.228
99519W        W64746  32.143  45.000   0.838
99520W        W64747  25.761  25.662  14.311
99521W        W64748  23.983  37.790   0.426
99522W        W64749  40.111  44.242   4.205
99523W        W64750  36.472  43.558  13.448
99524W        W64751  14.208   4.766   0.284
99525W        W64752  23.564  33.064  10.952
99526W        W64753  42.099  11.186   2.819
99527W        W64754   5.136  29.207  12.399
99528W        W64755  29.746  10.279  13.127
99529W        W64756  12.157  19.341  14.036
99530W        W64757   0.324  26.762  13.069
99531W        W64758  44.006  10.938  14.151
99532W        W64759  13.044  33.089   3.155
99533W        W64760  34.905  31.136  12.354
99534W        W64761   8.239  18.635  10.379
99535W        W64762  14.564  34.002  14.880
99536W        W64763  19.186  36.533   1.342
99537W        W64764  22.239  36.092   3.697
99538W        W64765  22.659  17.223  12.798
99539W        W64766   5.886   1.217  10.345
99540W        W64767   6.487  13.100  11.604
99541W        W64768  13.585  15.702   0.932
99542W        W64769  14.557  24.491  13.221
99543W        W64770  35.996  13.829   0.316
99544W        W64771  31.443  31.256  14.923
99545W        W64772  29.675  12.666  11.051
99546W        W64773  38.962   4.507  10.242
99547W        W64774  35.849  19.128  13.946
99548W        W64775  40.465   0.029  12.391
99549W        W64776  14.130  16.694   0.441
99550W        W64777  14.848  28.024   3.034
99551W        W64778  29.926  30.368  13.870
99552W        W64779   7.122  40.565   3.324
99553W        W64780   1.263  35.645  10.644
99554W        W64781  12.804  38.887  12.553
99555W        W64782  29.016  10.443   4.514
99556W        W64783  28.859  29.724   0.249
99557W        W64784  18.448   6.207   3.241
99558W        W64785   0.334  14.720   0.845
99559W        W64786  37.508  36.774  11.347
99560W        W64787   4.438  28.337  13.569
99561W        W64788   5.950  36.034  11.112
99562W        W64789  16.626  11.897   0.450
99563W        W64790  31.107  12.668  13.621
99564W        W64791  29.555  18.244   4.467
99565W        W64792  13.363   4.470   0.088
99566W        W64793  18.051   6.821   3.621
99567W        W64794  28.381  40.046  13.524
99568W        W64795  35.015   7.912   4.539
99569W        W64796  18.289  22.983   1.917
99570W        W64797  17.813  15.591  13.541
99571W        W64798  13.989   4.301   0.753
99572W        W64799  21.835  18.241   4.072
99573W        W64800  31.570   1.776  13.957
99574W        W64801  37.912  33.449  13.539
99575W        W64802  28.642  42.937   4.975
99576W        W64803  21.477  12.576   3.470
99577W        W64804   2.014  36.534  10.632
99578W        W64805  17.349  28.364   4.744
99579W        W64806  22.895  27.210  14.318
99580W        W64807  30.016   4.337  11.573
99581W        W64808  30.529   1.371  14.248
99582W        W64809  30.745  36.427  12.537
99583W        W64810  15.410  38.447   0.491
99584W        W64811  33.221  35.868   2.422
99585W        W64812  34.023  42.746   2.768
99586W        W64813  15.069  16.605  14.064
99587W        W64814   1.521  36.613  10.745
99588W        W64815  41.440  36.320  13.354
99589W        W64816  34.084   5.663  13.151
99590W        W64817  36.217  21.558   4.446
99591W        W64818  25.178  20.532   0.495
99592W        W64819  17.867  23.234  13.426
99593W        W64820  10.202  26.999  12.457
99594W        W64821   0.803  37.668   2.777
99595W        W64822   1.201   9.908   0.882
99596W        W64823  36.450  11.391   3.239
99597W        W64824   0.962  26.863   0.633
99598W        W64825  17.369  35.315   4.148
99599W        W64826  32.674  44.439   2.224
99600W        W64827  31.346   0.501  12.989
99601W        W64828   0.540  13.348  10.724
99602W        W64829  27.708  26.173  14.610
99603W        W64830  27.361  43.319   4.671
99604W        W64831  27.132  44.163   2.215
99605W        W64832  12.697  43.562   2.678
99606W        W64833  40.916  29.598  12.097
99607W        W64834   8.449  35.548  11.236
99608W        W64835  16.132  38.432  11.647
99609W        W64836   4.268  34.559  14.782
99610W        W64837  34.912   4.392  14.632
99611W        W64838   0.103  36.374   0.869
99612W        W64839   0.477   5.932  14.980
99613W        W64840  22.753   9.710   2.467
99614W        W64841  17.674  24.795   4.585
99615W        W64842  34.871  24.260   2.224
99616W        W64843  19.212  23.008   0.795
99617W        W64844  10.459   0.477  13.996
99618W        W64845  15.142  39.760   3.599
99619W        W64846  17.077  34.032   0.322
99620W        W64847  19.026  36.614  11.461
99621W        W64848  20.734  17.943  12.967
99622W        W64849   0.851  29.631   1.768
99623W        W64850   6.591  17.526   2.307
99624W        W64851  18.732  24.098   2.823
99625W        W64852   9.177   6.796   4.342
99626W        W64853   7.957   4.848   1.564
99627W        W64854  41.639  16.784   3.311
99628W        W64855  42.970  32.149   1.762
99629W        W64856  26.449  41.921  13.405
99630W        W64857  32.631  32.607   2.197
99631W        W64858  36.491  41.661   2.352
99632W        W64859  38.756   4.391  11.046
99633W        W64860  25.421   3.269  13.103
99634W        W64861  42.925  20.718  11.913
99635W        W64862  43.755  41.382  11.691
99636W        W64863  43.824  35.066   3.105
99637W        W64864  30.000  18.766  12.842
99638W        W64865  13.920   5.438   4.075
99639W        W64866  24.254  24.575  12.179
99640W        W64867  20.731  10.497  13.468
99641W        W64868  42.359  11.482   1.149
99642W        W64869  24.954  28.031  12.011
99643W        W64870  22.048  26.140  10.740
99644W        W64871   7.917   4.543   4.385
99645W        W64872  42.696  30.388  10.129
99646W        W64873  21.089  39.406  12.669
99647W        W64874  26.458  41.068  10.699
99648W        W64875  17.407  37.601  14.581
99649W        W64876  40.820  39.169  11.087
99650W        W64877  33.105  15.577  11.817
99651W        W64878  34.469  33.869   0.680
99652W        W64879  20.612  43.998   4.684
99653W        W64880   9.933  36.915  12.935
99654W        W64881  40.915  10.607   2.153
99655W        W64882  20.196  17.911  12.827
99656W        W64883   8.957  33.518  12.229
99657W        W64884  21.006  37.258   1.688
99658W        W64885   8.997   9.728  12.064
99659W        W64886  29.430  34.043  11.361
99660W        W64887  40.531  17.578   2.891
99661W        W64888  32.127  34.522  11.197
99662W        W64889  38.609  17.607  13.576
99663W        W64890  21.705  32.495  12.993
99664W        W64891  10.705  30.334   1.146
99665W        W64892  20.156   3.506   3.553
99666W        W64893  29.575  25.112   0.700
99667W        W64894  11.154   1.698   1.214
99668W        W64895  27.745  18.781   2.617
99669W        W64896  39.021  25.104  10.948
99670W        W64897   3.669  41.177  11.940
99671W        W64898   9.813   8.967   0.391
99672W        W64899   1.508  10.705  11.896
99673W        W64900  34.233  31.609  12.074
99674W        W64901  28.086  14.079  13.947
99675W        W64902  17.726  24.151   2.935
99676W        W64903  18.117  11.412   1.383
99677W        W64904  19.502  25.283  10.789
99678W        W64905  17.576  37.039   4.974
99679W        W64906   0.430   0.722  14.895
99680W        W64907   9.872   8.166  12.003
99681W        W64908  17.015  35.272  13.360
99682W        W64909  14.608  28.114   2.155
99683W        W64910  11.764  20.044   2.708
99684W        W64911  40.987  34.962  12.953
99685W        W64912  22.971  18.270   0.798
99686W        W64913   7.020  44.024   4.116
99687W        W64914  11.133  27.080  14.771
99688W        W64915  23.546  20.074   4.178
99689W        W64916  10.409   5.249  10.661
99690W        W64917  34.114  14.414   5.404
99691W        W64918  21.613  38.544   0.487
99692W        W64919  25.953  14.650   1.935
99693W        W64920  22.973  42.810   1.367
99694W        W64921  21.100  33.631  12.439
99695W        W64922  43.285  33.112   3.485
99696W        W64923   4.705  28.041   3.109
99697W        W64924  44.663  22.423  14.977
99698W        W64925  41.958   3.722   4.545
99699W        W64926   1.898  40.358  12.844
99700W        W64927  27.936  42.039   4.162
99701W        W64928  17.057  41.369   2.773
99702W        W64929  18.178   4.925   0.348
99703W        W64930  43.368   7.624  10.320
99704W        W64931  21.486  21.551  14.346
99705W        W64932  30.670  30.430   3.727
99706W        W64933  36.377  21.848  14.441
99707W        W64934  30.005   9.376   2.969
99708W        W64935   8.713   5.227   3.640
99709W        W64936  20.269  26.111   3.324
99710W        W64937  18.014   5.267  11.590
99711W        W64938  39.948   3.543   4.535
99712W        W64939  25.502  38.297   2.443
99713W        W64940  13.616   3.494  14.812
99714W        W64941  17.127  26.910   4.805
99715W        W64942  42.718  29.215   2.443
99716W        W64943  43.783  24.338  14.565
99717W        W64944  39.475  43.511  13.447
99718W        W64945  34.508   6.589   3.187
99719W        W64946  21.719  31.028  13.080
99720W        W64947  16.911  32.113  14.479
99721W        W64948  29.903   8.285   4.556
99722W        W64949  30.589  37.387   2.333
99723W        W64950   2.936  13.252   4.731
99724W        W64951   5.264  29.522  10.904
99725W        W64952  27.163  23.052   2.505
99726W        W64953  22.549  40.748  11.679
99727W        W64954  18.608   6.115  12.056
99728W        W64955  15.806  26.565   2.448
99729W        W64956  41.350  17.986   2.340
99730W        W64957  16.320  21.578  12.940
99731W        W64958   4.255   6.858  10.680
99732W        W64959  32.755  13.832   2.762
99733W        W64960  36.412  34.627   1.916
99734W        W64961  14.387  30.052   3.889
99735W        W64962  27.542  31.936   0.289
99736W        W64963  30.086   1.403   3.305
99737W        W64964  27.171  39.956   0.959
99738W        W64965  26.734  43.839  10.158
99739W        W64966  33.464  37.956   0.932
99740W        W64967  13.684  14.223  11.934
99741W        W64968  16.372  42.903   1.437
99742W        W64969  42.799  24.775  12.929
99743W        W64970   1.815  20.779  11.658
99744W        W64971  40.066   6.450  12.588
99745W        W64972  12.730   7.162  14.985
99746W        W64973   9.214  37.094  13.447
99747W        W64974  29.695  21.692  14.050
99748W        W64975  29.426  32.063  14.309
99749W        W64976   6.347  22.142  14.762
99750W        W64977  32.706  17.191   4.144
99751W        W64978  12.388  32.893   1.843
99752W        W64979  27.502  44.790   1.802
99753W        W64980  38.188  26.578   2.524
99754W        W64981  28.671  20.360   2.852
99755W        W64982   7.748   6.294  13.947
99756W        W64983  13.091  32.025  12.981
99757W        W64984  24.914  16.807   1.882
99758W        W64985  22.685  11.321  12.806
99759W        W64986  28.892  19.047   3.625
99760W        W64987  35.030  28.451   3.363
99761W        W64988  29.461  25.225  12.068
99762W        W64989  44.567   7.350   0.997
99763W        W64990  10.730  27.009  11.556
99764W        W64991  37.485  22.647  11.623
99765W        W64992  24.467  40.875  12.038
99766W        W64993  44.074   0.086   0.559
99767W        W64994  12.338  41.024   0.147
99768W        W64995  17.350  11.829   2.255
99769W        W64996  18.034   9.352   2.307
99770W        W64997  34.767   0.242   0.144
99771W        W64998  29.561   8.663   1.905
99772W        W64999  39.940  18.535   3.218
99773W        W65000  34.022  28.471   2.289
99774W        W65001  10.451  32.656   3.597
99775W        W65002  16.846  36.654   3.201
99776W        W65003   7.307  32.381  12.393
99777W        W65004  42.667  25.696  13.484
99778W        W65005  44.265  15.200  13.865
99779W        W65006  17.839  19.461  12.828
99780W        W65007  23.228  42.529  12.068
99781W        W65008  11.063   1.785  12.961
99782W        W65009  28.199   9.601  14.848
99783W        W65010  34.355   8.103   0.068
99784W        W65011  42.452  39.014   3.344
99785W        W65012   0.168  26.155   1.235
99786W        W65013  10.413  29.887   3.348
99787W        W65014  33.087  14.833   3.337
99788W        W65015  14.536  25.935  11.709
99789W        W65016  44.536  30.415  13.090
99790W        W65017  35.826  11.795  13.526
99791W        W65018  11.033   1.333  13.580
99792W        W65019  44.929  32.543   3.220
99793W        W65020  16.998  32.209  13.036
99794W        W65021   4.321  35.678  13.603
99795W        W65022  35.150  12.207  12.513
99796W        W65023  15.583  26.082  12.928
99797W        W65024  38.510  20.957   0.442
99798W        W65025  20.248   2.638   3.549
99799W        W65026  12.082  27.610   1.426
99800W        W65027  11.760  26.426  13.348
99801W        W65028  14.134   1.654  14.010
99802W        W65029  13.001  21.199   0.336
99803W        W65030  40.436  27.876   1.430
99804W        W65031  29.116  41.887   3.256
99805W        W65032  40.631  44.634  10.657
99806W        W65033  39.405  19.694  13.515
99807W        W65034  36.077   7.236   3.061
99808W        W65035  36.575  42.149   2.187
99809W        W65036  19.259  19.168  12.326
99810W        W65037   8.940  13.578  14.300
99811W        W65038  39.015  14.170   1.639
99812W        W65039  39.234  26.372  13.535
99813W        W65040  35.041  11.992  13.931
99814W        W65041  44.843  19.067   3.363
99815W        W65042  36.504   4.148   3.453
99816W        W65043   4.211  21.106   1.472
99817W        W65044  37.927  12.343  10.825
99818W        W65045   6.872  13.472  11.641
99819W        W65046  30.426  42.897  14.800
99820W        W65047  26.585  44.386  12.875
99821W        W65048  14.037   8.708  13.199
99822W        W65049  43.845  31.874  10.725
99823W        W65050  16.328   4.649  14.694
99824W        W65051   4.930  27.590   4.232
99825W        W65052   2.223  42.497   1.800
99826W        W65053  26.954  29.758  13.245
99827W        W65054   7.213  36.326   1.394
99828W        W65055  35.279   3.100   3.492
99829W        W65056  42.979  38.067  14.424
99830W        W65057  16.508  25.892   3.596
99831W        W65058  10.187  43.020  14.570
99832W        W65059  20.794   0.657   5.004
99833W        W65060   4.697  20.173   0.728
99834W        W65061   1.339  37.578  10.957
99835W        W65062   3.785   2.293   0.723
99836W        W65063   8.403  42.092  10.486
99837W        W65064   5.058  38.306  14.906
99838W        W65065  32.880  44.161  10.152
99839W        W65066   6.324   9.471   3.699
99840W        W65067  28.052  22.261   3.588
99841W        W65068   2.731  30.864   0.847
99842W        W65069  33.613   3.113   0.344
99843W        W65070  27.393   0.912   4.164
99844W        W65071  34.121  44.295  14.022
99845W        W65072  22.246  41.511  13.843
99846W        W65073  25.959   4.820  11.843
99847W        W65074  28.457   3.024   1.826
99848W        W65075  26.386  29.858  11.252
99849W        W65076  19.847   1.446  13.895
99850W        W65077  40.711  25.517  11.675
99851W        W65078  24.772  12.785  13.875
99852W        W65079   2.505  32.307  11.019
99853W        W65080  23.669  37.902  14.077
99854W        W65081  20.192  24.416   4.930
99855W        W65082  28.940  28.336   1.512
99856W        W65083  33.608  15.293   4.499
99857W        W65084  11.160  10.152  11.597
99858W        W65085  23.823   8.392  12.113
99859W        W65086  26.072  36.673  13.456
99860W        W65087  18.540   7.721  11.992
99861W        W65088  12.592   7.204   3.769
99862W        W65089  38.529  35.907   3.649
99863W        W65090  28.539  43.884   1.934
99864W        W65091  11.809  25.068  10.665
99865W        W65092  30.795   2.753   0.391
99866W        W65093   3.741  17.753   3.638
99867W        W65094  13.814  40.844  13.901
99868W        W65095  23.672  27.096   2.737
99869W        W65096  34.946  23.802  14.410
99870W        W65097  31.496  29.718  13.722
99871W        W65098  28.927  10.331   1.657
99872W        W65099  21.813  27.295   0.724
99873W        W65100  26.838  44.856   0.031
99874W        W65101  17.638  13.117  11.224
99875W        W65102  28.821  44.050   3.390
99876W        W65103  28.328  14.190  10.674
99877W        W65104  24.694  23.721   2.325
99878W        W65105  35.157   8.205   4.127
99879W        W65106  15.659  39.875   3.563
99880W        W65107   8.498  41.412  13.166
99881W        W65108  17.506  37.890   4.416
99882W        W65109   4.978   8.670  14.861
99883W        W65110   2.410   4.445   0.376
99884W        W65111  42.473  37.486   4.668
99885W        W65112  44.403   6.362  12.452
99886W        W65113  42.787  35.164   3.609
99887W        W65114  23.202  12.436  11.391
99888W        W65115  35.763  29.961   3.906
99889W        W65116  42.667  42.817   3.131
99890W        W65117  10.699  34.112   3.207
99891W        W65118   7.411  25.257  12.421
99892W        W65119  42.041  23.252  13.828
99893W        W65120  42.244  36.881   3.749
99894W        W65121  20.529  36.306  13.408
99895W        W65122  11.119  17.516  11.638
99896W        W65123  30.907   9.101  13.997
99897W        W65124  41.270  24.548  12.981
99898W        W65125  32.864  28.918   3.254
99899W        W65126  20.317  37.469  11.832
99900W        W65127  21.501  30.632   3.389
99901W        W65128  35.828  13.739   1.266
99902W        W65129  28.234  39.931  10.695
99903W        W65130  11.485  15.047  13.862
99904W        W65131  21.932  36.844  11.650
99905W        W65132  10.738  24.088   0.612
99906W        W65133  26.077  39.430  14.823
99907W        W65134  33.225  43.305  11.105
99908W        W65135  30.422  29.861   9.493
99909W        W65136  21.647  34.857   3.845
99910W        W65137  39.224  18.996  11.583
99911W        W65138  14.889  36.900   2.277
99912W        W65139  44.202  37.132  11.935
99913W        W65140  40.399  36.328   0.832
99914W        W65141  28.687  40.998   3.649
99915W        W65142  38.571  27.355   3.556
99916W        W65143   3.890  28.929   2.202
99917W        W65144  25.291  25.215  14.916
99918W        W65145  14.241  38.980   4.080
99919W        W65146   1.578  23.759   1.354
99920W        W65147  27.713   0.514  12.332
99921W        W65148  30.084  42.767   4.585
99922W        W65149  38.684  25.102   0.911
99923W        W65150  24.257  25.299   2.968
99924W        W65151  26.531   7.169  11.166
99925W        W65152  31.055   9.605  14.005
99926W        W65153   2.443   2.418  12.530
99927W        W65154  38.233  23.284  12.507
99928W        W65155  27.593  31.171   2.851
99929W        W65156  30.761  35.483  14.290
99930W        W65157   0.523  38.128  11.122
99931W        W65158  43.759  10.751   0.002
99932W        W65159  37.547   1.354   3.893
99933W        W65160  29.653  36.591  14.581
99934W        W65161   8.337  30.122   3.074
99935W        W65162  11.791  40.551   4.454
99936W        W65163  12.582  17.669   0.872
99937W        W65164  19.026  35.559   0.750
99938W        W65165  21.953  13.760   0.838
99939W        W65166   1.841  32.665   1.500
99940W        W65167  42.785  13.722  13.926
99941W        W65168  17.212  43.438   0.722
99942W        W65169   2.438  32.193   3.812
99943W        W65170  29.061  39.304  12.969
99944W        W65171  33.648  37.950   1.411
99945W        W65172   3.787  35.280  12.431
99946W        W65173  10.166  44.677  13.667
99947W        W65174  19.809   8.405   2.626
99948W        W65175  44.025  30.587  11.204
99949W        W65176  34.010  32.631  11.432
99950W        W65177  31.796  40.284   0.351
99951W        W65178  28.562   8.437  13.726
99952W        W65179  34.749   0.443  13.445
99953W        W65180   6.414   4.582   0.659
99954W        W65181  40.268  24.946   4.519
99955W        W65182   8.016  42.329  14.018
99956W        W65183   9.656  14.009  13.433
99957W        W65184  20.461  24.816   9.896
99958W        W65185  44.258   6.364  11.945
99959W        W65186   0.704   8.343   3.013
99960W        W65187   8.815  39.199   3.223
99961W        W65188  15.556   0.844   0.924
99962W        W65189  18.579   2.235  11.006
99963W        W65190  17.488   1.425   0.873
99964W        W65191  24.029   3.134  13.929
99965W        W65192  23.567   0.032   0.005
99966W        W65193  24.778  44.030   3.222
99967W        W65194   3.262  34.867   1.023
99968W        W65195  25.946  18.142   4.391
99969W        W65196  44.355  15.570  11.905
99970W        W65197  31.028  21.073   2.564
99971W        W65198   0.286  15.752   3.149
99972W        W65199  28.384  10.056   2.607
99973W        W65200  37.807  37.752   1.249
99974W        W65201  29.434  29.525  12.892
99975W        W65202  43.390  13.808  14.255
99976W        W65203  43.951  15.710   2.835
99977W        W65204  15.823  27.713   1.016
99978W        W65205   8.891   1.690  12.666
99979W        W65206   9.261  20.152   3.609
99980W        W65207   6.762  30.898  14.803
99981W        W65208  33.136  19.832  10.862
99982W        W65209  13.794  31.514  12.642
99983W        W65210  40.593  31.001  14.997
99984W        W65211  18.244   1.488  13.003
99985W        W65212   0.520  17.992   1.400
99986W        W65213  26.632   7.439  11.601
99987W        W65214  27.975  37.099   3.226
99988W        W65215  35.810  27.652  12.368
99989W        W65216  23.953   3.924   0.757
99990W        W65217  30.231  17.758   1.840
99991W        W65218  22.640  23.298   1.592
99992W        W65219  25.542  41.715   0.269
99993W        W65220  31.079  29.514   4.652
99994W        W65221  18.957   2.291  12.092
99995W        W65222  18.509  18.856   3.920
99996W        W65223  39.010   9.589   0.510
99997W        W65224  34.425  31.841  11.655
99998W        W65225   5.812  12.653   4.694
99999W        W65226   1.208  18.203   2.372
    0W        W65227  15.484   7.374   2.720
    1W        W65228  28.229  20.665   4.423
    2W        W65229  28.200  23.549   1.201
    3W        W65230  20.051  30.627  11.627
    4W        W65231  33.927  12.638  10.251
    5W        W65232  41.087  14.517   3.570
    6W        W65233  41.108   9.292  14.964
    7W        W65234  28.608   4.007   2.088
    8W        W65235   1.969   3.918   2.418
    9W        W65236  34.062  23.617   2.111
   10W        W65237  41.814  22.228  14.851
   11W        W65238  43.877   4.727   0.418
   12W        W65239   2.004  29.031   3.921
   13W        W65240  15.848  23.601   4.549
   14W        W65241  13.315   2.489  14.079
   15W        W65242   7.093  15.002   3.412
   16W        W65243   0.989  32.279   1.292
   17W        W65244  20.630  16.564  14.314
   18W        W65245  44.861  37.258   0.996
   19W        W65246  17.007  27.743  12.946
   20W        W65247  10.347  21.465   4.681
   21W        W65248  26.209  18.435  12.786
   22W        W65249  39.225  10.127  13.636
   23W        W65250  31.785  16.320   1.794
   24W        W65251  16.429   6.722  11.078
   25W        W65252  12.801  21.193  12.447
   26W        W65253  24.456  40.432   3.631
   27W        W65254   7.885  39.978  11.148
   28W        W65255  31.171  38.579  10.770
   29W        W65256  21.556  23.324   0.908
   30W        W65257  28.984  24.203   1.705
   31W        W65258  31.998  22.111   0.437
   32W        W65259  32.567  21.328  11.196
   33W        W65260  19.713   1.917   1.263
   34W        W65261  12.674  37.036  12.943
   35W        W65262   1.216  23.696  13.360
   36W        W65263  12.744   5.000  11.013
   37W        W65264   9.698   9.343  13.972
   38W        W65265  42.196  34.389  14.234
   39W        W65266   3.449  20.007   1.239
   40W        W65267  10.715  25.385   4.955
   41W        W65268  31.986  13.276  12.025
   42W        W65269  17.110  19.539  14.480
   43W        W65270  37.091   9.214   3.693
   44W        W65271   6.411  12.786   2.071
   45W        W65272  24.598  22.741   3.143
   46W        W65273  15.794  12.100  12.987
   47W        W65274  38.030  43.959   0.775
   48W        W65275  37.074  19.572  13.913
   49W        W65276  41.916  21.082  12.780
   50W        W65277  24.060  18.644  14.260
   51W        W65278  28.384  33.575  12.906
   52W        W65279  10.597   3.856  14.982
   53W        W65280   0.559  39.419   3.075
   54W        W65281  14.286   3.137  13.478
   55W        W65282  25.936  21.838   2.724
   56W        W65283  35.882   2.016   3.063
   57W        W65284  15.785  23.727   2.243
   58W        W65285  33.989  39.863   0.487
   59W        W65286  39.914  23.293  13.489
   60W        W65287  40.870  14.186   3.197
   61W        W65288  11.633  17.497   0.697
   62W        W65289   6.094  10.891  13.422
   63W        W65290  30.409  15.458  14.450
   64W        W65291   5.182  25.534   1.922
   65W        W65292  26.791  38.741  10.358
   66W        W65293  39.825  21.518  13.777
   67W        W65294  42.425  21.049  12.635
   68W        W65295   5.783   3.161  12.451
   69W        W65296  11.031  24.112  11.184
   70W        W65297  21.714   2.524   3.137
   71W        W65298  38.930   2.711   1.286
   72W        W65299  11.291  42.031  13.032
   73W        W65300  19.957  28.863   3.303
   74W        W65301  11.772   1.510  13.683
   75W        W65302  33.981  36.060  11.565
   76W        W65303  38.202   8.049   3.545
   77W        W65304   5.423   8.681   2.880
   78W        W65305   0.465  18.382  10.319
   79W        W65306   5.167  40.002   4.564
   80W        W65307  11.269  30.919   0.399
   81W        W65308   1.008   7.714  14.465
   82W        W65309  23.514  11.293   0.957
   83W        W65310  28.141  13.293  10.679
   84W        W65311  21.673  26.429   0.479
   85W        W65312  36.312   9.175   1.725
   86W        W65313  30.521  35.437  11.891
   87W        W65314  14.152  39.788  14.373
   88W        W65315  14.275  18.599  13.528
   89W        W65316   3.410  12.973  11.566
   90W        W65317  23.368  18.077   4.022
   91W        W65318   2.686  30.860  14.459
   92W        W65319  20.036  43.109  10.738
   93W        W65320  21.432  24.453  12.489
   94W        W65321  14.061  38.381  13.537
   95W        W65322   9.153  28.722   2.194
   96W        W65323  20.513   4.176   1.848
   97W        W65324  11.097   3.944   3.671
   98W        W65325  33.523  12.046   3.133
   99W        W65326  27.233  24.064   2.562
  100W        W65327  43.794  42.324  11.897
  101W        W65328  26.675  10.689   4.199
  102W        W65329  38.834  41.523  12.527
  103W        W65330  12.097  13.794   4.951
  104W        W65331  32.491  38.907  14.968
  105W        W65332  28.866  42.468   3.736
  106W        W65333  32.017  44.734  13.748
  107W        W65334  21.549  19.739   1.828
  108W        W65335   8.175   9.833  10.800
  109W        W65336  42.756   1.027   4.225
  110W        W65337  21.942   2.713  11.116
  111W        W65338  20.482   4.683   4.258
  112W        W65339   6.562   4.358  14.330
  113W        W65340  10.610   4.712   0.924
  114W        W65341  36.816  20.989   4.171
  115W        W65342  19.717  17.962  13.068
  116W        W65343   0.862  26.159  12.751
  117W        W65344  43.527  24.200  13.411
  118W        W65345  13.543  31.748  13.943
  119W        W65346   5.316  44.642  11.776
  120W        W65347  25.602  30.656   5.089
  121W        W65348  36.061  37.026  12.206
  122W        W65349  15.808  32.604   3.705
  123W        W65350   7.822  42.976  10.202
  124W        W65351  42.785  32.081  10.704
  125W        W65352  27.689  42.065  10.738
  126W        W65353  16.731   5.799   1.751
  127W        W65354  38.595  27.109   1.393
  128W        W65355  17.324   4.667   4.507
  129W        W65356  21.582  37.026   2.806
  130W        W65357  44.012  16.879   4.598
  131W        W65358   8.759  28.249   2.135
  132W        W65359  34.139   1.268  12.822
  133W        W65360  35.670  26.688  13.546
  134W        W65361  13.580  42.078   4.144
  135W        W65362  42.828  26.143   3.945
  136W        W65363  33.794  41.861   0.720
  137W        W65364  39.877  12.946  14.025
  138W        W65365   2.818  33.483  14.012
  139W        W65366  22.181  44.463   1.908
  140W        W65367  29.160  34.612   0.901
  141W        W65368   1.667  29.635   1.451
  142W        W65369   1.471  31.032   1.262
  143W        W65370   7.021  44.245  12.614
  144W        W65371   4.378   9.766  10.404
  145W        W65372  38.073   5.606  14.435
  146W        W65373   2.822   3.981  14.016
  147W        W65374  32.109  33.521   3.034
  148W        W65375  12.276  36.532   3.242
  149W        W65376  38.606  31.109  12.427
  150W        W65377   8.255  12.944  13.752
  151W        W65378  16.209  12.634  10.496
  152W        W65379   5.734   2.693   1.856
  153W        W65380  12.922   9.723  13.549
  154W        W65381   0.918  25.694   3.676
  155W        W65382   0.636  40.181   3.724
  156W        W65383  23.160  28.152  14.370
  157W        W65384   5.502   8.586   1.452
  158W        W65385  12.525  28.849  13.930
  159W        W65386   0.238   1.940  12.136
  160W        W65387  39.304  38.983  10.484
  161W        W65388  15.144  19.285   0.896
  162W        W65389   9.672   1.287  10.443
  163W        W65390  36.346   0.486  10.805
  164W        W65391  30.463  25.346  11.086
  165W        W65392  28.821   8.074  12.793
  166W        W65393  16.138  21.267  12.589
  167W        W65394  40.026  44.713   0.470
  168W        W65395   2.257   0.154  12.367
  169W        W65396  31.107  38.048  13.382
  170W        W65397  43.006  18.401  10.289
  171W        W65398  33.382  14.112  12.083
  172W        W65399   4.707  19.294  14.804
  173W        W65400  42.298   9.314  10.630
  174W        W65401  43.599   3.212   4.498
  175W        W65402  19.505  43.050  11.598
  176W        W65403  21.172  26.219   1.731
  177W        W65404  44.170  21.583  13.398
  178W        W65405  19.220  33.379  10.799
  179W        W65406  11.599   6.748  14.260
  180W        W65407  28.251  41.256  12.523
  181W        W65408  10.761   6.197   3.245
  182W        W65409  13.862   4.349   0.253
  183W        W65410   6.215  25.716   3.698
  184W        W65411  26.245   0.262   2.347
  185W        W65412  18.549  25.685  11.572
  186W        W65413   4.859  42.474  13.018
  187W        W65414  21.126  38.494   0.758
  188W        W65415   1.977   7.068   2.546
  189W        W65416  25.806   6.041   2.794
  190W        W65417  24.573  25.591   1.654
  191W        W65418   6.751  33.123  12.392
  192W        W65419  10.141  12.330   2.309
  193W        W65420  13.142  26.883  13.081
  194W        W65421  11.158  32.089  12.416
  195W        W65422   3.243  30.428   1.246
  196W        W65423  18.656  38.955  12.264
  197W        W65424  10.104  35.056   3.247
  198W        W65425  29.659  25.575  14.864
  199W        W65426  18.042  10.826  14.352
  200W        W65427   1.744   5.528   3.477
  201W        W65428  17.801  19.326   3.636
  202W        W65429  22.355  28.945   4.825
  203W        W65430   4.626  34.514   2.919
  204W        W65431  27.362   6.338  12.434
  205W        W65432  28.982  14.300   4.602
  206W        W65433  26.177  15.306  14.782
  207W        W65434  23.647  36.810   4.148
  208W        W65435  39.905  25.096   2.235
  209W        W65436  18.394  34.984  11.064
  210W        W65437  20.576   0.485   3.827
  211W        W65438  13.152  24.186  11.091
  212W        W65439  12.270  12.785   0.290
  213W        W65440  30.828  40.987  13.963
  214W        W65441  24.581  23.539   3.376
  215W        W65442  16.577  32.581   4.795
  216W        W65443  44.445   9.623  10.162
  217W        W65444  24.720   2.192  14.389
  218W        W65445   2.805  22.749   0.419
  219W        W65446  21.497  29.785   2.807
  220W        W65447  41.441  14.127  13.011
  221W        W65448   6.243  27.529  13.312
  222W        W65449  13.890  11.524  12.560
  223W        W65450   0.331  16.338   2.315
  224W        W65451  42.224   1.483  13.402
  225W        W65452  22.807  35.821  11.113
  226W        W65453  20.165  10.150   1.213
  227W        W65454   7.575  29.607   1.143
  228W        W65455   4.403  18.155   0.019
  229W        W65456  34.411  10.202  12.453
  230W        W65457  35.558  35.175  11.097
  231W        W65458  35.826  14.856   3.565
  232W        W65459  31.279  27.383  13.383
  233W        W65460  26.718  24.716   1.967
  234W        W65461  16.000  22.157   0.494
  235W        W65462  33.128  41.532   2.645
  236W        W65463  30.500   9.461   3.669
  237W        W65464  21.246  16.176  12.395
  238W        W65465  18.438  37.912  10.851
  239W        W65466  21.598  41.422   4.261
  240W        W65467  11.333  40.148   3.232
  241W        W65468  13.251  31.294   0.072
  242W        W65469  42.431  38.999  10.678
  243W        W65470  21.084  30.192  14.372
  244W        W65471  13.474  30.414   3.118
  245W        W65472  21.960   2.006   3.165
  246W        W65473  11.019  18.020   1.300
  247W        W65474  44.039  24.575   0.539
  248W        W65475  18.670  41.644   0.372
  249W        W65476  20.766   0.409  14.801
  250W        W65477  44.293  13.547  11.195
  251W        W65478  25.944  36.553  11.669
  252W        W65479  27.810   9.363   4.188
  253W        W65480  16.096  10.010   1.802
  254W        W65481   4.680  17.644   4.611
  255W        W65482  17.127  41.382  12.175
  256W        W65483  39.133   4.746  11.197
  257W        W65484  38.365  44.636  13.856
  258W        W65485  30.096  32.199   4.363
  259W        W65486  19.866  35.147  11.049
  260W        W65487  38.508  29.456   4.135
  261W        W65488   1.957  29.971  12.469
  262W        W65489   9.446  21.070   2.384
  263W        W65490  27.807  11.201   2.064
  264W        W65491  40.499  12.413  12.765
  265W        W65492   5.638  28.883  14.843
  266W        W65493  29.588  14.333   4.078
  267W        W65494  38.517  43.475   1.151
  268W        W65495  42.235   3.971   2.683
  269W        W65496  17.300   1.201   0.437
  270W        W65497  38.272   8.292   2.637
  271W        W65498  40.100  27.077   3.171
  272W        W65499  14.666   6.798  13.991
  273W        W65500  29.010  16.991   1.872
  274W        W65501  39.072  32.336   1.382
  275W        W65502  14.637   6.949   2.782
  276W        W65503  18.783  18.992   0.943
  277W        W65504  19.975  15.850  12.165
  278W        W65505  10.204   6.999  12.610
  279W        W65506  18.743  35.803  11.656
  280W        W65507  25.703   6.123   0.781
  281W        W65508  44.381  32.603   1.816
  282W        W65509  32.427  20.273  12.968
  283W        W65510  22.186  42.038  11.290
  284W        W65511   1.255   6.712   4.459
  285W        W65512  18.255  23.903   3.157
  286W        W65513   2.019  14.618   3.659
  287W        W65514  43.021  38.509  12.068
  288W        W65515  39.319  15.623   4.546
  289W        W65516  23.975  29.123   4.721
  290W        W65517  35.462   2.286   1.868
  291W        W65518   5.187  18.390  11.079
  292W        W65519  43.325  26.040   1.155
  293W        W65520  31.546   5.295   4.170
  294W        W65521  37.963  39.358  11.627
  295W        W65522  21.815  30.955   3.661
  296W        W65523  10.314  23.653   5.195
  297W        W65524   4.604  25.207  10.456
  298W        W65525  15.384  40.094   1.804
  299W        W65526  21.366  35.221   4.098
  300W        W65527  27.797  39.927   3.247
  301W        W65528  28.095   8.455   4.704
  302W        W65529  33.387  29.010   3.293
  303W        W65530   6.136  11.863  14.611
  304W        W65531   1.737  39.852   0.451
  305W        W65532  40.790  34.935   1.269
  306W        W65533  29.088  35.794  13.043
  307W        W65534  20.635  24.465  12.160
  308W        W65535  14.702  25.872   0.846
  309W        W65536  31.431   5.909   1.904
  310W        W65537  28.899  31.002   3.559
  311W        W65538  40.770   3.145   4.258
  312W        W65539  30.873  33.874   0.371
  313W        W65540   2.174   7.549  12.493
  314W        W65541  32.687  32.991   4.315
  315W        W65542   9.811   4.868  13.900
  316W        W65543  33.293  34.368   2.408
  317W        W65544  39.402  32.053   2.443
  318W        W65545   0.668  40.228   2.772
  319W        W65546  22.965  40.424  13.064
  320W        W65547   2.807  24.112   1.787
  321W        W65548  43.025  38.962   1.662
  322W        W65549  38.928  33.131   0.830
  323W        W65550  19.711   8.371  14.511
  324W        W65551   4.216   6.652  11.148
  325W        W65552  17.690  29.538   0.205
  326W        W65553  17.687  33.252   4.073
  327W        W65554  34.476   1.172   0.226
  328W        W65555   1.460  16.176   3.029
  329W        W65556  14.135  14.572   0.794
  330W        W65557   2.474  18.381  11.281
  331W        W65558  36.857  28.726  11.081
  332W        W65559  18.106  25.543   1.767
  333W        W65560  40.011   4.324   2.062
  334W        W65561  22.259  11.879  14.348
  335W        W65562   3.141   0.767   4.844
  336W        W65563  11.171  15.639  11.483
  337W        W65564  33.588   4.355  12.560
  338W        W65565   3.235  39.047   2.654
  339W        W65566  13.274  31.998   2.414
  340W        W65567  24.660  31.042   4.370
  341W        W65568  39.895  21.522   0.490
  342W        W65569  44.997  23.259  12.244
  343W        W65570   6.068   8.785  13.406
  344W        W65571  24.881  13.326  13.452
  345W        W65572  37.529  11.131  14.404
  346W        W65573  43.356  26.931  11.334
  347W        W65574  31.447  44.811   2.588
  348W        W65575   5.970  30.835  13.141
  349W        W65576  43.869  26.618   5.114
  350W        W65577  25.085   9.891  12.807
  351W        W65578  44.241  12.866  13.876
  352W        W65579  13.272  20.622  11.681
  353W        W65580   4.909  18.785  13.468
  354W        W65581  28.118   1.218   0.826
  355W        W65582   0.001  23.032   1.303
  356W        W65583  44.483  19.629   0.243
  357W        W65584   2.696  11.846  13.484
  358W        W65585   1.844  10.579  14.322
  359W        W65586   0.239  23.507   1.964
  360W        W65587  12.331   0.199  12.614
  361W        W65588  25.977  13.819   1.029
  362W        W65589  27.414   8.543  14.016
  363W        W65590  39.836   3.854  12.775
  364W        W65591  44.061  39.726   0.557
  365W        W65592  32.653   6.505  10.023
  366W        W65593  17.322  31.167   1.855
  367W        W65594   8.318  33.336   3.501
  368W        W65595  16.390  16.216   2.231
  369W        W65596  41.328  26.595  10.726
  370W        W65597  35.987  30.183   2.817
  371W        W65598  26.051  32.531   4.533
  372W        W65599  10.694   9.173  13.236
  373W        W65600  12.624  42.744  12.555
  374W        W65601   9.458  26.619   4.196
  375W        W65602  31.437  34.420   0.981
  376W        W65603   6.437  44.846  14.834
  377W        W65604   6.475   2.274  12.524
  378W        W65605  10.162  27.576   1.128
  379W        W65606  40.482  19.854  12.457
  380W        W65607  42.103  18.994   1.161
  381W        W65608  19.248  25.106  11.768
  382W        W65609  30.585  29.992  10.303
  383W        W65610  19.632   3.597   1.403
  384W        W65611  18.403  40.338   0.577
  385W        W65612  35.116  22.724  13.420
  386W        W65613  44.574   0.123  11.601
  387W        W65614   7.928  34.481   0.450
  388W        W65615  17.352  11.762  14.952
  389W        W65616  18.809   3.905   0.951
  390W        W65617  42.848   2.374   0.835
  391W        W65618   4.183  22.211  12.866
  392W        W65619  39.075  33.720  14.354
  393W        W65620  14.030   2.678   5.121
  394W        W65621   7.119  37.402   2.659
  395W        W65622  21.123  40.843   4.640
  396W        W65623  17.309  23.431   3.952
  397W        W65624  33.525  31.323  12.511
  398W        W65625  26.541  33.070  11.727
  399W        W65626  23.052  12.704   2.760
  400W        W65627  19.488  40.072  13.083
  401W        W65628  21.447  20.168   0.870
  402W        W65629  12.790   2.900   2.173
  403W        W65630  27.133  27.617   2.324
  404W        W65631   7.737  37.321   3.721
  405W        W65632  20.555  19.770   1.686
  406W        W65633   1.917  36.636  11.487
  407W        W65634   7.797  19.031  12.516
  408W        W65635  35.812  34.802   4.921
  409W        W65636  36.378  20.558  14.869
  410W        W65637  19.660  11.924  12.797
  411W        W65638  33.745  13.397  11.244
  412W        W65639  44.332  11.184   1.508
  413W        W65640  14.125   5.183  12.030
  414W        W65641  17.681  34.057   4.644
  415W        W65642  42.857  31.562   1.949
  416W        W65643  18.865  30.988   1.198
  417W        W65644   4.087  13.202   0.253
  418W        W65645   1.441  23.038   2.573
  419W        W65646   3.720  23.260   3.065
  420W        W65647  37.461  27.988  12.436
  421W        W65648  40.868  23.119   3.356
  422W        W65649   4.494   8.025  14.413
  423W        W65650  23.366   5.793  11.251
  424W        W65651  14.243  41.284  13.048
  425W        W65652   0.759   6.399   2.263
  426W        W65653  13.340  14.755   4.298
  427W        W65654  41.656  41.787   1.413
  428W        W65655  18.203  14.369  12.100
  429W        W65656  29.675  28.138   2.359
  430W        W65657  29.752  14.293  13.529
  431W        W65658  16.861  35.840   4.517
  432W        W65659   0.381   6.313  13.815
  433W        W65660  42.166  16.790  14.263
  434W        W65661  10.633  43.078  14.261
  435W        W65662  23.607  20.390   1.120
  436W        W65663  40.859  19.024  11.595
  437W        W65664   0.433  10.410  12.413
  438W        W65665   5.839  33.008  13.123
  439W        W65666  22.783  17.565  11.364
  440W        W65667  23.660  24.984   0.465
  441W        W65668  28.476  17.194   1.791
  442W        W65669  41.070  25.659  14.104
  443W        W65670  38.856  19.656  14.550
  444W        W65671  42.018  41.965  13.749
  445W        W65672   4.234   5.285   1.163
  446W        W65673  28.227  41.999   2.242
  447W        W65674  16.313  17.266   0.899
  448W        W65675  30.044  24.499   5.033
  449W        W65676  13.652  32.632  12.354
  450W        W65677  24.040   4.530  10.428
  451W        W65678  44.525  18.280  11.425
  452W        W65679  36.173  44.983  12.489
  453W        W65680  11.902  29.014  10.849
  454W        W65681  14.020  25.000   4.141
  455W        W65682  30.251  17.191  12.677
  456W        W65683   1.785   8.661  10.873
  457W        W65684   4.789  32.566  14.259
  458W        W65685  38.626  35.923  13.588
  459W        W65686  41.996  42.462  14.922
  460W        W65687  25.697  35.468   2.744
  461W        W65688  29.867  37.913  14.478
  462W        W65689  11.748  35.878  14.819
  463W        W65690   6.129  16.094   3.141
  464W        W65691  15.865  36.968  13.316
  465W        W65692  31.385  29.839   2.378
  466W        W65693  13.558  35.119  13.759
  467W        W65694  24.494  35.464  14.330
  468W        W65695  33.980  38.481  14.999
  469W        W65696   4.040  36.992  11.400
  470W        W65697  22.736  39.579   3.150
  471W        W65698  37.097  39.887   1.238
  472W        W65699   2.694  26.048  10.515
  473W        W65700  40.344  36.988   0.248
  474W        W65701  39.330  42.769  12.233
  475W        W65702  39.300   4.606   4.024
  476W        W65703  27.308   2.870  14.096
  477W        W65704  21.622   5.233  14.341
  478W        W65705  25.487  34.643   1.275
  479W        W65706  17.333  32.482  11.510
  480W        W65707  17.466  44.743  11.219
  481W        W65708  32.897  33.990  10.688
  482W        W65709  22.759  22.551   4.509
  483W        W65710   5.421  30.175   1.293
  484W        W65711  38.578  32.043   0.795
  485W        W65712  15.219   2.013  12.633
  486W        W65713  34.403  11.485   3.586
  487W        W65714  19.979  29.128  13.161
  488W        W65715  13.684  22.478   1.794
  489W        W65716  25.025  32.136   4.518
  490W        W65717  34.161  38.822  10.459
  491W        W65718   2.461  27.637   1.229
  492W        W65719   3.889   9.311  13.424
  493W        W65720   5.445  13.081  14.870
  494W        W65721  15.810   0.943  12.844
  495W        W65722  29.206  17.663  12.114
  496W        W65723  12.140  14.284  10.216
  497W        W65724   6.848   4.835  14.352
  498W        W65725  19.034   6.201   2.394
  499W        W65726  27.005   4.203   4.538
  500W        W65727  15.811  37.446  13.888
  501W        W65728  10.446  29.713   5.088
  502W        W65729  29.304  13.803  12.839
  503W        W65730  32.710  15.581  12.132
  504W        W65731  34.818   8.294  12.385
  505W        W65732  22.584  36.912   0.306
  506W        W65733  23.781  23.849  12.198
  507W        W65734  22.208  27.714   3.606
  508W        W65735   8.226  33.368   2.982
  509W        W65736  30.578  38.734  13.329
  510W        W65737  25.087  41.750  12.740
  511W        W65738   6.716   7.782  10.898
  512W        W65739  20.365   4.226   3.587
  513W        W65740   4.686  37.059   1.771
  514W        W65741  18.131  21.084  12.737
  515W        W65742  22.411  42.529   3.884
  516W        W65743  12.433   1.968   3.731
  517W        W65744  27.925  33.477  12.676
  518W        W65745  33.109  14.869   2.820
  519W        W65746   8.292   2.115   3.686
  520W        W65747   9.231  21.081   0.487
  521W        W65748  30.139  10.276   3.729
  522W        W65749  36.047   9.788  12.162
  523W        W65750  36.578  11.630   3.707
  524W        W65751   9.131   9.959   3.893
  525W        W65752  38.079  26.664   2.023
  526W        W65753  21.661   8.088  10.670
  527W        W65754  38.443  20.188   3.380
  528W        W65755   0.547  13.153   2.149
  529W        W65756   8.444  11.579   4.414
  530W        W65757  39.019  17.106   2.556
  531W        W65758  35.980  37.430  12.588
  532W        W65759  10.846   9.569   2.359
  533W        W65760   0.698  21.252   4.356
  534W        W65761  40.788  35.381   0.835
  535W        W65762  44.217  21.249   3.283
  536W        W65763  30.870  39.879   0.925
  537W        W65764  19.062   0.785  12.928
  538W        W65765  43.890   9.943   2.149
  539W        W65766  44.751  16.242   2.800
  540W        W65767  33.687  40.483   2.358
  541W        W65768  26.251  44.320  10.839
  542W        W65769   6.262   2.694   1.672
  543W        W65770  40.281  38.062  13.894
  544W        W65771  16.140  12.318  10.907
  545W        W65772  23.565   3.221   1.213
  546W        W65773   2.202  29.838   2.748
  547W        W65774  10.242  17.493   2.132
  548W        W65775  11.595  38.866   4.229
  549W        W65776  40.578  22.552   4.625
  550W        W65777   5.220   6.622  13.259
  551W        W65778  28.440  24.458  10.471
  552W        W65779  24.211  23.242  11.606
  553W        W65780  16.834  28.594  13.610
  554W        W65781  22.591  10.705   1.504
  555W        W65782  27.096  28.178  11.212
  556W        W65783  43.816  34.020   3.591
  557W        W65784  26.969  41.957  13.413
  558W        W65785  17.804  29.597   2.126
  559W        W65786   7.612  16.026   0.477
  560W        W65787  20.562  44.875  10.992
  561W        W65788  10.269   7.426  11.748
  562W        W65789  24.224  10.340  11.627
  563W        W65790  35.947  40.425  11.950
  564W        W65791  21.582  36.922   1.483
  565W        W65792   7.787   9.357  13.839
  566W        W65793   5.140  19.771   0.779
  567W        W65794  14.209  26.405   2.753
  568W        W65795  13.443  26.925  14.589
  569W        W65796  24.157  36.950  11.627
  570W        W65797  32.104   7.892   2.246
  571W        W65798  40.531  15.090  13.609
  572W        W65799  27.451  12.604  11.537
  573W        W65800   7.967  19.261  10.497
  574W        W65801  37.141  33.660  12.903
  575W        W65802  34.391  38.998  11.682
  576W        W65803  34.982  32.534  14.499
  577W        W65804  29.033  34.639   2.144
  578W        W65805  22.185  12.937   1.087
  579W        W65806  25.719  12.632  13.999
  580W        W65807  37.683  21.268   4.013
  581W        W65808   6.894   6.777  12.506
  582W        W65809  38.518  40.768   4.125
  583W        W65810  21.306  14.901  11.718
  584W        W65811  36.778  19.599   1.799
  585W        W65812  25.279  40.512   4.576
  586W        W65813   8.265  13.646  11.183
  587W        W65814  35.442  13.373  11.668
  588W        W65815   5.710   6.913   0.285
  589W        W65816  21.006  36.040  13.405
  590W        W65817  16.836   3.799   4.239
  591W        W65818   3.831  19.228   5.090
  592W        W65819   7.160  41.607  12.916
  593W        W65820  42.784  44.298   2.280
  594W        W65821   5.353  28.357  13.909
  595W        W65822  10.643  26.029  11.408
  596W        W65823  43.934  29.689   1.759
  597W        W65824  40.483  33.420   0.802
  598W        W65825  33.842  14.746   3.699
  599W        W65826   2.831   4.029   2.008
  600W        W65827  40.617  42.179  12.519
  601W        W65828   3.476   6.250  10.750
  602W        W65829  40.336  39.942  11.306
  603W        W65830   9.652   2.292   2.618
  604W        W65831  44.886  36.281  13.023
  605W        W65832  20.202  23.352   1.226
  606W        W65833  44.523  19.838   3.111
  607W        W65834  19.832   1.457   1.450
  608W        W65835   9.313  43.027  13.656
  609W        W65836  30.291   3.347   4.484
  610W        W65837  40.933   7.554   0.239
  611W        W65838  14.772  37.545   1.280
  612W        W65839  10.982  36.985  13.102
  613W        W65840  33.903  37.436  12.821
  614W        W65841   1.172  38.834   5.087
  615W        W65842  19.158   0.819   2.670
  616W        W65843  10.658   4.683  11.831
  617W        W65844  24.573  40.108   1.374
  618W        W65845  43.272   6.423  10.440
  619W        W65846   4.572  17.393  10.510
  620W        W65847  14.188  25.153   0.408
  621W        W65848  43.296  41.828  13.476
  622W        W65849  16.979  35.945  10.673
  623W        W65850   0.787  15.844   4.305
  624W        W65851  41.677  39.749  12.178
  625W        W65852  24.033  39.327   2.234
  626W        W65853  13.433   0.243   1.439
  627W        W65854  13.270  40.377   4.504
  628W        W65855  25.105   4.924  14.980
  629W        W65856  22.174  12.607  14.822
  630W        W65857  31.486  30.980  10.722
  631W        W65858  39.733  28.567   0.343
  632W        W65859  24.926  16.585  11.577
  633W        W65860  19.952  28.129   3.240
  634W        W65861  10.372  38.459   2.304
  635W        W65862   3.432  10.794  10.775
  636W        W65863  39.020  44.428   3.886
  637W        W65864  21.158  28.059   3.656
  638W        W65865  18.952  13.586   0.576
  639W        W65866  23.031  37.317   1.703
  640W        W65867  40.734  18.891   1.606
  641W        W65868  42.285  28.405   0.383
  642W        W65869  17.955   6.269  13.291
  643W        W65870  21.919   0.038   0.669
  644W        W65871  12.303  20.814   3.694
  645W        W65872  41.860  33.660   2.797
  646W        W65873  30.057  13.888  13.594
  647W        W65874  25.018  37.883  12.027
  648W        W65875  33.216  15.370   2.682
  649W        W65876  23.615  12.324   2.420
  650W        W65877   9.661  42.558   1.406
  651W        W65878  41.965   2.462  12.885
  652W        W65879  10.870  43.074  12.169
  653W        W65880  31.231   2.970   1.354
  654W        W65881   0.474  22.015  14.443
  655W        W65882  26.532   9.934   0.019
  656W        W65883   4.720  20.646   2.897
  657W        W65884  38.566   9.560   3.575
  658W        W65885   8.312   8.649  12.878
  659W        W65886  15.069  44.418  13.598
  660W        W65887  16.667  11.163   0.022
  661W        W65888  33.117  42.789  11.604
  662W        W65889  39.156  23.826  13.780
  663W        W65890   3.868  32.079   1.188
  664W        W65891   5.755  28.635   0.879
  665W        W65892   9.807  22.870  11.052
  666W        W65893  28.737  14.059  14.351
  667W        W65894  16.273  14.062  12.840
  668W        W65895  19.875  28.222  12.002
  669W        W65896  40.299  27.562  11.943
  670W        W65897  31.414  27.131   1.586
  671W        W65898   8.836  31.964  14.687
  672W        W65899  18.663   1.736  14.472
  673W        W65900  14.520  14.879  14.161
  674W        W65901  32.432  38.289  13.474
  675W        W65902   8.673  13.378   1.987
  676W        W65903  34.398  31.153  12.957
  677W        W65904   8.358   3.255   0.006
  678W        W65905  13.361  16.682   4.681
  679W        W65906  19.650  17.256   2.302
  680W        W65907  31.511  13.937   1.932
  681W        W65908  40.797  38.921  14.954
  682W        W65909  21.516  44.837   3.272
  683W        W65910  30.916   6.740  12.409
  684W        W65911  30.218  42.000   1.387
  685W        W65912  42.470  42.567  13.944
  686W        W65913  43.764   9.811  13.490
  687W        W65914  24.399  26.012   0.219
  688W        W65915  37.178  11.133   0.312
  689W        W65916   7.428  10.386  12.358
  690W        W65917  14.099  14.335   4.188
  691W        W65918  13.796  23.022   1.252
  692W        W65919   8.444   8.126   0.796
  693W        W65920  41.857  43.030  13.308
  694W        W65921   9.135  39.791  14.851
  695W        W65922  43.457   9.937   0.903
  696W        W65923  27.852  32.099  11.561
  697W        W65924  38.402  17.176   2.346
  698W        W65925  21.789  27.625   4.411
  699W        W65926  10.411   3.458   0.835
  700W        W65927   8.836  17.831  11.491
  701W        W65928  13.644   9.651   3.733
  702W        W65929  29.424  33.560   2.313
  703W        W65930  24.191  33.181   1.475
  704W        W65931   0.867  13.142   1.135
  705W        W65932  24.934  18.095  11.547
  706W        W65933   5.561  18.218   4.184
  707W        W65934  34.511  44.661  11.673
  708W        W65935  31.382  42.011  12.019
  709W        W65936   6.825   9.663   2.190
  710W        W65937  32.481   5.251  13.873
  711W        W65938  39.034   5.394  14.869
  712W        W65939  24.071  20.584   0.969
  713W        W65940  25.818  30.692  11.305
  714W        W65941   3.313  21.868   2.101
  715W        W65942  27.931  20.592   1.217
  716W        W65943  10.196  41.990  13.140
  717W        W65944  27.453  38.925   2.261
  718W        W65945  15.940  11.608  11.167
  719W        W65946  10.735   1.459   1.389
  720W        W65947   5.451   8.326  12.327
  721W        W65948  39.157   7.696  12.600
  722W        W65949   6.250  43.996  10.078
  723W        W65950   9.832  26.586  14.018
  724W        W65951  31.901  32.736   4.498
  725W        W65952  23.234  23.244   3.777
  726W        W65953  41.878   0.773  14.791
  727W        W65954  25.016  24.780   1.848
  728W        W65955  37.459   2.555   0.847
  729W        W65956   6.691  25.236  11.167
  730W        W65957  44.446  41.825  10.936
  731W        W65958  42.496  41.608  12.878
  732W        W65959  18.794  29.712   3.207
  733W        W65960  19.174  18.284   0.509
  734W        W65961  12.211  36.128   0.329
  735W        W65962  23.743  28.416   4.426
  736W        W65963  35.378  11.332   3.279
  737W        W65964   8.759  11.857  11.486
  738W        W65965  28.566  26.639   5.013
  739W        W65966   2.008   0.480  12.681
  740W        W65967   2.411  31.015   4.830
  741W        W65968  36.496  37.128  10.672
  742W        W65969  43.868  30.928   1.358
  743W        W65970  19.474  29.101   0.921
  744W        W65971   4.851  29.225  11.131
  745W        W65972  34.576  34.684  14.004
  746W        W65973  32.594  22.557   1.004
  747W        W65974  22.526  10.436  13.519
  748W        W65975  34.384  27.475   4.657
  749W        W65976  44.301  33.804  14.444
  750W        W65977  33.631  22.654   0.863
  751W        W65978  38.769  11.217  11.961
  752W        W65979   6.919  39.899  12.084
  753W        W65980  28.412  38.903  10.540
  754W        W65981  14.684  20.933  12.103
  755W        W65982   0.455  19.570  12.173
  756W        W65983   5.223  41.328   1.457
  757W        W65984   7.711  23.272  14.985
  758W        W65985  14.279  15.185  12.953
  759W        W65986  10.459  23.998   3.955
  760W        W65987  28.715  33.202   2.152
  761W        W65988  19.574  39.201   3.444
  762W        W65989  18.753   3.689   0.337
  763W        W65990  22.706  35.075  10.734
  764W        W65991   5.753  29.447   3.610
  765W        W65992  43.462  19.026   0.035
  766W        W65993   7.895   6.269   0.681
  767W        W65994  30.984  42.505   1.926
  768W        W65995   5.992  30.565  14.724
  769W        W65996   1.194  20.876   0.874
  770W        W65997  39.533   2.417   4.054
  771W        W65998  10.324  15.161   2.561
  772W        W65999  27.535  12.801   1.054
  773W        W66000  23.364  17.667   4.588
  774W        W66001  28.599  14.267  14.797
  775W        W66002  41.426   2.292  14.394
  776W        W66003  35.486  36.664  11.649
  777W        W66004  15.143  26.953  13.094
  778W        W66005  28.111  21.444  14.392
  779W        W66006  40.030  16.990   2.376
  780W        W66007   4.351  20.169   1.328
  781W        W66008  25.876   9.204  11.064
  782W        W66009  32.864   4.914   1.282
  783W        W66010   2.493  28.906   3.048
  784W        W66011  35.759  28.458   4.226
  785W        W66012  25.600  24.718   4.232
  786W        W66013  32.174  20.101   4.262
  787W        W66014  17.672   7.787   2.115
  788W        W66015  26.476  42.417   3.281
  789W        W66016  23.655   5.721  12.109
  790W        W66017   2.470  14.713  13.389
  791W        W66018   1.198  28.663   2.669
  792W        W66019  17.974  29.154   0.834
  793W        W66020   9.382  16.870   1.257
  794W        W66021  14.914  38.502   0.930
  795W        W66022  22.651   5.110  10.829
  796W        W66023  17.869  40.443   0.686
  797W        W66024   1.694  12.685  11.084
  798W        W66025  20.557  36.568  14.284
  799W        W66026  28.519   7.322  10.707
  800W        W66027  22.170   5.972  10.730
  801W        W66028  10.323  16.277   1.457
  802W        W66029  32.972  25.551  10.942
  803W        W66030  28.124  11.481  14.469
  804W        W66031  21.496  31.941  10.502
  805W        W66032  38.046  19.565   4.677
  806W        W66033   9.279  21.038   1.015
  807W        W66034  29.447  20.177  12.993
  808W        W66035  24.841  11.933   1.820
  809W        W66036  31.461  32.480  10.648
  810W        W66037   5.213  16.714  13.204
  811W        W66038  24.175  27.549  12.052
  812W        W66039  39.367  30.698   3.873
  813W        W66040  24.736  39.137   3.745
  814W        W66041  22.744   6.344   4.662
  815W        W66042  12.616  10.283  12.419
  816W        W66043  23.958   3.647  14.003
  817W        W66044  25.622  16.897   1.199
  818W        W66045  37.770  37.321  10.045
  819W        W66046   5.152  38.033  12.865
  820W        W66047   1.788   0.310   3.270
  821W        W66048   2.938  40.854   1.556
  822W        W66049  15.277  21.548  12.897
  823W        W66050  10.496  14.283  12.078
  824W        W66051  32.141  17.978  14.276
  825W        W66052  31.053  21.390  14.419
  826W        W66053   2.976  13.139  11.953
  827W        W66054  13.428  25.197   2.757
  828W        W66055   8.148  23.596  14.882
  829W        W66056  29.856  12.240  14.072
  830W        W66057   5.490  38.481  13.974
  831W        W66058  37.224  26.834  14.424
  832W        W66059  33.991  17.735  13.595
  833W        W66060  44.424  38.130  14.186
  834W        W66061   3.651   1.888   9.761
  835W        W66062  37.275  36.341  11.497
  836W        W66063  25.854  40.361   3.291
  837W        W66064  31.912  38.503  12.307
  838W        W66065  32.122  18.281  10.835
  839W        W66066  43.042  25.454  14.659
  840W        W66067  15.125  17.661  13.413
  841W        W66068  44.227   1.181  12.152
  842W        W66069  25.550  17.742   2.753
  843W        W66070  20.400   9.370   4.972
  844W        W66071  19.970  20.858   4.384
  845W        W66072  20.150   1.802  11.634
  846W        W66073  26.635  37.505  13.601
  847W        W66074  14.063  27.528   1.007
  848W        W66075  15.654  23.492   4.097
  849W        W66076  30.888   4.960  12.310
  850W        W66077  16.784  44.621   4.122
  851W        W66078  39.638   6.773   2.066
  852W        W66079  28.957  19.883   3.012
  853W        W66080  38.793  35.942   3.180
  854W        W66081  11.406  34.374  14.937
  855W        W66082  12.816  16.522  11.941
  856W        W66083  17.811   3.942  13.946
  857W        W66084  44.860  18.599   2.155
  858W        W66085  36.059  40.023   4.529
  859W        W66086  35.131  31.604  12.414
  860W        W66087   4.828   2.033  13.009
  861W        W66088  13.550  30.021  10.687
  862W        W66089   7.595  16.154  14.622
  863W        W66090  12.843  26.762   3.594
  864W        W66091   1.484  37.872  13.860
  865W        W66092  16.764  39.364  14.453
  866W        W66093  38.954  30.362   4.076
  867W        W66094   1.417  32.365   2.331
  868W        W66095   8.742  10.157  13.779
  869W        W66096  33.068   2.798  12.445
  870W        W66097   4.861  19.248  12.595
  871W        W66098  17.654  37.999  14.325
  872W        W66099  23.496  14.838   3.665
  873W        W66100  11.591  13.225  12.860
  874W        W66101   1.340   2.891  11.681
  875W        W66102   0.398  26.579   2.424
  876W        W66103  14.348  27.229  12.419
  877W        W66104  37.318  38.575   3.245
  878W        W66105  22.701  14.405   3.267
  879W        W66106  33.369  38.310   0.563
  880W        W66107  22.438   7.403   2.665
  881W        W66108  32.191   6.941   3.247
  882W        W66109  18.754   7.642  11.522
  883W        W66110  40.761   2.417   0.618
  884W        W66111  28.795   0.900   3.611
  885W        W66112   7.152  25.876   0.270
  886W        W66113  17.735  31.893   4.469
  887W        W66114  18.197  23.576  14.353
  888W        W66115  15.974  25.597  13.735
  889W        W66116  13.327  13.321   3.285
  890W        W66117  12.811  35.495   4.128
  891W        W66118  41.560  17.196  12.912
  892W        W66119  29.009  17.513  14.800
  893W        W66120  43.599  40.808  13.966
  894W        W66121  17.398  11.669  12.579
  895W        W66122  24.533  27.084   2.046
  896W        W66123  20.083  15.414   0.993
  897W        W66124  35.808   8.432   4.707
  898W        W66125  10.679  41.259  12.625
  899W        W66126  25.218  36.134   0.628
  900W        W66127  39.045  10.808   0.469
  901W        W66128  16.286  36.970   4.181
  902W        W66129  34.067   5.684  11.171
  903W        W66130   4.716  34.632  12.292
  904W        W66131  42.318  14.544  14.873
  905W        W66132  20.463  33.049  14.712
  906W        W66133  22.454  28.678  13.454
  907W        W66134  42.115  32.992   0.568
  908W        W66135  42.739   8.977  12.093
  909W        W66136   1.317  44.865  13.415
  910W        W66137  31.875   6.634   3.800
  911W        W66138  14.123  37.060   3.879
  912W        W66139  14.614  19.594  13.484
  913W        W66140  40.260  43.500   1.682
  914W        W66141  27.480   9.344   3.237
  915W        W66142  40.566  12.223   2.862
  916W        W66143  14.321   2.032  10.684
  917W        W66144  37.342  28.147  11.437
  918W        W66145   6.266   4.348  14.758
  919W        W66146   0.846  29.052  14.343
  920W        W66147  23.760  28.557   3.164
  921W        W66148  35.279  31.264   0.749
  922W        W66149  34.475  38.553   1.659
  923W        W66150   0.718  14.365  13.765
  924W        W66151  30.147   9.140   1.503
  925W        W66152  10.092  11.412   2.823
  926W        W66153  21.192   9.005   2.201
  927W        W66154  34.534  21.702   3.673
  928W        W66155  20.305   9.499  12.219
  929W        W66156  36.966   8.715  11.948
  930W        W66157   5.780  25.693  11.979
  931W        W66158  40.404  36.393  14.799
  932W        W66159  32.450  43.169  12.727
  933W        W66160  17.481  26.159  11.963
  934W        W66161  15.099  13.226  11.572
  935W        W66162  20.056  37.064   4.793
  936W        W66163  41.850  41.271   3.133
  937W        W66164  14.224  31.380   4.068
  938W        W66165  23.511   5.665   2.039
  939W        W66166  12.896   7.415  11.979
  940W        W66167  34.588   1.195   1.661
  941W        W66168  39.610   4.220   4.116
  942W        W66169  19.637  40.210   3.149
  943W        W66170  23.236  34.717   4.758
  944W        W66171  14.706  30.146  14.495
  945W        W66172  13.397  18.815   2.827
  946W        W66173  38.069  23.180  13.025
  947W        W66174  10.156   0.357   3.756
  948W        W66175  18.213  12.005  14.770
  949W        W66176  15.612  44.780   3.685
  950W        W66177  42.954  43.529   0.440
  951W        W66178  28.337  15.120  11.730
  952W        W66179   1.765  40.802   3.220
  953W        W66180  17.053  24.814  13.503
  954W        W66181  40.329  14.098   1.883
  955W        W66182   6.195   4.963   0.954
  956W        W66183  38.056  29.980  13.131
  957W        W66184  11.324  15.505  10.169
  958W        W66185  35.356  23.314   1.412
  959W        W66186  38.390  22.262  11.226
  960W        W66187  41.062  31.994  13.256
  961W        W66188  26.747  21.184   0.038
  962W        W66189   5.794  42.230   0.296
  963W        W66190  42.909  44.213   4.568
  964W        W66191  37.221  16.978   5.096
  965W        W66192  13.719   7.235  10.803
  966W        W66193  15.839  13.136  13.481
  967W        W66194  44.176  44.643  14.982
  968W        W66195  15.611  37.396  12.470
  969W        W66196  27.620  25.744  14.351
  970W        W66197  43.746  35.908   2.866
  971W        W66198  10.223  21.258   4.214
  972W        W66199   1.439  10.368  13.481
  973W        W66200   9.629  33.003   4.786
  974W        W66201  20.229  10.341  10.744
  975W        W66202  43.744  15.334  10.488
  976W        W66203   6.341   2.465   1.190
  977W        W66204   7.461  22.566  13.026
  978W        W66205  12.970  22.026  14.316
  979W        W66206   9.913  30.489  10.311
  980W        W66207  10.387   6.128  14.487
  981W        W66208   0.276  43.071   1.204
  982W        W66209  41.743  22.666   2.452
  983W        W66210  37.971  21.658   3.744
  984W        W66211  21.458  22.124   2.327
  985W        W66212  16.269  30.912  12.984
  986W        W66213  25.359  12.826  11.655
  987W        W66214  25.908  29.869  11.072
  988W        W66215  19.138  15.757   4.636
  989W        W66216  15.988  44.064   3.371
  990W        W66217  15.683   2.995  13.978
  991W        W66218  15.715   8.768   3.805
  992W        W66219  39.023  29.564  13.802
  993W        W66220  29.169  44.854  10.758
  994W        W66221  13.146  35.999   2.218
  995W        W66222  12.417  18.589  13.104
  996W        W66223  42.458  37.165   2.174
  997W        W66224  25.598  10.774  14.977
  998W        W66225  12.353   9.252   0.213
  999W        W66226  23.090  21.309   2.301
 1000W        W66227  33.036  39.854  13.028
 1001W        W66228  35.053  27.867   5.251
 1002W        W66229  35.013  11.370   4.742
 1003W        W66230  17.385   1.820  11.395
 1004W        W66231  25.969   6.890  10.752
 1005W        W66232   1.897  17.111  14.725
 1006W        W66233   4.151  33.759   1.183
 1007W        W66234  43.041   4.959  11.488
 1008W        W66235  39.107  33.435   2.335
 1009W        W66236  42.715  16.237   4.819
 1010W        W66237   5.715   5.656  12.424
 1011W        W66238  24.463  17.199   0.870
 1012W        W66239  39.858  40.328  14.490
 1013W        W66240  31.123  19.134  12.361
 1014W        W66241   2.215  43.275   1.460
 1015W        W66242   3.155  31.892  12.468
 1016W        W66243  31.560  21.717   3.629
 1017W        W66244  18.535  20.643   2.808
 1018W        W66245  22.802   9.275   3.455
 1019W        W66246  20.607  11.122  10.548
 1020W        W66247  27.355  19.327  11.047
 1021W        W66248  25.730  25.250   9.709
 1022W        W66249   3.915  21.179   5.003
 1023W        W66250  12.330  32.666   1.242
 1024W        W66251  11.362  15.417   2.426
 1025W        W66252  17.057  10.312   1.856
 1026W        W66253   9.463  16.808   4.255
 1027W        W66254  44.972  25.151   1.052
 1028W        W66255   2.177  17.875   0.291
 1029W        W66256  28.727  10.136  12.014
 1030W        W66257  42.198  13.199   4.564
 1031W        W66258  15.116  40.999   1.443
 1032W        W66259  26.470   8.989  10.574
 1033W        W66260  11.215   0.009  11.887
 1034W        W66261   5.906  17.112  11.172
 1035W        W66262  29.616  33.302   1.920
 1036W        W66263  34.097   8.326   2.837
 1037W        W66264  13.687  44.027   2.221
 1038W        W66265  29.163   6.765  13.237
 1039W        W66266  30.280  42.574   4.166
 1040W        W66267   3.631  11.073   2.306
 1041W        W66268  42.288  33.767   2.512
 1042W        W66269   6.011   6.787   1.780
 1043W        W66270   5.676  15.095  12.448
 1044W        W66271  10.050   9.428   0.445
 1045W        W66272  23.610  22.261   2.679
 1046W        W66273  23.241  43.275   1.334
 1047W        W66274  22.326  25.662   3.375
 1048W        W66275   5.684  20.567   4.804
 1049W        W66276  22.760  15.176   1.276
 1050W        W66277  40.573   4.852   4.272
 1051W        W66278  35.305  26.147  10.974
 1052W        W66279  31.628  37.024  12.668
 1053W        W66280   8.114  20.603   1.280
 1054W        W66281  35.941  22.478   0.897
 1055W        W66282   5.262   8.558  13.356
 1056W        W66283  42.868  21.793  13.904
 1057W        W66284  23.474   0.369  12.860
 1058W        W66285  27.367  17.622  13.329
 1059W        W66286  26.079  10.315  11.712
 1060W        W66287  10.396  30.450  12.019
 1061W        W66288  13.693   3.939   4.146
 1062W        W66289  35.892  16.069  12.811
 1063W        W66290   1.010  25.355   9.829
 1064W        W66291  13.637  22.509  12.055
 1065W        W66292  28.170   4.346  14.974
 1066W        W66293  25.652  17.225  12.875
 1067W        W66294  13.243  17.038   4.157
 1068W        W66295  23.997   1.278   0.931
 1069W        W66296  19.801  21.369   5.129
 1070W        W66297   1.066   2.344  13.293
 1071W        W66298  19.094   4.667   0.317
 1072W        W66299  19.653   8.136   3.045
 1073W        W66300  20.174  10.673   3.368
 1074W        W66301  15.295   3.014  12.638
 1075W        W66302   8.099  14.311  11.514
 1076W        W66303  27.521   0.994   4.692
 1077W        W66304  27.970  43.422   0.345
 1078W        W66305  20.937  11.686   1.603
 1079W        W66306  30.541  34.253   0.582
 1080W        W66307  17.367  15.200  10.736
 1081W        W66308  16.502  26.738  12.519
 1082W        W66309  16.860   2.504  10.444
 1083W        W66310   2.319  25.642  14.866
 1084W        W66311   2.586   0.084   4.565
 1085W        W66312  25.668  10.561  13.890
 1086W        W66313  29.436  40.919  13.446
 1087W        W66314  21.789  24.242   0.434
 1088W        W66315   8.096   0.015  13.552
 1089W        W66316  21.664  17.613  14.784
 1090W        W66317  11.005  35.894   4.345
 1091W        W66318  30.352  16.153   1.757
 1092W        W66319  40.234  29.297   0.305
 1093W        W66320   3.924  30.746   4.990
 1094W        W66321   4.754  23.739  10.717
 1095W        W66322  37.953  39.087   1.704
 1096W        W66323   3.462  40.578  13.701
 1097W        W66324  28.614  32.981  11.701
 1098W        W66325   9.324   9.195  10.771
 1099W        W66326  22.882  10.095  12.939
 1100W        W66327  31.054  27.526   0.763
 1101W        W66328  27.934   0.576  11.438
 1102W        W66329  39.975  17.224   4.554
 1103W        W66330  34.036  30.902   0.482
 1104W        W66331   6.656  38.318   3.286
 1105W        W66332   1.906   8.418  14.310
 1106W        W66333  40.925  30.058  13.843
 1107W        W66334  28.335  42.913   2.709
 1108W        W66335  28.116  36.291   4.525
 1109W        W66336   8.396  19.222  14.868
 1110W        W66337  36.909  25.985  13.055
 1111W        W66338  15.539  23.692  13.427
 1112W        W66339  20.647   5.741   1.226
 1113W        W66340  12.732  14.332  11.871
 1114W        W66341  29.678  30.092  13.447
 1115W        W66342  33.305  18.678   4.623
 1116W        W66343   0.938  38.372  12.692
 1117W        W66344  20.695   7.244  11.374
 1118W        W66345  34.184  23.685  14.909
 1119W        W66346  19.784   1.193  11.189
 1120W        W66347  32.354  19.544  12.366
 1121W        W66348  28.985   4.048   4.468
 1122W        W66349  17.736  28.905   4.162
 1123W        W66350   6.854  39.781   0.422
 1124W        W66351  12.707  38.079   0.809
 1125W        W66352  34.362   2.191   0.453
 1126W        W66353  14.989  27.672  13.917
 1127W        W66354  23.107  32.831   4.290
 1128W        W66355  33.169  34.998   0.177
 1129W        W66356  21.866  23.326   1.323
 1130W        W66357  30.007   5.769  13.982
 1131W        W66358  32.531  10.365  14.327
 1132W        W66359  35.581  32.854  10.604
 1133W        W66360   6.932  17.028  12.410
 1134W        W66361  28.954   3.535   1.240
 1135W        W66362  25.113  28.888   0.738
 1136W        W66363  20.308   8.460   0.401
 1137W        W66364  12.283   2.900  12.397
 1138W        W66365  36.957  39.870  12.382
 1139W        W66366  18.175  41.765  14.439
 1140W        W66367  14.118  11.723  12.130
 1141W        W66368  15.871  21.478   1.763
 1142W        W66369   7.735  21.038   2.388
 1143W        W66370  35.996   7.341  12.062
 1144W        W66371  33.789  29.991   0.815
 1145W        W66372  17.845  39.490  10.590
 1146W        W66373  28.005   9.330  11.254
 1147W        W66374  40.376  11.889  14.531
 1148W        W66375  30.178  29.186  11.541
 1149W        W66376  27.018  10.703   0.498
 1150W        W66377  37.413  23.682  13.350
 1151W        W66378  12.896  44.466  14.154
 1152W        W66379  18.120  44.239  11.235
 1153W        W66380  44.504  42.083   0.483
 1154W        W66381  34.339   3.659   0.889
 1155W        W66382  42.536  21.057  14.441
 1156W        W66383  31.598  10.472   2.069
 1157W        W66384  28.899  21.533   3.260
 1158W        W66385  10.396  28.877   1.967
 1159W        W66386   8.626  22.659  12.208
 1160W        W66387  21.437  39.828   3.478
 1161W        W66388   5.187   7.338   2.345
 1162W        W66389  38.510  18.721   4.650
 1163W        W66390  43.246  17.759   4.104
 1164W        W66391  19.789  30.674  12.558
 1165W        W66392  25.034  34.006   0.718
 1166W        W66393  18.860  42.695   4.986
 1167W        W66394  41.554  27.092  14.214
 1168W        W66395  27.865  38.422   0.414
 1169W        W66396  21.577  17.019   9.972
 1170W        W66397  35.365  25.446  12.352
 1171W        W66398  26.955  21.410  12.486
 1172W        W66399  34.569  13.568  11.585
 1173W        W66400   3.344  15.941   4.191
 1174W        W66401  17.344  22.499   4.310
 1175W        W66402  31.829  17.593  12.509
 1176W        W66403  30.481  35.788  11.247
 1177W        W66404  38.569   4.028  11.360
 1178W        W66405  19.049  11.683   3.735
 1179W        W66406  32.116  33.059   1.867
 1180W        W66407  37.634   8.272   0.866
 1181W        W66408   7.394  25.148  13.552
 1182W        W66409  40.744  25.158   0.742
 1183W        W66410  16.027  28.197  14.475
 1184W        W66411  13.820  12.590  12.679
 1185W        W66412  18.925  12.092  11.189
 1186W        W66413  19.022   8.561   1.105
 1187W        W66414  24.219  15.611  10.172
 1188W        W66415  28.766   6.866  13.551
 1189W        W66416  38.005   1.644   4.668
 1190W        W66417  40.272  17.261   5.027
 1191W        W66418  31.128  10.734   2.837
 1192W        W66419  26.921  23.119  14.412
 1193W        W66420   7.222  44.827   4.678
 1194W        W66421  36.362  20.301  11.280
 1195W        W66422   6.235  15.665  13.406
 1196W        W66423   5.538  35.729   1.794
 1197W        W66424   1.276   2.176   2.129
 1198W        W66425  29.633   2.532  14.861
 1199W        W66426  17.667  30.809  11.802
 1200W        W66427   1.497  18.572   3.160
 1201W        W66428   0.810   9.299  13.207
 1202W        W66429  11.402  39.160   1.967
 1203W        W66430   9.886  16.826  12.824
 1204W        W66431  41.377  38.893   4.896
 1205W        W66432  33.455   3.161  14.354
 1206W        W66433  44.847  17.076   9.901
 1207W        W66434  36.281   3.265   3.710
 1208W        W66435  13.827  10.151  14.480
 1209W        W66436   5.037  27.551   0.364
 1210W        W66437  32.402  19.043   3.686
 1211W        W66438  33.292  29.209  13.349
 1212W        W66439  16.886  25.549   3.623
 1213W        W66440  35.017  40.785  10.459
 1214W        W66441   4.423  43.982  13.501
 1215W        W66442   9.733   3.987  13.104
 1216W        W66443  37.809  37.146  11.168
 1217W        W66444  21.368  15.680  13.675
 1218W        W66445  21.796  25.508   0.738
 1219W        W66446  10.443   4.463  13.370
 1220W        W66447  24.058  20.613  11.083
 1221W        W66448  28.107   9.611   2.244
 1222W        W66449  12.222   8.194  11.638
 1223W        W66450  17.526  17.152   2.353
 1224W        W66451   3.665  11.755  14.912
 1225W        W66452   0.425  38.447  12.553
 1226W        W66453   4.413   1.820  11.929
 1227W        W66454  41.482   5.896   2.996
 1228W        W66455  22.791  22.330  12.741
 1229W        W66456  31.507  11.380   4.538
 1230W        W66457   0.422  15.340  13.968
 1231W        W66458  14.907  44.983  12.420
 1232W        W66459  29.038  12.360   1.324
 1233W        W66460  39.800  19.773  11.605
 1234W        W66461  42.441  24.537  13.582
 1235W        W66462  19.693  35.003   3.236
 1236W        W66463  22.363  43.484  12.943
 1237W        W66464  25.543  38.930  11.567
 1238W        W66465  17.736   6.911  12.228
 1239W        W66466  27.680   1.244  13.897
 1240W        W66467  10.018   8.361   1.546
 1241W        W66468  36.868  31.458   0.938
 1242W        W66469  24.225  21.649  13.650
 1243W        W66470   5.497  24.055  12.340
 1244W        W66471  12.810   8.245  10.565
 1245W        W66472  42.147  38.853  12.996
 1246W        W66473  36.043  11.362  14.152
 1247W        W66474  32.183  17.470  14.369
 1248W        W66475  26.611  10.971   1.782
 1249W        W66476   4.972  30.067   2.220
 1250W        W66477  21.189   1.181  10.008
 1251W        W66478  44.923  43.401  12.207
 1252W        W66479  33.914  25.700   4.569
 1253W        W66480  25.267  10.139   0.377
 1254W        W66481  27.075   7.879  12.242
 1255W        W66482  22.457  44.888   1.944
 1256W        W66483  28.076  18.538  13.440
 1257W        W66484  26.820  19.987   2.275
 1258W        W66485   5.316  23.635  12.102
 1259W        W66486  37.468  21.690   1.312
 1260W        W66487   0.922  22.935   1.225
 1261W        W66488  15.745  41.907  11.008
 1262W        W66489  21.197  43.018  14.783
 1263W        W66490  34.551  19.045  12.451
 1264W        W66491  12.723   7.305   1.868
 1265W        W66492  16.220  33.257   4.096
 1266W        W66493  23.876  44.253   3.268
 1267W        W66494  11.212  43.812  13.864
 1268W        W66495  11.139  34.750  14.525
 1269W        W66496  44.494  40.979  10.275
 1270W        W66497  44.014  33.419  13.317
 1271W        W66498   3.328   4.312   4.547
 1272W        W66499  24.549  12.668   4.290
 1273W        W66500  25.610  21.587  13.260
 1274W        W66501  21.661  14.686  14.886
 1275W        W66502  27.540  33.186  13.443
 1276W        W66503  33.512  44.466  12.930
 1277W        W66504  41.557  43.432  12.585
 1278W        W66505  38.597  22.228   4.186
 1279W        W66506  21.537  14.756  12.836
 1280W        W66507  24.827   3.482   3.006
 1281W        W66508  15.797  33.891  14.314
 1282W        W66509  22.109  34.894   0.673
 1283W        W66510  10.069  16.021   2.334
 1284W        W66511  40.029  34.354  10.556
 1285W        W66512  20.327   6.144  12.839
 1286W        W66513  36.098  27.895  13.828
 1287W        W66514  32.621  27.521  12.476
 1288W        W66515   0.772  42.539  14.343
 1289W        W66516  23.847  36.941  13.891
 1290W        W66517   6.458  19.835   1.355
 1291W        W66518  41.326   7.125   4.920
 1292W        W66519  38.452  33.508  10.646
 1293W        W66520   7.092  32.367   4.171
 1294W        W66521   4.584  27.425  13.494
 1295W        W66522   5.795  37.411  11.003
 1296W        W66523  22.220  25.620  10.789
 1297W        W66524  25.210  31.022   2.736
 1298W        W66525  36.121  28.088   3.026
 1299W        W66526  25.337  16.365  12.856
 1300W        W66527   6.579  22.804   5.021
 1301W        W66528   3.615   5.850   0.038
 1302W        W66529  30.774  14.388  13.481
 1303W        W66530  44.472  33.021   3.811
 1304W        W66531  15.364  14.786  11.583
 1305W        W66532  37.880   2.233  11.552
 1306W        W66533  41.600   1.455   1.654
 1307W        W66534   0.407   7.516  12.314
 1308W        W66535  11.516  41.356   1.081
 1309W        W66536  26.429  10.660   0.559
 1310W        W66537  41.898  19.350   0.744
 1311W        W66538  16.626  27.301   0.522
 1312W        W66539  13.215  34.187   0.284
 1313W        W66540  32.093  37.054   1.941
 1314W        W66541  32.580  11.175  14.253
 1315W        W66542  20.947  27.884   4.104
 1316W        W66543  37.577  27.225   1.136
 1317W        W66544  35.085  33.453   3.836
 1318W        W66545  35.570  19.574  11.098
 1319W        W66546  19.291   9.805  13.349
 1320W        W66547  36.810  39.378   2.233
 1321W        W66548  24.038  30.340  13.386
 1322W        W66549  16.059  14.174  10.629
 1323W        W66550  29.620  21.482  13.179
 1324W        W66551  19.852  42.928  11.976
 1325W        W66552  16.328  40.191  14.838
 1326W        W66553  24.098   6.440   5.129
 1327W        W66554   2.294  38.350  10.728
 1328W        W66555  35.797  19.483  10.655
 1329W        W66556  15.050  15.343  10.776
 1330W        W66557  30.919  24.985   4.594
 1331W        W66558  25.941  22.772   2.867
 1332W        W66559   9.126   9.391   5.133
 1333W        W66560  32.587   1.273   0.179
 1334W        W66561  30.156   3.844  11.697
 1335W        W66562   2.700  32.507   0.345
 1336W        W66563  14.333  11.217  12.391
 1337W        W66564   7.266  11.753  11.951
 1338W        W66565  44.967  39.795  14.465
 1339W        W66566  39.448  44.149  11.956
 1340W        W66567   8.716  15.298  12.030
 1341W        W66568   1.699  19.158   1.794
 1342W        W66569   9.703  13.275  12.346
 1343W        W66570  29.631  20.118  12.002
 1344W        W66571  26.743  30.652  11.822
 1345W        W66572  28.953  23.024   0.081
 1346W        W66573  25.576  17.518   3.228
 1347W        W66574  33.589  39.341   1.358
 1348W        W66575   9.527  31.484  14.441
 1349W        W66576  31.943   6.828   1.382
 1350W        W66577  15.227  41.304   2.279
 1351W        W66578  18.313  33.561   0.568
 1352W        W66579  15.161  16.178   0.850
 1353W        W66580  28.982  43.756   4.165
 1354W        W66581   2.597   6.454  14.514
 1355W        W66582  22.875  10.219   3.330
 1356W        W66583  20.660  44.150   1.398
 1357W        W66584  28.964  21.780   3.700
 1358W        W66585  44.378  15.830  14.895
 1359W        W66586  29.235   7.271  13.331
 1360W        W66587  20.336   4.148  12.094
 1361W        W66588  39.164   5.704  11.735
 1362W        W66589  39.668  35.410  14.748
 1363W        W66590  21.244  30.930  13.865
 1364W        W66591  27.973   3.834  12.842
 1365W        W66592  18.147  14.573   3.711
 1366W        W66593   0.020  17.054  13.020
 1367W        W66594  28.208   7.374  14.977
 1368W        W66595   5.741  30.008  12.979
 1369W        W66596  25.010  11.232   2.389
 1370W        W66597  19.698  29.477   1.271
 1371W        W66598  22.154   3.575  11.068
 1372W        W66599   0.286  10.432  11.906
 1373W        W66600  39.733  33.927  10.487
 1374W        W66601  13.083  25.028  11.266
 1375W        W66602   3.846  18.663   3.649
 1376W        W66603  37.422  16.728   0.382
 1377W        W66604   1.051  44.549   0.947
 1378W        W66605  36.336  27.706   0.068
 1379W        W66606  33.255  22.228  13.985
 1380W        W66607  39.611   7.773  13.548
 1381W        W66608  44.590   5.665   4.179
 1382W        W66609   9.801  19.374   0.818
 1383W        W66610  18.757   9.870   4.674
 1384W        W66611   1.951   1.928   4.297
 1385W        W66612  10.167  25.202  10.970
 1386W        W66613  38.126  44.205  13.388
 1387W        W66614   1.091  20.672  11.205
 1388W        W66615  22.703  21.070  10.931
 1389W        W66616  40.711  21.277   1.970
 1390W        W66617  18.028  32.959  11.865
 1391W        W66618  11.046  33.022   3.091
 1392W        W66619  41.305  11.105  14.250
 1393W        W66620  15.936  12.140   2.645
 1394W        W66621   3.183  21.377   3.482
 1395W        W66622  35.848  36.805  10.823
 1396W        W66623  33.097  32.922  12.557
 1397W        W66624  40.860  15.169  13.063
 1398W        W66625  14.001  26.183  11.223
 1399W        W66626  34.099  33.405   3.411
 1400W        W66627   5.546   0.951  13.765
 1401W        W66628  35.038   7.382   4.563
 1402W        W66629  31.316  17.625   2.572
 1403W        W66630  12.569   3.991  10.992
 1404W        W66631   1.480  11.835   0.938
 1405W        W66632  21.509  35.636   3.312
 1406W        W66633  36.479   0.084  13.260
 1407W        W66634  14.061  28.445   4.053
 1408W        W66635  20.151  41.310   3.154
 1409W        W66636  34.991  16.098   1.212
 1410W        W66637  43.422  12.382  10.659
 1411W        W66638  21.542   7.519   0.327
 1412W        W66639  16.630   1.607   4.483
 1413W        W66640  42.294  15.289  13.496
 1414W        W66641  22.711  36.180  10.759
 1415W        W66642  23.127   9.353  14.018
 1416W        W66643  23.033  44.006   2.093
 1417W        W66644  12.047   6.380   1.803
 1418W        W66645  35.398  33.847  14.884
 1419W        W66646  30.180   3.782   4.129
 1420W        W66647  17.416  39.849  10.875
 1421W        W66648  37.845  39.947   1.821
 1422W        W66649  13.381  24.849  12.623
 1423W        W66650  32.430   8.190   1.383
 1424W        W66651  17.244  21.634   3.267
 1425W        W66652   2.198   2.255   2.647
 1426W        W66653  35.144  35.916  10.147
 1427W        W66654  29.889  21.834   1.237
 1428W        W66655  42.402  12.565  10.953
 1429W        W66656   4.253  12.215   3.689
 1430W        W66657  35.530  36.942  13.062
 1431W        W66658  32.409  44.825  12.473
 1432W        W66659  15.813  17.247  12.400
 1433W        W66660  20.722  30.268  13.366
 1434W        W66661  31.071  41.597   1.854
 1435W        W66662  33.815   2.992   3.117
 1436W        W66663  30.189  12.981  13.853
 1437W        W66664  20.847  15.687  13.780
 1438W        W66665  35.474  25.152  11.953
 1439W        W66666   6.371  11.617   2.742
 1440W        W66667  42.901  10.333  11.120
 1441W        W66668  44.495  13.848  12.535
 1442W        W66669  19.255  43.821  13.995
 1443W        W66670  12.310  24.198   4.015
 1444W        W66671  40.525  30.994   0.538
 1445W        W66672  22.153  25.706   1.466
 1446W        W66673  16.743  13.156  12.430
 1447W        W66674  34.616  44.686  10.806
 1448W        W66675   7.229  28.942   1.821
 1449W        W66676   7.916   7.833  12.563
 1450W        W66677  28.231  16.730  12.358
 1451W        W66678  35.327   8.890   3.856
 1452W        W66679  43.694  18.643   9.819
 1453W        W66680  36.682  28.227  13.287
 1454W        W66681  41.424   8.410  12.442
 1455W        W66682  27.831   6.433  13.625
 1456W        W66683   2.342  41.376  12.132
 1457W        W66684  35.145   8.665  12.577
 1458W        W66685   1.916  40.083  11.075
 1459W        W66686  19.205  17.513   4.702
 1460W        W66687  34.882  21.602   2.707
 1461W        W66688   3.756   1.112  13.041
 1462W        W66689   2.422  28.458   5.154
 1463W        W66690  22.081  15.717   2.529
 1464W        W66691  17.656   1.032   3.617
 1465W        W66692  33.186   9.982  12.029
 1466W        W66693   1.752   3.935   4.446
 1467W        W66694   9.139  29.961  11.168
 1468W        W66695  44.528  17.706  13.138
 1469W        W66696  33.356   5.301  13.806
 1470W        W66697  26.468  14.423   0.316
 1471W        W66698  33.612  33.395  13.763
 1472W        W66699  35.394   2.784  14.920
 1473W        W66700  14.441  34.033   0.763
 1474W        W66701  39.553  10.143  14.943
 1475W        W66702  18.685  41.560   4.111
 1476W        W66703  44.536  14.682   4.548
 1477W        W66704  18.223   6.394   2.810
 1478W        W66705   0.994   5.420  12.197
 1479W        W66706  27.889  14.387  10.541
 1480W        W66707  40.986  31.588   4.420
 1481W        W66708  16.577   9.771   1.651
 1482W        W66709  21.249   0.790  14.266
 1483W        W66710  19.444  36.365   2.632
 1484W        W66711   9.187  10.764  14.663
 1485W        W66712  35.307  12.653   3.833
 1486W        W66713  11.154  24.436  13.332
 1487W        W66714  21.485  32.532  12.027
 1488W        W66715  36.324   8.664   1.772
 1489W        W66716  22.463  25.603   2.824
 1490W        W66717  34.626  39.560  10.077
 1491W        W66718  27.202  31.692  14.450
 1492W        W66719  41.106   1.654   1.424
 1493W        W66720  28.778  21.260   2.813
 1494W        W66721  34.137   6.010   2.588
 1495W        W66722  25.816  21.899  13.649
 1496W        W66723  31.170  37.534  13.206
 1497W        W66724   7.420  34.420   2.445
 1498W        W66725  11.085  39.872  13.851
 1499W        W66726  27.970   6.171  12.072
 1500W        W66727  19.097  26.403   2.894
 1501W        W66728  27.082  29.632  12.749
 1502W        W66729   6.355  30.608  11.013
 1503W        W66730   3.542  20.321  12.955
 1504W        W66731   5.025  37.895   3.268
 1505W        W66732  12.273  39.944   3.741
 1506W        W66733  37.515  35.846   2.847
 1507W        W66734   7.234  20.533  12.566
 1508W        W66735  39.057  41.561   2.707
 1509W        W66736  21.470  44.902   4.182
 1510W        W66737  25.993  35.652   3.836
 1511W        W66738  12.119  28.587  10.589
 1512W        W66739  16.056  18.948  13.472
 1513W        W66740  44.200  24.927   1.246
 1514W        W66741   8.401  17.265   2.788
 1515W        W66742  36.413   6.165   5.043
 1516W        W66743  30.032  20.209  13.399
 1517W        W66744  12.315   4.468   0.803
 1518W        W66745  17.575  44.485  12.969
 1519W        W66746   0.960  34.924  12.817
 1520W        W66747  30.870  17.197  10.930
 1521W        W66748  30.005   4.269   0.967
 1522W        W66749  35.052  33.161  13.984
 1523W        W66750  35.889  28.877   3.280
 1524W        W66751  16.775  17.007  13.914
 1525W        W66752  17.703  27.959   4.036
 1526W        W66753  21.852  28.541   4.179
 1527W        W66754  29.966  37.815   1.814
 1528W        W66755  27.992  44.965   5.044
 1529W        W66756  18.433  24.807  11.191
 1530W        W66757   7.830  19.309  13.471
 1531W        W66758   2.030  10.663   3.122
 1532W        W66759  14.366  10.618  12.566
 1533W        W66760  40.545  27.129  11.068
 1534W        W66761  24.287   5.623  11.263
 1535W        W66762  13.224  39.091   3.200
 1536W        W66763   3.629  36.971   1.702
 1537W        W66764  11.369   7.798  13.395
 1538W        W66765  28.891  25.121   1.898
 1539W        W66766  24.526   1.255   1.281
 1540W        W66767   1.827  15.680   0.687
 1541W        W66768  39.975   7.261   2.355
 1542W        W66769   7.635  14.747   0.824
 1543W        W66770   2.920  43.825   5.112
 1544W        W66771  32.970   6.125   4.583
 1545W        W66772  15.666   7.293   0.027
 1546W        W66773  35.602  23.988  12.886
 1547W        W66774  26.564   6.045   0.290
 1548W        W66775  18.995  25.938   1.328
 1549W        W66776  27.016   4.446  10.780
 1550W        W66777  23.687  30.827  14.865
 1551W        W66778  26.116  29.111  10.617
 1552W        W66779  42.478   3.435   3.622
 1553W        W66780  20.794  44.741  11.847
 1554W        W66781  31.079  31.912  13.996
 1555W        W66782  23.580  12.041   0.236
 1556W        W66783  27.251  40.830  12.602
 1557W        W66784  37.658  27.631   3.839
 1558W        W66785   6.658  28.962   3.091
 1559W        W66786  10.030  15.023   3.592
 1560W        W66787  32.101  16.307   3.682
 1561W        W66788   3.385  18.995   1.219
 1562W        W66789  33.105  35.371   4.481
 1563W        W66790  22.696  22.712   2.765
 1564W        W66791  30.413   6.801  12.513
 1565W        W66792  30.795   0.794   3.917
 1566W        W66793   8.634  27.112  14.806
 1567W        W66794  24.704  23.701  14.917
 1568W        W66795   1.272  38.753  14.854
 1569W        W66796  41.260  16.741   2.982
 1570W        W66797  38.792   0.916   4.996
 1571W        W66798  34.391   7.580   0.018
 1572W        W66799   4.247  22.569  14.714
 1573W        W66800   4.486  12.089   1.152
 1574W        W66801  41.373  26.953   2.243
 1575W        W66802  36.828  14.249  12.540
 1576W        W66803   9.345  23.391  12.100
 1577W        W66804  22.428  18.360  14.274
 1578W        W66805  43.686  29.358  11.603
 1579W        W66806  21.768   6.964   1.216
 1580W        W66807  25.854  25.235  13.517
 1581W        W66808  32.012  22.727   4.103
 1582W        W66809  38.318   2.587   2.207
 1583W        W66810   5.413  30.440   4.483
 1584W        W66811   6.307   2.903  13.402
 1585W        W66812  30.591  30.545  13.460
 1586W        W66813  23.308  31.608  13.481
 1587W        W66814  24.785  40.587   2.303
 1588W        W66815  26.194  30.336  11.226
 1589W        W66816  40.905  20.962   4.693
 1590W        W66817  17.165  10.389   2.742
 1591W        W66818  37.350   4.391  13.076
 1592W        W66819  19.364   9.239   0.548
 1593W        W66820  11.109  12.887  14.436
 1594W        W66821  16.271  38.248   2.256
 1595W        W66822  14.895  16.339  10.767
 1596W        W66823  17.718  42.827  13.680
 1597W        W66824  11.318  25.665  14.064
 1598W        W66825  34.626  12.796   1.430
 1599W        W66826   0.656  42.189   4.089
 1600W        W66827  18.265  28.491  13.249
 1601W        W66828  28.886  19.402   3.213
 1602W        W66829  11.276  16.356  10.841
 1603W        W66830   2.815  36.955   4.740
 1604W        W66831  39.801  27.901  11.960
 1605W        W66832  29.470  39.111   4.456
 1606W        W66833  15.968  15.273  10.676
 1607W        W66834  43.525   6.539   3.185
 1608W        W66835  17.089  37.977   3.588
 1609W        W66836   7.755  44.657   4.777
 1610W        W66837  32.113  24.237  12.001
 1611W        W66838  19.325  18.308   3.991
 1612W        W66839  39.616  12.595   2.234
 1613W        W66840  37.878  30.934  12.991
 1614W        W66841  20.262   9.223   2.208
 1615W        W66842  43.572   4.317  13.314
 1616W        W66843  19.560   9.782  11.017
 1617W        W66844   3.985  40.238  11.904
 1618W        W66845  16.040   1.116  12.401
 1619W        W66846  28.106   1.366   2.181
 1620W        W66847   3.376   4.037   3.345
 1621W        W66848  25.280  18.717  12.701
 1622W        W66849  29.844   4.770  13.490
 1623W        W66850  22.554   2.891  14.835
 1624W        W66851  19.605   4.429  10.994
 1625W        W66852   3.950   0.489   2.785
 1626W        W66853  11.654   1.038  12.565
 1627W        W66854  13.347  27.020   1.097
 1628W        W66855  31.600  20.528   3.048
 1629W        W66856  37.952   3.321  11.529
 1630W        W66857  22.287  33.659  12.521
 1631W        W66858  19.486  43.569  11.572
 1632W        W66859  21.544  16.612  12.452
 1633W        W66860  39.898  13.220   0.245
 1634W        W66861   3.364  21.525  14.931
 1635W        W66862  35.133  28.419   0.308
 1636W        W66863  28.360  26.488   9.647
 1637W        W66864  42.853  34.485   2.120
 1638W        W66865  20.611  35.631  12.107
 1639W        W66866  10.367  17.118  11.967
 1640W        W66867   9.125   3.991   0.839
 1641W        W66868  37.906  19.738  12.815
 1642W        W66869  28.535   3.172   4.797
 1643W        W66870  13.094   6.335   1.889
 1644W        W66871  23.562  32.613  11.183
 1645W        W66872   9.357  22.826   0.886
 1646W        W66873  20.072  13.125   3.321
 1647W        W66874  31.982   4.407  10.661
 1648W        W66875  15.965  28.828   3.777
 1649W        W66876   1.883  29.066   5.301
 1650W        W66877  18.728  10.501   4.550
 1651W        W66878  27.957   2.550   0.350
 1652W        W66879  31.973  42.770   1.244
 1653W        W66880  21.075  21.760  11.998
 1654W        W66881   3.696  27.734   0.784
 1655W        W66882  11.091  16.938   2.256
 1656W        W66883  27.119   5.380  14.311
 1657W        W66884  37.987  21.501   0.021
 1658W        W66885  36.317   8.331   4.655
 1659W        W66886  35.242  42.951  13.464
 1660W        W66887  22.554  36.126   4.127
 1661W        W66888  14.079  20.063   3.767
 1662W        W66889  14.720  30.777   0.809
 1663W        W66890  20.644  35.272  11.746
 1664W        W66891  35.549  11.846   4.850
 1665W        W66892  19.518  36.463   1.764
 1666W        W66893  11.639  29.176   0.589
 1667W        W66894   4.759  28.775   4.047
 1668W        W66895  35.031   5.331   1.814
 1669W        W66896  24.564  30.298   2.696
 1670W        W66897  43.298  17.439   5.521
 1671W        W66898  27.068  35.814   2.830
 1672W        W66899   0.336  25.040   4.645
 1673W        W66900  25.071  23.690   3.180
 1674W        W66901  12.286   2.915   0.937
 1675W        W66902  39.539  16.517  13.487
 1676W        W66903  42.040  42.759   2.385
 1677W        W66904  33.059  40.187   1.390
 1678W        W66905  28.895  28.921  12.931
 1679W        W66906   7.470  40.289   2.436
 1680W        W66907  32.022  23.208  11.940
 1681W        W66908  10.072  31.679   4.446
 1682W        W66909  31.471  16.029   2.809
 1683W        W66910  15.573  41.378  13.293
 1684W        W66911   2.348  14.312  12.120
 1685W        W66912  30.649  42.590   3.297
 1686W        W66913   1.444  39.570   4.155
 1687W        W66914  20.128  20.296  14.238
 1688W        W66915  28.765  42.386   1.688
 1689W        W66916  17.485  40.321  12.141
 1690W        W66917  34.537   7.894  13.010
 1691W        W66918  23.497  42.821   1.361
 1692W        W66919  41.901  28.223   2.098
 1693W        W66920  38.635  11.640   1.912
 1694W        W66921  16.559  27.980   3.762
 1695W        W66922  11.940  32.995  13.112
 1696W        W66923   2.200  29.532  11.690
 1697W        W66924  18.868  12.083   0.530
 1698W        W66925  31.388  21.016  13.545
 1699W        W66926  32.125  42.468  13.036
 1700W        W66927  36.304  33.013  11.040
 1701W        W66928  34.324  38.887   4.186
 1702W        W66929  35.213  13.690  13.870
 1703W        W66930   7.793   8.589   3.763
 1704W        W66931   0.537  35.526   2.128
 1705W        W66932  38.298  42.897  14.761
 1706W        W66933  10.364   6.460  11.732
 1707W        W66934   9.638  21.511   3.582
 1708W        W66935  37.338  13.222   3.594
 1709W        W66936  22.155  21.338  14.447
 1710W        W66937  14.483  44.024  14.914
 1711W        W66938  36.040   2.113   0.739
 1712W        W66939   7.288  27.436   4.768
 1713W        W66940   7.749  33.139  13.889
 1714W        W66941  14.569   7.374  12.406
 1715W        W66942  20.277  12.937   3.794
 1716W        W66943   0.034  23.410  13.022
 1717W        W66944  10.323  17.097  12.962
 1718W        W66945  32.001  23.557   4.654
 1719W        W66946   1.665  19.645   1.336
 1720W        W66947  10.113   9.073   0.860
 1721W        W66948  35.150  41.232  11.259
 1722W        W66949  27.603  28.912  11.494
 1723W        W66950   7.383   6.137  14.821
 1724W        W66951  39.329  42.735   4.040
 1725W        W66952  39.365  27.116  11.161
 1726W        W66953  35.431  36.217  12.373
 1727W        W66954   4.424   5.314   2.758
 1728W        W66955   6.329   0.601  14.486
 1729W        W66956  34.596  43.809   3.277
 1730W        W66957   0.380  28.670   4.676
 1731W        W66958  44.292  10.158  13.938
 1732W        W66959   9.802  21.196  14.192
 1733W        W66960  22.515   5.236  14.535
 1734W        W66961  12.946  38.946  13.072
 1735W        W66962  12.275   5.951  10.736
 1736W        W66963  34.975  29.684   5.098
 1737W        W66964   3.391  10.276   4.572
 1738W        W66965  28.031  43.322   2.851
 1739W        W66966  42.278  33.159   1.301
 1740W        W66967  13.541  24.191   4.606
 1741W        W66968  25.093   4.327  12.004
 1742W        W66969  34.575  17.579  12.472
 1743W        W66970  25.974  32.048   2.267
 1744W        W66971  20.454  37.993   0.273
 1745W        W66972  23.393  12.286  10.931
 1746W        W66973  32.760  37.646   1.269
 1747W        W66974  30.385   4.648  14.898
 1748W        W66975  16.534   0.829   1.960
 1749W        W66976  40.857  27.575  11.993
 1750W        W66977   0.168  41.528  11.626
 1751W        W66978  30.104  44.389  12.349
 1752W        W66979  28.974   6.794   1.994
 1753W        W66980   6.971  41.248   2.274
 1754W        W66981  13.655   1.469  14.825
 1755W        W66982  19.253  32.808  14.058
 1756W        W66983   1.900  37.284  10.102
 1757W        W66984  36.055  36.637   0.930
 1758W        W66985  20.525  42.607   2.690
 1759W        W66986  11.570  20.315  12.971
 1760W        W66987  17.958   6.395   3.306
 1761W        W66988   7.632   3.864  11.124
 1762W        W66989  28.582  41.492   0.649
 1763W        W66990  20.368  42.396   4.140
 1764W        W66991  20.761  24.434   1.709
 1765W        W66992  19.205  36.549  14.785
 1766W        W66993   8.803  29.382   0.434
 1767W        W66994  22.227   2.071   3.603
 1768W        W66995  38.508  13.819  13.755
 1769W        W66996  28.131   8.645  10.766
 1770W        W66997  22.715   2.446  12.458
 1771W        W66998  34.334  43.944   0.899
 1772W        W66999  38.439   5.931  12.433
 1773W        W67000  14.388  31.972   9.846
 1774W        W67001  42.945   5.410   5.530
 1775W        W67002  22.009   8.003   4.488
 1776W        W67003  11.713   3.483   3.124
 1777W        W67004   0.725  16.347  13.426
 1778W        W67005   2.780  21.262  13.266
 1779W        W67006  40.371  42.240   2.419
 1780W        W67007   0.018  35.471  14.158
 1781W        W67008  39.527  31.457  12.274
 1782W        W67009   2.234   2.738  13.509
 1783W        W67010   3.763  44.360  14.538
 1784W        W67011  32.771  31.375  14.943
 1785W        W67012  18.280  22.529   1.678
 1786W        W67013  26.229  26.561   1.937
 1787W        W67014  28.597  44.811  13.083
 1788W        W67015   6.188  38.614  14.802
 1789W        W67016  16.648  23.336   0.316
 1790W        W67017  33.417  11.039   2.907
 1791W        W67018  14.367  32.112   3.129
 1792W        W67019  13.909   2.464   0.515
 1793W        W67020  13.703  40.349   0.010
 1794W        W67021  26.775   2.149  11.616
 1795W        W67022  31.094  40.348   1.123
 1796W        W67023  44.301  32.987  13.376
 1797W        W67024  12.241  16.037   3.069
 1798W        W67025  13.325  14.588   3.406
 1799W        W67026   6.174  40.572  11.107
 1800W        W67027  18.857  25.068   2.402
 1801W        W67028  12.716  12.535   0.379
 1802W        W67029  44.757  13.720   0.483
 1803W        W67030  22.726  15.628  14.078
 1804W        W67031  16.641  43.334  14.513
 1805W        W67032  10.903  27.635   3.122
 1806W        W67033  21.767  19.432  11.490
 1807W        W67034  10.351  18.592   4.550
 1808W        W67035   7.979  35.744   2.841
 1809W        W67036   8.444  42.954   2.059
 1810W        W67037  25.191  42.786   3.260
 1811W        W67038  17.300  37.333  12.631
 1812W        W67039   8.669   8.311  12.669
 1813W        W67040  32.604   3.308   1.404
 1814W        W67041  42.258  12.665  11.425
 1815W        W67042  37.340  37.962   3.979
 1816W        W67043  14.750  12.810   2.663
 1817W        W67044  42.442  36.103  10.544
 1818W        W67045  18.137  24.092  11.189
 1819W        W67046  39.766  11.114  14.608
 1820W        W67047  19.089  33.437  12.524
 1821W        W67048  22.760  28.525   0.816
 1822W        W67049  23.955  43.549   4.408
 1823W        W67050  35.326  22.152   0.836
 1824W        W67051  39.604  28.677  11.194
 1825W        W67052   5.231  12.372  12.148
 1826W        W67053  34.832  44.977   1.403
 1827W        W67054  12.365  22.598  12.414
 1828W        W67055  23.720  44.406  11.278
 1829W        W67056  39.385  22.667  10.729
 1830W        W67057   1.536   4.812  11.221
 1831W        W67058  16.336  35.525   1.367
 1832W        W67059  18.591  18.106  11.250
 1833W        W67060  10.071  20.033  13.957
 1834W        W67061  39.956   5.388   2.688
 1835W        W67062  10.812  42.807   1.840
 1836W        W67063  14.306   5.351  14.585
 1837W        W67064   2.278  12.702   1.910
 1838W        W67065   9.170  14.430  14.481
 1839W        W67066  21.056  32.465   3.761
 1840W        W67067  11.801  34.715   1.707
 1841W        W67068  37.374  39.446   4.971
 1842W        W67069   7.614  42.038   0.442
 1843W        W67070  27.986  35.995   1.259
 1844W        W67071  20.724  23.008  11.188
 1845W        W67072  22.760   1.957   2.721
 1846W        W67073  36.462  40.406   4.849
 1847W        W67074   9.549   3.858   4.524
 1848W        W67075  35.899  14.232  14.004
 1849W        W67076  10.310  43.596   1.753
 1850W        W67077  33.049  17.543  10.507
 1851W        W67078   7.003  40.127  14.437
 1852W        W67079  29.081  15.262  13.753
 1853W        W67080  32.421  42.846  13.800
 1854W        W67081  36.301   7.727  14.627
 1855W        W67082  35.398  22.785   1.272
 1856W        W67083  22.251   1.216   1.253
 1857W        W67084   5.254   5.644  13.402
 1858W        W67085  27.402  19.026  10.631
 1859W        W67086  16.195  12.151   4.175
 1860W        W67087   1.240  17.439  11.924
 1861W        W67088  44.645  17.440   4.931
 1862W        W67089  12.692  19.287  11.645
 1863W        W67090  35.876  29.421  14.792
 1864W        W67091  25.456  30.147  11.196
 1865W        W67092  14.295  13.668  11.610
 1866W        W67093  35.930  12.530   0.028
 1867W        W67094  38.379  20.020  12.860
 1868W        W67095  11.072  14.609   0.304
 1869W        W67096  22.134  31.139  11.508
 1870W        W67097   5.957   1.852  13.576
 1871W        W67098  21.492  22.359   2.851
 1872W        W67099  37.856  19.554   0.482
 1873W        W67100  43.202  22.970  11.808
 1874W        W67101  19.551  24.786  13.067
 1875W        W67102  38.074  38.339  12.521
 1876W        W67103  14.291  23.098   3.154
 1877W        W67104  36.631  30.049   3.288
 1878W        W67105  22.961  27.255  10.740
 1879W        W67106   0.285   8.299   4.338
 1880W        W67107  37.428  20.538   3.691
 1881W        W67108  18.571  38.128   3.182
 1882W        W67109  36.326  44.743  12.912
 1883W        W67110   9.081  15.322  14.837
 1884W        W67111  33.955  31.089  11.656
 1885W        W67112  22.299  40.184   3.680
 1886W        W67113  13.695  10.834  14.294
 1887W        W67114  17.286   3.199   0.309
 1888W        W67115   3.803  33.464  11.150
 1889W        W67116  34.549  44.344   3.767
 1890W        W67117  13.303  15.593   4.540
 1891W        W67118   9.702  35.853   4.483
 1892W        W67119  23.486  16.842  12.843
 1893W        W67120  13.154   3.827   2.740
 1894W        W67121  10.653   1.229   0.923
 1895W        W67122  31.652  26.625   1.701
 1896W        W67123  25.164  22.634  14.879
 1897W        W67124  20.607   7.154  14.521
 1898W        W67125  27.136  10.813   1.920
 1899W        W67126  33.010  29.965  11.025
 1900W        W67127  28.526  35.139   0.983
 1901W        W67128  24.336  42.029  12.433
 1902W        W67129  24.666  11.289  14.510
 1903W        W67130   0.363  20.331   0.675
 1904W        W67131  26.396  20.270  12.242
 1905W        W67132  18.717  13.211   1.603
 1906W        W67133  11.848   0.296   1.317
 1907W        W67134  13.140  10.223  13.364
 1908W        W67135  11.606  15.011  11.856
 1909W        W67136  31.218  21.594   2.287
 1910W        W67137  14.177  28.711  14.089
 1911W        W67138  16.775   3.158   2.848
 1912W        W67139  30.009  32.491  13.350
 1913W        W67140   4.468  35.300   2.344
 1914W        W67141  16.368   6.019  12.555
 1915W        W67142  11.925  24.666  10.985
 1916W        W67143  18.237  10.147  13.937
 1917W        W67144  44.485  13.807  13.445
 1918W        W67145   8.714  12.829  11.836
 1919W        W67146   2.718  27.199   1.350
 1920W        W67147  31.413  17.735  11.623
 1921W        W67148  39.341  28.212  11.149
 1922W        W67149  25.778  29.887  12.072
 1923W        W67150  44.724   1.337  11.041
 1924W        W67151   1.514  31.809   3.488
 1925W        W67152   8.260  10.189   1.019
 1926W        W67153  19.520  21.257  11.193
 1927W        W67154   1.949   7.639   1.812
 1928W        W67155  31.574  36.036   3.186
 1929W        W67156  42.318  18.210  14.015
 1930W        W67157  17.085  39.070   4.109
 1931W        W67158  23.060  39.055  12.369
 1932W        W67159  31.871  15.361   1.008
 1933W        W67160   4.440  18.115  13.594
 1934W        W67161  37.994   5.120   1.748
 1935W        W67162  28.585  18.286  11.912
 1936W        W67163   8.102  35.327   4.549
 1937W        W67164  18.535  18.358   3.675
 1938W        W67165  11.978   3.408  13.056
 1939W        W67166  10.877   5.647   1.921
 1940W        W67167  32.334  18.045  14.795
 1941W        W67168  19.556   8.793  11.048
 1942W        W67169   0.257  14.394   0.046
 1943W        W67170  24.033  41.049   0.413
 1944W        W67171   9.379  44.876  11.674
 1945W        W67172  22.249  13.138  14.800
 1946W        W67173  27.066  27.452   0.500
 1947W        W67174  32.570  18.017  13.961
 1948W        W67175  17.257  25.152  10.350
 1949W        W67176   2.688  24.095  10.690
 1950W        W67177   4.481  21.044  13.391
 1951W        W67178  35.803  14.765   2.252
 1952W        W67179  26.659  21.212   1.910
 1953W        W67180  30.892  41.807  12.038
 1954W        W67181   2.024  22.946   1.681
 1955W        W67182  23.136   3.316   4.085
 1956W        W67183  36.851  12.400  12.041
 1957W        W67184  20.280  36.400  10.812
 1958W        W67185   5.132  18.518  14.986
 1959W        W67186  40.418  10.971  13.015
 1960W        W67187  17.541  32.928  13.524
 1961W        W67188  25.077  10.156   3.560
 1962W        W67189  20.258  15.113  11.333
 1963W        W67190  35.503  39.827   3.360
 1964W        W67191  41.314  44.074   3.911
 1965W        W67192  25.914  33.987   1.915
 1966W        W67193  38.702   3.411  12.879
 1967W        W67194  20.822  37.321  14.911
 1968W        W67195  33.419  33.550  14.205
 1969W        W67196  22.974  10.679  10.975
 1970W        W67197  16.702  19.555  10.701
 1971W        W67198   0.740   8.794  12.394
 1972W        W67199  18.789  16.054   3.788
 1973W        W67200  10.690  38.291  13.887
 1974W        W67201  13.376  37.814   2.708
 1975W        W67202  32.016  17.376   1.838
 1976W        W67203  19.564  31.410  14.964
 1977W        W67204  41.866  15.078  12.256
 1978W        W67205  15.062  19.308  13.458
 1979W        W67206  40.925   6.236  12.123
 1980W        W67207  39.919  18.164  11.241
 1981W        W67208  40.573  14.762  14.050
 1982W        W67209  29.407  44.837  11.682
 1983W        W67210  39.267  42.047   2.753
 1984W        W67211  44.752  32.792  14.427
 1985W        W67212  35.782  12.753   4.716
 1986W        W67213   2.691  13.156   2.576
 1987W        W67214  37.101   3.442  14.906
 1988W        W67215  11.079   9.531  13.304
 1989W        W67216  15.863   5.446  12.522
 1990W        W67217   5.255  23.480  14.314
 1991W        W67218  23.065  25.959   4.100
 1992W        W67219   6.254   7.474   2.338
 1993W        W67220  31.978  19.715   3.270
 1994W        W67221  40.838  43.409  11.265
 1995W        W67222  42.344  39.944  10.836
 1996W        W67223  34.665   9.751  11.640
 1997W        W67224  36.815  26.882   0.470
 1998W        W67225  38.935  24.139  14.179
 1999W        W67226  20.201  18.942  13.939
 2000W        W67227  43.764   2.617  11.628
 2001W        W67228   3.874  29.184  12.060
 2002W        W67229  20.563  28.952   1.706
 2003W        W67230  15.319   2.398  11.498
 2004W        W67231  22.224  34.752   1.615
 2005W        W67232  43.413  39.437  13.003
 2006W        W67233  27.224  36.476  14.823
 2007W        W67234   7.908   2.579  12.711
 2008W        W67235  15.690  37.801   1.065
 2009W        W67236  38.106  37.371   2.739
 2010W        W67237  22.567  37.111  12.805
 2011W        W67238  21.722  19.825   4.044
 2012W        W67239   2.678  33.341  12.026
 2013W        W67240  15.666   3.703  11.215
 2014W        W67241  43.685  28.408  11.551
 2015W        W67242  13.083  11.736   0.227
 2016W        W67243   4.324  39.124   0.016
 2017W        W67244  11.947  42.138  14.119
 2018W        W67245   3.195  23.005  13.349
 2019W        W67246  16.841  35.374  14.576
 2020W        W67247  15.265  25.542   3.513
 2021W        W67248  29.696  41.861  14.725
 2022W        W67249   4.296  13.404   4.121
 2023W        W67250  17.781   3.458   1.409
 2024W        W67251  27.186  27.846   0.810
 2025W        W67252  42.588  39.342  11.031
 2026W        W67253  23.232  23.984  12.858
 2027W        W67254   4.683  14.380  10.608
 2028W        W67255   5.246  27.272   3.613
 2029W        W67256   9.638  21.692  11.090
 2030W        W67257  21.649   9.380  13.287
 2031W        W67258  11.437  33.151  11.696
 2032W        W67259  20.890   5.949   5.062
 2033W        W67260  21.322   5.816  11.208
 2034W        W67261  26.510  15.638   1.262
 2035W        W67262  21.210  14.121  10.659
 2036W        W67263  44.949  29.898  13.401
 2037W        W67264   9.198  20.645   4.305
 2038W        W67265  29.198  28.085  13.189
 2039W        W67266  16.300  35.778  11.208
 2040W        W67267  41.995   5.350   4.535
 2041W        W67268   4.887   6.333  12.990
 2042W        W67269  22.986  15.145   0.805
 2043W        W67270  18.142  42.940  13.378
 2044W        W67271  39.528  15.511  14.339
 2045W        W67272   2.003  15.411   3.943
 2046W        W67273  38.468  27.456  13.426
 2047W        W67274  34.738  13.593  10.661
 2048W        W67275  23.054  16.798   2.145
 2049W        W67276  38.909  13.812   3.584
 2050W        W67277  36.426   4.449  11.147
 2051W        W67278  39.797   2.829  11.527
 2052W        W67279  16.720  34.684   2.754
 2053W        W67280  32.521  23.762   3.012
 2054W        W67281  33.683   9.244  12.446
 2055W        W67282   3.796   6.332  11.959
 2056W        W67283  10.281  43.464  14.323
 2057W        W67284   0.657   9.367   3.204
 2058W        W67285  39.121   4.245  10.693
 2059W        W67286  16.266   0.289  13.401
 2060W        W67287  44.225   2.835  11.517
 2061W        W67288   5.229   4.864   1.493
 2062W        W67289  23.062  23.537  10.701
 2063W        W67290  25.904  29.077   1.403
 2064W        W67291   1.644   1.822   4.705
 2065W        W67292   5.888  16.379   4.078
 2066W        W67293  40.923  38.072   3.705
 2067W        W67294   5.006  30.309  14.348
 2068W        W67295  19.550  16.809  11.591
 2069W        W67296   3.772   7.349   1.335
 2070W        W67297   5.969  10.640   2.781
 2071W        W67298  15.659  12.412   2.226
 2072W        W67299  40.601   2.902  12.967
 2073W        W67300   2.712  20.520   0.747
 2074W        W67301  28.003  28.354  13.974
 2075W        W67302   7.840  10.575   4.046
 2076W        W67303  37.470  33.321   3.148
 2077W        W67304  21.595  20.635   1.737
 2078W        W67305   3.652   5.402   3.190
 2079W        W67306  24.421  25.271   4.306
 2080W        W67307  33.969  20.665  12.339
 2081W        W67308  19.152  11.748   0.196
 2082W        W67309  40.869  18.801  14.738
 2083W        W67310  21.204   1.342   0.015
 2084W        W67311  33.412  39.141  10.762
 2085W        W67312  31.658  42.630  12.924
 2086W        W67313  13.048  36.920  11.543
 2087W        W67314  24.502   8.719   3.364
 2088W        W67315  29.112  21.822  11.685
 2089W        W67316  36.782  22.051  14.836
 2090W        W67317  37.320  26.781   1.158
 2091W        W67318  28.044  33.600  11.228
 2092W        W67319   0.261  30.719   2.275
 2093W        W67320   1.461   5.840   2.191
 2094W        W67321  12.415   3.376  12.149
 2095W        W67322   3.438  38.492  10.567
 2096W        W67323  14.388   9.780   2.372
 2097W        W67324  32.586  16.685  11.469
 2098W        W67325  10.121  37.432   0.500
 2099W        W67326  30.449   1.924  10.482
 2100W        W67327   8.339   5.701   0.030
 2101W        W67328  44.867  28.986  14.721
 2102W        W67329  18.774  34.518   2.828
 2103W        W67330  35.705  30.002   2.402
 2104W        W67331   0.362  44.925  11.997
 2105W        W67332  16.131  41.210   2.876
 2106W        W67333  36.402  13.338  11.074
 2107W        W67334  34.597  10.629   1.672
 2108W        W67335  27.504  36.579   3.596
 2109W        W67336  34.755   2.163   0.062
 2110W        W67337   8.899   8.137  10.820
 2111W        W67338  18.671  19.365   3.281
 2112W        W67339  43.716  43.816  11.789
 2113W        W67340  34.420  25.849   0.642
 2114W        W67341  10.012   4.682  14.431
 2115W        W67342  19.503  23.043   4.676
 2116W        W67343   3.480  37.020  13.286
 2117W        W67344  39.032  44.762   2.076
 2118W        W67345   5.312  32.192   2.732
 2119W        W67346  37.893  23.996   4.669
 2120W        W67347  39.383   8.606  12.555
 2121W        W67348   5.029  33.477  13.549
 2122W        W67349  35.027   3.888   4.383
 2123W        W67350   0.205  38.098  11.664
 2124W        W67351  31.678   2.437  11.562
 2125W        W67352  11.133  30.734  12.454
 2126W        W67353  25.078  21.154  11.113
 2127W        W67354  43.622  38.388   2.744
 2128W        W67355   1.554  28.517  10.703
 2129W        W67356  37.645  43.997  11.230
 2130W        W67357  40.994  38.329  14.156
 2131W        W67358   4.807  34.858  11.841
 2132W        W67359  41.953  38.046   1.446
 2133W        W67360  20.940  27.523  11.273
 2134W        W67361  42.581   8.661  12.986
 2135W        W67362  31.858  43.070   2.700
 2136W        W67363  13.244  10.676  14.066
 2137W        W67364  11.314  42.496   0.814
 2138W        W67365  36.361  40.833  13.385
 2139W        W67366   4.388   4.163   2.469
 2140W        W67367   4.224   1.225   4.096
 2141W        W67368   2.902   3.294  14.991
 2142W        W67369  22.426  33.665  14.152
 2143W        W67370  32.696   8.609   1.726
 2144W        W67371   5.760  31.870   1.872
 2145W        W67372  12.823   4.445  14.913
 2146W        W67373  12.573  10.374  11.621
 2147W        W67374   3.442  23.865   2.394
 2148W        W67375  22.690  44.204  13.619
 2149W        W67376  18.132   3.835  12.518
 2150W        W67377   0.386  12.310  10.768
 2151W        W67378  38.603  44.821  12.491
 2152W        W67379  41.050  43.846  12.869
 2153W        W67380  23.611  16.850  12.088
 2154W        W67381  27.373  34.449  11.582
 2155W        W67382  11.012  41.688  12.092
 2156W        W67383  19.712  28.213   2.744
 2157W        W67384  34.209   4.668   3.156
 2158W        W67385  35.892  25.014   4.508
 2159W        W67386   9.362  34.811   2.442
 2160W        W67387  40.825  16.489  13.290
 2161W        W67388   5.610  37.510   2.018
 2162W        W67389  22.481  40.973   1.892
 2163W        W67390  28.583   4.405   0.362
 2164W        W67391  19.208   0.319  11.203
 2165W        W67392  34.687  37.253   4.203
 2166W        W67393  21.485   5.207   0.723
 2167W        W67394  19.515  16.713  14.932
 2168W        W67395  18.593  35.539   2.387
 2169W        W67396  22.227  32.254  13.727
 2170W        W67397   2.257  37.533  11.294
 2171W        W67398   8.828   4.016   1.281
 2172W        W67399  29.498   8.449   0.317
 2173W        W67400  31.186  14.160   2.418
 2174W        W67401  42.037  31.539  14.833
 2175W        W67402  25.590   6.580  13.810
 2176W        W67403  33.073   7.201   4.908
 2177W        W67404  18.048  35.954   1.335
 2178W        W67405  43.015  12.433   4.286
 2179W        W67406  31.641   4.409  14.702
 2180W        W67407   0.283  17.339   0.842
 2181W        W67408  28.237  32.183   2.223
 2182W        W67409  22.216  35.253  14.812
 2183W        W67410  12.302   2.941  12.967
 2184W        W67411  38.218  13.655   2.677
 2185W        W67412   4.605  31.346  12.477
 2186W        W67413   7.146  20.505  14.420
 2187W        W67414   7.635  10.392   1.311
 2188W        W67415  39.388  29.141  14.245
 2189W        W67416  14.595   9.102  14.290
 2190W        W67417  39.787  26.371   1.534
 2191W        W67418   5.457  25.108   1.749
 2192W        W67419  32.650  44.342   1.328
 2193W        W67420  31.886  19.064   3.698
 2194W        W67421   4.777  12.361   3.484
 2195W        W67422  22.132  14.642   0.522
 2196W        W67423   4.953  18.679   4.739
 2197W        W67424   2.404  39.283   3.374
 2198W        W67425  29.632  23.412   5.179
 2199W        W67426  43.274  11.092   0.088
 2200W        W67427  43.509   2.139   0.333
 2201W        W67428  39.218   7.253  12.060
 2202W        W67429  13.728  33.955  11.209
 2203W        W67430  40.441  34.444  11.381
 2204W        W67431  15.360  35.671  10.179
 2205W        W67432  44.004   8.510  13.981
 2206W        W67433  29.369  42.411  13.617
 2207W        W67434  31.821  16.523   3.261
 2208W        W67435  13.681  39.906  10.450
 2209W        W67436  14.701  24.505  13.797
 2210W        W67437  26.732  25.169  14.955
 2211W        W67438  14.625  13.845   2.390
 2212W        W67439  16.168   9.663   0.947
 2213W        W67440  36.771   0.084  13.942
 2214W        W67441  29.397   4.013   2.765
 2215W        W67442  33.028  38.116   0.235
 2216W        W67443  44.994  32.112  11.195
 2217W        W67444   6.811  37.016   0.577
 2218W        W67445  41.606  40.814   3.162
 2219W        W67446   0.740  26.589   1.552
 2220W        W67447  29.035  18.914   3.125
 2221W        W67448  40.613  29.683   4.710
 2222W        W67449  26.127  30.199  10.726
 2223W        W67450  28.440  41.466   1.641
 2224W        W67451   6.063  30.975   1.012
 2225W        W67452  18.932   2.173  13.316
 2226W        W67453  37.809  11.889   1.323
 2227W        W67454  33.687   4.231   4.304
 2228W        W67455   7.430  35.795  12.917
 2229W        W67456  18.296  30.365   4.573
 2230W        W67457  38.648  18.493  12.053
 2231W        W67458  28.457  38.926  14.916
 2232W        W67459  26.986   0.316  11.566
 2233W        W67460  20.803  23.993  11.988
 2234W        W67461  38.539   8.927   3.162
 2235W        W67462   6.007  42.304   3.264
 2236W        W67463  39.937  12.657  11.408
 2237W        W67464  20.220  28.533   3.039
 2238W        W67465  34.546  23.020   0.887
 2239W        W67466  10.095  43.569  12.116
 2240W        W67467  40.504  11.341   1.226
 2241W        W67468  39.843  34.830   1.210
 2242W        W67469   1.456  22.262  11.449
 2243W        W67470  22.583   4.401   3.624
 2244W        W67471  30.558  20.404  12.192
 2245W        W67472  12.212  36.552  13.820
 2246W        W67473  16.784  32.630  10.688
 2247W        W67474  32.898  34.537  10.636
 2248W        W67475  26.529  19.628  11.478
 2249W        W67476  35.116  35.571  14.983
 2250W        W67477  18.058   9.471  11.698
 2251W        W67478  16.260   3.186   3.635
 2252W        W67479  29.364  20.662  12.513
 2253W        W67480  15.801   9.894  12.471
 2254W        W67481  37.181  27.701  11.670
 2255W        W67482   8.240   9.872   0.372
 2256W        W67483   9.571   6.794  13.882
 2257W        W67484  26.283   7.712   2.201
 2258W        W67485  18.531  36.227  10.804
 2259W        W67486  19.739  13.417   0.797
 2260W        W67487  25.210  13.087  13.903
 2261W        W67488  22.173  34.194  10.770
 2262W        W67489  28.162  25.140  12.859
 2263W        W67490  30.431  21.468  13.552
 2264W        W67491   8.806   1.755  13.184
 2265W        W67492  23.010  26.727  10.760
 2266W        W67493  12.333   7.178  14.283
 2267W        W67494  33.807  13.677   2.233
 2268W        W67495  23.760  42.477  12.064
 2269W        W67496   7.653  14.557  11.443
 2270W        W67497   0.143  15.340  13.439
 2271W        W67498   8.752   3.236  14.029
 2272W        W67499  39.910   7.392  13.380
 2273W        W67500  21.808  28.686   0.897
 2274W        W67501  43.743  44.954  12.873
 2275W        W67502  23.215   8.413   1.868
 2276W        W67503  33.687  17.578   4.511
 2277W        W67504  35.355  20.863  10.617
 2278W        W67505  14.049  36.548   3.091
 2279W        W67506  34.972   6.229   4.819
 2280W        W67507  40.628   8.906  14.324
 2281W        W67508  25.233  24.402   0.385
 2282W        W67509  24.218  11.861   0.524
 2283W        W67510   4.824  24.613   1.518
 2284W        W67511  26.602  28.378   2.618
 2285W        W67512  42.998  36.323   4.159
 2286W        W67513  27.271   1.212  11.093
 2287W        W67514  38.955  22.173  13.513
 2288W        W67515   9.876  37.680  11.074
 2289W        W67516  10.721   1.362  14.878
 2290W        W67517  33.059  25.588  13.359
 2291W        W67518  44.052  14.204  13.834
 2292W        W67519  15.589  30.174  14.257
 2293W        W67520  29.923  36.302  14.926
 2294W        W67521  38.363  40.007  10.979
 2295W        W67522  37.971  30.351  14.840
 2296W        W67523  36.661  23.175   1.768
 2297W        W67524  10.264  21.279  13.860
 2298W        W67525  40.776  22.689   2.680
 2299W        W67526  10.359  44.493   0.730
 2300W        W67527  11.949  42.231   3.641
 2301W        W67528  44.320   1.911  14.256
 2302W        W67529   9.853  13.373  14.318
 2303W        W67530  18.045   0.717  14.980
 2304W        W67531   4.756   0.313  14.909
 2305W        W67532  21.525  12.380  11.047
 2306W        W67533  21.984  32.023  10.801
 2307W        W67534  21.089  37.708   9.972
 2308W        W67535  22.534  38.137   3.257
 2309W        W67536  37.137  38.569  14.213
 2310W        W67537  38.453  43.141  14.332
 2311W        W67538   0.952  15.349   4.519
 2312W        W67539  30.153  11.128   1.284
 2313W        W67540  18.254  33.044   4.898
 2314W        W67541  24.916  14.160  11.911
 2315W        W67542   0.438  13.177   0.098
 2316W        W67543   2.632  34.823   2.473
 2317W        W67544  23.131  41.589   2.871
 2318W        W67545  35.717  27.406  11.269
 2319W        W67546   5.902  31.511  13.440
 2320W        W67547  30.125   7.325  11.007
 2321W        W67548  28.820   6.204  14.766
 2322W        W67549  40.185  16.508   2.224
 2323W        W67550  30.986  10.382   3.426
 2324W        W67551  18.829  13.044   0.354
 2325W        W67552  36.603  33.516   0.487
 2326W        W67553  17.789  42.368   1.497
 2327W        W67554  33.544  18.023   2.437
 2328W        W67555  44.355   8.631   2.798
 2329W        W67556  27.553   5.472  12.930
 2330W        W67557  22.195  10.930  11.645
 2331W        W67558  39.388  24.611  14.873
 2332W        W67559  27.023  31.058   4.616
 2333W        W67560  44.936  14.729  11.595
 2334W        W67561  26.216  40.038   0.750
 2335W        W67562  32.472   2.525   4.189
 2336W        W67563  43.935  29.012  11.319
 2337W        W67564  18.338  14.318   0.352
 2338W        W67565  11.419   9.862   1.868
 2339W        W67566  33.992  27.457  14.433
 2340W        W67567  33.950  38.617  12.549
 2341W        W67568   0.569  16.929   1.091
 2342W        W67569  36.878  41.546   3.953
 2343W        W67570   6.846  33.159   2.252
 2344W        W67571  23.022  20.805   2.286
 2345W        W67572  32.981   1.735  14.549
 2346W        W67573   9.319   6.512  12.517
 2347W        W67574  44.719  33.407  13.008
 2348W        W67575   4.161  31.232  14.322
 2349W        W67576   4.429   8.290  10.712
 2350W        W67577  10.342  34.637   0.415
 2351W        W67578  23.039   6.643  12.499
 2352W        W67579  25.191  22.250   5.182
 2353W        W67580   0.042  14.512  13.880
 2354W        W67581  29.539  39.499  13.042
 2355W        W67582   9.251  29.461  10.924
 2356W        W67583  32.914  28.719  12.497
 2357W        W67584   9.687   2.157  10.948
 2358W        W67585  43.053  18.587   3.500
 2359W        W67586  43.714  13.339   1.992
 2360W        W67587  33.501  25.301  13.310
 2361W        W67588  18.137  24.742  11.623
 2362W        W67589   7.847  10.653   2.318
 2363W        W67590  37.127  24.792   0.714
 2364W        W67591  30.471  40.022  13.150
 2365W        W67592  11.491   1.818   4.628
 2366W        W67593  19.133  29.487   4.790
 2367W        W67594  18.666  32.019  14.487
 2368W        W67595  27.386  37.501  11.210
 2369W        W67596  16.739  10.656  13.825
 2370W        W67597  38.261  17.918   3.594
 2371W        W67598   3.760  40.212  11.432
 2372W        W67599  39.080   6.882  13.096
 2373W        W67600  43.515  17.622   0.249
 2374W        W67601  18.637   1.807  11.365
 2375W        W67602  21.337   3.234  13.295
 2376W        W67603  18.380  17.623   4.526
 2377W        W67604  14.525  18.061  11.225
 2378W        W67605   8.060  15.080   2.757
 2379W        W67606  31.535  41.350   1.711
 2380W        W67607  40.395  13.142  12.075
 2381W        W67608  21.549  43.833  12.736
 2382W        W67609  20.253  40.461  13.978
 2383W        W67610  14.120   0.943  13.375
 2384W        W67611  20.968   6.275  12.168
 2385W        W67612   4.945  35.020  10.540
 2386W        W67613  27.184  16.226   4.028
 2387W        W67614  19.559  24.262   4.484
 2388W        W67615  16.805  28.626  14.452
 2389W        W67616  29.404  42.454   3.769
 2390W        W67617  38.540   3.279  14.663
 2391W        W67618  18.536   7.947  11.164
 2392W        W67619   2.049   0.140   4.432
 2393W        W67620  23.595  23.373   2.914
 2394W        W67621  30.649  41.064   1.027
 2395W        W67622  22.212  40.460   3.241
 2396W        W67623  11.436  42.292  12.624
 2397W        W67624  24.682   7.328  10.741
 2398W        W67625  24.199  19.063   0.394
 2399W        W67626  34.003   9.683  10.944
 2400W        W67627   3.569  35.116  12.878
 2401W        W67628   0.479  29.253   4.124
 2402W        W67629   2.995  27.967  14.601
 2403W        W67630   6.168   8.571  13.886
 2404W        W67631  29.260  42.955  10.636
 2405W        W67632  22.117   6.123   1.282
 2406W        W67633  33.140  34.496   1.931
 2407W        W67634  20.319  28.462   0.847
 2408W        W67635  14.882  22.110   2.305
 2409W        W67636   4.471  15.292  11.003
 2410W        W67637  35.858  20.627   1.342
 2411W        W67638  10.907   1.310  12.577
 2412W        W67639  21.765  10.388   4.172
 2413W        W67640  40.370  28.662   3.492
 2414W        W67641   6.096  26.179   1.095
 2415W        W67642  34.129  35.452   0.720
 2416W        W67643  19.216  18.673   0.924
 2417W        W67644  37.294   8.596  10.379
 2418W        W67645  35.988  36.898   0.397
 2419W        W67646   3.158   2.537  11.074
 2420W        W67647   7.565  11.335  12.003
 2421W        W67648  39.911   5.640   0.112
 2422W        W67649  15.480   9.678  11.247
 2423W        W67650  23.224  43.017   1.785
 2424W        W67651   8.360  24.576   1.975
 2425W        W67652  21.511  35.914  14.855
 2426W        W67653   3.634  31.686  12.563
 2427W        W67654  31.543  16.887   3.642
 2428W        W67655   6.592  41.298   1.922
 2429W        W67656  16.676  30.361  12.146
 2430W        W67657  38.328   0.923  14.865
 2431W        W67658  44.371  24.132   4.678
 2432W        W67659  23.624  12.945  10.779
 2433W        W67660  24.079   0.188  14.972
 2434W        W67661  35.640   3.767   1.668
 2435W        W67662  19.195  33.705  12.102
 2436W        W67663  29.857  33.770   1.839
 2437W        W67664  23.652  31.515  12.901
 2438W        W67665  18.074  25.009   0.546
 2439W        W67666  30.576  22.844  11.928
 2440W        W67667  33.922  21.405   1.234
 2441W        W67668  37.008  34.308   4.090
 2442W        W67669  14.774   8.920   0.724
 2443W        W67670  24.813  36.057   2.858
 2444W        W67671   2.516   5.668   2.145
 2445W        W67672  25.104  24.777  11.139
 2446W        W67673  41.247   8.402   4.315
 2447W        W67674  41.874  32.690   0.235
 2448W        W67675  14.138  36.778   1.421
 2449W        W67676  21.097  36.731   2.747
 2450W        W67677   2.906  35.106   4.340
 2451W        W67678  29.875  16.755   4.978
 2452W        W67679  20.724  13.555  14.825
 2453W        W67680  21.138  12.636  13.327
 2454W        W67681  21.540  16.398   2.311
 2455W        W67682  16.715  18.215  13.043
 2456W        W67683  42.758  29.512  12.784
 2457W        W67684   2.545   7.734  11.634
 2458W        W67685  23.170  32.084  12.593
 2459W        W67686  11.298  28.212   3.603
 2460W        W67687  13.794  17.849  14.750
 2461W        W67688  44.941  23.864   3.031
 2462W        W67689  22.562  23.195   4.173
 2463W        W67690  22.707  43.799  12.063
 2464W        W67691  28.908   4.941  14.224
 2465W        W67692   6.918  19.447  12.158
 2466W        W67693  43.600  16.077   1.734
 2467W        W67694  17.803  37.420  10.829
 2468W        W67695  31.184  20.693  12.398
 2469W        W67696  17.612  23.654  13.572
 2470W        W67697  18.661  12.535  12.048
 2471W        W67698  36.618  42.619   2.415
 2472W        W67699  10.773  19.078   1.700
 2473W        W67700  32.264  17.626   3.679
 2474W        W67701  21.726   1.837  10.217
 2475W        W67702  41.556  11.866   0.837
 2476W        W67703  10.378  27.090   2.459
 2477W        W67704  42.657  38.272  11.071
 2478W        W67705  14.905   2.309  13.645
 2479W        W67706  21.188  10.857   4.926
 2480W        W67707  35.178  10.677   2.781
 2481W        W67708  32.433   4.678   2.687
 2482W        W67709   6.217  44.721  10.387
 2483W        W67710  22.299  17.714   1.769
 2484W        W67711  13.899  26.546  11.590
 2485W        W67712  40.073  18.664  10.534
 2486W        W67713  27.849  18.219  13.110
 2487W        W67714  32.304  16.506  11.885
 2488W        W67715  41.573  10.305  13.163
 2489W        W67716  32.851  24.891  11.543
 2490W        W67717   4.327  24.585   1.239
 2491W        W67718  28.715  44.457   2.722
 2492W        W67719  26.461  20.096  14.164
 2493W        W67720  22.619  36.483   2.753
 2494W        W67721  35.455  38.502   3.837
 2495W        W67722   0.844  24.601   1.886
 2496W        W67723   4.193  13.187   2.670
 2497W        W67724  13.274  21.631   4.154
 2498W        W67725  23.790  29.148  14.482
 2499W        W67726  33.505  22.718  12.796
 2500W        W67727  34.930  22.525  12.468
 2501W        W67728  11.591  13.827  10.812
 2502W        W67729  40.521  19.695  10.966
 2503W        W67730  21.016  24.324   3.651
 2504W        W67731   3.568   8.383  13.562
 2505W        W67732  32.604  39.388   3.644
 2506W        W67733  30.778  20.446   1.910
 2507W        W67734  13.435   9.696   0.378
 2508W        W67735  38.414   2.316  11.092
 2509W        W67736   2.690  25.202   4.509
 2510W        W67737  27.775   4.402  14.645
 2511W        W67738  41.773  44.909   0.213
 2512W        W67739  20.731   4.733  13.340
 2513W        W67740  32.657  17.093  14.991
 2514W        W67741   7.457  18.176  12.297
 2515W        W67742   7.204   0.941  11.249
 2516W        W67743   3.734  19.503  11.171
 2517W        W67744  24.686  35.543   2.786
 2518W        W67745  28.723  21.035   1.501
 2519W        W67746  37.850  33.830  12.204
 2520W        W67747  24.927  42.984  10.676
 2521W        W67748   3.306   5.194  11.626
 2522W        W67749  37.164  29.504  11.636
 2523W        W67750  34.793  44.161   0.788
 2524W        W67751  41.878   8.254  14.269
 2525W        W67752  12.665  30.969  14.429
 2526W        W67753  19.574  31.620  13.021
 2527W        W67754  43.773  25.029   2.714
 2528W        W67755  25.440  12.617   1.794
 2529W        W67756  30.495  29.196   1.228
 2530W        W67757  18.201  38.416   1.235
 2531W        W67758  18.750  15.791   3.311
 2532W        W67759  20.309  14.854  14.051
 2533W        W67760   9.638   4.412   2.835
 2534W        W67761   2.886   7.679   4.800
 2535W        W67762  15.656  37.538   2.266
 2536W        W67763   2.353  41.343  11.599
 2537W        W67764  14.262  35.418   4.086
 2538W        W67765  25.408  31.134  13.468
 2539W        W67766  30.114  43.859   1.571
 2540W        W67767  38.525  28.647  14.020
 2541W        W67768   9.193  12.617  10.175
 2542W        W67769  11.404  27.008  13.771
 2543W        W67770  31.117  15.740   3.201
 2544W        W67771  32.303  37.441   3.594
 2545W        W67772  12.543  17.631  10.760
 2546W        W67773  18.974  12.143   2.831
 2547W        W67774  33.955  42.605   1.348
 2548W        W67775  21.695  19.040   1.231
 2549W        W67776  19.792  23.688  14.015
 2550W        W67777  42.816  37.025  12.993
 2551W        W67778   3.699  10.843  13.067
 2552W        W67779  42.398  18.116   3.323
 2553W        W67780   5.982  26.003   1.571
 2554W        W67781  23.243   6.770   3.116
 2555W        W67782  35.945  19.238   3.297
 2556W        W67783  26.736  39.583  13.978
 2557W        W67784   8.365  42.085  14.347
 2558W        W67785  25.317  39.817   0.407
 2559W        W67786  35.678  25.441  14.793
 2560W        W67787  39.974  14.001   4.790
 2561W        W67788  24.375   7.914   2.922
 2562W        W67789  31.153  43.745  11.102
 2563W        W67790  13.091  20.503  13.444
 2564W        W67791  44.797  43.403  14.410
 2565W        W67792  33.334   0.977  11.235
 2566W        W67793  40.934  30.479   3.678
 2567W        W67794  21.620  24.361   4.917
 2568W        W67795   7.427   7.636   2.904
 2569W        W67796  44.233   0.481  11.133
 2570W        W67797  42.644   8.247  13.814
 2571W        W67798   9.131  22.847  12.118
 2572W        W67799   0.297  44.282  12.959
 2573W        W67800  23.627  23.222  13.366
 2574W        W67801  19.685   3.058  10.722
 2575W        W67802  22.189  16.250  13.550
 2576W        W67803   3.729  35.357   0.367
 2577W        W67804  11.738   9.208   1.338
 2578W        W67805  38.127  21.501   1.870
 2579W        W67806   8.774  30.715  13.505
 2580W        W67807   5.136  32.614   3.057
 2581W        W67808  27.614  43.534   1.169
 2582W        W67809  44.506  15.112  14.352
 2583W        W67810   4.754  42.532   1.620
 2584W        W67811  29.056  18.254   2.398
 2585W        W67812  14.136  36.974   3.375
 2586W        W67813  41.247  17.174   5.358
 2587W        W67814  37.614  12.131  11.700
 2588W        W67815  34.127  28.220   4.651
 2589W        W67816  15.651  40.533   3.969
 2590W        W67817  35.028  40.743   3.706
 2591W        W67818  35.941  26.693  12.515
 2592W        W67819  17.417   6.454   0.530
 2593W        W67820  40.890   3.968   2.589
 2594W        W67821  43.664  30.575  13.456
 2595W        W67822  24.018  31.024  11.425
 2596W        W67823  40.532  17.039   2.884
 2597W        W67824   5.308   2.816  10.980
 2598W        W67825   4.583  33.385   4.048
 2599W        W67826  18.052  12.730   3.232
 2600W        W67827  26.166   7.817  14.323
 2601W        W67828   7.952  14.010  10.257
 2602W        W67829  28.140  25.445  14.782
 2603W        W67830  35.948  10.698  10.699
 2604W        W67831  42.774  22.274  11.338
 2605W        W67832  25.651  19.007  13.856
 2606W        W67833  36.173  14.865  11.286
 2607W        W67834   9.281   8.376  10.547
 2608W        W67835  19.331  28.487  13.400
 2609W        W67836   1.343  40.163   0.895
 2610W        W67837  10.465  11.497   4.512
 2611W        W67838  39.066  27.446  11.684
 2612W        W67839  14.858  31.636  14.865
 2613W        W67840  20.268  44.457  13.564
 2614W        W67841  10.424  31.997   2.651
 2615W        W67842  25.119   5.831  14.029
 2616W        W67843  41.219  22.165  10.531
 2617W        W67844  28.011  33.477  14.589
 2618W        W67845  43.344   1.951   1.489
 2619W        W67846   2.159  24.501  14.030
 2620W        W67847  26.533  26.674   3.056
 2621W        W67848   8.546  29.919  12.467
 2622W        W67849   6.764  22.245  13.049
 2623W        W67850  21.036  13.893  12.573
 2624W        W67851   4.189  33.500   1.874
 2625W        W67852  15.887   6.333   3.174
 2626W        W67853  16.594  14.829  12.018
 2627W        W67854  26.348  23.114  11.031
 2628W        W67855  21.245   8.927  13.967
 2629W        W67856  25.974   1.194   3.245
 2630W        W67857  20.749  35.590   2.175
 2631W        W67858  43.479  37.878   2.782
 2632W        W67859  16.706   5.345  14.028
 2633W        W67860  12.587  20.340  10.701
 2634W        W67861  17.804  10.748  12.494
 2635W        W67862   9.914  34.625   4.552
 2636W        W67863  36.082  24.616  13.297
 2637W        W67864  11.831  15.227   0.260
 2638W        W67865  24.181  22.097  11.629
 2639W        W67866  10.564  32.361  12.098
 2640W        W67867  10.157  14.804  13.965
 2641W        W67868   2.779  11.765   1.539
 2642W        W67869  25.442   8.038  12.516
 2643W        W67870  15.353  40.040  14.802
 2644W        W67871  44.097   4.799  10.046
 2645W        W67872  30.377  36.622   0.830
 2646W        W67873  33.630  22.963   2.863
 2647W        W67874  17.711   9.617   4.705
 2648W        W67875  40.145  34.180   1.019
 2649W        W67876  37.771  18.072   3.607
 2650W        W67877  25.408   0.205  11.770
 2651W        W67878  22.102  15.518  11.549
 2652W        W67879  28.110  22.995   1.298
 2653W        W67880  37.560  17.238   3.662
 2654W        W67881  25.169  44.573   0.701
 2655W        W67882  35.400  40.889   2.947
 2656W        W67883  22.530  36.043   3.269
 2657W        W67884  30.082  27.138   1.741
 2658W        W67885   0.312   2.977  14.402
 2659W        W67886  33.484   6.860   3.788
 2660W        W67887  24.553   0.479  14.922
 2661W        W67888  41.383  39.364  12.344
 2662W        W67889  32.542  10.670  12.140
 2663W        W67890  25.416   2.766   1.859
 2664W        W67891   1.876   6.837  10.377
 2665W        W67892  22.191  39.996   1.240
 2666W        W67893  11.512  25.911  14.986
 2667W        W67894  12.269   9.624  11.719
 2668W        W67895  38.864  12.752  14.508
 2669W        W67896  15.667  20.643   3.820
 2670W        W67897  26.610  25.137   3.546
 2671W        W67898   3.827   1.106  14.724
 2672W        W67899  34.343   0.778   3.439
 2673W        W67900  26.636  23.817  14.755
 2674W        W67901   8.799  28.663   3.960
 2675W        W67902  19.012   4.720  14.817
 2676W        W67903  14.260  20.441   2.200
 2677W        W67904  14.698  31.943   3.531
 2678W        W67905  16.727  44.695  10.690
 2679W        W67906  15.178  41.489   4.640
 2680W        W67907   5.867   1.311  11.769
 2681W        W67908  34.388   7.586   1.634
 2682W        W67909  34.098   9.428  14.466
 2683W        W67910  42.726   3.777  14.875
 2684W        W67911  33.578   1.007  12.529
 2685W        W67912  25.190  11.149  13.410
 2686W        W67913   6.392  22.459   1.633
 2687W        W67914   2.188  21.084  11.332
 2688W        W67915  32.193  28.034  14.897
 2689W        W67916  35.234   6.130   3.313
 2690W        W67917  31.679  23.536   4.207
 2691W        W67918  18.904  43.664   2.942
 2692W        W67919  30.798   3.237   4.483
 2693W        W67920  34.227  35.942  13.911
 2694W        W67921   3.999  14.545  11.261
 2695W        W67922   1.815  13.883  12.858
 2696W        W67923  16.292  33.469  10.341
 2697W        W67924  30.621  24.631   4.157
 2698W        W67925  20.698  11.376  11.923
 2699W        W67926  37.813  13.607   1.761
 2700W        W67927  10.316  41.248   2.901
 2701W        W67928   4.419  28.136   2.168
 2702W        W67929  20.085  18.012   4.905
 2703W        W67930   7.469  25.059   1.893
 2704W        W67931  33.193   4.078  10.976
 2705W        W67932   7.188  33.708   1.857
 2706W        W67933  37.139   9.926   4.115
 2707W        W67934  22.056  14.590   1.827
 2708W        W67935  16.487  25.110  11.089
 2709W        W67936  42.966   0.059  12.417
 2710W        W67937  22.642  18.679  10.739
 2711W        W67938  21.071  38.648   4.503
 2712W        W67939  41.554   4.068   3.780
 2713W        W67940  36.384  24.724  11.976
 2714W        W67941  19.744   7.323  11.930
 2715W        W67942  16.376   8.971  11.659
 2716W        W67943  40.985  21.780  11.764
 2717W        W67944  36.505  35.168   1.940
 2718W        W67945  20.079  18.191  14.513
 2719W        W67946  26.875  39.065  13.937
 2720W        W67947  26.386  21.678  10.383
 2721W        W67948  30.572   5.908  14.402
 2722W        W67949   8.814   2.792  12.162
 2723W        W67950   0.956  32.257   5.485
 2724W        W67951  28.743   3.727  11.495
 2725W        W67952  12.321  36.671   0.508
 2726W        W67953  27.085  38.280   0.224
 2727W        W67954  18.322  17.269  13.103
 2728W        W67955  24.087   0.158   0.748
 2729W        W67956   1.033  18.380  13.192
 2730W        W67957  27.973  21.794   0.648
 2731W        W67958  42.419  23.037  11.473
 2732W        W67959  44.355  30.054  11.532
 2733W        W67960  36.311   7.127   0.510
 2734W        W67961   7.865  15.258  12.078
 2735W        W67962  17.869  22.494  11.565
 2736W        W67963  24.198  13.349  11.545
 2737W        W67964  35.453  29.602   3.383
 2738W        W67965  15.140  39.721   0.870
 2739W        W67966   9.639  36.840  14.892
 2740W        W67967   9.736   9.900   1.307
 2741W        W67968  20.857   7.336  12.912
 2742W        W67969  18.985  38.432   3.130
 2743W        W67970   9.159  26.031   2.772
 2744W        W67971  33.688   5.415  13.415
 2745W        W67972  13.077  35.583  10.555
 2746W        W67973   6.569   1.783  11.988
 2747W        W67974  22.968  31.125  14.944
 2748W        W67975  40.268  43.130  13.390
 2749W        W67976  15.100  24.545  12.354
 2750W        W67977   1.419   0.742   1.471
 2751W        W67978  44.862  28.696   4.703
 2752W        W67979  25.381  33.660   2.279
 2753W        W67980  28.123  23.545  12.920
 2754W        W67981  28.146  19.855  12.058
 2755W        W67982  17.551  39.571   4.549
 2756W        W67983   9.378  14.458  12.165
 2757W        W67984   8.970  30.141   0.812
 2758W        W67985  17.532   2.325   0.822
 2759W        W67986   0.505  29.465   3.219
 2760W        W67987  23.522  41.021  13.339
 2761W        W67988   7.347  19.347  13.315
 2762W        W67989  38.881  33.038   4.965
 2763W        W67990   9.792  25.243  11.988
 2764W        W67991   8.737  10.793   1.383
 2765W        W67992  30.937  18.605   2.454
 2766W        W67993  20.928  18.623   5.041
 2767W        W67994   3.146  14.552  10.831
 2768W        W67995  10.416  13.420   1.288
 2769W        W67996  18.787  37.816   3.543
 2770W        W67997   3.437  38.008  10.729
 2771W        W67998  37.991  11.694  12.849
 2772W        W67999  14.018  10.616  13.546
 2773W        W68000  20.813   5.718  11.192
 2774W        W68001   2.353  25.486  13.935
 2775W        W68002  20.840  36.920  13.358
 2776W        W68003   3.688  25.323  12.739
 2777W        W68004  35.931  33.398  12.669
 2778W        W68005  24.867  41.694  14.788
 2779W        W68006  32.438   9.431  13.859
 2780W        W68007  26.231  13.319   2.395
 2781W        W68008  40.672  21.214   1.421
 2782W        W68009  13.904  31.083  13.901
 2783W        W68010  36.486  34.139   3.385
 2784W        W68011  10.537  34.174   0.296
 2785W        W68012  32.436  20.862   2.739
 2786W        W68013  23.609   7.270  12.578
 2787W        W68014   9.935  15.636  13.444
 2788W        W68015   5.700  25.364  11.059
 2789W        W68016  20.813   5.173   0.314
 2790W        W68017   7.877  43.089   3.230
 2791W        W68018  31.435  35.637  13.104
 2792W        W68019  42.302  13.618  14.050
 2793W        W68020   8.597  14.608  13.287
 2794W        W68021   1.506  16.143  13.800
 2795W        W68022  39.260  35.318   0.062
 2796W        W68023  33.498  12.800  12.615
 2797W        W68024  10.644  28.750   0.313
 2798W        W68025   4.936  33.164   2.685
 2799W        W68026   5.201   9.312  13.844
 2800W        W68027  20.175  16.688   0.930
 2801W        W68028   5.623  15.013   0.762
 2802W        W68029  18.402  32.605   4.219
 2803W        W68030  44.049  11.130  13.232
 2804W        W68031  33.526  36.234  12.565
 2805W        W68032  28.032   7.808  12.633
 2806W        W68033  30.771  33.532  12.978
 2807W        W68034  16.060  15.186   1.596
 2808W        W68035  15.697  18.129  13.067
 2809W        W68036  20.813  43.273   4.155
 2810W        W68037  14.693  29.998  14.001
 2811W        W68038  35.940  25.167   3.089
 2812W        W68039  15.344  42.574   2.380
 2813W        W68040  42.806  41.843   4.907
 2814W        W68041  13.861  23.522   1.409
 2815W        W68042  22.146  28.443   1.452
 2816W        W68043  18.327  42.637  14.416
 2817W        W68044  23.181  19.549   1.216
 2818W        W68045  27.365  19.842  11.132
 2819W        W68046  35.137   4.779  13.434
 2820W        W68047  41.215  44.758   1.462
 2821W        W68048  29.947  10.228  11.357
 2822W        W68049  23.428  24.917   3.518
 2823W        W68050  31.615  24.590  14.744
 2824W        W68051  44.226  38.821   3.033
 2825W        W68052  31.163  18.528  10.736
 2826W        W68053  33.849   1.445  12.433
 2827W        W68054  32.949  23.562   0.441
 2828W        W68055  36.098   3.304  14.762
 2829W        W68056  22.456  18.858   4.169
 2830W        W68057  41.918  39.486  14.490
 2831W        W68058  37.462  10.354  11.624
 2832W        W68059  26.675   3.804  13.399
 2833W        W68060  33.200  38.057  12.416
 2834W        W68061   0.120  14.192   1.795
 2835W        W68062  37.366  25.980  13.300
 2836W        W68063  43.949  29.966   3.903
 2837W        W68064  43.264  10.138  12.814
 2838W        W68065  36.809  41.099   3.693
 2839W        W68066   7.436   8.303   2.556
 2840W        W68067  26.596   1.946   5.034
 2841W        W68068   8.143  10.793  14.403
 2842W        W68069  21.159   3.036   2.558
 2843W        W68070  22.661  43.278   2.392
 2844W        W68071  30.882  10.142   0.720
 2845W        W68072  41.448  22.866   2.098
 2846W        W68073  30.150  17.128   1.004
 2847W        W68074   7.474  20.364   4.488
 2848W        W68075  40.093  11.391   0.906
 2849W        W68076  27.457  25.017   1.302
 2850W        W68077  24.911  16.519  12.072
 2851W        W68078  30.843   2.361   2.229
 2852W        W68079  43.455   4.834   2.784
 2853W        W68080  32.974  11.192   2.710
 2854W        W68081  24.051   8.240  11.684
 2855W        W68082  29.075  19.584   0.022
 2856W        W68083  38.496  14.026  14.238
 2857W        W68084  17.822  42.226   2.290
 2858W        W68085  31.483  17.494   3.041
 2859W        W68086  35.651  23.508  13.487
 2860W        W68087   0.787  24.998  12.991
 2861W        W68088  36.386   0.936   4.994
 2862W        W68089  34.870   6.214   2.200
 2863W        W68090  27.180   1.524  14.382
 2864W        W68091   2.188  25.725  12.096
 2865W        W68092  38.369  17.112   3.252
 2866W        W68093   7.780   0.406  13.190
 2867W        W68094  38.002   6.972   2.776
 2868W        W68095   8.373  14.616   5.017
 2869W        W68096  27.619  17.057   4.211
 2870W        W68097  26.464  42.011  12.424
 2871W        W68098  42.293  33.868   3.035
 2872W        W68099  42.957  25.970  14.546
 2873W        W68100   7.971  43.334  12.936
 2874W        W68101  23.591   8.379  10.836
 2875W        W68102  27.737  34.884   2.037
 2876W        W68103  22.178  27.494  13.770
 2877W        W68104  25.450  27.681   4.181
 2878W        W68105  43.739   0.293  11.622
 2879W        W68106   3.225   4.213  12.484
 2880W        W68107  24.689  11.988  13.356
 2881W        W68108  12.807   2.285  13.507
 2882W        W68109  12.472  30.327   0.826
 2883W        W68110  23.732  22.950   3.702
 2884W        W68111  24.103  38.748   3.187
 2885W        W68112  14.732  38.075  11.583
 2886W        W68113  11.040  39.839  14.704
 2887W        W68114  20.041  17.139  13.909
 2888W        W68115  25.534   8.619   4.955
 2889W        W68116  26.962  33.985   1.877
 2890W        W68117  15.656  19.803   2.453
 2891W        W68118  42.286  15.755   2.836
 2892W        W68119  31.977   2.661  13.316
 2893W        W68120   8.748   8.659   2.235
 2894W        W68121  15.027  43.050  12.588
 2895W        W68122   4.325  41.363  12.484
 2896W        W68123  31.643  12.829   2.294
 2897W        W68124  35.104  35.059   2.307
 2898W        W68125  13.791  17.556   2.834
 2899W        W68126  32.926  24.220   4.157
 2900W        W68127  32.940  13.780   1.803
 2901W        W68128  35.369   0.682  10.706
 2902W        W68129   3.968   7.134   4.939
 2903W        W68130   1.449  10.240   4.776
 2904W        W68131  44.862  25.845  10.815
 2905W        W68132  10.350   2.225   3.699
 2906W        W68133  31.627  29.164   2.743
 2907W        W68134  11.770  39.511   4.815
 2908W        W68135  19.280  20.679   0.305
 2909W        W68136   9.888   9.575  14.971
 2910W        W68137  10.394  30.045  12.402
 2911W        W68138  38.182   3.619  14.486
 2912W        W68139  34.286  42.533  11.501
 2913W        W68140  18.008  12.208   0.261
 2914W        W68141   6.442  33.078   3.890
 2915W        W68142  19.314   5.119   0.516
 2916W        W68143  36.915   6.737  12.558
 2917W        W68144  16.263  26.525   4.343
 2918W        W68145  15.451  27.659   1.359
 2919W        W68146  31.858  20.603   0.862
 2920W        W68147   8.743  29.275  14.523
 2921W        W68148  43.909  23.806  14.522
 2922W        W68149   6.219  34.975  14.429
 2923W        W68150  30.688  29.576   0.311
 2924W        W68151   7.401  35.088   1.385
 2925W        W68152  33.552  35.677  12.861
 2926W        W68153  23.544  34.544  12.026
 2927W        W68154  34.154  28.460   3.217
 2928W        W68155  28.509   8.345   0.172
 2929W        W68156   7.194  12.969   4.407
 2930W        W68157  38.387  43.278   1.857
 2931W        W68158  37.311  13.678   0.518
 2932W        W68159  27.272  23.144   2.995
 2933W        W68160  11.330  21.168   4.536
 2934W        W68161  21.034  11.512   0.295
 2935W        W68162  36.648  16.527  14.757
 2936W        W68163  33.920  32.009  13.746
 2937W        W68164  28.503  22.626   0.900
 2938W        W68165   2.835   8.443   0.332
 2939W        W68166  28.090  29.736  12.731
 2940W        W68167  13.332  40.821   2.826
 2941W        W68168  13.720  35.278  13.175
 2942W        W68169  33.895  35.916   0.646
 2943W        W68170  12.814  28.123  14.356
 2944W        W68171  30.103   3.035  13.096
 2945W        W68172  31.633  27.058   2.037
 2946W        W68173  29.400  23.248   4.271
 2947W        W68174  29.488   8.974   3.734
 2948W        W68175   0.893  33.873   1.331
 2949W        W68176  32.009  34.137   1.203
 2950W        W68177  17.954  18.956  11.154
 2951W        W68178  12.830  18.338   4.415
 2952W        W68179  34.811  37.344  12.033
 2953W        W68180  30.209  28.672   4.113
 2954W        W68181  23.786  30.346  14.978
 2955W        W68182  16.126  42.565  13.060
 2956W        W68183   0.376  38.851  12.208
 2957W        W68184  19.772  36.894   1.945
 2958W        W68185  29.392  12.286   2.607
 2959W        W68186   3.286  44.991  12.523
 2960W        W68187   0.778  36.638   0.102
 2961W        W68188  30.036  14.344  13.958
 2962W        W68189  31.961   0.521   3.171
 2963W        W68190  19.020  33.200   3.201
 2964W        W68191  33.331  34.230   0.242
 2965W        W68192  27.528  43.814   2.790
 2966W        W68193  22.838  21.198   2.784
 2967W        W68194  25.012  25.152   0.813
 2968W        W68195  11.839   5.219   0.032
 2969W        W68196   2.855  36.146   0.395
 2970W        W68197  41.931  18.349   0.826
 2971W        W68198  29.398  17.485  12.546
 2972W        W68199  29.024  38.158  14.445
 2973W        W68200  13.634  24.729  11.758
 2974W        W68201  35.822  43.256   2.340
 2975W        W68202  29.399  43.417   2.346
 2976W        W68203   6.349   4.838   1.441
 2977W        W68204   2.105  24.656   4.221
 2978W        W68205  22.966  30.017  14.898
 2979W        W68206   6.943   7.959   1.883
 2980W        W68207  35.593  11.071  11.899
 2981W        W68208  13.643   9.138   3.272
 2982W        W68209  36.315  35.439   3.797
 2983W        W68210  42.838   2.488  13.076
 2984W        W68211   0.221   4.187   2.730
 2985W        W68212  24.743  35.876   3.705
 2986W        W68213   6.394  36.866  13.880
 2987W        W68214  12.094  24.156   0.162
 2988W        W68215   1.176  26.202  12.310
 2989W        W68216  29.122  23.999  11.083
 2990W        W68217  36.333   2.359  13.655
 2991W        W68218  10.136  31.441   4.006
 2992W        W68219  39.849  23.207  12.557
 2993W        W68220  39.518   5.714  13.096
 2994W        W68221   4.195  32.436   4.189
 2995W        W68222  22.984   0.722   0.285
 2996W        W68223  38.322  29.068   1.317
 2997W        W68224  43.070  43.927   3.559
 2998W        W68225  28.763  40.198   3.243
 2999W        W68226   2.688  25.121   2.737
 3000W        W68227   0.271   1.756  12.644
 3001W        W68228   8.673  26.938   2.268
 3002W        W68229  33.348  22.590  14.365
 3003W        W68230  39.964  42.070   2.097
 3004W        W68231   9.190  38.904  12.049
 3005W        W68232   8.953  24.944   0.941
 3006W        W68233   0.267  29.736  12.195
 3007W        W68234  17.567  44.068   2.836
 3008W        W68235   9.359  38.532   4.629
 3009W        W68236   8.961  15.592   2.290
 3010W        W68237  35.315  26.899  14.858
 3011W        W68238  43.163  11.233  14.105
 3012W        W68239  19.420  12.023   3.056
 3013W        W68240  38.108  13.077  14.283
 3014W        W68241  39.976  41.079  14.914
 3015W        W68242  33.467  27.992  10.020
 3016W        W68243   9.256  29.076  10.576
 3017W        W68244   5.003  35.345  11.986
 3018W        W68245  35.422  19.286   4.705
 3019W        W68246  44.110  29.707   2.277
 3020W        W68247  28.739  36.938   5.446
 3021W        W68248   7.953  26.597  14.319
 3022W        W68249  29.390  34.602  14.947
 3023W        W68250   4.344  41.835   1.642
 3024W        W68251  28.546   9.633  13.022
 3025W        W68252  39.018   8.706  13.458
 3026W        W68253  17.062  19.033  11.143
 3027W        W68254  13.923  38.734   3.716
 3028W        W68255  17.716  22.585  14.035
 3029W        W68256  41.014  23.042   2.348
 3030W        W68257  24.125   2.764  14.844
 3031W        W68258  13.383  22.727  10.756
 3032W        W68259  14.812  10.324  12.486
 3033W        W68260   3.042  15.817  12.811
 3034W        W68261  14.757  39.352   1.780
 3035W        W68262  18.260  25.675  12.034
 3036W        W68263   2.039  26.066   0.394
 3037W        W68264  19.203  19.317  13.825
 3038W        W68265  15.833   9.662  13.758
 3039W        W68266  42.436  30.704   2.434
 3040W        W68267  22.213  21.129  13.970
 3041W        W68268  35.685  12.645  13.865
 3042W        W68269  15.555  37.176   3.645
 3043W        W68270  42.225   7.742   3.303
 3044W        W68271  30.171  19.132  11.260
 3045W        W68272  37.030   7.217  13.550
 3046W        W68273  26.954  10.194  14.845
 3047W        W68274  14.245  33.413   2.762
 3048W        W68275  36.370  29.814   2.908
 3049W        W68276   0.298  12.706  12.460
 3050W        W68277  34.767  30.102  11.883
 3051W        W68278  40.883  21.550   4.603
 3052W        W68279  44.618  26.880   3.794
 3053W        W68280  18.109  13.148  11.421
 3054W        W68281  27.496  44.887  11.082
 3055W        W68282   4.189   6.307  12.315
 3056W        W68283   5.575   1.666   4.571
 3057W        W68284  43.813  14.743  12.023
 3058W        W68285  19.803   0.744  10.950
 3059W        W68286  24.496  30.975  11.625
 3060W        W68287  12.975  11.813   0.733
 3061W        W68288  37.671   2.348  13.700
 3062W        W68289  30.955  19.372  10.638
 3063W        W68290   5.292  11.792   1.331
 3064W        W68291  14.965  43.491  13.504
 3065W        W68292   8.874  32.121   2.827
 3066W        W68293  26.980  26.950  13.984
 3067W        W68294   9.205  23.365   0.784
 3068W        W68295  33.990   1.898  13.997
 3069W        W68296  30.177  21.140   1.675
 3070W        W68297  13.891  37.836   1.385
 3071W        W68298  21.442   2.398  13.935
 3072W        W68299  20.643  39.502   4.731
 3073W        W68300  10.899  40.402  12.122
 3074W        W68301  24.659  25.473   3.251
 3075W        W68302  11.417  23.387   4.186
 3076W        W68303  28.178  33.722   4.646
 3077W        W68304  44.781  44.415  14.421
 3078W        W68305   3.768  19.695  13.658
 3079W        W68306   5.133   5.577   0.989
 3080W        W68307  33.989  10.976   3.648
 3081W        W68308   5.944  17.948  12.456
 3082W        W68309  38.074   3.762   1.133
 3083W        W68310  24.505  34.731  12.537
 3084W        W68311  19.942  19.065  13.398
 3085W        W68312  21.689  30.839  11.147
 3086W        W68313  37.821  44.339   0.160
 3087W        W68314  29.036  10.741   2.791
 3088W        W68315   6.434  14.378   2.309
 3089W        W68316  25.664  34.468   0.825
 3090W        W68317  39.569  37.447  10.568
 3091W        W68318  26.585  39.488  10.662
 3092W        W68319  42.016   0.705  12.174
 3093W        W68320  10.076  23.092  11.541
 3094W        W68321  34.899  23.906  13.385
 3095W        W68322  20.015   3.180  13.378
 3096W        W68323   8.943   8.326  11.292
 3097W        W68324   3.962  40.095   4.056
 3098W        W68325  30.214  33.548  11.186
 3099W        W68326  14.622  23.603  11.267
 3100W        W68327  24.706  15.135   3.924
 3101W        W68328   8.854  41.670   0.931
 3102W        W68329  25.047  28.899  14.238
 3103W        W68330  25.198  44.799  14.160
 3104W        W68331  36.505   3.102  12.416
 3105W        W68332  41.825   0.441  14.112
 3106W        W68333  37.597  39.912   3.648
 3107W        W68334  11.871  22.921   3.262
 3108W        W68335  41.281  36.342  12.384
 3109W        W68336  35.534  29.406  12.867
 3110W        W68337  32.587  13.772   0.829
 3111W        W68338  26.040  28.937  11.118
 3112W        W68339   4.656  20.808   3.904
 3113W        W68340  17.601  22.722   3.429
 3114W        W68341   5.516  19.835   5.222
 3115W        W68342  34.674  30.104   1.742
 3116W        W68343  15.613  19.046   1.055
 3117W        W68344  22.931  20.017  14.787
 3118W        W68345   7.869  36.803   3.754
 3119W        W68346  17.290  41.216   2.337
 3120W        W68347  30.117  16.836   2.865
 3121W        W68348   8.429   0.191  13.938
 3122W        W68349  28.603  17.863  10.991
 3123W        W68350  12.273  11.160   2.818
 3124W        W68351  28.509  34.879   4.123
 3125W        W68352  16.069   3.227   0.336
 3126W        W68353  30.988  37.083   2.201
 3127W        W68354  23.128  38.719   2.235
 3128W        W68355  12.154  35.385  14.512
 3129W        W68356   9.251   5.091   1.773
 3130W        W68357   9.944  39.343   4.805
 3131W        W68358  19.176   6.273   0.925
 3132W        W68359  34.841  39.376  13.881
 3133W        W68360  39.083  24.784   3.611
 3134W        W68361  20.283  25.596   0.786
 3135W        W68362   3.104   0.815   0.169
 3136W        W68363  26.011  25.349  11.117
 3137W        W68364   3.707  43.750   3.088
 3138W        W68365   1.294  35.891   3.736
 3139W        W68366  10.894  15.730   2.226
 3140W        W68367  38.833  24.672  11.192
 3141W        W68368  33.928  13.810  14.373
 3142W        W68369  19.718  27.740  11.977
 3143W        W68370  20.123  26.467   1.797
 3144W        W68371  17.926  41.993  12.074
 3145W        W68372  43.572  32.269   3.683
 3146W        W68373  12.185   3.882  10.667
 3147W        W68374  18.540  26.134  11.916
 3148W        W68375  15.220  28.198  11.621
 3149W        W68376  23.656  34.562   4.508
 3150W        W68377  15.141  21.273   1.869
 3151W        W68378   2.927  17.120   1.879
 3152W        W68379  11.310  14.600  10.409
 3153W        W68380  14.882  13.482  14.869
 3154W        W68381   3.362   9.298   5.232
 3155W        W68382  20.034  31.549  14.783
 3156W        W68383  26.435  38.585  12.670
 3157W        W68384  26.697  11.768   2.845
 3158W        W68385  39.025   4.326  11.467
 3159W        W68386  40.034  42.326   0.239
 3160W        W68387  43.368  28.436   3.386
 3161W        W68388  13.758   3.829   0.859
 3162W        W68389  34.365  20.508  11.577
 3163W        W68390  40.753  17.148   1.887
 3164W        W68391  38.398  18.805   2.762
 3165W        W68392  16.025   7.403  13.786
 3166W        W68393   8.158  42.559  12.333
 3167W        W68394   9.186  41.920  12.376
 3168W        W68395  19.025  38.109  11.215
 3169W        W68396  36.622  36.357   3.744
 3170W        W68397  22.480  27.257   0.879
 3171W        W68398  15.729  35.105   5.128
 3172W        W68399  14.215   9.730  13.108
 3173W        W68400  40.945  15.037   3.427
 3174W        W68401   2.411  35.444  13.920
 3175W        W68402  20.083  33.040   0.090
 3176W        W68403   7.865   8.126  12.089
 3177W        W68404  27.705  26.883   3.231
 3178W        W68405  12.347   6.788   1.977
 3179W        W68406   3.263   9.920  14.803
 3180W        W68407  27.428   5.853   4.124
 3181W        W68408  11.394  22.711   3.184
 3182W        W68409  31.394  24.809   0.734
 3183W        W68410  39.901  41.933   4.635
 3184W        W68411  17.368  30.977  12.470
 3185W        W68412  13.165  33.116  12.908
 3186W        W68413  36.877  18.116  10.909
 3187W        W68414  30.123  36.421  14.430
 3188W        W68415  19.739   1.216  12.119
 3189W        W68416  16.371  36.125  12.095
 3190W        W68417   4.634   9.559   5.059
 3191W        W68418  41.057   1.442  10.804
 3192W        W68419  21.996  38.138  11.203
 3193W        W68420   6.238  39.476  13.243
 3194W        W68421   4.289  37.827   4.658
 3195W        W68422  22.634   8.240  14.799
 3196W        W68423   2.194  18.566  12.573
 3197W        W68424  10.177   1.566   2.219
 3198W        W68425  34.898  26.706   2.299
 3199W        W68426  12.713   8.796  11.643
 3200W        W68427  25.115  17.804   2.497
 3201W        W68428  18.124  28.411  12.738
 3202W        W68429  44.742  37.601  11.158
 3203W        W68430  11.426  25.146   3.244
 3204W        W68431  37.840  31.350  11.173
 3205W        W68432   7.425  30.114  11.641
 3206W        W68433  39.349  43.993  13.596
 3207W        W68434  42.956   7.807  12.281
 3208W        W68435  35.681  40.275  12.959
 3209W        W68436  44.720  29.887   1.402
 3210W        W68437  21.134  38.128   4.518
 3211W        W68438  15.186  18.088  14.341
 3212W        W68439  12.900   4.678   3.766
 3213W        W68440   6.576  27.945   2.945
 3214W        W68441  32.829  39.412  12.883
 3215W        W68442  37.976  41.974   0.450
 3216W        W68443  31.656  34.662  12.280
 3217W        W68444  11.517  34.239   0.869
 3218W        W68445  13.430  35.720   1.844
 3219W        W68446   0.287  15.403   0.767
 3220W        W68447  34.879  22.298  10.550
 3221W        W68448  38.772  15.716  14.517
 3222W        W68449  11.789  18.108  14.818
 3223W        W68450  22.026  15.302  14.056
 3224W        W68451  18.019  27.651   0.367
 3225W        W68452  21.415   5.286   4.510
 3226W        W68453  27.183  16.623  12.425
 3227W        W68454  38.440  43.011   4.601
 3228W        W68455   4.334  32.846  10.716
 3229W        W68456   1.475  34.995  14.653
 3230W        W68457  13.703  10.103   1.195
 3231W        W68458  10.480   4.868  14.537
 3232W        W68459  38.070  24.600   3.397
 3233W        W68460   3.997  23.510   3.776
 3234W        W68461  40.056  10.988  12.468
 3235W        W68462  35.970  44.968   4.213
 3236W        W68463   2.797  13.219   3.099
 3237W        W68464  34.825  22.170   1.017
 3238W        W68465  23.062  16.667  13.412
 3239W        W68466  18.714  14.749  10.459
 3240W        W68467  40.271  40.589  12.050
 3241W        W68468  12.297  29.470  12.804
 3242W        W68469  36.443  15.174  14.985
 3243W        W68470  42.484  19.328   1.308
 3244W        W68471   8.972  39.836   4.074
 3245W        W68472   1.825   7.178   2.064
 3246W        W68473  26.135  40.353  14.756
 3247W        W68474  22.532  26.451  12.990
 3248W        W68475  34.579   5.895  11.934
 3249W        W68476   6.720   0.273   4.701
 3250W        W68477  19.059  17.346  11.016
 3251W        W68478  30.419  27.998   1.790
 3252W        W68479  24.424   9.451  14.327
 3253W        W68480  23.739   3.981   3.241
 3254W        W68481  44.815  16.680   1.645
 3255W        W68482   9.827  12.150   4.571
 3256W        W68483   5.110  43.403   5.005
 3257W        W68484  21.709  17.284   0.245
 3258W        W68485   3.272   3.803  12.796
 3259W        W68486  28.371  29.483  11.926
 3260W        W68487  13.904  44.814   4.274
 3261W        W68488  10.882   5.333  13.028
 3262W        W68489   3.357  11.742  14.414
 3263W        W68490   8.804  29.112   4.854
 3264W        W68491   8.915  36.035   1.832
 3265W        W68492  10.131   0.580  13.260
 3266W        W68493  30.684  36.165   0.666
 3267W        W68494   3.507   2.164   2.729
 3268W        W68495  35.363  38.607  12.681
 3269W        W68496   9.678  19.127   1.262
 3270W        W68497  15.935  14.394   3.688
 3271W        W68498  42.008   9.826   3.583
 3272W        W68499  12.370  38.435  13.860
 3273W        W68500  40.357  20.712  10.751
 3274W        W68501  17.698  10.768  13.964
 3275W        W68502  19.468  23.277  13.824
 3276W        W68503   7.346  32.481  10.456
 3277W        W68504   8.295   3.206   4.594
 3278W        W68505  18.203   1.411   4.157
 3279W        W68506  35.739  30.750  12.443
 3280W        W68507  42.289   3.953  14.093
 3281W        W68508  43.009  33.461   0.732
 3282W        W68509  32.094   8.692   0.071
 3283W        W68510  10.737  20.646  14.490
 3284W        W68511  15.787   3.654   1.721
 3285W        W68512  31.499  16.780  14.835
 3286W        W68513  10.970   8.338  14.234
 3287W        W68514  36.046  39.656   1.614
 3288W        W68515  14.274  42.537  14.826
 3289W        W68516  30.796  35.927   5.037
 3290W        W68517   2.014   9.791   3.350
 3291W        W68518   8.520   1.499  11.974
 3292W        W68519   7.340  31.528   4.730
 3293W        W68520  38.001  11.561   0.916
 3294W        W68521  11.412  35.746   5.432
 3295W        W68522   9.875  40.537  14.204
 3296W        W68523  14.621   5.336   0.005
 3297W        W68524   0.254  20.452   1.829
 3298W        W68525  42.329  10.089  12.836
 3299W        W68526  11.951  32.136  13.482
 3300W        W68527  37.813  24.125   0.269
 3301W        W68528  29.582  35.372   2.247
 3302W        W68529   2.486  21.638  13.397
 3303W        W68530   7.085  16.697  12.028
 3304W        W68531  40.386  23.973  13.062
 3305W        W68532  23.771  36.425   0.723
 3306W        W68533  15.781   1.659   0.469
 3307W        W68534   0.197  36.458   4.712
 3308W        W68535  40.343  19.515  10.000
 3309W        W68536   5.638  10.484  11.068
 3310W        W68537  16.732  16.323   3.528
 3311W        W68538  14.267  41.270   1.082
 3312W        W68539  18.290   7.793  13.793
 3313W        W68540  11.884   8.025   2.298
 3314W        W68541   2.077  15.490  12.985
 3315W        W68542   5.460  28.020   2.162
 3316W        W68543  22.302  34.167  12.364
 3317W        W68544  40.727  19.301  11.207
 3318W        W68545  25.603  34.012  12.640
 3319W        W68546  42.397  13.306   1.189
 3320W        W68547  10.723  42.970   2.321
 3321W        W68548   6.286  16.317  13.534
 3322W        W68549  24.624  23.248   4.057
 3323W        W68550  36.227  16.478   1.360
 3324W        W68551   4.900  10.671   1.275
 3325W        W68552  36.563  32.271  14.883
 3326W        W68553  13.198  17.323  13.866
 3327W        W68554  13.096  28.612  14.722
 3328W        W68555  25.918  31.847  14.940
 3329W        W68556  24.925  35.395   1.904
 3330W        W68557   9.905   1.362   1.170
 3331W        W68558  15.050  43.011   3.253
 3332W        W68559  40.412  19.483  14.829
 3333W        W68560  13.250  24.781   4.760
 3334W        W68561  44.961  43.024  14.011
 3335W        W68562  14.964  25.202  11.095
 3336W        W68563   9.408   8.449   4.664
 3337W        W68564   0.764   6.348   4.523
 3338W        W68565  34.629   5.371   1.467
 3339W        W68566  10.110  34.465   2.819
 3340W        W68567  32.139  21.933   1.247
 3341W        W68568  24.125  26.996   2.373
 3342W        W68569  17.596  30.085   4.523
 3343W        W68570  11.759   7.217  14.450
 3344W        W68571  40.866  35.130  11.621
 3345W        W68572  16.306  40.983   2.367
 3346W        W68573  31.326  10.405  12.567
 3347W        W68574  44.684  40.359  13.524
 3348W        W68575  32.416  10.747  14.010
 3349W        W68576  12.618   9.292   1.894
 3350W        W68577   8.128  38.376  14.820
 3351W        W68578   7.718  28.849  11.387
 3352W        W68579   2.055  35.566   1.115
 3353W        W68580  35.284  44.536  12.251
 3354W        W68581  31.657  25.617  13.415
 3355W        W68582  16.529   6.196  13.506
 3356W        W68583  40.031  43.906  10.406
 3357W        W68584  10.371  41.891  13.983
 3358W        W68585  12.773  43.387  12.173
 3359W        W68586   8.096  42.846   0.342
 3360W        W68587   2.146  34.441   2.905
 3361W        W68588  33.918  28.737  12.413
 3362W        W68589  42.787   9.919   3.113
 3363W        W68590  21.389   2.407  14.463
 3364W        W68591  30.567  15.753   4.493
 3365W        W68592  37.641  36.463   0.027
 3366W        W68593  42.076   0.962  13.411
 3367W        W68594  42.526   3.250  12.811
 3368W        W68595  35.896  17.777  11.250
 3369W        W68596  42.736  34.443   1.593
 3370W        W68597  29.572  38.636  13.401
 3371W        W68598  44.502  13.238  10.823
 3372W        W68599  18.053   2.628  14.879
 3373W        W68600  39.472  29.864  12.487
 3374W        W68601  19.079  28.409   3.086
 3375W        W68602  37.101  38.354  11.567
 3376W        W68603  28.920  35.492   4.582
 3377W        W68604  26.418   4.802   0.787
 3378W        W68605  21.661   0.442   9.931
 3379W        W68606  39.789  13.583   1.369
 3380W        W68607  10.716  35.364   2.819
 3381W        W68608  33.937  22.410  14.826
 3382W        W68609  38.849  25.548  11.173
 3383W        W68610  22.781  36.473   0.070
 3384W        W68611  12.370  25.559   4.100
 3385W        W68612  21.033  36.570  14.539
 3386W        W68613   5.688  10.430  12.302
 3387W        W68614  23.595  13.625  14.042
 3388W        W68615  18.280  23.784   4.201
 3389W        W68616  25.105  10.656  12.373
 3390W        W68617  22.901  27.686  13.397
 3391W        W68618  44.459  15.664  13.450
 3392W        W68619  26.386  11.466   0.819
 3393W        W68620  36.593  27.168  11.619
 3394W        W68621  14.631  21.901   0.458
 3395W        W68622  11.716  16.481  10.642
 3396W        W68623  13.170  38.126   0.592
 3397W        W68624  42.297   5.944  13.646
 3398W        W68625   5.186   8.323  11.104
 3399W        W68626  13.664   5.219  10.474
 3400W        W68627  28.463  34.076   4.425
 3401W        W68628  44.382   8.165  13.897
 3402W        W68629  11.326  32.343   2.301
 3403W        W68630   5.279   7.765   3.260
 3404W        W68631  15.091   8.378   4.501
 3405W        W68632  24.774  37.377   2.805
 3406W        W68633   1.753   2.859   2.647
 3407W        W68634   5.696  29.584   4.565
 3408W        W68635  35.955   0.584  12.064
 3409W        W68636  31.584  11.874  14.942
 3410W        W68637  11.376  18.289   0.947
 3411W        W68638  33.830   8.452  12.188
 3412W        W68639   4.873  20.610  12.183
 3413W        W68640  30.786  10.913   2.444
 3414W        W68641  27.917  17.552   0.703
 3415W        W68642   4.040  25.405   2.587
 3416W        W68643  32.105  21.413  10.994
 3417W        W68644  19.162  25.576   3.137
 3418W        W68645  30.051   6.554   1.677
 3419W        W68646  29.251  40.887   2.733
 3420W        W68647   1.311  32.588   1.704
 3421W        W68648  27.257  20.020   3.650
 3422W        W68649   2.726   4.866  12.451
 3423W        W68650  10.787  21.615  13.632
 3424W        W68651   1.785  15.559  12.112
 3425W        W68652  23.133  44.105  13.363
 3426W        W68653  15.067   2.438   3.088
 3427W        W68654   7.822  25.925   0.865
 3428W        W68655  22.432  30.075   2.733
 3429W        W68656  12.168  42.411   0.735
 3430W        W68657  31.213  15.193  11.685
 3431W        W68658  29.916  38.854  12.596
 3432W        W68659  40.827  41.886   0.244
 3433W        W68660  27.694  12.237  12.512
 3434W        W68661  30.502  17.568  14.416
 3435W        W68662  30.026  33.092  13.341
 3436W        W68663  29.959  31.385   4.363
 3437W        W68664  24.963  21.052   4.597
 3438W        W68665   3.491  28.967   3.476
 3439W        W68666  26.728  36.592  14.903
 3440W        W68667  37.338  40.747   2.742
 3441W        W68668   8.068   7.664  11.195
 3442W        W68669  13.387   1.840  12.380
 3443W        W68670  29.979  44.079  10.627
 3444W        W68671  26.952  44.341  12.496
 3445W        W68672  33.201  26.605  14.358
 3446W        W68673   5.251  18.113   3.778
 3447W        W68674  29.615  28.384  10.772
 3448W        W68675  17.100  29.904  10.885
 3449W        W68676  42.226  35.602   4.346
 3450W        W68677  30.203  39.712  14.796
 3451W        W68678  41.400  10.629  12.052
 3452W        W68679  13.163  23.808   1.895
 3453W        W68680  21.589   9.261   2.428
 3454W        W68681  13.362  16.069  12.587
 3455W        W68682  34.903  34.937  14.331
 3456W        W68683  12.085  33.719  10.785
 3457W        W68684  36.291  28.974  10.715
 3458W        W68685  24.019   8.177  12.616
 3459W        W68686  20.401  19.725  10.354
 3460W        W68687  13.920  42.391  12.246
 3461W        W68688   7.633  12.196  14.112
 3462W        W68689  12.010  39.740  14.905
 3463W        W68690  23.707  37.921   3.159
 3464W        W68691  32.623   0.751  12.555
 3465W        W68692  33.740   0.195   1.489
 3466W        W68693   7.155  11.150  11.068
 3467W        W68694  20.300  42.865  11.090
 3468W        W68695  37.467   3.809   1.825
 3469W        W68696   9.988  37.385   1.269
 3470W        W68697  26.232  36.089  12.449
 3471W        W68698  34.025  20.810   3.584
 3472W        W68699  40.438   9.564  14.945
 3473W        W68700  39.023  23.504  10.785
 3474W        W68701  15.847  37.574  11.437
 3475W        W68702  36.094  11.345  11.005
 3476W        W68703   9.851  28.632   1.810
 3477W        W68704  37.522  30.948   3.804
 3478W        W68705  37.324   3.384  11.218
 3479W        W68706   4.642  17.066   1.430
 3480W        W68707  39.000  22.659   2.130
 3481W        W68708  35.919   2.468   4.219
 3482W        W68709  24.152  12.643   3.364
 3483W        W68710  41.050   0.999   0.611
 3484W        W68711   7.756   8.870  13.618
 3485W        W68712   3.264  35.051  11.908
 3486W        W68713   9.795  24.500  12.655
 3487W        W68714  25.065  26.503   2.727
 3488W        W68715  41.295  44.245   0.836
 3489W        W68716  44.851  24.624  11.688
 3490W        W68717  39.602   2.342   1.636
 3491W        W68718  28.918  19.787   1.021
 3492W        W68719  42.042  31.843  10.299
 3493W        W68720  15.437  33.954  10.224
 3494W        W68721  29.273   5.003   1.918
 3495W        W68722  13.318  21.978  12.086
 3496W        W68723  23.888   6.803   0.134
 3497W        W68724   3.841   5.160  12.527
 3498W        W68725  23.894  24.765  14.823
 3499W        W68726  36.639  25.676   3.303
 3500W        W68727  26.243  27.444   0.334
 3501W        W68728  16.181  30.408  10.656
 3502W        W68729  18.930  25.513   2.169
 3503W        W68730  15.421  29.382   4.120
 3504W        W68731  16.177  35.730  13.555
 3505W        W68732  37.404  23.533  11.967
 3506W        W68733   3.336  36.121  14.785
 3507W        W68734  33.875   3.858   3.444
 3508W        W68735  33.448  28.976  12.440
 3509W        W68736  40.493  33.311  14.894
 3510W        W68737  26.671  11.648  13.405
 3511W        W68738  10.816  17.866  12.902
 3512W        W68739  30.472  34.236  13.649
 3513W        W68740  42.426  18.816  12.192
 3514W        W68741  44.522  42.318   4.761
 3515W        W68742  18.272   0.801  12.068
 3516W        W68743  25.635  20.495   3.991
 3517W        W68744  22.324  11.888   5.204
 3518W        W68745  22.571   2.814  13.897
 3519W        W68746  32.985  32.845  10.663
 3520W        W68747  39.455   8.899   0.851
 3521W        W68748  39.511  28.662  13.002
 3522W        W68749  40.030  16.287   0.269
 3523W        W68750   7.061  38.687  11.068
 3524W        W68751   8.900  42.859   4.632
 3525W        W68752  35.347  39.559  13.027
 3526W        W68753  10.212  27.982  10.437
 3527W        W68754  26.934   1.967  13.377
 3528W        W68755  37.770  40.324  13.501
 3529W        W68756  24.914  35.642   4.122
 3530W        W68757  11.601  15.311   4.112
 3531W        W68758  29.628  14.566   2.558
 3532W        W68759  23.635  30.492   0.450
 3533W        W68760  17.992  32.134  10.751
 3534W        W68761   1.428  37.374  12.796
 3535W        W68762  14.581  20.652   0.756
 3536W        W68763  30.101  23.576  12.167
 3537W        W68764  21.150  34.115  13.348
 3538W        W68765  31.111  28.978   4.099
 3539W        W68766  40.927  22.704   1.391
 3540W        W68767  36.845  43.270  11.400
 3541W        W68768  31.227  21.133  14.866
 3542W        W68769  41.361  42.244  11.985
 3543W        W68770   7.966  35.825  11.619
 3544W        W68771   6.419  34.952  10.361
 3545W        W68772  39.072  25.527   4.695
 3546W        W68773  13.552  20.181   3.795
 3547W        W68774   1.107  26.357   0.710
 3548W        W68775  29.611   9.582  13.398
 3549W        W68776  42.353  37.430   0.816
 3550W        W68777   9.263  18.750  11.170
 3551W        W68778   0.832   1.973   0.362
 3552W        W68779  12.237  23.745   1.940
 3553W        W68780  15.732   9.367   0.980
 3554W        W68781  18.336  27.169   2.879
 3555W        W68782  11.587   1.853   1.478
 3556W        W68783  36.983  13.941   1.649
 3557W        W68784  29.131  29.249  14.341
 3558W        W68785  43.594  44.791  11.481
 3559W        W68786   0.327  22.243   2.362
 3560W        W68787  25.618   5.170  11.990
 3561W        W68788  21.020  16.994  11.361
 3562W        W68789  30.098   2.380   1.720
 3563W        W68790   3.874   6.844  11.886
 3564W        W68791   7.255  32.948   1.371
 3565W        W68792  33.146   0.735  12.599
 3566W        W68793  29.986  19.046  14.881
 3567W        W68794  13.021  36.057   3.645
 3568W        W68795  36.892   0.246   4.067
 3569W        W68796   3.697   1.246  14.206
 3570W        W68797   3.202  15.830  11.937
 3571W        W68798  28.328  21.573   2.177
 3572W        W68799  35.588  35.410   3.254
 3573W        W68800  18.317  26.625   1.202
 3574W        W68801   6.117  18.068   1.414
 3575W        W68802  15.642  28.594  14.428
 3576W        W68803   6.404  23.914  12.761
 3577W        W68804  17.785  13.755   4.632
 3578W        W68805   5.233  40.555   3.895
 3579W        W68806  30.520  39.040   0.625
 3580W        W68807  26.899  40.966   0.663
 3581W        W68808  36.457  26.843  12.418
 3582W        W68809  31.604  16.723  12.393
 3583W        W68810   3.965  37.264  12.157
 3584W        W68811  33.181  14.544   0.369
 3585W        W68812  33.130  16.415  11.580
 3586W        W68813   0.481   7.696  14.475
 3587W        W68814  43.412   6.791   4.112
 3588W        W68815   8.995  36.378  14.004
 3589W        W68816  13.761  21.546   4.042
 3590W        W68817  17.124  39.396   3.716
 3591W        W68818  18.518  36.069  12.082
 3592W        W68819  17.020   0.479  11.240
 3593W        W68820  18.239   0.305  13.736
 3594W        W68821  17.145  32.979   1.143
 3595W        W68822   6.234  25.935   4.154
 3596W        W68823   5.288  35.853  13.985
 3597W        W68824   2.398  41.698   1.036
 3598W        W68825  36.960  28.341  14.198
 3599W        W68826  10.482  33.432   0.074
 3600W        W68827  33.078  34.906   1.648
 3601W        W68828   2.844  21.622  14.984
 3602W        W68829  19.128  34.806   4.542
 3603W        W68830   0.239  25.434  12.624
 3604W        W68831  36.001  10.757   1.346
 3605W        W68832  29.097  25.418  13.927
 3606W        W68833  24.426  23.562  11.235
 3607W        W68834  43.515  35.111   2.171
 3608W        W68835  30.402  23.576  13.531
 3609W        W68836  29.959  27.101  13.460
 3610W        W68837  34.511   5.745   0.239
 3611W        W68838  27.214   0.924   5.589
 3612W        W68839   4.514  17.589   2.380
 3613W        W68840  32.885  41.275  10.542
 3614W        W68841  37.944  11.252  13.815
 3615W        W68842  27.402  39.214   4.707
 3616W        W68843  20.207  44.440   2.867
 3617W        W68844   8.338   0.476  12.590
 3618W        W68845   9.636   9.851  14.569
 3619W        W68846  13.177  33.733   0.024
 3620W        W68847  21.571   1.598   0.796
 3621W        W68848  25.502  27.670  11.603
 3622W        W68849  34.481  39.490  11.897
 3623W        W68850  26.058  39.884   2.595
 3624W        W68851  25.199  21.597   4.583
 3625W        W68852  25.534  12.157   0.798
 3626W        W68853  14.043   3.960   1.307
 3627W        W68854   0.811   9.793   2.524
 3628W        W68855  37.795  42.866  14.788
 3629W        W68856  26.040  43.790   4.678
 3630W        W68857  33.019  10.303   3.178
 3631W        W68858  32.879   8.910   0.425
 3632W        W68859  24.904   9.286  14.401
 3633W        W68860   8.252   3.958  13.321
 3634W        W68861  13.003  12.047  11.150
 3635W        W68862   3.429  35.843  13.982
 3636W        W68863  36.587  40.841  10.771
 3637W        W68864  13.948  43.863  14.775
 3638W        W68865  22.526  23.749  14.025
 3639W        W68866   7.209  34.847  12.003
 3640W        W68867  26.510  28.548   0.715
 3641W        W68868  42.344  19.248   3.166
 3642W        W68869  32.712  26.135  13.945
 3643W        W68870  26.438  13.006   1.183
 3644W        W68871  30.046  34.408   3.104
 3645W        W68872  35.636  42.520   4.603
 3646W        W68873  10.776  43.825   2.897
 3647W        W68874  36.994  19.999   2.117
 3648W        W68875   6.124  21.807  11.952
 3649W        W68876  42.149  35.338  14.131
 3650W        W68877  36.019  36.914   3.603
 3651W        W68878  21.237  18.627   3.277
 3652W        W68879   0.139  24.541   2.275
 3653W        W68880   8.761  21.069  12.908
 3654W        W68881  34.962  12.397   0.540
 3655W        W68882  25.757  34.364  11.158
 3656W        W68883  12.859  21.102  14.180
 3657W        W68884  32.798  17.483   5.089
 3658W        W68885  38.417   0.562   4.626
 3659W        W68886  35.553   6.836   2.351
 3660W        W68887   6.656  35.425   3.565
 3661W        W68888  29.773  44.820   2.115
 3662W        W68889  42.950  42.123   1.432
 3663W        W68890  34.010  24.427   2.719
 3664W        W68891  35.068  40.488  11.699
 3665W        W68892   4.545  14.165   0.431
 3666W        W68893  44.922   7.207  13.079
 3667W        W68894   2.868  36.338  14.924
 3668W        W68895   6.732  10.334  11.579
 3669W        W68896  40.203  19.788   0.204
 3670W        W68897  38.011  36.168  11.996
 3671W        W68898  11.682   3.755  12.144
 3672W        W68899   0.489  42.969  11.157
 3673W        W68900  44.446  20.748  11.555
 3674W        W68901  13.174  40.378  11.077
 3675W        W68902  15.041  16.295   4.577
 3676W        W68903  26.752  24.676   0.121
 3677W        W68904  27.868  30.240  10.709
 3678W        W68905  41.577  12.139  10.592
 3679W        W68906  21.473  27.415  14.335
 3680W        W68907  28.228  31.329   1.399
 3681W        W68908  41.050  15.645  13.848
 3682W        W68909  41.582  42.944   5.033
 3683W        W68910  33.433  36.618   1.819
 3684W        W68911   2.928  13.758   3.125
 3685W        W68912  10.880  22.526   1.687
 3686W        W68913  35.047  11.693  10.420
 3687W        W68914  38.594  10.890  11.113
 3688W        W68915   5.193  30.117  13.845
 3689W        W68916  29.154  38.329   2.947
 3690W        W68917  41.993  37.395   4.496
 3691W        W68918  20.900  16.055   2.795
 3692W        W68919  28.065  10.422  12.988
 3693W        W68920  25.433  30.559   4.278
 3694W        W68921  32.105  30.022  11.305
 3695W        W68922  39.928  35.588  13.420
 3696W        W68923  28.486  24.742   0.357
 3697W        W68924  42.051  11.763   0.730
 3698W        W68925  13.728  31.845   3.561
 3699W        W68926   6.144  21.104  14.810
 3700W        W68927  20.016  15.305  12.237
 3701W        W68928  19.747   7.878  12.598
 3702W        W68929  21.539  10.601   3.189
 3703W        W68930  43.103  29.161   1.258
 3704W        W68931  12.549  29.022   2.165
 3705W        W68932  14.053   8.795   0.498
 3706W        W68933  11.300  33.308   1.294
 3707W        W68934  14.182  44.607  12.029
 3708W        W68935  28.526  13.600   0.973
 3709W        W68936  27.307  32.991  12.213
 3710W        W68937   6.673  42.410  10.426
 3711W        W68938  18.278  16.105   4.592
 3712W        W68939  13.692  30.636   2.707
 3713W        W68940  19.721  23.794   1.003
 3714W        W68941  34.499  17.263  14.593
 3715W        W68942  44.912  19.432   1.580
 3716W        W68943   3.329  15.160   3.664
 3717W        W68944  16.882  32.938   0.673
 3718W        W68945  34.946  31.577   4.327
 3719W        W68946  31.943  19.110  11.129
 3720W        W68947  19.643  16.597  11.140
 3721W        W68948  27.729  34.419  10.752
 3722W        W68949   8.732  14.368   4.074
 3723W        W68950  32.928  35.506  13.518
 3724W        W68951  14.602   5.860   1.710
 3725W        W68952  33.783  31.468  14.825
 3726W        W68953   1.742  42.233   0.157
 3727W        W68954  27.914  15.387   4.970
 3728W        W68955  35.768  33.698   1.827
 3729W        W68956   7.640  13.359   3.045
 3730W        W68957  26.156  13.349   0.876
 3731W        W68958  22.688  43.051   1.759
 3732W        W68959  31.285  15.543  12.090
 3733W        W68960  41.885   3.101   2.813
 3734W        W68961  19.730  18.556   0.945
 3735W        W68962  15.425  38.381  14.004
 3736W        W68963   2.041  40.010  11.565
 3737W        W68964   1.348  30.847  11.521
 3738W        W68965  43.696  33.113   3.175
 3739W        W68966  36.313  38.328   1.421
 3740W        W68967   6.945  22.152   3.810
 3741W        W68968   8.825   8.666   1.338
 3742W        W68969   3.292  33.003   4.078
 3743W        W68970  43.285  17.264  13.960
 3744W        W68971  26.971  44.330   3.882
 3745W        W68972  30.945  37.957   1.967
 3746W        W68973   4.796  23.532   4.851
 3747W        W68974  27.208  19.489   3.708
 3748W        W68975  23.156  21.764  11.511
 3749W        W68976  38.557  35.965  11.218
 3750W        W68977  21.801  31.647  12.405
 3751W        W68978  22.682   0.722   0.837
 3752W        W68979  41.009   8.866   0.324
 3753W        W68980   1.022  43.344   2.293
 3754W        W68981  29.147  28.485   2.973
 3755W        W68982  16.082  43.853   2.112
 3756W        W68983  10.819   9.711   0.356
 3757W        W68984  40.834  28.166   1.244
 3758W        W68985   4.213  12.929  10.997
 3759W        W68986  39.852  20.643  10.667
 3760W        W68987   3.241   7.134  13.004
 3761W        W68988   3.133   7.200  14.726
 3762W        W68989   5.672  27.502   2.307
 3763W        W68990  17.963  39.044  12.791
 3764W        W68991  31.737  21.665   0.376
 3765W        W68992  12.190  30.546   4.926
 3766W        W68993  31.857   8.156   1.876
 3767W        W68994  29.557   4.826  13.061
 3768W        W68995  18.580   2.241   0.804
 3769W        W68996  27.526  10.323   2.773
 3770W        W68997  13.713  40.883  14.829
 3771W        W68998   1.327   4.226   0.552
 3772W        W68999  23.904  17.847   5.062
 3773W        W69000  44.237  24.513   3.883
 3774W        W69001  32.909  18.119   3.681
 3775W        W69002   8.111   8.394  13.350
 3776W        W69003   8.350   8.200  11.993
 3777W        W69004  28.717  24.546  14.921
 3778W        W69005  28.840  36.552  12.476
 3779W        W69006  43.902   8.874   2.724
 3780W        W69007  23.631  16.105  14.486
 3781W        W69008  34.811  43.360  12.993
 3782W        W69009  28.329  41.112   0.337
 3783W        W69010  42.315  36.352   1.455
 3784W        W69011  26.088  39.905  11.176
 3785W        W69012  14.769  40.460   0.784
 3786W        W69013  12.250   4.278  12.546
 3787W        W69014  40.453   4.163   2.794
 3788W        W69015  37.525  29.176  13.394
 3789W        W69016  41.780  11.280   1.403
 3790W        W69017  36.244   8.147  14.299
 3791W        W69018  36.248  35.539  11.577
 3792W        W69019  14.358  18.275   0.171
 3793W        W69020  37.979   8.922   1.425
 3794W        W69021  20.665  33.386  11.465
 3795W        W69022   4.636  35.997  10.853
 3796W        W69023  27.470  16.045  14.591
 3797W        W69024   8.622  19.544  11.114
 3798W        W69025   2.164  25.031   0.304
 3799W        W69026  22.702   7.828   0.878
 3800W        W69027  22.667  32.445  14.935
 3801W        W69028   5.766   9.398   4.331
 3802W        W69029   7.060  11.532   1.380
 3803W        W69030   5.919  43.934  13.967
 3804W        W69031  36.804  33.983  13.086
 3805W        W69032   6.321   3.748   0.452
 3806W        W69033  11.878  38.790   1.874
 3807W        W69034  13.821   9.262   0.473
 3808W        W69035  27.178   0.280  14.058
 3809W        W69036  31.933   0.544   4.449
 3810W        W69037   0.331  34.214   3.820
 3811W        W69038  11.170  25.185  11.942
 3812W        W69039  15.628   5.366  13.795
 3813W        W69040   4.940  10.905   3.756
 3814W        W69041   9.408   4.239  11.988
 3815W        W69042  32.858  26.079  13.449
 3816W        W69043   3.166  14.758   4.912
 3817W        W69044  23.673  30.539   4.084
 3818W        W69045   5.601  10.639   3.645
 3819W        W69046   8.283  18.316   3.604
 3820W        W69047  41.792   4.901   4.702
 3821W        W69048   2.773  11.432   1.969
 3822W        W69049  31.773   4.562   4.466
 3823W        W69050  20.615   5.137   3.275
 3824W        W69051  26.745  25.452  13.371
 3825W        W69052   6.745  43.131  14.725
 3826W        W69053   3.832  31.682   0.008
 3827W        W69054  22.172  34.830   3.193
 3828W        W69055  37.379  36.451  10.666
 3829W        W69056  38.888  27.025   0.925
 3830W        W69057  33.984  36.874  13.874
 3831W        W69058   9.180  31.079  14.415
 3832W        W69059  43.810   9.692  10.875
 3833W        W69060  14.190   0.350   4.896
 3834W        W69061   1.491  25.530   1.145
 3835W        W69062  21.350  22.529  11.166
 3836W        W69063   9.739  10.149   2.883
 3837W        W69064   4.896  25.100   2.625
 3838W        W69065  43.889  40.538  11.504
 3839W        W69066  16.697  17.786   3.721
 3840W        W69067  33.840  24.610  12.519
 3841W        W69068  30.572  39.034  14.104
 3842W        W69069   9.054  32.800  12.757
 3843W        W69070  23.477  38.102   1.206
 3844W        W69071  30.580  41.865   1.944
 3845W        W69072   0.135  37.929  13.406
 3846W        W69073   4.050  13.664   2.835
 3847W        W69074  23.584  44.014  10.948
 3848W        W69075  21.064  28.194  11.573
 3849W        W69076  13.154  26.055   2.899
 3850W        W69077  41.794   8.970   0.688
 3851W        W69078  12.090   3.383  10.698
 3852W        W69079  40.337  16.853  11.513
 3853W        W69080  33.398  13.309  14.843
 3854W        W69081  33.607  34.834  12.027
 3855W        W69082  41.053  16.991   4.164
 3856W        W69083  13.570  21.996   2.755
 3857W        W69084  21.732  39.868  11.599
 3858W        W69085  26.914  44.789  12.985
 3859W        W69086   6.319  42.361   3.682
 3860W        W69087  18.016  37.729  11.170
 3861W        W69088  26.664   5.800   0.935
 3862W        W69089  13.221  13.804   2.697
 3863W        W69090   3.828  16.339  13.868
 3864W        W69091  43.940  37.306   0.885
 3865W        W69092  14.345  15.329  13.942
 3866W        W69093  18.202  18.732   1.136
 3867W        W69094   3.966  41.768  14.432
 3868W        W69095   1.936  34.855  14.841
 3869W        W69096   6.773   4.197  14.922
 3870W        W69097  25.183   7.792  12.889
 3871W        W69098  37.858  28.895  14.457
 3872W        W69099  20.580  24.196   2.766
 3873W        W69100   6.423  40.388  12.544
 3874W        W69101  30.201   8.062   2.490
 3875W        W69102  23.207  22.606  11.454
 3876W        W69103  36.985   6.443   4.426
 3877W        W69104  34.804  15.347  12.419
 3878W        W69105  41.811   1.612   1.184
 3879W        W69106  32.452  36.823  12.054
 3880W        W69107  13.534  11.928  11.102
 3881W        W69108  28.109  38.550   5.669
 3882W        W69109  37.112  38.521   0.233
 3883W        W69110  41.598  42.367   3.692
 3884W        W69111  25.637   4.880  13.763
 3885W        W69112  12.851  37.560   0.802
 3886W        W69113  38.401   1.839   4.939
 3887W        W69114   8.211  33.167   0.929
 3888W        W69115   2.454   1.432   2.013
 3889W        W69116   0.852  39.868   3.104
 3890W        W69117   4.824  17.223  11.927
 3891W        W69118  39.315  13.260   4.634
 3892W        W69119  16.367   6.201  14.957
 3893W        W69120  33.398  30.715  14.365
 3894W        W69121  29.338  33.802  14.287
 3895W        W69122  18.273  11.608  12.860
 3896W        W69123  44.204  10.776   2.397
 3897W        W69124  14.058  13.060  14.674
 3898W        W69125   0.976   4.240  14.460
 3899W        W69126  28.652  44.787  10.769
 3900W        W69127  24.989   1.435   1.164
 3901W        W69128  15.996  44.174   4.252
 3902W        W69129  14.592   0.743  11.167
 3903W        W69130  12.745  24.441   4.770
 3904W        W69131  27.586  11.904   3.250
 3905W        W69132  36.124  33.172  14.983
 3906W        W69133  25.829  42.411  11.919
 3907W        W69134  16.346  36.475   3.068
 3908W        W69135   6.407  31.519  11.476
 3909W        W69136  32.146  25.666  12.377
 3910W        W69137  21.084   5.436  14.783
 3911W        W69138   7.705   9.566  10.824
 3912W        W69139  37.055  22.774   5.094
 3913W        W69140  30.193  35.445   4.292
 3914W        W69141  22.732  11.311  13.817
 3915W        W69142  13.728  18.998   3.169
 3916W        W69143  17.102  39.663   2.364
 3917W        W69144  12.879  33.601   3.116
 3918W        W69145  30.330  30.593   1.195
 3919W        W69146  25.161   7.819  14.025
 3920W        W69147  44.773  28.574  10.976
 3921W        W69148  32.422   0.058  13.809
 3922W        W69149  25.831  21.787  14.153
 3923W        W69150  30.303  37.380   1.910
 3924W        W69151  36.348  22.027   0.721
 3925W        W69152  17.641  39.602   1.509
 3926W        W69153  24.248  30.068   1.838
 3927W        W69154  43.084  26.602   3.771
 3928W        W69155  25.502   7.572   0.872
 3929W        W69156  15.600  19.128   3.670
 3930W        W69157  26.067   4.649   4.543
 3931W        W69158  19.153  41.729  12.423
 3932W        W69159  24.249   8.331  11.231
 3933W        W69160  19.830  13.490  14.538
 3934W        W69161  39.712   6.822  13.909
 3935W        W69162   7.859  31.900  11.269
 3936W        W69163  17.151  18.288  11.719
 3937W        W69164  43.761  13.792  13.892
 3938W        W69165   1.976  22.587  13.533
 3939W        W69166  28.601  36.327   4.650
 3940W        W69167  26.444  29.541  14.920
 3941W        W69168  38.791  13.917  14.922
 3942W        W69169  38.278  36.748  10.818
 3943W        W69170  41.975  24.571  10.620
 3944W        W69171   2.101  40.450   3.360
 3945W        W69172   5.398  31.332  14.783
 3946W        W69173  40.613  40.436   4.801
 3947W        W69174   2.207  13.606   1.436
 3948W        W69175  28.893  25.008  14.641
 3949W        W69176  10.752  13.413   0.749
 3950W        W69177  38.111   0.404   3.717
 3951W        W69178  15.065  13.991  11.159
 3952W        W69179   9.388  15.239  13.868
 3953W        W69180  25.555  36.569  12.038
 3954W        W69181  18.424  29.508  10.797
 3955W        W69182  44.874  42.520  13.262
 3956W        W69183  12.820  29.323  12.134
 3957W        W69184  24.909  23.335  11.227
 3958W        W69185   0.106   4.056  10.913
 3959W        W69186   0.927   1.729  14.463
 3960W        W69187  15.732   6.493  12.340
 3961W        W69188  22.505  35.297  11.151
 3962W        W69189  31.680  24.225  11.145
 3963W        W69190   2.926  34.539   4.252
 3964W        W69191  38.924  14.151  10.840
 3965W        W69192  28.636  18.156   0.694
 3966W        W69193  18.216  16.543  12.152
 3967W        W69194  19.971  23.223  13.792
 3968W        W69195  13.629  23.565   4.232
 3969W        W69196  38.670   7.326  11.941
 3970W        W69197  12.687   6.911  13.127
 3971W        W69198   5.711  14.355  10.719
 3972W        W69199   4.448  13.228   3.665
 3973W        W69200   5.840  42.233   1.548
 3974W        W69201   4.412  38.594   1.326
 3975W        W69202  21.443  25.132   0.028
 3976W        W69203  15.849  26.070   2.220
 3977W        W69204   5.313  20.110   2.986
 3978W        W69205  32.638  25.595  12.178
 3979W        W69206  20.591  40.462   1.971
 3980W        W69207  39.910  25.553  10.969
 3981W        W69208   8.782   4.445   3.434
 3982W        W69209  16.517  14.074  14.794
 3983W        W69210  41.526  32.029  11.144
 3984W        W69211  31.731  18.084  11.190
 3985W        W69212  37.998  34.907   2.713
 3986W        W69213  39.138  25.308  10.381
 3987W        W69214   2.414   7.914   4.680
 3988W        W69215  13.444   9.873  13.586
 3989W        W69216  40.822   8.443   1.456
 3990W        W69217  18.936   1.767  13.641
 3991W        W69218  37.143  37.359  12.874
 3992W        W69219  36.284   7.699  12.375
 3993W        W69220   9.827  40.317   2.183
 3994W        W69221  38.392  27.120   0.884
 3995W        W69222   8.446  42.996  14.693
 3996W        W69223  17.243  18.153  10.891
 3997W        W69224  12.683   0.486   0.020
 3998W        W69225  41.949   7.199   1.618
 3999W        W69226  38.832  17.510   4.348
 4000W        W69227  32.083   1.669  11.334
 4001W        W69228  14.764   6.420  13.105
 4002W        W69229   3.865  24.158   2.296
 4003W        W69230  13.342  42.408   3.187
 4004W        W69231  37.927  28.453   0.855
 4005W        W69232  14.612   5.658   4.752
 4006W        W69233  17.125  28.933  10.723
 4007W        W69234  11.371   4.321  11.922
 4008W        W69235  17.187  18.123   1.876
 4009W        W69236  29.114  22.655  13.906
 4010W        W69237  40.051  27.192  14.547
 4011W        W69238   3.366  23.751   0.892
 4012W        W69239  39.428  22.532   3.856
 4013W        W69240  34.890  12.177   2.916
 4014W        W69241  11.262  11.819  11.420
 4015W        W69242  25.997  29.921  11.590
 4016W        W69243  37.491  23.915   4.994
 4017W        W69244  15.661   7.013   0.471
 4018W        W69245  16.598  44.141  11.877
 4019W        W69246  32.649  24.458   3.790
 4020W        W69247  28.871  20.499  14.971
 4021W        W69248  31.979  18.214   4.453
 4022W        W69249  13.447  22.794  11.679
 4023W        W69250  41.936  18.683  12.089
 4024W        W69251  10.257  14.597  13.017
 4025W        W69252  11.689  21.491  13.535
 4026W        W69253  10.224  22.250   0.308
 4027W        W69254  14.223  42.710  12.510
 4028W        W69255   5.982  29.004  12.972
 4029W        W69256  44.523   3.305  12.907
 4030W        W69257  14.310  28.531  14.987
 4031W        W69258  22.988   9.212  13.547
 4032W        W69259  31.522   7.783  12.996
 4033W        W69260   7.162   7.666  12.889
 4034W        W69261  10.950  14.157  11.206
 4035W        W69262  26.945  21.615  14.772
 4036W        W69263  42.394  28.070   1.248
 4037W        W69264  22.742  24.172  12.046
 4038W        W69265   8.634  15.542  14.873
 4039W        W69266   1.168  20.844  14.999
 4040W        W69267   9.832   0.795  11.636
 4041W        W69268  15.870  28.976   3.272
 4042W        W69269  42.969  33.060   1.658
 4043W        W69270  37.647  43.096  11.405
 4044W        W69271  23.560  35.035  10.700
 4045W        W69272  43.414  36.362  14.319
 4046W        W69273  36.447  25.361  13.594
 4047W        W69274   2.890  27.693   2.205
 4048W        W69275  33.922  24.430  13.307
 4049W        W69276  24.261  34.829  11.652
 4050W        W69277   1.448  30.608  13.571
 4051W        W69278  25.077  20.553  10.960
 4052W        W69279  32.415  42.204  14.393
 4053W        W69280  35.312  14.275  12.571
 4054W        W69281  39.630  34.875  12.908
 4055W        W69282  29.594  24.495  13.918
 4056W        W69283  42.917  43.321   3.256
 4057W        W69284   5.194  42.561  14.502
 4058W        W69285  36.669  19.768   3.622
 4059W        W69286  12.242  11.138   4.003
 4060W        W69287   1.864   5.538  13.950
 4061W        W69288  44.552   5.805  11.281
 4062W        W69289  35.559   9.349   3.865
 4063W        W69290  39.714   3.427  12.026
 4064W        W69291  40.530  15.408  12.162
 4065W        W69292  12.612  28.375  11.229
 4066W        W69293  41.816  37.698   4.121
 4067W        W69294  18.355  12.922   4.329
 4068W        W69295  25.380  35.681  10.774
 4069W        W69296  42.951  29.434   0.787
 4070W        W69297   9.372  19.743   0.745
 4071W        W69298  13.113  24.043   3.671
 4072W        W69299   9.708  21.702  13.388
 4073W        W69300  12.739  30.031   3.343
 4074W        W69301  24.430  26.045  11.133
 4075W        W69302  35.907  14.483  12.060
 4076W        W69303  43.866   1.319  13.123
 4077W        W69304  25.985  34.776   1.142
 4078W        W69305  18.714  12.573  13.401
 4079W        W69306  24.891  41.465   1.399
 4080W        W69307  36.573   4.711  14.422
 4081W        W69308  40.847  34.656  13.387
 4082W        W69309  13.440   2.281  12.128
 4083W        W69310  18.357  33.366  10.324
 4084W        W69311  19.128  18.834   1.777
 4085W        W69312   7.819  21.549   1.832
 4086W        W69313  27.022  20.950  11.179
 4087W        W69314  21.714   3.018  12.931
 4088W        W69315  11.720  43.940  14.336
 4089W        W69316   9.636  29.634  13.660
 4090W        W69317  41.578  10.896  12.455
 4091W        W69318  13.243  37.448   5.009
 4092W        W69319  21.710  27.424   3.347
 4093W        W69320  10.195   2.527  12.479
 4094W        W69321   1.356  44.000  13.432
 4095W        W69322   6.122  10.338  14.355
 4096W        W69323  13.131  41.243   4.296
 4097W        W69324  40.747  29.975   3.997
 4098W        W69325   6.850   6.264   3.682
 4099W        W69326  19.982  40.019  12.984
 4100W        W69327  32.103   2.199   2.708
 4101W        W69328  38.920   3.617   4.029
 4102W        W69329  40.893  43.623  14.182
 4103W        W69330  19.765  29.904  14.783
 4104W        W69331   8.292  25.010  11.103
 4105W        W69332  37.783  13.797   0.712
 4106W        W69333  31.033  21.209   4.613
 4107W        W69334   5.919  20.639   0.328
 4108W        W69335  42.035  42.413   4.329
 4109W        W69336  22.013   7.159  14.497
 4110W        W69337  21.526  14.701   1.739
 4111W        W69338  42.549  26.967  10.744
 4112W        W69339  18.576   9.483  11.642
 4113W        W69340  40.573  15.693   3.133
 4114W        W69341  32.004  28.545  13.792
 4115W        W69342   9.170   8.515   2.938
 4116W        W69343  33.807  24.892  14.225
 4117W        W69344  32.674  38.790   4.597
 4118W        W69345  23.313   5.303  12.072
 4119W        W69346  41.007  20.480  11.401
 4120W        W69347  44.913   5.664   4.747
 4121W        W69348  41.005   9.793  13.348
 4122W        W69349  10.651  10.030  14.908
 4123W        W69350  26.712   0.057  10.603
 4124W        W69351  23.422  33.533   0.352
 4125W        W69352  19.233  23.437  12.552
 4126W        W69353  10.287   7.514   4.070
 4127W        W69354   5.940  40.090   4.142
 4128W        W69355  29.071  40.256  14.664
 4129W        W69356  21.510   1.422  12.002
 4130W        W69357   5.243  42.520   2.200
 4131W        W69358   6.709  28.111  13.308
 4132W        W69359  24.632  30.648   3.990
 4133W        W69360  24.189   8.125  14.403
 4134W        W69361   3.269  12.311   0.752
 4135W        W69362  12.619   8.295   0.491
 4136W        W69363  21.867  39.454   3.821
 4137W        W69364  13.163  41.412  14.153
 4138W        W69365  27.738  14.344   1.702
 4139W        W69366  17.208  37.131  11.177
 4140W        W69367   4.277  35.184   4.572
 4141W        W69368  19.924  17.321   3.684
 4142W        W69369  18.786  39.786   0.416
 4143W        W69370   5.398  31.403  12.667
 4144W        W69371   6.931  28.276   4.716
 4145W        W69372  25.139  24.766  13.261
 4146W        W69373  42.311  26.753   0.920
 4147W        W69374  20.309  21.303  10.823
 4148W        W69375  26.095  40.302   1.695
 4149W        W69376  27.931  28.939   3.121
 4150W        W69377  18.801  19.311  12.061
 4151W        W69378  11.187  11.804  13.423
 4152W        W69379  17.676  31.509  12.953
 4153W        W69380  42.303  33.154  11.299
 4154W        W69381  18.240  19.137   4.799
 4155W        W69382  16.345  26.155   2.709
 4156W        W69383  10.436  44.466   2.793
 4157W        W69384  25.077  30.212   1.217
 4158W        W69385  25.928  10.767   3.690
 4159W        W69386   7.445  38.440   0.236
 4160W        W69387  22.490  14.864   1.620
 4161W        W69388  44.444   9.924   0.917
 4162W        W69389  14.556  43.956   2.621
 4163W        W69390  27.281   2.740   5.338
 4164W        W69391  38.778   9.913   2.415
 4165W        W69392   8.365   2.489  13.945
 4166W        W69393  38.533   2.881  10.343
 4167W        W69394  37.428  20.278   0.342
 4168W        W69395  23.435   8.723  12.082
 4169W        W69396   4.897  22.565   4.739
 4170W        W69397  44.234  42.878  14.900
 4171W        W69398  10.185   3.471   4.836
 4172W        W69399   7.157  29.463   1.885
 4173W        W69400  16.053  32.113  13.374
 4174W        W69401  17.829  33.531  10.590
 4175W        W69402  14.234  23.250  12.892
 4176W        W69403   9.050  43.640  12.861
 4177W        W69404   1.681  35.578  13.649
 4178W        W69405  28.462  40.742  11.053
 4179W        W69406  21.415  22.240   9.833
 4180W        W69407  14.392   6.700  11.954
 4181W        W69408  13.707  29.871   2.353
 4182W        W69409   0.435  34.171  13.864
 4183W        W69410  22.702   3.468   0.724
 4184W        W69411   9.683  10.961  12.893
 4185W        W69412   2.632  32.009  13.757
 4186W        W69413  28.971  43.926  12.087
 4187W        W69414  43.954   2.248  14.470
 4188W        W69415  18.124  22.132  14.519
 4189W        W69416   0.716   4.910   0.672
 4190W        W69417  23.216  20.597   0.821
 4191W        W69418   2.313  25.765  13.493
 4192W        W69419  35.593  31.605  11.692
 4193W        W69420  38.195  26.920   4.185
 4194W        W69421  16.181  11.626   0.486
 4195W        W69422   9.174   0.073   3.674
 4196W        W69423  23.521  40.568   2.199
 4197W        W69424  15.538  15.995   2.195
 4198W        W69425  15.650   7.420   1.804
 4199W        W69426   1.933  44.231  11.982
 4200W        W69427  34.867  25.121   4.568
 4201W        W69428   5.413  14.692  11.594
 4202W        W69429   0.470  11.825   1.833
 4203W        W69430  39.954  28.075  12.508
 4204W        W69431  38.903  27.533   3.136
 4205W        W69432  15.862  44.228   0.610
 4206W        W69433  18.567  23.502   3.887
 4207W        W69434   3.757   2.428  10.212
 4208W        W69435  18.593  16.440  12.923
 4209W        W69436  23.035  40.580   1.289
 4210W        W69437   4.515   0.796  14.889
 4211W        W69438  15.613  12.769   2.607
 4212W        W69439  25.689  19.530   4.260
 4213W        W69440  38.967  40.863  11.720
 4214W        W69441  44.902  14.691  10.702
 4215W        W69442  40.046   6.795   0.824
 4216W        W69443  41.759  42.994  12.416
 4217W        W69444  14.004  33.591   5.126
 4218W        W69445  42.754  32.932   1.188
 4219W        W69446  19.851  19.286   2.416
 4220W        W69447  28.778   7.263   0.861
 4221W        W69448  17.707  15.800  14.953
 4222W        W69449  34.093   4.025  13.403
 4223W        W69450  31.211  26.504  14.380
 4224W        W69451  19.765  43.610   1.125
 4225W        W69452  10.358   3.380   3.836
 4226W        W69453  20.311  28.746  13.342
 4227W        W69454  41.367   6.206  12.408
 4228W        W69455   5.826  26.885  10.676
 4229W        W69456  13.955  41.430  12.570
 4230W        W69457  24.323  21.059   1.767
 4231W        W69458   8.350  43.854   4.430
 4232W        W69459  32.406  18.168   4.145
 4233W        W69460  18.486  13.360  11.094
 4234W        W69461  26.552  34.977  11.472
 4235W        W69462  39.247  28.160   0.823
 4236W        W69463  35.451   0.729   4.138
 4237W        W69464  23.978   5.765  14.316
 4238W        W69465  21.329  37.371   1.285
 4239W        W69466  42.491   7.544  12.120
 4240W        W69467  10.366  25.234   0.829
 4241W        W69468  36.445  20.594   3.578
 4242W        W69469  29.567   4.754   0.264
 4243W        W69470  16.702  11.390  14.556
 4244W        W69471  36.242  15.746  13.426
 4245W        W69472  11.084   5.710   2.463
 4246W        W69473  17.574  27.472   1.963
 4247W        W69474   3.169  30.718   0.444
 4248W        W69475  38.714   4.248   9.883
 4249W        W69476  43.347  39.029  13.383
 4250W        W69477  25.084   3.148  14.979
 4251W        W69478  11.819   2.668   0.899
 4252W        W69479  24.884   9.083  11.089
 4253W        W69480   3.310  40.347  11.693
 4254W        W69481  24.172   0.931  11.759
 4255W        W69482  41.067  43.023  12.112
 4256W        W69483  35.105  27.276   1.619
 4257W        W69484  10.267   4.479   4.654
 4258W        W69485  24.953  35.530  13.475
 4259W        W69486  37.937  27.370  11.110
 4260W        W69487  42.006  42.441   2.829
 4261W        W69488  25.553  14.576  11.262
 4262W        W69489   9.464  15.019   1.791
 4263W        W69490  31.795  21.712  11.822
 4264W        W69491  18.121   4.771  14.837
 4265W        W69492  18.696  39.314  13.899
 4266W        W69493  25.748  15.622  12.423
 4267W        W69494  29.277  26.475   1.545
 4268W        W69495  24.452  27.655  11.600
 4269W        W69496  36.296   3.568  14.116
 4270W        W69497   6.415  38.910   0.945
 4271W        W69498  24.506  37.156   0.068
 4272W        W69499   1.687  21.979  11.095
 4273W        W69500   2.872  12.707  14.687
 4274W        W69501  29.105   9.417  11.142
 4275W        W69502  20.730  43.649  11.858
 4276W        W69503  30.084   9.389  12.067
 4277W        W69504   5.361  14.898   0.298
 4278W        W69505  44.655  18.602   1.148
 4279W        W69506   5.934  17.633  12.059
 4280W        W69507  13.253   2.818  12.499
 4281W        W69508  37.316   6.841   4.500
 4282W        W69509  42.818  26.679  11.113
 4283W        W69510   9.546  28.364  13.517
 4284W        W69511  43.301  33.426  10.465
 4285W        W69512  11.256   5.927   0.411
 4286W        W69513  42.801   9.973  13.043
 4287W        W69514  12.733  17.011  13.846
 4288W        W69515  18.648   9.091   2.560
 4289W        W69516  16.187  33.405   2.105
 4290W        W69517   3.844  28.477  12.906
 4291W        W69518  38.371  14.277  12.444
 4292W        W69519  40.772  30.485  11.069
 4293W        W69520   7.424  42.925   3.417
 4294W        W69521  32.102  20.094  12.622
 4295W        W69522  15.651  39.733  14.464
 4296W        W69523  43.251   1.198   0.974
 4297W        W69524   4.356  13.445  11.471
 4298W        W69525  15.399  24.193   3.077
 4299W        W69526  36.338  18.357  13.887
 4300W        W69527  22.240  27.071  12.952
 4301W        W69528  27.583  17.459  10.736
 4302W        W69529  15.136   5.315  14.894
 4303W        W69530  36.051  44.369  11.625
 4304W        W69531   4.739  12.496   2.619
 4305W        W69532   7.279  20.733   2.244
 4306W        W69533  21.707   6.670  14.931
 4307W        W69534  44.362  32.549  14.148
 4308W        W69535  26.434   3.569  12.986
 4309W        W69536  40.854  42.879  11.220
 4310W        W69537   8.854  38.850  14.560
 4311W        W69538  35.802  16.394  12.398
 4312W        W69539   5.612   6.485   2.390
 4313W        W69540  28.700   6.589   2.433
 4314W        W69541  37.576   0.065   2.433
 4315W        W69542  33.055   4.180   3.701
 4316W        W69543   6.669  40.269  11.399
 4317W        W69544   7.706  16.791  10.633
 4318W        W69545  17.572  41.326   1.304
 4319W        W69546  17.006  12.068   3.221
 4320W        W69547  39.860  10.897   0.890
 4321W        W69548  41.957  39.017   3.118
 4322W        W69549  17.827  33.122  12.666
 4323W        W69550   2.738  42.501   3.154
 4324W        W69551  30.207   2.363  10.782
 4325W        W69552  18.665  41.593  14.513
 4326W        W69553  34.278  19.047  14.747
 4327W        W69554   9.217   1.068  13.450
 4328W        W69555  14.711   5.531   3.732
 4329W        W69556  17.326  20.211  12.652
 4330W        W69557  15.150  43.713   1.226
 4331W        W69558  17.356   3.506   0.746
 4332W        W69559  31.918  34.795   4.998
 4333W        W69560  19.733  32.517  12.437
 4334W        W69561  41.438   9.405  11.617
 4335W        W69562  16.620  20.135  12.541
 4336W        W69563  42.416  41.792  14.393
 4337W        W69564  17.076  30.806  14.022
 4338W        W69565  32.973  31.037   4.600
 4339W        W69566  28.083  39.045  13.987
 4340W        W69567  29.531  36.818   2.348
 4341W        W69568   8.810  19.541   2.118
 4342W        W69569  43.769  36.467  13.926
 4343W        W69570  11.615  41.832  14.391
 4344W        W69571  31.152  25.976  12.812
 4345W        W69572   0.251  16.508   2.819
 4346W        W69573  40.376  14.878   4.102
 4347W        W69574  14.208  24.758  12.949
 4348W        W69575  27.130  21.199   2.093
 4349W        W69576  43.697   1.030   2.656
 4350W        W69577  38.790   7.318   3.958
 4351W        W69578   7.966  26.332   1.635
 4352W        W69579  35.483  39.797  10.033
 4353W        W69580  40.544  14.324  11.498
 4354W        W69581  24.932  12.446  12.485
 4355W        W69582  12.507  25.258  12.607
 4356W        W69583   2.872  42.680  10.622
 4357W        W69584   1.238  30.549  12.516
 4358W        W69585  34.840  31.549   2.645
 4359W        W69586  35.106  38.409   2.894
 4360W        W69587  22.804  31.521  13.462
 4361W        W69588  17.719  40.122   3.810
 4362W        W69589  12.720  25.030   2.386
 4363W        W69590  13.116  25.943   3.397
 4364W        W69591  42.910  15.706   4.046
 4365W        W69592   0.536   8.347   3.897
 4366W        W69593  12.635  24.075   2.652
 4367W        W69594  24.901  13.256   5.022
 4368W        W69595   8.974   0.512  11.100
 4369W        W69596   3.516  35.868   5.017
 4370W        W69597  34.189  33.529  14.505
 4371W        W69598  22.216  32.263   2.844
 4372W        W69599  22.279   5.250  12.879
 4373W        W69600  11.837  43.325   4.238
 4374W        W69601  29.732  22.632   2.750
 4375W        W69602   2.267  11.790   1.429
 4376W        W69603   6.753  34.994   3.866
 4377W        W69604  39.460  19.282   2.545
 4378W        W69605  41.882   6.155  12.546
 4379W        W69606  18.010  25.700  13.953
 4380W        W69607  39.701  20.696   4.065
 4381W        W69608   0.646  26.249  11.508
 4382W        W69609  40.532  17.590  12.190
 4383W        W69610  35.521  27.918  11.187
 4384W        W69611   4.737  22.233   0.775
 4385W        W69612  36.292  15.633  14.840
 4386W        W69613  42.310  33.940   2.008
 4387W        W69614   8.917  27.587  13.466
 4388W        W69615  29.351   2.772  14.520
 4389W        W69616  36.319  15.626  11.210
 4390W        W69617   9.722  12.535   1.937
 4391W        W69618  33.114  11.280   1.434
 4392W        W69619   0.542  32.029   1.200
 4393W        W69620  11.029  17.884   4.703
 4394W        W69621   6.692   2.173  10.627
 4395W        W69622  44.624   0.922   1.805
 4396W        W69623  16.751   5.126  14.498
 4397W        W69624   4.467  27.831  10.279
 4398W        W69625  22.761  37.644   0.490
 4399W        W69626  12.527  31.651   1.283
 4400W        W69627  10.386  32.480  12.585
 4401W        W69628  23.057  19.282  11.050
 4402W        W69629  10.471   4.221   0.762
 4403W        W69630  29.690   5.513  11.924
 4404W        W69631  29.727  35.965   1.764
 4405W        W69632  13.806   6.754  14.949
 4406W        W69633  20.211  17.287  11.616
 4407W        W69634  22.435  40.133  11.194
 4408W        W69635  14.657  34.372  12.482
 4409W        W69636  14.881   2.421   4.905
 4410W        W69637   9.394  22.525  13.345
 4411W        W69638  42.742  31.824  12.383
 4412W        W69639  31.497   4.436  10.817
 4413W        W69640  32.245  33.380  10.261
 4414W        W69641  14.580  42.985   2.957
 4415W        W69642   9.696  32.936  12.199
 4416W        W69643  27.430   0.795  14.032
 4417W        W69644  20.017  40.413  14.446
 4418W        W69645  20.967  21.857   0.890
 4419W        W69646  41.949  11.123   4.664
 4420W        W69647  19.758   9.236   1.423
 4421W        W69648  25.233  14.446   4.981
 4422W        W69649  31.086   5.312  14.963
 4423W        W69650  18.631  35.197  10.657
 4424W        W69651  22.721  27.333   0.096
 4425W        W69652   9.516  24.665  13.552
 4426W        W69653  36.395   1.410  14.375
 4427W        W69654  13.540  24.391   2.453
 4428W        W69655   4.687  22.856  14.859
 4429W        W69656   3.448   2.420   4.822
 4430W        W69657  30.496  17.957   2.217
 4431W        W69658  27.105  17.317   0.890
 4432W        W69659  39.324  38.862  13.449
 4433W        W69660  39.777  12.327   0.810
 4434W        W69661  19.475  36.889  11.578
 4435W        W69662  26.215  30.192   4.355
 4436W        W69663   5.742  25.567   1.842
 4437W        W69664  40.773  19.689  14.503
 4438W        W69665   9.152  23.562  13.995
 4439W        W69666   8.449  37.417   0.642
 4440W        W69667  34.459  25.705   5.312
 4441W        W69668  12.085  25.704   4.552
 4442W        W69669  33.404  44.835   2.411
 4443W        W69670   3.577  21.745  14.453
 4444W        W69671  35.513  21.004   1.148
 4445W        W69672  18.284  10.243   2.300
 4446W        W69673  35.885   5.444  10.163
 4447W        W69674  35.613  12.601   4.258
 4448W        W69675   1.462  17.241   1.917
 4449W        W69676  23.959  26.987  11.157
 4450W        W69677  32.911   7.943   3.088
 4451W        W69678  23.706  18.684  14.639
 4452W        W69679  32.085  10.317  11.559
 4453W        W69680   9.778  36.685   4.975
 4454W        W69681   7.613  22.385   5.173
 4455W        W69682   7.888  40.730   1.607
 4456W        W69683   2.415   7.090  12.516
 4457W        W69684  11.802  31.875   3.241
 4458W        W69685  19.966  22.032   1.819
 4459W        W69686  26.904  31.698  10.519
 4460W        W69687  18.511   2.990  12.998
 4461W        W69688  14.902  11.414   0.947
 4462W        W69689  29.166  39.890  12.377
 4463W        W69690  43.345   8.925   1.660
 4464W        W69691   8.657  35.642   2.227
 4465W        W69692   1.384  37.917  12.904
 4466W        W69693   8.282  20.958  14.015
 4467W        W69694  29.010  15.685  11.201
 4468W        W69695  36.350  28.665   3.313
 4469W        W69696   6.282  33.121   1.432
 4470W        W69697  40.302  31.828   1.999
 4471W        W69698  26.755   9.796  12.565
 4472W        W69699   9.625  43.295  13.348
 4473W        W69700  11.667  41.325   3.366
 4474W        W69701  11.304  26.749   0.571
 4475W        W69702  35.426  28.493  12.397
 4476W        W69703   8.092  13.764   9.826
 4477W        W69704   9.459  35.348  12.640
 4478W        W69705  25.038  26.443  12.437
 4479W        W69706  25.730  16.601  11.167
 4480W        W69707  34.592   1.521   3.560
 4481W        W69708  31.635  19.244   4.141
 4482W        W69709  38.401   7.118   1.159
 4483W        W69710  37.356  25.109  12.939
 4484W        W69711  34.480  25.519  10.662
 4485W        W69712  12.680  16.323   2.149
 4486W        W69713  31.918  41.301   3.006
 4487W        W69714  38.986  22.536   4.109
 4488W        W69715  33.704  12.075  13.940
 4489W        W69716  26.110   6.439   0.898
 4490W        W69717  44.786   8.954   2.777
 4491W        W69718  22.202  30.705   3.936
 4492W        W69719  22.997   4.884  12.063
 4493W        W69720  34.011   3.461  10.481
 4494W        W69721  26.715  16.204  11.259
 4495W        W69722   2.792  32.418   3.521
 4496W        W69723  40.195  21.164   0.239
 4497W        W69724  44.302  10.334  13.097
 4498W        W69725  34.332   2.665   2.286
 4499W        W69726  11.130  11.894  12.306
 4500W        W69727   1.508  29.333   3.204
 4501W        W69728   3.567   8.184   3.509
 4502W        W69729   2.747  20.319  12.577
 4503W        W69730   8.713  11.941   0.274
 4504W        W69731  40.583   7.387   5.263
 4505W        W69732  24.007  43.989  13.295
 4506W        W69733  37.484  36.177  11.991
 4507W        W69734  21.584  28.953  10.593
 4508W        W69735  39.855   7.700   3.131
 4509W        W69736  12.226  14.320  12.478
 4510W        W69737  13.292  22.623  13.688
 4511W        W69738  31.915  12.121   5.162
 4512W        W69739  34.922  31.113   2.409
 4513W        W69740  11.165  29.591   1.743
 4514W        W69741  29.034  21.182   0.612
 4515W        W69742  14.316  23.237  13.743
 4516W        W69743  18.272  12.774  13.604
 4517W        W69744   2.675  30.722   0.336
 4518W        W69745  18.176   8.763   0.235
 4519W        W69746   3.016  28.272  13.542
 4520W        W69747  33.892  42.267  12.605
 4521W        W69748  35.093   2.632   1.748
 4522W        W69749   0.381  13.114   3.157
 4523W        W69750  29.309  39.311  10.924
 4524W        W69751  29.003  41.494   0.304
 4525W        W69752  20.697  32.556  13.387
 4526W        W69753  34.356  25.589   4.337
 4527W        W69754  17.804  44.929  14.714
 4528W        W69755  40.567   5.947   2.278
 4529W        W69756  39.862  15.514   3.732
 4530W        W69757  43.024  12.065  14.861
 4531W        W69758  40.060  14.842  13.750
 4532W        W69759  16.848   0.239   2.964
 4533W        W69760  29.955  22.149   4.625
 4534W        W69761   4.650   3.792   4.735
 4535W        W69762  40.019  38.011   2.705
 4536W        W69763   3.906  15.138   0.489
 4537W        W69764  44.520  22.130  12.179
 4538W        W69765  27.689   9.218  13.975
 4539W        W69766   4.511  10.482   0.931
 4540W        W69767  40.895   6.077  11.619
 4541W        W69768  36.885  13.420   0.384
 4542W        W69769  22.532  23.197   2.938
 4543W        W69770   1.335  16.740   2.344
 4544W        W69771  15.576  16.426  14.491
 4545W        W69772  38.155  44.863   1.263
 4546W        W69773  39.249  40.900   3.674
 4547W        W69774   9.383  21.664   4.456
 4548W        W69775  34.585  27.079   0.359
 4549W        W69776  11.930  24.500   0.541
 4550W        W69777  19.222  13.380   2.389
 4551W        W69778  29.647  43.451  12.596
 4552W        W69779  44.583  21.637  12.899
 4553W        W69780  14.295  16.406   3.437
 4554W        W69781  16.226  42.420   1.438
 4555W        W69782  26.116  41.815  14.407
 4556W        W69783   3.472  37.522  10.918
 4557W        W69784  25.470  13.170   1.779
 4558W        W69785  21.116  32.474   2.464
 4559W        W69786  20.239   7.786   3.686
 4560W        W69787  42.937  42.374   3.230
 4561W        W69788   7.765   3.891  13.118
 4562W        W69789  43.335  32.454  11.187
 4563W        W69790  25.109  24.273  13.385
 4564W        W69791  29.696  11.290  12.959
 4565W        W69792  31.487  42.757   3.663
 4566W        W69793   4.179  22.080  11.116
 4567W        W69794  27.437   3.328   0.307
 4568W        W69795  16.523  42.824  14.493
 4569W        W69796  38.551  23.188   4.499
 4570W        W69797  25.766   2.413   1.745
 4571W        W69798   7.345  30.510   4.649
 4572W        W69799  17.540  11.300   1.714
 4573W        W69800  35.979  23.881  13.259
 4574W        W69801  11.713  40.348  11.040
 4575W        W69802   4.280  42.514  12.023
 4576W        W69803  20.333  13.856   3.912
 4577W        W69804  42.030   5.994  14.922
 4578W        W69805  29.778  11.739   4.336
 4579W        W69806   6.219  23.576  14.230
 4580W        W69807  21.302   0.794  12.439
 4581W        W69808   3.356  22.881   2.084
 4582W        W69809  42.281  43.902  10.787
 4583W        W69810   8.809  10.761  12.072
 4584W        W69811  21.030   5.777   2.976
 4585W        W69812  39.022  13.327  11.199
 4586W        W69813   4.367  18.293  14.521
 4587W        W69814  24.569  31.584   2.210
 4588W        W69815  19.055  18.737  10.679
 4589W        W69816  35.420   4.106   0.813
 4590W        W69817  17.228  11.896  11.513
 4591W        W69818  18.505  40.824   3.832
 4592W        W69819   1.693  29.965   2.773
 4593W        W69820  24.445  36.491   2.753
 4594W        W69821   7.463   5.936  10.863
 4595W        W69822  21.692  25.143   4.377
 4596W        W69823  30.558  37.586   0.499
 4597W        W69824  23.210  14.642   0.846
 4598W        W69825   3.228  32.545   3.747
 4599W        W69826  27.122   2.632   1.365
 4600W        W69827  31.523  18.423   0.404
 4601W        W69828  20.208  10.849  10.720
 4602W        W69829  27.591  25.147  10.268
 4603W        W69830  29.342   8.833  14.580
 4604W        W69831  23.671  44.870   0.897
 4605W        W69832  31.035  41.083  10.632
 4606W        W69833  18.468  36.067   2.968
 4607W        W69834  28.946  14.699  11.974
 4608W        W69835  34.388  42.356   0.870
 4609W        W69836  12.128  42.538  13.841
 4610W        W69837   1.275  34.184   2.897
 4611W        W69838  26.027  15.659   1.024
 4612W        W69839   1.933  32.205   2.311
 4613W        W69840  31.913   3.374  14.920
 4614W        W69841  13.335   0.412  13.825
 4615W        W69842   3.123  34.482  12.361
 4616W        W69843  24.209  17.703  14.772
 4617W        W69844  12.297  24.731   2.313
 4618W        W69845   4.368  11.760  14.231
 4619W        W69846  12.462  33.652   0.071
 4620W        W69847  10.799  22.840   4.736
 4621W        W69848   2.214  42.348   3.211
 4622W        W69849  26.278  14.801  13.716
 4623W        W69850  30.023  31.578   2.472
 4624W        W69851   1.350  28.072  14.913
 4625W        W69852  37.539   2.774  11.906
 4626W        W69853  31.523  18.977  13.047
 4627W        W69854  19.595  41.252   4.208
 4628W        W69855  41.740  17.047  14.114
 4629W        W69856  11.796  17.743  12.959
 4630W        W69857  20.378  27.692   2.380
 4631W        W69858  43.102  36.287  12.587
 4632W        W69859  18.179  22.711   4.098
 4633W        W69860  29.698  30.168  11.924
 4634W        W69861  25.514   8.666   3.655
 4635W        W69862  21.657   2.255   4.489
 4636W        W69863   6.540   3.487  13.834
 4637W        W69864   9.311  10.448   2.228
 4638W        W69865  21.991   2.360  12.162
 4639W        W69866  10.064   8.237  13.272
 4640W        W69867  11.704  34.597  13.935
 4641W        W69868   5.295   4.948  12.043
 4642W        W69869  21.487  43.242  10.952
 4643W        W69870  21.444  43.963  13.249
 4644W        W69871  40.291  37.528   4.138
 4645W        W69872  24.699  37.411  11.611
 4646W        W69873   1.832  11.682  10.789
 4647W        W69874  31.939   9.227   0.150
 4648W        W69875  42.155  30.955   1.299
 4649W        W69876  24.847  29.814   0.439
 4650W        W69877  14.845  40.964  12.915
 4651W        W69878  15.987  29.157  11.722
 4652W        W69879  41.362   8.854  14.913
 4653W        W69880  20.053  15.473  14.778
 4654W        W69881  41.860  12.439   3.318
 4655W        W69882  30.182   5.880  14.971
 4656W        W69883  19.262  44.015   0.312
 4657W        W69884  22.422  22.028   2.094
 4658W        W69885  32.505  17.767   3.230
 4659W        W69886   0.893  12.042  10.688
 4660W        W69887  30.942  19.762   2.274
 4661W        W69888  15.620  23.075  13.834
 4662W        W69889  39.913  16.901   4.112
 4663W        W69890   6.664   7.700   2.977
 4664W        W69891  24.620  43.642   5.119
 4665W        W69892   4.913   9.114   4.223
 4666W        W69893   1.392  35.772  11.526
 4667W        W69894  27.054  19.572   4.547
 4668W        W69895  42.687  28.535  11.549
 4669W        W69896  43.723  18.294  12.012
 4670W        W69897  35.439  36.658  12.646
 4671W        W69898  39.611  14.738   2.463
 4672W        W69899   7.888  42.308  11.606
 4673W        W69900   2.473  12.530  11.529
 4674W        W69901  24.619  42.393  14.145
 4675W        W69902   4.578  29.576   2.345
 4676W        W69903  37.563  26.824  14.824
 4677W        W69904  40.880   2.469  10.974
 4678W        W69905   2.424  23.152  10.598
 4679W        W69906   6.245  34.409   0.819
 4680W        W69907  25.762  20.249   0.942
 4681W        W69908   4.559  41.218   2.811
 4682W        W69909  19.993  32.423   0.817
 4683W        W69910   9.886  29.873  14.058
 4684W        W69911  16.729  26.564   4.107
 4685W        W69912  19.494  44.716   3.678
 4686W        W69913  42.062  28.084  14.415
 4687W        W69914  22.475  42.239   5.122
 4688W        W69915  22.076  36.446  12.936
 4689W        W69916  33.398  21.932   3.560
 4690W        W69917  22.507  44.428  14.041
 4691W        W69918   5.355  39.584   0.881
 4692W        W69919  10.691  43.982   4.385
 4693W        W69920   3.554  42.031   4.059
 4694W        W69921  13.882  44.398   1.389
 4695W        W69922  35.918  27.611  14.795
 4696W        W69923  18.015  22.612  12.042
 4697W        W69924   6.498   0.416   0.518
 4698W        W69925  26.993  20.697  14.786
 4699W        W69926  38.513  20.510   4.727
 4700W        W69927   0.933  14.173   2.719
 4701W        W69928   0.456  23.920   0.895
 4702W        W69929   6.392   9.192   0.314
 4703W        W69930   1.711  37.829   4.476
 4704W        W69931  34.890  28.187  13.471
 4705W        W69932   8.565  21.052  14.746
 4706W        W69933  20.033  16.796  13.507
 4707W        W69934  34.740  38.482  11.070
 4708W        W69935  11.199  23.007   0.895
 4709W        W69936  34.015  30.834  13.083
 4710W        W69937  23.436  43.729  11.571
 4711W        W69938   6.653  24.656  11.745
 4712W        W69939  35.971   4.777   4.549
 4713W        W69940  23.344  24.109   2.399
 4714W        W69941   0.746  26.025   5.011
 4715W        W69942   2.887  35.962   0.881
 4716W        W69943   4.960  44.407  12.555
 4717W        W69944  17.657   3.726   3.664
 4718W        W69945  24.224  38.340   1.232
 4719W        W69946  10.980  37.416  12.253
 4720W        W69947  18.101   7.933   3.793
 4721W        W69948  17.059  36.691   0.418
 4722W        W69949  22.974   8.847   5.192
 4723W        W69950  22.556  29.941  11.907
 4724W        W69951  39.811  17.133  12.150
 4725W        W69952  27.576  39.333  10.748
 4726W        W69953   3.966   4.525  14.092
 4727W        W69954  39.194  15.753   3.236
 4728W        W69955  25.760  14.188  11.555
 4729W        W69956  25.175   2.512  13.415
 4730W        W69957  27.064  39.334  13.111
 4731W        W69958  21.637  34.416   1.333
 4732W        W69959  32.459  24.070   1.023
 4733W        W69960   7.257  12.795   4.911
 4734W        W69961   3.252  17.746   4.565
 4735W        W69962  25.091  12.713   1.432
 4736W        W69963   7.434  29.022   2.406
 4737W        W69964  21.277  22.774   0.299
 4738W        W69965  13.207  43.903   3.946
 4739W        W69966  43.505  38.513  14.929
 4740W        W69967  21.629   6.827  12.804
 4741W        W69968  28.513  35.884   4.390
 4742W        W69969   4.113  38.889  12.673
 4743W        W69970  12.027   5.296   0.535
 4744W        W69971  30.005  19.961  11.265
 4745W        W69972  21.117  26.585  11.456
 4746W        W69973  38.516  26.917   3.790
 4747W        W69974   9.377   4.584  11.067
 4748W        W69975  24.258  31.603   2.697
 4749W        W69976   2.268   5.241   4.235
 4750W        W69977  13.516  29.298  13.987
 4751W        W69978   2.018  34.665   4.173
 4752W        W69979  25.421  33.432  11.910
 4753W        W69980  19.714  18.027   2.783
 4754W        W69981  12.758  13.849  13.212
 4755W        W69982  30.591  15.285  11.117
 4756W        W69983  37.568  38.386  12.433
 4757W        W69984   1.843   7.002   0.011
 4758W        W69985  14.339  10.087  14.456
 4759W        W69986  29.423  32.377   3.650
 4760W        W69987  36.256  10.198   1.786
 4761W        W69988  39.540  11.123  13.460
 4762W        W69989  30.927   9.932   2.256
 4763W        W69990  43.443  41.170  12.042
 4764W        W69991  31.880  27.495  14.049
 4765W        W69992  14.958  40.928   3.584
 4766W        W69993  23.026   6.714   0.739
 4767W        W69994  15.350  11.891   0.315
 4768W        W69995  38.272   9.197  11.810
 4769W        W69996   1.843   8.636   0.630
 4770W        W69997  42.617  17.147   2.702
 4771W        W69998  11.235  11.778   1.275
 4772W        W69999   7.196  44.378  14.310
 4773W        W70000   4.977  36.328  10.601
 4774W        W70001  17.172   9.854   4.938
 4775W        W70002  40.427  10.836   0.341
 4776W        W70003  41.368  17.320  13.851
 4777W        W70004  18.046  33.008  10.513
 4778W        W70005  13.485  25.716   2.693
 4779W        W70006  35.483  29.515   3.888
 4780W        W70007   2.286  32.208   3.316
 4781W        W70008   0.009  12.129   4.129
 4782W        W70009  10.700  37.780  13.867
 4783W        W70010  30.465  43.701  10.699
 4784W        W70011  21.254  10.511   4.501
 4785W        W70012  41.594  30.171  11.106
 4786W        W70013  43.682  12.376   3.191
 4787W        W70014  10.950  41.575   4.286
 4788W        W70015   1.427  19.303   0.948
 4789W        W70016  17.591  40.347  10.776
 4790W        W70017   2.165  29.407  14.219
 4791W        W70018  35.536  24.936  13.007
 4792W        W70019  13.908  14.731  12.594
 4793W        W70020  37.465  10.742   3.644
 4794W        W70021  23.288   1.032  13.958
 4795W        W70022  29.780  14.495   0.764
 4796W        W70023  18.039  32.649   0.210
 4797W        W70024  36.758   5.804   0.783
 4798W        W70025  20.095  28.479  13.779
 4799W        W70026  40.420  32.370   3.322
 4800W        W70027  39.076  34.359   1.774
 4801W        W70028  39.441  27.443  14.983
 4802W        W70029  11.275  26.168   4.664
 4803W        W70030  28.457  22.026  13.416
 4804W        W70031  37.650  36.499   4.604
 4805W        W70032   2.790   3.713   0.501
 4806W        W70033  18.556   1.515  12.579
 4807W        W70034  12.796  42.609   0.954
 4808W        W70035  17.269   2.683  10.749
 4809W        W70036  32.797  34.443   2.333
 4810W        W70037   1.031  34.928  13.874
 4811W        W70038  42.546  42.127  12.974
 4812W        W70039   8.395  38.784   0.706
 4813W        W70040  41.987  35.300   0.439
 4814W        W70041  42.406  20.458  14.393
 4815W        W70042  21.977  31.087   2.268
 4816W        W70043   0.021  25.154  14.195
 4817W        W70044  38.300  19.146   4.908
 4818W        W70045  44.306  29.858   2.758
 4819W        W70046  21.535  13.853  12.461
 4820W        W70047  17.691  33.230  12.145
 4821W        W70048  41.364   4.233  11.546
 4822W        W70049   8.423  44.805   3.151
 4823W        W70050  18.573   1.895   0.419
 4824W        W70051  35.142  32.121   4.003
 4825W        W70052  34.969  33.467  12.862
 4826W        W70053  43.901  27.667   0.427
 4827W        W70054  16.740  14.441   2.605
 4828W        W70055  25.664  42.539   2.859
 4829W        W70056  17.759  17.018   1.932
 4830W        W70057  13.817   4.827   0.855
 4831W        W70058  36.845  35.596  12.427
 4832W        W70059  35.770  26.064  10.759
 4833W        W70060  28.257  17.556  11.206
 4834W        W70061   0.378   4.988  12.521
 4835W        W70062  39.716   9.860   0.858
 4836W        W70063  30.401  15.841   3.913
 4837W        W70064  30.170  43.298  11.558
 4838W        W70065  32.051  27.684   1.331
 4839W        W70066  11.764  18.275  10.153
 4840W        W70067  10.310  18.843   3.320
 4841W        W70068  19.772  29.452  10.742
 4842W        W70069  11.310  39.629   3.250
 4843W        W70070  41.907  22.057   1.519
 4844W        W70071  40.419  14.465   0.536
 4845W        W70072  18.126  40.819  14.858
 4846W        W70073  29.148   8.249   0.876
 4847W        W70074   8.167  35.986  11.055
 4848W        W70075  37.524   6.578   4.077
 4849W        W70076  38.495  18.903   1.464
 4850W        W70077  29.059  22.615  13.358
 4851W        W70078  17.179  24.189  12.040
 4852W        W70079  10.409  16.320   0.268
 4853W        W70080  38.827  31.936   4.125
 4854W        W70081  31.486  19.003   1.312
 4855W        W70082  15.020  17.254   2.319
 4856W        W70083  28.699  19.989  12.527
 4857W        W70084  11.945   3.904   3.325
 4858W        W70085  27.072  19.735   0.762
 4859W        W70086  42.861  39.544   3.695
 4860W        W70087   2.401  15.060   0.423
 4861W        W70088  23.985  13.676   2.665
 4862W        W70089  29.218  39.083   2.723
 4863W        W70090  10.438   0.286   4.215
 4864W        W70091  17.929  14.765   4.134
 4865W        W70092   1.937  15.466   5.011
 4866W        W70093  10.145   4.273   3.034
 4867W        W70094  21.622  26.060  14.500
 4868W        W70095  13.069   7.294  11.025
 4869W        W70096  31.627  30.486   0.397
 4870W        W70097  38.969  33.633  12.904
 4871W        W70098  35.524   4.922  11.886
 4872W        W70099  13.080  15.585   1.791
 4873W        W70100  12.409  13.881  11.136
 4874W        W70101  41.421  42.451  14.050
 4875W        W70102  36.034  14.939  14.480
 4876W        W70103   8.212  38.943  13.001
 4877W        W70104   6.887  43.260  10.956
 4878W        W70105  30.313   2.424  11.289
 4879W        W70106  30.258   4.057  14.026
 4880W        W70107  31.126  38.505   4.624
 4881W        W70108  38.674  39.404  13.560
 4882W        W70109  36.605   3.353  11.979
 4883W        W70110  11.905   6.327   3.885
 4884W        W70111  13.540  20.280  12.610
 4885W        W70112  16.875  15.208  13.089
 4886W        W70113  39.367  16.306  10.816
 4887W        W70114  15.418  29.207  13.574
 4888W        W70115  29.004  39.395   9.949
 4889W        W70116  29.399  43.417  12.082
 4890W        W70117   5.961  42.513  11.170
 4891W        W70118  29.120   0.681  12.548
 4892W        W70119   1.906  12.200   3.858
 4893W        W70120  34.718  37.963   4.184
 4894W        W70121  29.758  42.971  11.573
 4895W        W70122  22.596  35.676  12.061
 4896W        W70123  15.840  22.255  10.173
 4897W        W70124  16.174   2.330  12.112
 4898W        W70125  22.641  44.535   2.876
 4899W        W70126   1.793  29.705   5.057
 4900W        W70127  23.855   8.474   4.173
 4901W        W70128  39.044  35.585  11.063
 4902W        W70129  35.666  35.618   1.797
 4903W        W70130  17.318  42.805  11.196
 4904W        W70131  17.738  36.021  12.530
 4905W        W70132  19.772  29.481   2.231
 4906W        W70133   6.380  26.030  13.160
 4907W        W70134  15.809  24.640   1.856
 4908W        W70135  32.503  25.342  14.653
 4909W        W70136   2.525  43.985   0.839
 4910W        W70137  36.424   5.480   2.387
 4911W        W70138  24.554  20.645  10.345
 4912W        W70139  35.418  10.764  10.704
 4913W        W70140  26.575  23.984   3.158
 4914W        W70141  37.068   1.505  13.013
 4915W        W70142   9.439  35.463   4.249
 4916W        W70143   1.301  23.276  13.014
 4917W        W70144  16.827  25.558   2.259
 4918W        W70145  36.631  31.596  13.541
 4919W        W70146  26.601  41.713   3.717
 4920W        W70147  14.214  19.233   4.898
 4921W        W70148  29.063   3.749  11.949
 4922W        W70149  27.020   1.390   2.520
 4923W        W70150   7.763  32.091   3.347
 4924W        W70151  33.612  13.651   4.055
 4925W        W70152  26.991   7.835  10.777
 4926W        W70153   4.197  20.214   3.260
 4927W        W70154  15.145  42.036   4.448
 4928W        W70155  10.402  30.984  11.970
 4929W        W70156  21.702  15.265  10.700
 4930W        W70157  26.922   8.767   1.252
 4931W        W70158  33.628  23.019  14.480
 4932W        W70159  13.000  44.521   2.894
 4933W        W70160  27.591   0.882  10.117
 4934W        W70161  19.145   1.641   3.508
 4935W        W70162  29.121  44.016   0.175
 4936W        W70163  13.037  29.005   4.119
 4937W        W70164   2.687   0.326   1.419
 4938W        W70165   3.459  39.818  11.998
 4939W        W70166   8.207   3.963  14.851
 4940W        W70167  35.105  41.106   3.343
 4941W        W70168  32.959  33.918  12.590
 4942W        W70169  12.241  11.072   0.592
 4943W        W70170  13.336  19.973  10.907
 4944W        W70171  43.334  23.348  12.615
 4945W        W70172  27.930  25.250   0.953
 4946W        W70173  41.247   1.168  13.438
 4947W        W70174  22.944   3.896   0.905
 4948W        W70175   9.126  13.715   4.187
 4949W        W70176  26.190   1.964   3.720
 4950W        W70177  43.532  18.826   2.066
 4951W        W70178  14.577   9.137  13.762
 4952W        W70179  39.076  17.619  11.830
 4953W        W70180  20.151  26.449   2.751
 4954W        W70181  32.032   7.972  11.745
 4955W        W70182  37.127  29.486   5.213
 4956W        W70183   3.084  16.717  14.485
 4957W        W70184  21.489  39.990   2.938
 4958W        W70185  42.661   6.074   3.137
 4959W        W70186  26.781  17.073   4.116
 4960W        W70187   8.987  24.565   2.848
 4961W        W70188   1.269   6.165   4.458
 4962W        W70189  20.738  27.599  14.018
 4963W        W70190  43.811  38.298  11.513
 4964W        W70191  26.418  11.409  12.012
 4965W        W70192  19.672   4.118   2.271
 4966W        W70193  27.483  16.074  11.688
 4967W        W70194  20.721  21.051   4.636
 4968W        W70195  23.926  18.815  13.797
 4969W        W70196   4.307  29.471  14.954
 4970W        W70197  13.198  10.654   2.801
 4971W        W70198   7.659  18.004   5.046
 4972W        W70199  10.665  16.468   3.565
 4973W        W70200  42.488  42.555   2.670
 4974W        W70201  44.250  32.068   2.952
 4975W        W70202   0.733   9.232  12.669
 4976W        W70203  27.418  18.031  14.082
 4977W        W70204   2.404  35.041   4.204
 4978W        W70205  36.460  18.092   3.942
 4979W        W70206  32.988  24.775  12.094
 4980W        W70207   1.472  42.967  12.766
 4981W        W70208  36.342  15.356   0.981
 4982W        W70209  35.844  21.787  12.165
 4983W        W70210  30.995  25.291   0.494
 4984W        W70211  12.780   4.201  12.744
 4985W        W70212  39.772  11.582  13.350
 4986W        W70213  42.760  38.968   2.589
 4987W        W70214  11.482  13.227   3.358
 4988W        W70215  24.557  17.170  14.985
 4989W        W70216   5.317  34.763  13.021
 4990W        W70217   1.258  28.865  12.212
 4991W        W70218  16.213  39.527   4.591
 4992W        W70219  15.686  21.797  13.530
 4993W        W70220  21.029  20.673  10.805
 4994W        W70221  35.984  10.665   2.860
 4995W        W70222  35.506  26.228  11.902
 4996W        W70223  22.200  42.828  12.087
 4997W        W70224  24.842  35.904  14.384
 4998W        W70225  31.423  44.989  13.131
 4999W        W70226  34.143  36.402  10.172
 5000W        W70227  24.723  27.500  11.165
 5001W        W70228  13.020   6.851  10.767
 5002W        W70229  30.465  27.923  13.102
 5003W        W70230  12.642  16.063  11.151
 5004W        W70231   8.166   2.439   0.049
 5005W        W70232  27.305  44.969  11.847
 5006W        W70233  41.320   7.269  14.473
 5007W        W70234  32.997  44.013   4.610
 5008W        W70235  22.606   8.168  11.737
 5009W        W70236  12.355  42.516   4.585
 5010W        W70237  21.046  35.928  12.069
 5011W        W70238  43.602  43.561  12.458
 5012W        W70239  23.848   3.769  12.603
 5013W        W70240  44.687  20.018  14.993
 5014W        W70241  38.832   1.699  11.585
 5015W        W70242  27.001   1.122   1.429
 5016W        W70243  25.556  14.254   1.879
 5017W        W70244  15.367  31.585  14.827
 5018W        W70245  33.079  40.794  10.707
 5019W        W70246  17.227  20.648   4.606
 5020W        W70247  41.297  25.545  11.069
 5021W        W70248  26.201  21.687   1.168
 5022W        W70249  13.174  30.393  10.736
 5023W        W70250  21.323  15.226  13.024
 5024W        W70251  35.061  10.786  12.242
 5025W        W70252  18.859  32.196  14.949
 5026W        W70253  36.916  37.493   4.550
 5027W        W70254  15.216  19.214   1.818
 5028W        W70255  11.213  10.695   4.501
 5029W        W70256   4.397  17.038  13.884
 5030W        W70257   6.900  32.138  12.135
 5031W        W70258  16.796   4.387  12.515
 5032W        W70259  12.093  14.023  14.812
 5033W        W70260  17.736  38.277   2.033
 5034W        W70261  10.224   5.989  10.800
 5035W        W70262  36.086  26.651   2.776
 5036W        W70263  18.691  27.707  12.573
 5037W        W70264  24.938  33.383  12.077
 5038W        W70265  36.555   2.004  12.433
 5039W        W70266  44.767  36.840   3.351
 5040W        W70267  12.229  34.662  13.877
 5041W        W70268  23.913  29.421   3.296
 5042W        W70269  41.352   0.194  12.658
 5043W        W70270  42.896   6.648   4.492
 5044W        W70271  34.572   6.382   2.630
 5045W        W70272  19.182  19.249  10.691
 5046W        W70273  21.278  20.403  10.321
 5047W        W70274  42.678   1.763   4.716
 5048W        W70275  41.890  37.889   0.431
 5049W        W70276  43.362  23.810   2.154
 5050W        W70277   5.363  15.557   0.947
 5051W        W70278   4.491  17.243  13.329
 5052W        W70279  43.209  18.094  12.928
 5053W        W70280  24.078  16.209   0.016
 5054W        W70281  43.010  17.682  13.750
 5055W        W70282  18.070  23.803  13.782
 5056W        W70283   8.826  32.493   1.360
 5057W        W70284  27.615  18.599   4.501
 5058W        W70285   0.968  44.860   3.206
 5059W        W70286  39.990   3.100   0.449
 5060W        W70287   0.791   6.497  13.083
 5061W        W70288  18.613   0.950  11.593
 5062W        W70289  41.700  21.925  12.105
 5063W        W70290  39.005   1.075  12.948
 5064W        W70291  23.717   6.662  14.269
 5065W        W70292  27.770   4.405   0.924
 5066W        W70293   9.171   6.860  11.559
 5067W        W70294  36.583   7.132  11.150
 5068W        W70295   1.839  39.428  13.165
 5069W        W70296  39.865  27.983  13.922
 5070W        W70297  17.653  20.319   3.292
 5071W        W70298  37.589   1.712  12.010
 5072W        W70299   0.744  10.078  11.635
 5073W        W70300  21.222  14.192  12.977
 5074W        W70301  36.902  34.423   3.259
 5075W        W70302  34.995  15.983  10.704
 5076W        W70303   0.765  38.575   3.775
 5077W        W70304  15.291   7.688  12.960
 5078W        W70305  42.407  38.250   1.239
 5079W        W70306  28.967  13.538   3.449
 5080W        W70307   5.535  16.053  14.324
 5081W        W70308   7.986  22.543  10.821
 5082W        W70309   7.400  27.677   1.283
 5083W        W70310  24.893  37.695  12.942
 5084W        W70311  18.506  29.133   0.734
 5085W        W70312   5.192  37.636   2.292
 5086W        W70313  18.171  15.872   0.376
 5087W        W70314  12.134  27.710   4.387
 5088W        W70315  37.365  28.630  14.480
 5089W        W70316   3.427  26.895  12.447
 5090W        W70317   4.620  15.231  14.998
 5091W        W70318  25.394  35.293  13.143
 5092W        W70319  26.149  15.163  14.268
 5093W        W70320  41.997  26.193   2.340
 5094W        W70321  30.554   9.301   1.229
 5095W        W70322  41.423   1.344   3.641
 5096W        W70323   4.305  22.734   0.221
 5097W        W70324   7.170  24.571   3.611
 5098W        W70325  41.528  44.466  14.976
 5099W        W70326  18.277  10.695   3.993
 5100W        W70327  17.317  31.611   0.877
 5101W        W70328  16.461  11.611   0.933
 5102W        W70329  16.583  34.928   3.191
 5103W        W70330  20.787  40.604  11.591
 5104W        W70331  19.060  44.721   0.971
 5105W        W70332  24.691  36.519   3.227
 5106W        W70333  31.582   0.841   1.710
 5107W        W70334   6.411  21.961  12.794
 5108W        W70335  39.870  35.850   1.342
 5109W        W70336  10.456  26.038  10.883
 5110W        W70337  41.929  30.151   4.044
 5111W        W70338  25.596  24.239   1.436
 5112W        W70339  32.556  35.664  11.703
 5113W        W70340  20.772  34.138   3.183
 5114W        W70341  27.969  29.742  10.658
 5115W        W70342  11.131   6.989   3.159
 5116W        W70343  24.964  32.851   1.966
 5117W        W70344  30.134  32.264  13.833
 5118W        W70345  14.852   3.339   0.374
 5119W        W70346   7.325  12.768  12.124
 5120W        W70347   3.961  15.458  12.933
 5121W        W70348  35.356  34.984  11.515
 5122W        W70349  41.242  29.716  10.657
 5123W        W70350  20.594   4.758  12.426
 5124W        W70351  22.827   0.815  13.892
 5125W        W70352   4.353  42.988  14.085
 5126W        W70353   9.635  34.138   3.239
 5127W        W70354  36.715  20.658  11.061
 5128W        W70355  38.804  18.498   2.897
 5129W        W70356  44.474   7.088  13.763
 5130W        W70357  11.334  23.444  14.360
 5131W        W70358   4.259  26.722   1.688
 5132W        W70359  34.615  10.655  14.064
 5133W        W70360   3.068  31.871   1.229
 5134W        W70361  24.841   3.500  11.906
 5135W        W70362  19.297  31.880   0.774
 5136W        W70363  26.970  22.324  11.553
 5137W        W70364  11.986  32.667   1.645
 5138W        W70365  25.978   8.913   4.875
 5139W        W70366  13.220  39.720   0.181
 5140W        W70367  15.865  22.517  11.195
 5141W        W70368  38.020  26.070   4.603
 5142W        W70369  26.278  43.551   1.768
 5143W        W70370  33.841  31.862  13.008
 5144W        W70371  27.594   1.415   0.999
 5145W        W70372  18.145  38.503   1.759
 5146W        W70373  26.378  42.552  14.688
 5147W        W70374  29.629  11.668   0.229
 5148W        W70375   4.946  41.394   1.030
 5149W        W70376   0.616  22.179  14.943
 5150W        W70377  35.409  43.484  12.428
 5151W        W70378  22.896  17.819   1.047
 5152W        W70379  41.118  11.319  11.636
 5153W        W70380  22.066  33.511   4.967
 5154W        W70381  40.756  36.447   2.922
 5155W        W70382   2.469  12.221  12.425
 5156W        W70383  17.174  25.677  10.255
 5157W        W70384  28.722  37.990   3.838
 5158W        W70385  38.016  43.925  10.889
 5159W        W70386  10.850   9.301   0.716
 5160W        W70387  32.023  37.787  11.201
 5161W        W70388  14.314  17.595  11.241
 5162W        W70389  43.116   5.713   4.310
 5163W        W70390  28.034  11.773  13.559
 5164W        W70391  26.220  22.688  13.243
 5165W        W70392  37.784  10.383  13.752
 5166W        W70393  23.660  11.563  12.053
 5167W        W70394  14.430   7.295   1.280
 5168W        W70395  31.877  44.706  13.263
 5169W        W70396  39.960  12.351  14.852
 5170W        W70397  17.627  11.924   3.130
 5171W        W70398  19.970  34.484  13.786
 5172W        W70399   8.113  19.736  12.865
 5173W        W70400  10.194   2.329   4.481
 5174W        W70401  17.626   7.085   3.693
 5175W        W70402  29.699  22.820  13.455
 5176W        W70403  24.423  44.786  13.490
 5177W        W70404   2.704  22.046  10.192
 5178W        W70405  35.294  23.010   3.656
 5179W        W70406  38.429  22.983   1.766
 5180W        W70407  23.641   2.514   0.831
 5181W        W70408   2.286  18.798   4.668
 5182W        W70409  22.200  31.097   4.312
 5183W        W70410   0.540  26.515  14.913
 5184W        W70411   3.826  20.018   4.694
 5185W        W70412  34.095  26.726  11.573
 5186W        W70413  33.657  27.541   9.838
 5187W        W70414  39.144  39.351  13.334
 5188W        W70415  10.807  23.467  11.733
 5189W        W70416  32.563   1.076  13.904
 5190W        W70417   3.316  38.262   4.144
 5191W        W70418  34.861  16.787  12.350
 5192W        W70419  26.665  19.362  11.974
 5193W        W70420  24.908  15.974  12.016
 5194W        W70421  27.510  20.781  11.080
 5195W        W70422  31.960   2.175   1.498
 5196W        W70423  34.511   8.302  13.588
 5197W        W70424   6.867  22.184  12.545
 5198W        W70425   9.172  41.327   0.390
 5199W        W70426  17.564  27.632   3.267
 5200W        W70427  41.069  39.001   1.287
 5201W        W70428  36.580  35.965  14.975
 5202W        W70429  15.254   5.386  12.440
 5203W        W70430  21.124  19.492  14.970
 5204W        W70431  23.167   8.718  11.620
 5205W        W70432  24.334  17.493   2.997
 5206W        W70433  28.190  35.186   0.339
 5207W        W70434  27.910  24.387   4.490
 5208W        W70435  21.709  16.338  13.318
 5209W        W70436  44.515  21.665  14.337
 5210W        W70437   5.822   3.326  10.455
 5211W        W70438  18.722   7.007   4.628
 5212W        W70439  28.026  19.933   2.667
 5213W        W70440  37.947  22.199   1.753
 5214W        W70441  15.248  16.357   3.615
 5215W        W70442  41.874  37.003   2.893
 5216W        W70443  21.246  21.765   3.429
 5217W        W70444   4.339   7.615  12.000
 5218W        W70445  37.129  38.734   2.774
 5219W        W70446  33.401  43.509  10.647
 5220W        W70447  34.082  14.049   1.308
 5221W        W70448  18.063   4.876  13.911
 5222W        W70449  11.282  15.185   1.666
 5223W        W70450  13.790  28.121  12.969
 5224W        W70451  11.424  44.441  10.800
 5225W        W70452  14.628   4.175   4.670
 5226W        W70453  44.673  27.596   2.782
 5227W        W70454   5.518  33.556   3.263
 5228W        W70455  35.760  43.841  12.367
 5229W        W70456   2.238  42.091   2.742
 5230W        W70457  41.109  35.266  14.061
 5231W        W70458  32.432  21.190  14.471
 5232W        W70459  31.215   7.856  12.578
 5233W        W70460  17.007  37.938   1.354
 5234W        W70461  38.471  37.423  13.397
 5235W        W70462  18.747   3.890  11.631
 5236W        W70463   8.041  26.132  11.688
 5237W        W70464   3.233  29.692  11.591
 5238W        W70465   6.207   8.737   3.318
 5239W        W70466  19.710   5.961  11.288
 5240W        W70467  38.944  37.849  11.637
 5241W        W70468  32.433  15.137   3.048
 5242W        W70469  44.204  41.964   0.001
 5243W        W70470  31.602  18.253   0.883
 5244W        W70471  30.117  39.098  14.356
 5245W        W70472   3.122  40.014   2.866
 5246W        W70473  28.644   0.688   4.729
 5247W        W70474   4.439  32.012   2.405
 5248W        W70475   3.991  28.950  14.302
 5249W        W70476  11.435  17.186  14.867
 5250W        W70477  39.562  24.582  13.677
 5251W        W70478  23.223  40.293  13.526
 5252W        W70479  26.751  27.188  12.347
 5253W        W70480  15.763   1.370  12.041
 5254W        W70481   3.527  26.447  11.740
 5255W        W70482  39.830   4.690   0.369
 5256W        W70483  40.780   4.748  12.931
 5257W        W70484  37.053  29.632  13.015
 5258W        W70485  32.923  43.242   3.515
 5259W        W70486  17.778  35.922   4.696
 5260W        W70487  18.249  24.279  13.874
 5261W        W70488  37.423  39.650  14.873
 5262W        W70489  25.406  33.856  13.095
 5263W        W70490   3.987  34.618   0.999
 5264W        W70491  12.186  33.372  10.406
 5265W        W70492  29.294  43.462  11.171
 5266W        W70493  16.783   9.749   3.799
 5267W        W70494   9.714  15.996  14.879
 5268W        W70495  23.066  17.477  10.867
 5269W        W70496  38.620   6.495  12.447
 5270W        W70497  40.134  25.649   1.793
 5271W        W70498   1.802   0.942  12.872
 5272W        W70499  37.104   7.719  13.481
 5273W        W70500   4.728  34.444  11.176
 5274W        W70501   8.855   2.659   4.789
 5275W        W70502   7.396  22.316   0.895
 5276W        W70503  26.918   4.450  13.426
 5277W        W70504  20.743  28.634   4.439
 5278W        W70505   5.863   6.446  10.674
 5279W        W70506  33.446  22.435   1.296
 5280W        W70507  10.364  14.334  13.861
 5281W        W70508  14.690  24.947  13.469
 5282W        W70509  40.523  17.216  14.383
 5283W        W70510  41.336  42.734  11.120
 5284W        W70511  26.710  21.647   1.140
 5285W        W70512   6.106  17.191  13.002
 5286W        W70513  36.032  11.772  11.989
 5287W        W70514  37.321  41.211  12.779
 5288W        W70515  23.649  23.765   3.219
 5289W        W70516  32.461  37.590  12.587
 5290W        W70517   9.806  44.704  11.453
 5291W        W70518  28.332  13.299   2.387
 5292W        W70519   3.533  27.411  12.422
 5293W        W70520  18.751  34.488  13.570
 5294W        W70521   0.648  40.586  13.465
 5295W        W70522   1.906  38.857   2.123
 5296W        W70523  44.841  42.542  14.290
 5297W        W70524  28.837  22.555  11.564
 5298W        W70525  41.321  33.491  11.140
 5299W        W70526  12.671  21.036   3.249
 5300W        W70527  33.644  31.795  11.216
 5301W        W70528  12.292   1.835   1.000
 5302W        W70529  35.771   3.266   3.596
 5303W        W70530  21.081  30.860   3.126
 5304W        W70531  11.965  25.763  12.065
 5305W        W70532   4.995  37.391   3.486
 5306W        W70533   0.356  38.123  13.003
 5307W        W70534  13.541   7.483  14.429
 5308W        W70535  31.954   4.885   2.478
 5309W        W70536  38.799  36.623   2.736
 5310W        W70537  24.583   5.451  13.397
 5311W        W70538   3.314   7.198   2.603
 5312W        W70539  15.089  26.229  12.517
 5313W        W70540  27.662   7.864   3.201
 5314W        W70541  19.560  37.251  14.314
 5315W        W70542  11.391   1.879   3.765
 5316W        W70543  32.494  41.901   4.978
 5317W        W70544   6.916   7.436   1.901
 5318W        W70545  21.031  12.840   0.520
 5319W        W70546  42.499   5.182  14.756
 5320W        W70547  44.253  22.182   2.722
 5321W        W70548   9.606  32.573   1.936
 5322W        W70549  36.649   9.822  11.422
 5323W        W70550  44.740  36.371   4.140
 5324W        W70551  11.117   0.493   1.951
 5325W        W70552  38.292  40.319  13.522
 5326W        W70553  41.033  33.069   4.383
 5327W        W70554   0.239  23.851  13.218
 5328W        W70555  25.446  27.517   3.354
 5329W        W70556  37.832  31.093  14.372
 5330W        W70557   5.902  20.110  14.568
 5331W        W70558  21.046   3.652   4.094
 5332W        W70559  27.645   2.314   3.112
 5333W        W70560  41.678  44.389   3.680
 5334W        W70561  25.430   0.704  14.366
 5335W        W70562  24.273  12.883   2.402
 5336W        W70563  10.641  11.429  11.644
 5337W        W70564   2.465  36.407   1.898
 5338W        W70565  26.443  17.544   2.270
 5339W        W70566  17.838  44.392   4.163
 5340W        W70567  31.021  34.523  11.954
 5341W        W70568  33.968  28.779   1.132
 5342W        W70569  20.164  39.808   9.999
 5343W        W70570   9.445   8.639  14.782
 5344W        W70571  32.846   4.392   0.461
 5345W        W70572   6.495  44.081  11.815
 5346W        W70573  19.503   1.742   3.155
 5347W        W70574  39.390   3.103  11.653
 5348W        W70575  43.268  27.909   3.675
 5349W        W70576  13.855  31.732   1.687
 5350W        W70577  44.437  31.071  12.415
 5351W        W70578  18.946  38.860  14.276
 5352W        W70579  29.103  22.122  14.767
 5353W        W70580  16.811  11.352  13.314
 5354W        W70581  18.578  14.093   1.630
 5355W        W70582  17.436  35.528  13.203
 5356W        W70583  17.731  11.335   3.783
 5357W        W70584  33.367  25.810   0.355
 5358W        W70585  24.961  35.787  11.178
 5359W        W70586  42.016   7.297   3.132
 5360W        W70587   9.744   5.973  11.993
 5361W        W70588  40.469  12.357   2.355
 5362W        W70589  16.028  10.783   0.461
 5363W        W70590  37.089  21.020  12.311
 5364W        W70591  20.544   6.081  11.919
 5365W        W70592  25.349  26.483   3.174
 5366W        W70593   3.220   0.812  12.308
 5367W        W70594  32.024   4.916   1.473
 5368W        W70595  13.380  38.890  14.462
 5369W        W70596  10.186  25.718   2.091
 5370W        W70597   0.914  22.828  13.474
 5371W        W70598  18.829  28.086  13.957
 5372W        W70599   7.089  22.594  14.944
 5373W        W70600  34.134  40.750  10.730
 5374W        W70601  30.679   3.396  14.281
 5375W        W70602  11.701  44.082   4.598
 5376W        W70603  30.465   7.737   5.093
 5377W        W70604  19.998  32.564  12.875
 5378W        W70605  11.203  19.984   3.158
 5379W        W70606  37.483  17.070   0.956
 5380W        W70607  40.629  26.660   0.413
 5381W        W70608  23.042  19.797  11.092
 5382W        W70609   9.858  36.546   2.767
 5383W        W70610  39.339  13.115   2.486
 5384W        W70611  21.735  41.519   3.739
 5385W        W70612   6.709  39.036   4.115
 5386W        W70613  18.246  33.345  10.842
 5387W        W70614  24.659   6.273   0.589
 5388W        W70615  39.337  42.726   4.553
 5389W        W70616  19.707  37.817  12.205
 5390W        W70617  23.706   8.427   4.692
 5391W        W70618  13.210  30.349   3.532
 5392W        W70619  10.348   6.265  11.253
 5393W        W70620  37.414  12.780  14.729
 5394W        W70621  34.607   8.153  14.624
 5395W        W70622  14.641  34.934   2.364
 5396W        W70623   4.897  32.122   1.841
 5397W        W70624   9.789  42.503   0.281
 5398W        W70625  26.540  24.398  14.753
 5399W        W70626  15.123  42.080  13.305
 5400W        W70627  26.519  44.579   0.505
 5401W        W70628   0.339   5.925  13.445
 5402W        W70629   5.680   3.057   1.281
 5403W        W70630  27.601  37.833   0.969
 5404W        W70631  11.948  35.830   4.468
 5405W        W70632  19.771  12.894   1.036
 5406W        W70633   0.686   7.202  14.728
 5407W        W70634  39.855  25.747  13.148
 5408W        W70635   7.436  22.558  11.586
 5409W        W70636  17.762  21.507   3.238
 5410W        W70637  28.079   2.856  12.408
 5411W        W70638  32.330  21.073   3.622
 5412W        W70639  13.505  39.078  10.912
 5413W        W70640  11.250   3.673   0.289
 5414W        W70641   0.617  26.494   0.908
 5415W        W70642  42.327  30.059   3.690
 5416W        W70643  15.327  30.671  13.893
 5417W        W70644  13.181  17.828   3.642
 5418W        W70645   1.751  33.481  13.646
 5419W        W70646   6.153  18.722  10.619
 5420W        W70647  11.192   9.199  10.710
 5421W        W70648  10.224   9.398  14.010
 5422W        W70649   1.178  29.913   2.306
 5423W        W70650  19.717  32.942   1.486
 5424W        W70651  40.842  37.381  14.242
 5425W        W70652   2.846  42.084  11.779
 5426W        W70653  32.831  44.199  11.060
 5427W        W70654  16.670  22.560   3.084
 5428W        W70655  34.508  44.043  13.508
 5429W        W70656   2.866  23.046   3.374
 5430W        W70657  29.150  29.945  11.914
 5431W        W70658  37.928  40.094   3.981
 5432W        W70659  34.650  25.033  12.637
 5433W        W70660  23.039  21.309  11.244
 5434W        W70661  34.405   6.719  11.576
 5435W        W70662  36.084  39.754  14.868
 5436W        W70663   8.856  30.375   4.590
 5437W        W70664  16.610  35.065   1.345
 5438W        W70665  35.525  25.555   1.694
 5439W        W70666  30.925  18.629  12.508
 5440W        W70667  27.874  31.333  12.155
 5441W        W70668   2.540  10.349   3.661
 5442W        W70669  14.705  22.863   1.380
 5443W        W70670  14.689  43.755   2.164
 5444W        W70671  23.156  40.482  12.553
 5445W        W70672  14.336  10.342   3.689
 5446W        W70673  42.959  41.047  12.157
 5447W        W70674  33.131  15.189   0.271
 5448W        W70675   8.103  22.134   0.376
 5449W        W70676  16.976  11.265  11.676
 5450W        W70677  38.871   9.122   2.825
 5451W        W70678  19.512   4.336   0.404
 5452W        W70679  34.984  34.143   4.388
 5453W        W70680  30.901  23.611   3.762
 5454W        W70681   1.372  18.345  11.589
 5455W        W70682  12.720  16.153   1.187
 5456W        W70683  20.196   2.723   1.403
 5457W        W70684  26.891  31.863  14.878
 5458W        W70685  33.857   3.833   0.829
 5459W        W70686  21.650  13.561   4.333
 5460W        W70687  17.276  29.100   1.438
 5461W        W70688  34.364   6.604  13.453
 5462W        W70689  36.827  22.667  10.842
 5463W        W70690  22.013  23.692   0.370
 5464W        W70691   0.431  14.727  12.433
 5465W        W70692  27.641  25.218  12.791
 5466W        W70693  40.905  30.035   0.544
 5467W        W70694  31.007   6.342   1.452
 5468W        W70695   7.204   1.317   4.129
 5469W        W70696  37.008  41.492   2.948
 5470W        W70697  22.516  16.573   2.341
 5471W        W70698  43.319  16.598   4.193
 5472W        W70699  36.471  20.182   4.342
 5473W        W70700  21.936  37.665   5.059
 5474W        W70701   1.490  38.968   2.414
 5475W        W70702  18.834  16.929  12.873
 5476W        W70703  17.487  42.879  14.444
 5477W        W70704   5.856  32.167  14.801
 5478W        W70705   4.805  12.863   3.726
 5479W        W70706  32.928  16.231   3.138
 5480W        W70707  35.628  14.120  13.008
 5481W        W70708  20.692  34.301   4.640
 5482W        W70709  44.977  22.474  13.289
 5483W        W70710  12.033  42.586   3.256
 5484W        W70711  30.988   2.980  11.186
 5485W        W70712  43.461  26.198  11.973
 5486W        W70713  29.058   0.536  14.924
 5487W        W70714  12.809  13.782  14.938
 5488W        W70715   9.805  12.691  13.110
 5489W        W70716   4.387  37.441  12.375
 5490W        W70717   5.080  41.838   3.268
 5491W        W70718  24.086  31.375   2.185
 5492W        W70719  23.044   4.527   3.340
 5493W        W70720   5.996  28.964   1.205
 5494W        W70721  27.197  44.650  13.409
 5495W        W70722  31.970  27.711  10.741
 5496W        W70723  44.485  36.393  13.359
 5497W        W70724  41.868  21.586   3.243
 5498W        W70725  17.686  18.451  12.906
 5499W        W70726  10.275   5.285  14.791
 5500W        W70727  41.530   3.248  13.378
 5501W        W70728  18.289  17.033   4.644
 5502W        W70729  33.572  40.923  12.017
 5503W        W70730  24.546  25.503   0.257
 5504W        W70731  26.570  14.518   3.744
 5505W        W70732   4.247  26.432  11.121
 5506W        W70733  34.340  32.480   0.977
 5507W        W70734  21.202  16.145   0.190
 5508W        W70735   7.412  10.587   4.668
 5509W        W70736  19.039  33.519   1.987
 5510W        W70737  35.868  25.205   0.215
 5511W        W70738  27.967  21.206  10.268
 5512W        W70739   0.263  20.230  12.628
 5513W        W70740  23.749  36.894  11.956
 5514W        W70741  32.757  37.360   0.825
 5515W        W70742  31.107  38.277   0.125
 5516W        W70743  11.583  29.261  11.155
 5517W        W70744   6.895  42.285   3.322
 5518W        W70745  28.690  11.570   1.190
 5519W        W70746   4.710  35.461   4.570
 5520W        W70747  31.396   8.549  11.548
 5521W        W70748  33.626   3.842   1.269
 5522W        W70749   4.299  23.915   2.417
 5523W        W70750  23.787  36.227  12.603
 5524W        W70751   8.725  32.401   9.547
 5525W        W70752  36.676   5.159  12.047
 5526W        W70753  15.749  38.924  10.438
 5527W        W70754  25.131  27.847  14.212
 5528W        W70755  14.374  35.545   3.350
 5529W        W70756  23.657  36.931  14.480
 5530W        W70757  35.035   8.188   3.218
 5531W        W70758  30.503  12.347   1.469
 5532W        W70759   6.417  22.144   3.860
 5533W        W70760  12.441  37.957  13.118
 5534W        W70761  42.812  26.899   0.979
 5535W        W70762  43.995  27.918  12.643
 5536W        W70763  28.235  44.329  11.186
 5537W        W70764  10.475  25.607   4.574
 5538W        W70765  24.227  37.366   3.734
 5539W        W70766  40.847  19.721  13.266
 5540W        W70767  40.316   9.922  12.051
 5541W        W70768   1.171  18.632   5.002
 5542W        W70769  23.235  22.747   4.601
 5543W        W70770  25.963  27.111   2.747
 5544W        W70771  41.076  12.206   2.811
 5545W        W70772   0.653  20.814  13.005
 5546W        W70773  32.402   4.206   1.462
 5547W        W70774  37.962   7.110   1.449
 5548W        W70775   1.787   1.176  13.340
 5549W        W70776   4.146  20.800   4.087
 5550W        W70777  39.061  44.403   1.212
 5551W        W70778  22.356  15.326  14.994
 5552W        W70779  30.848  24.091  14.835
 5553W        W70780  12.361   0.272   1.327
 5554W        W70781  14.084  15.132   1.194
 5555W        W70782  33.256  17.692  14.371
 5556W        W70783  16.600  13.005  10.562
 5557W        W70784  14.685  33.866  10.855
 5558W        W70785  24.784  37.192  12.969
 5559W        W70786  27.399  26.188   0.039
 5560W        W70787  11.121  39.666   0.183
 5561W        W70788   8.825  28.938   3.526
 5562W        W70789  31.920   4.694   3.804
 5563W        W70790   0.370  33.959   1.550
 5564W        W70791   3.904  16.538   0.973
 5565W        W70792   0.958  37.584  12.792
 5566W        W70793  35.485  22.096   2.727
 5567W        W70794  33.961   1.986  10.694
 5568W        W70795  38.293  38.194  14.033
 5569W        W70796  42.124  20.115   2.910
 5570W        W70797  37.114  43.324  13.882
 5571W        W70798  15.565  25.079  13.378
 5572W        W70799   5.209   9.421   0.225
 5573W        W70800  26.957  39.603  14.538
 5574W        W70801  37.998   9.859   0.941
 5575W        W70802  44.832   8.059  13.670
 5576W        W70803  27.461   8.392  13.011
 5577W        W70804  16.545   3.445   3.247
 5578W        W70805   7.374  40.843  10.888
 5579W        W70806  33.056  11.083  14.481
 5580W        W70807  38.569  38.396  13.626
 5581W        W70808  39.316  30.939  14.319
 5582W        W70809  40.592   9.345   2.948
 5583W        W70810  29.098  40.191  11.514
 5584W        W70811   3.870  44.989   4.147
 5585W        W70812  11.352  36.508  12.016
 5586W        W70813  20.269   3.689   0.048
 5587W        W70814  26.889   1.672  13.930
 5588W        W70815  11.107  22.622   1.235
 5589W        W70816   8.469  15.222   0.915
 5590W        W70817  34.670  29.478  11.240
 5591W        W70818  26.872  26.526   4.790
 5592W        W70819   2.475  38.538   0.848
 5593W        W70820  34.906  35.475   1.376
 5594W        W70821  18.092  15.612   4.609
 5595W        W70822   0.895  24.643  13.924
 5596W        W70823  16.035  22.184  13.476
 5597W        W70824  41.665   7.875   1.841
 5598W        W70825  12.870  36.129  14.306
 5599W        W70826  14.992  36.359  11.676
 5600W        W70827   1.041  18.670  14.392
 5601W        W70828   6.712   8.659   3.238
 5602W        W70829  12.806  44.060   2.792
 5603W        W70830  34.072  26.475  13.941
 5604W        W70831  16.764  21.158   2.825
 5605W        W70832  15.245  10.629  12.540
 5606W        W70833   5.682  16.590   1.172
 5607W        W70834  21.783   5.903  12.387
 5608W        W70835  13.524   7.175  11.287
 5609W        W70836  21.809   0.043  10.702
 5610W        W70837  35.725  41.668  13.955
 5611W        W70838   8.771  32.910   4.873
 5612W        W70839  15.730  17.847   1.740
 5613W        W70840  38.567  41.401   3.779
 5614W        W70841  25.629  19.770  11.358
 5615W        W70842   3.246  10.369  12.515
 5616W        W70843  42.114  17.107   0.393
 5617W        W70844  13.483   9.437  14.488
 5618W        W70845   7.420  25.574  10.729
 5619W        W70846  31.391  11.144  13.837
 5620W        W70847   8.361  20.306   4.626
 5621W        W70848  41.422   0.019   3.659
 5622W        W70849   8.395  37.465  14.786
 5623W        W70850  12.367  25.621  14.492
 5624W        W70851  22.278  36.624  14.979
 5625W        W70852  35.149  38.759   0.383
 5626W        W70853  17.856   5.844   4.289
 5627W        W70854  10.024  13.959  13.784
 5628W        W70855  34.949  37.032   3.131
 5629W        W70856  33.160  37.289   3.098
 5630W        W70857  11.559   6.627   4.186
 5631W        W70858  14.692   2.667   2.800
 5632W        W70859  10.382  29.958  10.668
 5633W        W70860  23.169   2.256   2.084
 5634W        W70861   3.200  39.570  11.099
 5635W        W70862  31.473  28.653  13.006
 5636W        W70863  21.054  28.547   3.534
 5637W        W70864  44.488  12.202   4.093
 5638W        W70865  41.097   0.191   0.798
 5639W        W70866  40.920  42.749  10.734
 5640W        W70867  36.635  11.745   2.838
 5641W        W70868  25.205  39.879  13.791
 5642W        W70869  40.296  21.636  12.334
 5643W        W70870  22.513   1.750   0.846
 5644W        W70871  29.565   8.187  13.581
 5645W        W70872  43.578  40.604  12.732
 5646W        W70873   4.848  34.621   4.194
 5647W        W70874  28.402  29.718   4.488
 5648W        W70875  37.444   5.767  11.617
 5649W        W70876  43.883  33.685   0.988
 5650W        W70877  34.407  11.513   4.608
 5651W        W70878   8.785   9.635   3.679
 5652W        W70879  15.578  22.794  13.371
 5653W        W70880  39.918  11.787  11.246
 5654W        W70881  28.658   4.204  14.882
 5655W        W70882  43.105  21.632   3.207
 5656W        W70883  22.095  32.843   0.547
 5657W        W70884  29.830  40.493  10.116
 5658W        W70885  27.178  17.205   4.443
 5659W        W70886  27.600  34.969  10.745
 5660W        W70887  21.130  44.867   4.570
 5661W        W70888  44.017  14.609   3.352
 5662W        W70889  18.529  28.959   4.976
 5663W        W70890  14.098  19.162  12.307
 5664W        W70891  27.985  30.219   0.033
 5665W        W70892  37.054  42.904  14.184
 5666W        W70893   0.661  14.301  12.308
 5667W        W70894   2.295  13.600   2.451
 5668W        W70895  36.169   6.721  12.888
 5669W        W70896  10.445  32.093   0.299
 5670W        W70897  32.677  25.848  11.591
 5671W        W70898  31.036  12.356   4.046
 5672W        W70899  12.154  33.931  13.404
 5673W        W70900   8.222  11.400   0.734
 5674W        W70901   2.783   6.337   2.381
 5675W        W70902  37.621  34.298  12.339
 5676W        W70903  34.232  32.995  11.926
 5677W        W70904  24.282  16.455  10.767
 5678W        W70905  21.733  35.097   0.963
 5679W        W70906  33.519  42.618  13.740
 5680W        W70907  15.586  41.775   4.531
 5681W        W70908   9.304  21.115   3.627
 5682W        W70909  19.022  27.126   0.402
 5683W        W70910   8.958  17.210  13.427
 5684W        W70911  19.982  44.787   3.818
 5685W        W70912  30.594  38.323  14.414
 5686W        W70913  30.750  40.901  11.725
 5687W        W70914  27.463  17.101  11.107
 5688W        W70915  30.772  27.613  13.420
 5689W        W70916  16.882  33.435  12.485
 5690W        W70917  21.121  36.460  12.131
 5691W        W70918  39.285  11.144  11.656
 5692W        W70919  32.905  28.406  14.234
 5693W        W70920  42.460  18.090  14.495
 5694W        W70921  17.670   9.855  14.550
 5695W        W70922  39.884  28.863  12.172
 5696W        W70923   1.318  35.656   4.733
 5697W        W70924  41.452  32.913   0.022
 5698W        W70925  27.077  15.774  10.550
 5699W        W70926  24.950  38.002   4.448
 5700W        W70927   2.719  44.881  12.509
 5701W        W70928   2.434   8.746  13.979
 5702W        W70929   5.299  20.420  12.953
 5703W        W70930  13.711  18.596   4.877
 5704W        W70931   1.832   9.508  10.659
 5705W        W70932  42.090  30.896   3.494
 5706W        W70933  41.375  29.716  11.164
 5707W        W70934  30.574   3.189   3.137
 5708W        W70935  17.561  15.176   1.915
 5709W        W70936  24.070  16.195  11.691
 5710W        W70937  19.750  18.826   3.738
 5711W        W70938  26.752  23.135   2.866
 5712W        W70939  38.808  40.438  13.480
 5713W        W70940  13.652   0.845  11.599
 5714W        W70941  41.378   9.699  13.789
 5715W        W70942  29.433  11.388  13.897
 5716W        W70943  41.905  23.293  11.730
 5717W        W70944  29.430  22.916  13.014
 5718W        W70945  27.583  11.609   1.293
 5719W        W70946  38.044  21.872  13.925
 5720W        W70947  20.333   3.626  12.009
 5721W        W70948  30.093  10.791   3.681
 5722W        W70949  10.611  35.033   0.219
 5723W        W70950   3.244  31.082   4.252
 5724W        W70951   7.406  39.465  10.553
 5725W        W70952  43.833  21.279  14.698
 5726W        W70953  40.078   2.734  11.961
 5727W        W70954  39.516  30.847   0.292
 5728W        W70955  43.007  27.962   3.234
 5729W        W70956  34.274  18.580  10.921
 5730W        W70957  18.680  15.816  11.552
 5731W        W70958  43.992  21.223  10.790
 5732W        W70959  21.228   4.788  12.547
 5733W        W70960  13.223  16.536   2.235
 5734W        W70961  34.653   2.190  12.049
 5735W        W70962  41.446  24.079  14.030
 5736W        W70963  35.011  39.535   4.576
 5737W        W70964  22.202   0.868   2.396
 5738W        W70965  17.250  14.091   5.061
 5739W        W70966  12.193  44.727   3.465
 5740W        W70967  36.761  23.816   3.398
 5741W        W70968   7.779  41.242   1.654
 5742W        W70969  19.156  19.824  11.506
 5743W        W70970   7.674  24.546   4.392
 5744W        W70971   6.912   7.338   3.745
 5745W        W70972  24.897  27.159   3.582
 5746W        W70973  33.304  34.652  12.922
 5747W        W70974   5.404  43.569  13.580
 5748W        W70975  33.501  40.607   5.248
 5749W        W70976  10.867  14.351  12.996
 5750W        W70977  12.190  43.057  10.640
 5751W        W70978   8.466  39.854   4.125
 5752W        W70979  29.121  37.078   3.199
 5753W        W70980  24.493  42.951  14.878
 5754W        W70981  36.354   5.626  10.327
 5755W        W70982   2.485  20.083   0.407
 5756W        W70983  26.632   1.793  10.114
 5757W        W70984  17.339  30.635   1.905
 5758W        W70985  35.705   6.281   0.454
 5759W        W70986   5.269  29.386  11.924
 5760W        W70987  11.253  17.388   0.334
 5761W        W70988   4.895  26.540  10.487
 5762W        W70989  19.173  33.378   3.858
 5763W        W70990  19.592  20.984   1.278
 5764W        W70991  43.412   9.093   1.164
 5765W        W70992   4.415  14.766   0.509
 5766W        W70993  41.425  18.204   0.827
 5767W        W70994  35.433  41.087   3.741
 5768W        W70995  41.356   6.738  12.401
 5769W        W70996  43.926  19.314  14.998
 5770W        W70997  42.993   4.182   2.775
 5771W        W70998   8.887  36.922  12.888
 5772W        W70999  29.528   9.957  14.370
 5773W        W71000   8.232   5.468   0.897
 5774W        W71001  38.994   9.854  11.648
 5775W        W71002  43.216  32.657   0.348
 5776W        W71003   7.859  18.441   2.881
 5777W        W71004  15.501  28.965  12.528
 5778W        W71005  16.042  26.485  11.886
 5779W        W71006   2.545  11.391   4.587
 5780W        W71007  25.674   3.853  10.980
 5781W        W71008   4.234  28.375  11.925
 5782W        W71009  38.907  13.386   3.870
 5783W        W71010  13.989  36.452  10.711
 5784W        W71011   0.755   4.910   2.335
 5785W        W71012   1.010  38.795  13.385
 5786W        W71013   7.341  17.985   4.469
 5787W        W71014  21.071   2.581  12.073
 5788W        W71015  34.368  25.090   4.513
 5789W        W71016  21.969  16.020  12.980
 5790W        W71017  34.463   3.293  10.737
 5791W        W71018   1.029  19.804   0.058
 5792W        W71019  38.927  32.545   1.847
 5793W        W71020  25.554  40.791  10.627
 5794W        W71021   5.425  40.169   4.153
 5795W        W71022  18.312  22.204  12.950
 5796W        W71023  24.507  28.910   1.313
 5797W        W71024  19.945   9.464   3.669
 5798W        W71025   0.056  13.206  13.614
 5799W        W71026  19.295  26.673   1.367
 5800W        W71027  27.389   3.741   3.778
 5801W        W71028  14.573  38.432   1.334
 5802W        W71029  27.724  22.618   1.270
 5803W        W71030   8.058  19.600   0.031
 5804W        W71031  13.712   6.768   0.957
 5805W        W71032  18.623  34.937  11.526
 5806W        W71033  16.213  36.075   2.258
 5807W        W71034  14.105  35.574   2.342
 5808W        W71035   4.593  15.178  10.198
 5809W        W71036  38.336   7.080   3.191
 5810W        W71037  25.644  29.537  10.362
 5811W        W71038  30.317   4.213   1.437
 5812W        W71039  10.151   9.189   1.714
 5813W        W71040   1.470  37.963   4.052
 5814W        W71041  35.470   2.703   4.246
 5815W        W71042  36.157   9.259  11.967
 5816W        W71043  42.628  28.516  12.883
 5817W        W71044   5.613  21.257   2.833
 5818W        W71045   3.137  19.641  11.357
 5819W        W71046   1.470   8.929   3.057
 5820W        W71047   8.212  21.067   1.494
 5821W        W71048  38.666  24.051   0.863
 5822W        W71049  13.093  21.861   1.233
 5823W        W71050   3.102  35.924   2.431
 5824W        W71051  21.135  16.239   3.780
 5825W        W71052  18.399  26.547  10.618
 5826W        W71053  30.410  36.092   3.632
 5827W        W71054  13.201  34.675   0.505
 5828W        W71055   5.271  37.317   0.817
 5829W        W71056  18.203  33.191  11.397
 5830W        W71057   6.268  12.543  10.850
 5831W        W71058  17.587  35.425  11.037
 5832W        W71059  16.067  20.107   1.352
 5833W        W71060  14.844  34.189  13.967
 5834W        W71061  15.120  34.831  13.379
 5835W        W71062  33.634  43.123  11.358
 5836W        W71063  12.775   1.814   0.754
 5837W        W71064  26.041   7.435   0.673
 5838W        W71065   7.299  33.188  11.179
 5839W        W71066   4.673  31.072   2.026
 5840W        W71067   6.152   9.677  12.425
 5841W        W71068   1.947  29.666   3.207
 5842W        W71069  26.375  26.212   2.398
 5843W        W71070  33.505  21.083   0.359
 5844W        W71071  30.651  17.359  12.991
 5845W        W71072  42.072   7.846   1.514
 5846W        W71073  36.778   3.545   1.192
 5847W        W71074  32.180  36.843   2.397
 5848W        W71075  32.418  33.052   2.315
 5849W        W71076  34.800  42.514  13.300
 5850W        W71077  39.318   2.852   2.666
 5851W        W71078   2.088  31.368   0.897
 5852W        W71079  25.987  29.749   4.510
 5853W        W71080  32.627  22.117  12.540
 5854W        W71081  41.858   0.305   2.042
 5855W        W71082  10.163  25.247  11.483
 5856W        W71083  12.712   1.842  10.781
 5857W        W71084  34.790   5.797   1.841
 5858W        W71085   7.836  20.198  11.239
 5859W        W71086  30.103  34.938   3.082
 5860W        W71087  33.619  25.586   1.767
 5861W        W71088  37.989   9.899  14.912
 5862W        W71089  24.539  16.823  13.448
 5863W        W71090  28.882  30.663  14.050
 5864W        W71091  28.212  33.156  14.109
 5865W        W71092  19.016  32.306   0.594
 5866W        W71093  10.724   9.607  13.978
 5867W        W71094  15.814  38.305   0.869
 5868W        W71095  14.631  35.022  14.189
 5869W        W71096  22.671  40.965   1.389
 5870W        W71097  25.609   8.378   4.143
 5871W        W71098  18.807  23.483   1.383
 5872W        W71099  25.155  10.413  11.920
 5873W        W71100  12.896   2.949   2.694
 5874W        W71101  13.214  14.325  12.488
 5875W        W71102   9.482   5.468   1.498
 5876W        W71103   0.383  29.364   1.728
 5877W        W71104  15.638  24.977   4.509
 5878W        W71105  27.414  40.422  11.963
 5879W        W71106   9.685  24.301   4.430
 5880W        W71107  24.012  29.826   4.193
 5881W        W71108  28.863  29.598   3.955
 5882W        W71109   4.007  39.901  14.476
 5883W        W71110  33.298  20.582   2.872
 5884W        W71111  42.802  21.157   4.573
 5885W        W71112   8.408  39.458   4.529
 5886W        W71113  34.947  31.115   0.385
 5887W        W71114  42.092  36.514  14.460
 5888W        W71115   4.077   9.851   4.167
 5889W        W71116  30.661  41.994  10.457
 5890W        W71117  27.496   7.853   4.117
 5891W        W71118  39.305   5.998  12.192
 5892W        W71119  15.053  34.947  13.878
 5893W        W71120  23.068  27.718   0.212
 5894W        W71121  43.345  29.899   3.609
 5895W        W71122  30.052  14.063   0.912
 5896W        W71123  42.589  29.513   2.040
 5897W        W71124  28.539   0.390   3.108
 5898W        W71125  30.504   0.597   1.380
 5899W        W71126   5.672  15.711  12.081
 5900W        W71127  19.649  34.723  14.782
 5901W        W71128  12.096  42.743  12.493
 5902W        W71129  31.945   2.719   0.597
 5903W        W71130  37.266  30.578  12.535
 5904W        W71131  14.101  26.404   1.313
 5905W        W71132  10.612  12.897  11.038
 5906W        W71133  15.194  33.892  10.694
 5907W        W71134  42.422  11.616  13.686
 5908W        W71135  38.625   7.125  12.896
 5909W        W71136  23.042  30.513   1.095
 5910W        W71137  13.242  29.970   2.572
 5911W        W71138   3.774  36.587  13.373
 5912W        W71139   3.486  14.443  10.467
 5913W        W71140  41.959   1.213   0.875
 5914W        W71141  28.200  17.847  13.034
 5915W        W71142  13.505  24.130  11.537
 5916W        W71143  24.016  12.537  14.365
 5917W        W71144  14.970  30.469  10.544
 5918W        W71145   0.692  11.678   1.370
 5919W        W71146  27.472  29.837   2.799
 5920W        W71147  20.713  19.974   3.053
 5921W        W71148  40.970  13.175   1.345
 5922W        W71149  23.063  13.218   0.370
 5923W        W71150  21.058  16.568   2.438
 5924W        W71151  25.922  34.022   0.761
 5925W        W71152  19.460  23.674  13.020
 5926W        W71153   3.761  35.117  13.378
 5927W        W71154  11.878  39.005   3.780
 5928W        W71155  29.623  24.219  13.472
 5929W        W71156   6.771  23.774   3.839
 5930W        W71157  21.504  22.137  11.986
 5931W        W71158  35.334   1.187   3.302
 5932W        W71159  13.823  31.733  10.710
 5933W        W71160  21.998  24.232  13.492
 5934W        W71161   8.773   1.265  12.366
 5935W        W71162   5.991  30.521  11.479
 5936W        W71163  37.661  41.006  13.115
 5937W        W71164   3.622  27.893  11.114
 5938W        W71165   0.299  16.580  10.345
 5939W        W71166  22.749  17.591   3.675
 5940W        W71167  25.581  35.143   1.259
 5941W        W71168  18.928  29.484  10.618
 5942W        W71169  32.699  12.837   2.493
 5943W        W71170  19.491  34.310  12.902
 5944W        W71171  34.520  27.499  12.628
 5945W        W71172   2.055  40.416   2.394
 5946W        W71173  44.781  21.300   5.529
 5947W        W71174  37.787  11.867   3.172
 5948W        W71175  34.839  15.426   0.185
 5949W        W71176  31.141  32.175   0.717
 5950W        W71177  31.471  26.687  13.931
 5951W        W71178   4.345  40.887  11.179
 5952W        W71179  20.398  44.433   3.793
 5953W        W71180  22.601  42.989   3.702
 5954W        W71181  36.385  44.973   2.357
 5955W        W71182  11.946  22.337   4.083
 5956W        W71183   8.187   8.836  11.134
 5957W        W71184   6.496   8.708   2.759
 5958W        W71185   7.384  37.992  10.508
 5959W        W71186  19.587  21.678   4.122
 5960W        W71187  31.675  20.817  12.524
 5961W        W71188   5.720  12.191  12.030
 5962W        W71189  31.254  22.034   0.969
 5963W        W71190  21.561  20.267  13.849
 5964W        W71191  21.112  35.049   2.164
 5965W        W71192  23.999  15.337   0.916
 5966W        W71193  17.030   5.837  13.424
 5967W        W71194  23.635  32.119   2.160
 5968W        W71195  40.828  16.710  11.727
 5969W        W71196  23.494  26.461  11.594
 5970W        W71197   9.900  30.338  13.807
 5971W        W71198  10.752  24.951   3.428
 5972W        W71199   3.852  40.393   2.115
 5973W        W71200  16.010  41.104   5.544
 5974W        W71201   1.264  26.685  14.356
 5975W        W71202  38.433  38.036  11.824
 5976W        W71203   4.319  16.918   5.445
 5977W        W71204  29.107  11.690   0.299
 5978W        W71205  11.768   9.873  12.996
 5979W        W71206  34.241  38.328   0.812
 5980W        W71207  33.209   9.790   1.322
 5981W        W71208  21.837  12.618   0.242
 5982W        W71209  41.865  31.841  11.503
 5983W        W71210  29.874  36.105  13.356
 5984W        W71211  36.583  41.948  11.260
 5985W        W71212  14.041  34.085  14.800
 5986W        W71213  17.038  43.923  12.409
 5987W        W71214  10.562   5.441  13.427
 5988W        W71215  40.311  44.569  11.578
 5989W        W71216  31.066   9.328  12.069
 5990W        W71217  38.855   6.803   2.609
 5991W        W71218  35.363  16.250  14.254
 5992W        W71219  11.901  32.146   1.745
 5993W        W71220  35.580  26.809   0.858
 5994W        W71221  39.905  26.458   4.619
 5995W        W71222  17.620   4.822  14.983
 5996W        W71223  40.333  24.701  14.626
 5997W        W71224  23.727  25.188  14.017
 5998W        W71225  26.564  32.587  11.554
 5999W        W71226  17.865  26.728  12.564
 6000W        W71227  36.990  16.282  13.501
 6001W        W71228  14.760  14.762   2.392
 6002W        W71229  41.856  25.908   4.420
 6003W        W71230  17.958  22.115  14.020
 6004W        W71231  12.144  32.147  13.976
 6005W        W71232  42.157  13.277   2.697
 6006W        W71233  21.949  20.314   4.062
 6007W        W71234  27.714  42.032   2.222
 6008W        W71235   2.672  29.433  14.238
 6009W        W71236  29.540  21.548   4.497
 6010W        W71237   8.705  13.747  10.951
 6011W        W71238  11.928   4.956   3.597
 6012W        W71239   7.171  30.438   1.751
 6013W        W71240  25.183   7.139  14.327
 6014W        W71241  21.403   8.665   1.605
 6015W        W71242  35.174  21.370   2.345
 6016W        W71243   9.728  12.889   3.918
 6017W        W71244  43.290  37.296   4.228
 6018W        W71245  43.108  28.615  14.933
 6019W        W71246  35.959   3.112   2.792
 6020W        W71247  28.613  24.611  13.889
 6021W        W71248  21.476   5.251  12.450
 6022W        W71249  36.864  12.103   0.262
 6023W        W71250   6.540  20.378   3.303
 6024W        W71251  16.749  34.492   4.732
 6025W        W71252  26.172  44.455  14.725
 6026W        W71253  22.381  37.715  14.105
 6027W        W71254  19.763  36.466  11.687
 6028W        W71255  30.461  44.605   3.115
 6029W        W71256  25.094   0.724  13.953
 6030W        W71257  26.708  20.585  10.973
 6031W        W71258  21.851  33.381  12.524
 6032W        W71259  27.966  28.035   4.723
 6033W        W71260  38.768  17.449  14.785
 6034W        W71261  27.288  33.578   0.319
 6035W        W71262   3.465  37.117   9.979
 6036W        W71263   9.257  17.854  11.142
 6037W        W71264  35.343   6.766   4.588
 6038W        W71265  41.907  29.487  12.029
 6039W        W71266  38.511  38.492   1.323
 6040W        W71267   9.920  39.465   3.331
 6041W        W71268  24.704  10.935  12.501
 6042W        W71269  21.369   8.082  11.086
 6043W        W71270  22.142  17.662  13.359
 6044W        W71271  38.982  38.364  14.326
 6045W        W71272  16.249  26.414   2.299
 6046W        W71273  34.131  37.739  14.466
 6047W        W71274  25.484  41.813   3.937
 6048W        W71275  38.372   0.392   1.287
 6049W        W71276  32.343   6.081  11.946
 6050W        W71277   7.657   6.022  14.381
 6051W        W71278   7.603   6.629  14.892
 6052W        W71279  27.606  26.217   3.781
 6053W        W71280  31.973  18.569   1.036
 6054W        W71281  33.149   7.854   0.345
 6055W        W71282  19.718  39.084  13.994
 6056W        W71283   7.862  14.318  10.701
 6057W        W71284  17.496  39.561  12.070
 6058W        W71285  43.523  33.556   3.652
 6059W        W71286  31.353  13.202   0.816
 6060W        W71287  33.637  12.744  14.909
 6061W        W71288   1.388  33.351   0.919
 6062W        W71289  33.381   5.126   4.670
 6063W        W71290   1.998  12.353  11.468
 6064W        W71291  19.195  33.632   0.507
 6065W        W71292  23.118  33.893   4.281
 6066W        W71293   4.199   9.402   3.189
 6067W        W71294  32.837  36.961  12.901
 6068W        W71295  24.099  14.090   0.748
 6069W        W71296  21.029  22.304  14.259
 6070W        W71297  41.685  41.555  12.647
 6071W        W71298   6.747  22.044   2.401
 6072W        W71299  28.163  10.412  14.386
 6073W        W71300   2.278   3.779   3.685
 6074W        W71301  21.503   2.236  10.997
 6075W        W71302  36.429  15.275  14.447
 6076W        W71303  19.362  11.275   3.727
 6077W        W71304  33.076  24.150  11.156
 6078W        W71305  17.138  44.847   3.182
 6079W        W71306  36.470  31.943   2.052
 6080W        W71307  14.698  34.804   2.856
 6081W        W71308   0.839  40.120  10.231
 6082W        W71309  11.727   7.337  10.554
 6083W        W71310  41.478  35.831  13.112
 6084W        W71311  42.063  42.297  13.338
 6085W        W71312  40.234  43.057   9.890
 6086W        W71313  22.065   0.956  12.858
 6087W        W71314  37.615  19.142   0.914
 6088W        W71315   3.216   4.722  12.505
 6089W        W71316  29.729   2.652   3.324
 6090W        W71317  21.625  25.390   3.252
 6091W        W71318  18.172  25.067  10.847
 6092W        W71319   6.958  14.359   0.415
 6093W        W71320  26.852  39.890   0.003
 6094W        W71321   0.980  27.210   2.603
 6095W        W71322  15.033  14.204  11.605
 6096W        W71323  15.787  10.259   0.922
 6097W        W71324  19.788  21.720  11.067
 6098W        W71325  29.700  31.922  13.793
 6099W        W71326  43.419   4.890   1.287
 6100W        W71327  19.168  33.166   0.266
 6101W        W71328   0.909   8.444   4.849
 6102W        W71329  14.724  31.205  10.720
 6103W        W71330  27.493  32.425   1.460
 6104W        W71331   0.880   1.307   4.026
 6105W        W71332  21.056  17.334  10.981
 6106W        W71333  18.575  15.271   1.536
 6107W        W71334  40.897  10.263   1.316
 6108W        W71335  27.270   6.925   1.200
 6109W        W71336   1.716  18.775   0.260
 6110W        W71337   3.661  17.626  13.464
 6111W        W71338  37.041  20.370  14.945
 6112W        W71339  24.075  15.747   1.648
 6113W        W71340  15.128   5.102  11.144
 6114W        W71341   1.042  32.385  13.395
 6115W        W71342  29.817  36.971   0.588
 6116W        W71343   1.468  35.351   3.758
 6117W        W71344  20.030  15.913  13.402
 6118W        W71345   6.511  24.208   0.915
 6119W        W71346  32.374  39.447   0.321
 6120W        W71347  10.811  41.196   0.845
 6121W        W71348  39.042   5.792  14.048
 6122W        W71349  37.257  41.125  13.498
 6123W        W71350  35.556   5.481   4.107
 6124W        W71351  15.587  28.107  14.736
 6125W        W71352   0.962   5.918   2.329
 6126W        W71353  21.678   3.233   1.766
 6127W        W71354  11.398   0.467  11.758
 6128W        W71355   1.295  28.115  13.358
 6129W        W71356   0.402  29.127   2.197
 6130W        W71357  36.572  43.601  13.972
 6131W        W71358  33.629  19.469  12.432
 6132W        W71359  21.293  29.643  11.442
 6133W        W71360   4.040  31.611   1.033
 6134W        W71361  30.116   5.374  14.823
 6135W        W71362  21.771  40.440  10.613
 6136W        W71363  37.142   2.305  10.763
 6137W        W71364  40.795   4.841  13.984
 6138W        W71365   1.307  27.440   1.417
 6139W        W71366  30.626  17.647  12.145
 6140W        W71367  16.639   9.287  14.358
 6141W        W71368  26.487  34.057  13.448
 6142W        W71369  36.382  29.030  12.798
 6143W        W71370  35.980  40.044   3.593
 6144W        W71371   6.425  37.992  14.792
 6145W        W71372  32.901  12.068  14.412
 6146W        W71373   0.805   8.875   1.437
 6147W        W71374  11.240  21.435   3.076
 6148W        W71375  13.862  18.077   0.252
 6149W        W71376  30.652   8.339  13.049
 6150W        W71377  15.180  18.003   0.383
 6151W        W71378  36.497  24.706   4.222
 6152W        W71379   4.862  40.233  11.988
 6153W        W71380  36.652  31.932   9.981
 6154W        W71381  17.504  35.088   4.591
 6155W        W71382   2.321  40.476   1.514
 6156W        W71383   3.288  35.413  12.520
 6157W        W71384   2.935  12.757  11.586
 6158W        W71385   1.611  37.937   2.678
 6159W        W71386   7.841  15.782  12.072
 6160W        W71387  13.103  14.629   1.900
 6161W        W71388  23.886   5.363   4.922
 6162W        W71389  11.185  15.094   2.809
 6163W        W71390  22.806  12.185  11.624
 6164W        W71391  24.586  44.550  11.607
 6165W        W71392  29.004   9.883   4.544
 6166W        W71393  27.261  13.132   0.773
 6167W        W71394   5.349  40.456  11.991
 6168W        W71395  38.515  33.497   0.967
 6169W        W71396  26.953  44.114   9.758
 6170W        W71397  20.426  24.275   0.733
 6171W        W71398  11.771  29.576  13.433
 6172W        W71399  16.292  44.501   1.788
 6173W        W71400  24.466  13.715   2.810
 6174W        W71401  39.721  25.969   1.149
 6175W        W71402  29.349  22.161   3.771
 6176W        W71403  16.395  23.214   3.727
 6177W        W71404  34.991  30.411  12.234
 6178W        W71405  18.533  17.514   0.936
 6179W        W71406   0.253  10.446  12.898
 6180W        W71407  11.885  28.098   3.599
 6181W        W71408   2.354  38.843  10.574
 6182W        W71409   1.519  37.463  14.427
 6183W        W71410  12.102  22.799   1.033
 6184W        W71411  39.876  37.777  12.918
 6185W        W71412   2.369  17.152  10.667
 6186W        W71413  28.546  36.466   0.648
 6187W        W71414  20.295  22.562  14.782
 6188W        W71415   7.924  39.807  13.138
 6189W        W71416  22.124  22.818  13.312
 6190W        W71417  17.355  39.951  14.945
 6191W        W71418  21.039  19.534   0.929
 6192W        W71419   5.303  12.144  11.695
 6193W        W71420  19.596  44.672   4.198
 6194W        W71421  43.534  23.826  13.047
 6195W        W71422  32.421  44.905   0.361
 6196W        W71423  22.558  34.058  14.463
 6197W        W71424  32.952   8.885  11.299
 6198W        W71425  34.047  22.465  12.364
 6199W        W71426  32.420  28.201   0.785
 6200W        W71427  25.146  24.209   3.203
 6201W        W71428   7.463  27.534   3.261
 6202W        W71429  22.793   5.247  12.925
 6203W        W71430  23.787  23.801   0.940
 6204W        W71431  32.195  10.127  12.929
 6205W        W71432  27.720  40.172  12.860
 6206W        W71433  30.077  33.866  13.810
 6207W        W71434  25.959   0.744  14.418
 6208W        W71435  31.470  43.386   2.548
 6209W        W71436  29.067  24.996  11.102
 6210W        W71437   3.339   7.139   2.089
 6211W        W71438  19.675  44.462   4.673
 6212W        W71439  20.193   5.257   3.922
 6213W        W71440   0.857   0.274   1.852
 6214W        W71441  28.868   1.442   1.387
 6215W        W71442   8.708   8.393   1.773
 6216W        W71443  20.136  37.569   0.995
 6217W        W71444  21.724   7.053   3.038
 6218W        W71445  43.269  21.132   2.219
 6219W        W71446  20.208   9.106  13.081
 6220W        W71447  42.568  34.319  13.819
 6221W        W71448  31.978  13.813  10.541
 6222W        W71449  28.982  25.907  14.027
 6223W        W71450  34.349  44.581  12.558
 6224W        W71451  29.918  39.001  10.617
 6225W        W71452  14.264   7.763   2.319
 6226W        W71453   1.959   6.377  10.664
 6227W        W71454   9.988  13.310   3.272
 6228W        W71455  21.551   9.327  13.793
 6229W        W71456  31.372  25.756   2.195
 6230W        W71457  29.421   6.492   0.482
 6231W        W71458  15.730   2.365  13.237
 6232W        W71459  27.647  42.420  14.945
 6233W        W71460  26.679  22.226   0.318
 6234W        W71461  42.703   1.799  12.394
 6235W        W71462  32.423  37.342   1.609
 6236W        W71463  32.284  37.332  13.920
 6237W        W71464  35.854  17.095  11.519
 6238W        W71465  11.648   0.063   2.764
 6239W        W71466   2.920  20.252   2.730
 6240W        W71467  40.100  23.047   0.313
 6241W        W71468  26.830  35.582   4.113
 6242W        W71469  44.860  34.560   2.664
 6243W        W71470  44.318   4.902   0.732
 6244W        W71471  10.194   7.353  14.440
 6245W        W71472   9.966  30.847  13.918
 6246W        W71473  37.177   6.496  12.933
 6247W        W71474  43.343  15.511   4.248
 6248W        W71475  25.646  28.536  14.903
 6249W        W71476  11.269  35.775  13.086
 6250W        W71477  24.217   1.374   1.915
 6251W        W71478  44.863   2.824  13.780
 6252W        W71479  36.246   9.173  14.866
 6253W        W71480  13.708  39.555  14.552
 6254W        W71481  40.475  39.076   9.755
 6255W        W71482  36.918  10.095  11.056
 6256W        W71483  13.578   2.047  13.182
 6257W        W71484  22.926  11.804  12.511
 6258W        W71485  43.816  33.531   0.482
 6259W        W71486  31.151  24.632   4.255
 6260W        W71487  26.758   4.990  11.533
 6261W        W71488  18.033  30.196   3.307
 6262W        W71489  34.316   5.298   0.384
 6263W        W71490  14.622  22.554   2.342
 6264W        W71491   9.668  36.209   3.141
 6265W        W71492  26.783  15.357   2.575
 6266W        W71493  20.544  15.211  14.448
 6267W        W71494  39.504  23.640   0.133
 6268W        W71495  20.503  10.205  11.561
 6269W        W71496  32.291   3.020   3.207
 6270W        W71497  15.228  10.379   4.611
 6271W        W71498   2.983  42.530   3.788
 6272W        W71499  22.110  19.995   2.692
 6273W        W71500   3.304   3.836  10.828
 6274W        W71501  27.758  33.179  12.035
 6275W        W71502  32.447  32.690   0.782
 6276W        W71503  24.507  32.107  10.491
 6277W        W71504   8.436  27.115   0.300
 6278W        W71505   0.211  43.394   3.074
 6279W        W71506  12.577  19.777  11.620
 6280W        W71507   4.371  27.011   3.752
 6281W        W71508  27.951  34.345   0.386
 6282W        W71509  40.397  10.888   3.861
 6283W        W71510   6.258  18.994   2.241
 6284W        W71511   9.915  37.166  11.165
 6285W        W71512  25.610  29.274  14.301
 6286W        W71513  31.928  30.094   1.776
 6287W        W71514  27.960  20.344   4.124
 6288W        W71515  21.192  33.428   2.103
 6289W        W71516   1.624  16.088   3.520
 6290W        W71517   5.656  26.961  12.047
 6291W        W71518  22.595  16.639  14.754
 6292W        W71519  43.578  10.838   1.770
 6293W        W71520  27.033  30.165   4.675
 6294W        W71521  39.803  26.977  11.575
 6295W        W71522  42.437  44.477  12.067
 6296W        W71523   3.734   4.635  13.275
 6297W        W71524   2.224  31.935  14.060
 6298W        W71525   3.077  34.403   0.465
 6299W        W71526   9.166  44.895  12.631
 6300W        W71527  18.788   5.082  11.156
 6301W        W71528   5.916  17.376  11.620
 6302W        W71529   6.492  43.075   3.307
 6303W        W71530  15.525  21.751  14.797
 6304W        W71531  42.438  30.458   4.703
 6305W        W71532  40.376  20.997  14.408
 6306W        W71533  18.328   5.242   2.128
 6307W        W71534  22.664   8.405   3.819
 6308W        W71535   8.535  13.682   0.250
 6309W        W71536  34.013  21.163  12.222
 6310W        W71537  18.520  43.118  11.604
 6311W        W71538  43.491  25.626   4.963
 6312W        W71539  22.938  40.111  11.261
 6313W        W71540  17.138   5.011   3.593
 6314W        W71541  26.012  29.597  13.926
 6315W        W71542  42.399  16.630   1.747
 6316W        W71543  34.096  26.506   3.674
 6317W        W71544  23.007   8.181   2.275
 6318W        W71545  30.893   7.808   3.257
 6319W        W71546  11.585   3.320   5.113
 6320W        W71547  39.388  25.100   3.038
 6321W        W71548   5.466  40.465   1.292
 6322W        W71549  43.950  10.836   1.400
 6323W        W71550  20.991   4.840   5.132
 6324W        W71551   9.618  13.678   1.733
 6325W        W71552  19.591  35.898  14.083
 6326W        W71553   6.631   2.831   0.394
 6327W        W71554   7.095  35.486   2.722
 6328W        W71555  37.557   9.169   0.423
 6329W        W71556  34.580  32.473   1.428
 6330W        W71557  14.765  37.889  10.705
 6331W        W71558  38.586   1.711  13.809
 6332W        W71559  34.024   1.970   3.949
 6333W        W71560  43.395  29.882   1.967
 6334W        W71561  30.072   5.580   1.786
 6335W        W71562  44.313  36.769   3.072
 6336W        W71563  28.425  10.543   3.615
 6337W        W71564  42.200  38.490  11.528
 6338W        W71565  12.890  15.311  11.660
 6339W        W71566  40.057  33.070  11.168
 6340W        W71567   8.432  12.251   1.223
 6341W        W71568  18.718  24.673   0.693
 6342W        W71569  32.573  26.536   1.791
 6343W        W71570  16.576   8.099  12.072
 6344W        W71571  36.527  37.289   3.716
 6345W        W71572  11.775  25.027  13.557
 6346W        W71573  17.965  31.095   3.238
 6347W        W71574  39.561   3.383  13.244
 6348W        W71575  35.451  32.219  13.912
 6349W        W71576   4.059   2.711  12.298
 6350W        W71577   6.131  28.427  12.843
 6351W        W71578  32.954  11.749  13.336
 6352W        W71579  39.246  37.655  10.950
 6353W        W71580  39.014  37.806   1.386
 6354W        W71581  28.719  19.935   5.018
 6355W        W71582  27.847  39.093   0.728
 6356W        W71583  42.745  24.299   0.437
 6357W        W71584  26.004   1.174   0.372
 6358W        W71585  27.212  31.714  13.527
 6359W        W71586  33.592  44.235  14.049
 6360W        W71587  12.240  40.319   4.523
 6361W        W71588   2.775   7.895   0.322
 6362W        W71589   5.113  12.499  13.404
 6363W        W71590  31.953  12.089  12.864
 6364W        W71591   2.274  25.205  12.067
 6365W        W71592  25.384   7.772   2.671
 6366W        W71593  21.694  23.146   1.761
 6367W        W71594  41.044   7.307   1.571
 6368W        W71595   2.366  21.035   4.521
 6369W        W71596  37.901  33.800   0.770
 6370W        W71597  32.326  28.708  12.660
 6371W        W71598   1.036  16.846  10.670
 6372W        W71599  12.695  19.160  13.981
 6373W        W71600  17.798   6.218   0.837
 6374W        W71601   2.506  15.769  10.695
 6375W        W71602  13.318  42.471  14.458
 6376W        W71603  40.712  18.723   0.864
 6377W        W71604  30.042   8.173  10.708
 6378W        W71605  29.658  44.409   4.230
 6379W        W71606  43.313  25.962  13.601
 6380W        W71607  35.591  32.737   3.082
 6381W        W71608  44.060  24.823   5.334
 6382W        W71609  23.264  34.018   1.074
 6383W        W71610  39.879   6.704   0.312
 6384W        W71611  19.588  14.161   1.907
 6385W        W71612  26.169  18.609   4.163
 6386W        W71613  12.175  36.171  10.431
 6387W        W71614   6.347  16.771  13.789
 6388W        W71615  27.759  12.516   1.435
 6389W        W71616  41.856  41.805  11.167
 6390W        W71617  16.355   8.374  12.455
 6391W        W71618  43.719  18.140  13.095
 6392W        W71619  21.128   9.349   2.617
 6393W        W71620   6.366   6.761  12.625
 6394W        W71621  44.538  18.966   2.340
 6395W        W71622  23.592  28.707   3.612
 6396W        W71623   3.902  39.816  12.231
 6397W        W71624   7.851   1.872  14.374
 6398W        W71625  12.647  41.362  14.362
 6399W        W71626  40.017   7.343  14.514
 6400W        W71627  21.716  24.566  12.903
 6401W        W71628  17.771   6.642  14.061
 6402W        W71629   3.398   3.581   4.131
 6403W        W71630  35.842  19.407  12.433
 6404W        W71631  34.121  10.917  13.391
 6405W        W71632  32.477  22.196  13.523
 6406W        W71633   2.105  32.217  13.628
 6407W        W71634  41.879  40.290  12.931
 6408W        W71635  33.995  13.138  13.827
 6409W        W71636  22.929  36.869  11.577
 6410W        W71637  11.406  42.238  13.480
 6411W        W71638   1.359   7.114  11.430
 6412W        W71639  41.906  36.065   2.593
 6413W        W71640  38.849  22.086   2.753
 6414W        W71641  15.515  41.398   4.184
 6415W        W71642  16.205   0.894   0.540
 6416W        W71643  27.892  32.014  14.839
 6417W        W71644  44.709  43.108   3.854
 6418W        W71645   4.239  18.039   2.472
 6419W        W71646   7.300  23.758   4.636
 6420W        W71647  23.995  43.566  14.249
 6421W        W71648  25.014  29.667   1.246
 6422W        W71649  31.733  39.993   4.060
 6423W        W71650  13.440   2.340  12.680
 6424W        W71651  17.129   7.897   2.736
 6425W        W71652  42.065  12.244  10.701
 6426W        W71653  34.036  25.491   0.811
 6427W        W71654  15.401  21.679   1.722
 6428W        W71655   0.829   5.202  12.633
 6429W        W71656  30.715  30.035  13.533
 6430W        W71657  29.815  26.783   2.531
 6431W        W71658   2.209  28.109   1.372
 6432W        W71659  36.647   8.946  12.338
 6433W        W71660  28.654  16.062  11.039
 6434W        W71661  17.996  27.573  12.984
 6435W        W71662  15.134  31.863  10.476
 6436W        W71663  37.344  36.996  12.551
 6437W        W71664  31.561   9.171  14.789
 6438W        W71665  26.886   8.653  14.913
 6439W        W71666  27.025  41.779   1.276
 6440W        W71667  36.986  40.914  13.108
 6441W        W71668  43.395  20.202  14.562
 6442W        W71669  41.131  25.046  14.858
 6443W        W71670  28.062  16.605   1.713
 6444W        W71671  20.128  36.285   2.638
 6445W        W71672  29.000  34.312   2.930
 6446W        W71673  24.530   5.286  10.977
 6447W        W71674  44.740  11.920   3.715
 6448W        W71675  34.163  15.021  13.512
 6449W        W71676  31.400   3.353   1.872
 6450W        W71677   3.847  16.084   4.381
 6451W        W71678  11.657  22.920   0.657
 6452W        W71679   8.162  22.600   3.207
 6453W        W71680  17.974  43.295  14.923
 6454W        W71681   8.663  12.779   4.367
 6455W        W71682  21.782  32.471  12.448
 6456W        W71683  29.181  40.480   3.391
 6457W        W71684  32.991  36.381  13.391
 6458W        W71685   0.687  19.745   1.331
 6459W        W71686  17.686  20.035  14.540
 6460W        W71687  18.133   0.837   2.976
 6461W        W71688  41.421  32.979  11.214
 6462W        W71689  38.709  41.378   0.927
 6463W        W71690   0.014  15.142   2.144
 6464W        W71691  40.911   2.782  10.559
 6465W        W71692  14.603  16.836  10.756
 6466W        W71693   3.462  35.322   0.934
 6467W        W71694  28.015   0.995  13.007
 6468W        W71695  15.270  44.836  10.722
 6469W        W71696  29.624   9.184   1.805
 6470W        W71697   3.990   7.833  14.338
 6471W        W71698  29.177   4.447  13.355
 6472W        W71699  41.971  34.154  11.253
 6473W        W71700  21.532  27.003  13.654
 6474W        W71701  28.569  44.303  11.583
 6475W        W71702  39.167   2.542  10.706
 6476W        W71703  29.144  15.439  12.655
 6477W        W71704  34.597  23.282   1.343
 6478W        W71705  15.688  18.165   4.075
 6479W        W71706  30.525   2.879  13.378
 6480W        W71707  37.819   8.949  14.964
 6481W        W71708  27.125  39.573   3.687
 6482W        W71709  21.650  32.908   0.207
 6483W        W71710  17.110  30.209   1.147
 6484W        W71711  36.818   8.369   2.799
 6485W        W71712   3.334  14.632  12.674
 6486W        W71713  27.457  27.539   2.727
 6487W        W71714  30.971   4.801   1.417
 6488W        W71715  26.350   5.197  13.508
 6489W        W71716   9.151  15.298  14.332
 6490W        W71717  13.502  18.712  10.655
 6491W        W71718  20.005   0.364  14.502
 6492W        W71719   0.733  10.152   4.205
 6493W        W71720  11.023  42.267   2.088
 6494W        W71721  32.408  22.092  10.659
 6495W        W71722  38.321   1.401   0.491
 6496W        W71723  11.555  35.137   0.764
 6497W        W71724  30.977  18.434   2.950
 6498W        W71725  37.164  36.008  12.465
 6499W        W71726  21.977  33.636  14.484
 6500W        W71727  44.353  28.029   2.845
 6501W        W71728   2.173  34.830  12.578
 6502W        W71729   0.775   1.211  11.939
 6503W        W71730   8.876  12.357  12.483
 6504W        W71731  19.538  36.338  14.370
 6505W        W71732   5.249  41.735  12.902
 6506W        W71733  24.945  14.049  14.814
 6507W        W71734  18.699  12.042  11.990
 6508W        W71735  33.128  31.562   0.385
 6509W        W71736  10.640  20.090   1.959
 6510W        W71737  20.549   4.624   3.272
 6511W        W71738   8.134   1.111  12.055
 6512W        W71739   3.542   0.447  12.517
 6513W        W71740  26.785  13.226   3.318
 6514W        W71741   6.924  12.581   4.182
 6515W        W71742  41.341  30.876   4.153
 6516W        W71743  33.624  13.698   1.204
 6517W        W71744   5.194  30.931   2.142
 6518W        W71745   2.602   9.926   1.999
 6519W        W71746  27.433  21.548  12.417
 6520W        W71747   9.872  37.590  14.646
 6521W        W71748  17.005  12.311   4.595
 6522W        W71749  12.295  18.846  14.063
 6523W        W71750  20.045  23.647   1.770
 6524W        W71751  21.323   2.741  13.098
 6525W        W71752  37.281  12.007   3.352
 6526W        W71753  30.160  38.476  13.510
 6527W        W71754  29.730   3.906  14.007
 6528W        W71755   0.767  22.969  11.102
 6529W        W71756  11.626  34.439  12.024
 6530W        W71757  12.144  20.208   1.090
 6531W        W71758  44.041  44.934  12.438
 6532W        W71759   1.313  39.127   0.958
 6533W        W71760  36.343  41.317   0.848
 6534W        W71761  31.644  32.060   0.514
 6535W        W71762  30.733  39.506   3.877
 6536W        W71763   0.972  11.110   2.213
 6537W        W71764  13.307  30.663  11.149
 6538W        W71765   9.912  21.720  12.525
 6539W        W71766   4.863  35.600   2.481
 6540W        W71767  17.730  14.782  10.646
 6541W        W71768  17.580  19.542  14.174
 6542W        W71769  37.468   0.402   4.661
 6543W        W71770  17.995  32.272   4.212
 6544W        W71771  39.994  15.270  14.493
 6545W        W71772   8.229  25.472   1.831
 6546W        W71773   1.551  43.433  12.506
 6547W        W71774   2.072  11.137  14.722
 6548W        W71775  14.342  12.692   4.363
 6549W        W71776   0.521  31.962  12.621
 6550W        W71777   5.222  17.687   4.579
 6551W        W71778  39.462  31.062  11.872
 6552W        W71779  24.957   8.579  12.479
 6553W        W71780   9.096   6.812  11.036
 6554W        W71781  37.965   0.331  12.557
 6555W        W71782  25.757  25.717  13.380
 6556W        W71783   3.465  34.546   3.597
 6557W        W71784  27.764  32.954   4.502
 6558W        W71785   1.001   0.547   2.737
 6559W        W71786  25.046   8.342   0.840
 6560W        W71787  24.587   7.141  13.089
 6561W        W71788   8.744   2.874  11.137
 6562W        W71789   4.917  18.976   4.313
 6563W        W71790   4.474  13.978   5.219
 6564W        W71791  42.280  24.502   0.258
 6565W        W71792  17.719  29.208  12.351
 6566W        W71793  41.008  35.938  14.836
 6567W        W71794  36.555  41.836   0.791
 6568W        W71795  31.984  30.360   3.382
 6569W        W71796   1.116   7.713  13.369
 6570W        W71797  28.622  35.499   0.261
 6571W        W71798  35.057  36.530   4.834
 6572W        W71799  34.436  42.206  10.426
 6573W        W71800  19.991   7.856   4.622
 6574W        W71801  20.086  29.403   4.746
 6575W        W71802  19.332  39.460  10.558
 6576W        W71803  18.147  27.167   1.201
 6577W        W71804   2.544   8.827   1.380
 6578W        W71805  35.997  43.056   1.446
 6579W        W71806  35.066  14.959   3.406
 6580W        W71807  16.661   2.911  14.855
 6581W        W71808  13.129  29.533   2.834
 6582W        W71809  26.560  14.668  14.852
 6583W        W71810   7.799   2.716   2.706
 6584W        W71811  27.347  23.985   3.896
 6585W        W71812  19.132  10.364  14.980
 6586W        W71813  27.574  26.076  13.190
 6587W        W71814  36.736  27.324  13.287
 6588W        W71815  18.277  31.150  13.380
 6589W        W71816  41.272  43.007  11.563
 6590W        W71817  38.056   9.503  14.029
 6591W        W71818  29.470  34.922  11.355
 6592W        W71819  26.682  25.091  14.045
 6593W        W71820  18.644  17.008   4.114
 6594W        W71821  11.618  31.704  11.821
 6595W        W71822  39.668  25.251   0.873
 6596W        W71823  26.143   2.729   4.690
 6597W        W71824  42.939  23.002   2.333
 6598W        W71825  28.849  34.938   3.167
 6599W        W71826   2.451  26.060   4.853
 6600W        W71827  19.281   5.842  12.169
 6601W        W71828  44.921  21.732  14.835
 6602W        W71829  36.746  28.484   0.466
 6603W        W71830   8.703  27.296  13.824
 6604W        W71831  44.362  42.487   4.304
 6605W        W71832   7.221  21.275  12.104
 6606W        W71833  23.487  22.061  12.779
 6607W        W71834  32.977  33.970   3.874
 6608W        W71835  38.001  36.690  12.046
 6609W        W71836   6.442  41.062  12.903
 6610W        W71837  11.695  13.862   1.714
 6611W        W71838  44.132  30.020   0.042
 6612W        W71839  27.162   9.895   4.300
 6613W        W71840  10.233  14.348   4.098
 6614W        W71841   5.836  27.407  10.683
 6615W        W71842  16.611  36.963   2.846
 6616W        W71843  25.782  30.961   0.970
 6617W        W71844  28.365  23.173   3.823
 6618W        W71845   9.751   6.217  12.450
 6619W        W71846   5.958  39.379  14.663
 6620W        W71847  20.183  13.831   4.898
 6621W        W71848  40.279  15.215   3.724
 6622W        W71849  22.382   5.932   2.770
 6623W        W71850  41.301  26.921   3.651
 6624W        W71851   2.186  39.492   3.795
 6625W        W71852  11.781  15.689   2.242
 6626W        W71853   3.859  16.081   1.754
 6627W        W71854  12.105  22.743   0.493
 6628W        W71855  36.698  38.698  11.657
 6629W        W71856  38.845  35.095  13.950
 6630W        W71857   0.364   8.918  10.733
 6631W        W71858  23.845  28.860  14.914
 6632W        W71859   3.738  12.221   2.603
 6633W        W71860  35.577  26.139  12.820
 6634W        W71861  44.540   7.559   0.525
 6635W        W71862  17.687  27.463   4.250
 6636W        W71863  30.367   6.676  13.950
 6637W        W71864  11.004   7.876  11.924
 6638W        W71865  43.313  27.830  12.837
 6639W        W71866  24.663  44.047  11.570
 6640W        W71867  24.615  11.695  12.944
 6641W        W71868  41.831  11.880  14.230
 6642W        W71869  18.788   7.962   4.201
 6643W        W71870  23.174   2.752  12.468
 6644W        W71871  25.178   6.339   0.811
 6645W        W71872  15.673  23.265   1.475
 6646W        W71873  10.766  12.003   1.377
 6647W        W71874  24.668  27.656  12.965
 6648W        W71875  13.804  23.077  11.013
 6649W        W71876  24.110  33.405  10.325
 6650W        W71877  25.179  17.763  11.228
 6651W        W71878  44.326  13.143  12.188
 6652W        W71879  39.911  26.144  13.962
 6653W        W71880  10.202  19.660   4.654
 6654W        W71881  17.852  19.567   1.826
 6655W        W71882  22.737  35.620   1.651
 6656W        W71883  40.404  18.121   2.855
 6657W        W71884  21.914  37.570   2.806
 6658W        W71885  27.625   3.628  12.490
 6659W        W71886  11.849  29.994   2.899
 6660W        W71887   1.931  30.112   1.411
 6661W        W71888   2.183  27.226  14.955
 6662W        W71889  15.713  26.081  10.295
 6663W        W71890  22.751  44.421  11.572
 6664W        W71891  15.749  20.086   3.766
 6665W        W71892  19.416  26.191   1.522
 6666W        W71893  29.021  24.017  14.470
 6667W        W71894  25.026  20.768   0.013
 6668W        W71895   4.032  41.251   0.228
 6669W        W71896   0.640   4.629  10.313
 6670W        W71897   1.611  19.983   3.084
 6671W        W71898   7.306  31.858   2.893
 6672W        W71899  13.230  44.843   2.594
 6673W        W71900  32.935  41.550   3.175
 6674W        W71901  16.231  39.147   2.019
 6675W        W71902  31.110  23.152   4.903
 6676W        W71903  19.397  15.793   4.172
 6677W        W71904  35.607  27.556   2.043
 6678W        W71905   3.276  37.618   2.857
 6679W        W71906  38.776  42.533  10.897
 6680W        W71907  41.256   1.065  13.972
 6681W        W71908  32.558  16.055   3.837
 6682W        W71909   5.957  16.234   2.692
 6683W        W71910  22.224  16.791   0.921
 6684W        W71911  14.177   3.991  11.590
 6685W        W71912   1.683  34.541  13.939
 6686W        W71913   1.445  13.142   4.613
 6687W        W71914  42.504  16.033  13.016
 6688W        W71915  43.424  42.561  13.138
 6689W        W71916  14.760   2.015  14.053
 6690W        W71917  37.835  29.170   4.594
 6691W        W71918  36.826  16.424  11.369
 6692W        W71919  14.155  31.902  12.010
 6693W        W71920  43.477  29.523  13.572
 6694W        W71921   4.837  14.174  11.615
 6695W        W71922  29.562  19.479  13.411
 6696W        W71923  39.316  27.394  12.125
 6697W        W71924  11.916  21.255   2.578
 6698W        W71925   3.757  38.635   0.487
 6699W        W71926  28.669  26.472  14.962
 6700W        W71927  10.248  38.270   3.724
 6701W        W71928   0.957  36.131  11.582
 6702W        W71929  42.035  28.973   3.773
 6703W        W71930  33.849  24.511  10.687
 6704W        W71931  19.692  10.842  11.952
 6705W        W71932  42.406  14.686  14.355
 6706W        W71933  24.392  18.632   4.603
 6707W        W71934  29.442  26.731  12.959
 6708W        W71935   5.929   2.935   3.884
 6709W        W71936   9.424  30.973  10.583
 6710W        W71937  40.881   5.227   4.993
 6711W        W71938  24.321  41.043   2.380
 6712W        W71939   7.275  19.753   2.385
 6713W        W71940  14.560   6.459   3.685
 6714W        W71941  35.485  19.166   0.234
 6715W        W71942  33.232  18.700  12.381
 6716W        W71943  20.243  36.293   0.825
 6717W        W71944   8.886  15.723  14.448
 6718W        W71945  40.953  21.508   3.286
 6719W        W71946   7.659  14.028   3.723
 6720W        W71947   5.328  36.809   3.650
 6721W        W71948  10.109  29.564  14.416
 6722W        W71949  44.491  31.363  11.126
 6723W        W71950  32.202  32.954  14.032
 6724W        W71951  26.642   1.483  14.371
 6725W        W71952  22.644  22.303   1.237
 6726W        W71953  26.553   6.999   2.886
 6727W        W71954   3.912  28.574   3.799
 6728W        W71955  18.684   3.733   3.729
 6729W        W71956  29.824  14.208   2.237
 6730W        W71957   2.401  11.396   2.745
 6731W        W71958  38.838  39.434   3.233
 6732W        W71959  42.963  42.419  12.874
 6733W        W71960  14.411  22.033   3.215
 6734W        W71961  34.913  10.246   1.497
 6735W        W71962  30.337  39.090  12.414
 6736W        W71963  23.267  39.429   1.728
 6737W        W71964   4.466  39.581   4.069
 6738W        W71965  35.015  37.956   2.605
 6739W        W71966  29.021  38.555  12.682
 6740W        W71967   0.309  31.392   3.479
 6741W        W71968  26.754  12.675   1.457
 6742W        W71969  17.096   6.183   1.474
 6743W        W71970  44.961   0.315  10.886
 6744W        W71971  18.260  39.625  14.787
 6745W        W71972  36.118   6.693   3.247
 6746W        W71973  23.010  14.138  10.457
 6747W        W71974  15.283  25.110   0.716
 6748W        W71975  21.542  13.556  13.404
 6749W        W71976  36.295  16.600  11.360
 6750W        W71977  34.078   4.714   1.997
 6751W        W71978   4.451  43.538  12.002
 6752W        W71979  23.962  17.924  11.577
 6753W        W71980  43.454   8.453   1.790
 6754W        W71981   2.207  13.574  13.039
 6755W        W71982  36.649   6.203  10.900
 6756W        W71983   1.486  17.718   4.101
 6757W        W71984  29.183  39.865   1.565
 6758W        W71985  22.480  12.853   2.280
 6759W        W71986   0.814  17.571   2.228
 6760W        W71987  32.573   7.282   4.698
 6761W        W71988  43.084  44.414  14.512
 6762W        W71989  34.029  22.043  14.498
 6763W        W71990  38.300  37.334  11.140
 6764W        W71991  12.373  37.602   3.116
 6765W        W71992  34.934  18.706   1.022
 6766W        W71993  42.392  22.192  10.917
 6767W        W71994  18.591  28.561  12.855
 6768W        W71995  42.731  32.244  11.999
 6769W        W71996  24.165  40.483  12.108
 6770W        W71997  20.664  16.581   0.720
 6771W        W71998  30.807  16.734   0.525
 6772W        W71999  41.775  36.931   4.526
 6773W        W72000  22.504  11.411   0.270
 6774W        W72001  17.311  18.542   1.572
 6775W        W72002  27.752  28.958   0.414
 6776W        W72003  41.954  12.912   2.389
 6777W        W72004  26.045   1.627  11.335
 6778W        W72005  37.522  28.283  12.861
 6779W        W72006  30.454  15.271  13.562
 6780W        W72007  11.381  24.662  13.801
 6781W        W72008  11.529  30.069  13.460
 6782W        W72009  23.579  13.494  10.745
 6783W        W72010  10.836  16.062  11.536
 6784W        W72011  38.619  31.384  12.856
 6785W        W72012  22.387  25.026   4.534
 6786W        W72013   0.942   8.926   3.163
 6787W        W72014  16.120  28.429  12.079
 6788W        W72015   5.338  13.572   3.135
 6789W        W72016  30.564  19.913   4.417
 6790W        W72017  33.864  28.431  14.385
 6791W        W72018  41.500   4.771   0.520
 6792W        W72019   2.361   3.929   0.228
 6793W        W72020  41.904   6.508   1.465
 6794W        W72021   2.728   7.897   1.151
 6795W        W72022  36.188  34.135   0.224
 6796W        W72023  31.395  22.026  11.747
 6797W        W72024  29.634   1.202   3.803
 6798W        W72025   7.197   3.182   4.519
 6799W        W72026  22.925  44.051   1.599
 6800W        W72027  40.524  29.890   0.931
 6801W        W72028  33.525   9.330  10.636
 6802W        W72029   1.213   3.340   2.059
 6803W        W72030  17.391  13.343  13.640
 6804W        W72031  19.311   6.362   2.832
 6805W        W72032  23.478  42.546  13.447
 6806W        W72033   0.511   9.454  14.100
 6807W        W72034  24.329  37.252   5.099
 6808W        W72035  19.223  10.212  11.075
 6809W        W72036   6.511  12.921   4.185
 6810W        W72037  18.540  23.295   4.878
 6811W        W72038  21.318   8.316   2.756
 6812W        W72039  31.584  33.802   3.728
 6813W        W72040  37.169  25.728  12.665
 6814W        W72041  37.547  28.153   0.668
 6815W        W72042  31.540  36.280  12.039
 6816W        W72043   7.450   8.805  10.644
 6817W        W72044  32.055  36.847   4.103
 6818W        W72045  16.120   6.497  12.668
 6819W        W72046   1.475  14.806  14.950
 6820W        W72047   8.776   0.744   2.848
 6821W        W72048  26.139  12.331  10.734
 6822W        W72049  11.831  42.723   3.702
 6823W        W72050  44.841   6.127   2.002
 6824W        W72051   3.964  31.192   1.329
 6825W        W72052  43.845  40.894  11.856
 6826W        W72053  37.468  22.004   1.729
 6827W        W72054  24.878  34.528   2.279
 6828W        W72055  36.017  10.664   4.344
 6829W        W72056  41.120  38.869  13.232
 6830W        W72057  13.784  38.780   4.236
 6831W        W72058  18.058   5.313   4.191
 6832W        W72059  34.376  43.286  14.931
 6833W        W72060  34.988   8.143  14.267
 6834W        W72061   3.206  31.338  11.452
 6835W        W72062  34.950   7.397  14.948
 6836W        W72063  38.094  28.736   4.574
 6837W        W72064  11.273  11.723   2.316
 6838W        W72065  38.999  32.112   2.122
 6839W        W72066  14.097  21.460   4.697
 6840W        W72067   0.439  10.864   0.587
 6841W        W72068  39.260  39.992  11.178
 6842W        W72069  37.098  15.947   2.734
 6843W        W72070   9.946  23.050   1.767
 6844W        W72071  34.851  11.286  10.745
 6845W        W72072  37.151   5.695  12.832
 6846W        W72073  22.423  16.121   0.837
 6847W        W72074  18.741  32.457  13.408
 6848W        W72075  10.304  39.918   2.302
 6849W        W72076   0.476  24.155   0.222
 6850W        W72077   9.197  20.552  11.173
 6851W        W72078   1.515   9.728   4.608
 6852W        W72079  32.015  31.672  12.347
 6853W        W72080  20.231  30.413  12.526
 6854W        W72081  33.300  17.729   2.806
 6855W        W72082  15.241   9.243   0.828
 6856W        W72083  35.984  19.006   1.103
 6857W        W72084  34.919  32.790  11.224
 6858W        W72085  16.028   5.911   0.795
 6859W        W72086  21.965   9.571   2.256
 6860W        W72087   6.937  12.814  13.481
 6861W        W72088  16.044  41.971  11.631
 6862W        W72089  38.224  26.683   0.649
 6863W        W72090   5.330  24.528   0.921
 6864W        W72091   0.451  13.214   4.078
 6865W        W72092  32.934  37.402   1.671
 6866W        W72093  31.614  21.772  14.081
 6867W        W72094  25.153  10.031  11.016
 6868W        W72095  13.656  10.681  12.844
 6869W        W72096  11.682  36.464   2.765
 6870W        W72097   2.292  25.225  13.481
 6871W        W72098  15.743  29.881   1.191
 6872W        W72099  19.588  33.497  12.374
 6873W        W72100  44.930   7.208  13.581
 6874W        W72101  24.148  36.001  11.749
 6875W        W72102  35.665   2.343  12.024
 6876W        W72103   4.772   6.725  10.500
 6877W        W72104   1.678  30.586   1.442
 6878W        W72105  31.642  18.713   1.807
 6879W        W72106  29.860  23.581   3.572
 6880W        W72107  26.724   4.530  11.216
 6881W        W72108  36.944  39.897   3.365
 6882W        W72109   5.491  22.214   4.002
 6883W        W72110  20.570  28.909  14.413
 6884W        W72111   2.340   5.336   3.716
 6885W        W72112  13.369  31.809  12.582
 6886W        W72113  35.980  40.749  13.754
 6887W        W72114  40.027  11.210   3.743
 6888W        W72115  38.946  19.833   2.342
 6889W        W72116   0.327  43.406  14.464
 6890W        W72117  29.695  28.126   0.847
 6891W        W72118  37.888  19.979   1.604
 6892W        W72119  40.431  24.092  10.672
 6893W        W72120   6.867  41.385   2.784
 6894W        W72121  24.716  31.905   0.224
 6895W        W72122  32.915  14.328   2.874
 6896W        W72123  18.144  19.225  14.670
 6897W        W72124   1.754  17.496   4.530
 6898W        W72125   4.298  20.731   3.177
 6899W        W72126  19.813  40.954   3.858
 6900W        W72127  28.178  38.654   4.355
 6901W        W72128   1.890  21.167   4.607
 6902W        W72129  37.934  11.108   4.245
 6903W        W72130  28.293  33.567  10.790
 6904W        W72131  11.094  25.705  12.090
 6905W        W72132  24.493  37.096  11.243
 6906W        W72133  39.237  26.639   0.860
 6907W        W72134  32.561  30.522   4.032
 6908W        W72135  36.739  35.572  11.657
 6909W        W72136  25.769  31.150  14.339
 6910W        W72137  18.062  33.471   0.992
 6911W        W72138  21.212  16.279  14.682
 6912W        W72139   7.656   4.999   4.559
 6913W        W72140  21.639  41.570  12.123
 6914W        W72141   0.310  31.589  11.469
 6915W        W72142   8.124   0.758  14.900
 6916W        W72143  18.196  26.654   2.956
 6917W        W72144   0.998  21.678   3.753
 6918W        W72145  40.129  32.977  14.125
 6919W        W72146   8.023  30.359  10.593
 6920W        W72147  29.898  25.953  12.118
 6921W        W72148  40.954  34.749   3.177
 6922W        W72149  38.516  28.053   0.437
 6923W        W72150  11.799  19.726  12.069
 6924W        W72151   2.206  11.070   0.463
 6925W        W72152  36.617  22.270   4.514
 6926W        W72153  28.757   3.857   1.600
 6927W        W72154  23.207  41.318   3.757
 6928W        W72155  16.464  24.891  14.357
 6929W        W72156  26.234  21.584   4.717
 6930W        W72157  32.227  22.626   4.994
 6931W        W72158  24.612  23.469   1.858
 6932W        W72159  26.933  32.654  13.533
 6933W        W72160  25.240  19.536  12.541
 6934W        W72161  10.369  35.578  13.867
 6935W        W72162  17.065  32.405  11.066
 6936W        W72163   8.365  20.666  10.759
 6937W        W72164  30.617  13.173  14.082
 6938W        W72165  40.349  14.752  11.710
 6939W        W72166  13.769   6.246  10.775
 6940W        W72167  11.660   0.488  14.967
 6941W        W72168  32.823  18.580  14.876
 6942W        W72169  21.258   6.376  14.698
 6943W        W72170  28.521   9.854  14.017
 6944W        W72171   5.289  18.626   1.737
 6945W        W72172  39.487  35.732  13.646
 6946W        W72173  23.423  18.261  14.518
 6947W        W72174  24.498  16.773   4.736
 6948W        W72175  29.925  20.280   4.938
 6949W        W72176  33.524  43.152  13.563
 6950W        W72177  21.727   6.481  12.357
 6951W        W72178  10.071  30.612  12.963
 6952W        W72179  22.062  31.972   1.424
 6953W        W72180  17.115  18.434   4.663
 6954W        W72181  42.536  23.229  13.809
 6955W        W72182  18.669  14.228   4.469
 6956W        W72183  36.184  16.904  10.936
 6957W        W72184  39.253  42.677  11.084
 6958W        W72185   1.945  13.685  14.378
 6959W        W72186  17.736   6.507  12.878
 6960W        W72187  22.879  31.961  13.015
 6961W        W72188  43.724  11.320   3.274
 6962W        W72189  42.751  42.367   5.010
 6963W        W72190  44.944  22.053  13.577
 6964W        W72191   3.154  31.572  10.941
 6965W        W72192  14.696  15.007  10.557
 6966W        W72193  27.927  31.478  11.055
 6967W        W72194  32.977  31.859   4.735
 6968W        W72195  32.904  13.236   1.730
 6969W        W72196  22.649   6.754  10.358
 6970W        W72197  43.376  36.592   2.364
 6971W        W72198  10.205  34.806   2.339
 6972W        W72199  21.833  14.286  12.701
 6973W        W72200   8.887  30.207  10.763
 6974W        W72201  27.616  41.891   4.549
 6975W        W72202   2.433  30.659  14.877
 6976W        W72203  14.101  11.273  10.469
 6977W        W72204   7.357  32.957  10.704
 6978W        W72205  25.170  31.399  10.851
 6979W        W72206  13.632   1.755   0.814
 6980W        W72207  14.399   7.769   3.138
 6981W        W72208  30.030  14.504  12.660
 6982W        W72209   9.947  13.265  11.417
 6983W        W72210  35.607   5.171  14.776
 6984W        W72211  19.654  21.018   2.801
 6985W        W72212  41.471  15.739  11.354
 6986W        W72213  24.531  43.966   0.373
 6987W        W72214  18.503  32.119   4.069
 6988W        W72215  12.644   2.160   2.817
 6989W        W72216  21.588  41.454   1.717
 6990W        W72217  22.488  38.069   1.260
 6991W        W72218   6.203  14.277   3.563
 6992W        W72219   4.124  23.048   2.806
 6993W        W72220  20.102  14.878   0.884
 6994W        W72221  14.613  11.941   4.273
 6995W        W72222  14.592   0.236  11.170
 6996W        W72223   8.418  12.674  12.289
 6997W        W72224  25.157  11.806   3.641
 6998W        W72225   0.526  44.049   1.901
 6999W        W72226  30.098  44.715   1.734
 7000W        W72227   8.983   3.948   3.592
 7001W        W72228  37.801  29.474   0.928
 7002W        W72229  24.270  42.438   2.735
 7003W        W72230  38.872   7.758  14.855
 7004W        W72231  16.710  20.882   9.998
 7005W        W72232  25.423   2.095   4.271
 7006W        W72233  32.136  25.475   2.694
 7007W        W72234  26.387  36.142  10.860
 7008W        W72235  17.831  24.131  13.461
 7009W        W72236  29.398  41.809  13.286
 7010W        W72237  15.722  28.576  10.641
 7011W        W72238  35.424  26.105   2.577
 7012W        W72239  39.986   1.920  11.995
 7013W        W72240  25.711  21.494   1.201
 7014W        W72241  20.634   1.526   2.236
 7015W        W72242  35.335  20.133  14.289
 7016W        W72243   6.313  41.586  10.891
 7017W        W72244  26.191  33.106   3.210
 7018W        W72245  25.405  36.074  11.112
 7019W        W72246  19.970  29.255  11.391
 7020W        W72247  44.514  25.857   0.292
 7021W        W72248  32.038  23.692   3.213
 7022W        W72249  33.535  23.742   4.848
 7023W        W72250   0.187  35.428  14.919
 7024W        W72251  40.155  19.545  13.878
 7025W        W72252  39.051  23.979  10.413
 7026W        W72253   9.453  39.343   4.585
 7027W        W72254  31.953  14.352  11.987
 7028W        W72255  28.089  22.042   2.073
 7029W        W72256  43.501  16.023  12.593
 7030W        W72257   8.849  24.004  14.178
 7031W        W72258   3.281   9.402  14.734
 7032W        W72259  16.752  29.023  11.934
 7033W        W72260  40.518  16.196   3.405
 7034W        W72261   4.897  15.637   1.254
 7035W        W72262  31.062  43.015  12.579
 7036W        W72263  10.560   3.719  14.252
 7037W        W72264  28.749  39.991  10.781
 7038W        W72265  40.223  31.200   2.430
 7039W        W72266   8.742  13.623   4.524
 7040W        W72267  31.059  30.943   3.055
 7041W        W72268   6.934  38.991   0.869
 7042W        W72269  25.983  19.246  12.570
 7043W        W72270  38.345  27.087   4.665
 7044W        W72271  15.043  24.827   2.434
 7045W        W72272  15.359   4.334   0.174
 7046W        W72273  23.220  36.072   3.631
 7047W        W72274  12.560  19.611  13.415
 7048W        W72275  10.496  31.868  10.597
 7049W        W72276  38.092  10.709  13.102
 7050W        W72277  20.325  28.205   1.298
 7051W        W72278  13.582   8.474  13.403
 7052W        W72279   5.316  32.231  11.271
 7053W        W72280  18.528  37.125   1.538
 7054W        W72281  16.670  38.651  13.909
 7055W        W72282  35.807   7.821   1.762
 7056W        W72283  30.128  10.613  14.473
 7057W        W72284  16.194  31.200   1.207
 7058W        W72285  38.462  13.696  11.725
 7059W        W72286  38.945  42.498  13.515
 7060W        W72287  24.908  27.119   4.539
 7061W        W72288  26.397  26.244  14.887
 7062W        W72289   0.208  15.190  11.551
 7063W        W72290   9.198  39.187  11.598
 7064W        W72291  32.121   7.340   3.999
 7065W        W72292  26.546  24.615  12.858
 7066W        W72293   0.255  40.464   0.996
 7067W        W72294  35.394   8.591   1.875
 7068W        W72295  30.007  15.112  13.290
 7069W        W72296   2.018  30.123  10.561
 7070W        W72297   4.159  41.819  12.964
 7071W        W72298  39.856  17.680   0.337
 7072W        W72299  17.197   5.720  12.557
 7073W        W72300  43.929  44.019  13.289
 7074W        W72301  30.444   2.627  14.742
 7075W        W72302  38.322  13.698  11.245
 7076W        W72303  31.126  35.058   2.252
 7077W        W72304  20.043   3.241   4.950
 7078W        W72305  38.431  32.245  11.160
 7079W        W72306  36.451  23.832   1.264
 7080W        W72307  17.585  25.035   0.704
 7081W        W72308  41.598  21.544   0.276
 7082W        W72309  30.909   7.256   3.180
 7083W        W72310  20.611  15.142   4.616
 7084W        W72311  42.509  43.173   4.087
 7085W        W72312  28.667  34.517  10.978
 7086W        W72313   1.336  12.642   1.650
 7087W        W72314  41.386   5.419   2.114
 7088W        W72315  36.536   8.909   1.320
 7089W        W72316  39.028  14.641   1.443
 7090W        W72317  37.854  14.084   1.410
 7091W        W72318   7.443   0.576  12.430
 7092W        W72319  12.178  34.378   5.367
 7093W        W72320  15.712   3.142   0.721
 7094W        W72321  19.691  20.517   2.718
 7095W        W72322  20.325   2.823  11.541
 7096W        W72323   0.830  25.436  11.270
 7097W        W72324  29.532  22.514  11.991
 7098W        W72325   3.333  23.606   2.852
 7099W        W72326  34.170  38.326   2.136
 7100W        W72327   7.143  42.896  14.969
 7101W        W72328  26.218  10.225   0.335
 7102W        W72329  43.344  23.660  12.173
 7103W        W72330  24.659  22.908   0.924
 7104W        W72331  27.605  10.264  11.577
 7105W        W72332  33.384  25.270   4.692
 7106W        W72333  24.128  40.377   5.004
 7107W        W72334  20.625   6.751   0.812
 7108W        W72335  33.111  37.669   2.725
 7109W        W72336   0.629  25.202  10.853
 7110W        W72337  28.760  35.084  13.499
 7111W        W72338  14.622  29.150   4.169
 7112W        W72339  16.284  30.490  14.944
 7113W        W72340  14.729  21.785  11.505
 7114W        W72341  29.622   7.629  10.319
 7115W        W72342  28.444  36.264  12.624
 7116W        W72343  31.494  20.806   2.622
 7117W        W72344   1.316  16.798   1.356
 7118W        W72345  23.730  24.129   0.515
 7119W        W72346  34.373  12.373  10.363
 7120W        W72347   9.422  20.071  11.960
 7121W        W72348  19.309  40.424  12.004
 7122W        W72349   9.619  20.515   3.424
 7123W        W72350  39.984  11.179   5.067
 7124W        W72351  29.143  35.115  12.579
 7125W        W72352   5.287  27.735  12.607
 7126W        W72353  38.145  29.108   3.604
 7127W        W72354  30.150   6.310  14.699
 7128W        W72355  29.420  21.254  13.876
 7129W        W72356  37.339   2.492   2.325
 7130W        W72357  35.970  43.776   0.410
 7131W        W72358  42.795  10.684  11.994
 7132W        W72359  10.827  33.511   3.336
 7133W        W72360  12.197  38.374  14.335
 7134W        W72361  17.320   8.687   0.539
 7135W        W72362  20.492   8.190  11.519
 7136W        W72363  17.615  37.337   4.107
 7137W        W72364  20.797  43.376  13.529
 7138W        W72365  36.391  32.122   0.349
 7139W        W72366  24.554   7.826   3.779
 7140W        W72367  32.065   1.687   3.602
 7141W        W72368  33.567  36.522  14.962
 7142W        W72369  15.562   1.731   1.956
 7143W        W72370  34.106  41.268  10.803
 7144W        W72371  15.650  26.132  12.424
 7145W        W72372   2.695  29.665   2.807
 7146W        W72373  30.975  19.766   3.187
 7147W        W72374  20.294  14.631  11.557
 7148W        W72375   8.199  33.818  12.005
 7149W        W72376  19.795  25.741  10.925
 7150W        W72377  28.984  25.469  12.000
 7151W        W72378  41.017  32.385  11.042
 7152W        W72379  24.013  37.234   2.278
 7153W        W72380  26.646   5.471   3.136
 7154W        W72381   7.091  32.730  14.563
 7155W        W72382  32.353  26.021   2.718
 7156W        W72383  32.737  44.373  13.503
 7157W        W72384  28.664  18.792  14.799
 7158W        W72385  33.875   0.809  12.909
 7159W        W72386  42.753  36.477  13.791
 7160W        W72387  44.093  38.068   0.489
 7161W        W72388  18.077  19.193   1.356
 7162W        W72389  12.416  34.413  14.813
 7163W        W72390  12.725  27.525  14.318
 7164W        W72391  14.982   8.215   2.754
 7165W        W72392  17.441  16.147  10.700
 7166W        W72393  18.216   1.887  11.105
 7167W        W72394  33.396  31.858   5.032
 7168W        W72395  19.714   0.723  13.478
 7169W        W72396  24.315  13.163  14.969
 7170W        W72397  37.496  28.088  10.421
 7171W        W72398  41.753  23.165  12.998
 7172W        W72399  14.302  21.622  11.193
 7173W        W72400  15.469  15.032  12.473
 7174W        W72401   1.462  33.928   4.355
 7175W        W72402  32.472   2.026   1.378
 7176W        W72403  44.559  43.386   2.300
 7177W        W72404  23.383   9.323  13.231
 7178W        W72405  36.599  17.210  14.542
 7179W        W72406  37.512  43.722   0.773
 7180W        W72407  37.739  24.805   3.750
 7181W        W72408  14.650  30.679  14.572
 7182W        W72409   3.460  21.960  12.487
 7183W        W72410   8.857  31.819  10.274
 7184W        W72411  13.800  18.002  13.848
 7185W        W72412   1.233  16.378  14.217
 7186W        W72413  38.344  16.870   1.287
 7187W        W72414  20.602   2.579  14.427
 7188W        W72415  15.846  37.060   2.205
 7189W        W72416  29.114   3.177   2.809
 7190W        W72417  18.111  34.168  14.262
 7191W        W72418   3.436  17.617  10.504
 7192W        W72419  43.430   0.300   1.461
 7193W        W72420   6.080   2.936  11.524
 7194W        W72421  32.164   8.715   1.821
 7195W        W72422  32.036  31.549   2.591
 7196W        W72423  13.588  29.684   3.787
 7197W        W72424  41.837   2.323  13.367
 7198W        W72425  29.690  31.538   0.404
 7199W        W72426  36.913  41.889   2.590
 7200W        W72427   5.781  12.295   3.179
 7201W        W72428  26.285  13.861   1.505
 7202W        W72429   2.669   7.339  14.546
 7203W        W72430   5.387  24.439  11.312
 7204W        W72431  42.012  41.460   0.484
 7205W        W72432  26.933   2.896  10.570
 7206W        W72433   4.321  12.234   0.693
 7207W        W72434  30.270  37.011  12.537
 7208W        W72435  18.146  23.236   4.087
 7209W        W72436  44.366  37.015   0.948
 7210W        W72437  44.001   3.973  11.161
 7211W        W72438   3.835  36.862  11.856
 7212W        W72439   3.702  16.124  14.851
 7213W        W72440  15.999  12.936   4.892
 7214W        W72441  13.389  25.723   1.686
 7215W        W72442  17.316  32.961   3.852
 7216W        W72443   3.001  42.950   1.818
 7217W        W72444  10.732   1.987   1.396
 7218W        W72445  42.016  28.664  11.182
 7219W        W72446  31.419   6.820   4.115
 7220W        W72447  22.631  39.140   3.392
 7221W        W72448  28.933   4.223   2.863
 7222W        W72449  38.200  34.483  14.923
 7223W        W72450  16.844  14.316  12.884
 7224W        W72451  30.775   9.964  11.228
 7225W        W72452   7.140  19.952  10.704
 7226W        W72453  43.560  20.601  13.785
 7227W        W72454  26.310  43.012   0.958
 7228W        W72455  19.608   3.185   4.096
 7229W        W72456   1.499   6.214   2.790
 7230W        W72457  20.350  37.461  11.335
 7231W        W72458  36.881  12.647  12.785
 7232W        W72459  32.163   4.922  12.949
 7233W        W72460  25.768   5.575  10.186
 7234W        W72461  37.911   3.940   2.131
 7235W        W72462  43.094  43.999  11.090
 7236W        W72463  43.879  23.464  12.143
 7237W        W72464   1.696  28.107  13.016
 7238W        W72465  12.599  32.828  12.512
 7239W        W72466  24.011  32.153   3.701
 7240W        W72467   8.120  42.311  13.511
 7241W        W72468  24.526  34.573   1.662
 7242W        W72469  37.016  19.073   3.650
 7243W        W72470  15.332  21.520   0.404
 7244W        W72471   7.561  11.132   3.208
 7245W        W72472  28.814  25.736   4.307
 7246W        W72473  39.853  14.080   1.344
 7247W        W72474  40.367  13.721  14.603
 7248W        W72475  22.353  15.666  12.797
 7249W        W72476  21.139   7.399  11.582
 7250W        W72477  11.385   1.216  13.934
 7251W        W72478  24.303   4.027  12.590
 7252W        W72479   1.865  20.748   2.702
 7253W        W72480  22.990   6.277  11.982
 7254W        W72481  18.078  10.333  12.447
 7255W        W72482  31.025  24.934  11.230
 7256W        W72483  24.572  39.813   0.461
 7257W        W72484  15.932   5.524   3.616
 7258W        W72485   5.562  27.157  14.335
 7259W        W72486  23.059  37.498  12.001
 7260W        W72487  32.078  35.776   2.537
 7261W        W72488  40.753  10.872  13.426
 7262W        W72489  20.022   0.966  13.820
 7263W        W72490  19.677  27.168   3.556
 7264W        W72491   7.734  19.886   4.222
 7265W        W72492   6.632  28.145  14.696
 7266W        W72493  32.380  22.447  12.209
 7267W        W72494  37.484  19.819   2.357
 7268W        W72495  30.754  16.945  13.286
 7269W        W72496  17.807   2.769   0.679
 7270W        W72497  24.580  32.147   3.215
 7271W        W72498  44.383  14.661   1.625
 7272W        W72499  43.723  32.869   1.565
 7273W        W72500   2.342  22.533  14.300
 7274W        W72501  23.721  16.302   3.749
 7275W        W72502  28.580  43.818   2.452
 7276W        W72503  32.703   1.834   0.923
 7277W        W72504  10.397  31.457  11.043
 7278W        W72505  35.420  31.142  12.436
 7279W        W72506  44.004  27.901  14.969
 7280W        W72507   4.088   5.854   4.856
 7281W        W72508  12.745  18.323  13.415
 7282W        W72509   0.675  27.013   2.218
 7283W        W72510  40.250  36.008   0.448
 7284W        W72511   0.042  12.186   2.302
 7285W        W72512  41.364  20.827   3.436
 7286W        W72513   0.513  36.433  10.707
 7287W        W72514  43.033  40.609  11.327
 7288W        W72515  16.743  20.988   4.619
 7289W        W72516  29.985  41.387   3.211
 7290W        W72517  37.903   8.422  12.205
 7291W        W72518  42.856   3.777  10.602
 7292W        W72519  31.918  38.032  12.098
 7293W        W72520  23.491   8.799   4.402
 7294W        W72521  19.499  15.141  13.739
 7295W        W72522  21.771  39.043   1.756
 7296W        W72523  32.908  33.302  14.669
 7297W        W72524  20.961  32.580  11.157
 7298W        W72525  17.159  39.942   3.801
 7299W        W72526  15.761  10.136   3.368
 7300W        W72527  37.188  20.386   1.283
 7301W        W72528  32.293  13.093  14.044
 7302W        W72529  12.641  38.881  11.126
 7303W        W72530   9.785  12.902  14.570
 7304W        W72531  23.689  44.292   3.740
 7305W        W72532  32.973  17.106   1.694
 7306W        W72533  23.263  20.057  11.560
 7307W        W72534   6.406  39.988   2.348
 7308W        W72535  12.807  19.563   3.979
 7309W        W72536  12.178  30.952  12.056
 7310W        W72537   4.869  13.929   0.081
 7311W        W72538  17.774   2.334   1.307
 7312W        W72539  33.361  38.961   0.915
 7313W        W72540   9.327  39.718  11.169
 7314W        W72541   3.261   3.713  11.334
 7315W        W72542  41.647   8.430  12.905
 7316W        W72543   6.496  22.761  13.323
 7317W        W72544  26.955  38.560  10.834
 7318W        W72545  23.242  38.315  14.529
 7319W        W72546  10.993  37.298  10.373
 7320W        W72547  43.787  11.398   0.699
 7321W        W72548  29.145  12.487  13.437
 7322W        W72549  35.775  19.782   1.681
 7323W        W72550  32.510  19.184  10.761
 7324W        W72551  42.880  25.915   2.883
 7325W        W72552   4.627   0.857   2.136
 7326W        W72553   2.532  10.857   4.460
 7327W        W72554  29.473  37.885   3.064
 7328W        W72555  39.343  17.847   0.968
 7329W        W72556  27.175  41.460   2.544
 7330W        W72557   5.393  17.573   0.944
 7331W        W72558  16.079  18.346  12.369
 7332W        W72559  29.668   9.698  12.014
 7333W        W72560   6.576  32.682  14.424
 7334W        W72561  28.084  12.107  11.196
 7335W        W72562  19.086  20.049  12.296
 7336W        W72563  44.939  12.268  10.465
 7337W        W72564   8.904   9.437   4.163
 7338W        W72565  25.087  19.674  13.437
 7339W        W72566  40.424  30.577   3.695
 7340W        W72567   5.187  38.321   4.853
 7341W        W72568  31.516  29.912  14.790
 7342W        W72569  40.931  13.643   3.211
 7343W        W72570  24.719  36.014  12.516
 7344W        W72571  42.573  42.741  14.398
 7345W        W72572  30.320   4.897   1.777
 7346W        W72573  32.555   0.964   3.411
 7347W        W72574  34.813  40.409   0.904
 7348W        W72575  17.210   8.963  12.925
 7349W        W72576   2.368  33.150   2.922
 7350W        W72577  26.165  22.001   3.166
 7351W        W72578  29.662  32.584   1.341
 7352W        W72579  19.480  23.472   4.973
 7353W        W72580   8.662  30.640   3.252
 7354W        W72581  15.418   3.293  11.979
 7355W        W72582  14.419  38.741   4.923
 7356W        W72583   0.918  10.532  12.539
 7357W        W72584   2.814  41.432   2.187
 7358W        W72585  28.041  37.412   4.545
 7359W        W72586  39.003  42.572  12.615
 7360W        W72587  11.603  44.335   3.313
 7361W        W72588  18.686  34.725   1.367
 7362W        W72589  25.768  18.126  12.817
 7363W        W72590  28.590  18.445   0.202
 7364W        W72591  37.394   2.438  11.549
 7365W        W72592  11.410  13.179  14.913
 7366W        W72593  38.980  19.468   4.154
 7367W        W72594  36.847  13.229   3.411
 7368W        W72595  29.018  40.319  12.891
 7369W        W72596  36.488  30.160   1.380
 7370W        W72597  18.562  25.079   0.375
 7371W        W72598  17.048  18.524  10.298
 7372W        W72599  43.289  39.026  14.904
 7373W        W72600  43.325  32.864  12.541
 7374W        W72601  39.282   1.836   4.362
 7375W        W72602  14.794  12.303   3.948
 7376W        W72603   5.359   3.046   1.722
 7377W        W72604  38.834  34.632   0.315
 7378W        W72605  36.411   1.810   4.436
 7379W        W72606  29.649  24.370  11.633
 7380W        W72607  27.721  34.507   0.813
 7381W        W72608   4.608  41.720   0.775
 7382W        W72609  34.066   8.317  13.916
 7383W        W72610  42.235  26.074  13.810
 7384W        W72611  15.402  41.579   3.160
 7385W        W72612  20.461  44.099  14.934
 7386W        W72613  13.813  34.190   2.467
 7387W        W72614  24.779   4.709  14.612
 7388W        W72615  25.217  20.125  14.848
 7389W        W72616  39.800   2.348  11.723
 7390W        W72617  20.067  16.442  10.891
 7391W        W72618   8.871  26.752   1.408
 7392W        W72619  28.591   5.676  13.916
 7393W        W72620   3.008  28.219  10.735
 7394W        W72621  14.286   6.346  10.742
 7395W        W72622  20.167  11.616  11.181
 7396W        W72623   5.358  18.092   0.932
 7397W        W72624  32.176  18.727   4.566
 7398W        W72625  25.696  14.435  14.801
 7399W        W72626  39.388   5.093  10.933
 7400W        W72627  37.078  31.325  13.580
 7401W        W72628  13.195  41.206   5.182
 7402W        W72629  30.407  16.161  14.260
 7403W        W72630  10.478  15.370   1.178
 7404W        W72631  17.569  32.606   4.493
 7405W        W72632   7.179  26.640  12.453
 7406W        W72633  24.946  31.112  11.223
 7407W        W72634  12.910  26.524   4.581
 7408W        W72635  41.364  35.361   1.286
 7409W        W72636   5.362  23.095  14.669
 7410W        W72637  44.336  24.474   1.405
 7411W        W72638  11.182  30.108  11.592
 7412W        W72639   6.740  28.033   3.421
 7413W        W72640  12.628  38.412   3.545
 7414W        W72641  22.790  31.890   2.666
 7415W        W72642  26.414  29.594   1.391
 7416W        W72643  38.996  16.723   3.871
 7417W        W72644  28.037  38.483   3.371
 7418W        W72645  32.641  37.222  11.352
 7419W        W72646   3.722   5.052   4.103
 7420W        W72647  29.507  34.826  12.352
 7421W        W72648  42.042   4.924   4.248
 7422W        W72649  38.419  21.782  11.073
 7423W        W72650  10.689  40.299   3.695
 7424W        W72651   8.733  40.300   0.701
 7425W        W72652  15.916   4.984  11.737
 7426W        W72653  44.033  36.485  12.461
 7427W        W72654  32.971  42.685  12.649
 7428W        W72655  24.175  39.494   0.326
 7429W        W72656  28.958  32.372  14.434
 7430W        W72657  14.812  41.966   0.535
 7431W        W72658  25.724  17.098  12.400
 7432W        W72659  21.105  34.935   3.725
 7433W        W72660  15.648  21.723   3.254
 7434W        W72661   3.268  38.046  14.048
 7435W        W72662  43.724  16.269  11.475
 7436W        W72663  34.357  39.315  14.807
 7437W        W72664  32.573  10.277   0.250
 7438W        W72665  21.567   7.754  11.799
 7439W        W72666  12.871  24.943  11.727
 7440W        W72667  32.123  14.343   3.182
 7441W        W72668  26.895   0.537  10.757
 7442W        W72669  25.610  40.986  12.481
 7443W        W72670  20.235  36.896   3.142
 7444W        W72671  24.440  21.645   0.934
 7445W        W72672  33.002  31.450   2.412
 7446W        W72673  15.247  24.377   1.242
 7447W        W72674   7.381  20.290   3.584
 7448W        W72675  39.774  21.031   1.580
 7449W        W72676  23.595   9.434  11.008
 7450W        W72677  42.942  12.280  12.732
 7451W        W72678   9.648  40.337  12.151
 7452W        W72679  38.764  31.659   2.161
 7453W        W72680  19.316   8.725  14.511
 7454W        W72681  42.493  14.988   4.142
 7455W        W72682  26.093  13.362   1.417
 7456W        W72683  30.004  17.638   1.019
 7457W        W72684  16.276  14.691  14.307
 7458W        W72685  27.575   3.108   1.657
 7459W        W72686   2.673   9.865  12.926
 7460W        W72687  19.142  19.759  10.648
 7461W        W72688  22.274  21.140   1.849
 7462W        W72689  31.706  39.968   1.856
 7463W        W72690  16.241  40.765  12.974
 7464W        W72691  25.930  42.960  10.803
 7465W        W72692  36.313  34.964   1.493
 7466W        W72693  33.179  38.479   1.019
 7467W        W72694  18.792  28.266  10.442
 7468W        W72695   9.364  15.240   2.242
 7469W        W72696  27.849  32.005   2.561
 7470W        W72697  25.046  18.679   0.507
 7471W        W72698  20.854  24.777   3.395
 7472W        W72699  12.896  36.936  12.441
 7473W        W72700   4.265  23.780   4.350
 7474W        W72701  10.026  18.768   4.159
 7475W        W72702  17.315  12.857  14.114
 7476W        W72703  23.041  34.990   2.890
 7477W        W72704  35.585  32.819  12.195
 7478W        W72705  24.187  23.608   0.666
 7479W        W72706   9.705  35.552   3.405
 7480W        W72707  19.110  25.845  12.421
 7481W        W72708  17.492  17.622   4.311
 7482W        W72709  33.627  20.252   4.149
 7483W        W72710  31.105  13.389   3.026
 7484W        W72711  37.113  16.119  11.054
 7485W        W72712  14.502  24.270  14.538
 7486W        W72713  40.355  43.135   0.045
 7487W        W72714  24.266   6.468   4.056
 7488W        W72715  36.818  38.909  12.817
 7489W        W72716   2.518  38.436  14.926
 7490W        W72717   5.868  21.494   2.415
 7491W        W72718   8.133  24.843  12.947
 7492W        W72719  34.082  18.140   2.651
 7493W        W72720  14.690  25.520  14.511
 7494W        W72721  18.210  34.064  13.285
 7495W        W72722   3.063  40.820  14.213
 7496W        W72723  22.215  19.411   3.444
 7497W        W72724  31.393  23.224  10.732
 7498W        W72725  23.960  25.622  14.485
 7499W        W72726  34.935  15.283  13.415
 7500W        W72727  37.591   4.676  14.429
 7501W        W72728  17.943  15.548  10.281
 7502W        W72729  18.965  29.034   1.023
 7503W        W72730  29.163  12.279   0.799
 7504W        W72731  34.755  19.258  14.727
 7505W        W72732  30.969  14.813  13.872
 7506W        W72733  41.440  26.137   4.203
 7507W        W72734  17.127  20.755   2.743
 7508W        W72735  40.899  31.849   2.839
 7509W        W72736   4.302  24.532   1.759
 7510W        W72737  36.096  42.980  14.045
 7511W        W72738   8.143  15.546   2.557
 7512W        W72739   7.360   2.500   1.297
 7513W        W72740  44.896  26.471   2.208
 7514W        W72741   7.297   8.770   1.305
 7515W        W72742   0.102  21.729   0.515
 7516W        W72743  34.938  24.949   1.778
 7517W        W72744  16.762   2.332  10.912
 7518W        W72745   3.405  13.235  11.128
 7519W        W72746   0.252  26.076   2.144
 7520W        W72747  28.013  35.102  14.871
 7521W        W72748  20.625  33.339   4.156
 7522W        W72749  38.345   0.334  11.629
 7523W        W72750  28.102  28.644   4.473
 7524W        W72751   7.813  36.799  14.848
 7525W        W72752  43.329  27.411   4.785
 7526W        W72753  44.668  23.801  14.820
 7527W        W72754   6.899  37.490   0.849
 7528W        W72755  27.343  15.313  12.199
 7529W        W72756  26.561  42.605   2.802
 7530W        W72757  19.345  10.762   0.315
 7531W        W72758  42.893  15.134  14.887
 7532W        W72759   9.861  17.339  11.143
 7533W        W72760  16.169  15.461   3.783
 7534W        W72761  38.863  37.138   2.782
 7535W        W72762   5.001   0.743  12.486
 7536W        W72763   4.395   9.180   4.374
 7537W        W72764  13.684  25.485  10.791
 7538W        W72765  37.944   6.445   0.470
 7539W        W72766  24.573  32.479  13.538
 7540W        W72767  12.382  30.873  11.246
 7541W        W72768  38.388  21.343  12.761
 7542W        W72769  33.502  12.365  11.288
 7543W        W72770   2.128  25.548   0.362
 7544W        W72771  26.177  27.948   0.292
 7545W        W72772  37.485  30.093  11.792
 7546W        W72773  34.975  33.517  11.840
 7547W        W72774  20.539  35.363   2.595
 7548W        W72775  33.582  13.536   3.115
 7549W        W72776   9.857  41.413   0.869
 7550W        W72777  21.263  13.145  10.574
 7551W        W72778  43.305  26.640   9.797
 7552W        W72779  28.043  38.134  10.746
 7553W        W72780  37.533  11.500  12.973
 7554W        W72781  41.740  31.132   2.235
 7555W        W72782  38.685   9.924   0.703
 7556W        W72783  28.711   9.706   4.121
 7557W        W72784  41.245  38.479  11.967
 7558W        W72785  32.333  24.499   5.160
 7559W        W72786  12.578  34.040   5.419
 7560W        W72787   0.510  19.067   2.646
 7561W        W72788  35.958  44.256   2.065
 7562W        W72789  40.939  26.689  14.984
 7563W        W72790  11.053  28.425   0.334
 7564W        W72791   6.477  11.946   1.877
 7565W        W72792  24.784  31.061   3.059
 7566W        W72793  21.104  33.681  11.665
 7567W        W72794  27.974  34.795   2.853
 7568W        W72795  16.759   5.793  12.311
 7569W        W72796   9.895  27.254  13.418
 7570W        W72797  41.794   7.640  11.569
 7571W        W72798   5.887   1.172  12.398
 7572W        W72799  24.513  12.145   2.168
 7573W        W72800   3.038  26.164   4.600
 7574W        W72801  43.546  37.528  13.911
 7575W        W72802  16.741  10.995  12.972
 7576W        W72803  12.810  40.807   2.903
 7577W        W72804  27.725  20.806   4.531
 7578W        W72805   2.530   5.279   2.843
 7579W        W72806  10.548   0.360  12.432
 7580W        W72807  27.630  13.840   2.402
 7581W        W72808  25.429  40.600   3.557
 7582W        W72809  22.553  40.944  12.155
 7583W        W72810  22.765  22.111   3.228
 7584W        W72811  13.426  21.540   3.643
 7585W        W72812  27.046  33.425  14.893
 7586W        W72813  19.115  28.926  11.472
 7587W        W72814  32.592  38.131   1.424
 7588W        W72815   0.364  42.454   0.026
 7589W        W72816  21.638  18.129   1.635
 7590W        W72817  23.124  29.802   2.321
 7591W        W72818   4.851  11.150  14.311
 7592W        W72819  26.050  37.438   3.548
 7593W        W72820  26.729  11.697  10.722
 7594W        W72821  30.408  15.678  13.960
 7595W        W72822  17.628  36.946  10.671
 7596W        W72823  27.131  44.822  11.413
 7597W        W72824  42.781  20.280   4.632
 7598W        W72825  11.525  42.946   5.087
 7599W        W72826  17.395  43.776  10.349
 7600W        W72827  24.154  11.197   1.187
 7601W        W72828  13.737   4.951   4.099
 7602W        W72829  10.666  22.679   2.122
 7603W        W72830  43.267   5.664  12.342
 7604W        W72831  19.282  36.059  11.091
 7605W        W72832  26.760   9.288   1.812
 7606W        W72833  11.902   1.248  10.989
 7607W        W72834  13.520  31.148  12.888
 7608W        W72835  38.393   2.737   3.176
 7609W        W72836  17.667  12.351   2.181
 7610W        W72837  25.958   2.404   3.663
 7611W        W72838  33.325  14.811   4.971
 7612W        W72839  41.585  14.127  12.502
 7613W        W72840   6.764  13.879   4.255
 7614W        W72841  13.272  35.160  12.892
 7615W        W72842  41.451  30.148   0.707
 7616W        W72843  28.015  12.837   9.978
 7617W        W72844   8.842  25.027   2.683
 7618W        W72845  20.760  21.227  14.826
 7619W        W72846   0.492  13.336  11.610
 7620W        W72847  17.537  11.435   0.321
 7621W        W72848  41.909  12.970   3.347
 7622W        W72849  23.645  41.344  11.396
 7623W        W72850  20.444  25.485   1.850
 7624W        W72851  41.458  17.748   3.994
 7625W        W72852  10.038   7.425   1.687
 7626W        W72853  22.886  39.498   3.644
 7627W        W72854   2.001  37.132  12.408
 7628W        W72855  23.262  11.879  14.823
 7629W        W72856  32.377   4.477   3.163
 7630W        W72857  21.312  27.018  12.431
 7631W        W72858  17.836  43.862   1.687
 7632W        W72859   7.271  32.029  13.446
 7633W        W72860  31.017  38.439   0.767
 7634W        W72861  35.865  43.580  13.100
 7635W        W72862  37.905  34.568   0.348
 7636W        W72863  27.023  27.072   3.589
 7637W        W72864  26.427  41.265  11.181
 7638W        W72865  18.246  44.901   0.577
 7639W        W72866   1.563  21.879   2.196
 7640W        W72867  23.548  23.165   4.610
 7641W        W72868  18.653  11.450   2.689
 7642W        W72869  18.188  33.613  13.059
 7643W        W72870  32.396  38.315   4.181
 7644W        W72871  37.573   9.686  12.431
 7645W        W72872  38.802  41.037  13.561
 7646W        W72873  13.134  37.455  13.343
 7647W        W72874  10.778   6.673   2.269
 7648W        W72875  25.159  24.332   3.744
 7649W        W72876  44.568   9.749   4.572
 7650W        W72877  15.261   4.402  13.392
 7651W        W72878  16.669  13.576   4.424
 7652W        W72879  18.034  33.214   2.803
 7653W        W72880  15.382  32.524   5.082
 7654W        W72881  18.450  41.364   3.694
 7655W        W72882  14.712   6.898  14.952
 7656W        W72883  39.530   0.836  13.507
 7657W        W72884  42.627  18.567  14.534
 7658W        W72885   9.426  32.228   2.828
 7659W        W72886  22.251  33.088   4.762
 7660W        W72887  32.928  18.845  12.835
 7661W        W72888  26.225  38.207  12.964
 7662W        W72889  16.262  39.703   2.823
 7663W        W72890  33.639  26.931  12.514
 7664W        W72891  27.424  27.068  14.873
 7665W        W72892  23.274  10.694   0.271
 7666W        W72893  23.241   0.907   2.958
 7667W        W72894  22.617  41.918  12.031
 7668W        W72895  16.830  40.052  14.917
 7669W        W72896  14.349   7.621  11.165
 7670W        W72897  33.159  22.261   1.759
 7671W        W72898  25.094   5.865   3.248
 7672W        W72899  20.133   7.309   2.251
 7673W        W72900  39.002   9.951  14.069
 7674W        W72901  35.643  22.641   3.095
 7675W        W72902  32.845   8.699   2.621
 7676W        W72903   4.843  39.095   3.315
 7677W        W72904  35.718  12.759  11.145
 7678W        W72905   3.275  19.800  13.865
 7679W        W72906  15.083  29.565  11.832
 7680W        W72907  32.602   7.694   1.266
 7681W        W72908  32.676  23.771   4.278
 7682W        W72909  29.785  29.992  11.088
 7683W        W72910  33.637  14.039   4.740
 7684W        W72911  42.929  41.031   4.518
 7685W        W72912  36.634  34.522   1.364
 7686W        W72913  22.488  41.190  12.610
 7687W        W72914  32.682  38.039  12.494
 7688W        W72915  27.823   5.630  11.975
 7689W        W72916  21.442   9.765   4.912
 7690W        W72917  26.496  29.855  13.865
 7691W        W72918  17.318  16.458  12.000
 7692W        W72919  22.741   7.673  13.931
 7693W        W72920   3.982  32.178  11.872
 7694W        W72921  11.297  40.522  13.989
 7695W        W72922   2.641  43.934   3.786
 7696W        W72923  24.747  28.470  14.056
 7697W        W72924  29.000  16.328   4.558
 7698W        W72925  29.151  39.884  14.296
 7699W        W72926  25.641   7.284  10.696
 7700W        W72927   7.743  33.144   1.294
 7701W        W72928  34.056  22.665   2.687
 7702W        W72929  43.997  36.008  13.002
 7703W        W72930  32.690  19.610  14.823
 7704W        W72931  35.790  43.121  12.158
 7705W        W72932  18.221  36.935   2.667
 7706W        W72933  15.090  12.189  14.985
 7707W        W72934   4.489   2.753  11.399
 7708W        W72935  44.062  41.427   4.268
 7709W        W72936  22.981  23.318   3.293
 7710W        W72937  31.671  35.134   1.155
 7711W        W72938  12.611   7.385  11.553
 7712W        W72939  44.528   1.916  11.495
 7713W        W72940  28.728  35.994   1.910
 7714W        W72941  29.355   1.334   4.840
 7715W        W72942  10.782   2.400   0.386
 7716W        W72943  36.152  38.626  13.396
 7717W        W72944  35.929   1.814  12.993
 7718W        W72945  43.840  20.082  13.911
 7719W        W72946   6.546  31.871  10.814
 7720W        W72947   0.028  20.085   0.988
 7721W        W72948  12.271  22.004  13.044
 7722W        W72949   1.524  43.772   2.751
 7723W        W72950  15.219   7.634   0.851
 7724W        W72951  41.042  24.739   2.802
 7725W        W72952  23.606  19.768  12.582
 7726W        W72953   4.425  25.124   4.655
 7727W        W72954  16.793   4.816  12.109
 7728W        W72955  26.971  31.639   0.862
 7729W        W72956  44.446  33.444   2.545
 7730W        W72957  27.012  18.734   3.184
 7731W        W72958  20.468  32.140   0.438
 7732W        W72959  41.290  23.616   1.289
 7733W        W72960   0.669  39.732   2.628
 7734W        W72961  21.602  28.748  14.922
 7735W        W72962  25.173  28.369  14.318
 7736W        W72963   4.666   1.709   4.602
 7737W        W72964  25.736  26.656   1.830
 7738W        W72965  11.857  34.023   4.100
 7739W        W72966  29.235  40.927   4.365
 7740W        W72967  30.002  34.237  14.899
 7741W        W72968   8.809  28.316   4.386
 7742W        W72969   5.260   9.628  11.939
 7743W        W72970  26.999  17.264  13.279
 7744W        W72971  42.677  36.577   0.715
 7745W        W72972  34.629  14.826  13.387
 7746W        W72973  43.389  21.499  13.020
 7747W        W72974  10.722   6.728  12.031
 7748W        W72975  11.390  35.031   1.412
 7749W        W72976  38.950  40.025   4.159
 7750W        W72977  31.420   6.882  13.401
 7751W        W72978  28.122  23.067   0.416
 7752W        W72979   2.890  11.955   2.033
 7753W        W72980   9.773   8.277  12.583
 7754W        W72981  28.633  43.359   2.806
 7755W        W72982   8.808   9.113  10.758
 7756W        W72983  10.978  33.671   2.344
 7757W        W72984  19.940   4.616  14.486
 7758W        W72985  10.258  15.358   1.655
 7759W        W72986  25.067  17.342  14.155
 7760W        W72987   9.429   4.668  13.599
 7761W        W72988  30.407  36.413  13.469
 7762W        W72989  10.111  28.635   3.745
 7763W        W72990   8.303  34.271  12.720
 7764W        W72991  25.721  13.611   3.644
 7765W        W72992  21.687  15.568  14.458
 7766W        W72993  36.408   7.655  10.327
 7767W        W72994  28.768   5.821   1.473
 7768W        W72995  11.772  21.488   4.702
 7769W        W72996  37.562   1.062   0.376
 7770W        W72997  31.697   7.094   0.708
 7771W        W72998   3.887  12.154   1.691
 7772W        W72999  20.236   4.404   1.468
 7773W        W73000  13.021   0.320  11.031
 7774W        W73001  44.620  16.137   1.825
 7775W        W73002  33.526   7.923  12.859
 7776W        W73003  38.117  11.823  14.948
 7777W        W73004   8.137   5.280   1.812
 7778W        W73005  36.806  29.922   4.469
 7779W        W73006  30.175  34.643   1.758
 7780W        W73007   8.154  30.526   3.333
 7781W        W73008  41.455  33.821  14.419
 7782W        W73009  15.202  12.097   2.253
 7783W        W73010  29.613  32.068   3.250
 7784W        W73011  11.142   8.813  14.398
 7785W        W73012   4.250  43.594   0.313
 7786W        W73013   7.429  14.177  11.191
 7787W        W73014   4.271  25.437   2.120
 7788W        W73015  13.036  29.077  11.746
 7789W        W73016   1.977   4.974   0.807
 7790W        W73017  37.110  27.326   3.846
 7791W        W73018  15.760   1.202   0.123
 7792W        W73019   3.435  17.811  10.989
 7793W        W73020  36.845  38.321  12.016
 7794W        W73021   0.547  22.316   3.783
 7795W        W73022  35.505  21.751   3.998
 7796W        W73023  38.348  11.841  13.180
 7797W        W73024   9.880  24.771   4.420
 7798W        W73025  11.444   4.784  11.642
 7799W        W73026   1.885  44.416   1.367
 7800W        W73027  38.431   2.193   0.490
 7801W        W73028  15.716  13.874   2.819
 7802W        W73029   3.224  42.283   0.288
 7803W        W73030  19.616   4.819   0.211
 7804W        W73031   3.395  32.966   1.353
 7805W        W73032   7.963  34.512   1.946
 7806W        W73033   1.799   6.923   3.551
 7807W        W73034   9.642   7.330  13.404
 7808W        W73035  40.774  38.829  12.825
 7809W        W73036  41.222  25.389   0.791
 7810W        W73037  35.487  20.994   1.672
 7811W        W73038  42.551   1.310   2.370
 7812W        W73039  25.506  33.375  14.050
 7813W        W73040  26.903  33.158  13.571
 7814W        W73041  41.387  31.498   1.397
 7815W        W73042  39.016  15.129   1.271
 7816W        W73043   3.541  27.500   1.231
 7817W        W73044  44.228  35.359   2.605
 7818W        W73045   4.830   3.148   3.711
 7819W        W73046   2.437  19.126  11.868
 7820W        W73047  32.135  44.986   1.717
 7821W        W73048  28.299  13.739   4.970
 7822W        W73049   0.756  38.485   0.345
 7823W        W73050  27.858  12.301  11.600
 7824W        W73051  19.155  14.392   2.799
 7825W        W73052  24.129  17.784  14.259
 7826W        W73053  38.722   3.849  14.137
 7827W        W73054  44.147  34.183   3.200
 7828W        W73055  35.381  21.026   4.814
 7829W        W73056  38.496  40.335   2.124
 7830W        W73057  13.793   4.192  10.242
 7831W        W73058  24.996  27.049  11.989
 7832W        W73059   7.781  11.112   4.020
 7833W        W73060   0.786  38.015   1.254
 7834W        W73061  21.022  20.151   4.375
 7835W        W73062  34.935   2.298  12.490
 7836W        W73063   3.517  29.991   1.283
 7837W        W73064   9.863  24.341  13.387
 7838W        W73065   1.476  23.590   0.860
 7839W        W73066  23.285  14.072   2.738
 7840W        W73067  32.176  23.518   2.196
 7841W        W73068  23.939   7.690  13.476
 7842W        W73069   4.283  36.555  11.645
 7843W        W73070  44.623  14.606  11.125
 7844W        W73071  32.946  26.528  12.096
 7845W        W73072  39.756  29.093  13.159
 7846W        W73073  25.751  14.831   2.372
 7847W        W73074  31.143   5.136  11.896
 7848W        W73075  42.283  24.645  12.643
 7849W        W73076  36.027  37.906   3.035
 7850W        W73077  28.645  19.514  11.629
 7851W        W73078  15.848  12.418   0.892
 7852W        W73079  38.917  28.274  13.317
 7853W        W73080  31.228   6.562   2.762
 7854W        W73081  30.255  39.855   1.719
 7855W        W73082  38.950  34.012  14.777
 7856W        W73083  20.634  36.328  14.801
 7857W        W73084  10.432   9.840  11.967
 7858W        W73085  30.255  21.080   3.907
 7859W        W73086  17.281  23.641  11.582
 7860W        W73087  14.392  28.577   2.312
 7861W        W73088  13.595  32.977  14.218
 7862W        W73089  29.391  43.053   3.176
 7863W        W73090  42.030  14.900  11.517
 7864W        W73091  19.524  32.287  11.178
 7865W        W73092  19.767  37.470   0.340
 7866W        W73093  43.833  17.217  11.198
 7867W        W73094  19.813   2.515   0.477
 7868W        W73095  15.867   6.021   1.925
 7869W        W73096  43.391  43.102  13.900
 7870W        W73097  35.091  16.292  14.711
 7871W        W73098  30.577  32.325   2.273
 7872W        W73099  29.048  24.263   2.640
 7873W        W73100   2.955  28.475  14.437
 7874W        W73101  19.851  19.796  12.093
 7875W        W73102  31.090  29.512   4.119
 7876W        W73103  39.371   4.724  10.068
 7877W        W73104   7.510  31.722  11.616
 7878W        W73105   8.209   3.753   2.220
 7879W        W73106  39.075  26.530  14.044
 7880W        W73107  24.733  30.882   5.125
 7881W        W73108   8.929  26.681  14.751
 7882W        W73109  21.336  18.679  11.907
 7883W        W73110   6.170  20.074  11.500
 7884W        W73111  42.837  30.130   4.014
 7885W        W73112  32.972  30.130   3.597
 7886W        W73113  12.128  28.438   0.477
 7887W        W73114  12.297  10.441  11.160
 7888W        W73115  27.005  28.436  13.093
 7889W        W73116  28.083  40.892   3.123
 7890W        W73117  26.539  26.116   4.842
 7891W        W73118  22.464  13.057  11.217
 7892W        W73119   4.606  31.957   4.422
 7893W        W73120  25.414  34.491   2.165
 7894W        W73121  16.623  34.836   3.699
 7895W        W73122   7.862  18.049  12.589
 7896W        W73123  35.566  44.317   1.714
 7897W        W73124  28.210  31.147  10.714
 7898W        W73125  10.841   6.369   1.272
 7899W        W73126   0.464  30.008   0.419
 7900W        W73127   5.366  32.633  11.619
 7901W        W73128  34.532  30.131   4.031
 7902W        W73129  16.761  41.348  11.737
 7903W        W73130  30.959  34.992  11.205
 7904W        W73131  37.548  44.929   1.936
 7905W        W73132   6.036  21.099   0.999
 7906W        W73133  35.208  40.022  12.837
 7907W        W73134  15.190  31.500  12.902
 7908W        W73135  22.916  14.062   2.331
 7909W        W73136  32.616  15.284  11.084
 7910W        W73137  18.162  14.984  12.290
 7911W        W73138  38.970  12.079  10.682
 7912W        W73139  23.738   6.279   3.090
 7913W        W73140  15.784   3.198   1.350
 7914W        W73141  34.925   7.336   2.904
 7915W        W73142  14.830  38.561  11.972
 7916W        W73143  27.029  15.850   4.793
 7917W        W73144  29.872  41.952  13.133
 7918W        W73145  32.658  11.094   3.854
 7919W        W73146  14.353  19.613   1.820
 7920W        W73147  44.791   6.397   0.623
 7921W        W73148  12.064  44.833   1.251
 7922W        W73149   0.387  16.757   3.262
 7923W        W73150  14.083   1.166  11.616
 7924W        W73151  10.099  40.756   2.429
 7925W        W73152  24.916  30.573   1.556
 7926W        W73153  27.575   9.628  12.205
 7927W        W73154  11.933   5.478  10.849
 7928W        W73155  29.597  25.261  11.162
 7929W        W73156   8.875  13.301   4.941
 7930W        W73157  38.988  31.115   4.546
 7931W        W73158  17.097  40.197   2.209
 7932W        W73159  29.950   1.654  11.647
 7933W        W73160  10.167  21.072  11.497
 7934W        W73161  37.008  37.387  14.746
 7935W        W73162  13.601  12.478  12.212
 7936W        W73163  14.880  13.003  11.131
 7937W        W73164  24.427   7.934   1.913
 7938W        W73165   1.915  26.420  13.772
 7939W        W73166  16.399  27.878  10.413
 7940W        W73167  19.081  24.554   4.421
 7941W        W73168  35.378  40.873  11.554
 7942W        W73169   1.363  42.403  10.375
 7943W        W73170  10.273  35.174  14.816
 7944W        W73171  30.365  39.854  11.680
 7945W        W73172  20.784  28.462   2.268
 7946W        W73173  38.992  20.206   1.775
 7947W        W73174  29.926  15.324  14.269
 7948W        W73175   4.992   7.405   0.389
 7949W        W73176  33.664  34.266   4.511
 7950W        W73177  39.951  15.807  14.441
 7951W        W73178  25.171  42.177   1.703
 7952W        W73179  22.140  23.770   1.296
 7953W        W73180  41.802  42.972   2.808
 7954W        W73181  18.579  18.569  13.469
 7955W        W73182  42.280  32.616   4.089
 7956W        W73183  31.955  17.365  11.849
 7957W        W73184  21.474  42.873  13.911
 7958W        W73185  40.189   4.856  11.174
 7959W        W73186   1.983   9.012  10.553
 7960W        W73187  40.489  31.286  14.018
 7961W        W73188  28.692   7.963  13.468
 7962W        W73189   5.033  37.945   0.349
 7963W        W73190   3.438  23.272   0.735
 7964W        W73191  18.198  10.327   4.353
 7965W        W73192  26.026   4.945   4.126
 7966W        W73193  42.388  10.134   4.666
 7967W        W73194  26.554  15.780  10.615
 7968W        W73195  27.224  14.181  12.370
 7969W        W73196  42.573  32.490   2.249
 7970W        W73197  18.212  40.335  14.709
 7971W        W73198  15.659  27.584  14.871
 7972W        W73199  12.822  35.815   3.178
 7973W        W73200  18.158   3.760  13.584
 7974W        W73201  43.033  22.501  14.990
 7975W        W73202  26.431  42.544  14.129
 7976W        W73203  13.918  21.139  13.452
 7977W        W73204   9.878   0.316   2.385
 7978W        W73205  11.847  18.634  13.938
 7979W        W73206   9.776   1.860   4.423
 7980W        W73207  17.052   4.545   1.670
 7981W        W73208  13.282  43.223  13.816
 7982W        W73209  30.132   7.730   0.319
 7983W        W73210  40.648  36.047  14.486
 7984W        W73211  41.011  35.924  11.942
 7985W        W73212   6.919  40.276   1.244
 7986W        W73213   1.579  12.495   4.130
 7987W        W73214  34.104  29.819   3.217
 7988W        W73215   5.684  19.323   1.454
 7989W        W73216   2.451  32.341   2.272
 7990W        W73217  13.908  24.936  14.152
 7991W        W73218  39.808   2.675   2.765
 7992W        W73219  21.644  22.598  10.201
 7993W        W73220  30.986  39.092  14.426
 7994W        W73221   4.893  12.090  11.365
 7995W        W73222  41.212  16.684   1.092
 7996W        W73223  16.609  23.484  14.815
 7997W        W73224  30.595  44.823   3.602
 7998W        W73225  44.546  22.711  11.497
 7999W        W73226  31.659  16.675   2.194
 8000W        W73227  25.191  29.442  13.394
 8001W        W73228  36.749  21.790   3.744
 8002W        W73229   6.011  33.347  13.621
 8003W        W73230  23.508  25.645  14.118
 8004W        W73231   0.938  18.473   0.724
 8005W        W73232  36.913  42.526  12.071
 8006W        W73233  19.169  39.551  14.887
 8007W        W73234  39.973  35.615   0.229
 8008W        W73235  33.556  38.165   1.879
 8009W        W73236  44.493  10.552   0.225
 8010W        W73237  39.503  25.102  11.622
 8011W        W73238  19.796  29.963   3.812
 8012W        W73239  12.129  44.679   0.484
 8013W        W73240  23.668  16.753  11.132
 8014W        W73241  33.294  11.692   0.353
 8015W        W73242  21.683  25.410  11.629
 8016W        W73243   1.034   3.017  13.836
 8017W        W73244  25.303  39.627  10.923
 8018W        W73245  34.621  24.499  11.137
 8019W        W73246  20.053  22.633  10.720
 8020W        W73247  25.728  29.600   0.801
 8021W        W73248  24.447  29.034   2.586
 8022W        W73249  17.728  39.249   1.869
 8023W        W73250  22.749   4.421  12.138
 8024W        W73251   2.460  16.845  14.519
 8025W        W73252  27.203   6.973  10.708
 8026W        W73253  24.574  22.494   0.592
 8027W        W73254  28.145   1.660   3.741
 8028W        W73255  44.338  31.120  10.693
 8029W        W73256  25.941  30.578   4.183
 8030W        W73257   0.454  10.114   2.260
 8031W        W73258  23.226  36.359  14.838
 8032W        W73259  39.148  30.257  12.466
 8033W        W73260  30.417   7.751   0.783
 8034W        W73261   5.203  37.613  11.911
 8035W        W73262  32.621  37.118  12.466
 8036W        W73263  10.745  21.473  12.603
 8037W        W73264   3.332  21.783   3.760
 8038W        W73265  18.292  38.047  14.859
 8039W        W73266  12.127  12.216   1.506
 8040W        W73267   1.242  23.948  13.826
 8041W        W73268  38.536  24.813  10.800
 8042W        W73269  38.437  20.959  11.415
 8043W        W73270  27.262  18.505  13.964
 8044W        W73271  27.406  44.334  11.681
 8045W        W73272  35.658   2.770   3.745
 8046W        W73273  29.379  30.082   2.741
 8047W        W73274  19.308   8.650   4.445
 8048W        W73275  19.475  24.283  13.241
 8049W        W73276   4.932  31.795   3.602
 8050W        W73277  19.761  22.051  14.279
 8051W        W73278  22.934  44.988   5.357
 8052W        W73279  25.673  39.591  13.543
 8053W        W73280  26.189   9.803   4.619
 8054W        W73281  11.697   2.887   0.415
 8055W        W73282  40.889  30.616   1.428
 8056W        W73283  18.470  43.975   2.802
 8057W        W73284  28.470  36.937  13.873
 8058W        W73285   7.702   0.921   0.992
 8059W        W73286  13.879  22.273  13.918
 8060W        W73287  25.799  16.153  12.879
 8061W        W73288  34.758  27.990  14.307
 8062W        W73289  28.123  24.939  12.043
 8063W        W73290  26.668  34.575  12.080
 8064W        W73291  12.877  30.932  11.174
 8065W        W73292  40.136  31.219  11.191
 8066W        W73293  27.244  22.207  11.963
 8067W        W73294   9.277  15.361   1.448
 8068W        W73295  27.515  40.257  11.072
 8069W        W73296   0.456  42.259   4.580
 8070W        W73297  13.580  35.048   0.249
 8071W        W73298  27.610  25.669  12.435
 8072W        W73299  17.249  39.415  14.245
 8073W        W73300  41.864  10.336  12.679
 8074W        W73301  42.399  27.704   2.582
 8075W        W73302  40.967   4.706   5.021
 8076W        W73303  37.171  24.965   2.857
 8077W        W73304  39.811  37.817  13.913
 8078W        W73305   2.135  12.989  13.030
 8079W        W73306  23.646   7.098   4.502
 8080W        W73307  38.289  43.307  10.798
 8081W        W73308  28.444  28.664  13.953
 8082W        W73309  31.541  43.225   3.500
 8083W        W73310  18.266  25.259  12.987
 8084W        W73311   7.672  42.794  10.700
 8085W        W73312   7.956  38.902  14.745
 8086W        W73313   9.367  17.801   1.645
 8087W        W73314   7.771   8.839   4.624
 8088W        W73315  14.348  41.075   1.982
 8089W        W73316  39.566  39.882  14.546
 8090W        W73317  10.227  39.139  10.215
 8091W        W73318   3.894  16.360  11.598
 8092W        W73319  35.130  42.349   4.649
 8093W        W73320   0.326  42.276  12.963
 8094W        W73321  31.127   3.667   3.676
 8095W        W73322  22.111  15.142   3.923
 8096W        W73323  20.038   1.859   0.882
 8097W        W73324  17.292  29.652  12.799
 8098W        W73325  41.431  37.902  14.644
 8099W        W73326   1.023  19.868  12.918
 8100W        W73327  33.175  31.935   3.742
 8101W        W73328  13.320  14.278   4.502
 8102W        W73329  30.936  18.223   1.523
 8103W        W73330  30.426  13.100   0.931
 8104W        W73331  11.250  16.014  12.326
 8105W        W73332  14.475  26.203  12.457
 8106W        W73333   1.383  17.732   2.135
 8107W        W73334  16.244  24.417  12.823
 8108W        W73335   5.375  29.613  13.380
 8109W        W73336  31.472   6.222  13.150
 8110W        W73337  43.845  36.347  11.617
 8111W        W73338  30.576  21.506  10.596
 8112W        W73339  10.780   4.747   4.308
 8113W        W73340  31.908  27.835  14.494
 8114W        W73341  26.049   7.013  11.239
 8115W        W73342  15.001  19.320   4.984
 8116W        W73343  30.077  23.502   0.733
 8117W        W73344  13.685   3.663   4.581
 8118W        W73345  15.086  35.196   2.695
 8119W        W73346  36.563   8.533  10.702
 8120W        W73347  19.916  22.556  14.366
 8121W        W73348   2.186  13.813  12.487
 8122W        W73349  27.007  14.223   0.265
 8123W        W73350  17.527  22.248  12.476
 8124W        W73351  23.158  34.370   1.897
 8125W        W73352   7.961  34.466   2.461
 8126W        W73353  12.812  11.040   1.971
 8127W        W73354  39.075   6.449  12.185
 8128W        W73355   0.417  25.025   2.274
 8129W        W73356  24.159  17.424  12.485
 8130W        W73357  33.979  16.367  13.672
 8131W        W73358  39.353  29.069   0.790
 8132W        W73359  19.468  16.497   4.264
 8133W        W73360   4.370  24.273   4.595
 8134W        W73361   8.651  15.039   0.050
 8135W        W73362  14.723  27.712  10.553
 8136W        W73363  11.232  32.111  11.889
 8137W        W73364  42.971  32.007  12.843
 8138W        W73365  31.586  19.268  12.580
 8139W        W73366  36.927  43.776   0.515
 8140W        W73367  22.338  36.558  13.368
 8141W        W73368  25.287   5.362   3.167
 8142W        W73369  24.460   6.614  14.083
 8143W        W73370   1.987   2.820  14.355
 8144W        W73371  18.630  12.315  14.783
 8145W        W73372  29.600  17.683   4.532
 8146W        W73373  14.583  14.333  12.058
 8147W        W73374  41.492  33.100   4.585
 8148W        W73375  13.345  23.706  11.763
 8149W        W73376   7.416   5.905  12.119
 8150W        W73377  23.536  33.110   4.307
 8151W        W73378  39.749   3.718  14.365
 8152W        W73379  17.121  41.688   0.230
 8153W        W73380  30.463   1.588   0.994
 8154W        W73381  35.196   8.811   0.767
 8155W        W73382  10.694  38.939  10.115
 8156W        W73383  26.993  30.180  10.662
 8157W        W73384   3.076  13.490   3.556
 8158W        W73385  36.535  12.121   0.641
 8159W        W73386   2.027  37.147  11.585
 8160W        W73387  13.200  14.762   0.596
 8161W        W73388  42.256  21.376   0.736
 8162W        W73389  13.304  11.496   1.466
 8163W        W73390  41.045  34.802  13.834
 8164W        W73391  14.283  20.829  13.816
 8165W        W73392  33.650  28.608   4.335
 8166W        W73393  12.696  14.345   2.878
 8167W        W73394  21.070  24.768  14.019
 8168W        W73395  25.897  42.000   4.181
 8169W        W73396  39.031  37.363  14.944
 8170W        W73397  17.730  23.560  14.085
 8171W        W73398  12.280  19.831  12.057
 8172W        W73399  21.455   9.230   4.848
 8173W        W73400  14.707  14.059  12.483
 8174W        W73401  27.166   9.612   1.841
 8175W        W73402  14.083   4.866  10.541
 8176W        W73403  23.550  12.561   0.302
 8177W        W73404  27.929  19.101   3.315
 8178W        W73405  35.625  16.845  14.932
 8179W        W73406  27.900  34.608   3.409
 8180W        W73407  22.798   5.283   0.441
 8181W        W73408  12.540  31.051   3.363
 8182W        W73409  14.424   3.442  12.025
 8183W        W73410  39.798  21.536  12.878
 8184W        W73411  26.375  32.722   2.408
 8185W        W73412  44.074  14.749   0.286
 8186W        W73413   8.754  39.057   2.716
 8187W        W73414  20.128   8.609  12.447
 8188W        W73415  13.283  26.370   3.742
 8189W        W73416  42.902  20.207  12.230
 8190W        W73417  15.138  32.023  12.883
 8191W        W73418  38.162  44.951   1.772
 8192W        W73419  44.234  20.134   0.271
 8193W        W73420   6.182  16.433   1.232
 8194W        W73421  39.963  37.945   4.151
 8195W        W73422  28.441  31.607  13.876
 8196W        W73423  15.940  19.486  13.597
 8197W        W73424  30.557  25.004   2.112
 8198W        W73425  17.628  31.497  13.461
 8199W        W73426  36.541   2.924   1.989
 8200W        W73427  19.029  43.215  11.510
 8201W        W73428  30.586  29.508   3.984
 8202W        W73429  40.289  12.674   3.810
 8203W        W73430   0.241  31.821   3.175
 8204W        W73431  36.287  34.337   2.930
 8205W        W73432  44.027   0.009  14.197
 8206W        W73433  37.861   1.652  10.746
 8207W        W73434  12.414  27.698   2.340
 8208W        W73435  34.954  22.220  13.498
 8209W        W73436  24.650  44.372  11.146
 8210W        W73437  13.874  15.501   4.870
 8211W        W73438  30.934   5.869   0.970
 8212W        W73439  18.288  10.641   0.116
 8213W        W73440  10.081  38.882   2.373
 8214W        W73441  13.219  29.121   0.509
 8215W        W73442  24.771  17.598  14.816
 8216W        W73443  29.480   9.994   2.359
 8217W        W73444  30.794  31.501   1.388
 8218W        W73445  43.900   8.696  11.385
 8219W        W73446  36.998  15.580   3.105
 8220W        W73447   0.668  28.181  12.806
 8221W        W73448  16.398   6.276   3.197
 8222W        W73449  35.180   7.171   1.315
 8223W        W73450  43.929  38.069  11.973
 8224W        W73451  17.537  11.790  11.132
 8225W        W73452  36.859  30.731  14.343
 8226W        W73453   1.864  21.126  13.355
 8227W        W73454  43.829  14.537  13.513
 8228W        W73455   4.680  12.072   4.419
 8229W        W73456  32.722  41.063  13.441
 8230W        W73457  20.638  38.582  13.997
 8231W        W73458   2.419  29.706  12.524
 8232W        W73459  26.405   5.120   0.361
 8233W        W73460  31.971  30.043   3.786
 8234W        W73461  23.360  30.123   0.907
 8235W        W73462  11.568   0.481  12.686
 8236W        W73463   9.730  10.179   2.368
 8237W        W73464  40.387  35.898  14.076
 8238W        W73465   7.928  30.034  11.777
 8239W        W73466   5.886  38.841   1.860
 8240W        W73467  39.876  16.077   4.629
 8241W        W73468  32.812   4.181  13.112
 8242W        W73469  40.314  39.015   2.287
 8243W        W73470  22.072   0.716   1.281
 8244W        W73471  24.484  29.938  13.807
 8245W        W73472  13.351   1.861   2.817
 8246W        W73473  20.328  20.876  11.204
 8247W        W73474  31.243   8.157   3.991
 8248W        W73475   4.721  37.772  12.122
 8249W        W73476  25.081  31.478  13.269
 8250W        W73477  42.597  26.078  12.850
 8251W        W73478  35.298  24.954  10.547
 8252W        W73479  33.914   9.495   3.968
 8253W        W73480  38.001   6.399  14.070
 8254W        W73481  42.037   7.028   3.572
 8255W        W73482  18.180  32.543  14.725
 8256W        W73483   6.315  34.458   4.926
 8257W        W73484  32.428  44.532  14.980
 8258W        W73485  36.825  36.820   4.635
 8259W        W73486   2.224  17.713  13.557
 8260W        W73487  33.887  19.879  13.311
 8261W        W73488  18.862   6.695   1.221
 8262W        W73489  12.314  44.629   4.803
 8263W        W73490  21.467   3.374   3.915
 8264W        W73491  16.715  15.826   2.101
 8265W        W73492  40.460  21.574  11.353
 8266W        W73493  19.215  17.426  11.925
 8267W        W73494  44.865  40.899   4.264
 8268W        W73495   3.205  29.211   3.818
 8269W        W73496  12.696  38.119  14.436
 8270W        W73497  31.502   7.702   3.299
 8271W        W73498  37.827  24.661  11.195
 8272W        W73499  25.475  34.112   0.450
 8273W        W73500  22.397  32.050  12.848
 8274W        W73501  36.180  28.545  12.899
 8275W        W73502  31.064  40.775   4.220
 8276W        W73503  44.928  37.075  12.548
 8277W        W73504  21.154   3.751  14.515
 8278W        W73505  26.592  44.637   3.697
 8279W        W73506  36.779  41.375   0.558
 8280W        W73507  27.901   6.150   2.330
 8281W        W73508   1.817  21.186  11.015
 8282W        W73509  17.216  17.195   2.749
 8283W        W73510  14.852   9.303  12.483
 8284W        W73511  37.855  37.013  11.668
 8285W        W73512  44.404   4.249  12.768
 8286W        W73513  14.238  41.164   4.568
 8287W        W73514  14.301  32.030  10.722
 8288W        W73515  12.206  16.557   0.697
 8289W        W73516  14.149  28.853  11.497
 8290W        W73517  34.013  35.037   2.191
 8291W        W73518  39.320  40.501  13.405
 8292W        W73519  42.864  26.965  12.735
 8293W        W73520  25.063  20.949  11.598
 8294W        W73521  22.756   4.672  11.637
 8295W        W73522  21.673  13.076   1.830
 8296W        W73523   6.277  26.444  14.289
 8297W        W73524  34.476  30.852  12.496
 8298W        W73525   4.866  30.566   2.351
 8299W        W73526  43.444  19.485  12.813
 8300W        W73527   6.001  44.323   1.692
 8301W        W73528  26.333   7.835   3.138
 8302W        W73529  32.715   5.678   4.810
 8303W        W73530  19.878  41.476   3.775
 8304W        W73531  38.077  29.522   1.370
 8305W        W73532   7.762  26.975   0.882
 8306W        W73533  30.091   6.428   1.167
 8307W        W73534  11.153  35.822  14.451
 8308W        W73535  41.974  29.910   2.673
 8309W        W73536  12.643   0.653   3.519
 8310W        W73537  34.921  39.482   1.111
 8311W        W73538   5.422   6.420   3.711
 8312W        W73539  23.483  29.944  14.950
 8313W        W73540  13.006  19.751   4.918
 8314W        W73541  17.960   9.683  11.223
 8315W        W73542  11.792  18.714   3.706
 8316W        W73543  12.784  10.970   2.844
 8317W        W73544  16.857  15.049   1.255
 8318W        W73545  28.935  39.448  14.469
 8319W        W73546  14.059  38.366   4.078
 8320W        W73547  12.330  17.680  13.003
 8321W        W73548  44.597  34.661  10.322
 8322W        W73549  41.220  34.111   3.652
 8323W        W73550  40.904  25.552   4.544
 8324W        W73551   8.671  22.877  10.485
 8325W        W73552  40.812  11.218   3.885
 8326W        W73553  16.719  17.696  10.984
 8327W        W73554   0.486  39.279   0.084
 8328W        W73555   6.880  20.182  12.905
 8329W        W73556  40.743  29.514   4.234
 8330W        W73557  20.798  11.505   2.996
 8331W        W73558  14.586  25.370  12.524
 8332W        W73559  27.664   2.740   3.467
 8333W        W73560  22.523  35.122  12.872
 8334W        W73561   9.793  27.570  14.368
 8335W        W73562  21.445  36.945   0.455
 8336W        W73563   2.390  20.445   3.839
 8337W        W73564  17.383  42.007  14.817
 8338W        W73565  34.624  24.192  14.319
 8339W        W73566  14.203   6.022   1.987
 8340W        W73567  36.806  26.905   3.746
 8341W        W73568  41.530  35.603  14.374
 8342W        W73569  15.121  39.338   4.524
 8343W        W73570  38.400  22.474   1.767
 8344W        W73571  23.198  12.949   3.232
 8345W        W73572   3.219  26.793  14.318
 8346W        W73573  30.037   4.441   4.786
 8347W        W73574  18.939   9.256   1.827
 8348W        W73575  23.682  43.805   5.376
 8349W        W73576  38.499   1.790   0.156
 8350W        W73577  24.480   0.259   2.874
 8351W        W73578  38.278  15.558  14.491
 8352W        W73579  34.562  23.773   4.386
 8353W        W73580  33.009  13.353   3.289
 8354W        W73581  31.303   9.701  14.874
 8355W        W73582   7.259  38.858  13.955
 8356W        W73583  31.663  43.360   0.612
 8357W        W73584   2.456   7.691   3.803
 8358W        W73585  15.800   1.057  14.572
 8359W        W73586  25.901   8.320   0.460
 8360W        W73587  39.041   7.783   3.683
 8361W        W73588  44.211  42.873   3.738
 8362W        W73589  16.758   9.192   3.826
 8363W        W73590  21.447   4.318  12.582
 8364W        W73591   3.393   8.487   1.487
 8365W        W73592  22.443  24.614   4.861
 8366W        W73593   4.932   1.700  11.990
 8367W        W73594  39.859  36.535  12.406
 8368W        W73595  38.836  23.043  10.880
 8369W        W73596  33.692  27.602  11.199
 8370W        W73597  39.368  18.049   2.334
 8371W        W73598  22.935  25.183   1.407
 8372W        W73599   7.682  43.318   4.574
 8373W        W73600   2.712  17.550   3.707
 8374W        W73601  32.835  23.599   1.340
 8375W        W73602   1.672  15.037  13.532
 8376W        W73603  10.870  17.184   1.721
 8377W        W73604   1.762  12.645   3.660
 8378W        W73605  18.650  42.307   1.979
 8379W        W73606  40.198  42.572   0.728
 8380W        W73607  40.718  19.568  12.803
 8381W        W73608  34.881  16.837   1.693
 8382W        W73609  17.630   6.837   4.185
 8383W        W73610  25.613  25.055   4.944
 8384W        W73611  38.389  31.105   1.653
 8385W        W73612   3.905  25.792  14.897
 8386W        W73613  19.638   3.262   1.796
 8387W        W73614  12.025  29.128   3.397
 8388W        W73615   6.283  35.345  11.283
 8389W        W73616  17.124  43.009   3.639
 8390W        W73617  39.540   2.733  11.971
 8391W        W73618  14.649   4.698   1.315
 8392W        W73619  35.386  17.054  11.154
 8393W        W73620   3.771   5.777  13.490
 8394W        W73621  44.572  44.005  13.468
 8395W        W73622  19.933  30.121   1.188
 8396W        W73623  21.900  25.040  13.047
 8397W        W73624  28.221  26.615  12.128
 8398W        W73625  10.761  36.092   4.821
 8399W        W73626  13.347  23.159  13.113
 8400W        W73627   8.610  35.398   2.677
 8401W        W73628  40.463  34.115  13.844
 8402W        W73629  24.041  41.042  11.110
 8403W        W73630  28.539  33.517  11.467
 8404W        W73631   2.605  36.820  11.605
 8405W        W73632  34.353   2.255  13.314
 8406W        W73633  35.596  31.340  10.827
 8407W        W73634  18.486   2.250   2.392
 8408W        W73635  43.295  30.457  14.004
 8409W        W73636   4.809  40.029   0.048
 8410W        W73637   5.683  31.944   4.664
 8411W        W73638   3.405  20.291  13.981
 8412W        W73639  10.034   9.309  12.512
 8413W        W73640  24.446  10.867   3.637
 8414W        W73641   1.655  29.224  12.218
 8415W        W73642  40.474  24.674  13.381
 8416W        W73643   3.167  26.199   2.303
 8417W        W73644   1.614  36.872  13.294
 8418W        W73645  22.020  37.003  12.538
 8419W        W73646  13.922  20.545  12.126
 8420W        W73647  28.615  28.605   4.670
 8421W        W73648  22.770  40.234  14.783
 8422W        W73649  17.924  27.908   2.327
 8423W        W73650  35.892  34.349  11.653
 8424W        W73651  19.036  13.517  11.676
 8425W        W73652   4.860   2.602  10.798
 8426W        W73653  30.463  20.655   3.674
 8427W        W73654  42.624  28.025  10.831
 8428W        W73655  38.113  43.053  11.215
 8429W        W73656  21.416  31.974   2.446
 8430W        W73657  28.971  40.914   3.198
 8431W        W73658  43.443  10.622   1.344
 8432W        W73659  35.208   7.174  13.015
 8433W        W73660  21.887  28.672   4.692
 8434W        W73661  31.192  14.346  14.845
 8435W        W73662   5.334   4.451  12.002
 8436W        W73663  23.684  13.518  11.602
 8437W        W73664  14.382   2.343   0.404
 8438W        W73665  31.772  43.758   2.310
 8439W        W73666  32.986  44.398  10.615
 8440W        W73667   7.358   4.995   0.570
 8441W        W73668   6.478  42.854  12.393
 8442W        W73669  30.473   4.217   3.976
 8443W        W73670  24.128  11.271  10.756
 8444W        W73671   8.407  20.621   0.014
 8445W        W73672  12.652  44.481  13.107
 8446W        W73673  43.067  24.255  11.359
 8447W        W73674   9.419  31.549   1.810
 8448W        W73675  15.126  25.199  13.667
 8449W        W73676  36.711  38.081  10.798
 8450W        W73677   2.664  17.845   0.049
 8451W        W73678  30.112  42.976   0.232
 8452W        W73679  14.392  26.921   0.012
 8453W        W73680  15.351   6.870   3.572
 8454W        W73681  32.975  39.699   1.515
 8455W        W73682  30.435  40.040  13.658
 8456W        W73683   2.414   2.138  12.060
 8457W        W73684  16.873  24.560   4.847
 8458W        W73685  29.444  24.675   4.371
 8459W        W73686   8.651   8.655   3.620
 8460W        W73687  35.383  35.902   3.812
 8461W        W73688  32.137  23.781   4.185
 8462W        W73689  13.708  43.330  12.044
 8463W        W73690  21.041   0.730   4.023
 8464W        W73691  43.403  23.626  10.658
 8465W        W73692  18.505  30.406  12.749
 8466W        W73693  28.162  41.243  11.672
 8467W        W73694   5.863  43.471   1.782
 8468W        W73695  11.828  23.174   0.212
 8469W        W73696  24.176  37.618  11.173
 8470W        W73697  11.196   2.299   3.531
 8471W        W73698  25.321   8.654   0.020
 8472W        W73699  20.370  38.900   3.221
 8473W        W73700  38.551  32.475  11.636
 8474W        W73701  30.992  17.358   2.886
 8475W        W73702  19.014  33.638  12.990
 8476W        W73703  12.615  22.495  11.968
 8477W        W73704  37.308  42.750  13.274
 8478W        W73705  42.864  18.093  13.453
 8479W        W73706   4.762  39.583   3.223
 8480W        W73707  33.942  24.281  11.140
 8481W        W73708  30.063  21.241  11.917
 8482W        W73709   9.075   5.465   0.550
 8483W        W73710  32.555  16.473   0.410
 8484W        W73711  26.010   8.428   4.485
 8485W        W73712  43.253   0.476   1.916
 8486W        W73713  29.251  25.883  10.768
 8487W        W73714  15.713  12.207  13.888
 8488W        W73715   5.782  38.999  11.194
 8489W        W73716  14.754  13.054   3.263
 8490W        W73717   9.388  18.301   4.756
 8491W        W73718  28.080   1.753   0.879
 8492W        W73719   5.814  29.250  11.163
 8493W        W73720  11.588  21.941  12.470
 8494W        W73721  40.359  44.948   3.717
 8495W        W73722  11.675   8.936   0.634
 8496W        W73723  23.623  38.089  12.037
 8497W        W73724  38.178  36.168   2.274
 8498W        W73725  32.501  32.064   0.487
 8499W        W73726  19.507   5.924   3.934
 8500W        W73727  32.018  25.572  13.866
 8501W        W73728   4.670  17.138   4.471
 8502W        W73729  19.533  24.604  14.026
 8503W        W73730  18.567  13.706  12.461
 8504W        W73731  18.750  29.618   1.678
 8505W        W73732   4.739  18.671   0.919
 8506W        W73733   2.124  42.419  13.697
 8507W        W73734  32.590  24.050   1.516
 8508W        W73735  28.616   3.936  12.147
 8509W        W73736  27.298   5.000   3.690
 8510W        W73737  23.740  10.133  12.855
 8511W        W73738  38.509  33.704   1.458
 8512W        W73739  12.031  36.811  14.727
 8513W        W73740   3.704  19.045   3.262
 8514W        W73741  26.491  32.155  14.715
 8515W        W73742  15.157  13.248   0.734
 8516W        W73743  33.183  20.053   1.456
 8517W        W73744  43.908   8.137  14.413
 8518W        W73745  32.274  24.665   0.841
 8519W        W73746   0.495  17.246  12.904
 8520W        W73747  43.789  13.338  13.046
 8521W        W73748  38.412   6.648  12.874
 8522W        W73749  27.877  18.115   3.681
 8523W        W73750   0.957  11.629   2.290
 8524W        W73751   5.218  32.625   0.347
 8525W        W73752  34.824  40.718   0.492
 8526W        W73753  26.646  10.747   0.093
 8527W        W73754  25.396  24.051  12.539
 8528W        W73755  12.311   3.436   0.904
 8529W        W73756  39.567  44.232   1.237
 8530W        W73757   6.062  21.015   5.227
 8531W        W73758  16.824  20.344   2.709
 8532W        W73759  23.679  36.985  13.380
 8533W        W73760   0.804  10.659   4.884
 8534W        W73761   0.225  31.588  14.963
 8535W        W73762  20.779  20.165  11.716
 8536W        W73763  37.248  43.851   1.353
 8537W        W73764   7.919   8.128   3.535
 8538W        W73765  32.904  19.700  13.433
 8539W        W73766  39.616  23.185   0.369
 8540W        W73767  31.826  23.118   2.266
 8541W        W73768  40.769  25.555   3.331
 8542W        W73769  12.378  42.177  11.596
 8543W        W73770  35.601  18.183   0.506
 8544W        W73771  40.510  34.236   4.387
 8545W        W73772  38.406   5.815   2.270
 8546W        W73773  11.227  44.906  10.858
 8547W        W73774  24.979   7.458   2.466
 8548W        W73775  24.034  12.341  11.540
 8549W        W73776  22.790  17.416  14.434
 8550W        W73777  25.748  23.740  14.892
 8551W        W73778   3.483  22.428   3.181
 8552W        W73779  29.377  36.162  14.536
 8553W        W73780  37.100  24.280   0.853
 8554W        W73781  42.504   4.698  11.105
 8555W        W73782   5.290   9.143   2.633
 8556W        W73783  38.387  30.660   1.923
 8557W        W73784   1.456  31.572  13.590
 8558W        W73785  39.428  11.726   2.469
 8559W        W73786  25.291  24.789   4.648
 8560W        W73787  16.691  11.887   4.471
 8561W        W73788   3.400  11.353   0.826
 8562W        W73789  42.637  38.853  12.836
 8563W        W73790   0.240  26.871   3.219
 8564W        W73791  22.936  40.531  12.075
 8565W        W73792  28.526  31.724  11.109
 8566W        W73793  30.525  13.431   1.922
 8567W        W73794  41.991  34.921   3.614
 8568W        W73795  37.773   0.862   2.397
 8569W        W73796  21.286  21.215  11.971
 8570W        W73797  31.489  13.610   1.206
 8571W        W73798  14.822  18.319  12.043
 8572W        W73799  11.815   1.941  13.417
 8573W        W73800  10.174  14.687  12.017
 8574W        W73801  34.410  23.759  12.692
 8575W        W73802  14.323  17.303   0.317
 8576W        W73803  25.556  37.795   1.725
 8577W        W73804  41.865  17.313   0.830
 8578W        W73805  39.251  20.436   4.169
 8579W        W73806   6.633   6.602  12.039
 8580W        W73807  43.513  37.110   2.399
 8581W        W73808   5.366  19.676   2.177
 8582W        W73809   3.202   6.920  13.874
 8583W        W73810  24.302  28.409  14.325
 8584W        W73811  34.927  36.987   2.563
 8585W        W73812  26.708  34.972   0.556
 8586W        W73813  23.236  29.563   1.236
 8587W        W73814  39.856  11.589   4.093
 8588W        W73815   1.259  31.087   1.743
 8589W        W73816   1.713  37.412  14.959
 8590W        W73817  38.823  23.529   4.781
 8591W        W73818  42.849  21.475  14.331
 8592W        W73819  26.790  18.157  11.985
 8593W        W73820  20.154   0.261   3.664
 8594W        W73821  44.309  29.320   1.945
 8595W        W73822   7.636  37.568  14.474
 8596W        W73823  36.438  31.049   3.150
 8597W        W73824  31.553  28.493  14.081
 8598W        W73825  26.280  25.708   1.716
 8599W        W73826  16.751  17.573  11.498
 8600W        W73827  21.688  44.008   3.815
 8601W        W73828  40.304  41.549   1.287
 8602W        W73829  17.075   5.469   3.351
 8603W        W73830  36.469  17.858   4.733
 8604W        W73831   1.774  35.636  12.601
 8605W        W73832   4.404  27.155   9.834
 8606W        W73833  14.597  22.599   4.332
 8607W        W73834  37.379  26.751  13.946
 8608W        W73835  41.659  13.136   2.908
 8609W        W73836  26.216  44.964   2.771
 8610W        W73837  31.397  44.417   4.716
 8611W        W73838   7.974  16.387   0.795
 8612W        W73839   6.793  20.986  12.078
 8613W        W73840   7.178  35.834   1.357
 8614W        W73841   1.524  17.221   3.669
 8615W        W73842  14.203  18.275   1.167
 8616W        W73843  27.172  36.283  11.097
 8617W        W73844  11.365  26.086  13.350
 8618W        W73845   0.490  32.533  11.499
 8619W        W73846  24.877  19.062   2.764
 8620W        W73847  21.231  42.401  13.944
 8621W        W73848  30.554  15.755  13.441
 8622W        W73849  37.443  19.354  10.746
 8623W        W73850   7.444  34.926  11.559
 8624W        W73851   3.534  43.792  12.484
 8625W        W73852   4.680  42.618  14.409
 8626W        W73853  31.733   3.937  12.970
 8627W        W73854  13.146  24.666  14.284
 8628W        W73855  32.217  21.584   4.660
 8629W        W73856  37.509  32.089  11.062
 8630W        W73857  25.057  34.906  11.055
 8631W        W73858   6.307   5.762   2.787
 8632W        W73859  23.759  21.984   2.236
 8633W        W73860  32.293  20.149   5.286
 8634W        W73861  40.307   3.321  12.795
 8635W        W73862   8.229  37.601  11.502
 8636W        W73863  15.149  42.057   3.307
 8637W        W73864  27.145   1.603   1.537
 8638W        W73865   8.879   1.249  11.631
 8639W        W73866  33.122   2.364   1.891
 8640W        W73867  37.457  41.769   1.781
 8641W        W73868   3.276   0.008   0.686
 8642W        W73869  37.063   4.409   0.726
 8643W        W73870  36.867  29.375   0.945
 8644W        W73871  29.292  21.389   3.595
 8645W        W73872   6.521  27.832   3.835
 8646W        W73873   0.013  19.288  12.208
 8647W        W73874  14.897  30.365   1.708
 8648W        W73875  33.383  22.912  13.938
 8649W        W73876  11.560  28.077   2.626
 8650W        W73877  24.245  41.415  11.403
 8651W        W73878  33.148  15.318   3.651
 8652W        W73879  30.148  37.823  12.528
 8653W        W73880  24.365  16.272   1.022
 8654W        W73881  38.800  26.635   0.042
 8655W        W73882   2.908  15.087  11.128
 8656W        W73883  14.113  12.508  13.392
 8657W        W73884  12.139  38.573   3.340
 8658W        W73885  22.941  11.558   0.064
 8659W        W73886  30.500   2.861  11.942
 8660W        W73887   4.338  27.451   2.757
 8661W        W73888   8.440  10.660  11.189
 8662W        W73889  37.913  34.892   3.747
 8663W        W73890  11.386   3.484  14.779
 8664W        W73891   1.686   6.818  11.895
 8665W        W73892  26.092  26.648   3.313
 8666W        W73893  24.053  41.126  10.577
 8667W        W73894  17.993  41.852   4.511
 8668W        W73895   4.844   9.707  14.982
 8669W        W73896  13.575  42.506  11.035
 8670W        W73897  39.321   7.952  10.352
 8671W        W73898  25.269   4.923  13.422
 8672W        W73899  39.985  23.165  11.582
 8673W        W73900  27.187  12.471   2.330
 8674W        W73901  25.994   6.953   0.355
 8675W        W73902  44.833   4.925  11.735
 8676W        W73903  33.840  28.634   2.752
 8677W        W73904   0.325  13.022  12.006
 8678W        W73905  32.631   4.946   3.091
 8679W        W73906   9.503   6.576  11.216
 8680W        W73907  42.992  43.836  12.955
 8681W        W73908   6.518   0.033  12.289
 8682W        W73909  40.035  40.440   3.651
 8683W        W73910  30.541  41.549   4.792
 8684W        W73911   6.646   1.757  12.504
 8685W        W73912  12.767  21.751  10.799
 8686W        W73913  13.690  10.358   1.660
 8687W        W73914  39.886  14.726   0.512
 8688W        W73915  26.940  15.431  14.766
 8689W        W73916  35.187   6.245  10.755
 8690W        W73917  39.096  29.410   3.648
 8691W        W73918  18.584  40.511   3.126
 8692W        W73919  30.630  20.639  11.333
 8693W        W73920  19.187  31.603   1.184
 8694W        W73921  21.055  15.307   3.306
 8695W        W73922  44.910  18.190   2.856
 8696W        W73923   5.611  30.294  14.946
 8697W        W73924  41.258  32.212   5.003
 8698W        W73925  11.704  16.229   0.089
 8699W        W73926  30.518  35.867  10.248
 8700W        W73927  21.229   5.370   2.217
 8701W        W73928  18.577  42.107  14.536
 8702W        W73929  16.847  23.955   3.262
 8703W        W73930  16.037  44.939   1.731
 8704W        W73931  41.533  44.251  11.131
 8705W        W73932   3.863   0.851  11.617
 8706W        W73933  43.809   8.390  10.549
 8707W        W73934  30.953  13.549   1.668
 8708W        W73935  14.695  20.729  14.534
 8709W        W73936  15.794  30.129   3.550
 8710W        W73937   3.249  20.668  11.726
 8711W        W73938  29.799  17.783   2.745
 8712W        W73939  16.137  40.505   0.502
 8713W        W73940  30.432  28.610   2.889
 8714W        W73941  34.576  40.373  11.859
 8715W        W73942  19.623  20.717   2.157
 8716W        W73943  28.494  38.613   3.212
 8717W        W73944  23.965  34.916   1.884
 8718W        W73945  39.420  26.424   3.800
 8719W        W73946  20.085  40.836   2.921
 8720W        W73947  33.870  26.183   1.412
 8721W        W73948   2.758   1.517   4.087
 8722W        W73949  27.371   6.374   4.224
 8723W        W73950  34.403  22.732  11.202
 8724W        W73951  25.283  13.524   2.634
 8725W        W73952  21.158  19.179  12.926
 8726W        W73953  19.209  24.067  14.553
 8727W        W73954  27.792  24.266  12.894
 8728W        W73955  25.076  26.695   4.259
 8729W        W73956  29.140  41.759   3.774
 8730W        W73957  40.472  24.844   2.125
 8731W        W73958  23.682   4.990  11.584
 8732W        W73959  30.422  32.627   1.883
 8733W        W73960  29.494  15.815  13.482
 8734W        W73961  43.334   2.407  11.821
 8735W        W73962  37.852  34.532   4.586
 8736W        W73963  29.462  43.884  11.848
 8737W        W73964  27.670   2.740  11.207
 8738W        W73965  44.384  16.070  11.165
 8739W        W73966  44.400  42.688   5.090
 8740W        W73967  20.324  30.155   0.855
 8741W        W73968   4.463   1.421   0.315
 8742W        W73969  12.707   4.977   3.346
 8743W        W73970  17.844  33.999   2.292
 8744W        W73971  14.985  12.743   0.734
 8745W        W73972   4.462  41.365  14.451
 8746W        W73973  41.705  39.985   2.474
 8747W        W73974   7.968   5.926   2.066
 8748W        W73975  36.658  33.545  11.582
 8749W        W73976  10.082  10.777   4.183
 8750W        W73977  23.058  22.037   1.080
 8751W        W73978  13.077  26.645  13.534
 8752W        W73979  10.770  13.842  13.039
 8753W        W73980  20.313  32.132   4.337
 8754W        W73981   0.750  25.990   0.796
 8755W        W73982  30.390  24.176   2.503
 8756W        W73983  39.357  11.369  13.875
 8757W        W73984  35.860  44.978  12.935
 8758W        W73985  10.690  39.340   4.020
 8759W        W73986  22.868  17.217   2.365
 8760W        W73987  12.346  40.219  13.914
 8761W        W73988  12.210  14.603   1.990
 8762W        W73989  27.504  11.929  14.678
 8763W        W73990  40.462  26.516  14.062
 8764W        W73991  22.452  26.613  14.021
 8765W        W73992  10.264  29.099  13.580
 8766W        W73993  37.958   8.160   1.280
 8767W        W73994  41.558  38.837   1.246
 8768W        W73995  28.646  16.308   4.180
 8769W        W73996  44.276  39.278   4.311
 8770W        W73997  21.236  31.587   2.766
 8771W        W73998  24.879  25.837  14.374
 8772W        W73999  17.683  44.144   0.408
 8773W        W74000   3.065  30.246  10.599
 8774W        W74001  35.862  42.022   4.608
 8775W        W74002  40.865  24.780  13.952
 8776W        W74003  23.320   9.250   3.662
 8777W        W74004  17.052  13.112   0.871
 8778W        W74005  37.812  33.049   1.355
 8779W        W74006   3.965   2.612  14.844
 8780W        W74007  20.177  17.079  12.660
 8781W        W74008  12.864   4.486  13.574
 8782W        W74009  15.364  43.608  11.145
 8783W        W74010  18.335  11.830  11.588
 8784W        W74011  40.157  27.119  14.036
 8785W        W74012   0.024   8.101   3.099
 8786W        W74013   1.831  35.109   3.451
 8787W        W74014  43.288  39.966  14.333
 8788W        W74015  17.145  23.361  12.466
 8789W        W74016  39.810  33.516  11.084
 8790W        W74017  38.849  30.662  12.428
 8791W        W74018   4.935   7.315  11.175
 8792W        W74019  37.505  37.395  14.975
 8793W        W74020  13.764  40.037  11.672
 8794W        W74021  11.410  20.666   3.708
 8795W        W74022   8.592  42.925   3.726
 8796W        W74023  12.062   5.007   1.268
 8797W        W74024   3.900   9.867  10.664
 8798W        W74025  18.128  20.188  14.257
 8799W        W74026  39.228  34.859  10.996
 8800W        W74027  16.719  13.774  11.747
 8801W        W74028   1.832  31.222  14.480
 8802W        W74029  35.043  29.304  13.108
 8803W        W74030  14.722  37.658  12.072
 8804W        W74031   2.818  38.985  10.394
 8805W        W74032  19.132  26.889   1.834
 8806W        W74033   3.362  23.826  14.245
 8807W        W74034   5.021   7.796  13.301
 8808W        W74035  26.064   3.309   4.031
 8809W        W74036  36.194  11.326  12.657
 8810W        W74037  44.738   7.664   3.017
 8811W        W74038   9.773  39.269  10.483
 8812W        W74039  33.532  40.301   1.167
 8813W        W74040  37.139  16.054  12.147
 8814W        W74041   7.169  43.250   1.308
 8815W        W74042  18.076   2.414  11.027
 8816W        W74043  39.077   7.194   4.408
 8817W        W74044   7.882  39.038  14.230
 8818W        W74045  38.580  32.012   1.825
 8819W        W74046  42.199  15.885  14.294
 8820W        W74047  20.000   8.271  11.655
 8821W        W74048  26.559  28.511  13.448
 8822W        W74049   9.216  35.972   4.305
 8823W        W74050  34.852  34.972   4.759
 8824W        W74051  25.156  33.138   3.358
 8825W        W74052  29.777  17.988  10.656
 8826W        W74053  39.262  31.587  11.205
 8827W        W74054   6.138   6.479  12.040
 8828W        W74055   6.172   8.423  11.010
 8829W        W74056  32.453  26.722  12.984
 8830W        W74057  10.310  42.454   0.327
 8831W        W74058   2.877  25.542   0.980
 8832W        W74059  37.599  41.848   4.958
 8833W        W74060  16.896   6.793  13.860
 8834W        W74061  20.525  12.774   0.466
 8835W        W74062   5.853  21.988   2.255
 8836W        W74063   9.037  17.362   3.248
 8837W        W74064  41.053  42.507   1.682
 8838W        W74065  13.089  19.021  10.718
 8839W        W74066  17.354  32.615   1.490
 8840W        W74067   5.717  16.904  10.708
 8841W        W74068   7.789   1.970   4.363
 8842W        W74069   2.260   3.255  13.532
 8843W        W74070  44.139  13.159   4.533
 8844W        W74071  40.861  15.204  14.033
 8845W        W74072  39.436  21.642   1.163
 8846W        W74073  23.834  24.949   3.831
 8847W        W74074   2.003   8.272   4.578
 8848W        W74075  14.027  31.381   4.536
 8849W        W74076   8.024  33.575   1.406
 8850W        W74077   0.911  34.093   0.849
 8851W        W74078  20.433   2.451  12.825
 8852W        W74079  30.895  44.895   0.294
 8853W        W74080  16.477  25.214   2.433
 8854W        W74081  41.943  22.698  13.121
 8855W        W74082  14.706   9.090  11.250
 8856W        W74083   9.911  16.122   0.371
 8857W        W74084  14.523  16.039   2.063
 8858W        W74085  36.306  43.000   5.178
 8859W        W74086   1.923   8.720   2.014
 8860W        W74087  32.675   8.735  12.683
 8861W        W74088  40.055   5.188  13.061
 8862W        W74089  26.641  29.330   1.763
 8863W        W74090  13.701  36.337  10.259
 8864W        W74091  15.874  10.368   2.441
 8865W        W74092  11.437  26.518   2.018
 8866W        W74093  10.158  37.312  12.181
 8867W        W74094  12.385  38.502   2.878
 8868W        W74095   3.459  20.324  11.382
 8869W        W74096  13.463  20.862  13.413
 8870W        W74097   1.788  25.139   1.711
 8871W        W74098   7.388  44.035  13.978
 8872W        W74099  25.365  33.328   1.256
 8873W        W74100  20.820   4.977  11.083
 8874W        W74101   1.983  17.338  12.858
 8875W        W74102  10.932  14.452   0.819
 8876W        W74103  24.078  13.141   4.883
 8877W        W74104  28.111  18.539   1.447
 8878W        W74105  21.514   4.758   3.417
 8879W        W74106  26.115   6.781   3.681
 8880W        W74107   5.769  28.751   1.857
 8881W        W74108  39.572  11.151  12.541
 8882W        W74109  37.304  29.672   0.982
 8883W        W74110  35.436  27.569  12.693
 8884W        W74111  43.274  12.114   2.284
 8885W        W74112  35.545  22.157   3.242
 8886W        W74113   1.077  16.677   4.587
 8887W        W74114  24.465   2.857   0.869
 8888W        W74115  20.788  19.677  13.515
 8889W        W74116  10.840  11.664  11.191
 8890W        W74117  14.204  12.014   5.069
 8891W        W74118  31.588  34.293   1.471
 8892W        W74119   8.288  44.293   3.123
 8893W        W74120  19.591  10.320   0.822
 8894W        W74121  23.279  40.414   3.920
 8895W        W74122  19.004   5.123   4.060
 8896W        W74123  15.248  17.363  12.292
 8897W        W74124   7.553  11.688  14.305
 8898W        W74125  26.400   5.299  10.765
 8899W        W74126  20.247  27.446  12.537
 8900W        W74127   8.473   5.324  12.527
 8901W        W74128  19.293  30.897  12.673
 8902W        W74129  40.145  31.397  13.403
 8903W        W74130  22.637  21.641   0.442
 8904W        W74131  41.845  22.010   0.316
 8905W        W74132  20.545   4.260  12.573
 8906W        W74133  42.507  18.743   2.202
 8907W        W74134  42.443  30.215  11.724
 8908W        W74135  20.540   6.670   0.279
 8909W        W74136  44.790  23.147  13.742
 8910W        W74137   1.785  11.665  12.539
 8911W        W74138  27.017  24.391   4.637
 8912W        W74139  34.378  43.259   3.714
 8913W        W74140  10.272   7.197   3.689
 8914W        W74141  31.478  26.625  14.843
 8915W        W74142   4.208   5.265   1.690
 8916W        W74143  21.077  41.729   1.526
 8917W        W74144  27.001  26.742  13.474
 8918W        W74145  32.919  10.040  14.296
 8919W        W74146  36.142  18.645   2.702
 8920W        W74147  13.251  43.819  11.622
 8921W        W74148  42.584  15.130   2.188
 8922W        W74149  11.644  31.062  11.063
 8923W        W74150  12.273   1.374  13.879
 8924W        W74151  30.826  19.215  13.990
 8925W        W74152  18.542   1.293   3.178
 8926W        W74153  25.506  27.202  12.027
 8927W        W74154   6.802  28.374   1.256
 8928W        W74155  42.365  32.210  11.640
 8929W        W74156  17.672  39.101   3.668
 8930W        W74157  15.597   1.930   4.678
 8931W        W74158  43.872  30.540   1.710
 8932W        W74159   5.895   3.054  14.024
 8933W        W74160  23.763   9.739   0.359
 8934W        W74161  34.209  41.071   3.238
 8935W        W74162   4.176  27.305  13.780
 8936W        W74163  33.916  41.769  12.542
 8937W        W74164  37.587  33.402   0.006
 8938W        W74165   5.314  31.618   3.967
 8939W        W74166  11.358  42.011   3.289
 8940W        W74167  32.562   5.822   1.675
 8941W        W74168  35.381   5.805   4.939
 8942W        W74169  11.242  26.999   1.885
 8943W        W74170  14.812  10.156  13.149
 8944W        W74171   2.207  23.261  14.947
 8945W        W74172  42.043  43.441   2.859
 8946W        W74173  35.566  40.314  14.849
 8947W        W74174   3.410  30.370  13.458
 8948W        W74175  12.099  21.128   1.760
 8949W        W74176  28.059  43.782  14.358
 8950W        W74177  38.337   8.758  12.121
 8951W        W74178  21.479   1.311  14.012
 8952W        W74179  37.358   4.663  11.720
 8953W        W74180   2.210  33.626  13.455
 8954W        W74181  39.209  16.684   2.328
 8955W        W74182  38.990  38.914  10.876
 8956W        W74183  11.595  17.034   2.255
 8957W        W74184  17.734  34.663   1.859
 8958W        W74185  39.344   9.312   2.940
 8959W        W74186   2.907  33.605  12.435
 8960W        W74187  43.825  27.938  13.529
 8961W        W74188  19.814   4.630   4.932
 8962W        W74189  11.214  42.392   2.950
 8963W        W74190  23.312   7.759   4.075
 8964W        W74191  21.640   5.402  11.056
 8965W        W74192  11.857   4.134  12.873
 8966W        W74193  39.733  17.209  14.830
 8967W        W74194  18.727   5.647  12.385
 8968W        W74195  35.415  35.420   1.366
 8969W        W74196  24.064  42.199   3.608
 8970W        W74197  16.051  19.157  11.735
 8971W        W74198  40.466  31.693  10.350
 8972W        W74199  20.785   1.020   1.685
 8973W        W74200  39.821   4.699   4.072
 8974W        W74201  39.256  37.009   4.780
 8975W        W74202  16.773  15.685   3.187
 8976W        W74203  26.366  39.895  14.843
 8977W        W74204   5.824   8.933  11.487
 8978W        W74205   0.430  24.788  13.776
 8979W        W74206  18.585  42.753  12.571
 8980W        W74207  36.513  11.223   4.819
 8981W        W74208  44.819   8.260   4.565
 8982W        W74209  28.040  16.108  12.936
 8983W        W74210  42.007   4.019   0.409
 8984W        W74211  25.117  12.024  13.985
 8985W        W74212  33.171  22.478   4.258
 8986W        W74213  24.686  11.733   3.807
 8987W        W74214   7.771  14.323   9.886
 8988W        W74215   5.370  44.885   0.983
 8989W        W74216  14.071  36.147   0.685
 8990W        W74217  41.930   2.192   3.202
 8991W        W74218  37.298  42.490  13.974
 8992W        W74219  18.818   8.060   3.348
 8993W        W74220  40.828   2.728   2.842
 8994W        W74221  38.684  20.626   1.875
 8995W        W74222  42.244  15.790   0.318
 8996W        W74223  16.311   5.711  12.078
 8997W        W74224  14.143   9.824   4.495
 8998W        W74225  18.374   3.661  12.058
 8999W        W74226   7.329  18.104   3.954
 9000W        W74227  29.017   3.787  14.867
 9001W        W74228   4.812   6.874  12.448
 9002W        W74229   3.605  29.433   0.362
 9003W        W74230  24.624  20.950  11.295
 9004W        W74231  28.189  44.505  13.895
 9005W        W74232  38.059  40.095  10.580
 9006W        W74233  42.364  13.623  12.604
 9007W        W74234  16.009  31.684   1.280
 9008W        W74235  15.998  18.810   1.768
 9009W        W74236   6.666   3.340  13.335
 9010W        W74237   0.415  14.537   1.395
 9011W        W74238   9.676  18.661  14.930
 9012W        W74239  24.289  14.595  12.442
 9013W        W74240  12.255   7.957  13.336
 9014W        W74241   5.369  16.595  14.686
 9015W        W74242  10.568  39.877  13.909
 9016W        W74243  43.896   6.715   3.885
 9017W        W74244   9.280  38.748   1.274
 9018W        W74245  20.211  39.508  14.566
 9019W        W74246  15.057  37.359  11.138
 9020W        W74247  36.054  42.778  11.611
 9021W        W74248  27.236  21.075  10.710
 9022W        W74249   2.758  10.184  12.408
 9023W        W74250  19.321  43.056  12.075
 9024W        W74251  17.566   2.425  14.853
 9025W        W74252  37.655  29.245   3.775
 9026W        W74253  39.844   2.590   0.359
 9027W        W74254   1.402  38.488  10.899
 9028W        W74255  10.320  39.344  14.805
 9029W        W74256  30.117   5.384  12.241
 9030W        W74257   5.029  12.744   2.219
 9031W        W74258  21.147  13.603   1.359
 9032W        W74259  10.444  21.720   4.211
 9033W        W74260  43.785  22.833  13.028
 9034W        W74261  30.618  10.884   1.389
 9035W        W74262  34.899  28.661   3.819
 9036W        W74263   0.397  12.477   1.339
 9037W        W74264  43.078  38.112   1.704
 9038W        W74265   7.888  21.329   3.885
 9039W        W74266  32.401  39.589  11.876
 9040W        W74267  14.878  10.660   0.606
 9041W        W74268  17.243  42.477  11.601
 9042W        W74269  23.035  37.025  10.632
 9043W        W74270  34.019  11.152  11.564
 9044W        W74271  25.027  40.762   1.640
 9045W        W74272   6.704  20.191  10.828
 9046W        W74273  32.452  19.188  11.272
 9047W        W74274  13.087  40.070   3.223
 9048W        W74275  16.906   2.370  12.529
 9049W        W74276  43.218   0.244   4.208
 9050W        W74277  25.008   0.217  14.928
 9051W        W74278  17.464  40.570  14.330
 9052W        W74279  28.348  40.648   4.500
 9053W        W74280   9.320  24.691  10.721
 9054W        W74281   3.947  30.331  14.438
 9055W        W74282  16.219   8.961   3.731
 9056W        W74283  16.592  18.100   0.485
 9057W        W74284  41.046  27.998  14.366
 9058W        W74285   2.896  30.508  12.615
 9059W        W74286   7.974  27.609  13.723
 9060W        W74287  28.818  40.509   3.756
 9061W        W74288  41.354  40.892  12.544
 9062W        W74289  39.845  28.160   4.583
 9063W        W74290  33.068   2.231   0.925
 9064W        W74291   9.166  10.917   3.923
 9065W        W74292  13.824  13.542   4.535
 9066W        W74293   9.235  18.723  10.658
 9067W        W74294  37.445  19.136   3.925
 9068W        W74295   0.959   4.185   2.222
 9069W        W74296  40.692  25.435  14.814
 9070W        W74297   5.502   4.027   0.775
 9071W        W74298   7.058  26.920   2.796
 9072W        W74299  44.518  23.503  12.900
 9073W        W74300  38.754  41.502  10.836
 9074W        W74301  10.692   2.452  14.040
 9075W        W74302  19.208  43.910   1.208
 9076W        W74303  30.057   7.668  10.618
 9077W        W74304  43.970  42.325  14.313
 9078W        W74305  38.361  29.364   3.167
 9079W        W74306   2.527  42.318   1.393
 9080W        W74307   1.350  42.776  13.687
 9081W        W74308  30.087  24.555   4.137
 9082W        W74309  44.923  41.770   3.886
 9083W        W74310  19.518  15.863  12.440
 9084W        W74311   0.910  43.664   1.814
 9085W        W74312   4.876  38.758   1.614
 9086W        W74313  29.026  42.610  11.883
 9087W        W74314  18.560   5.823   3.569
 9088W        W74315  10.131  18.462  13.442
 9089W        W74316  29.200  25.806   0.691
 9090W        W74317  43.940  32.682  13.851
 9091W        W74318  21.732  17.081  14.369
 9092W        W74319  23.151   4.234  14.946
 9093W        W74320   8.238  40.635   3.436
 9094W        W74321  23.583   5.341   4.486
 9095W        W74322  17.456  30.514   3.809
 9096W        W74323   0.493  21.543  14.088
 9097W        W74324  14.916   6.348  14.072
 9098W        W74325  12.388  33.512  12.059
 9099W        W74326   3.429  36.267  13.694
 9100W        W74327  28.683   0.135   2.132
 9101W        W74328  44.316  21.137  14.513
 9102W        W74329  36.643  19.808   4.649
 9103W        W74330  14.005   7.214   0.900
 9104W        W74331  24.069  20.813  13.084
 9105W        W74332   1.731  37.503   2.359
 9106W        W74333  14.338  33.441   4.752
 9107W        W74334  44.362  10.916   4.871
 9108W        W74335  33.336  23.910   4.012
 9109W        W74336  28.752  44.847  13.593
 9110W        W74337  20.280  27.690   3.263
 9111W        W74338   4.955   1.801  14.411
 9112W        W74339  34.387  30.827  11.617
 9113W        W74340  40.518  32.352   1.378
 9114W        W74341  40.288   3.988  12.542
 9115W        W74342   2.218  20.164   0.870
 9116W        W74343  20.206  32.465  13.369
 9117W        W74344  43.431  18.768  14.149
 9118W        W74345  35.140   1.304   2.821
 9119W        W74346  14.348   0.807   4.177
 9120W        W74347  39.831  25.990   0.304
 9121W        W74348  28.539  31.658   4.536
 9122W        W74349  40.085  23.853   0.693
 9123W        W74350   3.235  41.933  14.889
 9124W        W74351  15.689  11.701   1.742
 9125W        W74352  19.236   1.817   1.127
 9126W        W74353   0.835  35.792  14.433
 9127W        W74354  12.848  31.577  14.923
 9128W        W74355  21.512  25.920   3.232
 9129W        W74356  41.996  25.429   2.737
 9130W        W74357   4.712  22.328  14.870
 9131W        W74358   4.215  17.542   0.666
 9132W        W74359  44.411  11.873   4.699
 9133W        W74360   0.678  15.100   2.687
 9134W        W74361  12.899  15.673   4.195
 9135W        W74362   3.411   5.235  10.777
 9136W        W74363  18.495  35.843   1.569
 9137W        W74364  33.052  13.081  11.387
 9138W        W74365   1.918  25.048  13.802
 9139W        W74366   6.394  24.536   3.192
 9140W        W74367  15.561  11.246  11.929
 9141W        W74368  34.967  29.747  11.579
 9142W        W74369  30.387  29.647  11.528
 9143W        W74370  30.602  18.590   4.588
 9144W        W74371  12.871  31.478   2.608
 9145W        W74372   5.687  34.985   0.958
 9146W        W74373   6.120  26.888   4.109
 9147W        W74374   6.060  35.015   1.335
 9148W        W74375  22.077  15.398   3.480
 9149W        W74376  17.251   9.848  14.869
 9150W        W74377  18.553  44.778  12.830
 9151W        W74378  40.407  33.696   4.250
 9152W        W74379  34.626  34.554   1.654
 9153W        W74380   2.555  22.378  12.283
 9154W        W74381   0.841   9.048  11.650
 9155W        W74382  19.790   0.915   2.096
 9156W        W74383   1.092  40.140   3.476
 9157W        W74384  34.531  15.152   3.251
 9158W        W74385   1.712   9.084  12.921
 9159W        W74386  31.370  20.335  13.172
 9160W        W74387   0.896  30.940  12.781
 9161W        W74388  35.574  27.511  13.187
 9162W        W74389  31.665  17.549  14.324
 9163W        W74390  14.942  13.537   3.316
 9164W        W74391  14.239   4.297   2.192
 9165W        W74392  20.752  44.056   3.810
 9166W        W74393  29.812  13.644   3.144
 9167W        W74394  16.391  27.573  11.104
 9168W        W74395  18.491  44.883  12.027
 9169W        W74396  37.324  20.029  14.028
 9170W        W74397   3.130  20.781  14.527
 9171W        W74398  20.711  25.856   3.131
 9172W        W74399   4.930  22.657   3.326
 9173W        W74400  29.375   7.431  12.195
 9174W        W74401  26.527  20.281   1.312
 9175W        W74402  14.368  16.356  10.776
 9176W        W74403  26.552   8.857   0.874
 9177W        W74404  17.856  40.898  14.419
 9178W        W74405  39.875  24.177   4.410
 9179W        W74406  12.830   5.686   2.644
 9180W        W74407  34.177  25.917   4.952
 9181W        W74408  31.918  32.550   4.965
 9182W        W74409   3.976   4.773   3.699
 9183W        W74410   3.923  19.176   3.725
 9184W        W74411   1.431  36.523  11.656
 9185W        W74412  42.948   8.295  11.317
 9186W        W74413  37.135  29.061   2.049
 9187W        W74414   0.791  16.056  12.987
 9188W        W74415  10.448  36.304   3.682
 9189W        W74416  31.882  25.010   0.792
 9190W        W74417  25.238  25.729  11.364
 9191W        W74418  38.651   5.618  13.739
 9192W        W74419  44.294   8.640   0.474
 9193W        W74420  16.104  20.806   3.557
 9194W        W74421  44.415   7.930   2.210
 9195W        W74422   5.133  12.288  10.662
 9196W        W74423  36.548  16.752   0.539
 9197W        W74424  28.891  33.120   3.689
 9198W        W74425   8.969  12.162  10.183
 9199W        W74426  10.707  28.920  11.634
 9200W        W74427  38.257  32.541  12.569
 9201W        W74428   5.338  22.725   3.835
 9202W        W74429  33.845   5.160  13.904
 9203W        W74430  29.018  22.245  14.232
 9204W        W74431  27.019  29.153   1.408
 9205W        W74432  28.006  41.728   1.869
 9206W        W74433  38.285  36.142   4.069
 9207W        W74434   4.122  35.925  12.454
 9208W        W74435   3.821  25.588   1.289
 9209W        W74436   4.202  18.405  11.769
 9210W        W74437  14.415  36.617  12.530
 9211W        W74438  29.464  40.992  10.658
 9212W        W74439   2.537  31.840   4.975
 9213W        W74440   4.337   8.381   2.104
 9214W        W74441  18.361   5.794   1.410
 9215W        W74442  42.939  39.286  13.191
 9216W        W74443  34.402  24.713   4.124
 9217W        W74444   8.884  10.720   2.290
 9218W        W74445   9.939  41.427  11.380
 9219W        W74446  33.963   3.665   4.923
 9220W        W74447  26.188  30.984   3.310
 9221W        W74448  42.387  23.224   0.672
 9222W        W74449   0.312  43.753  13.006
 9223W        W74450  33.609  24.683   4.748
 9224W        W74451  31.120   8.226   1.521
 9225W        W74452  13.415  36.748   2.666
 9226W        W74453  40.983  43.411  11.769
 9227W        W74454  27.647  32.389  10.656
 9228W        W74455  41.971  32.619  10.640
 9229W        W74456  41.512  15.639   1.508
 9230W        W74457  24.653  33.825  12.064
 9231W        W74458  44.823  24.531   1.791
 9232W        W74459  38.413   1.775   1.950
 9233W        W74460  13.793   5.714   1.816
 9234W        W74461  16.624   1.686   0.590
 9235W        W74462  25.149   6.488   4.054
 9236W        W74463   9.801   4.707  11.568
 9237W        W74464   7.371   7.123   3.701
 9238W        W74465  14.183  30.045  13.901
 9239W        W74466  18.147   4.337  13.860
 9240W        W74467  21.187   1.869  12.904
 9241W        W74468  26.354  25.055  12.635
 9242W        W74469  24.301  13.947   4.682
 9243W        W74470  37.808  14.268   0.927
 9244W        W74471  13.154  38.994   1.191
 9245W        W74472  21.417  38.959   0.746
 9246W        W74473  11.623  43.039   4.607
 9247W        W74474  39.862   7.906   4.287
 9248W        W74475  30.888   4.850  10.283
 9249W        W74476   2.409  42.752  11.352
 9250W        W74477  30.244  41.079   0.104
 9251W        W74478  29.427   8.731  11.291
 9252W        W74479  14.213  14.685   5.154
 9253W        W74480  36.788  32.737  14.837
 9254W        W74481  33.333  14.673   3.746
 9255W        W74482  29.284  29.268   0.193
 9256W        W74483  42.285  19.619  11.775
 9257W        W74484  24.549  16.821   0.498
 9258W        W74485  29.132  10.108   0.318
 9259W        W74486  15.647   7.991  14.497
 9260W        W74487  43.558   8.787  13.968
 9261W        W74488   8.389   9.373   4.256
 9262W        W74489  32.686  19.126   0.579
 9263W        W74490  30.170  20.341   0.426
 9264W        W74491  23.510  30.165  11.623
 9265W        W74492  28.007  26.727  12.589
 9266W        W74493  32.122  16.075   4.133
 9267W        W74494   6.315  28.086  14.064
 9268W        W74495  18.343  27.722   2.858
 9269W        W74496  39.353  34.392  11.176
 9270W        W74497  22.105  42.317  12.286
 9271W        W74498  22.716  43.264   1.269
 9272W        W74499  26.209  17.537  11.074
 9273W        W74500  25.891  10.232   3.693
 9274W        W74501  37.541  25.572   4.995
 9275W        W74502   5.891  33.861  13.509
 9276W        W74503   1.291   2.961   0.994
 9277W        W74504  35.409  43.567   2.222
 9278W        W74505  26.688   4.319   2.302
 9279W        W74506  38.901   0.225   1.320
 9280W        W74507  39.007  33.755   4.677
 9281W        W74508  12.860  16.635   4.916
 9282W        W74509   4.850  15.321  14.556
 9283W        W74510  40.835  43.893  13.341
 9284W        W74511  24.962   1.251   3.112
 9285W        W74512  16.628  16.772  14.385
 9286W        W74513  14.500  43.891  14.382
 9287W        W74514  23.553   2.178  13.399
 9288W        W74515  23.853  34.460   4.013
 9289W        W74516   9.900  15.474   3.383
 9290W        W74517  44.819  13.210   0.293
 9291W        W74518   6.131  33.650   0.411
 9292W        W74519   2.737  37.369  14.924
 9293W        W74520   6.411  31.376   2.341
 9294W        W74521  37.863  29.982   1.430
 9295W        W74522  22.232  40.451   0.475
 9296W        W74523  38.502  18.750  14.567
 9297W        W74524  23.109  23.164   4.283
 9298W        W74525  21.199  23.153   3.693
 9299W        W74526  22.544  31.046   4.703
 9300W        W74527  15.890   4.898  14.487
 9301W        W74528  37.941  17.461  10.774
 9302W        W74529   3.912  23.673   2.132
 9303W        W74530   5.985  34.531   4.530
 9304W        W74531  39.462  38.270   0.015
 9305W        W74532   1.550  34.920   4.216
 9306W        W74533  16.220  40.952   1.465
 9307W        W74534  10.414  35.515   0.200
 9308W        W74535  34.394  31.345  11.629
 9309W        W74536  14.732  40.511  10.847
 9310W        W74537  10.140  31.362   3.093
 9311W        W74538   0.508  37.331  10.683
 9312W        W74539  23.376  28.621  14.360
 9313W        W74540  35.023   0.271   1.759
 9314W        W74541  40.710  17.660  13.003
 9315W        W74542  29.138  34.527   4.480
 9316W        W74543  23.930   6.434  12.489
 9317W        W74544  40.073  34.275  12.489
 9318W        W74545  20.472  29.245  11.379
 9319W        W74546   8.674  30.162  11.236
 9320W        W74547  26.718  38.099   1.893
 9321W        W74548   8.542  29.475  13.101
 9322W        W74549   8.365  43.968  14.728
 9323W        W74550  43.607  16.828  14.886
 9324W        W74551  17.268  23.278   0.425
 9325W        W74552  35.341  25.575   4.071
 9326W        W74553  17.356  16.946   5.142
 9327W        W74554   0.038  35.633  11.376
 9328W        W74555  30.985  34.527   0.728
 9329W        W74556   4.483  13.532   0.965
 9330W        W74557   6.384  19.179  10.685
 9331W        W74558  14.317  43.512  12.494
 9332W        W74559  35.956  28.671   4.631
 9333W        W74560  22.553  30.567   4.903
 9334W        W74561  36.539  20.152   2.361
 9335W        W74562  12.338   9.627   3.258
 9336W        W74563  40.491  17.278   3.365
 9337W        W74564  32.346  40.634  12.542
 9338W        W74565  28.028  33.368  13.667
 9339W        W74566  10.359  13.550   3.700
 9340W        W74567   2.183  40.502   0.994
 9341W        W74568  13.767  15.971  12.917
 9342W        W74569  19.968  32.061  12.568
 9343W        W74570  25.074  10.136  12.347
 9344W        W74571  11.590  37.591  11.560
 9345W        W74572   6.767  27.185   2.417
 9346W        W74573  26.993  27.617   3.290
 9347W        W74574  41.392  20.591  12.958
 9348W        W74575   9.180  16.193  13.496
 9349W        W74576   4.044  26.388   2.149
 9350W        W74577  25.546  18.995   3.240
 9351W        W74578  41.194  40.471  13.454
 9352W        W74579  22.692  35.144  12.090
 9353W        W74580  42.410   9.711  13.838
 9354W        W74581  42.207  24.298   3.279
 9355W        W74582  30.236   4.770  11.221
 9356W        W74583  34.178  20.514   2.310
 9357W        W74584  33.572   8.718  13.750
 9358W        W74585  37.298  18.729   0.488
 9359W        W74586  16.554   0.727   0.206
 9360W        W74587  39.444  40.600   2.600
 9361W        W74588  29.986  34.935   4.394
 9362W        W74589   3.299  37.996  14.573
 9363W        W74590  13.252   6.793   2.133
 9364W        W74591   0.147  27.854  10.856
 9365W        W74592  35.415  31.844  10.728
 9366W        W74593  29.615  16.786  11.634
 9367W        W74594  11.121  21.184   1.489
 9368W        W74595  40.960  42.393   0.342
 9369W        W74596   1.189  11.494   2.738
 9370W        W74597  27.553  32.635   0.576
 9371W        W74598  18.036  25.590   4.371
 9372W        W74599  21.026  26.763   2.313
 9373W        W74600   1.897  18.923   3.222
 9374W        W74601  41.987  31.434   1.416
 9375W        W74602  40.569  32.126  11.120
 9376W        W74603  13.158  37.566  11.225
 9377W        W74604  12.171  42.948   2.410
 9378W        W74605  24.441  33.902  11.112
 9379W        W74606  24.290  10.555  14.260
 9380W        W74607   1.438  41.100  12.391
 9381W        W74608  10.196  17.994  13.812
 9382W        W74609   6.816  39.262   0.452
 9383W        W74610  39.542  38.536   3.725
 9384W        W74611  33.690  40.814  14.830
 9385W        W74612  41.384   7.801  14.491
 9386W        W74613  42.020  15.999   1.012
 9387W        W74614   2.373   8.218   1.406
 9388W        W74615  23.490  40.783   2.723
 9389W        W74616  36.775  14.955   1.350
 9390W        W74617   3.553  44.495   2.784
 9391W        W74618   8.054  11.478  11.774
 9392W        W74619  31.723   8.220  13.223
 9393W        W74620   6.401   0.200   3.976
 9394W        W74621  33.608  39.944  12.732
 9395W        W74622  42.557  23.502  11.237
 9396W        W74623  39.597  32.598   0.326
 9397W        W74624   9.269  10.096   0.761
 9398W        W74625  34.885   8.374   0.837
 9399W        W74626  41.829   7.039   2.295
 9400W        W74627  29.512   4.020  14.817
 9401W        W74628  31.502  39.457   0.866
 9402W        W74629  41.413  16.766   0.081
 9403W        W74630  26.836  41.879  11.176
 9404W        W74631  19.286  34.558   2.726
 9405W        W74632  29.610  31.226   1.077
 9406W        W74633   4.745  37.405   2.177
 9407W        W74634  10.669  43.566   1.146
 9408W        W74635  16.032  33.591   0.711
 9409W        W74636   2.271  18.033   4.529
 9410W        W74637   7.750  40.875  12.526
 9411W        W74638  31.509  42.460   4.530
 9412W        W74639  22.517  24.107  13.596
 9413W        W74640  20.625   2.796  11.999
 9414W        W74641  14.307  26.262  14.325
 9415W        W74642   5.445  28.125  11.528
 9416W        W74643  21.572  30.083  13.252
 9417W        W74644  18.218   2.649   3.222
 9418W        W74645  24.284   3.729   4.724
 9419W        W74646   0.380  11.432  14.340
 9420W        W74647   5.805  34.358   2.607
 9421W        W74648  13.937  20.709   1.453
 9422W        W74649  13.293   7.359  10.560
 9423W        W74650  44.936  35.224   1.605
 9424W        W74651  42.227   9.035  11.058
 9425W        W74652   7.824  28.521  13.384
 9426W        W74653  20.251  35.643   3.800
 9427W        W74654   0.701  40.841   0.302
 9428W        W74655  10.552  23.127  14.451
 9429W        W74656  24.342  11.220  11.238
 9430W        W74657   8.096  29.400   2.135
 9431W        W74658  12.553  30.039   4.616
 9432W        W74659   6.056  39.469  11.093
 9433W        W74660  38.147  29.920  13.635
 9434W        W74661  12.228  37.417  14.119
 9435W        W74662   1.608  23.548   2.201
 9436W        W74663  18.271  37.448  13.954
 9437W        W74664   3.692  13.144   2.866
 9438W        W74665  22.172  11.370   4.240
 9439W        W74666  29.153   4.750   0.571
 9440W        W74667  14.334   1.333  13.023
 9441W        W74668  20.540  37.079   0.333
 9442W        W74669  22.810  12.469   2.359
 9443W        W74670   5.290  40.571   4.471
 9444W        W74671  41.003  28.004   0.307
 9445W        W74672  20.801  35.847  12.539
 9446W        W74673  40.316  31.908   0.101
 9447W        W74674  28.074  38.034  14.719
 9448W        W74675  23.404  28.502   4.037
 9449W        W74676   9.310   9.946   2.163
 9450W        W74677  24.899  35.701   3.236
 9451W        W74678  36.608   1.764  11.155
 9452W        W74679  22.553  39.689  14.066
 9453W        W74680  43.282  29.865  13.239
 9454W        W74681  25.069  16.212  12.438
 9455W        W74682  17.196  20.910  13.986
 9456W        W74683  29.534  39.661   4.582
 9457W        W74684  16.648   2.218  11.896
 9458W        W74685  11.336   1.903  12.444
 9459W        W74686   6.882  29.953   0.439
 9460W        W74687  27.261  18.643   2.722
 9461W        W74688  19.920  31.672   2.576
 9462W        W74689  22.295  38.339   2.208
 9463W        W74690  17.075  14.251   4.563
 9464W        W74691  23.203   9.926   0.809
 9465W        W74692   4.007  35.044   4.138
 9466W        W74693  40.797  34.018  12.975
 9467W        W74694  38.434  38.325   1.793
 9468W        W74695  11.932  11.653   2.130
 9469W        W74696  40.365  14.824   4.614
 9470W        W74697  20.431  41.238   2.262
 9471W        W74698  35.606  40.643   2.546
 9472W        W74699   8.359   8.935   1.297
 9473W        W74700  31.475  21.639   4.142
 9474W        W74701  36.878  11.680   3.285
 9475W        W74702  25.630  31.242  13.004
 9476W        W74703   9.863  34.445  11.227
 9477W        W74704  15.790  22.919   1.871
 9478W        W74705  28.683  17.104  10.781
 9479W        W74706  13.382  16.778  10.267
 9480W        W74707  23.218  23.692  13.529
 9481W        W74708  35.985  10.232   1.333
 9482W        W74709  27.695  14.644   3.123
 9483W        W74710   5.657  14.512   0.791
 9484W        W74711  26.195  19.852   0.026
 9485W        W74712   5.426  28.177   0.678
 9486W        W74713   1.064   8.829  12.787
 9487W        W74714  34.110  44.898  10.788
 9488W        W74715  24.043   3.884   3.949
 9489W        W74716  11.103  25.295   3.619
 9490W        W74717  27.712  12.396  14.472
 9491W        W74718   0.905  37.016  13.803
 9492W        W74719  15.514  32.322   0.923
 9493W        W74720  21.003  44.947  14.828
 9494W        W74721  38.942  34.776   1.330
 9495W        W74722  14.755   8.705   3.718
 9496W        W74723   7.804  33.617   4.233
 9497W        W74724  43.295   7.309   0.488
 9498W        W74725   6.497  43.897   5.429
 9499W        W74726  33.033  42.779  12.115
 9500W        W74727  23.450  37.553  12.792
 9501W        W74728  43.901  35.102  12.663
 9502W        W74729   1.950  28.218  11.455
 9503W        W74730  43.370  43.363   0.793
 9504W        W74731  28.554  14.517   5.440
 9505W        W74732   9.402  20.986  12.446
 9506W        W74733  15.379  21.244   2.359
 9507W        W74734  11.496  11.728  13.930
 9508W        W74735  17.506  42.771   0.815
 9509W        W74736  44.366   4.697   3.728
 9510W        W74737  38.952  20.780  10.467
 9511W        W74738  36.899  10.318  13.259
 9512W        W74739  44.954   3.694   3.482
 9513W        W74740  24.672  26.697   3.786
 9514W        W74741  21.977  16.781   3.178
 9515W        W74742  31.473  23.223  14.016
 9516W        W74743  11.118  38.051  13.719
 9517W        W74744  14.322  24.252  10.634
 9518W        W74745  21.542  39.833   0.986
 9519W        W74746  40.001  30.940   4.560
 9520W        W74747  37.084   2.424   3.103
 9521W        W74748  39.426  23.278   1.841
 9522W        W74749   1.270  22.720   0.687
 9523W        W74750   9.775   5.015   1.507
 9524W        W74751   2.239  37.405  13.648
 9525W        W74752  15.522  17.637   4.170
 9526W        W74753  37.157   4.404  10.717
 9527W        W74754  20.388  24.076  10.703
 9528W        W74755  31.913  17.534   1.321
 9529W        W74756  34.040   4.527   2.700
 9530W        W74757  30.566   6.365   5.035
 9531W        W74758  30.384  24.482   3.724
 9532W        W74759  39.493  24.702  11.951
 9533W        W74760  19.303   4.440   2.166
 9534W        W74761  36.054  30.473  10.383
 9535W        W74762   6.407   4.787  11.470
 9536W        W74763  35.295  30.203  11.664
 9537W        W74764  22.748  35.701   1.136
 9538W        W74765  41.071  23.751  11.949
 9539W        W74766  20.935   6.349   0.105
 9540W        W74767  28.997  43.336  13.293
 9541W        W74768  25.966   1.181  13.128
 9542W        W74769  15.142  21.194  13.891
 9543W        W74770   8.809   7.117   3.747
 9544W        W74771   0.662  20.754  12.146
 9545W        W74772  19.991  24.346   1.008
 9546W        W74773   4.390  17.831   1.068
 9547W        W74774   0.777  39.947   2.170
 9548W        W74775  19.769  15.285   2.776
 9549W        W74776  11.717  41.213   0.628
 9550W        W74777   2.907  26.155  13.512
 9551W        W74778  33.465   0.333  10.622
 9552W        W74779   8.438  29.248  13.556
 9553W        W74780   9.176  36.110   3.125
 9554W        W74781  19.285  43.258  12.550
 9555W        W74782  38.435  10.010  13.340
 9556W        W74783  41.533  28.643   0.743
 9557W        W74784  44.834  33.162   1.455
 9558W        W74785   9.722  25.861   4.764
 9559W        W74786  26.436  34.095   4.142
 9560W        W74787  35.372  17.663   0.018
 9561W        W74788  17.053  18.488  14.355
 9562W        W74789  13.069  28.094  14.810
 9563W        W74790  19.643  32.813   0.985
 9564W        W74791  34.407  41.319   4.061
 9565W        W74792  31.277  39.073  11.104
 9566W        W74793  27.787  35.211  13.414
 9567W        W74794   9.952  20.502   0.343
 9568W        W74795  33.635   6.900  12.086
 9569W        W74796  16.054  11.672   3.401
 9570W        W74797  41.310  41.326   2.170
 9571W        W74798  29.401  12.125   0.325
 9572W        W74799  18.082  24.105   1.086
 9573W        W74800  15.489   2.847  11.731
 9574W        W74801  20.057  21.902  12.929
 9575W        W74802   5.510  40.919   3.654
 9576W        W74803   1.416  17.081  14.945
 9577W        W74804  42.691  38.791  11.095
 9578W        W74805  31.446  13.388  13.944
 9579W        W74806  17.231   4.619   3.943
 9580W        W74807   6.267  36.583  12.102
 9581W        W74808  43.289   3.690  12.702
 9582W        W74809  27.635  11.645   2.276
 9583W        W74810   8.054   1.607  11.765
 9584W        W74811  14.215   1.969   1.170
 9585W        W74812  42.475  15.522  13.013
 9586W        W74813  15.095  24.167  10.734
 9587W        W74814  42.184  22.769   4.135
 9588W        W74815  10.215  43.769   4.223
 9589W        W74816  21.772  20.946   2.906
 9590W        W74817  40.010  12.182  11.607
 9591W        W74818  43.640  27.494   5.626
 9592W        W74819   7.609   5.972   3.314
 9593W        W74820  28.968  26.135   1.010
 9594W        W74821  13.702  28.913  13.347
 9595W        W74822   3.410  21.112   4.497
 9596W        W74823  26.961  34.760  11.682
 9597W        W74824  15.643  22.689  11.630
 9598W        W74825  16.890  20.005  13.900
 9599W        W74826  10.604  44.373  12.115
 9600W        W74827  31.146   5.827   1.461
 9601W        W74828   1.303   0.532   0.039
 9602W        W74829   4.470   4.352   0.148
 9603W        W74830  14.569   5.578  13.501
 9604W        W74831  40.456  40.335  12.534
 9605W        W74832  19.302  20.804   4.539
 9606W        W74833  22.173  29.233   2.744
 9607W        W74834  16.401  44.408  11.150
 9608W        W74835  30.748  14.824  10.898
 9609W        W74836  26.267  10.937   0.978
 9610W        W74837  15.141  14.485  14.914
 9611W        W74838  31.025  33.269  10.694
 9612W        W74839  10.130  39.587  13.936
 9613W        W74840   5.540  25.806   9.889
 9614W        W74841  22.602  14.103  14.771
 9615W        W74842   9.643  25.675   2.099
 9616W        W74843   0.383   0.078  11.091
 9617W        W74844   6.973   3.893   3.131
 9618W        W74845   2.888  33.464   4.938
 9619W        W74846  10.407  11.789   1.023
 9620W        W74847  20.927  39.458  11.686
 9621W        W74848  26.124  35.243  11.182
 9622W        W74849  38.379  23.908  11.519
 9623W        W74850  11.649   8.552  12.140
 9624W        W74851  42.974  35.009   4.743
 9625W        W74852   6.863  21.324  11.173
 9626W        W74853  31.566  38.396   3.723
 9627W        W74854  34.487  35.055   2.456
 9628W        W74855  42.235  33.593   0.218
 9629W        W74856  39.688   7.358  10.770
 9630W        W74857  29.656  41.032   2.395
 9631W        W74858  16.995  28.416   3.098
 9632W        W74859  19.158  36.568  13.329
 9633W        W74860  13.084   6.713  12.433
 9634W        W74861  37.332  29.526   1.861
 9635W        W74862   9.062   2.225   1.737
 9636W        W74863  43.467  35.886  12.111
 9637W        W74864   3.427  12.231  12.080
 9638W        W74865  21.441  43.905   2.412
 9639W        W74866   9.618  43.745  14.507
 9640W        W74867  12.087  11.216  10.677
 9641W        W74868  18.627  41.059   4.279
 9642W        W74869  31.323  41.260   4.096
 9643W        W74870  28.261   7.974  11.503
 9644W        W74871  19.847   2.233  14.375
 9645W        W74872  29.879  32.579   4.686
 9646W        W74873  17.365  29.475  13.831
 9647W        W74874  16.193  22.653  10.193
 9648W        W74875  10.698  14.070   3.211
 9649W        W74876  30.655  11.361  10.244
 9650W        W74877  42.484  15.168   0.666
 9651W        W74878  34.342  38.575   0.371
 9652W        W74879  29.151  16.399   2.750
 9653W        W74880   8.590  17.746   2.823
 9654W        W74881  25.224  12.308   4.848
 9655W        W74882  15.237   0.407   0.886
 9656W        W74883  29.835  15.063   4.563
 9657W        W74884  34.541  24.746   2.094
 9658W        W74885  16.184  39.707  10.761
 9659W        W74886  19.644  32.268  14.416
 9660W        W74887  39.782  10.220  14.484
 9661W        W74888  26.974  15.308   4.040
 9662W        W74889  17.108  16.596  11.562
 9663W        W74890  36.533   8.909  14.507
 9664W        W74891  38.520  26.132  10.964
 9665W        W74892  41.226  36.792  11.573
 9666W        W74893  39.565  41.872  13.861
 9667W        W74894  37.912  42.302   4.977
 9668W        W74895  23.984  40.370   2.280
 9669W        W74896  29.037  12.680  14.477
 9670W        W74897   6.201  20.402  10.789
 9671W        W74898  22.496  38.486   4.190
 9672W        W74899  12.973   4.021  11.890
 9673W        W74900   8.727  37.126   0.253
 9674W        W74901   3.982   5.788   3.270
 9675W        W74902  34.176  35.782   4.272
 9676W        W74903  41.705   5.266  11.638
 9677W        W74904  25.736  13.163  13.997
 9678W        W74905  41.550  12.879   4.165
 9679W        W74906   8.455  26.611  12.084
 9680W        W74907  33.873   9.328   4.508
 9681W        W74908  35.009  37.800   0.701
 9682W        W74909  41.306  22.672   2.769
 9683W        W74910   0.803  23.262   9.849
 9684W        W74911   6.579  29.130  10.815
 9685W        W74912  32.900  26.052  10.130
 9686W        W74913  32.439  23.424   3.962
 9687W        W74914   8.820  34.082   0.431
 9688W        W74915  40.415  28.970  14.952
 9689W        W74916  17.407  41.310  13.479
 9690W        W74917  20.306  31.957  13.537
 9691W        W74918  15.371  37.919  14.242
 9692W        W74919   9.828  27.233   1.662
 9693W        W74920  20.279  12.469   4.501
 9694W        W74921   9.585  42.038   0.445
 9695W        W74922  42.044  44.966  14.262
 9696W        W74923  35.471   4.073   4.184
 9697W        W74924  32.292  22.594   0.500
 9698W        W74925  18.161  22.149   1.335
 9699W        W74926  27.751  33.534   1.747
 9700W        W74927  10.040   2.495   4.019
 9701W        W74928  43.668  23.344  13.030
 9702W        W74929   7.721  44.546   1.481
 9703W        W74930  33.899  26.458   2.369
 9704W        W74931  15.360  32.546   2.328
 9705W        W74932   4.259  44.319  14.359
 9706W        W74933   5.699  31.632   2.786
 9707W        W74934   2.374  16.526   2.265
 9708W        W74935   4.941  17.513   4.180
 9709W        W74936  43.826  29.503   0.765
 9710W        W74937  33.550  30.420  12.588
 9711W        W74938  11.379  43.947  14.734
 9712W        W74939  41.809   5.340   1.820
 9713W        W74940  36.853   8.824  12.924
 9714W        W74941  18.587  36.555  11.189
 9715W        W74942  27.559  27.900  10.416
 9716W        W74943  18.349  44.357   4.098
 9717W        W74944  40.109  41.366   4.544
 9718W        W74945   4.774  33.510   0.982
 9719W        W74946  27.285  12.939   3.327
 9720W        W74947  41.798  13.772  10.692
 9721W        W74948  33.993  33.476  12.843
 9722W        W74949  34.519  29.838  13.526
 9723W        W74950  37.050  23.182   4.735
 9724W        W74951  12.562  34.961  10.324
 9725W        W74952  26.071   9.832   2.769
 9726W        W74953  37.421  17.236  12.435
 9727W        W74954  30.993   1.883   3.209
 9728W        W74955  31.432  32.965   0.381
 9729W        W74956  24.605   6.914  11.657
 9730W        W74957  27.163   4.008   1.743
 9731W        W74958   0.427  15.701  10.447
 9732W        W74959   9.982  42.274   0.706
 9733W        W74960   9.033  38.758   1.857
 9734W        W74961   7.504  31.535  12.369
 9735W        W74962  22.997  31.402  12.026
 9736W        W74963  18.257  29.942   3.749
 9737W        W74964  30.195  14.280   4.781
 9738W        W74965  16.267  43.721   4.168
 9739W        W74966  29.053  40.460   1.422
 9740W        W74967  15.619  42.043   0.791
 9741W        W74968  20.696   8.753  12.029
 9742W        W74969  35.100  10.872  12.775
 9743W        W74970  26.040   0.166  12.985
 9744W        W74971  31.475  21.200   0.324
 9745W        W74972   3.753  25.471  11.065
 9746W        W74973  35.077  27.975   3.136
 9747W        W74974  39.337   8.310   2.616
 9748W        W74975  10.308  21.458  12.317
 9749W        W74976  25.778  27.054   3.252
 9750W        W74977   0.356   8.232   0.411
 9751W        W74978  32.889  44.396  14.796
 9752W        W74979  20.007   7.918   2.684
 9753W        W74980  27.163  24.511   0.380
 9754W        W74981  29.020   7.644  12.545
 9755W        W74982  21.179  12.111   4.216
 9756W        W74983  34.065   6.365  14.328
 9757W        W74984  19.967  36.518   0.208
 9758W        W74985  25.843  23.831   3.754
 9759W        W74986  25.074  34.834   3.902
 9760W        W74987  10.641  38.014  11.587
 9761W        W74988   6.760  36.180   0.526
 9762W        W74989  41.965  25.494  14.333
 9763W        W74990  25.589  31.290  10.521
 9764W        W74991  12.306  31.414   9.809
 9765W        W74992  40.465  17.131   1.465
 9766W        W74993  42.517  40.414   4.097
 9767W        W74994  41.095   8.262   2.781
 9768W        W74995  12.292  27.085  12.510
 9769W        W74996  13.075   2.696   0.271
 9770W        W74997  32.433  31.484  14.033
 9771W        W74998  42.330   5.708   2.331
 9772W        W74999  15.863  31.447  14.774
 9773W        W75000  17.460  21.558  10.508
 9774W        W75001  32.093  21.292  11.982
 9775W        W75002  38.570  17.390   0.808
 9776W        W75003  44.058  14.231   1.858
 9777W        W75004   3.220   1.277   4.952
 9778W        W75005  24.265  39.939  13.861
 9779W        W75006  38.325  18.777  12.750
 9780W        W75007   2.581  16.194   4.107
 9781W        W75008  33.444  13.894  10.245
 9782W        W75009  25.994  44.619  11.167
 9783W        W75010  11.619   0.469   1.874
 9784W        W75011  43.301  16.376  11.167
 9785W        W75012  12.105  11.725  14.281
 9786W        W75013  33.687   0.286  13.380
 9787W        W75014   0.429  43.460  12.101
 9788W        W75015  28.420  30.013  11.601
 9789W        W75016   0.498  26.641  13.587
 9790W        W75017  29.164  19.550  10.589
 9791W        W75018   1.772  44.470   2.634
 9792W        W75019  11.197  27.945   4.042
 9793W        W75020   8.694   6.789   2.697
 9794W        W75021  23.000  29.101  11.411
 9795W        W75022  22.999   4.998  14.475
 9796W        W75023   9.776  11.576  14.798
 9797W        W75024   6.957  14.417  13.913
 9798W        W75025   9.542  27.940  13.867
 9799W        W75026   0.963  28.962  12.866
 9800W        W75027  10.777  41.263  13.136
 9801W        W75028   3.647   4.660   1.400
 9802W        W75029   0.817  15.974   3.776
 9803W        W75030  13.129  27.112  10.746
 9804W        W75031  37.807  35.346  13.483
 9805W        W75032   2.831  42.259  10.302
 9806W        W75033  26.938   1.856  14.669
 9807W        W75034  20.677   7.161  12.405
 9808W        W75035  43.016  31.571   1.446
 9809W        W75036   3.449  10.629   3.930
 9810W        W75037  18.772  29.153   1.477
 9811W        W75038  17.168  15.650  11.658
 9812W        W75039  16.321   0.299  14.977
 9813W        W75040  40.425  39.127   5.287
 9814W        W75041  27.193  15.438   1.267
 9815W        W75042  38.672   3.793   4.429
 9816W        W75043  22.838  36.609  13.445
 9817W        W75044  24.641  42.540   3.068
 9818W        W75045  35.960  42.439  14.303
 9819W        W75046  14.696  17.616  14.756
 9820W        W75047  37.630   0.378  11.148
 9821W        W75048  18.378  25.897   4.144
 9822W        W75049   7.132  22.030  13.975
 9823W        W75050  40.912  20.619   2.163
 9824W        W75051  43.668  16.738  11.292
 9825W        W75052  29.121  32.331   4.109
 9826W        W75053  44.166  16.405   4.517
 9827W        W75054  10.835  20.791   2.412
 9828W        W75055   5.171   7.365   0.878
 9829W        W75056  37.563   5.723  14.501
 9830W        W75057   0.772  30.558  13.852
 9831W        W75058  23.711  36.457   3.142
 9832W        W75059  19.323   8.896   1.806
 9833W        W75060  11.786  20.306   2.279
 9834W        W75061   9.147   9.638  11.572
 9835W        W75062   3.742  23.438   4.232
 9836W        W75063  17.304   7.293   0.912
 9837W        W75064  22.911  13.287  11.128
 9838W        W75065  13.335  20.650   3.572
 9839W        W75066   5.232  23.219   1.990
 9840W        W75067   9.155  20.218  12.919
 9841W        W75068  26.895   7.232   3.663
 9842W        W75069   4.296  29.560  10.528
 9843W        W75070  25.580   3.288   3.294
 9844W        W75071   2.539   1.525   2.824
 9845W        W75072  26.190  14.920   4.119
 9846W        W75073  26.697  33.249  14.521
 9847W        W75074  35.922  32.523   1.752
 9848W        W75075  43.548  23.183   3.186
 9849W        W75076  18.083  34.534  12.956
 9850W        W75077   7.203  37.418  12.038
 9851W        W75078  17.870   5.228  12.547
 9852W        W75079  17.217   2.914  13.904
 9853W        W75080  17.294  21.626  13.044
 9854W        W75081  16.776  14.954   2.538
 9855W        W75082  22.631  17.089   1.017
 9856W        W75083  25.949  35.119  12.164
 9857W        W75084  10.641  41.450   1.288
 9858W        W75085  40.608  30.251   2.210
 9859W        W75086   9.318  24.062  13.962
 9860W        W75087   9.254   7.836  10.551
 9861W        W75088  10.268  23.691  11.727
 9862W        W75089  38.340  18.691   0.953
 9863W        W75090  20.598  34.616   3.198
 9864W        W75091  21.216   8.008   1.326
 9865W        W75092   0.685  14.142   3.167
 9866W        W75093  15.467   0.434  14.402
 9867W        W75094   0.752  25.555  14.688
 9868W        W75095  22.144  36.596   4.581
 9869W        W75096   6.956   3.402   4.090
 9870W        W75097   9.315  30.103  14.405
 9871W        W75098  13.083  41.946   2.328
 9872W        W75099  35.468   7.871  11.906
 9873W        W75100  17.984  17.760   4.217
 9874W        W75101  14.995  22.283  13.149
 9875W        W75102   6.218  17.892   0.118
 9876W        W75103  24.356  18.705  12.867
 9877W        W75104  21.008  34.473   3.503
 9878W        W75105  26.561  18.987   0.783
 9879W        W75106  16.100  31.067   2.849
 9880W        W75107  14.830  32.618  14.055
 9881W        W75108   5.247  35.908  11.584
 9882W        W75109  30.576  27.167  14.350
 9883W        W75110  25.662   2.412  13.072
 9884W        W75111   3.277  11.147   4.041
 9885W        W75112  15.366   6.078  14.239
 9886W        W75113  29.657  44.901   0.690
 9887W        W75114   4.105  11.779   0.216
 9888W        W75115  27.465  16.753   2.760
 9889W        W75116  18.076  44.131   1.282
 9890W        W75117  39.100  44.744  12.503
 9891W        W75118  25.586  23.724   1.486
 9892W        W75119  40.401  40.946  14.302
 9893W        W75120  18.351  43.806   1.586
 9894W        W75121  41.361  26.963  13.281
 9895W        W75122  13.364  38.582   4.623
 9896W        W75123  22.486  33.681   1.050
 9897W        W75124   3.913  19.430  11.636
 9898W        W75125   2.057  12.071  12.732
 9899W        W75126  12.059  19.097   2.649
 9900W        W75127  35.062  23.304  14.547
 9901W        W75128   4.990  22.195  14.395
 9902W        W75129  28.404   3.781   1.223
 9903W        W75130  37.337  32.914  11.662
 9904W        W75131  19.699  10.318  11.986
 9905W        W75132  36.507   7.636  11.181
 9906W        W75133  14.204  37.433   3.158
 9907W        W75134   9.684  26.002   3.564
 9908W        W75135  42.331   1.315   4.214
 9909W        W75136  20.292   3.907   4.227
 9910W        W75137  44.268  41.052   1.370
 9911W        W75138  30.319  27.393   2.126
 9912W        W75139  29.669   3.026   2.904
 9913W        W75140   9.314  26.222   2.249
 9914W        W75141  41.632  36.288   4.132
 9915W        W75142   1.931  33.221   4.126
 9916W        W75143   4.852  23.302   3.286
 9917W        W75144  31.260  42.264  13.029
 9918W        W75145   5.185  13.825   3.568
 9919W        W75146  29.344   3.306  14.515
 9920W        W75147  14.793  43.201  14.806
 9921W        W75148  26.154  12.858  14.880
 9922W        W75149  19.589  23.513   0.035
 9923W        W75150  14.537  24.228   0.767
 9924W        W75151   8.155  27.564   2.556
 9925W        W75152  28.443  39.633   2.263
 9926W        W75153  17.201  32.791  13.990
 9927W        W75154   1.128  27.579  12.265
 9928W        W75155  33.505  32.666  11.596
 9929W        W75156   9.613  44.512  10.180
 9930W        W75157  26.510   0.894  10.502
 9931W        W75158   6.245  38.996  10.955
 9932W        W75159  26.164  24.188   0.732
 9933W        W75160  23.890  31.042  11.942
 9934W        W75161  31.697  12.265   0.717
 9935W        W75162  28.714  23.492   4.000
 9936W        W75163  40.680   0.234  13.554
 9937W        W75164   2.992  39.097  13.592
 9938W        W75165   3.761  38.018  14.311
 9939W        W75166  41.422   0.188   1.237
 9940W        W75167  42.472  28.268   3.025
 9941W        W75168   9.653  40.972   2.270
 9942W        W75169  43.501   2.689  10.810
 9943W        W75170   4.426   8.251   3.135
 9944W        W75171  41.418  10.860   4.805
 9945W        W75172   0.871  21.961   1.242
 9946W        W75173  34.921  25.255  10.745
 9947W        W75174  29.465  15.829   0.584
 9948W        W75175  36.481  25.460   3.771
 9949W        W75176   7.462  14.628  12.507
 9950W        W75177   7.190  18.289   2.709
 9951W        W75178  36.490  19.149   1.808
 9952W        W75179  25.633  19.093   2.271
 9953W        W75180  25.588   6.250   4.192
 9954W        W75181   2.899   0.283   0.240
 9955W        W75182   7.109  32.438   1.375
 9956W        W75183  22.218  18.185  11.947
 9957W        W75184  24.724  31.810   2.666
 9958W        W75185  33.426   9.642   3.815
 9959W        W75186  24.154  10.114   1.198
 9960W        W75187  10.655  27.667   4.539
 9961W        W75188  15.611  40.279   4.582
 9962W        W75189  28.658  41.502   3.669
 9963W        W75190  13.280  25.191  13.004
 9964W        W75191  44.208   0.026   4.166
 9965W        W75192  40.356  31.463  11.607
 9966W        W75193  32.186  23.777  13.943
 9967W        W75194  36.026  44.219   4.711
 9968W        W75195   6.851  17.835  11.553
 9969W        W75196   4.317  20.650  13.985
 9970W        W75197  17.208  38.169  13.361
 9971W        W75198  38.532  15.743  13.836
 9972W        W75199  43.398  15.251  13.129
 9973W        W75200  16.280  23.520  12.480
 9974W        W75201   9.610   3.187  11.626
 9975W        W75202  44.290  41.512   2.263
 9976W        W75203  10.522   4.371   2.358
 9977W        W75204  35.231  38.499  14.516
 9978W        W75205   8.009  23.788  12.890
 9979W        W75206  21.407  34.513  11.609
 9980W        W75207   7.766   2.069  12.572
 9981W        W75208  14.753  37.191  14.710
 9982W        W75209  19.727  30.600   1.285
 9983W        W75210  13.843  23.500  14.343
 9984W        W75211   0.097  23.687  12.589
 9985W        W75212  14.107  17.614   4.173
 9986W        W75213   7.982  42.925   2.767
 9987W        W75214  31.606  24.762   2.397
 9988W        W75215  20.018  16.844  11.782
 9989W        W75216  31.493  34.522  10.475
 9990W        W75217  29.042  10.781  14.337
 9991W        W75218  34.652  35.393   3.212
 9992W        W75219  10.480  15.963   3.642
 9993W        W75220  17.243  26.490  10.708
 9994W        W75221   9.683  36.454  13.125
 9995W        W75222  23.054   8.735   3.125
 9996W        W75223   9.543  23.301  10.910
 9997W        W75224  28.564  32.137   3.110
 9998W        W75225  31.691  21.640   2.093
 9999W        W75226  30.435  21.799  12.959
10000W        W75227  36.275  32.593  11.311
10001W        W75228   7.430  21.243   3.174
10002W        W75229  34.986  11.571   0.016
10003W        W75230  40.035  11.152   0.442
10004W        W75231  18.922  19.049   4.191
10005W        W75232   2.867  29.968  12.620
10006W        W75233   0.953   3.631  10.429
10007W        W75234  10.434  13.315   4.173
10008W        W75235  27.157  25.429   0.091
10009W        W75236  11.749  39.406   3.446
10010W        W75237  37.818  17.311  11.618
10011W        W75238  23.129  39.930   3.805
10012W        W75239  44.885  37.149  11.379
10013W        W75240  25.285  10.450   2.643
10014W        W75241   8.264  25.237  12.401
10015W        W75242  43.772  32.386  11.465
10016W        W75243  11.318  18.639   2.781
10017W        W75244   4.922  25.254  12.282
10018W        W75245   3.376   5.238   1.757
10019W        W75246  42.322  24.763  13.137
10020W        W75247  23.067  22.055  13.088
10021W        W75248  12.220  32.094   3.002
10022W        W75249  38.809  43.010  13.539
10023W        W75250   9.890  30.567   2.187
10024W        W75251  43.174  35.176  11.692
10025W        W75252  40.222  43.882   2.837
10026W        W75253  32.003  35.406  11.240
10027W        W75254  42.182  42.902  14.739
10028W        W75255  29.031  22.619   0.982
10029W        W75256  20.206  32.637  11.592
10030W        W75257   8.391   7.916  10.873
10031W        W75258  29.781  17.166   4.324
10032W        W75259  12.089  39.033   2.298
10033W        W75260  28.358  31.896   2.657
10034W        W75261  33.753   5.659  13.895
10035W        W75262  36.260  30.666  13.431
10036W        W75263  20.136  11.485   2.190
10037W        W75264   9.924  10.401  13.531
10038W        W75265  23.134  44.323   0.386
10039W        W75266  41.610  42.907   0.806
10040W        W75267   7.061  10.670  11.159
10041W        W75268  17.197   0.494  14.758
10042W        W75269   0.444  39.211   0.929
10043W        W75270  20.548  33.368  12.954
10044W        W75271  35.136   5.139   1.334
10045W        W75272   3.240  31.072   3.348
10046W        W75273   8.362  43.293  13.588
10047W        W75274  41.247   3.234   0.442
10048W        W75275   4.951  27.426  13.124
10049W        W75276  17.118  20.497   1.411
10050W        W75277  42.033   9.907  14.435
10051W        W75278  14.210  38.440  14.380
10052W        W75279  22.036  30.154  10.694
10053W        W75280   1.945  40.810   1.341
10054W        W75281  10.624   8.826  10.816
10055W        W75282  32.139  37.213  11.158
10056W        W75283  30.163  12.350  14.528
10057W        W75284   7.403  43.760   3.857
10058W        W75285  21.561  11.623  11.724
10059W        W75286   2.601   8.970   4.764
10060W        W75287  13.254   3.951   0.760
10061W        W75288  24.442  33.088   0.649
10062W        W75289  33.960  30.058   5.033
10063W        W75290  44.887   5.749  12.504
10064W        W75291   6.925  13.614   2.437
10065W        W75292  26.501  11.151  14.808
10066W        W75293   3.942  44.031   2.703
10067W        W75294  19.831  42.826  14.977
10068W        W75295  24.739  25.963   4.467
10069W        W75296  41.950  35.624   2.868
10070W        W75297   8.623  33.580   4.175
10071W        W75298  38.894  42.784   3.760
10072W        W75299  10.333  20.945  13.451
10073W        W75300  23.731   9.882   0.899
10074W        W75301  19.931  40.876   4.364
10075W        W75302   9.726   3.232   4.571
10076W        W75303  26.998  21.486   1.582
10077W        W75304  21.225  23.066  12.380
10078W        W75305   8.795  10.724  13.967
10079W        W75306  16.982   9.863  12.905
10080W        W75307  26.679  12.978  13.972
10081W        W75308  13.791  37.988   1.916
10082W        W75309  27.946  43.425  11.625
10083W        W75310  43.164   0.987  14.402
10084W        W75311  26.705  37.600   4.148
10085W        W75312  15.014  15.645   3.880
10086W        W75313  20.280  11.587   4.096
10087W        W75314   0.860  28.958   2.385
10088W        W75315   2.411   9.237  11.821
10089W        W75316  17.611  24.198   4.639
10090W        W75317   7.682  21.738   1.227
10091W        W75318   0.547  21.477  11.202
10092W        W75319   9.860  12.117   3.228
10093W        W75320  32.990   3.924  10.536
10094W        W75321   1.873  31.403   2.675
10095W        W75322  44.880  25.557  11.249
10096W        W75323  44.978  44.567  12.692
10097W        W75324  22.827  18.938  12.392
10098W        W75325  40.034  38.785  12.139
10099W        W75326   6.304   3.190  12.424
10100W        W75327  30.164  24.763  14.921
10101W        W75328  13.849  37.126  11.365
10102W        W75329   8.775  26.512  13.313
10103W        W75330  20.679   8.818   4.812
10104W        W75331  29.395  23.712  14.654
10105W        W75332  42.212   3.326  11.057
10106W        W75333  11.479  13.240  13.364
10107W        W75334   7.262  14.015  14.040
10108W        W75335  23.153  24.573   1.175
10109W        W75336  26.778  28.718  12.063
10110W        W75337   1.491  31.445   0.849
10111W        W75338  28.101  43.668  12.042
10112W        W75339  34.089   5.311  12.397
10113W        W75340   9.719  21.326  11.529
10114W        W75341   0.777  12.194   3.692
10115W        W75342  35.916  15.453  14.454
10116W        W75343   6.916   9.093   0.404
10117W        W75344  19.601  28.305  11.542
10118W        W75345  18.938  10.305   2.003
10119W        W75346  27.408  11.831  12.366
10120W        W75347  34.520   9.158  13.925
10121W        W75348   7.191  13.291   0.343
10122W        W75349  37.004  33.469   5.026
10123W        W75350  22.267  42.276   1.601
10124W        W75351  23.698  28.381  14.920
10125W        W75352  30.110  30.849  11.980
10126W        W75353   8.717   7.206  14.847
10127W        W75354  10.688   3.889   2.280
10128W        W75355  41.032  17.134  14.445
10129W        W75356  16.487  37.397   1.715
10130W        W75357  44.682  16.364  14.450
10131W        W75358  15.825  40.934  13.343
10132W        W75359  23.081  37.200   0.390
10133W        W75360  43.921  43.408  11.252
10134W        W75361  29.604   5.513  14.789
10135W        W75362  14.610  35.453   2.416
10136W        W75363  38.104  41.511   4.381
10137W        W75364  33.391  20.999   4.587
10138W        W75365   7.608  19.277   3.764
10139W        W75366  44.467   3.826   4.201
10140W        W75367  15.212  10.944   0.323
10141W        W75368  38.967  35.201   1.647
10142W        W75369  20.430  39.631  11.613
10143W        W75370  33.285   5.179   3.813
10144W        W75371  44.275  35.494   0.290
10145W        W75372  34.485  16.464   9.656
10146W        W75373  37.510   0.444  14.292
10147W        W75374   1.658   2.720  14.724
10148W        W75375  14.302  22.637   1.119
10149W        W75376  10.911   6.875  13.569
10150W        W75377   3.979  43.476  13.216
10151W        W75378  29.985  23.296   0.269
10152W        W75379  36.047  19.840   0.671
10153W        W75380   6.172  16.108  14.902
10154W        W75381  40.361  42.008  11.026
10155W        W75382  43.951  43.645   2.856
10156W        W75383  18.951  31.933  14.036
10157W        W75384  36.756   4.923  10.633
10158W        W75385  19.748  30.607   4.365
10159W        W75386  35.945  22.729  11.918
10160W        W75387   8.666  36.451  12.118
10161W        W75388  42.534  41.223   1.651
10162W        W75389  38.548  26.478   4.060
10163W        W75390  43.565  29.008   0.335
10164W        W75391   2.376   3.412   4.433
10165W        W75392  24.065  35.915   1.865
10166W        W75393  21.494   9.502  14.287
10167W        W75394  32.915  11.906  12.821
10168W        W75395  42.175  28.533  11.655
10169W        W75396  19.307  24.379  14.973
10170W        W75397  43.813  35.161   0.835
10171W        W75398  10.818  26.980   3.623
10172W        W75399   9.918  20.199   2.470
10173W        W75400  43.343  35.182   2.984
10174W        W75401  40.236  17.043  14.794
10175W        W75402  23.256  26.859   2.962
10176W        W75403  41.359  34.468  12.048
10177W        W75404  13.841   2.707  14.114
10178W        W75405  19.592  37.966   0.355
10179W        W75406  29.286   1.051  14.785
10180W        W75407  23.942  41.842   2.806
10181W        W75408  33.173  10.782  13.522
10182W        W75409  26.470  40.827  14.886
10183W        W75410  26.372  33.067   1.862
10184W        W75411   1.870  29.380  10.062
10185W        W75412   8.415  12.947   2.067
10186W        W75413   0.919  44.318  13.430
10187W        W75414  19.660  43.837  13.599
10188W        W75415  21.257  42.956  13.451
10189W        W75416  29.664  44.214  12.161
10190W        W75417  10.652  34.917   0.749
10191W        W75418  40.769  25.453  12.977
10192W        W75419  39.781   1.780   3.633
10193W        W75420  30.555   8.957   1.777
10194W        W75421  27.340   2.732   3.065
10195W        W75422  36.333  33.649   0.071
10196W        W75423  29.973   5.166  13.169
10197W        W75424   0.698  19.100  11.691
10198W        W75425  42.372  20.650  13.520
10199W        W75426  34.430  30.682  13.921
10200W        W75427  10.445  11.422  10.284
10201W        W75428  18.369  37.989   4.045
10202W        W75429  42.385  18.188  11.473
10203W        W75430  31.343  28.808  14.416
10204W        W75431  36.051  10.761   2.353
10205W        W75432  44.897  36.616  11.369
10206W        W75433  23.152  32.098   3.747
10207W        W75434  18.195  21.857  14.950
10208W        W75435  14.090  44.306  10.639
10209W        W75436  28.688  41.530  12.451
10210W        W75437  36.327  27.594   4.082
10211W        W75438  38.380   7.000  12.467
10212W        W75439  15.113  40.843  14.122
10213W        W75440  17.349  23.547   4.453
10214W        W75441  32.082  28.019  12.491
10215W        W75442  15.118  20.811   2.081
10216W        W75443  40.941   0.544  14.494
10217W        W75444  37.682  40.390  10.765
10218W        W75445  42.566   1.964  13.899
10219W        W75446   6.615  18.659   2.746
10220W        W75447  39.035   4.833  13.154
10221W        W75448  39.045  35.982   2.240
10222W        W75449  20.016  10.056  11.665
10223W        W75450   9.772  11.096   1.885
10224W        W75451  44.893  22.803  14.737
10225W        W75452   7.217  23.744   2.098
10226W        W75453   4.540  34.926   3.225
10227W        W75454  14.918  21.210   3.930
10228W        W75455  19.243  30.003  13.984
10229W        W75456   7.968  13.745   1.893
10230W        W75457  30.660  33.371  11.545
10231W        W75458   0.148  18.170   4.186
10232W        W75459  19.204  13.323   1.839
10233W        W75460   8.489  25.046   0.246
10234W        W75461  38.680  21.936  11.537
10235W        W75462  13.860  17.552  12.049
10236W        W75463  21.176  19.932   2.802
10237W        W75464  36.375  13.330  14.917
10238W        W75465   1.205  42.590  12.517
10239W        W75466  18.730   1.483  14.917
10240W        W75467   4.695   6.085   2.519
10241W        W75468  32.063  42.195  13.458
10242W        W75469   3.055  22.215   0.440
10243W        W75470  11.341  13.777   3.621
10244W        W75471   8.819  18.804   1.369
10245W        W75472  38.829   7.423  13.922
10246W        W75473  26.967  21.701  12.058
10247W        W75474  35.187   9.833   2.738
10248W        W75475  22.853  11.363  12.296
10249W        W75476   3.335  14.705  14.568
10250W        W75477   5.774  38.804  12.119
10251W        W75478   4.675  40.389  12.446
10252W        W75479  29.395  10.399   2.657
10253W        W75480  18.318   8.269   1.236
10254W        W75481  31.582   4.337  12.584
10255W        W75482  35.456  42.695  13.027
10256W        W75483   6.906  40.741  10.560
10257W        W75484  38.270   0.677   2.297
10258W        W75485   2.965  20.183   1.275
10259W        W75486  15.553   7.859  13.393
10260W        W75487  27.960   2.759   1.872
10261W        W75488  16.784  35.835  11.991
10262W        W75489  19.037  35.323   4.572
10263W        W75490  30.420   8.675   0.683
10264W        W75491   3.219  17.843   1.799
10265W        W75492  28.329   5.194  13.414
10266W        W75493  36.588  43.219  12.064
10267W        W75494  28.205  42.930  11.570
10268W        W75495  32.188  13.398  13.396
10269W        W75496   7.207  24.674  13.457
10270W        W75497  28.428  17.718  12.566
10271W        W75498  13.708  10.143   0.512
10272W        W75499  32.436  27.820  12.850
10273W        W75500   0.320  11.407   4.527
10274W        W75501   1.973  31.736  13.509
10275W        W75502   8.261  11.041   1.141
10276W        W75503  18.891  24.544  11.154
10277W        W75504  22.618  18.971   1.307
10278W        W75505  38.956  33.000   3.089
10279W        W75506  42.302  28.492  10.748
10280W        W75507   5.410  16.133  11.935
10281W        W75508  32.532  28.249  12.566
10282W        W75509  25.381  32.461  11.178
10283W        W75510  17.475  44.030  12.119
10284W        W75511  33.638  26.735   1.802
10285W        W75512  37.466   0.716   2.778
10286W        W75513  19.803  31.948   0.682
10287W        W75514   4.743  41.813   1.257
10288W        W75515  16.508  39.564  12.377
10289W        W75516  18.636  33.357  12.788
10290W        W75517  22.098  14.156  10.399
10291W        W75518  12.690  35.211   2.278
10292W        W75519  32.492  16.141  13.142
10293W        W75520  25.216   1.445   1.653
10294W        W75521  38.406   4.172   3.610
10295W        W75522  37.202   3.435  13.518
10296W        W75523  25.124  15.582  10.688
10297W        W75524  20.604  27.137  11.165
10298W        W75525  39.766  16.692  14.575
10299W        W75526  17.791  36.024   1.806
10300W        W75527  37.993  14.086  13.567
10301W        W75528  28.110  13.684   2.097
10302W        W75529  39.791  18.739  13.071
10303W        W75530   8.930  35.489  13.489
10304W        W75531   0.073  27.793   2.469
10305W        W75532  21.441  26.675   2.010
10306W        W75533  25.081  38.329   3.637
10307W        W75534  35.234  18.701   2.871
10308W        W75535  37.537   8.293  14.938
10309W        W75536  38.533   9.269   1.237
10310W        W75537  26.956  18.435   3.600
10311W        W75538   0.268   6.513  12.356
10312W        W75539  39.598  34.465  12.492
10313W        W75540  10.138  29.911  11.133
10314W        W75541  17.703  30.912  11.301
10315W        W75542   1.496   2.823  14.005
10316W        W75543  23.758   6.323   0.370
10317W        W75544  29.846  25.592   3.273
10318W        W75545  26.571   6.050   1.759
10319W        W75546  26.528  42.938  10.025
10320W        W75547   6.878   6.191   0.699
10321W        W75548  30.745  16.280  12.756
10322W        W75549  36.525  22.851  11.258
10323W        W75550   8.267  33.697   0.772
10324W        W75551   6.621  40.105   2.818
10325W        W75552  28.677  14.107   1.013
10326W        W75553  43.213  25.061   2.058
10327W        W75554  25.064  39.489   2.160
10328W        W75555  27.770   4.314  12.081
10329W        W75556   3.873   9.255  12.396
10330W        W75557  31.702  15.878  12.064
10331W        W75558  32.120  40.573  10.742
10332W        W75559   7.930  37.027  13.135
10333W        W75560  39.223   1.499  13.887
10334W        W75561  31.634   8.356  14.258
10335W        W75562  31.777  35.683  13.915
10336W        W75563  11.886  39.001  11.960
10337W        W75564  25.605  43.468   3.332
10338W        W75565  25.167  26.614   0.947
10339W        W75566  33.836  18.463   4.725
10340W        W75567  12.362  29.058  14.414
10341W        W75568  18.414  13.792   4.639
10342W        W75569  39.743  35.140   0.204
10343W        W75570  39.296  16.846   0.335
10344W        W75571  33.905   3.254   4.619
10345W        W75572   2.224   0.020   1.851
10346W        W75573  30.342   4.952  13.481
10347W        W75574  32.930   4.864   2.678
10348W        W75575  41.846  31.057  14.797
10349W        W75576  41.263  35.050  12.492
10350W        W75577   3.784  22.425  13.944
10351W        W75578  13.414  33.625   3.184
10352W        W75579   1.800   4.265  13.456
10353W        W75580  20.566  42.371  11.009
10354W        W75581   0.069  33.052  12.904
10355W        W75582  26.601  29.377   4.694
10356W        W75583  23.632  39.972  14.989
10357W        W75584   0.370  10.736   0.066
10358W        W75585  41.049  25.766  14.587
10359W        W75586  24.684  44.518   4.600
10360W        W75587   2.992  44.024  10.324
10361W        W75588   4.810  21.512  11.377
10362W        W75589  13.384  11.457   2.374
10363W        W75590  43.524  38.100  14.524
10364W        W75591  28.976   4.772  12.438
10365W        W75592   8.218  26.672  12.545
10366W        W75593  13.282  44.523  10.687
10367W        W75594  22.030   9.926   4.287
10368W        W75595  23.402   2.421   4.536
10369W        W75596  42.857  32.864  13.805
10370W        W75597  16.540   1.384  11.558
10371W        W75598  12.873  36.408   4.925
10372W        W75599  14.128   4.321  12.472
10373W        W75600   1.048  13.622   9.867
10374W        W75601   2.879  27.587  11.605
10375W        W75602  43.502  10.684   3.056
10376W        W75603   4.435  21.546  13.416
10377W        W75604  14.818  31.279   0.732
10378W        W75605  11.182  15.697   3.284
10379W        W75606  26.156  36.107  14.171
10380W        W75607  32.905  31.989   4.176
10381W        W75608  44.656  44.557  10.977
10382W        W75609   4.170  29.160  13.324
10383W        W75610   4.719  18.186   4.620
10384W        W75611  18.131  13.430   1.469
10385W        W75612  36.610   5.685   4.936
10386W        W75613  26.589  29.883   0.974
10387W        W75614   5.341  33.457  12.432
10388W        W75615  26.591  15.098  14.570
10389W        W75616   4.364  33.705   0.704
10390W        W75617   1.445  33.173   3.824
10391W        W75618  35.381  40.408  12.543
10392W        W75619  21.744  35.370  12.404
10393W        W75620  15.912  28.457  14.021
10394W        W75621  14.584  24.486  12.471
10395W        W75622   5.880  36.111  13.864
10396W        W75623  17.852   4.813   1.371
10397W        W75624  24.582  20.154   2.211
10398W        W75625   5.117  11.710  11.108
10399W        W75626   5.745  20.687  12.864
10400W        W75627  40.448  18.493   0.358
10401W        W75628  18.407   2.984   4.068
10402W        W75629  28.454  13.916   0.579
10403W        W75630   6.985   9.044   5.044
10404W        W75631  16.754  16.856   1.780
10405W        W75632  17.837  10.836   3.727
10406W        W75633  44.817   5.379  11.479
10407W        W75634  15.897  23.727   1.732
10408W        W75635   9.499  10.565   0.946
10409W        W75636  18.886  22.284   3.097
10410W        W75637  32.538   9.081   1.666
10411W        W75638  32.410   5.907  14.269
10412W        W75639  25.107  33.286   2.878
10413W        W75640  25.765  41.925   4.970
10414W        W75641  34.132  40.651  10.209
10415W        W75642  22.701  10.252  11.057
10416W        W75643  27.611  35.843  12.154
10417W        W75644   3.152  11.589   1.213
10418W        W75645  30.719  32.171  11.129
10419W        W75646  33.536  33.602   2.548
10420W        W75647  34.407  28.920   1.334
10421W        W75648  37.710  39.523  11.204
10422W        W75649  20.209   4.535   0.962
10423W        W75650  32.035  36.495  14.413
10424W        W75651  25.303  30.649  11.169
10425W        W75652  34.172  26.806   2.648
10426W        W75653  11.126   1.718  10.503
10427W        W75654  42.894  35.573   0.628
10428W        W75655  21.861   5.534   2.738
10429W        W75656  14.807  23.129  11.247
10430W        W75657  25.067   3.431   4.356
10431W        W75658   6.872  17.111   1.575
10432W        W75659  30.589  21.933   3.710
10433W        W75660  19.147  24.995   4.146
10434W        W75661  11.166   3.031   3.177
10435W        W75662  18.642  35.255  14.637
10436W        W75663  31.369  10.375   4.196
10437W        W75664  32.555  31.578  12.434
10438W        W75665   0.345   3.424   2.290
10439W        W75666  32.527   5.700   2.884
10440W        W75667  17.848  44.205  12.614
10441W        W75668  25.745  26.177  12.450
10442W        W75669  18.545  38.996  14.562
10443W        W75670  10.739  40.820  11.871
10444W        W75671  40.840  19.866   1.353
10445W        W75672  28.333  14.048   5.379
10446W        W75673  21.046  40.393   2.821
10447W        W75674   3.323  30.432  11.276
10448W        W75675  44.424  10.031   0.416
10449W        W75676  39.307   2.335   4.520
10450W        W75677  35.711  13.762  13.971
10451W        W75678  26.731  20.474   2.433
10452W        W75679  23.451  30.709   2.291
10453W        W75680  18.423  17.667   0.318
10454W        W75681   3.264  19.825   2.831
10455W        W75682  10.894  37.545   1.859
10456W        W75683  40.061  32.395  12.501
10457W        W75684  40.784  25.582   1.017
10458W        W75685  18.557   5.573  12.888
10459W        W75686  26.699  18.577  12.635
10460W        W75687  19.614  42.554   4.553
10461W        W75688  26.815  26.341  10.328
10462W        W75689   9.711  43.247   4.753
10463W        W75690   5.509  11.764  11.418
10464W        W75691  44.547  16.272   4.189
10465W        W75692  22.543  33.945  13.728
10466W        W75693   6.328  37.961   0.736
10467W        W75694   9.838  43.749  12.555
10468W        W75695   0.450   3.789   3.263
10469W        W75696  26.428  40.860   3.656
10470W        W75697  40.724  10.284  13.515
10471W        W75698  38.078  28.610   3.698
10472W        W75699  18.626  26.690   1.784
10473W        W75700  23.946   5.948   2.279
10474W        W75701  14.169  19.600  12.572
10475W        W75702   6.174  44.740   4.933
10476W        W75703  39.001  26.563  12.489
10477W        W75704   4.510  12.938   4.166
10478W        W75705  30.521  41.964   0.887
10479W        W75706  18.881  38.541  12.062
10480W        W75707  21.725  35.085   1.943
10481W        W75708  11.751  35.067  14.390
10482W        W75709  13.753  41.338  10.714
10483W        W75710   8.135  17.802   5.236
10484W        W75711   3.749  20.576   0.733
10485W        W75712  24.076   3.260   4.724
10486W        W75713  27.956  28.219   4.246
10487W        W75714   5.967  42.972  14.730
10488W        W75715  16.850  29.919   1.977
10489W        W75716  27.124   2.403  10.591
10490W        W75717  27.638  15.573   4.553
10491W        W75718   6.623  26.609  10.937
10492W        W75719  31.364   3.371  11.192
10493W        W75720   9.274  44.567  14.404
10494W        W75721  18.601  31.629   4.236
10495W        W75722  29.909   9.419  14.120
10496W        W75723  15.039  13.492  11.139
10497W        W75724  17.898  12.115   4.295
10498W        W75725  19.462  31.994  12.489
10499W        W75726  19.565  34.731   2.330
10500W        W75727  19.900  10.401  14.504
10501W        W75728   3.443  11.976   1.409
10502W        W75729  29.407  12.441  11.650
10503W        W75730  38.036  21.592   0.953
10504W        W75731  28.397  16.233   1.924
10505W        W75732   6.862  19.769  11.144
10506W        W75733  13.628  14.080   2.249
10507W        W75734  44.069  26.246  14.320
10508W        W75735  20.529  10.344  12.986
10509W        W75736  37.459  21.166   4.486
10510W        W75737  38.708  31.513   1.659
10511W        W75738  27.568   3.201  13.389
10512W        W75739  28.168  39.440   1.009
10513W        W75740  33.193   8.440   1.770
10514W        W75741  27.917  24.913   4.535
10515W        W75742  29.100   3.369  11.612
10516W        W75743  12.849  30.488  13.025
10517W        W75744  10.290   0.418   0.443
10518W        W75745  26.910  11.772  12.560
10519W        W75746  18.692   1.761   1.054
10520W        W75747  34.068  22.101  13.157
10521W        W75748  10.298  11.327   2.249
10522W        W75749  44.332  28.299  14.395
10523W        W75750  33.709  37.425   3.656
10524W        W75751  26.860  19.767   1.783
10525W        W75752  44.830  35.071   0.897
10526W        W75753  36.980  11.706   2.360
10527W        W75754  20.069  18.239  11.382
10528W        W75755  25.181   7.335  12.124
10529W        W75756  30.604  25.072  12.942
10530W        W75757  40.210   3.234  12.042
10531W        W75758  13.158   1.564  10.785
10532W        W75759  35.090  36.891   0.127
10533W        W75760  27.136  22.001  12.429
10534W        W75761  23.504   3.793  10.244
10535W        W75762  41.402  36.923   3.078
10536W        W75763   8.270   2.497   2.781
10537W        W75764  34.594  10.286   3.584
10538W        W75765  36.310  31.530   2.319
10539W        W75766  33.532  22.727   4.636
10540W        W75767  26.087   1.691   0.403
10541W        W75768  35.910  20.828   4.136
10542W        W75769   8.403  19.605   1.783
10543W        W75770  12.125  15.002  11.926
10544W        W75771  10.710  28.649  13.969
10545W        W75772  16.589   5.984   4.522
10546W        W75773  20.965  21.286   5.080
10547W        W75774  39.141   0.947  12.141
10548W        W75775  37.938  19.888  11.910
10549W        W75776   6.755  15.226   0.283
10550W        W75777   8.302   1.853   4.157
10551W        W75778   1.011  17.710   0.292
10552W        W75779   5.078  43.244   0.529
10553W        W75780  27.095  25.005   2.189
10554W        W75781  27.165  25.539  14.263
10555W        W75782  26.480  25.038  13.556
10556W        W75783   0.504  32.398  13.401
10557W        W75784  14.591  36.862   3.693
10558W        W75785  36.145  37.324  13.566
10559W        W75786  40.529  43.800  12.871
10560W        W75787  36.402  13.148  10.598
10561W        W75788  36.105  10.840  12.959
10562W        W75789  31.582  21.459  14.474
10563W        W75790  28.449  36.593   2.774
10564W        W75791  28.096  21.280   0.806
10565W        W75792  43.783   9.765   4.031
10566W        W75793  44.036  18.735  11.978
10567W        W75794  18.159   1.904   3.645
10568W        W75795  22.839  34.985   4.530
10569W        W75796   9.663  25.925  13.394
10570W        W75797  11.528  41.374  13.578
10571W        W75798  22.101  33.339  11.253
10572W        W75799  27.197  29.172  13.627
10573W        W75800  42.219  31.482  11.139
10574W        W75801  35.050  32.547   1.647
10575W        W75802   4.327   2.646   4.304
10576W        W75803  33.351  22.977   4.228
10577W        W75804  30.518  38.022  10.359
10578W        W75805   5.637  39.308  12.152
10579W        W75806   6.780  36.469   4.922
10580W        W75807  32.556  13.158  12.595
10581W        W75808  33.681  36.372  10.970
10582W        W75809   4.411  16.545   0.924
10583W        W75810  20.525  41.355  13.948
10584W        W75811  36.098   1.454   4.232
10585W        W75812   2.271  20.753  13.281
10586W        W75813  31.033  22.290  12.243
10587W        W75814  27.320  19.780   1.211
10588W        W75815   9.273  25.961  12.089
10589W        W75816  17.541  33.360   0.956
10590W        W75817   6.284  32.006  11.233
10591W        W75818   0.507   3.199   2.753
10592W        W75819  15.220  39.311  11.689
10593W        W75820   7.871  34.575  10.372
10594W        W75821  25.534   7.397  14.600
10595W        W75822  40.581  32.139  13.387
10596W        W75823  22.183  18.857  10.923
10597W        W75824   3.804   2.360  13.139
10598W        W75825   1.623  28.936   2.875
10599W        W75826  31.565  32.544   0.694
10600W        W75827  40.556  18.425   1.730
10601W        W75828  27.462   1.764   0.320
10602W        W75829  43.360  35.906   2.076
10603W        W75830   1.883  35.843  11.953
10604W        W75831  39.034   9.626   3.780
10605W        W75832  12.377  15.704   4.190
10606W        W75833  27.129   1.770   1.041
10607W        W75834   8.674   6.830   4.165
10608W        W75835  40.351  28.680  10.522
10609W        W75836  12.350  33.699   2.211
10610W        W75837   6.319  19.469  13.417
10611W        W75838   5.874  15.629   1.490
10612W        W75839  24.974  15.902   1.674
10613W        W75840  41.966  44.360   4.099
10614W        W75841  42.098  40.811  11.141
10615W        W75842   8.797  37.075   2.265
10616W        W75843  23.214  18.172  14.065
10617W        W75844  38.281  29.957   4.116
10618W        W75845  37.288  42.963   1.444
10619W        W75846   6.531   9.123   3.358
10620W        W75847  26.981  25.686   0.804
10621W        W75848   3.640  36.056   1.546
10622W        W75849   5.698  43.579   3.347
10623W        W75850  32.178  15.749  12.998
10624W        W75851  17.810   9.840  14.056
10625W        W75852  16.197  16.783  13.139
10626W        W75853  41.245  35.411  14.763
10627W        W75854  11.390  12.406   4.052
10628W        W75855  14.842  15.675   3.253
10629W        W75856  44.421  24.250  12.853
10630W        W75857  37.091   6.352   3.264
10631W        W75858  12.192   1.066   2.235
10632W        W75859  17.266  39.993  11.789
10633W        W75860  26.961   9.711   3.822
10634W        W75861  18.573   0.797   3.353
10635W        W75862  16.934   4.028   1.392
10636W        W75863   5.213  40.302  13.370
10637W        W75864   4.822  34.263  14.749
10638W        W75865  39.568  17.540  14.457
10639W        W75866   7.398  17.531  13.920
10640W        W75867  23.649  18.490  11.868
10641W        W75868   7.376  32.632   0.023
10642W        W75869  13.056  30.536  13.898
10643W        W75870  43.664  12.142   4.551
10644W        W75871  13.195  35.569  11.058
10645W        W75872  40.781  31.988   3.395
10646W        W75873  34.243  30.752   4.605
10647W        W75874  31.909  15.830  13.574
10648W        W75875  28.243  39.721   1.497
10649W        W75876  38.449   1.467  14.262
10650W        W75877   1.696  29.547   0.018
10651W        W75878   2.309   7.074   4.323
10652W        W75879  29.637  18.647  10.731
10653W        W75880  37.841  42.378  10.657
10654W        W75881   1.319  13.660   1.666
10655W        W75882  12.849  31.956  13.475
10656W        W75883  11.968  20.244  11.217
10657W        W75884   8.295  16.808  12.533
10658W        W75885  36.933  37.860  12.819
10659W        W75886  11.636  43.361  11.279
10660W        W75887  41.489  26.009  12.884
10661W        W75888   0.655  31.085   0.861
10662W        W75889  40.253  31.978   4.601
10663W        W75890   8.353  20.400  13.949
10664W        W75891   3.299  39.268   3.223
10665W        W75892  38.039   4.873  10.162
10666W        W75893  23.650   2.939  12.352
10667W        W75894  20.753   6.909  10.996
10668W        W75895  11.245  42.950   3.646
10669W        W75896   3.283  24.098   1.539
10670W        W75897  30.032  35.790  10.528
10671W        W75898   9.609  40.253  13.848
10672W        W75899  33.210  17.322   4.127
10673W        W75900  26.931   0.501   2.602
10674W        W75901  40.377  31.387  10.750
10675W        W75902  13.096  19.173   2.523
10676W        W75903  25.760  32.418   1.016
10677W        W75904  32.457  40.490   4.078
10678W        W75905  39.384  25.181   2.178
10679W        W75906  40.381  16.221  12.799
10680W        W75907  24.474  27.418   4.425
10681W        W75908  20.721  42.892  13.359
10682W        W75909   3.771  23.181  14.567
10683W        W75910  14.094  25.260   1.807
10684W        W75911   7.342  21.245   4.837
10685W        W75912  27.431  11.539  11.383
10686W        W75913   4.223   8.833   0.429
10687W        W75914  28.463  20.040  14.252
10688W        W75915  43.831  31.596   0.288
10689W        W75916  39.805  40.805  12.115
10690W        W75917  41.571  28.586   3.785
10691W        W75918  30.339   1.747   2.708
10692W        W75919  18.787  41.622   2.725
10693W        W75920  26.940   8.766  10.523
10694W        W75921  10.698  40.904  10.877
10695W        W75922   4.047  44.592  12.541
10696W        W75923  22.613  44.877   4.954
10697W        W75924  18.185  10.151  11.188
10698W        W75925  17.286  21.148   1.935
10699W        W75926  30.962  22.794  14.289
10700W        W75927   8.464  32.863   0.574
10701W        W75928  30.482  41.976  10.940
10702W        W75929  13.234   3.164  12.086
10703W        W75930   0.959  10.217   4.661
10704W        W75931  29.832  26.102  13.461
10705W        W75932  38.937   8.111   4.094
10706W        W75933   4.234  24.972  12.952
10707W        W75934  12.863  11.451  13.941
10708W        W75935  30.482  31.919   1.371
10709W        W75936  15.244  37.827   1.375
10710W        W75937  14.119  25.081   4.729
10711W        W75938  38.162  24.125   0.695
10712W        W75939   9.723   3.042  13.477
10713W        W75940   0.504  24.739   0.288
10714W        W75941  34.810  32.064   0.411
10715W        W75942   3.439  34.204   2.304
10716W        W75943  19.287  11.764  14.700
10717W        W75944  43.093  14.010   1.796
10718W        W75945  36.246  29.112   3.605
10719W        W75946  31.588   6.752  14.359
10720W        W75947  44.761  42.520  11.432
10721W        W75948  22.107   8.214   0.376
10722W        W75949  32.465  33.415  11.876
10723W        W75950  34.012  13.743   0.846
10724W        W75951  39.752   3.343  12.764
10725W        W75952   8.180  18.566   0.232
10726W        W75953   2.981  26.103   0.475
10727W        W75954  31.647  11.993  14.443
10728W        W75955  44.813  33.056   3.237
10729W        W75956   0.059  35.028   2.841
10730W        W75957  31.073  35.638   5.433
10731W        W75958   8.409  12.489   3.487
10732W        W75959  19.876   4.624  13.653
10733W        W75960   8.761  21.122  10.072
10734W        W75961  30.111   1.602   1.406
10735W        W75962   3.825  14.281  12.072
10736W        W75963  38.708  31.660   3.274
10737W        W75964  12.308  37.880   4.103
10738W        W75965   1.391  32.396  12.998
10739W        W75966   5.290  17.106  14.541
10740W        W75967  17.627   5.638  12.822
10741W        W75968  13.301  40.948  13.909
10742W        W75969  14.578  32.381   2.734
10743W        W75970   2.463  23.717  14.892
10744W        W75971  41.529  26.745   3.117
10745W        W75972  18.178  32.712  12.686
10746W        W75973  20.110  27.413  11.255
10747W        W75974  19.142   5.027   1.679
10748W        W75975   4.868  18.211   0.728
10749W        W75976   3.786  40.017   0.854
10750W        W75977  36.381  15.155   3.652
10751W        W75978  33.657  16.360   2.713
10752W        W75979  22.625   1.814   4.580
10753W        W75980  40.807   6.797   3.031
10754W        W75981  31.032  42.576   1.414
10755W        W75982  44.953  37.038  11.869
10756W        W75983  18.655  32.214  12.032
10757W        W75984  39.013  34.458  13.372
10758W        W75985  14.656   4.073   3.724
10759W        W75986  25.086  44.824   4.729
10760W        W75987  10.659  37.554   3.768
10761W        W75988  44.555  33.528   1.183
10762W        W75989   6.149   5.905   3.317
10763W        W75990  40.529  22.513  13.380
10764W        W75991  10.506  44.222   0.319
10765W        W75992  17.149  20.463   3.310
10766W        W75993   0.966  24.448  11.075
10767W        W75994  18.036  26.143  11.977
10768W        W75995  24.216  15.615  12.323
10769W        W75996  37.847  10.730  14.429
10770W        W75997  18.963  44.842  11.163
10771W        W75998  13.573  24.588   3.399
10772W        W75999   3.180  14.974   0.846
10773W        W76000  34.099  11.600   2.820
10774W        W76001   7.194  17.679   3.645
10775W        W76002  28.040  17.040   1.417
10776W        W76003  16.204  15.889  11.471
10777W        W76004   7.780  23.292  11.129
10778W        W76005  25.652   1.731  13.508
10779W        W76006   3.363  20.486   3.451
10780W        W76007   6.115  27.109   0.021
10781W        W76008   9.424  17.723   0.835
10782W        W76009  23.128   4.045   0.440
10783W        W76010  36.780  19.667  12.467
10784W        W76011  32.612  30.683   0.798
10785W        W76012  39.393  40.345  14.270
10786W        W76013  30.494  30.383   0.744
10787W        W76014  44.661  11.368  11.080
10788W        W76015  31.971  15.545  11.701
10789W        W76016  11.433  37.401  14.834
10790W        W76017   8.646   6.154  12.931
10791W        W76018   3.484  32.730   0.882
10792W        W76019  38.664   3.254  10.701
10793W        W76020   7.367  21.505  11.179
10794W        W76021  20.580   7.409   1.987
10795W        W76022  20.291  13.782   1.783
10796W        W76023   2.538  34.480   0.492
10797W        W76024  43.336  14.277  11.986
10798W        W76025  43.963   2.253   4.643
10799W        W76026  36.479  32.128  11.429
10800W        W76027  15.167  32.349  14.360
10801W        W76028  13.780  24.672   4.764
10802W        W76029  42.397  20.244   3.336
10803W        W76030   5.436  17.742   3.063
10804W        W76031   6.757   0.303   1.385
10805W        W76032   0.831  34.435   2.750
10806W        W76033   6.727  39.577   3.895
10807W        W76034  24.078  43.930  10.781
10808W        W76035  18.278  37.610   4.447
10809W        W76036  30.876  28.153   3.117
10810W        W76037  24.836  42.946  13.362
10811W        W76038  33.899  17.846   0.760
10812W        W76039   1.345   6.539  13.870
10813W        W76040  18.814  27.930  12.117
10814W        W76041  33.697  12.246  14.787
10815W        W76042  43.605  33.479  12.261
10816W        W76043  11.360  13.211   4.705
10817W        W76044   3.748   7.634  13.904
10818W        W76045  12.642  12.161  14.075
10819W        W76046  13.577  21.339  13.831
10820W        W76047  19.720  36.182   0.897
10821W        W76048  36.175  33.447  11.794
10822W        W76049  26.292   5.526  13.902
10823W        W76050  35.346  43.059   2.296
10824W        W76051  22.228  33.036   2.359
10825W        W76052  13.045  36.345   2.690
10826W        W76053  24.228  19.635  14.376
10827W        W76054  33.950   2.734   4.717
10828W        W76055  20.913  28.063  13.861
10829W        W76056  28.162   9.112   2.416
10830W        W76057   4.809  42.015   3.664
10831W        W76058  25.362  37.889  10.719
10832W        W76059  18.659  15.861   0.164
10833W        W76060   4.518  11.747   0.601
10834W        W76061  14.386  24.734   3.856
10835W        W76062  24.179  35.165  14.054
10836W        W76063  33.796  21.648   4.174
10837W        W76064  31.157  34.964  13.834
10838W        W76065  35.268  27.979  14.421
10839W        W76066   9.812  15.122   2.467
10840W        W76067   6.623  43.294   2.790
10841W        W76068   1.880  31.242  13.536
10842W        W76069  40.492   2.317   4.284
10843W        W76070  18.845  29.403  11.569
10844W        W76071  28.057  23.512  14.215
10845W        W76072   8.329  31.762  11.040
10846W        W76073  25.319  36.287  13.049
10847W        W76074  21.184   2.286  11.599
10848W        W76075  19.050  30.976   4.924
10849W        W76076  10.003  42.309  14.444
10850W        W76077  29.470  32.317   1.734
10851W        W76078  20.789  15.307   1.759
10852W        W76079  26.384  35.246   3.275
10853W        W76080  14.734   4.269   2.461
10854W        W76081  30.121  20.140   3.912
10855W        W76082   2.367   8.362  12.950
10856W        W76083  33.698  24.168  11.876
10857W        W76084  37.486  36.442   1.194
10858W        W76085   2.522   5.784   1.228
10859W        W76086  31.417  19.072   4.614
10860W        W76087  13.082  28.689   0.239
10861W        W76088  24.554  12.325   0.350
10862W        W76089  42.963  37.945   3.116
10863W        W76090  44.715  41.907   0.040
10864W        W76091  23.174  28.685  12.167
10865W        W76092  16.282  38.863  12.428
10866W        W76093   9.748   3.643  12.732
10867W        W76094  19.068  11.252   1.888
10868W        W76095  40.019  21.762  11.571
10869W        W76096   6.392  22.727   4.550
10870W        W76097  37.983   4.987  10.655
10871W        W76098  40.920  29.030   3.112
10872W        W76099  31.119   9.157  14.501
10873W        W76100  14.684  43.333   3.942
10874W        W76101  10.756  13.358  10.780
10875W        W76102  29.233  29.053   0.648
10876W        W76103  12.685  30.973  13.254
10877W        W76104  28.016  25.013   2.421
10878W        W76105  41.952  33.442  12.837
10879W        W76106  17.374  17.440  11.651
10880W        W76107   3.287  31.386  13.336
10881W        W76108  42.311  33.689  11.235
10882W        W76109   5.888   2.743   0.857
10883W        W76110   3.714  39.588  13.330
10884W        W76111  22.501  12.110  12.459
10885W        W76112   9.387  14.528   3.520
10886W        W76113  40.989  33.434   2.136
10887W        W76114  38.042  38.469   0.551
10888W        W76115  20.056  11.254   1.690
10889W        W76116  25.276  24.813   3.822
10890W        W76117   9.666  12.847   2.935
10891W        W76118  20.150  18.625   2.189
10892W        W76119  42.287   4.918   3.816
10893W        W76120  43.867  36.851   2.754
10894W        W76121   9.382  23.038   1.713
10895W        W76122  31.956  23.468  13.599
10896W        W76123  16.629  40.345   4.871
10897W        W76124  37.271  41.934  13.117
10898W        W76125   3.778   3.302   5.065
10899W        W76126  26.494  19.128   0.226
10900W        W76127  16.914   7.088   1.235
10901W        W76128  44.668   3.279  11.983
10902W        W76129  38.756  33.301  14.428
10903W        W76130  20.087  22.212   2.289
10904W        W76131  23.121  42.444   0.401
10905W        W76132  31.476  43.501  11.920
10906W        W76133   8.979   0.920  14.257
10907W        W76134  12.922  34.337  13.209
10908W        W76135  14.328   3.893  10.714
10909W        W76136   6.654  31.915   0.726
10910W        W76137  13.921   6.135  13.402
10911W        W76138  36.387  18.040   1.685
10912W        W76139  15.174  29.541  11.325
10913W        W76140   4.631  39.897   0.516
10914W        W76141  38.848  42.500   0.392
10915W        W76142   2.355  38.439   3.681
10916W        W76143  31.311  24.526  11.302
10917W        W76144  23.349   2.929  14.463
10918W        W76145   7.958  40.446  11.602
10919W        W76146  23.708  22.954   0.981
10920W        W76147  24.646  13.964   0.522
10921W        W76148  33.416  40.433  11.988
10922W        W76149  44.096  27.394   4.822
10923W        W76150  36.606  12.560   0.314
10924W        W76151  39.295  34.474  12.932
10925W        W76152  15.815  27.423  12.110
10926W        W76153  19.712  44.964   2.866
10927W        W76154  19.655   5.584  10.932
10928W        W76155  40.369  15.188  10.908
10929W        W76156  32.388  10.362   1.224
10930W        W76157  27.390  33.440   3.779
10931W        W76158  28.628  28.743  10.762
10932W        W76159  14.942  29.400  10.387
10933W        W76160   8.125  34.198  13.458
10934W        W76161  14.051  40.023  12.409
10935W        W76162  36.895  20.947  13.746
10936W        W76163   4.776  29.921   2.677
10937W        W76164  11.818  10.706  11.193
10938W        W76165  43.740  40.794   2.617
10939W        W76166  16.282  31.549   0.840
10940W        W76167  33.499  32.244  10.149
10941W        W76168  17.633  35.027   1.195
10942W        W76169  25.197  14.494  14.847
10943W        W76170  26.269  14.789   2.407
10944W        W76171  26.706   0.722  14.754
10945W        W76172  25.067   2.497   2.459
10946W        W76173   5.322  44.969   1.945
10947W        W76174  11.348  29.752  13.045
10948W        W76175  33.390  40.986   4.613
10949W        W76176  23.083  17.497  14.876
10950W        W76177  30.553  14.346   1.665
10951W        W76178  24.473  43.662   0.805
10952W        W76179  16.145   3.665   3.526
10953W        W76180  43.852  28.841  13.603
10954W        W76181  19.509   7.271   1.211
10955W        W76182  14.459  20.853   1.479
10956W        W76183  22.586  39.500  14.577
10957W        W76184  16.480  26.395  12.129
10958W        W76185  33.612  33.399   0.145
10959W        W76186  13.778  33.223   3.115
10960W        W76187  12.362  43.827  11.079
10961W        W76188  21.123  18.488   0.221
10962W        W76189  36.746   9.137  14.986
10963W        W76190  21.286  24.545   1.756
10964W        W76191   5.377  31.941   1.134
10965W        W76192  15.626   2.149  14.783
10966W        W76193  22.934   4.820   1.863
10967W        W76194  25.624  19.752   0.881
10968W        W76195  37.555  10.695  11.231
10969W        W76196  43.772  17.043  11.701
10970W        W76197  38.580  25.637  12.096
10971W        W76198  22.383  26.367  12.500
10972W        W76199   4.474  30.888  11.448
10973W        W76200  12.256  25.599   0.526
10974W        W76201  31.364  19.318  13.994
10975W        W76202  33.864  39.452  14.702
10976W        W76203   2.741  42.484   1.824
10977W        W76204  20.344  25.249   2.296
10978W        W76205  21.349  26.638  13.304
10979W        W76206  34.483  28.944  10.332
10980W        W76207  30.544  19.223  11.674
10981W        W76208  35.997  34.140   1.397
10982W        W76209  30.189  16.156   0.977
10983W        W76210  33.239  14.289   5.055
10984W        W76211  39.590   1.849  13.915
10985W        W76212  26.916  30.263   0.816
10986W        W76213  19.192  34.386  12.444
10987W        W76214   3.644  21.039  12.439
10988W        W76215  15.414   2.880  10.732
10989W        W76216  28.658  14.744  12.975
10990W        W76217  28.323  43.351   2.397
10991W        W76218   4.379  23.054   1.229
10992W        W76219   0.449  31.145   1.346
10993W        W76220  22.784  25.451  13.497
10994W        W76221  11.264  42.342   0.295
10995W        W76222  12.168  27.626   2.791
10996W        W76223  19.863  40.271   4.944
10997W        W76224  20.237  18.649  14.379
10998W        W76225  19.006   4.834   2.270
10999W        W76226  36.482  37.625   4.292
11000W        W76227  20.584  31.777   1.271
11001W        W76228   4.028  36.664   4.803
11002W        W76229  27.020  41.937   1.782
11003W        W76230  40.798   9.855  12.884
11004W        W76231  37.325  28.032   3.658
11005W        W76232  30.536  10.972  11.451
11006W        W76233  20.024  41.566   0.729
11007W        W76234  29.899   4.353   3.281
11008W        W76235  27.655   6.600   2.416
11009W        W76236  12.890  16.796   1.928
11010W        W76237  41.401   9.868   0.932
11011W        W76238  39.981  39.515  10.513
11012W        W76239  22.764  42.455   0.038
11013W        W76240  31.092   3.657   0.377
11014W        W76241  36.336   8.180  10.395
11015W        W76242  26.764  31.201   3.803
11016W        W76243  10.907   6.265   4.666
11017W        W76244  29.888  40.290   0.408
11018W        W76245  17.619  43.258   0.960
11019W        W76246  24.730  24.970  10.819
11020W        W76247  19.637  22.223   4.226
11021W        W76248   7.306  18.823  14.661
11022W        W76249   0.432  11.769  10.730
11023W        W76250  36.342  23.908  10.227
11024W        W76251  34.375  16.856   2.568
11025W        W76252  41.461   0.773   4.485
11026W        W76253  16.325  13.669  14.522
11027W        W76254  30.891  28.023   4.082
11028W        W76255  44.383  15.876  12.979
11029W        W76256  40.391  44.287  12.969
11030W        W76257  44.194  30.538  14.417
11031W        W76258  36.354  28.041  11.709
11032W        W76259  37.273  30.380  14.369
11033W        W76260  12.092   2.151   0.262
11034W        W76261  32.458  34.899  14.001
11035W        W76262  17.957  26.256   1.211
11036W        W76263  34.952  41.238   3.844
11037W        W76264  19.619  25.238   2.838
11038W        W76265   0.132  10.806  12.532
11039W        W76266  29.664  10.962   1.221
11040W        W76267   7.284  14.187   4.984
11041W        W76268   5.796  39.023  12.575
11042W        W76269  42.755  18.510   2.629
11043W        W76270  21.205  13.275   0.332
11044W        W76271  14.499   4.926  14.333
11045W        W76272  39.030   9.732   0.012
11046W        W76273   7.744  22.181   3.911
11047W        W76274  24.876   7.850   2.809
11048W        W76275  31.264  44.777  14.365
11049W        W76276  42.328  22.146  14.804
11050W        W76277  14.048  17.734  10.783
11051W        W76278  26.732  21.086  10.775
11052W        W76279   8.399   7.668  14.820
11053W        W76280  34.550  17.476  10.752
11054W        W76281   1.804   9.166  14.834
11055W        W76282  15.708  24.231   2.194
11056W        W76283   3.212  16.298  12.678
11057W        W76284   8.746   5.203  13.830
11058W        W76285  14.312  30.675   2.351
11059W        W76286  27.816  44.010   3.551
11060W        W76287  15.043  16.019  13.370
11061W        W76288  31.111   7.911  10.586
11062W        W76289  16.955  11.925  11.067
11063W        W76290  25.203  43.152  12.416
11064W        W76291  26.092  31.984  13.938
11065W        W76292   6.229  24.204   3.872
11066W        W76293  26.453  34.037   2.809
11067W        W76294  42.848   4.160   4.014
11068W        W76295  38.765  22.711   4.536
11069W        W76296  15.244  22.989  11.507
11070W        W76297  21.079   5.831  10.721
11071W        W76298  13.560  37.438   1.350
11072W        W76299   3.907   8.255   2.355
11073W        W76300  29.522  18.796  14.836
11074W        W76301  34.981  16.289  13.438
11075W        W76302  21.147  33.954   3.713
11076W        W76303  44.987  18.075  14.717
11077W        W76304  15.092  34.028  14.955
11078W        W76305  18.083  18.094   3.766
11079W        W76306  30.116  11.414  11.378
11080W        W76307  28.021  21.151   2.109
11081W        W76308  31.125  21.966  13.255
11082W        W76309  21.632  19.658  10.981
11083W        W76310  44.677  28.513  13.988
11084W        W76311  13.261   7.437  12.339
11085W        W76312  15.864  20.118  12.016
11086W        W76313  10.151  42.579  10.787
11087W        W76314  17.000  34.319   4.256
11088W        W76315  29.598  42.936  14.446
11089W        W76316  26.186  11.403   2.079
11090W        W76317  11.676  14.545  13.975
11091W        W76318  28.087   4.944  13.841
11092W        W76319  21.661  34.344  14.716
11093W        W76320  34.890  11.327   3.446
11094W        W76321  42.276  27.229   2.775
11095W        W76322   0.364   8.122   2.687
11096W        W76323   4.910  12.804  10.747
11097W        W76324  39.553  32.232  14.291
11098W        W76325  12.841  23.165   0.309
11099W        W76326   4.968  24.310  10.562
11100W        W76327  15.722  15.387  12.911
11101W        W76328  18.988  24.633   4.917
11102W        W76329  15.644   8.321  10.798
11103W        W76330  18.528  21.593   4.240
11104W        W76331  18.899  19.256  12.981
11105W        W76332  26.994  24.638   3.316
11106W        W76333  27.923  36.169   0.281
11107W        W76334   2.708  14.056  13.895
11108W        W76335  40.896  14.221  12.914
11109W        W76336  12.275  42.555  10.733
11110W        W76337  31.394  23.781  14.424
11111W        W76338  43.331   2.903  11.601
11112W        W76339  28.556  11.220  12.984
11113W        W76340  25.772  31.024  11.701
11114W        W76341  21.745  30.859   4.205
11115W        W76342   5.148  35.612  13.474
11116W        W76343  16.557   9.758   2.988
11117W        W76344   2.772   3.765   1.021
11118W        W76345   6.878  18.413   2.278
11119W        W76346   3.231  21.814  14.048
11120W        W76347  23.457  20.237   0.252
11121W        W76348   6.316  43.858  10.914
11122W        W76349  44.411  22.578   0.433
11123W        W76350  36.558  35.902   4.702
11124W        W76351  32.635  17.703  13.546
11125W        W76352  43.739  40.226  14.372
11126W        W76353  25.244   6.724  12.947
11127W        W76354   8.506  42.461   4.643
11128W        W76355   3.001  38.837   1.270
11129W        W76356  10.843  19.600   4.006
11130W        W76357  40.650  32.111  11.960
11131W        W76358   5.917   8.117   3.850
11132W        W76359  24.544  34.380  13.953
11133W        W76360  13.095  41.955  14.336
11134W        W76361  16.253  25.982   1.711
11135W        W76362  31.193  28.438   4.056
11136W        W76363  20.727  13.037   2.815
11137W        W76364  32.104  29.509  11.317
11138W        W76365  10.965  25.270   3.090
11139W        W76366  34.781  41.990   0.940
11140W        W76367   7.885   3.957  14.437
11141W        W76368  25.967   4.678   3.688
11142W        W76369   3.581  19.595  10.683
11143W        W76370  10.431  40.204   3.034
11144W        W76371   6.208  17.642  12.789
11145W        W76372  20.001  36.029  11.572
11146W        W76373  39.393  14.620   0.663
11147W        W76374  43.423  13.563   2.353
11148W        W76375   6.202  27.384   1.881
11149W        W76376  36.280  23.013   3.898
11150W        W76377  22.992   1.557   0.738
11151W        W76378   5.479  15.543  11.627
11152W        W76379  11.666   3.295  10.987
11153W        W76380   0.615  23.219  13.689
11154W        W76381  35.810  22.295  12.349
11155W        W76382   2.458  13.563  10.651
11156W        W76383  20.275  19.158  12.979
11157W        W76384  41.712   0.940   3.210
11158W        W76385  17.502  41.409  10.902
11159W        W76386  35.296  24.736  14.479
11160W        W76387  38.092  34.805  10.731
11161W        W76388  30.118  29.458   2.672
11162W        W76389  29.114  23.412  11.842
11163W        W76390  13.657  30.862   1.422
11164W        W76391  16.144  11.113   1.225
11165W        W76392  21.976   5.513  11.593
11166W        W76393  34.441  16.024  11.898
11167W        W76394  40.489  22.101  13.046
11168W        W76395  17.020   7.189  14.494
11169W        W76396  12.702  17.221   2.168
11170W        W76397  11.439  40.467  11.794
11171W        W76398  42.071  42.181   4.868
11172W        W76399  11.650  10.157  10.764
11173W        W76400   1.864  16.799  12.868
11174W        W76401   6.103  11.809   1.554
11175W        W76402  11.323  35.978  13.944
11176W        W76403  27.110  39.251  12.085
11177W        W76404   0.992  30.026   0.467
11178W        W76405   0.813   7.240   0.216
11179W        W76406  24.508  29.624   1.816
11180W        W76407  44.933  28.477  14.479
11181W        W76408  18.859   0.282  12.930
11182W        W76409  21.223  17.492   0.952
11183W        W76410   2.538  30.850  11.110
11184W        W76411  33.259  36.367   2.241
11185W        W76412  23.762  43.660   4.889
11186W        W76413  25.217  30.916   3.268
11187W        W76414  17.519   3.737   2.637
11188W        W76415   2.387  43.704  14.064
11189W        W76416  36.267  36.198  12.541
11190W        W76417  32.999  21.987  14.754
11191W        W76418  31.979  30.746  12.433
11192W        W76419  41.657  31.320   2.695
11193W        W76420   0.878  36.058  10.663
11194W        W76421  29.320  42.692  14.966
11195W        W76422  34.703  14.759   5.502
11196W        W76423   3.962  35.341   2.267
11197W        W76424  10.071   3.989   3.470
11198W        W76425  15.307  44.391   1.808
11199W        W76426  11.725  33.612  14.352
11200W        W76427   1.030  35.827  11.129
11201W        W76428  14.872  40.616   2.266
11202W        W76429  42.289   7.361   3.853
11203W        W76430  26.991   9.451   4.522
11204W        W76431  19.109  16.702   1.771
11205W        W76432   0.046  31.430   2.203
11206W        W76433  30.425  33.461   2.929
11207W        W76434  13.648  39.126   0.855
11208W        W76435  38.256   5.893  13.527
11209W        W76436  10.808  18.454  10.182
11210W        W76437  38.101  41.846   4.800
11211W        W76438  41.481  17.642   0.758
11212W        W76439   9.674  38.642   0.886
11213W        W76440   8.906  36.581   2.355
11214W        W76441   0.244  31.412   0.479
11215W        W76442  36.299  35.546  13.213
11216W        W76443   8.845  40.344  14.424
11217W        W76444  20.168  34.390  14.749
11218W        W76445  32.968   7.008   4.449
11219W        W76446   7.353  28.688   3.240
11220W        W76447  31.528  30.117   4.609
11221W        W76448  26.095  43.518   4.247
11222W        W76449  34.537  36.784   4.423
11223W        W76450  21.148  33.944   0.761
11224W        W76451  27.129  17.894   1.207
11225W        W76452  43.349  38.674   3.130
11226W        W76453   2.923  19.369  13.455
11227W        W76454  44.836  31.202   3.602
11228W        W76455  11.113  26.224  14.871
11229W        W76456  14.716  41.303   0.282
11230W        W76457  23.195   8.192   1.415
11231W        W76458  20.506   3.846  10.264
11232W        W76459  19.200  40.502  14.967
11233W        W76460   5.978  34.771  10.648
11234W        W76461  23.763  27.998   0.284
11235W        W76462  23.977  37.822  13.288
11236W        W76463   1.849  21.691   0.057
11237W        W76464  24.729  28.607   0.903
11238W        W76465   5.074  16.076  12.549
11239W        W76466  30.496   4.239  11.770
11240W        W76467   6.635   7.577  10.435
11241W        W76468  16.754   3.758  12.038
11242W        W76469  26.395  13.160  13.559
11243W        W76470  37.337  13.368  11.090
11244W        W76471  30.597  13.938   2.010
11245W        W76472  10.787   8.704  12.959
11246W        W76473  43.907  35.599   4.563
11247W        W76474  35.240  29.970   3.841
11248W        W76475   0.044  12.322  13.592
11249W        W76476  22.452  44.052  11.700
11250W        W76477  14.879  33.411   3.150
11251W        W76478   7.915  20.101   2.768
11252W        W76479  17.596  43.513  10.839
11253W        W76480  18.841  31.145  12.568
11254W        W76481   4.909  21.557  13.756
11255W        W76482  23.176  42.947   2.989
11256W        W76483  33.839  17.746  13.086
11257W        W76484  26.806  22.687   1.941
11258W        W76485  41.998  26.732   2.310
11259W        W76486  40.620  20.062   0.877
11260W        W76487  27.941  38.534  14.025
11261W        W76488  38.129  21.172   2.284
11262W        W76489  41.023   9.770   3.669
11263W        W76490  27.907  20.183  14.883
11264W        W76491  15.065  39.351   2.224
11265W        W76492  20.649  28.024  13.439
11266W        W76493   1.781   7.274  11.681
11267W        W76494  25.340  24.241   2.706
11268W        W76495  10.045  19.591   9.814
11269W        W76496  22.945  18.222  11.505
11270W        W76497  22.692   9.382  12.468
11271W        W76498  24.938   5.160   4.116
11272W        W76499  31.458  38.591  10.346
11273W        W76500  20.501   6.665  14.287
11274W        W76501   7.567  27.992  14.556
11275W        W76502  42.528  20.470   5.041
11276W        W76503  14.352  39.806   2.890
11277W        W76504   5.275  42.546  10.633
11278W        W76505  26.538  20.534   4.083
11279W        W76506  37.864  12.831  11.920
11280W        W76507  12.221  33.650   4.120
11281W        W76508  16.629  37.931   0.993
11282W        W76509   5.798  43.217  13.668
11283W        W76510  24.054  25.761   2.890
11284W        W76511  19.966  24.493  13.086
11285W        W76512  42.595  39.804  11.276
11286W        W76513   2.935  44.361  10.747
11287W        W76514   9.706  20.833   4.781
11288W        W76515  27.088  38.498   1.127
11289W        W76516   6.667  40.074   3.711
11290W        W76517  31.921   1.393   0.962
11291W        W76518   3.882  19.105   1.831
11292W        W76519  15.129  16.022   0.329
11293W        W76520  44.544  34.569  10.827
11294W        W76521  12.081  12.721   1.969
11295W        W76522  31.883  44.374  12.863
11296W        W76523   0.508  13.638  14.862
11297W        W76524  35.354   5.996  11.211
11298W        W76525  13.686  11.107   2.175
11299W        W76526   5.623  20.613  13.360
11300W        W76527  23.977  15.592  11.040
11301W        W76528  10.125  38.142  11.769
11302W        W76529  17.757  30.504   4.249
11303W        W76530  21.920  19.857   3.544
11304W        W76531  33.434  12.687   1.205
11305W        W76532   7.783  30.893   1.028
11306W        W76533  15.271   7.646  14.947
11307W        W76534  19.150  40.988   0.887
11308W        W76535  12.543  33.398   1.826
11309W        W76536   8.769  10.290  14.782
11310W        W76537   5.133  19.606   4.955
11311W        W76538  34.141  10.750  13.919
11312W        W76539  31.102  37.936  12.493
11313W        W76540  35.371   6.276  13.001
11314W        W76541  12.876  26.607   4.075
11315W        W76542  36.114  18.041  10.428
11316W        W76543   9.765  41.854  10.646
11317W        W76544   5.907  11.487  10.790
11318W        W76545  27.519  14.287   0.412
11319W        W76546  43.920  18.226  13.591
11320W        W76547   8.358  42.536  11.837
11321W        W76548  43.018  13.254   4.170
11322W        W76549  20.081   4.435  10.758
11323W        W76550  11.268  28.325   2.245
11324W        W76551  28.884   3.720   3.625
11325W        W76552  31.245  26.524   2.745
11326W        W76553  43.574  39.371  11.190
11327W        W76554  20.510   6.150   0.331
11328W        W76555  43.311  35.776   0.197
11329W        W76556  43.472   4.257   3.493
11330W        W76557  34.905  23.615  11.427
11331W        W76558   1.005  12.924   1.964
11332W        W76559  14.294  11.213   2.863
11333W        W76560   8.238  29.934  14.330
11334W        W76561  25.198  28.492  11.977
11335W        W76562   0.715  20.526  13.433
11336W        W76563   3.722  44.873  14.303
11337W        W76564   1.722   5.866  10.757
11338W        W76565  21.414  26.962   0.567
11339W        W76566  42.895   0.995  12.743
11340W        W76567  41.480  13.594  14.606
11341W        W76568  13.701   9.756   4.225
11342W        W76569  36.417  44.677   3.679
11343W        W76570  23.591   6.437  14.912
11344W        W76571  25.096  44.172  11.338
11345W        W76572  10.291   2.522   4.935
11346W        W76573   7.016  19.360   2.026
11347W        W76574  25.420  38.112   1.295
11348W        W76575  12.667  28.879  14.845
11349W        W76576  14.398   6.366  13.874
11350W        W76577   7.331  30.423  11.244
11351W        W76578   9.222  28.189   1.379
11352W        W76579  28.732  29.453   0.960
11353W        W76580   8.576  43.750  11.545
11354W        W76581  11.857  22.600  12.440
11355W        W76582  17.794   0.495  11.720
11356W        W76583  39.167  24.871   2.579
11357W        W76584  14.550  14.093  11.598
11358W        W76585   7.719  23.276   3.677
11359W        W76586   1.278  28.253   0.400
11360W        W76587  14.418   9.774  13.584
11361W        W76588  19.283   1.278   3.866
11362W        W76589   9.150   9.345  13.943
11363W        W76590  10.019  29.126   3.912
11364W        W76591   5.160   1.347  14.532
11365W        W76592  32.910  43.012   0.801
11366W        W76593  18.456  21.280  11.193
11367W        W76594  20.711  11.842   4.254
11368W        W76595  41.493  18.722   1.958
11369W        W76596  17.757  23.711   3.220
11370W        W76597   1.793  17.607  11.198
11371W        W76598  23.908  21.932  11.218
11372W        W76599  27.637  34.366   4.149
11373W        W76600  33.331  16.702   3.767
11374W        W76601  34.410  44.396   4.718
11375W        W76602   0.832  33.886  10.370
11376W        W76603  10.831  44.918  12.911
11377W        W76604  38.830  20.089  11.068
11378W        W76605  11.572  19.376  13.543
11379W        W76606  42.505  14.061   4.521
11380W        W76607   7.082  12.172  10.358
11381W        W76608  10.486   4.659   5.077
11382W        W76609  31.615   3.378   4.946
11383W        W76610  26.625  38.659  14.314
11384W        W76611  23.426  39.477   0.052
11385W        W76612   4.527  44.596   4.975
11386W        W76613  44.882  16.187   4.665
11387W        W76614  27.922   8.950   3.705
11388W        W76615  38.270  38.045  10.425
11389W        W76616  16.627  39.272   4.879
11390W        W76617  26.715  28.581   2.150
11391W        W76618  37.129  43.954  11.223
11392W        W76619  38.471   5.419   1.007
11393W        W76620  19.712   6.891   1.759
11394W        W76621  19.829  12.740   3.638
11395W        W76622  30.972  30.604   2.403
11396W        W76623  33.413  19.044   3.855
11397W        W76624   6.491  30.416  14.832
11398W        W76625  34.160   8.363   3.349
11399W        W76626  41.598  13.151   3.736
11400W        W76627  14.628  31.514   0.312
11401W        W76628  20.300  35.343  14.537
11402W        W76629  27.235   3.584  14.332
11403W        W76630  14.347  33.060   0.795
11404W        W76631  18.935  39.032  11.236
11405W        W76632  21.584  42.548   3.654
11406W        W76633  30.067  22.774   0.191
11407W        W76634  39.492  17.153   3.270
11408W        W76635  15.542  34.053   0.229
11409W        W76636   3.600  35.326  10.856
11410W        W76637  40.405  11.332   2.235
11411W        W76638  37.514  40.722   3.250
11412W        W76639  13.587  40.592  13.504
11413W        W76640  33.734  23.625  10.373
11414W        W76641   4.771   0.774  13.142
11415W        W76642  37.657  17.801  11.579
11416W        W76643  17.904   1.971   4.107
11417W        W76644   3.954  28.729  11.114
11418W        W76645  25.478  44.733   0.312
11419W        W76646  10.327   5.937   0.005
11420W        W76647  35.463  25.952   4.456
11421W        W76648  35.184   8.172   2.119
11422W        W76649  28.242   8.069  13.970
11423W        W76650  39.893   0.882   3.367
11424W        W76651  16.302  36.934   2.441
11425W        W76652  31.722   4.505  12.111
11426W        W76653  26.396  27.128  14.921
11427W        W76654   1.936  17.177   2.837
11428W        W76655   3.333  25.743  11.032
11429W        W76656  30.730  42.244  13.074
11430W        W76657   1.847  38.145  11.536
11431W        W76658  36.031   4.692   0.380
11432W        W76659  19.201  42.374   4.794
11433W        W76660   8.245   0.606  12.035
11434W        W76661  39.871  43.722  12.324
11435W        W76662   9.832  29.626  14.890
11436W        W76663  30.679   4.641  12.702
11437W        W76664  28.416  34.041  12.138
11438W        W76665  30.023  11.395  12.425
11439W        W76666   9.779  36.612  14.436
11440W        W76667   1.343   2.701   1.970
11441W        W76668   4.246  23.421   2.474
11442W        W76669   6.611  19.767  13.753
11443W        W76670  35.604  14.587   1.762
11444W        W76671  42.371  34.092   1.501
11445W        W76672  27.544  11.420  14.833
11446W        W76673  29.545  20.402   1.338
11447W        W76674   4.817  26.297   2.203
11448W        W76675  31.838  24.587   0.527
11449W        W76676  24.226   6.477   3.186
11450W        W76677  32.816  34.718  12.366
11451W        W76678  30.556  28.859   3.758
11452W        W76679  17.462   2.221  12.375
11453W        W76680  27.575  19.953   0.791
11454W        W76681  21.934   3.888   1.178
11455W        W76682  27.212  30.594   4.437
11456W        W76683  41.687  27.738   4.098
11457W        W76684  43.382  28.666   0.961
11458W        W76685  30.447   3.620  14.907
11459W        W76686  38.472  40.413  10.680
11460W        W76687   9.893  35.743  10.693
11461W        W76688   6.063  15.252   3.550
11462W        W76689  19.739  36.070   0.382
11463W        W76690  10.265  42.255   4.187
11464W        W76691  14.610   9.462   3.183
11465W        W76692  18.844  25.160   0.845
11466W        W76693  25.150  11.108  14.391
11467W        W76694  22.015  31.870   3.153
11468W        W76695  24.204  18.598   3.165
11469W        W76696  11.755  32.184  11.685
11470W        W76697  35.333  24.406   3.185
11471W        W76698  43.417  20.328   1.444
11472W        W76699  29.374  25.595   1.370
11473W        W76700  44.709  37.928  11.567
11474W        W76701  10.127  26.189  14.284
11475W        W76702  36.853   3.927   0.828
11476W        W76703  14.629  17.675   4.266
11477W        W76704  27.291   9.418   4.108
11478W        W76705   8.436  19.081  13.020
11479W        W76706  28.433  38.440  14.246
11480W        W76707  35.687  20.781  11.200
11481W        W76708  36.373  14.559   1.410
11482W        W76709   5.373  11.401  13.830
11483W        W76710   9.318  40.576  13.486
11484W        W76711   5.806  24.414  11.623
11485W        W76712   1.835  31.679   2.242
11486W        W76713  40.189  43.173   3.335
11487W        W76714   4.206  16.697   2.775
11488W        W76715   5.421  39.915  13.691
11489W        W76716  11.925  39.260   4.374
11490W        W76717  31.497  34.300  13.371
11491W        W76718  27.308  42.112  11.236
11492W        W76719  13.083  21.063  10.862
11493W        W76720   8.183  14.076  12.647
11494W        W76721  33.872  19.692  12.023
11495W        W76722  11.896   4.690  11.261
11496W        W76723  14.335  19.029  13.842
11497W        W76724  13.658  25.910  13.399
11498W        W76725  20.237  16.902   1.427
11499W        W76726  25.544  22.456   0.333
11500W        W76727  27.448  21.622  14.805
11501W        W76728  41.922  16.708   2.295
11502W        W76729  15.143  24.678  13.546
11503W        W76730  29.001  38.316  12.236
11504W        W76731  41.303   3.856  13.458
11505W        W76732  44.292  16.953  11.117
11506W        W76733  31.626  25.809   1.745
11507W        W76734  29.649   0.272  14.321
11508W        W76735   6.493  31.345  14.079
11509W        W76736  11.244  31.413  10.676
11510W        W76737  28.481  43.039  11.101
11511W        W76738   8.509   7.397  11.157
11512W        W76739  40.368  37.554   5.035
11513W        W76740  12.070  11.194   2.336
11514W        W76741  15.297   2.617  13.468
11515W        W76742  30.723   5.174  11.530
11516W        W76743   4.780  32.332   0.350
11517W        W76744   4.294  41.131   2.353
11518W        W76745  30.547  12.286  10.141
11519W        W76746  30.421  21.230  11.571
11520W        W76747   1.593  22.352   0.863
11521W        W76748  36.399   5.915  14.812
11522W        W76749  22.198  30.906  13.885
11523W        W76750   9.757  25.951  12.487
11524W        W76751  12.657  42.524  13.027
11525W        W76752  15.859  19.401   1.323
11526W        W76753  25.675  37.283   1.855
11527W        W76754  19.193  40.550  12.949
11528W        W76755  41.971   5.629   5.387
11529W        W76756   9.936  37.672  11.887
11530W        W76757  15.726  34.390  14.303
11531W        W76758  24.721  20.899  11.995
11532W        W76759  28.784  13.710   5.154
11533W        W76760  15.105  20.358   1.032
11534W        W76761  42.340  10.438  12.432
11535W        W76762  35.289   9.758   3.708
11536W        W76763   3.801  22.846  12.176
11537W        W76764  33.952  22.113   4.312
11538W        W76765   7.937  34.351  11.519
11539W        W76766  38.165  16.057  10.602
11540W        W76767   0.308  21.075  14.370
11541W        W76768   8.174  26.636   0.993
11542W        W76769  22.937  38.212  12.484
11543W        W76770  16.320  17.547   1.387
11544W        W76771  12.409  36.932   4.608
11545W        W76772  42.640  26.525   1.806
11546W        W76773  18.671  22.005  14.764
11547W        W76774   8.074   1.401   4.032
11548W        W76775  40.241  29.641  10.710
11549W        W76776   8.376  28.231   1.784
11550W        W76777  42.188   6.358   3.159
11551W        W76778   2.937  23.276   2.930
11552W        W76779  30.572  21.424   4.675
11553W        W76780   8.678   5.263   1.845
11554W        W76781   2.686   0.458  14.787
11555W        W76782   0.161  31.642  12.813
11556W        W76783  34.635  25.678  13.537
11557W        W76784  32.193  40.909   3.226
11558W        W76785  11.738   6.427   4.863
11559W        W76786   0.973   6.874  14.466
11560W        W76787  26.504  19.591  13.971
11561W        W76788  32.542  26.143   3.173
11562W        W76789   3.243   1.324  13.912
11563W        W76790   9.392  41.482   1.850
11564W        W76791  34.060   0.937   1.031
11565W        W76792  11.356  34.511  11.524
11566W        W76793  10.720  20.443   1.483
11567W        W76794   5.425  19.352   1.004
11568W        W76795  25.408  39.673  14.927
11569W        W76796  31.018  19.499  10.051
11570W        W76797   8.043  21.135  11.617
11571W        W76798  34.647  41.855   0.393
11572W        W76799  43.227  22.158  13.866
11573W        W76800   7.895  40.031   1.160
11574W        W76801   3.066  14.381  11.648
11575W        W76802  36.828  21.618  12.081
11576W        W76803  26.125  20.504  13.475
11577W        W76804  28.006  20.700  14.815
11578W        W76805  39.349   2.999   1.169
11579W        W76806  26.754  29.387   1.023
11580W        W76807  27.912  37.617  14.433
11581W        W76808  33.611  23.689  12.827
11582W        W76809  12.017   7.345   1.260
11583W        W76810   8.176  17.856  14.996
11584W        W76811  17.952  20.653   4.035
11585W        W76812  42.327   1.966  14.779
11586W        W76813  38.265  30.477  10.733
11587W        W76814  21.166   4.316  13.808
11588W        W76815  22.589  28.876  13.942
11589W        W76816  29.541  19.988  13.470
11590W        W76817  14.186   9.219  14.634
11591W        W76818  35.277  18.684   3.756
11592W        W76819  35.041  42.798  11.809
11593W        W76820  31.890  38.038  13.021
11594W        W76821  14.561  30.064   0.414
11595W        W76822  27.010  33.672  14.439
11596W        W76823  17.640  19.792  11.887
11597W        W76824  33.970  28.235  12.486
11598W        W76825  27.659  44.928   3.746
11599W        W76826  16.880  40.008   4.245
11600W        W76827  23.947  11.324  14.807
11601W        W76828  34.357  42.954   0.820
11602W        W76829  22.534  37.899  12.781
11603W        W76830  40.027  38.899  10.617
11604W        W76831  16.347  21.587   1.635
11605W        W76832  34.945  18.832  14.498
11606W        W76833  22.088  34.638  10.504
11607W        W76834  20.764  39.210   1.884
11608W        W76835  40.307   6.558   2.963
11609W        W76836  26.935  24.142   1.564
11610W        W76837  20.648  37.968   1.287
11611W        W76838   3.408  15.228   0.454
11612W        W76839  14.532  40.633   1.771
11613W        W76840  33.979   9.438  11.977
11614W        W76841  36.446  10.546  10.767
11615W        W76842   4.760  40.320  13.710
11616W        W76843   9.406  35.205  11.273
11617W        W76844  32.000   6.712  11.573
11618W        W76845  12.406  28.482   3.741
11619W        W76846  33.428  22.933   2.376
11620W        W76847   0.290   0.343   1.179
11621W        W76848  11.065  17.416   4.469
11622W        W76849  14.207  33.384  11.990
11623W        W76850   7.679  43.321   1.168
11624W        W76851  17.034  19.230   3.034
11625W        W76852  21.250  14.555   0.292
11626W        W76853  40.066  33.579  14.698
11627W        W76854   6.213  11.982   3.105
11628W        W76855  40.323  34.704  12.252
11629W        W76856   8.563  27.832  11.540
11630W        W76857  16.762  23.599  11.656
11631W        W76858  13.241  32.561   3.149
11632W        W76859  19.846  30.495   3.834
11633W        W76860  22.681   1.508   2.497
11634W        W76861  34.098  16.740   0.761
11635W        W76862  13.951  24.477   0.865
11636W        W76863  28.531  16.675   4.604
11637W        W76864  42.333   6.214   0.316
11638W        W76865  11.233   6.710  11.966
11639W        W76866  41.518  44.765  12.431
11640W        W76867  41.281   2.763  13.475
11641W        W76868  24.804  43.753   4.036
11642W        W76869   9.692  27.216   0.226
11643W        W76870   8.903  43.997  13.805
11644W        W76871  11.200  37.221   4.098
11645W        W76872  16.157  41.926   3.628
11646W        W76873   9.754  33.080  10.170
11647W        W76874   4.808   9.429  12.128
11648W        W76875  39.764   2.838  14.440
11649W        W76876  30.437   0.956   2.218
11650W        W76877  42.320   4.257  12.504
11651W        W76878  35.167  25.817  12.672
11652W        W76879  40.360  29.419   1.157
11653W        W76880  36.684  16.439  13.105
11654W        W76881  36.323  21.072   4.316
11655W        W76882  27.633   2.392  14.935
11656W        W76883  42.950  44.918  14.754
11657W        W76884  12.372  36.073  12.422
11658W        W76885   5.438  27.834  13.744
11659W        W76886   4.013  24.746  13.506
11660W        W76887   6.252  11.792   3.728
11661W        W76888  16.579  19.114  11.636
11662W        W76889  18.129  40.582  13.357
11663W        W76890  36.596  11.847  14.841
11664W        W76891  18.290  43.869   3.722
11665W        W76892   5.835   0.297  14.916
11666W        W76893  37.957  24.150   3.673
11667W        W76894  12.354  33.843  10.300
11668W        W76895  28.013  41.591   4.815
11669W        W76896  21.677   3.432   1.249
11670W        W76897  13.116  19.959  14.913
11671W        W76898  23.943  11.127  12.128
11672W        W76899  24.648  24.543   3.760
11673W        W76900   4.956   3.610  11.983
11674W        W76901   7.534   7.695  11.088
11675W        W76902  34.871  26.126  10.722
11676W        W76903  26.871  36.891   4.654
11677W        W76904  23.338  43.106  14.009
11678W        W76905  16.161  27.785  11.539
11679W        W76906  33.502   8.983   3.161
11680W        W76907  34.129  14.699  11.690
11681W        W76908  29.889  31.319  14.167
11682W        W76909  24.431   5.216   2.894
11683W        W76910  33.027  27.469   2.861
11684W        W76911  20.082   0.832   1.099
11685W        W76912  26.499  39.032  11.614
11686W        W76913  27.148  38.297   1.621
11687W        W76914  12.683  16.717  14.799
11688W        W76915  18.077  34.886   3.196
11689W        W76916  29.466  18.002  12.564
11690W        W76917  36.269  17.148   4.984
11691W        W76918  29.370  37.120   2.739
11692W        W76919  11.439  30.421   4.158
11693W        W76920  34.656  21.537   3.187
11694W        W76921  12.587  29.356  14.036
11695W        W76922  30.802   0.044  11.471
11696W        W76923   5.464   5.800   1.861
11697W        W76924  10.475  19.195  12.143
11698W        W76925  10.282  39.689  10.140
11699W        W76926  17.461  31.993   3.990
11700W        W76927  30.401  24.061  11.060
11701W        W76928  21.212   0.581  11.964
11702W        W76929  25.601   3.947   1.495
11703W        W76930   1.437  15.053  13.987
11704W        W76931  37.927   9.810  14.420
11705W        W76932  35.905  24.886  11.883
11706W        W76933   0.061   9.608   4.499
11707W        W76934  15.865  18.921   4.701
11708W        W76935  17.302  10.329   4.185
11709W        W76936  36.252  29.376  13.881
11710W        W76937  17.313   6.864  14.206
11711W        W76938  39.209  17.607  12.893
11712W        W76939  41.311  15.311  12.867
11713W        W76940   2.392  38.403  13.401
11714W        W76941  14.818  20.174   2.972
11715W        W76942   2.878  23.675   2.598
11716W        W76943  40.779   1.717   3.351
11717W        W76944  30.417  25.969  12.115
11718W        W76945  19.058  34.343   4.300
11719W        W76946  30.867   2.965  14.069
11720W        W76947  12.542  21.673  12.426
11721W        W76948  29.175  34.302  14.426
11722W        W76949  18.668  27.199   1.796
11723W        W76950  29.612   4.497   0.714
11724W        W76951  36.573  43.018  14.868
11725W        W76952  14.195  26.459  13.846
11726W        W76953  14.701   1.686   4.658
11727W        W76954  19.881  10.685   0.376
11728W        W76955  28.634  30.866  12.466
11729W        W76956  19.453  26.794   0.357
11730W        W76957  33.371  27.520   1.354
11731W        W76958  38.281  17.714  14.040
11732W        W76959  29.573  14.115  14.023
11733W        W76960  16.976  38.438   2.851
11734W        W76961  33.276  41.777   3.509
11735W        W76962  34.457  35.413  13.459
11736W        W76963  42.061  34.352  12.535
11737W        W76964  44.014  24.102  13.579
11738W        W76965  17.659  21.805  10.938
11739W        W76966   8.317  16.131  13.962
11740W        W76967  12.968  22.404   0.039
11741W        W76968  20.989   2.219  11.105
11742W        W76969  37.451  18.801  10.789
11743W        W76970  44.292  23.468  10.883
11744W        W76971   6.666  26.150   2.639
11745W        W76972  14.264  26.111  12.955
11746W        W76973  43.242  43.360  12.760
11747W        W76974  33.767  18.292  14.861
11748W        W76975  13.434  21.348  13.262
11749W        W76976  31.541   2.332  11.081
11750W        W76977  43.543   5.412  10.711
11751W        W76978  26.576  30.621  12.314
11752W        W76979  39.407  31.995  11.486
11753W        W76980   6.039  10.627  11.463
11754W        W76981  28.955  12.162   3.353
11755W        W76982  28.939  21.649   0.911
11756W        W76983  42.486   1.394  10.696
11757W        W76984  33.769   0.146   3.191
11758W        W76985  17.261  12.419   2.917
11759W        W76986  36.702  42.237   4.501
11760W        W76987  13.990   8.327   3.686
11761W        W76988  31.949  42.326   0.206
11762W        W76989   9.326  21.947  14.588
11763W        W76990   6.379  32.090   2.580
11764W        W76991  36.280   1.321  11.144
11765W        W76992  42.664  18.533   3.153
11766W        W76993  44.845   3.837   4.878
11767W        W76994  16.538  35.102  13.487
11768W        W76995  37.283  37.526  10.047
11769W        W76996  33.615  36.926  13.514
11770W        W76997  21.791   2.073  12.537
11771W        W76998  21.580   7.855   2.647
11772W        W76999   9.812  14.816  12.960
11773W        W77000   7.435  15.247   1.974
11774W        W77001   1.709  23.304  12.670
11775W        W77002  19.532  13.888   1.458
11776W        W77003  42.847  38.547   1.376
11777W        W77004  21.141   3.092  12.145
11778W        W77005  44.932  11.787   4.534
11779W        W77006  42.835  10.310   0.233
11780W        W77007   2.281  30.136  12.815
11781W        W77008  10.273  30.133   3.775
11782W        W77009  29.814  31.376   1.774
11783W        W77010   6.049   9.758  11.796
11784W        W77011  18.019  13.024  14.803
11785W        W77012   5.477  22.519   1.676
11786W        W77013  11.568   9.396  12.998
11787W        W77014   7.145  19.475   0.466
11788W        W77015  18.072  13.858   2.724
11789W        W77016  41.469  18.597   0.489
11790W        W77017   2.250  13.086  14.820
11791W        W77018   5.782  28.408  14.991
11792W        W77019  42.390  13.843  14.565
11793W        W77020  18.896   4.741  12.917
11794W        W77021  24.680   6.997  13.615
11795W        W77022  12.115  42.651  14.367
11796W        W77023  41.863  17.247   2.377
11797W        W77024  26.176  19.477  14.412
11798W        W77025  23.655   3.317   3.953
11799W        W77026  32.373   3.859  11.995
11800W        W77027   2.647  43.960  13.682
11801W        W77028  32.715  28.351  10.642
11802W        W77029   8.157  16.546   0.320
11803W        W77030  23.503  31.512  12.001
11804W        W77031  40.209  34.661  12.809
11805W        W77032  19.866  41.893  14.924
11806W        W77033   3.240   3.215   2.000
11807W        W77034  20.546  29.252   3.652
11808W        W77035  19.283  17.232  14.850
11809W        W77036  32.963  36.018  10.647
11810W        W77037  14.649  43.238   4.976
11811W        W77038  18.687   7.738  14.127
11812W        W77039  39.683  43.950   4.279
11813W        W77040  18.046  44.002  11.665
11814W        W77041  40.012  10.716  11.209
11815W        W77042  11.820  20.926   3.853
11816W        W77043  28.604   4.927  12.114
11817W        W77044  15.595  33.963   2.418
11818W        W77045   3.692  32.633   0.342
11819W        W77046  14.869   0.436   3.468
11820W        W77047   3.038   0.613   4.037
11821W        W77048   3.420   5.600   2.185
11822W        W77049  28.393  22.835   1.743
11823W        W77050  29.054  31.364  14.828
11824W        W77051  36.517  40.958   0.240
11825W        W77052   1.121  20.501  12.089
11826W        W77053   1.171  25.425   0.385
11827W        W77054  30.685  30.881   4.031
11828W        W77055  41.258  35.414   4.608
11829W        W77056  39.916  42.040  10.756
11830W        W77057  18.336  44.785   4.809
11831W        W77058  15.284  10.085   2.562
11832W        W77059  33.041  36.618  14.306
11833W        W77060  16.671  35.954   0.789
11834W        W77061   1.679  27.305  14.896
11835W        W77062  41.552  42.078  12.895
11836W        W77063   2.819  18.033   3.691
11837W        W77064   2.183  19.824  10.792
11838W        W77065  26.758  40.016  11.513
11839W        W77066  33.062   1.580  13.548
11840W        W77067  15.513  39.147   2.383
11841W        W77068  15.574  18.318   0.463
11842W        W77069  24.041  40.142  13.427
11843W        W77070  14.589  24.869  11.158
11844W        W77071  29.369   3.708   4.442
11845W        W77072  34.284  41.538  11.782
11846W        W77073  29.140  27.350  13.892
11847W        W77074  20.627  38.129  10.743
11848W        W77075  33.959  22.781  11.993
11849W        W77076  16.797  26.630   3.229
11850W        W77077  17.187   3.451  11.202
11851W        W77078  19.741  18.554   2.906
11852W        W77079  16.088  42.535   1.919
11853W        W77080  14.595   1.353   3.729
11854W        W77081  43.548  41.065  14.411
11855W        W77082  36.316  21.530  13.525
11856W        W77083  44.887   4.005   3.956
11857W        W77084   1.221   9.808   0.008
11858W        W77085  43.663  41.572  11.230
11859W        W77086  29.150  22.709   3.605
11860W        W77087   9.913  24.545   3.186
11861W        W77088  33.585  18.552  13.328
11862W        W77089  41.584  41.450   0.797
11863W        W77090   8.618  29.618  14.159
11864W        W77091  40.875  41.787   4.368
11865W        W77092  15.673  37.331   3.156
11866W        W77093   6.266   0.477   4.833
11867W        W77094   0.869  37.283   2.421
11868W        W77095   2.230   8.875  12.183
11869W        W77096  38.658   7.889  12.629
11870W        W77097   4.922   1.753   2.080
11871W        W77098  20.158  38.999   2.269
11872W        W77099  11.655  27.828   1.640
11873W        W77100  15.498  43.977   3.283
11874W        W77101  10.651  30.429  13.331
11875W        W77102  26.166  12.784  12.841
11876W        W77103   2.307  31.165  14.748
11877W        W77104  22.282  30.352  12.037
11878W        W77105   9.579  41.625  12.105
11879W        W77106  38.462  18.256  11.577
11880W        W77107  30.663   7.719  11.417
11881W        W77108  10.685  44.251   3.196
11882W        W77109  35.316  19.640   1.450
11883W        W77110   8.149  32.417  13.472
11884W        W77111  32.363  35.455  10.832
11885W        W77112   3.571  44.309  12.592
11886W        W77113   8.296   8.939   0.388
11887W        W77114   3.193   7.161  11.694
11888W        W77115  21.136  41.159   1.757
11889W        W77116  22.602  28.244   1.254
11890W        W77117  30.478  27.933   0.429
11891W        W77118  28.644  26.238   2.332
11892W        W77119  23.274   9.648   1.256
11893W        W77120  39.525  35.382  13.120
11894W        W77121  29.442  15.652  10.900
11895W        W77122  16.057  21.019  14.832
11896W        W77123  23.072   4.645   2.826
11897W        W77124  23.471   3.955   2.660
11898W        W77125  41.639  31.039   1.387
11899W        W77126  21.063   7.869   2.802
11900W        W77127  27.690   1.485   4.855
11901W        W77128  27.204  10.329  10.646
11902W        W77129   6.125  13.656  14.661
11903W        W77130  29.948  41.418  12.988
11904W        W77131  31.392   4.994   3.607
11905W        W77132  13.086  22.592  14.149
11906W        W77133  20.574  22.874   3.910
11907W        W77134  31.979  22.071  12.897
11908W        W77135  33.107  26.925   0.559
11909W        W77136  31.212  13.515   2.545
11910W        W77137  22.908  10.723  10.474
11911W        W77138  38.544  32.424  14.416
11912W        W77139  13.518  31.561   4.595
11913W        W77140  15.100  21.919   4.308
11914W        W77141  23.198  36.964   0.913
11915W        W77142  36.574  27.975  14.285
11916W        W77143  43.743  44.463   4.069
11917W        W77144  31.862   5.867  11.974
11918W        W77145   4.138  23.981   3.649
11919W        W77146   0.950  10.076  14.469
11920W        W77147   0.247  37.722  14.873
11921W        W77148  15.708  30.613  10.517
11922W        W77149  29.795  28.126  12.381
11923W        W77150  42.418  17.201   3.189
11924W        W77151  24.542  38.117  12.146
11925W        W77152  25.107   9.611  12.376
11926W        W77153  43.439  23.995  14.375
11927W        W77154  24.151  24.355  10.884
11928W        W77155  18.990  28.143   4.564
11929W        W77156  29.403  41.410   2.095
11930W        W77157  36.775  33.000   1.407
11931W        W77158  44.936  14.999  11.150
11932W        W77159   3.898  34.137  12.280
11933W        W77160  38.509  31.194  14.815
11934W        W77161   3.744  36.835   2.442
11935W        W77162  25.353  42.872  11.625
11936W        W77163  39.603  20.578  13.081
11937W        W77164  43.013  39.031   4.608
11938W        W77165  28.841  37.780   1.138
11939W        W77166  15.054  43.652  11.977
11940W        W77167  14.058  13.304  12.516
11941W        W77168  40.386  24.186   1.448
11942W        W77169   2.968  32.999   1.748
11943W        W77170  33.502  18.495  11.403
11944W        W77171   1.628  31.686  14.586
11945W        W77172  19.128  26.320   0.945
11946W        W77173  40.510  25.967   2.699
11947W        W77174  38.577  38.466  10.459
11948W        W77175  27.850   3.793  11.495
11949W        W77176  34.365  15.186   4.092
11950W        W77177   7.232  21.484   1.347
11951W        W77178  44.431  17.196   2.016
11952W        W77179  20.532   9.423   3.941
11953W        W77180  33.854   9.931   3.685
11954W        W77181  22.826   7.251   4.544
11955W        W77182  13.102  28.240   2.501
11956W        W77183  18.304  43.878   4.640
11957W        W77184   3.144  39.140  12.636
11958W        W77185  21.741  42.757  14.360
11959W        W77186  42.545  13.207   0.289
11960W        W77187  39.568  13.309   1.011
11961W        W77188  11.127  36.082  13.473
11962W        W77189   2.413  15.248  11.980
11963W        W77190  19.087  13.965   3.071
11964W        W77191   8.484  27.099   1.818
11965W        W77192  21.319  23.304   0.462
11966W        W77193   6.854  33.256   4.209
11967W        W77194  14.134  34.868  11.164
11968W        W77195   4.929  14.289  12.968
11969W        W77196   0.519   4.462   2.398
11970W        W77197  25.001  16.736  12.960
11971W        W77198  28.201  25.442  11.988
11972W        W77199  25.344  16.073   0.421
11973W        W77200  31.831  31.597  14.802
11974W        W77201   7.171  10.142   4.722
11975W        W77202  13.121   0.820   3.699
11976W        W77203  29.440   7.826   0.863
11977W        W77204  35.943  36.115   4.896
11978W        W77205  43.366  10.620  10.961
11979W        W77206  27.657   4.004   3.414
11980W        W77207  11.628   8.878  10.764
11981W        W77208   8.475  38.807  13.921
11982W        W77209  28.193  11.361  10.708
11983W        W77210  38.952  31.215  10.733
11984W        W77211  34.479  33.652  12.967
11985W        W77212  21.029  17.079   2.379
11986W        W77213  42.501   4.389   3.584
11987W        W77214  32.205  44.829  10.821
11988W        W77215  32.675  32.136   2.384
11989W        W77216  26.043   9.715   3.641
11990W        W77217   1.651   8.770   3.832
11991W        W77218   5.215  11.504  12.515
11992W        W77219  43.392  21.249   0.007
11993W        W77220   9.303   3.743   0.406
11994W        W77221   2.384  44.860   0.613
11995W        W77222   7.103  15.226  14.689
11996W        W77223  13.804  14.085  10.595
11997W        W77224  24.184  18.962  12.429
11998W        W77225  11.796  25.404   0.743
11999W        W77226  17.446  18.067   0.230
12000W        W77227  12.640  27.890  12.062
12001W        W77228  24.136   9.310   4.842
12002W        W77229  19.624  44.100   2.346
12003W        W77230  24.178  30.989   1.830
12004W        W77231  42.955  12.669   0.954
12005W        W77232  18.022   7.275   1.492
12006W        W77233   9.460  38.267   1.235
12007W        W77234  10.767  16.814  12.031
12008W        W77235  36.450  36.401   4.680
12009W        W77236  32.528   6.511  12.285
12010W        W77237  20.562  33.319  10.548
12011W        W77238  43.893  11.277   1.776
12012W        W77239  32.617   4.647   1.704
12013W        W77240  18.548  11.578  11.994
12014W        W77241  40.801  15.142   1.476
12015W        W77242  37.856  36.910   2.833
12016W        W77243   1.420   9.487  14.655
12017W        W77244  27.067   0.009   4.508
12018W        W77245  24.974  23.769  12.542
12019W        W77246   4.157  18.595  14.922
12020W        W77247   7.639  27.689  10.571
12021W        W77248  34.140   7.936  13.533
12022W        W77249  20.306  41.330  11.200
12023W        W77250  37.641  15.665   4.896
12024W        W77251  23.467  17.942   3.216
12025W        W77252  29.869  33.028   0.199
12026W        W77253   1.435  12.400   1.192
12027W        W77254   6.300  41.900   2.348
12028W        W77255  31.635  44.314   1.224
12029W        W77256  30.487   7.686  10.931
12030W        W77257  27.017   5.457   3.673
12031W        W77258  41.266  12.842  11.031
12032W        W77259  28.428  37.883  10.444
12033W        W77260  44.811  40.067   4.940
12034W        W77261  19.936  25.550   5.244
12035W        W77262  32.626   1.595  12.590
12036W        W77263  39.509  16.386   1.971
12037W        W77264   4.428  21.229   4.114
12038W        W77265  23.061  17.812  13.149
12039W        W77266  13.474  11.886   0.566
12040W        W77267  17.349  29.253   5.036
12041W        W77268  15.553  10.668   0.639
12042W        W77269  36.394  33.045  11.555
12043W        W77270  41.258  35.432  13.573
12044W        W77271  43.756   4.965  14.936
12045W        W77272  25.258  27.180  10.736
12046W        W77273  24.476  16.012  12.572
12047W        W77274  19.846  11.651   3.230
12048W        W77275   5.950  32.292   4.363
12049W        W77276  11.399   4.726  11.123
12050W        W77277  29.577  34.083  14.650
12051W        W77278  27.490  27.396   0.795
12052W        W77279  39.726  13.460   2.651
12053W        W77280   2.512  44.872  12.004
12054W        W77281  14.208   0.148   1.885
12055W        W77282  43.459  40.347   2.493
12056W        W77283  20.677  27.094   1.783
12057W        W77284   8.813  43.842   4.703
12058W        W77285  12.138  26.427   0.479
12059W        W77286  29.703  13.135   3.088
12060W        W77287  20.497   3.073  14.317
12061W        W77288   9.290  29.992  11.647
12062W        W77289  28.131  22.294   0.702
12063W        W77290  24.038  31.663  11.093
12064W        W77291  21.796  18.930  10.592
12065W        W77292  36.124  23.139   2.498
12066W        W77293  37.695  16.080   1.760
12067W        W77294  15.690  42.349  10.773
12068W        W77295  35.897  40.072   0.285
12069W        W77296   1.207   5.887  13.573
12070W        W77297  18.652  32.588   0.859
12071W        W77298  35.424  11.775  13.119
12072W        W77299   9.237  25.744   3.655
12073W        W77300   7.928   1.387  14.075
12074W        W77301  40.615  21.981  12.143
12075W        W77302  12.374   1.188   1.359
12076W        W77303   3.580  42.657   0.284
12077W        W77304  16.268  34.514   3.576
12078W        W77305  10.207  11.754  12.464
12079W        W77306  29.385   0.492   1.704
12080W        W77307   2.485  25.119   1.816
12081W        W77308   6.096   4.848  12.476
12082W        W77309   1.533  37.005  11.475
12083W        W77310  27.002  17.968   9.644
12084W        W77311  12.894  43.387   4.519
12085W        W77312  44.210  38.330   1.485
12086W        W77313  34.284  23.670   1.265
12087W        W77314  16.505  18.195   2.464
12088W        W77315   2.800  35.444  14.500
12089W        W77316  35.692  24.254   4.111
12090W        W77317  32.290  23.503  13.173
12091W        W77318   7.439  21.784  13.622
12092W        W77319  41.376   2.730  10.973
12093W        W77320  19.067  20.324  11.487
12094W        W77321  10.354  43.606   3.653
12095W        W77322  25.217  31.027   4.289
12096W        W77323  20.802  23.505   2.197
12097W        W77324  22.204   3.537  13.473
12098W        W77325  13.675  32.246  13.760
12099W        W77326  16.073  39.303  12.605
12100W        W77327  21.655  31.673   1.517
12101W        W77328  22.212  37.364   2.391
12102W        W77329  41.889  20.121  13.912
12103W        W77330  17.571  35.035   2.737
12104W        W77331  42.980  36.852   4.229
12105W        W77332  20.743   5.872  14.840
12106W        W77333  13.069  38.614  11.168
12107W        W77334  33.910  37.216  14.392
12108W        W77335  25.239   3.442  13.616
12109W        W77336   7.705   9.649   1.378
12110W        W77337  11.892  37.457   0.759
12111W        W77338   9.913  39.799  12.588
12112W        W77339  17.816  33.380   1.420
12113W        W77340  27.731   4.805   2.765
12114W        W77341   9.253  38.658  11.603
12115W        W77342  16.327  28.780   0.540
12116W        W77343   5.798  13.325   3.175
12117W        W77344  36.624   7.081   4.000
12118W        W77345   1.919   1.700  14.801
12119W        W77346  26.657  29.543   2.234
12120W        W77347  15.051  14.144  10.350
12121W        W77348   7.019  40.985   4.587
12122W        W77349  32.331  42.927   2.931
12123W        W77350  32.015  27.892   0.830
12124W        W77351  26.523   3.894   1.169
12125W        W77352  44.371  12.675   0.806
12126W        W77353  16.850  19.990   0.304
12127W        W77354   9.334   4.776   1.345
12128W        W77355  18.785  22.548   2.661
12129W        W77356  20.304  24.048  12.018
12130W        W77357   5.398   0.534   4.475
12131W        W77358  23.700   6.180   1.615
12132W        W77359  34.104  14.915   2.681
12133W        W77360  11.917  16.006   1.128
12134W        W77361  19.984  33.910  14.889
12135W        W77362  25.519  23.551   2.296
12136W        W77363   0.804  42.450  12.850
12137W        W77364  31.023   8.165  11.440
12138W        W77365  32.101   3.711   3.698
12139W        W77366  24.587   4.661   2.302
12140W        W77367  10.221  27.108   0.916
12141W        W77368  10.659  27.252  12.382
12142W        W77369  25.703  18.566  13.081
12143W        W77370   6.542  22.330   0.533
12144W        W77371  25.849   2.875  12.951
12145W        W77372  16.298  17.283  13.056
12146W        W77373  31.428  43.800  11.529
12147W        W77374  17.327  28.887   3.211
12148W        W77375  33.408  28.482  12.350
12149W        W77376  16.538  18.767   3.505
12150W        W77377  43.059   8.956  11.651
12151W        W77378   1.224  13.164   1.571
12152W        W77379   4.053  41.917   3.277
12153W        W77380   6.224  20.604  12.624
12154W        W77381   0.857   8.231   1.340
12155W        W77382  24.056  13.473   4.501
12156W        W77383  20.252  35.214  12.074
12157W        W77384  30.510  17.089   3.100
12158W        W77385  24.531  23.132  10.961
12159W        W77386  27.891   3.579   3.209
12160W        W77387  19.884   4.300   1.830
12161W        W77388  24.074  12.422   2.196
12162W        W77389  10.101   5.772   1.373
12163W        W77390  11.679   3.736  14.084
12164W        W77391   5.646   5.808   3.161
12165W        W77392  21.325   0.694   0.856
12166W        W77393  25.571  20.732   3.204
12167W        W77394  17.540  19.654  11.415
12168W        W77395  19.312  18.188  12.406
12169W        W77396  14.803  21.237  10.666
12170W        W77397  36.531  28.171   3.337
12171W        W77398  37.289  32.613   5.134
12172W        W77399   2.919  29.729  10.684
12173W        W77400  25.687  35.962   2.915
12174W        W77401   3.715  11.107   0.411
12175W        W77402  16.700  32.537   4.303
12176W        W77403   7.973  16.663   3.149
12177W        W77404  39.580  29.690  14.846
12178W        W77405   6.141  39.948  12.518
12179W        W77406   4.393  34.424   2.455
12180W        W77407   5.276  23.920  13.360
12181W        W77408  44.567   2.993   3.846
12182W        W77409   5.859  10.136  14.989
12183W        W77410  31.184  16.131  12.983
12184W        W77411  15.816  20.788  13.562
12185W        W77412  37.330   4.214  14.448
12186W        W77413   6.063   1.813  11.846
12187W        W77414   8.729  32.244  13.614
12188W        W77415  13.079  23.793  14.071
12189W        W77416  12.156  25.776   2.357
12190W        W77417  39.414  40.464   4.484
12191W        W77418  12.279   5.226   4.615
12192W        W77419   8.681   4.799  12.446
12193W        W77420  15.789   0.449   1.156
12194W        W77421  18.774  15.180   2.823
12195W        W77422  17.317  21.897  12.160
12196W        W77423   6.810  36.569  13.842
12197W        W77424  28.361  26.637  13.017
12198W        W77425  40.156  38.534   5.014
12199W        W77426  32.599   9.859   2.869
12200W        W77427  35.257  35.200  12.491
12201W        W77428  14.987   2.714  13.040
12202W        W77429  23.730   4.904   4.725
12203W        W77430  21.696  23.138  12.182
12204W        W77431  26.549  26.958  13.305
12205W        W77432   1.239  14.699   3.232
12206W        W77433  18.324   8.221   3.231
12207W        W77434  25.955   8.915  12.388
12208W        W77435  34.060   6.716  13.886
12209W        W77436   7.231  27.043  12.114
12210W        W77437  18.248  43.959  13.762
12211W        W77438   3.443   6.151   2.168
12212W        W77439  22.964  13.378   4.094
12213W        W77440  22.619  19.005  11.174
12214W        W77441   7.733  31.628  12.852
12215W        W77442   5.442   6.150   4.581
12216W        W77443  23.672  22.701  11.153
12217W        W77444  11.412   8.917   2.271
12218W        W77445  20.392  41.213  12.140
12219W        W77446  30.456  18.839  14.001
12220W        W77447  22.571  20.783   5.019
12221W        W77448  41.805  38.352   1.859
12222W        W77449  16.656  30.854   3.601
12223W        W77450  43.609   5.685   2.999
12224W        W77451  41.945  11.149  12.193
12225W        W77452   9.811  10.699  12.491
12226W        W77453   2.912  26.051   0.990
12227W        W77454  19.858  31.535   1.932
12228W        W77455   5.761  28.743  11.151
12229W        W77456  40.042  34.115   2.772
12230W        W77457  10.281   8.228   2.638
12231W        W77458  42.960  41.042   1.880
12232W        W77459  20.620  42.991   3.059
12233W        W77460  40.789  40.914  10.755
12234W        W77461  33.912  14.050  13.895
12235W        W77462  25.147   9.391   2.371
12236W        W77463  35.172  37.349   5.013
12237W        W77464   0.419  41.544  11.154
12238W        W77465  23.217  21.529   1.826
12239W        W77466  38.370   4.426   0.403
12240W        W77467  29.404  36.712  10.677
12241W        W77468  12.610  13.873   1.793
12242W        W77469  40.469  36.477  12.943
12243W        W77470  29.201  12.995   3.184
12244W        W77471  19.517  30.490  11.759
12245W        W77472  14.813  26.254  10.761
12246W        W77473  19.516  43.440   4.948
12247W        W77474  17.223  34.082  10.854
12248W        W77475  15.482  37.612   1.788
12249W        W77476   1.235  13.636  13.992
12250W        W77477  34.097  40.278   2.637
12251W        W77478  13.134  34.962  14.348
12252W        W77479  21.009   3.234  10.822
12253W        W77480  44.020   7.771   0.430
12254W        W77481  43.920  42.357  13.294
12255W        W77482  38.137  13.316  14.863
12256W        W77483  15.006   0.743  12.855
12257W        W77484  23.698  17.692   0.700
12258W        W77485  27.064  12.858  13.060
12259W        W77486  18.698  19.478   2.787
12260W        W77487  32.173  26.689  13.534
12261W        W77488   8.184  22.904  11.174
12262W        W77489   5.707  30.500  11.911
12263W        W77490  12.285  32.222   0.299
12264W        W77491   0.259  19.044   1.693
12265W        W77492  44.453   4.785  12.756
12266W        W77493  13.305  44.183  11.986
12267W        W77494  44.981  30.712   3.626
12268W        W77495   8.007  32.701  10.182
12269W        W77496  28.209  31.732  10.696
12270W        W77497  38.798  32.509   2.360
12271W        W77498  31.862  32.606  12.967
12272W        W77499   4.756  42.740   2.245
12273W        W77500  19.343  21.320   3.811
12274W        W77501   6.895  17.545  12.500
12275W        W77502   5.924  21.497  11.548
12276W        W77503  28.274  12.056   1.778
12277W        W77504  35.942  32.359   3.133
12278W        W77505  34.567  21.682  10.582
12279W        W77506  29.066  22.232   1.857
12280W        W77507  44.169  27.887  12.159
12281W        W77508  44.456   5.981   0.824
12282W        W77509  24.569  39.008   3.247
12283W        W77510  27.433   4.500   4.866
12284W        W77511  33.920  26.509   0.742
12285W        W77512  23.553  29.556   0.312
12286W        W77513  40.358   4.695   3.255
12287W        W77514  23.380  30.469   1.843
12288W        W77515  34.228  26.649  10.658
12289W        W77516  27.397  44.626  12.551
12290W        W77517   7.351  19.823   0.811
12291W        W77518  28.411  11.532   4.946
12292W        W77519  17.219  36.346  10.442
12293W        W77520  28.310   6.132  14.862
12294W        W77521  22.789  34.755   0.061
12295W        W77522  23.550  40.009   3.519
12296W        W77523   8.799  38.110   0.461
12297W        W77524  31.967  13.784  12.041
12298W        W77525   6.189  40.142  10.836
12299W        W77526  14.661  10.347   3.296
12300W        W77527  25.943   7.934   0.859
12301W        W77528  42.286   4.911  12.025
12302W        W77529   1.148   0.261  11.876
12303W        W77530  17.739  18.070  10.685
12304W        W77531  30.739  17.803   1.784
12305W        W77532  33.610  26.952  10.294
12306W        W77533  37.944  42.470   0.597
12307W        W77534   5.082  31.656   4.892
12308W        W77535  17.795  32.605  10.697
12309W        W77536  38.505  15.336   0.353
12310W        W77537  33.900   6.927   2.648
12311W        W77538   2.820  37.202   1.340
12312W        W77539  25.015  12.948   1.882
12313W        W77540  11.582  36.925  13.426
12314W        W77541   3.901  29.363   1.925
12315W        W77542  42.058  21.782  11.618
12316W        W77543   7.246  22.091  12.974
12317W        W77544  44.450  44.783   0.382
12318W        W77545  39.444  33.953   1.758
12319W        W77546  40.498   1.847   0.374
12320W        W77547   6.881  25.098  13.432
12321W        W77548  22.564   6.170  13.772
12322W        W77549  41.972  23.898  13.554
12323W        W77550  40.753   9.629  12.033
12324W        W77551  18.137   3.486   4.898
12325W        W77552  37.632  17.781   2.256
12326W        W77553  33.327  19.023  13.259
12327W        W77554  16.572  37.842  10.561
12328W        W77555  43.535   6.342  13.601
12329W        W77556  10.052   0.259  12.325
12330W        W77557  12.277  17.033   4.171
12331W        W77558  20.736   9.865   3.726
12332W        W77559   6.155   3.427  13.373
12333W        W77560  37.610  43.889   1.737
12334W        W77561  12.131  41.886  11.274
12335W        W77562   9.930  13.823   3.681
12336W        W77563  38.841   2.426   2.365
12337W        W77564  31.501   8.399   2.803
12338W        W77565  43.792   9.305   2.982
12339W        W77566  21.964  17.806   3.288
12340W        W77567  37.816  26.677  10.320
12341W        W77568  33.897  24.567   4.321
12342W        W77569  37.345  10.010  11.998
12343W        W77570  26.697   8.078  13.400
12344W        W77571   8.822  25.015  10.743
12345W        W77572  32.040   2.360  10.745
12346W        W77573  13.397  34.032   2.155
12347W        W77574   3.150   5.513   0.426
12348W        W77575  27.664  16.545   4.159
12349W        W77576  20.100   3.856   1.580
12350W        W77577  22.915  43.095   4.819
12351W        W77578   7.725  42.557   0.618
12352W        W77579  24.313   0.374  11.742
12353W        W77580  27.901   5.822   3.894
12354W        W77581  34.914  33.994  14.750
12355W        W77582  17.565  35.570  12.705
12356W        W77583  25.753  40.469  12.564
12357W        W77584  12.756   9.597  11.154
12358W        W77585  44.579  36.295   2.710
12359W        W77586  40.956   6.578  11.724
12360W        W77587  40.415  39.632   1.524
12361W        W77588  37.257  24.317   2.235
12362W        W77589  19.100   4.416  11.037
12363W        W77590  16.546  33.593  12.856
12364W        W77591  12.561  31.298  12.092
12365W        W77592  11.396  30.462   2.221
12366W        W77593  23.079  23.218   4.819
12367W        W77594  31.554   0.278   3.377
12368W        W77595  23.041  23.658   1.608
12369W        W77596  21.271  17.118  12.855
12370W        W77597  28.558  41.990  11.577
12371W        W77598  36.547  37.142  14.752
12372W        W77599  10.222  11.177  10.739
12373W        W77600  13.119  42.748  13.742
12374W        W77601  44.571  26.440   4.584
12375W        W77602  26.269  42.492  10.675
12376W        W77603  17.861  12.646   1.411
12377W        W77604  22.216  24.624  11.455
12378W        W77605  41.433  26.548  14.984
12379W        W77606   2.828  37.386   3.092
12380W        W77607  32.123  35.732  12.572
12381W        W77608  11.883  25.647  14.746
12382W        W77609  39.403  36.340   0.828
12383W        W77610  43.872  31.375   1.630
12384W        W77611  19.757  37.986   3.260
12385W        W77612  42.215  27.922   3.723
12386W        W77613  13.709   6.446   4.157
12387W        W77614  28.771  39.250  10.968
12388W        W77615  13.527  44.613   4.605
12389W        W77616  37.585   3.712  13.316
12390W        W77617  11.207  30.638  10.214
12391W        W77618  20.850  10.992  13.467
12392W        W77619  28.867  16.051   5.481
12393W        W77620  33.549  39.436   0.836
12394W        W77621  18.771  42.882   3.636
12395W        W77622  38.527   7.484  10.789
12396W        W77623  38.795  13.812  12.092
12397W        W77624  24.506  39.367  14.934
12398W        W77625  12.993  16.024  10.778
12399W        W77626  10.161  11.738  13.365
12400W        W77627  43.567   2.969   3.117
12401W        W77628   1.944  21.670   2.852
12402W        W77629  44.962  30.431   3.183
12403W        W77630  25.041  10.142   1.277
12404W        W77631  22.705  30.500   4.014
12405W        W77632  15.067  25.276  14.786
12406W        W77633  44.212  37.772   4.087
12407W        W77634  43.004   6.201   4.244
12408W        W77635  17.700   6.005   3.128
12409W        W77636  13.350  44.920   0.760
12410W        W77637  16.259  43.629   3.570
12411W        W77638  42.241  12.768  12.388
12412W        W77639  42.462   8.243   2.954
12413W        W77640  13.519  29.626   1.144
12414W        W77641   4.689   5.289   1.827
12415W        W77642   5.330  29.870  11.735
12416W        W77643  38.413  12.127  13.831
12417W        W77644   8.366  39.040  14.414
12418W        W77645  16.139  20.594  13.168
12419W        W77646  34.362  18.711  11.421
12420W        W77647  38.342   0.949  13.361
12421W        W77648  16.175  24.114   0.481
12422W        W77649  29.521  18.837  13.000
12423W        W77650  23.436   0.409   3.081
12424W        W77651  39.881  14.798   4.264
12425W        W77652  12.828  13.580  11.354
12426W        W77653  23.467  17.091   0.916
12427W        W77654  18.213  44.729   3.440
12428W        W77655  39.848  41.868  13.367
12429W        W77656   1.464  20.287  10.961
12430W        W77657   9.497   8.472   1.576
12431W        W77658  40.900  30.146  13.302
12432W        W77659  20.777  14.797  13.837
12433W        W77660  27.035  28.630   4.670
12434W        W77661  31.085  11.245  11.179
12435W        W77662  44.283   1.802   2.790
12436W        W77663  31.206  36.722  12.570
12437W        W77664  40.367   4.675  13.279
12438W        W77665  35.781  32.628  13.855
12439W        W77666   8.833   3.466   0.423
12440W        W77667  34.000  30.640  13.569
12441W        W77668  36.067  33.884  11.499
12442W        W77669  10.845  15.605  13.820
12443W        W77670  33.758   7.464   4.164
12444W        W77671   1.846   4.786  10.783
12445W        W77672  25.994   1.550  14.033
12446W        W77673  32.021  23.744  10.278
12447W        W77674  25.383  30.641   1.108
12448W        W77675  11.266  41.601  10.992
12449W        W77676  28.150   6.772   1.547
12450W        W77677  40.582   3.385   3.213
12451W        W77678  42.095   1.782  14.036
12452W        W77679   2.211  11.868  13.293
12453W        W77680  44.139   6.902   2.684
12454W        W77681  27.822  11.140  12.038
12455W        W77682  38.930  41.829   2.297
12456W        W77683  29.035  15.672   0.263
12457W        W77684  13.068   8.844  12.053
12458W        W77685  38.892   5.162   0.821
12459W        W77686  16.448   2.947  10.423
12460W        W77687   1.491  26.591   3.311
12461W        W77688   9.760  36.349  13.621
12462W        W77689   8.240  21.857  12.976
12463W        W77690  43.956  38.356   0.946
12464W        W77691  15.718   2.197   2.773
12465W        W77692  39.845  32.974   3.779
12466W        W77693  21.140  30.366  13.082
12467W        W77694   2.991  17.818  10.715
12468W        W77695  36.086  40.914  14.477
12469W        W77696   8.499   8.606  12.305
12470W        W77697   2.184  19.108   4.109
12471W        W77698  11.792   3.137  14.961
12472W        W77699  10.343  23.698  14.362
12473W        W77700   1.715  34.670   2.253
12474W        W77701  22.006  22.418   4.667
12475W        W77702  35.071  38.126   1.099
12476W        W77703   1.020   1.038  13.505
12477W        W77704  29.990   6.692  14.347
12478W        W77705  17.096   5.083   4.116
12479W        W77706   9.987  28.200  13.746
12480W        W77707  26.490   0.244  14.832
12481W        W77708   6.046  31.927  10.711
12482W        W77709   7.520   1.092  12.391
12483W        W77710  12.244   6.372   1.315
12484W        W77711  35.189  39.262   0.355
12485W        W77712   7.348  25.142   0.647
12486W        W77713  12.942  27.715   3.277
12487W        W77714  19.650   1.729   4.326
12488W        W77715  14.361  31.190   2.387
12489W        W77716  38.824  23.581  10.150
12490W        W77717  27.511  17.265   2.066
12491W        W77718  24.799  20.494   2.552
12492W        W77719  39.901  39.445  12.815
12493W        W77720  31.107  43.210   2.895
12494W        W77721   7.941   0.416   0.364
12495W        W77722  21.768  16.736   0.004
12496W        W77723  10.343  14.896  10.665
12497W        W77724  18.093   6.692  10.670
12498W        W77725  33.929   6.737   4.095
12499W        W77726  34.641   4.892   2.194
12500W        W77727  36.149  27.125   4.209
12501W        W77728   8.615  19.572  12.845
12502W        W77729   1.185   4.950   3.041
12503W        W77730  33.236  25.708   4.472
12504W        W77731   7.207  14.296   3.096
12505W        W77732  21.176  34.558   1.981
12506W        W77733   5.037  29.053  11.579
12507W        W77734   3.909  14.094  14.276
12508W        W77735  17.290  34.483   0.432
12509W        W77736  35.793  23.125   1.171
12510W        W77737   3.777  13.627   0.470
12511W        W77738  23.107  40.737   3.110
12512W        W77739  24.990   4.407  13.296
12513W        W77740   2.350  18.218  11.807
12514W        W77741   9.403  17.271  14.923
12515W        W77742  41.893   7.567   4.528
12516W        W77743  23.039  31.526  13.936
12517W        W77744   8.825   3.740   2.664
12518W        W77745   3.816   3.832   2.414
12519W        W77746  27.614  41.352  13.563
12520W        W77747  44.182  26.189  13.812
12521W        W77748  22.680  40.875   3.384
12522W        W77749   7.192  26.494  13.410
12523W        W77750   2.705  32.251   1.088
12524W        W77751   5.794   5.558  11.077
12525W        W77752  13.835  26.680   0.346
12526W        W77753  17.060  17.152   1.343
12527W        W77754  26.805  42.888   4.640
12528W        W77755  28.471  18.231   1.680
12529W        W77756  38.417  39.109  11.534
12530W        W77757   4.254  22.140   1.406
12531W        W77758   5.348  18.795  14.336
12532W        W77759  16.880  41.960  12.909
12533W        W77760   7.124  13.882   0.210
12534W        W77761  39.151  20.701   1.657
12535W        W77762  39.093  21.916   3.221
12536W        W77763   6.044  28.026   3.686
12537W        W77764  20.229  28.628  11.985
12538W        W77765   5.325  43.598   4.173
12539W        W77766  35.376  36.188  14.120
12540W        W77767  40.522  37.308  11.019
12541W        W77768  41.107   9.631  14.230
12542W        W77769  27.874  30.006   2.505
12543W        W77770   8.821  36.924   1.755
12544W        W77771  21.910   2.823   2.751
12545W        W77772  39.228  18.803   0.639
12546W        W77773  25.151  30.418   1.983
12547W        W77774  32.854  10.737   0.414
12548W        W77775   4.241  26.185   0.383
12549W        W77776   3.304   1.145  11.937
12550W        W77777  29.397   3.907  12.364
12551W        W77778  39.041  32.656   4.637
12552W        W77779  40.862   1.974  13.436
12553W        W77780  43.094  34.901  14.295
12554W        W77781  30.279  18.801  11.664
12555W        W77782  11.559  23.998  11.951
12556W        W77783  14.128  44.897   0.302
12557W        W77784  27.014  38.576  13.912
12558W        W77785  24.657  23.802  12.065
12559W        W77786  13.892  28.439  11.240
12560W        W77787  16.208   4.770   3.181
12561W        W77788   0.995  17.061  12.954
12562W        W77789  34.589  32.565   0.354
12563W        W77790  32.888  16.718   2.872
12564W        W77791   3.271  18.671   4.523
12565W        W77792  33.869  11.223  14.858
12566W        W77793  31.421   5.738  12.791
12567W        W77794   7.414  18.259  12.808
12568W        W77795  30.940  20.872   1.679
12569W        W77796   4.333   5.345  12.492
12570W        W77797  25.437  12.624  12.422
12571W        W77798  33.409  28.345   2.736
12572W        W77799  30.121   6.079   1.990
12573W        W77800  35.411  30.797  12.948
12574W        W77801   7.470   7.413   0.847
12575W        W77802  26.476  23.569   4.176
12576W        W77803  14.463  15.716   1.217
12577W        W77804  41.892  44.338  12.136
12578W        W77805  27.020  16.215   2.279
12579W        W77806  43.096  32.371   2.237
12580W        W77807  26.739  28.388  10.857
12581W        W77808  37.211  38.825  12.457
12582W        W77809   1.793  28.951  12.642
12583W        W77810  13.404  26.962  13.840
12584W        W77811   4.653   3.370  14.364
12585W        W77812  13.568  22.888   3.654
12586W        W77813  23.914  28.477  12.400
12587W        W77814   7.188  37.365  14.332
12588W        W77815  10.350  10.440   1.213
12589W        W77816  24.529  28.063   2.250
12590W        W77817   7.606   7.318   4.979
12591W        W77818  30.489  35.817   4.610
12592W        W77819   9.872  16.340  12.997
12593W        W77820  27.985   3.870  13.825
12594W        W77821  27.417  28.563  14.707
12595W        W77822  18.350  13.343   4.035
12596W        W77823  20.963  43.962  14.889
12597W        W77824   7.351  37.583  12.528
12598W        W77825  25.986  17.375  12.054
12599W        W77826  41.907  36.643  14.920
12600W        W77827  17.813  12.649   3.673
12601W        W77828  18.748  18.505   3.041
12602W        W77829   7.172  37.923   2.847
12603W        W77830   7.044  14.892   0.592
12604W        W77831  42.732  41.336   2.261
12605W        W77832  27.039  23.893  11.086
12606W        W77833   5.822   0.816   4.496
12607W        W77834  17.844  37.522   3.691
12608W        W77835  29.693  43.381  14.085
12609W        W77836   2.059  43.768  14.465
12610W        W77837  18.183  28.938  13.507
12611W        W77838   3.309   5.849   1.736
12612W        W77839   5.230  24.564   0.149
12613W        W77840  30.234  18.721  13.522
12614W        W77841  17.138  40.725   2.288
12615W        W77842  10.028   5.097   2.649
12616W        W77843  43.261   9.668   2.365
12617W        W77844  32.441  39.764   4.562
12618W        W77845  44.602  19.923   2.330
12619W        W77846  10.283  34.204  12.042
12620W        W77847   2.522  30.588   3.646
12621W        W77848  24.771  31.642  12.105
12622W        W77849  18.171  37.007   0.691
12623W        W77850   5.775  11.153  14.026
12624W        W77851  35.447   0.286  14.590
12625W        W77852  33.098  39.269   3.614
12626W        W77853  10.854  10.276  14.433
12627W        W77854  16.491  38.778   2.288
12628W        W77855  38.565  14.538   2.365
12629W        W77856  20.269  31.092   3.366
12630W        W77857  17.759  11.855  10.682
12631W        W77858   7.805  36.837  11.584
12632W        W77859  28.951  41.858   2.746
12633W        W77860  29.988  20.781   4.815
12634W        W77861  40.712  19.318   0.200
12635W        W77862  40.042   1.630   0.147
12636W        W77863  14.684  27.458   3.715
12637W        W77864  26.917   1.749  12.914
12638W        W77865   6.354   5.682   4.920
12639W        W77866  23.599  23.213   2.425
12640W        W77867   3.290  22.039  12.004
12641W        W77868   2.914   2.910   4.301
12642W        W77869  33.146  20.114  13.646
12643W        W77870  26.435   4.283  13.463
12644W        W77871  13.060  34.894   3.149
12645W        W77872  10.323   3.181  13.390
12646W        W77873  30.450  26.432  14.894
12647W        W77874  30.195  18.279  14.437
12648W        W77875  19.523  36.889  10.700
12649W        W77876  29.817  25.433  14.395
12650W        W77877  24.940  25.277  11.198
12651W        W77878  43.182  28.982   2.515
12652W        W77879  37.304  32.034   1.882
12653W        W77880  40.613   9.710   2.579
12654W        W77881  33.839  20.491  10.565
12655W        W77882  44.093  33.670   3.278
12656W        W77883  42.816  10.855   2.342
12657W        W77884  39.334  11.715   1.289
12658W        W77885  36.672  39.523  14.314
12659W        W77886  16.228  27.421  10.587
12660W        W77887  38.303   9.880   3.268
12661W        W77888  42.132  41.561   1.531
12662W        W77889  18.984  17.133   3.722
12663W        W77890  18.314  19.279   3.704
12664W        W77891  25.204  12.442  11.995
12665W        W77892  32.586  14.292  10.518
12666W        W77893  21.143  16.773  14.503
12667W        W77894   2.654  22.145  12.798
12668W        W77895  26.428  30.381   0.992
12669W        W77896  21.774   0.402  14.989
12670W        W77897   5.757   0.010   2.239
12671W        W77898   0.435  40.367  12.186
12672W        W77899  23.588  24.401   1.862
12673W        W77900  17.639  35.095  12.885
12674W        W77901  25.054   6.248  11.255
12675W        W77902  41.322  14.187  12.046
12676W        W77903   4.162  43.566  13.707
12677W        W77904  10.265  17.655  11.172
12678W        W77905  24.008   8.508   2.247
12679W        W77906  37.102   6.412  13.923
12680W        W77907  12.434   0.025   2.211
12681W        W77908   1.989  23.508   3.624
12682W        W77909   4.227  19.178   3.288
12683W        W77910   0.013  13.797   2.138
12684W        W77911  25.598  42.714  10.455
12685W        W77912  17.144  15.362   2.729
12686W        W77913  28.540  44.004   2.936
12687W        W77914   2.996   0.039   2.365
12688W        W77915  41.334  21.598  11.181
12689W        W77916  31.683  22.769   2.819
12690W        W77917  22.009  32.906   1.443
12691W        W77918   2.964  36.579  10.811
12692W        W77919   2.520  18.250   0.399
12693W        W77920   6.250  29.351   0.949
12694W        W77921  11.958  19.042  13.644
12695W        W77922  39.172  43.993   4.106
12696W        W77923  42.937  11.889  12.392
12697W        W77924  32.551  38.884   3.651
12698W        W77925  30.242  20.951  11.152
12699W        W77926   3.815  41.442   3.220
12700W        W77927  29.670  28.553  11.626
12701W        W77928  21.588   2.512   4.032
12702W        W77929   9.196  41.211   4.124
12703W        W77930  10.094  16.838  14.736
12704W        W77931  34.857  17.573   1.309
12705W        W77932   4.271  29.895   0.271
12706W        W77933  36.486  27.779   4.538
12707W        W77934  14.622  34.102   1.289
12708W        W77935  41.980   6.021   3.507
12709W        W77936  14.750  24.513   0.391
12710W        W77937  36.191  30.106  12.008
12711W        W77938  26.192  34.062   2.362
12712W        W77939   7.802  23.776   3.797
12713W        W77940  13.189  27.487   0.401
12714W        W77941  39.770  10.078   2.928
12715W        W77942  37.491   9.180  12.495
12716W        W77943   9.850  29.563   4.118
12717W        W77944  42.401  10.089  10.995
12718W        W77945   3.004  24.162  14.039
12719W        W77946   6.434  29.168  12.029
12720W        W77947  19.436  42.086   1.443
12721W        W77948  13.450  17.690   3.220
12722W        W77949  39.384  35.011  12.443
12723W        W77950  13.812   9.680   0.775
12724W        W77951   1.862  29.690  14.518
12725W        W77952   4.461  12.272   1.673
12726W        W77953  10.204  15.965  12.690
12727W        W77954  39.867  26.007  10.710
12728W        W77955  31.644  31.475  11.408
12729W        W77956   1.403   4.489  10.816
12730W        W77957  12.585  26.649  12.575
12731W        W77958  27.487   0.445   0.702
12732W        W77959   2.333  30.188  13.921
12733W        W77960  39.915  26.322  14.441
12734W        W77961   9.775  30.720   0.877
12735W        W77962  19.916  13.727   3.619
12736W        W77963  30.085  20.105   2.424
12737W        W77964  42.583  37.269   1.309
12738W        W77965   8.455  38.448   0.275
12739W        W77966  14.246   1.989   1.694
12740W        W77967  33.799  41.754  13.911
12741W        W77968  13.734  10.395  14.012
12742W        W77969  44.144  17.240  10.725
12743W        W77970  36.330   3.211  11.120
12744W        W77971  10.407  30.381   0.711
12745W        W77972  38.371  24.631   3.858
12746W        W77973  40.716  22.729   4.163
12747W        W77974  37.071  39.874   4.363
12748W        W77975   8.182  37.041  13.592
12749W        W77976  10.513  16.480   4.858
12750W        W77977  37.900   5.124   4.727
12751W        W77978  35.788  33.195  10.946
12752W        W77979   9.865   7.783  13.520
12753W        W77980  15.164  27.410  13.455
12754W        W77981  11.799   4.500   1.298
12755W        W77982  27.348  22.878  13.842
12756W        W77983  22.503  22.821  10.746
12757W        W77984  28.833  32.584  13.479
12758W        W77985  36.485  13.080   3.733
12759W        W77986  31.653  14.347  13.977
12760W        W77987  31.146  12.263   0.389
12761W        W77988  41.512  28.089   3.049
12762W        W77989  38.373  34.057   2.439
12763W        W77990  29.142  20.728   4.617
12764W        W77991   0.005   3.828  14.480
12765W        W77992   1.756  22.016  13.030
12766W        W77993   3.115  35.486  10.789
12767W        W77994  18.970  23.687   1.847
12768W        W77995  11.035  26.135   1.708
12769W        W77996  15.848  36.141   1.885
12770W        W77997  12.722  25.766   2.871
12771W        W77998   2.017  43.207   0.986
12772W        W77999  22.500  40.562   2.225
12773W        W78000  11.924   0.167   2.184
12774W        W78001  44.351  21.288  14.000
12775W        W78002  37.178  12.139  14.857
12776W        W78003  20.428   8.249   3.563
12777W        W78004  21.968  43.860   0.696
12778W        W78005  33.640  11.260   1.466
12779W        W78006  41.605  43.468  13.506
12780W        W78007  13.478  12.677   3.717
12781W        W78008  33.146   9.132  12.493
12782W        W78009  27.838  18.289  13.926
12783W        W78010  18.617  19.955   0.519
12784W        W78011   7.623  28.030  13.312
12785W        W78012  43.089  21.675   0.255
12786W        W78013  30.703  21.713   0.335
12787W        W78014   6.951   7.321  14.329
12788W        W78015  34.790   5.367  11.637
12789W        W78016  40.393  10.364   3.703
12790W        W78017   3.319  16.773   4.824
12791W        W78018   0.301  22.474  11.933
12792W        W78019   5.738  25.511   3.788
12793W        W78020   1.310  41.338  13.852
12794W        W78021  15.098   7.314   3.748
12795W        W78022  39.041  20.445   0.302
12796W        W78023  30.650  44.836  14.775
12797W        W78024  36.423   4.220   2.915
12798W        W78025  24.576  22.464   4.595
12799W        W78026   5.880  21.469   3.767
12800W        W78027  41.849  10.723  10.790
12801W        W78028  25.690  33.819   4.631
12802W        W78029  42.929  15.815   2.609
12803W        W78030  35.995  28.487  14.667
12804W        W78031  11.541  16.358  12.924
12805W        W78032  26.501  34.323   4.991
12806W        W78033  18.650   0.225   4.172
12807W        W78034  22.274  10.885   3.629
12808W        W78035   1.886   4.240  10.692
12809W        W78036  34.058  27.378   4.259
12810W        W78037   6.242  12.449   4.909
12811W        W78038  36.022  43.933  14.883
12812W        W78039  32.890  43.432   1.081
12813W        W78040  41.961  40.184  14.962
12814W        W78041  31.497   2.019   4.907
12815W        W78042  43.882  25.260  11.191
12816W        W78043  26.927  39.678  11.860
12817W        W78044  17.044  36.019   1.457
12818W        W78045  38.433  28.101  10.876
12819W        W78046  20.704  13.227   0.235
12820W        W78047  17.569  37.061  11.681
12821W        W78048  19.068  21.124   4.199
12822W        W78049  38.270  18.273   4.798
12823W        W78050  23.797  14.371  12.476
12824W        W78051   3.374   7.044   1.219
12825W        W78052  19.592   5.270  11.915
12826W        W78053  37.438  25.964   2.766
12827W        W78054  36.588   7.052  12.874
12828W        W78055   8.251  37.018   0.013
12829W        W78056   7.217  23.787   0.737
12830W        W78057  39.459  32.389   4.825
12831W        W78058  31.805  12.597  13.064
12832W        W78059   6.748  25.173   2.301
12833W        W78060   2.594  40.347   3.452
12834W        W78061  40.881  29.611  11.031
12835W        W78062  37.367   8.304  12.372
12836W        W78063  24.103   4.859   4.116
12837W        W78064  23.939   8.661   1.427
12838W        W78065  42.258  28.638   1.243
12839W        W78066  19.056  10.209   0.466
12840W        W78067  40.078   6.636  11.216
12841W        W78068  14.735  38.425   4.654
12842W        W78069  28.732  15.447  14.540
12843W        W78070   8.279   9.068  12.421
12844W        W78071  14.545  17.984  11.730
12845W        W78072  24.540  13.815   3.341
12846W        W78073  10.619  17.714   2.465
12847W        W78074  44.950  31.603  11.122
12848W        W78075   0.187  28.557  14.013
12849W        W78076  26.042  36.345   2.900
12850W        W78077  15.028  29.166  12.487
12851W        W78078  17.082   4.401  12.093
12852W        W78079  28.071  36.954  11.669
12853W        W78080   5.662  40.400   3.662
12854W        W78081   8.476   9.756  13.045
12855W        W78082  32.168  18.790  10.788
12856W        W78083  31.406  22.136   4.010
12857W        W78084  44.860  32.901  10.630
12858W        W78085   9.091  29.719   1.391
12859W        W78086  30.858  40.436   2.843
12860W        W78087   3.011  26.555  12.428
12861W        W78088  13.023  29.081  13.938
12862W        W78089  21.653  25.620   1.244
12863W        W78090   7.841  33.536  12.932
12864W        W78091   4.427  23.587   2.011
12865W        W78092  14.965   3.031  13.476
12866W        W78093  32.421  31.933  10.734
12867W        W78094  42.829  21.143   1.514
12868W        W78095   5.230  32.166  11.763
12869W        W78096  34.575  30.355  12.518
12870W        W78097  18.091  41.776  11.539
12871W        W78098  39.238  18.385   5.242
12872W        W78099   0.769  19.435   2.902
12873W        W78100  21.671  27.043   4.597
12874W        W78101   1.465  34.719  11.626
12875W        W78102  12.032  36.375  12.666
12876W        W78103  10.479  14.718   4.917
12877W        W78104  30.387  14.784   1.907
12878W        W78105  39.115  26.455   5.010
12879W        W78106  21.928  34.594  11.711
12880W        W78107  16.999  26.979  12.485
12881W        W78108  33.773  24.239   0.551
12882W        W78109  28.647  23.349  11.196
12883W        W78110  25.012   6.133  14.509
12884W        W78111   3.884  31.387   4.166
12885W        W78112  29.040  28.557   1.975
12886W        W78113  28.579  16.455   3.203
12887W        W78114  19.938  12.303  10.890
12888W        W78115  25.293  40.017  10.594
12889W        W78116   9.318   1.436   0.809
12890W        W78117  23.980  35.611   4.578
12891W        W78118  13.143  26.424  13.996
12892W        W78119  30.201  26.867   2.204
12893W        W78120  17.789   8.854   0.700
12894W        W78121  27.946  27.093  13.614
12895W        W78122  41.810  16.748  12.782
12896W        W78123  30.965  41.677   0.901
12897W        W78124  30.651  29.014  11.866
12898W        W78125  42.781  41.497  10.872
12899W        W78126  19.047  34.662  11.104
12900W        W78127   3.048  12.764   3.050
12901W        W78128   2.487   2.909  11.518
12902W        W78129  34.612  18.582  12.182
12903W        W78130  42.923  28.621   1.683
12904W        W78131  37.542  24.089  14.247
12905W        W78132  19.691  38.824   4.982
12906W        W78133  42.458  36.504  10.949
12907W        W78134  12.177   2.464  11.926
12908W        W78135  37.479  14.195  13.447
12909W        W78136  18.452  18.689  10.717
12910W        W78137  32.817  40.069  10.665
12911W        W78138  37.531  23.168   2.488
12912W        W78139  27.427  19.737   1.716
12913W        W78140  30.801  33.984   4.378
12914W        W78141  22.733  20.476  13.513
12915W        W78142  15.165  19.236   3.367
12916W        W78143   5.650  32.633  11.163
12917W        W78144  29.861   3.216   9.718
12918W        W78145   5.853   3.272   2.710
12919W        W78146   7.076  37.408   0.353
12920W        W78147  25.243  11.970  10.719
12921W        W78148  24.718  37.332   4.753
12922W        W78149  39.398   0.617   3.178
12923W        W78150   0.039  22.600  11.448
12924W        W78151   9.155  18.940  12.465
12925W        W78152  42.304  37.936  11.666
12926W        W78153  13.191  30.476   2.663
12927W        W78154  34.493  24.585   4.630
12928W        W78155   7.212   8.356   1.605
12929W        W78156  43.785   4.503  12.114
12930W        W78157   7.417   7.370  13.247
12931W        W78158   5.203  34.629  14.880
12932W        W78159  38.544  11.718  10.627
12933W        W78160  37.510  32.462  11.907
12934W        W78161  27.183  12.594   3.719
12935W        W78162  35.287   1.302  11.208
12936W        W78163   2.080   6.675  12.526
12937W        W78164   2.270  35.659   2.830
12938W        W78165   5.667   5.969  10.780
12939W        W78166   4.917  38.440   1.224
12940W        W78167  18.144  10.287   1.408
12941W        W78168  20.815  40.571   5.219
12942W        W78169   1.734  13.638   3.656
12943W        W78170  17.874  39.980   4.547
12944W        W78171  37.564  21.622  13.959
12945W        W78172  35.820  19.391   2.043
12946W        W78173  26.178   0.702   3.199
12947W        W78174  40.525   9.385  12.992
12948W        W78175  37.218  16.942  12.034
12949W        W78176  43.384   1.175  13.890
12950W        W78177  30.792  25.717  10.635
12951W        W78178  39.342   0.449   0.358
12952W        W78179  30.722  12.160   0.767
12953W        W78180  29.924  19.227  10.798
12954W        W78181  14.345  26.579  12.780
12955W        W78182  19.211  34.444  13.340
12956W        W78183  38.691   4.481   0.843
12957W        W78184  11.179  25.657   1.884
12958W        W78185   1.930  20.509  12.481
12959W        W78186  33.416   0.508   1.755
12960W        W78187  33.964  28.712  11.586
12961W        W78188  34.468  32.864  13.445
12962W        W78189  16.457  20.622   4.327
12963W        W78190   6.106  24.812   2.285
12964W        W78191  20.544  16.277  11.568
12965W        W78192  18.944  20.461  11.977
12966W        W78193  26.084  31.566  11.197
12967W        W78194  32.034  29.144   0.457
12968W        W78195   4.376   8.385   0.758
12969W        W78196  35.629  23.047   2.708
12970W        W78197   5.439  34.879  10.629
12971W        W78198  32.476  19.375  11.757
12972W        W78199  16.786  33.961  12.576
12973W        W78200  30.241  42.963  12.162
12974W        W78201  14.555  11.269  10.748
12975W        W78202  39.894  37.354  14.276
12976W        W78203  20.159  13.347   4.665
12977W        W78204  25.715  34.860  11.293
12978W        W78205  17.994  11.410  12.461
12979W        W78206  12.324  24.712   0.822
12980W        W78207  29.047  26.053   5.280
12981W        W78208  19.816  11.376   3.925
12982W        W78209  19.185   4.811  11.330
12983W        W78210  35.445  13.834  14.860
12984W        W78211   8.419   4.359  14.542
12985W        W78212  24.941   5.867  11.850
12986W        W78213  26.569  32.105  11.375
12987W        W78214  14.197  14.534   4.644
12988W        W78215   8.285  44.730   4.473
12989W        W78216  33.850  10.212   4.132
12990W        W78217  35.848  11.361  12.285
12991W        W78218  44.719  15.270   1.669
12992W        W78219  16.227  27.654   0.296
12993W        W78220   7.118   6.831   2.439
12994W        W78221  17.746  19.021   4.573
12995W        W78222  20.568  37.763  14.810
12996W        W78223  28.560   3.166  14.816
12997W        W78224  33.981  27.722   5.425
12998W        W78225  22.991  41.972   1.092
12999W        W78226  23.055  23.901  12.372
13000W        W78227  28.555  24.241   0.350
13001W        W78228  30.179  26.625   1.739
13002W        W78229  22.781  30.286   0.286
13003W        W78230  32.204  29.908   3.271
13004W        W78231   6.521  28.435   0.508
13005W        W78232  18.041  17.591  11.040
13006W        W78233  38.507  29.121  14.869
13007W        W78234  37.083  29.871  12.003
13008W        W78235  30.457  12.067   2.342
13009W        W78236   9.999  14.187   2.419
13010W        W78237  43.357  37.314   1.404
13011W        W78238  13.652  19.576  14.797
13012W        W78239  13.023  44.152  12.883
13013W        W78240  44.361  24.303   2.675
13014W        W78241  28.195  14.804   0.711
13015W        W78242  13.643  35.934  10.631
13016W        W78243  27.449   5.362   1.888
13017W        W78244  34.835   3.396   2.179
13018W        W78245  19.667  24.125   3.978
13019W        W78246  42.294  39.558  14.128
13020W        W78247  20.745   7.802   3.767
13021W        W78248  39.856  30.476   3.653
13022W        W78249   5.942  42.971   1.617
13023W        W78250   5.977  29.900   3.695
13024W        W78251  11.134  42.856   4.683
13025W        W78252  27.220  14.472   0.862
13026W        W78253  17.296  35.528   1.197
13027W        W78254  43.702  25.184   1.882
13028W        W78255  43.262  11.164   2.358
13029W        W78256  39.144  13.054   0.779
13030W        W78257  44.608   6.653  12.858
13031W        W78258  27.980  27.432  11.481
13032W        W78259  23.967   7.706   2.676
13033W        W78260   9.376   8.821  13.275
13034W        W78261   6.311   5.888   1.133
13035W        W78262  13.150  24.082   2.332
13036W        W78263  21.244  42.792   0.242
13037W        W78264   8.690  39.031   2.194
13038W        W78265  42.410  26.041   2.656
13039W        W78266   7.767   3.230  10.344
13040W        W78267  26.650  17.479   1.792
13041W        W78268  39.313   8.860   2.697
13042W        W78269  23.533  25.276   0.860
13043W        W78270   7.468  21.477   3.621
13044W        W78271  36.021  26.294  12.094
13045W        W78272  16.431   5.666   3.653
13046W        W78273  12.171  43.357  11.060
13047W        W78274  17.184   6.772   3.958
13048W        W78275  29.621  44.710   0.202
13049W        W78276  20.129  11.124  10.269
13050W        W78277   2.203  16.498  13.179
13051W        W78278   2.145   6.220  13.426
13052W        W78279  29.869  27.579   0.922
13053W        W78280  14.316   2.553   1.805
13054W        W78281  43.084   3.054   3.250
13055W        W78282  21.556  11.634   2.613
13056W        W78283  31.281  37.037   0.795
13057W        W78284   5.775   6.412  14.255
13058W        W78285  25.418  22.553  12.896
13059W        W78286  43.381   2.064   3.327
13060W        W78287  13.461  12.817   0.801
13061W        W78288  28.163  26.506  14.871
13062W        W78289  32.415  20.555   4.162
13063W        W78290  11.559  17.206   3.138
13064W        W78291  37.143  38.741   1.785
13065W        W78292  12.337  25.952  13.385
13066W        W78293  17.296  38.662  11.139
13067W        W78294   2.651  31.961   4.493
13068W        W78295  25.588  16.961  10.806
13069W        W78296  32.628   9.742   4.671
13070W        W78297   0.312  44.751   2.927
13071W        W78298   1.335  34.494  11.163
13072W        W78299  10.493   6.273   0.886
13073W        W78300  17.241  38.630  13.093
13074W        W78301   9.183  26.482   1.770
13075W        W78302  14.047  10.440   2.335
13076W        W78303   6.680  42.288  13.483
13077W        W78304  32.288  15.214  12.074
13078W        W78305   1.589  38.061  13.368
13079W        W78306  35.975  29.684  13.413
13080W        W78307   3.886  44.261   3.154
13081W        W78308  18.009  22.336   3.208
13082W        W78309  11.505  25.157  12.600
13083W        W78310  14.110  23.296   1.808
13084W        W78311   4.048  18.591   1.711
13085W        W78312  23.443   7.019   0.842
13086W        W78313  16.369  43.962  10.787
13087W        W78314  33.704  20.153  12.928
13088W        W78315  43.869  23.124   1.174
13089W        W78316   3.007  42.052   3.993
13090W        W78317  36.455  35.220  11.228
13091W        W78318  25.183  12.561  14.760
13092W        W78319  20.812   9.419  10.985
13093W        W78320  18.460   6.225   4.881
13094W        W78321  34.645  22.764  11.671
13095W        W78322   6.551  21.324  11.592
13096W        W78323  12.765  34.064  14.970
13097W        W78324  38.938  15.042  10.372
13098W        W78325  39.665  12.105  13.174
13099W        W78326   6.830  37.093   3.657
13100W        W78327  44.025  16.829   3.668
13101W        W78328  42.934  34.538  12.521
13102W        W78329  21.301  22.498  11.671
13103W        W78330  30.007  27.834   2.698
13104W        W78331  43.581  26.037  14.397
13105W        W78332  19.574  28.535   3.197
13106W        W78333   1.892  43.055  12.472
13107W        W78334  10.800  27.730  13.060
13108W        W78335  24.257  11.223  13.369
13109W        W78336  18.464  23.123  14.264
13110W        W78337  32.822  31.509   1.318
13111W        W78338  33.906  15.843  12.420
13112W        W78339   5.779  10.139   2.763
13113W        W78340  32.990  31.985   0.655
13114W        W78341   0.063  44.290  13.552
13115W        W78342   3.936   8.791  12.946
13116W        W78343  28.984  33.565   3.404
13117W        W78344  36.511  27.101  13.723
13118W        W78345  23.912  13.106  11.187
13119W        W78346   6.515  23.115   2.880
13120W        W78347  42.816  15.692   4.562
13121W        W78348  39.868  32.432   2.006
13122W        W78349  42.839  42.341   2.348
13123W        W78350  21.823   4.718   1.340
13124W        W78351  24.498  41.087   4.817
13125W        W78352   7.255  31.404  14.096
13126W        W78353  13.698   8.088   0.394
13127W        W78354  31.987  37.293   3.206
13128W        W78355  36.638  25.531  14.833
13129W        W78356  44.582  24.902   3.135
13130W        W78357  42.584   7.376  14.936
13131W        W78358  14.060  41.026   2.435
13132W        W78359  28.790  19.248  12.092
13133W        W78360  15.680   1.928  13.946
13134W        W78361   3.860   8.953  10.592
13135W        W78362   3.349  16.217   0.220
13136W        W78363  23.489   7.765  12.733
13137W        W78364   2.864  26.774   3.337
13138W        W78365  18.222  13.185  10.418
13139W        W78366  26.176  35.319  13.870
13140W        W78367  42.804  33.161   3.244
13141W        W78368  40.281  25.811   2.262
13142W        W78369  10.805  44.375  11.634
13143W        W78370  38.423  26.576  14.641
13144W        W78371  39.735  12.973  13.550
13145W        W78372  44.678  24.318   3.093
13146W        W78373  37.338   4.635  12.227
13147W        W78374   9.267  34.053   4.280
13148W        W78375  25.150   0.971  13.464
13149W        W78376   3.880  30.178  13.547
13150W        W78377  25.797  14.920  13.953
13151W        W78378  29.041  41.253  10.540
13152W        W78379   8.780  23.944  10.647
13153W        W78380  40.849  26.712   2.987
13154W        W78381  32.943  38.359  12.814
13155W        W78382  19.442  24.004  10.536
13156W        W78383  16.138  25.141   4.629
13157W        W78384  21.825   2.708  12.514
13158W        W78385  21.554   1.492  12.867
13159W        W78386   9.182  41.039  10.486
13160W        W78387   4.535  30.008   1.359
13161W        W78388  20.336   8.171  11.024
13162W        W78389  38.007   8.704  13.627
13163W        W78390  29.312   3.338   0.388
13164W        W78391  39.427  15.123  11.427
13165W        W78392  26.392  36.798   1.298
13166W        W78393   5.049  41.390   2.773
13167W        W78394  23.869  28.626  14.456
13168W        W78395  24.475  12.191  11.356
13169W        W78396   1.683  12.955   1.888
13170W        W78397  23.243  33.331  12.177
13171W        W78398  30.021  34.254   2.627
13172W        W78399  32.655  31.959   3.681
13173W        W78400   3.914  10.196   2.229
13174W        W78401  10.623  38.908   2.451
13175W        W78402  26.725   0.991   2.666
13176W        W78403  43.374  29.577   1.107
13177W        W78404  16.329  37.531  12.161
13178W        W78405  25.990  39.269   1.779
13179W        W78406   9.730  42.912  10.762
13180W        W78407  16.241   1.516   3.583
13181W        W78408  27.776  26.457   2.800
13182W        W78409  11.415  41.522   4.608
13183W        W78410  17.249  31.677   1.787
13184W        W78411   6.081  38.752   0.289
13185W        W78412   5.648  32.522   2.949
13186W        W78413  15.729   4.736  13.001
13187W        W78414  34.007  22.705   3.678
13188W        W78415   6.958  37.876  12.272
13189W        W78416  20.552  43.596  14.849
13190W        W78417   8.823  29.380   2.700
13191W        W78418   9.413  20.145   1.537
13192W        W78419  17.403  10.970   3.128
13193W        W78420  20.663   6.454  13.050
13194W        W78421   3.864  22.131  10.705
13195W        W78422  41.433   0.480   1.673
13196W        W78423  43.439  23.256   0.332
13197W        W78424  29.140  32.434  11.684
13198W        W78425  44.073   5.729  11.142
13199W        W78426  18.790  23.424  11.030
13200W        W78427  19.609   2.299   1.952
13201W        W78428  37.608  10.981  13.023
13202W        W78429  39.806  33.141  14.541
13203W        W78430  19.225  35.547  13.436
13204W        W78431  26.827  44.266  13.339
13205W        W78432  31.108   1.975  12.536
13206W        W78433  15.060  12.316   1.382
13207W        W78434  24.965  19.238  11.017
13208W        W78435   6.765  33.028   4.700
13209W        W78436  12.706   2.200  12.794
13210W        W78437  34.499  27.070   2.325
13211W        W78438  44.939  44.345  10.591
13212W        W78439  25.637  25.298  13.975
13213W        W78440   3.535  31.715   1.922
13214W        W78441  42.297  29.950   1.853
13215W        W78442  27.457  13.655  11.583
13216W        W78443  32.579  29.532  12.482
13217W        W78444  29.285  16.117  11.057
13218W        W78445  19.080  10.872  14.875
13219W        W78446  20.874   8.180  11.865
13220W        W78447  14.239  35.324   1.450
13221W        W78448  43.400  33.486   4.510
13222W        W78449  11.782  19.623  14.980
13223W        W78450  39.620  41.093   2.340
13224W        W78451  29.725  17.571  12.044
13225W        W78452  19.195  24.892  14.924
13226W        W78453  29.496  22.863   1.107
13227W        W78454  40.286   5.908  12.550
13228W        W78455  21.358  27.143  11.918
13229W        W78456  21.750  14.882   2.180
13230W        W78457   0.738  23.633   1.864
13231W        W78458  43.745  21.828   1.949
13232W        W78459  44.774  22.666  11.017
13233W        W78460  41.215  17.790  12.949
13234W        W78461  39.513  19.058  14.425
13235W        W78462   9.313  22.969   2.601
13236W        W78463   0.808  44.791  13.649
13237W        W78464  10.822  32.110   0.673
13238W        W78465  30.635  42.423  14.753
13239W        W78466  23.154  21.665  13.936
13240W        W78467  23.856  30.252   0.900
13241W        W78468  30.050  36.570   3.146
13242W        W78469  39.010  41.041   4.129
13243W        W78470  12.832   5.087  12.960
13244W        W78471  35.525  18.006   1.520
13245W        W78472  10.984  44.410   0.583
13246W        W78473  14.574   0.454  13.498
13247W        W78474  17.826   0.541   4.622
13248W        W78475  30.017  20.653   4.309
13249W        W78476   2.954  32.555  10.703
13250W        W78477  26.613   9.363   0.746
13251W        W78478  31.868   0.427   1.735
13252W        W78479  26.637  17.671  11.937
13253W        W78480  28.046  21.193   2.649
13254W        W78481  29.067  27.934   4.668
13255W        W78482  16.727  39.400  13.343
13256W        W78483  41.847  41.257  11.244
13257W        W78484  22.149  38.881  13.493
13258W        W78485  21.094  35.557   4.438
13259W        W78486  42.786  22.335  14.056
13260W        W78487  17.191  39.243   1.328
13261W        W78488  26.168  34.393   1.700
13262W        W78489  27.111  13.065   1.286
13263W        W78490  44.113  41.833   0.709
13264W        W78491  43.782  32.958  13.438
13265W        W78492  43.273  38.210  12.426
13266W        W78493  10.596  19.274   0.458
13267W        W78494  31.060  22.507   0.928
13268W        W78495  30.792  14.582   0.779
13269W        W78496   4.886  42.528   3.661
13270W        W78497   0.237  44.767  14.971
13271W        W78498  18.221  16.719   4.155
13272W        W78499  25.514  14.597  11.757
13273W        W78500  34.516  24.504   3.607
13274W        W78501  10.784   5.133   1.908
13275W        W78502  30.890  32.112  13.569
13276W        W78503  20.780  13.472  12.388
13277W        W78504  37.029  19.530   3.901
13278W        W78505  19.702  44.466   2.702
13279W        W78506  21.067  40.075   0.908
13280W        W78507  31.169   1.407  14.063
13281W        W78508  24.437  28.002  12.019
13282W        W78509   4.192  22.916  13.333
13283W        W78510  36.940  32.583   2.885
13284W        W78511   6.868  42.459   2.326
13285W        W78512  36.338  40.368   3.807
13286W        W78513   6.747  35.069  12.044
13287W        W78514  17.216   7.768   1.844
13288W        W78515  42.091  11.342  10.809
13289W        W78516   4.675  29.906  14.538
13290W        W78517  13.367   9.884   2.447
13291W        W78518  36.474  28.429   2.873
13292W        W78519  24.779  33.389   0.411
13293W        W78520  15.304  33.530   2.250
13294W        W78521  14.854   3.244   1.290
13295W        W78522  17.378  20.069  13.150
13296W        W78523  44.159  28.557  13.949
13297W        W78524  16.726  14.849  14.506
13298W        W78525  39.947  39.291  13.297
13299W        W78526  37.322   6.125   3.658
13300W        W78527   6.426  21.548   0.974
13301W        W78528  33.985  44.042   2.293
13302W        W78529  26.527   1.585   5.423
13303W        W78530  21.045  41.461  11.541
13304W        W78531  33.002  34.616   3.272
13305W        W78532  30.644  19.383   2.501
13306W        W78533  43.536   6.920  12.011
13307W        W78534  20.237  10.382  12.539
13308W        W78535  37.897  40.524  14.738
13309W        W78536   3.082  38.945   0.331
13310W        W78537   8.679  13.352   4.083
13311W        W78538  20.220  38.925  12.388
13312W        W78539  16.498  32.106  13.669
13313W        W78540  37.382   3.187  12.856
13314W        W78541   4.323   0.756   1.240
13315W        W78542   4.688  43.360   2.697
13316W        W78543  36.330   4.914  10.946
13317W        W78544  23.168   9.637   0.376
13318W        W78545   3.943   1.116   5.491
13319W        W78546  40.446  13.316   4.613
13320W        W78547  24.247   1.195   0.464
13321W        W78548  30.844  10.993  12.555
13322W        W78549  32.698  32.561  12.580
13323W        W78550  38.886  38.063   2.694
13324W        W78551  18.327  39.580   0.287
13325W        W78552  26.595   5.482  11.651
13326W        W78553  42.478  27.452   3.760
13327W        W78554   5.861   6.887  11.478
13328W        W78555  35.774  41.989   1.270
13329W        W78556  37.327   8.779   3.569
13330W        W78557  15.323  16.362  10.433
13331W        W78558   5.312  33.400   3.743
13332W        W78559  29.869  36.488   0.401
13333W        W78560  35.565  22.564   3.601
13334W        W78561  30.320   6.858   2.579
13335W        W78562  16.081  28.023   4.496
13336W        W78563  23.243  27.721   3.071
13337W        W78564  34.942   5.106  13.020
13338W        W78565  13.167  29.354   3.707
13339W        W78566  32.256  35.441  10.337
13340W        W78567  21.551  31.626   3.325
13341W        W78568  33.104  27.698  12.494
13342W        W78569  36.937  44.536  10.652
13343W        W78570  18.997  36.022  10.671
13344W        W78571  24.837   2.998   4.175
13345W        W78572  22.712  16.105  13.487
13346W        W78573  34.461  12.267  10.857
13347W        W78574   9.917   6.392  14.567
13348W        W78575  35.840  11.177  10.569
13349W        W78576  13.216  18.358   1.471
13350W        W78577   0.397   2.869   0.967
13351W        W78578  10.845  26.788   2.852
13352W        W78579  33.629   7.374   2.407
13353W        W78580  30.704  33.474  11.043
13354W        W78581   9.735  27.439  13.884
13355W        W78582   8.326   7.105   2.924
13356W        W78583  37.503  43.988  14.926
13357W        W78584  11.398  18.719  14.168
13358W        W78585  34.347  32.662  10.611
13359W        W78586  41.591  33.648  13.131
13360W        W78587  16.972   2.697  11.621
13361W        W78588   7.255   6.470  13.932
13362W        W78589  41.987  20.786   4.552
13363W        W78590  39.346  40.422  10.929
13364W        W78591  39.985  36.721   1.013
13365W        W78592  34.808  42.041  13.942
13366W        W78593  21.223   6.902  11.614
13367W        W78594  44.804  31.364  10.698
13368W        W78595   2.911  25.288   2.302
13369W        W78596  22.154  34.960  11.391
13370W        W78597  14.331  11.757   1.280
13371W        W78598   9.972  16.603   0.183
13372W        W78599  28.589  21.421   4.436
13373W        W78600  24.263  24.111   0.540
13374W        W78601  39.337  10.420  10.231
13375W        W78602  17.483   7.192  11.657
13376W        W78603  24.937  11.054  13.878
13377W        W78604  10.299  13.579  12.903
13378W        W78605  36.167   3.719  13.071
13379W        W78606   7.788  22.826   2.727
13380W        W78607  43.990   8.240   0.810
13381W        W78608  33.560  28.145   1.747
13382W        W78609  43.897   5.464  14.929
13383W        W78610  44.967  43.250   1.635
13384W        W78611  18.065  20.584   1.063
13385W        W78612  18.592  38.009   1.303
13386W        W78613  30.599  39.503   2.517
13387W        W78614  16.274  18.277   4.248
13388W        W78615  11.939  15.423   3.207
13389W        W78616  36.590  16.066  11.083
13390W        W78617   2.791  14.595  12.071
13391W        W78618  36.759  33.443   1.927
13392W        W78619  34.871  38.898  14.440
13393W        W78620  37.231  25.027  10.764
13394W        W78621  34.666   9.765   2.760
13395W        W78622  37.437  26.410   4.128
13396W        W78623  24.919  22.092  11.836
13397W        W78624  23.677   0.303   2.319
13398W        W78625  12.198  33.083   2.728
13399W        W78626  34.908  36.046   0.223
13400W        W78627  22.467  42.975  12.971
13401W        W78628  44.840  15.431   4.034
13402W        W78629  39.592   9.668   2.661
13403W        W78630   7.188  21.097  14.024
13404W        W78631  19.764   8.996   5.157
13405W        W78632  23.081  11.647   3.586
13406W        W78633  44.542  33.461   3.563
13407W        W78634  19.631  27.234  14.237
13408W        W78635   2.234  30.881   3.983
13409W        W78636  33.243  34.685  11.054
13410W        W78637  13.991  11.719  11.222
13411W        W78638  19.390  18.622   4.961
13412W        W78639  15.915  28.600  13.501
13413W        W78640   2.527   0.462  12.718
13414W        W78641   0.065  24.665  14.116
13415W        W78642  12.240  11.326  13.095
13416W        W78643  44.388  17.563   0.769
13417W        W78644  44.309   6.975   3.697
13418W        W78645  24.916  30.877  12.572
13419W        W78646  43.460  17.803  10.394
13420W        W78647  15.296   5.658  11.999
13421W        W78648  15.104  43.970  10.362
13422W        W78649  44.553  31.695  12.001
13423W        W78650  41.427  11.058   0.176
13424W        W78651  13.808  31.192   1.803
13425W        W78652  39.047  22.312  12.989
13426W        W78653  15.989  44.015   1.635
13427W        W78654  25.514  14.500   0.300
13428W        W78655  36.541  28.101   4.137
13429W        W78656  21.294  19.736   4.981
13430W        W78657  23.294  10.644   4.530
13431W        W78658  12.613  29.253  11.125
13432W        W78659   2.621  15.283   0.022
13433W        W78660  31.597  43.055   5.002
13434W        W78661  15.193  22.837   1.208
13435W        W78662  23.182  30.193  12.635
13436W        W78663   7.904  35.852   3.683
13437W        W78664   1.088  14.315  13.375
13438W        W78665  32.611  18.815  13.502
13439W        W78666   2.700  20.401  13.349
13440W        W78667  15.196  11.427   0.487
13441W        W78668  41.075  21.509   2.296
13442W        W78669   3.791  12.769  12.467
13443W        W78670  28.500  20.090   0.936
13444W        W78671  34.969  28.025   3.658
13445W        W78672  29.861  40.756  10.973
13446W        W78673   2.223  25.083  14.793
13447W        W78674  25.015  37.018   0.101
13448W        W78675  42.947  40.839   0.848
13449W        W78676  31.591  27.429   2.653
13450W        W78677   6.247  40.471  14.659
13451W        W78678   0.268  37.278  14.543
13452W        W78679   0.265  30.185   2.249
13453W        W78680  14.064   8.332  14.163
13454W        W78681  30.939   9.549   4.357
13455W        W78682  21.573  37.338   3.781
13456W        W78683  19.308  14.306  14.354
13457W        W78684  14.226  25.681   0.900
13458W        W78685  36.915  43.863   3.662
13459W        W78686  39.426  42.285  12.417
13460W        W78687  25.298  22.985   1.160
13461W        W78688  20.106  25.271  12.020
13462W        W78689  37.491  33.628   0.492
13463W        W78690  21.080  23.969   0.002
13464W        W78691  27.647   4.633  12.654
13465W        W78692  30.606  29.865   0.762
13466W        W78693  35.385   3.544   2.097
13467W        W78694   5.948  36.474  10.779
13468W        W78695  19.196  22.081  14.889
13469W        W78696  21.215  40.448   4.296
13470W        W78697  19.539   3.303   2.718
13471W        W78698  30.009  35.564  13.515
13472W        W78699   5.255  35.186   0.668
13473W        W78700  23.433  21.815  11.084
13474W        W78701  29.052   7.445   2.791
13475W        W78702  26.803  24.212  13.038
13476W        W78703  25.198  44.382   0.004
13477W        W78704  38.856  44.511  12.922
13478W        W78705  33.038   1.526   0.245
13479W        W78706  36.031  33.027  13.578
13480W        W78707  44.288  44.806   2.289
13481W        W78708   7.374  16.749  12.477
13482W        W78709   3.203   7.538   1.149
13483W        W78710   3.326  19.321  12.904
13484W        W78711  28.212  31.133  13.036
13485W        W78712   7.921  29.775   2.444
13486W        W78713  29.985  41.275  11.347
13487W        W78714   7.297  42.459   2.608
13488W        W78715  15.685  27.860  12.392
13489W        W78716   5.821   2.808  13.575
13490W        W78717  13.430  18.147  11.167
13491W        W78718   4.840  20.290   4.737
13492W        W78719  12.589  20.531  13.275
13493W        W78720  14.658  31.432   4.387
13494W        W78721  25.346   4.541  12.899
13495W        W78722  44.571  11.418   2.354
13496W        W78723  17.236  29.170  12.039
13497W        W78724   3.670  19.629  12.073
13498W        W78725  12.304  24.972   2.856
13499W        W78726  16.267  37.638  13.034
13500W        W78727  25.139  34.106   2.369
13501W        W78728   9.322  32.875  13.223
13502W        W78729  32.092  28.134  13.473
13503W        W78730  13.052  42.873   4.254
13504W        W78731  23.755   5.867   0.610
13505W        W78732  41.759  23.629   1.054
13506W        W78733   7.281  22.237   4.787
13507W        W78734  15.967  32.278  14.296
13508W        W78735  11.978  18.815   1.401
13509W        W78736  39.308  31.150   3.157
13510W        W78737  14.095  18.762   4.522
13511W        W78738   8.953  39.104   1.473
13512W        W78739  15.579  28.857   4.119
13513W        W78740  23.882  33.539   3.413
13514W        W78741  32.485  36.141   1.725
13515W        W78742  28.461   1.732   1.321
13516W        W78743  20.199   7.809   3.169
13517W        W78744  25.327  16.297  11.925
13518W        W78745  12.073  16.782   4.888
13519W        W78746  43.175  12.880  10.594
13520W        W78747  33.463  17.488  14.830
13521W        W78748   9.732  37.088   3.901
13522W        W78749  26.679  40.125   0.990
13523W        W78750  31.145  30.660  11.078
13524W        W78751  36.553  13.392   2.296
13525W        W78752  39.881   0.348   4.549
13526W        W78753  40.558  18.830   5.105
13527W        W78754  19.076  14.866  13.591
13528W        W78755  44.174   1.064   4.060
13529W        W78756  26.689  15.759  12.041
13530W        W78757  15.723  23.714   1.238
13531W        W78758  41.451   0.012   1.873
13532W        W78759  19.195  26.522   3.375
13533W        W78760  44.376  27.212   3.434
13534W        W78761   1.027  11.633  10.064
13535W        W78762  36.414  22.559   1.253
13536W        W78763  35.340  32.105   2.286
13537W        W78764  19.152   7.406  11.222
13538W        W78765  28.526  32.844   0.890
13539W        W78766  41.509  34.007   2.694
13540W        W78767   9.277  30.463  11.422
13541W        W78768  22.275  10.420  11.651
13542W        W78769   8.799   5.478  13.372
13543W        W78770  19.089  20.859   3.706
13544W        W78771  13.733  43.030   2.401
13545W        W78772  33.218  29.897   4.311
13546W        W78773  17.054  25.707  11.170
13547W        W78774  41.815  29.908   3.591
13548W        W78775  37.980  42.771   4.685
13549W        W78776  21.468  43.217  14.377
13550W        W78777   6.198   9.769  14.256
13551W        W78778  34.520  21.460   1.905
13552W        W78779  20.805   0.010  10.560
13553W        W78780  33.052   0.373  11.683
13554W        W78781  31.435  38.420  12.093
13555W        W78782  24.982  15.776  14.274
13556W        W78783   4.568  19.715  11.077
13557W        W78784   1.511  44.887  11.922
13558W        W78785  10.100   8.916   3.308
13559W        W78786   0.747  39.778   0.217
13560W        W78787  10.019  30.117  12.042
13561W        W78788   1.601  10.239  12.588
13562W        W78789  37.401  36.417   1.721
13563W        W78790  25.097  31.072  13.887
13564W        W78791  35.565  15.934   2.707
13565W        W78792   0.901  24.542  14.455
13566W        W78793   2.187  22.302   4.250
13567W        W78794  16.078  36.928   0.357
13568W        W78795  38.011   1.930  13.766
13569W        W78796  32.219  32.554   1.242
13570W        W78797  24.209  28.487  14.840
13571W        W78798  14.928   5.604  11.138
13572W        W78799  42.595  41.589   2.723
13573W        W78800  16.080  38.319  12.530
13574W        W78801  10.253  10.188   1.666
13575W        W78802   4.840  32.693  10.715
13576W        W78803  13.807  35.769   4.642
13577W        W78804  22.325  29.126   3.241
13578W        W78805  40.101  20.234  12.494
13579W        W78806  44.206  36.684   4.771
13580W        W78807  18.021   8.902   2.592
13581W        W78808   2.293  17.320  14.462
13582W        W78809   9.612  26.195  14.286
13583W        W78810  21.126  43.470  12.657
13584W        W78811  19.697  32.555   0.384
13585W        W78812  42.587  40.444  11.530
13586W        W78813  37.152   3.480   0.790
13587W        W78814   1.607  42.213  14.370
13588W        W78815   8.178  37.845   2.340
13589W        W78816  37.953  19.110  12.368
13590W        W78817  14.999   6.552   0.821
13591W        W78818  22.060   3.702   2.207
13592W        W78819  35.969  37.990   0.670
13593W        W78820  33.670  23.098  11.724
13594W        W78821   4.304  22.995  14.393
13595W        W78822  22.691  29.112   2.605
13596W        W78823  34.035  34.931   0.414
13597W        W78824  24.527   0.682   2.539
13598W        W78825  20.097  11.229   2.625
13599W        W78826  44.376   2.104  14.758
13600W        W78827  42.739  38.213  13.538
13601W        W78828  25.902   7.680  14.810
13602W        W78829  16.356  39.009   4.544
13603W        W78830  19.170  32.113  14.474
13604W        W78831  27.089  24.552  12.764
13605W        W78832   2.434  30.897  10.147
13606W        W78833   2.933  19.070  14.434
13607W        W78834  29.578   2.945   0.983
13608W        W78835  13.266  41.562  13.172
13609W        W78836  43.881  21.424   0.190
13610W        W78837  27.373   5.919   0.345
13611W        W78838  11.644  37.489   1.198
13612W        W78839   1.562  19.061   2.848
13613W        W78840  31.065  16.236   1.415
13614W        W78841   2.704  24.976  13.275
13615W        W78842  27.726  31.891  10.760
13616W        W78843  16.537   5.862   0.797
13617W        W78844  11.620  15.776   0.785
13618W        W78845   8.747  24.727  14.121
13619W        W78846  32.084  18.279   4.979
13620W        W78847  15.920  34.196  11.985
13621W        W78848  41.810  40.991  13.444
13622W        W78849  14.864  44.178   1.289
13623W        W78850   0.988  31.845   3.740
13624W        W78851   8.404  11.260   0.274
13625W        W78852  25.648   9.435  11.539
13626W        W78853  34.183  17.542   4.339
13627W        W78854  10.527  33.185   3.608
13628W        W78855  40.413  35.599   4.071
13629W        W78856  10.151  26.007   3.298
13630W        W78857  27.169  28.385  12.172
13631W        W78858   9.950  39.079   1.853
13632W        W78859  36.391  24.368  11.611
13633W        W78860  33.178   5.367  14.838
13634W        W78861  19.010   2.972   3.345
13635W        W78862  43.873  10.095  12.947
13636W        W78863  17.037  17.791   4.116
13637W        W78864  37.669  33.433   4.595
13638W        W78865  16.457  15.196  10.775
13639W        W78866   8.772  42.003   4.543
13640W        W78867  17.136   9.120  14.434
13641W        W78868   8.232  17.026  11.519
13642W        W78869  44.094  43.518  12.667
13643W        W78870  28.409  26.657  10.999
13644W        W78871   5.866  44.438   0.285
13645W        W78872   5.163   1.041  12.866
13646W        W78873   2.160  25.983  13.952
13647W        W78874  40.831  42.915   1.920
13648W        W78875  36.091  42.936  12.559
13649W        W78876   9.858  41.057  12.873
13650W        W78877  44.349  32.226   4.242
13651W        W78878   8.213  35.206  14.370
13652W        W78879  17.908  28.123   1.406
13653W        W78880  27.675   8.218   1.423
13654W        W78881  21.290   5.359   0.264
13655W        W78882  35.209  27.568  13.530
13656W        W78883  18.213  19.998  11.098
13657W        W78884  16.586  12.406  14.453
13658W        W78885  28.698  31.902  12.455
13659W        W78886  14.767  26.396   0.688
13660W        W78887  33.818  21.521  13.967
13661W        W78888  25.348  12.205  11.182
13662W        W78889  34.739  33.984   0.244
13663W        W78890  32.815  29.197   4.581
13664W        W78891  42.159  31.453   2.756
13665W        W78892  13.032  32.985  13.398
13666W        W78893  40.542  29.479  12.980
13667W        W78894   2.385  34.734  10.722
13668W        W78895  38.317  11.106   4.603
13669W        W78896   6.557   3.852  11.245
13670W        W78897  25.227   3.327  11.610
13671W        W78898  41.991  17.562   1.262
13672W        W78899  34.149  19.968  14.914
13673W        W78900   0.625   0.345  11.539
13674W        W78901  10.694  19.166   3.222
13675W        W78902   9.542  42.138  12.064
13676W        W78903   8.149   4.991   2.826
13677W        W78904  41.812  24.448  12.458
13678W        W78905  10.908  30.182   0.693
13679W        W78906  34.082  26.173  13.368
13680W        W78907  26.727  32.639  12.032
13681W        W78908  16.299   2.501  11.643
13682W        W78909  38.388  43.548   4.760
13683W        W78910  27.957  42.286  11.628
13684W        W78911  43.889  42.938  13.976
13685W        W78912   2.331   3.240   2.454
13686W        W78913   4.884  39.917  12.388
13687W        W78914  15.778  23.274   3.162
13688W        W78915  35.422  24.189   3.673
13689W        W78916   1.724  22.443   3.247
13690W        W78917   0.943  41.710  11.808
13691W        W78918  23.820  34.579  13.221
13692W        W78919   8.731  23.601  11.012
13693W        W78920  12.439   2.201   0.658
13694W        W78921  25.750  44.453   1.910
13695W        W78922  42.546  26.651  11.602
13696W        W78923  41.805  43.832  12.374
13697W        W78924  35.015  36.962   0.627
13698W        W78925  11.865  14.065  13.849
13699W        W78926  10.089  14.295  13.395
13700W        W78927  14.378  39.134   4.568
13701W        W78928  23.641  17.221   0.431
13702W        W78929  16.163  12.589   3.880
13703W        W78930   8.134  18.654  11.342
13704W        W78931  11.833  41.113  13.922
13705W        W78932  23.949  33.050  11.297
13706W        W78933  13.457  32.165   1.931
13707W        W78934  41.305  36.313   1.151
13708W        W78935  38.266  37.821  14.898
13709W        W78936  22.736  43.208  14.733
13710W        W78937  26.193  24.921   1.283
13711W        W78938   3.283  20.460   2.044
13712W        W78939  38.992  32.124  12.563
13713W        W78940   0.291  31.083  11.501
13714W        W78941  43.159  18.597   2.968
13715W        W78942   0.925  13.531  12.443
13716W        W78943   5.642  20.192   1.517
13717W        W78944  31.866  14.854  12.200
13718W        W78945  22.941  13.188   2.271
13719W        W78946  21.079   8.134   4.179
13720W        W78947   8.593  26.199  14.342
13721W        W78948  37.639  42.330  11.459
13722W        W78949  22.136   8.816  11.733
13723W        W78950  39.973  37.330   3.319
13724W        W78951   1.901   3.788   1.919
13725W        W78952  21.557  25.419  12.938
13726W        W78953  38.492   0.914  10.457
13727W        W78954  23.175  15.076  10.907
13728W        W78955  20.284   3.446  13.994
13729W        W78956   8.418   9.271   3.714
13730W        W78957  25.057  36.622   4.334
13731W        W78958  35.846  32.658   0.851
13732W        W78959   8.350  11.711  12.148
13733W        W78960  10.253  15.075  12.789
13734W        W78961  19.623  31.121  12.372
13735W        W78962  13.997  28.115  14.920
13736W        W78963  42.853  14.057  12.925
13737W        W78964  40.316  12.465   0.343
13738W        W78965  29.933  42.675  14.091
13739W        W78966   5.221   9.693   0.894
13740W        W78967   8.440  40.087   0.324
13741W        W78968  41.602  44.075   4.342
13742W        W78969  15.507  40.025   4.061
13743W        W78970   2.423  29.686  13.845
13744W        W78971   7.640  30.527   3.252
13745W        W78972  30.943   6.644   1.924
13746W        W78973   5.424  34.037  10.681
13747W        W78974  16.906   1.033  11.638
13748W        W78975  22.152  12.908  13.449
13749W        W78976   3.807  22.652  10.689
13750W        W78977   8.240   8.165  14.796
13751W        W78978  32.710  10.675   4.436
13752W        W78979  16.293  22.233  10.462
13753W        W78980  30.508  27.766   3.067
13754W        W78981   9.841  16.556   2.155
13755W        W78982  26.610  38.500  13.154
13756W        W78983  20.340  14.133   1.219
13757W        W78984  23.545  26.545   0.308
13758W        W78985  21.617   8.863  11.007
13759W        W78986  24.672  21.589   4.103
13760W        W78987  34.984  13.579   1.104
13761W        W78988  16.593  40.076   2.990
13762W        W78989  29.388  43.989  14.733
13763W        W78990   6.538  20.438  13.841
13764W        W78991   2.995  11.073   4.569
13765W        W78992   4.819  29.156   2.529
13766W        W78993  38.109  29.978   1.959
13767W        W78994  33.916   9.231  13.044
13768W        W78995  10.852  40.811  12.881
13769W        W78996  27.705   1.337   0.517
13770W        W78997   2.056  28.800   4.867
13771W        W78998  36.314  13.317   3.273
13772W        W78999  25.903  28.481   1.827
13773W        W79000   6.493  17.196  13.531
13774W        W79001  41.277  35.447   3.563
13775W        W79002  38.960   3.036  14.905
13776W        W79003  24.082  33.916   2.226
13777W        W79004  25.826   8.678   2.865
13778W        W79005  44.856   4.844   3.682
13779W        W79006  14.260  31.668  13.413
13780W        W79007  29.651  25.481   4.169
13781W        W79008  38.384  21.494  14.195
13782W        W79009  31.178  14.004  10.441
13783W        W79010  25.965  36.913  12.143
13784W        W79011  30.846  26.099  10.237
13785W        W79012  43.793  21.546  12.370
13786W        W79013  33.626  12.536  13.033
13787W        W79014  41.096  15.903  10.107
13788W        W79015  12.201  44.785  13.602
13789W        W79016  31.980  39.683  14.816
13790W        W79017  17.218  17.068   3.689
13791W        W79018  40.568  31.071   3.644
13792W        W79019   9.434   5.266   4.345
13793W        W79020   9.103  37.195  12.065
13794W        W79021   8.294  25.703   2.754
13795W        W79022  35.433  24.445   0.458
13796W        W79023  13.652  31.908   0.708
13797W        W79024  40.454   3.889   4.012
13798W        W79025  37.491  34.594  11.236
13799W        W79026  11.754   9.069  12.121
13800W        W79027   8.162  42.414  10.808
13801W        W79028  11.637  10.161  14.864
13802W        W79029  23.588   6.469   4.055
13803W        W79030  18.785  31.901   2.417
13804W        W79031   8.830  24.689   1.808
13805W        W79032  10.863  28.069  11.718
13806W        W79033  30.908  17.263  14.367
13807W        W79034  25.159  44.928   2.892
13808W        W79035   5.945   8.746   1.909
13809W        W79036  28.614  33.694   1.251
13810W        W79037  33.693  30.505  11.215
13811W        W79038  43.832  15.619   1.658
13812W        W79039  11.707  43.535  12.575
13813W        W79040  21.111  19.994  14.930
13814W        W79041  36.527  11.633  13.833
13815W        W79042  40.329   2.427   2.185
13816W        W79043   1.805   2.423   4.184
13817W        W79044  10.897   2.497  13.459
13818W        W79045  27.180  28.657   2.341
13819W        W79046  30.544  10.217   3.220
13820W        W79047   7.745  12.834   0.979
13821W        W79048   8.544  10.729  12.550
13822W        W79049   3.876  39.374   4.521
13823W        W79050   1.229  15.687   4.793
13824W        W79051  41.862  17.900  12.514
13825W        W79052   2.018  30.968  10.922
13826W        W79053  44.934  10.700   3.255
13827W        W79054   0.498  26.435   3.450
13828W        W79055  10.200  21.288   3.383
13829W        W79056  16.627  32.618   0.320
13830W        W79057  22.071  34.577   1.092
13831W        W79058  37.951  13.805   2.252
13832W        W79059   5.312  20.920  13.076
13833W        W79060  28.587  19.503  14.270
13834W        W79061  22.533  14.286  11.159
13835W        W79062  30.640  14.338  14.271
13836W        W79063  15.162  25.015  14.341
13837W        W79064   0.801  36.663   3.247
13838W        W79065   5.439  34.924  11.668
13839W        W79066   1.426  31.448   3.107
13840W        W79067  43.462  14.757  13.813
13841W        W79068  28.953  22.086  11.281
13842W        W79069  10.476  26.479  11.184
13843W        W79070  19.059   2.571  11.204
13844W        W79071  14.623  13.414  10.847
13845W        W79072  13.725  26.217   0.576
13846W        W79073  32.963  38.041   0.792
13847W        W79074   2.279  39.330  12.920
13848W        W79075  35.473  29.460  13.383
13849W        W79076  31.933   4.745  10.239
13850W        W79077  17.366  41.848  11.995
13851W        W79078  40.944  41.911   2.315
13852W        W79079  22.682  28.503  12.124
13853W        W79080  24.102  23.071  13.248
13854W        W79081  11.097  36.062  12.118
13855W        W79082  20.189  23.105   3.305
13856W        W79083  13.436  39.420  11.517
13857W        W79084  36.832  20.548   3.245
13858W        W79085  30.540  36.071  12.885
13859W        W79086  13.320   3.446  11.234
13860W        W79087   4.987  44.624   4.678
13861W        W79088  16.202  43.452   0.795
13862W        W79089  27.527  37.963   2.451
13863W        W79090  27.908   0.855   4.086
13864W        W79091  22.618  21.217  14.718
13865W        W79092  44.480  35.046  12.666
13866W        W79093  37.478  28.848   2.442
13867W        W79094  22.019  30.883  14.904
13868W        W79095  42.725   0.767   0.318
13869W        W79096  23.974   7.704  11.577
13870W        W79097  43.649  28.269   4.372
13871W        W79098  39.537  18.539   2.414
13872W        W79099  41.169  17.124  12.568
13873W        W79100  34.128   9.228  13.511
13874W        W79101  15.004  33.891  13.587
13875W        W79102  10.179  12.232  11.541
13876W        W79103  20.620  32.963  12.091
13877W        W79104   1.982  41.612   1.604
13878W        W79105  35.572  10.907   3.049
13879W        W79106   9.459  21.480   1.231
13880W        W79107   2.583  36.914   2.992
13881W        W79108  29.517  34.440   2.392
13882W        W79109  31.434  36.824   3.515
13883W        W79110  11.266  43.598  11.595
13884W        W79111  34.383  28.482  10.086
13885W        W79112  34.043  19.783  12.501
13886W        W79113  32.444  37.326  12.029
13887W        W79114   6.517  34.164   0.473
13888W        W79115  11.857  29.596   4.693
13889W        W79116  24.805  22.147   2.317
13890W        W79117   9.725  24.883   1.637
13891W        W79118  19.509  34.673   4.131
13892W        W79119  24.286  32.933  11.703
13893W        W79120   1.026  10.641   1.974
13894W        W79121  20.141   2.507   4.066
13895W        W79122  30.671   3.938  10.959
13896W        W79123  25.434  22.557  11.894
13897W        W79124  19.936  41.386  13.646
13898W        W79125  26.445  20.547  13.926
13899W        W79126   7.843   8.163   4.052
13900W        W79127  31.882  37.396  14.422
13901W        W79128   8.563  18.989  11.999
13902W        W79129  12.254  27.451  14.542
13903W        W79130  35.476  20.851  12.476
13904W        W79131  44.434  16.532   3.767
13905W        W79132   6.942  16.818   4.705
13906W        W79133  11.975  18.197   4.728
13907W        W79134  42.363  10.555   2.299
13908W        W79135  14.521  17.209   4.449
13909W        W79136  34.353   8.253   0.868
13910W        W79137  10.770  11.554   2.217
13911W        W79138  42.832   7.385   2.550
13912W        W79139   7.453   0.441   3.184
13913W        W79140  23.037  30.513  14.308
13914W        W79141  21.626   0.880   2.221
13915W        W79142  33.142  36.835  12.495
13916W        W79143  35.045   4.180   2.582
13917W        W79144   5.455  19.378   2.604
13918W        W79145  34.922  31.495  11.561
13919W        W79146   3.709  34.932   0.701
13920W        W79147   9.462  31.200   1.455
13921W        W79148  24.141   4.781   2.762
13922W        W79149  27.981   4.456   1.752
13923W        W79150  30.425  33.764   0.640
13924W        W79151   2.610  39.210   0.386
13925W        W79152  22.167  26.696  11.578
13926W        W79153  40.481  28.042   2.805
13927W        W79154  22.411  30.514   1.649
13928W        W79155  34.578   5.289  14.480
13929W        W79156  12.675  10.772  10.342
13930W        W79157  15.115  31.736  11.373
13931W        W79158   1.163  12.828  10.253
13932W        W79159  40.917   7.273   2.692
13933W        W79160  22.497  32.711  13.616
13934W        W79161  35.003  12.902   2.179
13935W        W79162   0.662   9.822  11.200
13936W        W79163  18.115  32.555   3.781
13937W        W79164  31.662   9.152  13.442
13938W        W79165  38.883  41.728  11.293
13939W        W79166   3.770   5.328   4.544
13940W        W79167  24.605  22.940  13.082
13941W        W79168  40.628  30.646   4.498
13942W        W79169  14.857   6.224   3.299
13943W        W79170   9.409   6.252   3.237
13944W        W79171  21.292  40.250  13.822
13945W        W79172   5.543  13.422  14.489
13946W        W79173  19.720  13.150   4.308
13947W        W79174  28.856   8.397   3.659
13948W        W79175  36.420  18.353   1.267
13949W        W79176  29.951  41.001  13.367
13950W        W79177   3.902   5.350  10.635
13951W        W79178  41.582   6.466  14.832
13952W        W79179  18.571  13.484  14.302
13953W        W79180   2.711  15.778  14.990
13954W        W79181   1.274   8.938   1.235
13955W        W79182  22.415  13.811  13.502
13956W        W79183  37.107   8.365   4.335
13957W        W79184  30.703  21.246   0.809
13958W        W79185  17.528   3.668   0.263
13959W        W79186  16.618  33.129   0.244
13960W        W79187   6.460  23.369   1.922
13961W        W79188   8.838  43.691  12.409
13962W        W79189  23.480  27.853  10.931
13963W        W79190  27.958   5.315   2.013
13964W        W79191   3.047   7.630  11.618
13965W        W79192  11.195  23.519   0.894
13966W        W79193  28.286  19.369  12.034
13967W        W79194   5.456  28.170   1.205
13968W        W79195   2.454  17.888  11.424
13969W        W79196  37.359  33.892   0.029
13970W        W79197   7.902   4.305  11.157
13971W        W79198   9.774  40.822  13.341
13972W        W79199   7.208   8.528  11.004
13973W        W79200  20.073  39.544   3.975
13974W        W79201  20.216  42.080   3.322
13975W        W79202  30.168  30.343  12.045
13976W        W79203  23.181  34.444   4.232
13977W        W79204   6.178   5.174  11.728
13978W        W79205  20.930  26.984   0.960
13979W        W79206  10.330  20.082   1.031
13980W        W79207  33.973  31.457   3.217
13981W        W79208  32.814  12.477   5.486
13982W        W79209   7.398   1.937  14.705
13983W        W79210  23.044  35.451  11.891
13984W        W79211   0.204  42.974   3.950
13985W        W79212  23.009   7.888  12.957
13986W        W79213  43.958  29.021  13.121
13987W        W79214  17.709  27.619   1.470
13988W        W79215  23.862  16.303   0.896
13989W        W79216  28.118  44.157   0.763
13990W        W79217  18.045   8.128  14.808
13991W        W79218  28.883  14.790   3.696
13992W        W79219  13.717  12.272  13.101
13993W        W79220  38.163   5.230   9.803
13994W        W79221  13.836   5.477   2.282
13995W        W79222  13.323  21.887   0.762
13996W        W79223  26.469  35.304   1.754
13997W        W79224  39.385  43.782   2.227
13998W        W79225  33.588  28.123  11.024
13999W        W79226  18.049  18.064   2.463
14000W        W79227  28.862   9.280   0.483
14001W        W79228  27.727  39.883   1.774
14002W        W79229   8.911  21.749  11.888
14003W        W79230   8.735  30.144  14.380
14004W        W79231   7.302   1.752   1.738
14005W        W79232   0.142  11.536  11.101
14006W        W79233   7.288   0.392  14.606
14007W        W79234  33.160   3.813  13.033
14008W        W79235  24.752  21.423   1.765
14009W        W79236  41.480   4.737   1.047
14010W        W79237  20.107  42.883   2.962
14011W        W79238  44.553  12.797  12.964
14012W        W79239  44.531  24.985  11.885
14013W        W79240  36.070  29.135  11.140
14014W        W79241  38.461  42.826   0.592
14015W        W79242  11.665   3.401   0.416
14016W        W79243  24.544  43.361   2.652
14017W        W79244  24.960   1.224  13.870
14018W        W79245  17.201  36.292   3.317
14019W        W79246  12.191  40.910   0.640
14020W        W79247  35.846   7.300   2.597
14021W        W79248  33.575   8.751   4.531
14022W        W79249  33.128  39.065   1.910
14023W        W79250   3.577  23.832   3.680
14024W        W79251  10.135  37.268  13.292
14025W        W79252   8.102   3.011  12.926
14026W        W79253  25.945   5.341   2.320
14027W        W79254  27.151  44.090  14.320
14028W        W79255  13.217  18.761  14.161
14029W        W79256  38.331  16.577   4.573
14030W        W79257  24.605  35.945  12.029
14031W        W79258  16.210  12.128  10.372
14032W        W79259  39.316  11.659  11.021
14033W        W79260  38.383   3.278   4.970
14034W        W79261  16.176  27.635  12.453
14035W        W79262  17.679  12.181   3.834
14036W        W79263  39.113  20.084  12.600
14037W        W79264  31.683   3.186   1.440
14038W        W79265  39.361  39.767   4.986
14039W        W79266   1.419   9.334   0.169
14040W        W79267   6.164  18.931   3.047
14041W        W79268  34.127  27.015   3.539
14042W        W79269  20.626  10.967   0.857
14043W        W79270  42.010  44.310   4.612
14044W        W79271  19.307  42.287   0.705
14045W        W79272  14.620  36.342  14.969
14046W        W79273  32.357   7.867   0.860
14047W        W79274   6.886   3.762  12.209
14048W        W79275  24.052  14.871   2.652
14049W        W79276  16.715  26.616  10.675
14050W        W79277  24.295  43.744   4.728
14051W        W79278  17.233  27.697   4.213
14052W        W79279  13.721  35.343   2.645
14053W        W79280  40.025  10.261  13.128
14054W        W79281  11.793  29.458   1.548
14055W        W79282  26.716  23.142   1.710
14056W        W79283  15.719  34.134  14.760
14057W        W79284  28.204   5.558  10.733
14058W        W79285  33.219  28.500   4.088
14059W        W79286  43.380  39.151   3.341
14060W        W79287  23.027   4.509   4.388
14061W        W79288  14.999  25.956   3.297
14062W        W79289  29.718  30.398  10.753
14063W        W79290  15.903  17.097  14.912
14064W        W79291  22.799  10.124   1.599
14065W        W79292  30.361  35.028  11.662
14066W        W79293  18.565   3.464   4.167
14067W        W79294  40.321   7.583   1.944
14068W        W79295  29.070  42.763   0.895
14069W        W79296   8.172  21.162  10.767
14070W        W79297  37.842   8.262   0.374
14071W        W79298   5.116  13.768   1.760
14072W        W79299  41.571  30.414  11.876
14073W        W79300  32.954   0.138   3.701
14074W        W79301  17.097   4.473  13.932
14075W        W79302  32.395   7.134  13.471
14076W        W79303   8.237  42.019  14.894
14077W        W79304  31.363  20.009   1.378
14078W        W79305  32.329  19.024  13.968
14079W        W79306  10.618   1.287   2.891
14080W        W79307   4.811  22.577   0.363
14081W        W79308  23.026  39.790  14.828
14082W        W79309  20.313  44.778   3.423
14083W        W79310  13.600  15.755  11.558
14084W        W79311  24.156  33.743  12.043
14085W        W79312  27.626   0.021   5.723
14086W        W79313  20.141  26.516  10.622
14087W        W79314  31.085  27.546  13.829
14088W        W79315  15.848   4.391   1.383
14089W        W79316   1.046   5.348  14.312
14090W        W79317  40.539  38.513  13.948
14091W        W79318  17.227   1.674  13.050
14092W        W79319   5.710  36.320   2.309
14093W        W79320   2.265  12.262   2.184
14094W        W79321   3.673   7.790   3.103
14095W        W79322  11.589   2.044   5.110
14096W        W79323   1.623  37.191   5.021
14097W        W79324  12.577  21.746   1.976
14098W        W79325  41.721   2.489   0.824
14099W        W79326  13.655  27.075  10.939
14100W        W79327  30.790  10.478  12.500
14101W        W79328  13.272  20.139   0.382
14102W        W79329   1.751  10.228   3.241
14103W        W79330  40.997  35.014   2.704
14104W        W79331   3.765  37.840   4.721
14105W        W79332  17.826  31.153  12.600
14106W        W79333  14.780   8.434   0.869
14107W        W79334  19.613  35.063  14.354
14108W        W79335  11.753   7.114   9.962
14109W        W79336  24.197  21.656  10.387
14110W        W79337  39.566  26.194   4.918
14111W        W79338  15.435  34.056  11.954
14112W        W79339   8.564  15.924  10.083
14113W        W79340  35.849  36.399   2.238
14114W        W79341   1.685  31.481  13.107
14115W        W79342  31.910  30.393  13.026
14116W        W79343  16.686  33.480   2.844
14117W        W79344  38.881  44.292  11.602
14118W        W79345  21.066  24.839  12.327
14119W        W79346  20.306  32.588  14.904
14120W        W79347  30.646  40.025  12.664
14121W        W79348  28.581  37.418  11.088
14122W        W79349  10.882  29.041  13.090
14123W        W79350   5.306  15.836  13.898
14124W        W79351  33.454   6.653   1.800
14125W        W79352  41.269  11.784   0.012
14126W        W79353  39.927  38.530   2.785
14127W        W79354   3.905  38.577  13.008
14128W        W79355   0.529  41.882  11.543
14129W        W79356  36.162   0.233  11.229
14130W        W79357  30.126  18.750  10.924
14131W        W79358  10.638  34.416   1.360
14132W        W79359  27.211  41.903   2.250
14133W        W79360  40.542   8.104  13.582
14134W        W79361   5.106  30.428  14.868
14135W        W79362  13.624  11.282  14.538
14136W        W79363   2.173  17.198   2.351
14137W        W79364  34.370   0.711  11.677
14138W        W79365  16.392  24.053   1.392
14139W        W79366  24.232   4.352   1.615
14140W        W79367  33.072  29.465   0.750
14141W        W79368  13.129  40.344  13.405
14142W        W79369   2.876  21.236   4.550
14143W        W79370   6.758  29.224   2.672
14144W        W79371  31.066  26.556   4.090
14145W        W79372  38.030   7.148  12.915
14146W        W79373  34.546   6.957  12.023
14147W        W79374  16.301  37.245  13.940
14148W        W79375  24.695  17.447  10.797
14149W        W79376  40.808  12.653   3.720
14150W        W79377   4.849  13.792   2.393
14151W        W79378  40.399  14.023  12.872
14152W        W79379  10.309  14.854   4.040
14153W        W79380  17.697   6.749   2.299
14154W        W79381  40.183  35.888   1.769
14155W        W79382  23.025  39.934  13.857
14156W        W79383  40.009  27.791   2.703
14157W        W79384   0.137  23.533  11.795
14158W        W79385  18.816  10.259   4.978
14159W        W79386  15.746  34.159   1.258
14160W        W79387  40.854  29.640   2.762
14161W        W79388  40.521  31.673  13.650
14162W        W79389  14.808  23.084   3.107
14163W        W79390  17.732   6.846   3.186
14164W        W79391  26.432  25.517   3.856
14165W        W79392   7.933  29.600   3.752
14166W        W79393  32.906  23.089  13.855
14167W        W79394  36.603  18.787   4.839
14168W        W79395  24.843  37.864  10.611
14169W        W79396  42.122  25.268  14.764
14170W        W79397  25.161   9.875  11.904
14171W        W79398  35.215  23.149  13.130
14172W        W79399  29.620  32.157  13.330
14173W        W79400  38.837  14.357  14.001
14174W        W79401  38.253   3.486   2.193
14175W        W79402  16.021  29.580   2.861
14176W        W79403  24.827  43.596  11.364
14177W        W79404  40.949  36.639   2.430
14178W        W79405  37.876  17.621   1.300
14179W        W79406  32.119  20.492   1.279
14180W        W79407  28.950  12.181   2.855
14181W        W79408  22.688  12.835  10.809
14182W        W79409  41.837  29.235   2.208
14183W        W79410   9.619  18.152   4.274
14184W        W79411  39.486   3.246  11.179
14185W        W79412  24.051  29.490   3.783
14186W        W79413  25.672  26.793  12.915
14187W        W79414  29.410   7.386  10.725
14188W        W79415   6.156  36.959  14.795
14189W        W79416  11.889  23.205   4.242
14190W        W79417  16.226  32.183   2.493
14191W        W79418  18.088  31.394  13.792
14192W        W79419  30.629  44.267  13.129
14193W        W79420  18.086  28.094   4.436
14194W        W79421  19.040   5.878   3.725
14195W        W79422  44.427  37.555   0.900
14196W        W79423  35.613  41.473   1.345
14197W        W79424  21.436  32.860   2.759
14198W        W79425  31.747  44.896  10.601
14199W        W79426  28.676  32.637   1.369
14200W        W79427  12.066  13.587  13.967
14201W        W79428  14.316  24.005  13.264
14202W        W79429  14.596  32.689   1.077
14203W        W79430  28.597  13.272  13.966
14204W        W79431  24.211  10.353   3.271
14205W        W79432  40.426  10.839   1.973
14206W        W79433  12.013  42.827   4.917
14207W        W79434  34.984  32.453   3.622
14208W        W79435  28.654   5.696  14.805
14209W        W79436  31.066   0.763  11.123
14210W        W79437  19.062  39.345  13.538
14211W        W79438  43.681  42.638   4.610
14212W        W79439   1.891  25.500  11.004
14213W        W79440  17.281  16.908  11.198
14214W        W79441  17.171   9.175   3.201
14215W        W79442   8.454  27.095  13.438
14216W        W79443  19.182   7.086   1.989
14217W        W79444   4.753  28.631  11.700
14218W        W79445  12.171  31.060   5.037
14219W        W79446  15.682  11.404  10.756
14220W        W79447  10.069  17.167   3.206
14221W        W79448  29.166  24.501   0.783
14222W        W79449  22.964  24.375  14.642
14223W        W79450  23.307  17.291  14.454
14224W        W79451  34.097  26.936   1.643
14225W        W79452  33.106  26.032  14.917
14226W        W79453  17.382   0.499  13.284
14227W        W79454  37.032  14.839  13.637
14228W        W79455  24.157  32.545  12.992
14229W        W79456  24.425  11.736  11.127
14230W        W79457   9.237  35.178  13.099
14231W        W79458  16.590  37.609   4.091
14232W        W79459  28.375  27.752  11.611
14233W        W79460  32.943  35.981   1.999
14234W        W79461  40.303   2.646   0.884
14235W        W79462   9.713   7.854   4.708
14236W        W79463  41.297  23.059   1.647
14237W        W79464  25.711  20.697   4.459
14238W        W79465  21.000  23.272   2.689
14239W        W79466   8.794   2.321  10.339
14240W        W79467  26.950   1.815   2.819
14241W        W79468   2.187  25.508  11.615
14242W        W79469  20.680  10.381  14.831
14243W        W79470  10.244  18.640   1.309
14244W        W79471  17.577  34.923  10.586
14245W        W79472  26.091  23.096  14.924
14246W        W79473  22.701  25.890   3.684
14247W        W79474  29.385  42.329   4.661
14248W        W79475  12.934  11.108   1.438
14249W        W79476   2.289   8.730  10.229
14250W        W79477  29.958  31.036  12.838
14251W        W79478  43.390  43.321   3.011
14252W        W79479   5.122  13.707  14.235
14253W        W79480   4.858  13.118  12.155
14254W        W79481  41.000  10.232   4.366
14255W        W79482  26.700  34.401   1.688
14256W        W79483  20.499  27.682  11.112
14257W        W79484  41.864   2.721  10.731
14258W        W79485  20.987  32.480  12.038
14259W        W79486   6.681   0.283   1.913
14260W        W79487  30.235  19.127   2.806
14261W        W79488   2.438  21.934  11.531
14262W        W79489  38.890   9.701  14.508
14263W        W79490   8.085  23.243  13.641
14264W        W79491  32.234  31.026  13.558
14265W        W79492  40.581  21.747   2.286
14266W        W79493  27.769  29.892   1.224
14267W        W79494   0.884  23.396   0.268
14268W        W79495  43.960  19.783   2.239
14269W        W79496  19.106  20.604  11.006
14270W        W79497  28.597  11.167  13.616
14271W        W79498  13.626   6.937   2.477
14272W        W79499   7.188  33.189   1.827
14273W        W79500  14.320  23.605   2.842
14274W        W79501   1.180  28.918   3.154
14275W        W79502  11.380  12.923   3.982
14276W        W79503  10.218   9.238   3.717
14277W        W79504  18.113   8.583  11.780
14278W        W79505  10.469  28.017  11.392
14279W        W79506  44.909  17.990  10.156
14280W        W79507  14.203  11.520  13.585
14281W        W79508   5.822  23.167  13.746
14282W        W79509  29.876  37.537  12.970
14283W        W79510   4.936  26.540  12.678
14284W        W79511  12.030  33.902   1.738
14285W        W79512  43.022  39.766  13.939
14286W        W79513  28.453  43.420   4.601
14287W        W79514  12.233  43.809   2.315
14288W        W79515  30.101  10.493   3.248
14289W        W79516  40.917   3.897   1.654
14290W        W79517  35.654   6.339   1.464
14291W        W79518   6.943  40.066   3.247
14292W        W79519   1.887  23.247   0.380
14293W        W79520  16.832  27.469  12.550
14294W        W79521  10.890   1.752  11.523
14295W        W79522  33.989  25.475  12.924
14296W        W79523  11.220  31.634  12.149
14297W        W79524   7.614   1.297  13.082
14298W        W79525  12.311   8.351   2.421
14299W        W79526  11.169  15.258  14.247
14300W        W79527   2.305  20.499  14.767
14301W        W79528  21.534  42.964  11.743
14302W        W79529  12.262  24.511  11.769
14303W        W79530  16.665  31.580  10.981
14304W        W79531  29.725  13.704   2.223
14305W        W79532  34.510  22.226  12.357
14306W        W79533   4.518  36.980  13.878
14307W        W79534   3.245  38.448   0.473
14308W        W79535  23.028  38.414  13.487
14309W        W79536   9.534  23.534   5.028
14310W        W79537  25.984  12.541  14.442
14311W        W79538  19.097  38.967   0.247
14312W        W79539   7.368   0.342  12.885
14313W        W79540  13.391  28.476  12.987
14314W        W79541  26.014  27.017  14.592
14315W        W79542  16.895  19.699  13.447
14316W        W79543  16.681  20.307   1.711
14317W        W79544  37.450  27.570   2.911
14318W        W79545  31.943  32.140   1.358
14319W        W79546  36.943  25.998  12.003
14320W        W79547   7.768  27.451  11.493
14321W        W79548  33.817  38.943   4.210
14322W        W79549  43.249  41.824   4.134
14323W        W79550  26.976  26.647  14.405
14324W        W79551  38.384   1.295  12.403
14325W        W79552  24.597  23.031   0.420
14326W        W79553   2.761  43.438  13.784
14327W        W79554   7.445   4.144   4.196
14328W        W79555  33.895  12.167   1.970
14329W        W79556   5.882  13.190   0.676
14330W        W79557  17.994  37.474   3.200
14331W        W79558  42.475  40.435  10.663
14332W        W79559  31.351  31.966  13.433
14333W        W79560  11.103  37.000   0.837
14334W        W79561  29.465  20.605  10.663
14335W        W79562   7.454  34.639   1.983
14336W        W79563  21.552  38.862  13.784
14337W        W79564  39.101   2.691   4.184
14338W        W79565  26.840  29.501  14.583
14339W        W79566  24.165  27.269   2.814
14340W        W79567  31.140  39.977  12.497
14341W        W79568  15.587  24.714   2.348
14342W        W79569  34.667  34.478   4.859
14343W        W79570   9.561  32.888  12.697
14344W        W79571  33.497  10.285   3.779
14345W        W79572  18.788  44.646  12.385
14346W        W79573  38.916   5.424   0.382
14347W        W79574   2.280   7.877  10.757
14348W        W79575  16.070  18.771  10.752
14349W        W79576  11.761  40.328  13.142
14350W        W79577  28.843   0.427  12.953
14351W        W79578  28.009  41.853  14.335
14352W        W79579  36.062  38.012   3.579
14353W        W79580  29.723  20.977  11.027
14354W        W79581   3.352  38.135   2.802
14355W        W79582   9.085   4.035   0.003
14356W        W79583  43.466   1.508   2.417
14357W        W79584  16.767  24.490  12.032
14358W        W79585  18.712  21.719  11.199
14359W        W79586  20.198   0.213   1.672
14360W        W79587  27.740  23.470   3.997
14361W        W79588  42.031  23.669  12.115
14362W        W79589  17.143  29.361   4.588
14363W        W79590  39.778  41.419  14.020
14364W        W79591  29.539  31.982  10.605
14365W        W79592  36.996  44.749  14.256
14366W        W79593   0.231  42.988   4.972
14367W        W79594  32.844  22.998   3.122
14368W        W79595  14.280  30.502   3.587
14369W        W79596   7.652   8.512  11.805
14370W        W79597   7.193   5.187   3.814
14371W        W79598  24.528   4.303  14.337
14372W        W79599  31.223  41.660   1.368
14373W        W79600  41.409   3.644  10.880
14374W        W79601   5.541  30.763   4.109
14375W        W79602  16.694   0.610  14.736
14376W        W79603  44.789  44.376   1.478
14377W        W79604  17.132  28.118  13.866
14378W        W79605  18.831  12.702   3.675
14379W        W79606  16.726  31.325   3.826
14380W        W79607  29.411  17.430   4.103
14381W        W79608  16.938   5.817   3.734
14382W        W79609  41.555  27.208   4.044
14383W        W79610  17.466   7.275   3.252
14384W        W79611  11.714  42.249   4.111
14385W        W79612   9.992   9.692   1.687
14386W        W79613   9.280  35.827  12.465
14387W        W79614  20.899  40.832   4.164
14388W        W79615  17.396   2.924   3.433
14389W        W79616  30.923   4.298   4.220
14390W        W79617  36.649  19.374   2.714
14391W        W79618   6.268  35.091  12.930
14392W        W79619  15.497  38.740  13.382
14393W        W79620  36.966  30.421   2.619
14394W        W79621  11.124  32.937  12.623
14395W        W79622  35.861  18.154  10.894
14396W        W79623   4.297  29.953  13.756
14397W        W79624   7.521  40.243   4.942
14398W        W79625  13.813  32.247   1.543
14399W        W79626  34.703  17.229   2.435
14400W        W79627  25.696   2.762   2.867
14401W        W79628  20.147   7.967   0.398
14402W        W79629  19.621   6.008   4.969
14403W        W79630  28.672  39.616  13.553
14404W        W79631  29.532  33.570  10.675
14405W        W79632  32.154  19.197   0.444
14406W        W79633  13.923  30.965   4.220
14407W        W79634  10.833  30.979  14.997
14408W        W79635  33.991  44.413   3.669
14409W        W79636   4.816  20.543  11.673
14410W        W79637  20.701  11.452  13.313
14411W        W79638  22.068  15.167   4.440
14412W        W79639  33.357  13.660   3.580
14413W        W79640   9.903   3.085   3.500
14414W        W79641  35.256   4.764  14.834
14415W        W79642  43.340  20.499  12.138
14416W        W79643   7.413  12.386   1.304
14417W        W79644  18.788   2.992  13.981
14418W        W79645  19.061   1.409   0.881
14419W        W79646  31.002   7.970  13.030
14420W        W79647  44.731  21.988   3.565
14421W        W79648  37.863  43.527  10.606
14422W        W79649  39.801  23.666  13.836
14423W        W79650  33.975   2.252   2.958
14424W        W79651  20.290  21.115  11.666
14425W        W79652   8.814  25.497  11.665
14426W        W79653  32.645  15.194   0.080
14427W        W79654   4.958   3.857  10.647
14428W        W79655  28.914  12.602  10.700
14429W        W79656  29.696   9.185  14.664
14430W        W79657  41.990  36.431  11.195
14431W        W79658  16.014  33.603  12.832
14432W        W79659  33.088  31.081  13.570
14433W        W79660  19.370  21.566  12.491
14434W        W79661  30.769  31.741   4.744
14435W        W79662  27.584   4.430   3.143
14436W        W79663  31.852  10.858  12.447
14437W        W79664  21.161  19.760   4.083
14438W        W79665  40.604  21.308   4.969
14439W        W79666   9.477   3.067   3.806
14440W        W79667  39.787  16.780  11.412
14441W        W79668  19.048  43.322  13.947
14442W        W79669  42.318  12.806   1.274
14443W        W79670  42.399  28.995  10.658
14444W        W79671  40.591  28.271  13.565
14445W        W79672   1.652  28.889  14.898
14446W        W79673   3.999  29.788  11.152
14447W        W79674  28.198  19.984   0.368
14448W        W79675   4.254   7.377   2.732
14449W        W79676  44.710  13.758   9.838
14450W        W79677  18.054  31.412  11.184
14451W        W79678  20.915   4.187  10.988
14452W        W79679  39.620  25.302   2.626
14453W        W79680  11.668   2.794  11.162
14454W        W79681  19.313  30.675  14.427
14455W        W79682  16.344  43.014  13.191
14456W        W79683  25.550   4.679  14.824
14457W        W79684  28.499   4.657  12.557
14458W        W79685  25.041  41.922   0.233
14459W        W79686  22.030  20.851   0.345
14460W        W79687  22.305  27.638  12.957
14461W        W79688  35.942  14.785  12.520
14462W        W79689  22.102  37.100   2.843
14463W        W79690  18.921   8.118  11.635
14464W        W79691  13.198  30.649  12.036
14465W        W79692  26.230  13.852  12.992
14466W        W79693  22.701  41.034  14.500
14467W        W79694  27.455  14.607  12.648
14468W        W79695  34.498  15.978   1.979
14469W        W79696  19.433  32.854   3.227
14470W        W79697   1.902  19.810  13.058
14471W        W79698  27.184  17.805  14.496
14472W        W79699   8.220  41.810  13.394
14473W        W79700  36.160  12.778   2.854
14474W        W79701  41.246  34.206   4.600
14475W        W79702  39.334  10.666  12.501
14476W        W79703  10.606  36.635   4.062
14477W        W79704   3.390  12.472   1.241
14478W        W79705  17.714  16.526  13.112
14479W        W79706  30.845  35.418   2.527
14480W        W79707  38.814  26.485  11.223
14481W        W79708   5.267   2.053   0.400
14482W        W79709  36.038  14.254  10.884
14483W        W79710  20.072   8.405   1.715
14484W        W79711  33.127  31.063  14.098
14485W        W79712  39.190  28.443   3.632
14486W        W79713  25.538  19.909   2.867
14487W        W79714  37.848  30.908  12.110
14488W        W79715  38.517  23.375  14.349
14489W        W79716  32.994  28.395  13.363
14490W        W79717  17.063  15.128  13.557
14491W        W79718  30.342  11.579   2.181
14492W        W79719  24.999  13.702   0.233
14493W        W79720  13.362  24.060   4.132
14494W        W79721  29.298   7.979   4.112
14495W        W79722  28.765  37.358   2.639
14496W        W79723   6.581  11.075  13.381
14497W        W79724  41.794   8.376  12.070
14498W        W79725  35.425  39.070  13.388
14499W        W79726  26.811  18.758  14.059
14500W        W79727   1.459   5.222   2.700
14501W        W79728  42.042  19.662   9.975
14502W        W79729  28.550   3.802  13.554
14503W        W79730  40.272  17.782  10.669
14504W        W79731  25.994   6.513  11.127
14505W        W79732  36.171  20.847   1.714
14506W        W79733  29.677  31.008  13.807
14507W        W79734  41.037   3.164  12.442
14508W        W79735  37.545   4.682  13.614
14509W        W79736  32.066  19.470  11.468
14510W        W79737  42.834  24.711   3.928
14511W        W79738  32.613   3.766  14.280
14512W        W79739   8.861  39.259  12.472
14513W        W79740  24.093  44.973   4.892
14514W        W79741   0.725   6.959   1.792
14515W        W79742  21.412   7.419   2.854
14516W        W79743  27.916   8.632   2.304
14517W        W79744  16.459  27.212  13.367
14518W        W79745  21.452  44.460   3.629
14519W        W79746  12.080  32.537   0.789
14520W        W79747   7.964   5.484  11.572
14521W        W79748  36.966  23.285   3.434
14522W        W79749  11.072  10.782   0.870
14523W        W79750  33.163  16.779   0.781
14524W        W79751  30.873  15.712   4.048
14525W        W79752  18.217  34.405  12.450
14526W        W79753  25.554  41.404   3.646
14527W        W79754   7.494   2.881   3.728
14528W        W79755  21.817  20.677  11.155
14529W        W79756  19.042   7.694  14.521
14530W        W79757  17.241  38.567  12.588
14531W        W79758  15.538  13.709   0.172
14532W        W79759  44.856  37.785   4.870
14533W        W79760  38.102  24.512  11.666
14534W        W79761  11.128  16.810   2.751
14535W        W79762  37.368  14.276   1.450
14536W        W79763  15.351  14.017  13.444
14537W        W79764  26.706  39.328  13.513
14538W        W79765  14.289   7.659   0.949
14539W        W79766  44.831  11.171   4.512
14540W        W79767  22.628  37.096   3.201
14541W        W79768  30.241  16.188   3.535
14542W        W79769   8.417  27.957  14.302
14543W        W79770  14.098  17.107  11.203
14544W        W79771   8.930   2.754   1.733
14545W        W79772  22.661  25.635   1.306
14546W        W79773  15.247   1.215  13.890
14547W        W79774   5.845  40.315  10.495
14548W        W79775  36.315  22.613  10.837
14549W        W79776  14.822  14.193  14.090
14550W        W79777   8.262  10.966   2.403
14551W        W79778   3.351   0.982   3.405
14552W        W79779   3.226  41.370  10.213
14553W        W79780  42.397  22.613   1.328
14554W        W79781  18.130  23.182   0.463
14555W        W79782  30.853  11.169   2.886
14556W        W79783  24.474  15.393  13.521
14557W        W79784  29.142  24.698   1.712
14558W        W79785  19.464   8.593  13.113
14559W        W79786  33.207  44.427   2.139
14560W        W79787  43.860  22.038  10.695
14561W        W79788  36.466  23.461  11.881
14562W        W79789  29.481  26.234   0.721
14563W        W79790  35.845  28.029   1.385
14564W        W79791  17.598   0.856  14.695
14565W        W79792  25.762   3.178   2.580
14566W        W79793  38.794  14.576  10.582
14567W        W79794   6.523  43.496  11.207
14568W        W79795  43.713  23.680  13.500
14569W        W79796  35.927  29.611   1.107
14570W        W79797  22.021  16.963  12.744
14571W        W79798  14.116  24.558   2.942
14572W        W79799  29.314   1.406  14.339
14573W        W79800   3.309  24.023  12.364
14574W        W79801   9.137  10.766  10.601
14575W        W79802  33.950   3.674  13.773
14576W        W79803  10.897  27.273  12.842
14577W        W79804  32.140  39.798   1.620
14578W        W79805  26.155  40.306   1.187
14579W        W79806  31.038  11.380   0.446
14580W        W79807   3.088  33.355   0.386
14581W        W79808  35.442  19.207  12.132
14582W        W79809   1.184  16.844   3.725
14583W        W79810  18.319   1.433   1.282
14584W        W79811  23.030   7.592   3.664
14585W        W79812  43.861  19.524  11.701
14586W        W79813   4.614  29.851   3.174
14587W        W79814   9.118  44.711   0.319
14588W        W79815  41.210  13.332  11.014
14589W        W79816  16.813  16.314  12.150
14590W        W79817  19.137  30.115  11.700
14591W        W79818  42.881  26.473  10.073
14592W        W79819  41.035  20.398  10.880
14593W        W79820  18.489  35.956   5.122
14594W        W79821  43.574  33.636   3.158
14595W        W79822  41.411   2.714  10.449
14596W        W79823  21.610  18.292   0.234
14597W        W79824  39.813  24.172   3.906
14598W        W79825  22.804  38.277   2.334
14599W        W79826  20.234  17.706  14.417
14600W        W79827  21.536  24.129   2.344
14601W        W79828  36.779   5.172  14.506
14602W        W79829  21.585   9.659   3.306
14603W        W79830  25.214  18.760  14.984
14604W        W79831  40.069  10.237   0.822
14605W        W79832  28.678  19.204   1.276
14606W        W79833   2.564  24.703   0.008
14607W        W79834  24.431  22.834   2.648
14608W        W79835  40.794  33.122  14.526
14609W        W79836  34.805   9.113   3.126
14610W        W79837  21.109  19.116  14.543
14611W        W79838  38.398  44.643   0.299
14612W        W79839  12.077  28.620   4.141
14613W        W79840  39.958  11.570  14.460
14614W        W79841  15.548   5.376   3.295
14615W        W79842  33.442  10.819  14.244
14616W        W79843  29.587  15.872   1.373
14617W        W79844  21.653  33.603   1.513
14618W        W79845   7.505  15.809  12.855
14619W        W79846   9.727   3.983   4.049
14620W        W79847  24.153  21.616  10.910
14621W        W79848  10.634  36.948  10.615
14622W        W79849  38.723  10.123   0.237
14623W        W79850  25.482  20.999  14.330
14624W        W79851  42.377  16.300   0.346
14625W        W79852  11.867  16.312  14.551
14626W        W79853  25.007  27.945   2.468
14627W        W79854   6.001  28.990   3.666
14628W        W79855  42.022  43.688   0.103
14629W        W79856  29.146  31.841   2.299
14630W        W79857   3.376  28.680  11.529
14631W        W79858   9.120   4.657  12.141
14632W        W79859  26.073  40.833   2.648
14633W        W79860  28.688  23.642   4.859
14634W        W79861  44.952  33.629  11.056
14635W        W79862  32.106  17.325   0.163
14636W        W79863  30.921  18.450  11.176
14637W        W79864   8.726  25.415   0.807
14638W        W79865   9.366  23.920   2.039
14639W        W79866   6.232   3.991  10.870
14640W        W79867  24.918   5.274   9.629
14641W        W79868  24.677  23.762  13.996
14642W        W79869  24.258   1.455  11.589
14643W        W79870   7.188  35.873   0.440
14644W        W79871   6.233   1.425  12.132
14645W        W79872  18.451  16.040   1.019
14646W        W79873  43.469  27.055   1.264
14647W        W79874  18.277  43.258  11.185
14648W        W79875  35.023  36.612  13.389
14649W        W79876  32.325  30.441   2.732
14650W        W79877  29.052  36.123  14.939
14651W        W79878   4.904  39.477  12.626
14652W        W79879  13.927  31.897   4.602
14653W        W79880  13.859  33.740   4.628
14654W        W79881   4.688  10.820  13.774
14655W        W79882  39.582  43.984   3.092
14656W        W79883  26.173   6.799   2.177
14657W        W79884  44.559  18.014  12.295
14658W        W79885  33.881  35.135   3.124
14659W        W79886  33.379   8.968  10.125
14660W        W79887  10.807  35.872   1.194
14661W        W79888  21.023   5.739  14.357
14662W        W79889  15.464  25.065  11.140
14663W        W79890  43.063   5.346  10.537
14664W        W79891  19.684  27.533  11.012
14665W        W79892   8.857  32.585  13.182
14666W        W79893  22.112  14.599  11.184
14667W        W79894   4.215  26.470   3.001
14668W        W79895   7.452  29.927   2.323
14669W        W79896  33.097  19.816   1.921
14670W        W79897  44.530   0.451  12.961
14671W        W79898  31.655  14.325   2.257
14672W        W79899  24.067  40.532   0.481
14673W        W79900  42.758  21.443   1.978
14674W        W79901   7.773  33.533   2.747
14675W        W79902  18.569  37.348   2.704
14676W        W79903  32.955  10.811   3.089
14677W        W79904   7.717  38.948  12.841
14678W        W79905  34.121   5.813   3.498
14679W        W79906   8.234  38.365   1.646
14680W        W79907  12.053   2.188  11.357
14681W        W79908  25.500  38.033   3.665
14682W        W79909   7.564  38.323   3.796
14683W        W79910  12.145  10.232   0.337
14684W        W79911  41.433   8.903  11.646
14685W        W79912   4.368  28.613  12.652
14686W        W79913   5.882  35.339  11.959
14687W        W79914   9.447  22.801   3.430
14688W        W79915  22.128  16.958   2.728
14689W        W79916  21.706  40.555   4.152
14690W        W79917  44.513  18.747  13.007
14691W        W79918  20.660  23.025  11.697
14692W        W79919   7.691  28.624   0.826
14693W        W79920   8.682  11.778   1.151
14694W        W79921  27.295  29.718  14.468
14695W        W79922  16.816  18.784   0.722
14696W        W79923  14.197  29.844   2.503
14697W        W79924  10.766  35.385  14.789
14698W        W79925  41.668  13.804   0.934
14699W        W79926  25.769  43.978   0.053
14700W        W79927  41.642  24.118  13.105
14701W        W79928   1.261  26.138   3.156
14702W        W79929  22.376   9.777   1.605
14703W        W79930  27.222  33.938   1.368
14704W        W79931  43.737   6.421  12.146
14705W        W79932   4.906  18.737  14.005
14706W        W79933  31.494  20.061  11.150
14707W        W79934  21.234  16.070  10.915
14708W        W79935  37.564   2.221   1.896
14709W        W79936  35.372  27.293   3.855
14710W        W79937  22.039  28.372  13.386
14711W        W79938  34.937   7.222  13.877
14712W        W79939  42.908  16.814   1.295
14713W        W79940   2.369  18.195  13.440
14714W        W79941  13.672  30.522   1.038
14715W        W79942  41.436   8.645   3.107
14716W        W79943  13.643   9.944  10.835
14717W        W79944  30.517  13.350   1.407
14718W        W79945  16.221  33.478   2.638
14719W        W79946   2.994  32.070   1.810
14720W        W79947   1.592  12.702   3.152
14721W        W79948   5.792  35.248  10.696
14722W        W79949  28.085  37.971  12.548
14723W        W79950   4.666   7.718  12.404
14724W        W79951  13.122  20.142   1.916
14725W        W79952  26.930  41.369  11.039
14726W        W79953   8.571  35.990  11.945
14727W        W79954  37.006   4.784  13.114
14728W        W79955  31.023  23.929  12.674
14729W        W79956  18.483  43.636  11.501
14730W        W79957  38.213  16.551   2.577
14731W        W79958  14.709  14.594   4.660
14732W        W79959  28.985  40.612   0.022
14733W        W79960  20.889   9.887  11.417
14734W        W79961  18.728  13.068  13.493
14735W        W79962   7.219   1.818  11.738
14736W        W79963  36.748  30.113  13.896
14737W        W79964  15.016  32.415  11.119
14738W        W79965  28.736  17.743  13.872
14739W        W79966  39.342  40.124   0.593
14740W        W79967   9.839   3.568   3.726
14741W        W79968   5.860  36.358   3.284
14742W        W79969  15.217   3.245  13.988
14743W        W79970  25.672  14.895   4.267
14744W        W79971   1.678  41.375  10.797
14745W        W79972  19.010   4.537   1.767
14746W        W79973  28.762   3.562   2.317
14747W        W79974   4.142  38.381   4.621
14748W        W79975   0.994  33.439   3.712
14749W        W79976  39.363  26.027  12.098
14750W        W79977   6.717  14.808   0.989
14751W        W79978   1.428   3.835  14.358
14752W        W79979  38.881  12.869   1.868
14753W        W79980  13.372   0.405   3.213
14754W        W79981  14.188  12.618  10.793
14755W        W79982   2.443  23.240   1.723
14756W        W79983   1.369  16.762  13.183
14757W        W79984  26.547   8.879   5.145
14758W        W79985  15.844  37.574  11.965
14759W        W79986  17.757  10.373   2.355
14760W        W79987  28.015  38.157   4.230
14761W        W79988  36.307  24.695  14.565
14762W        W79989  11.351  18.944  10.540
14763W        W79990   6.876  14.197   4.654
14764W        W79991  41.915  26.843  13.310
14765W        W79992  17.143  32.341  12.555
14766W        W79993  14.691  10.382   1.821
14767W        W79994  18.054  38.577   3.228
14768W        W79995  36.340  18.253   4.429
14769W        W79996   4.931  27.899   1.304
14770W        W79997  20.219  26.226  13.513
14771W        W79998  21.458  14.563  14.398
14772W        W79999   1.747   2.413   2.160
14773W        W80000  19.755  13.229   3.756
14774W        W80001  10.156   0.418   5.022
14775W        W80002  13.322   6.267  12.517
14776W        W80003  23.716  11.773   0.713
14777W        W80004  35.818  37.323   0.081
14778W        W80005   7.759  23.708   1.429
14779W        W80006  27.451  43.074   3.234
14780W        W80007  24.730  19.671  12.563
14781W        W80008  13.532  27.903  14.054
14782W        W80009  39.747  19.601  12.948
14783W        W80010   3.287  33.424   1.593
14784W        W80011  30.384  13.318   0.450
14785W        W80012  38.532  36.626  12.043
14786W        W80013  43.305  40.288  12.437
14787W        W80014  32.695   0.732  10.729
14788W        W80015  40.880  18.091   2.094
14789W        W80016   2.298   9.339   4.602
14790W        W80017   9.207  27.281  11.402
14791W        W80018  26.371  43.425  14.356
14792W        W80019  15.266   8.686   3.549
14793W        W80020  36.179  18.562   4.035
14794W        W80021  44.758   6.012   2.712
14795W        W80022  20.469  19.056   0.321
14796W        W80023   6.243  29.155   4.095
14797W        W80024  30.168   7.154  14.090
14798W        W80025  21.727   1.944   0.426
14799W        W80026  25.994  24.587   3.276
14800W        W80027  16.554  15.194  13.506
14801W        W80028  41.434   7.659   0.425
14802W        W80029   4.823   0.945  14.496
14803W        W80030   6.549  40.305   5.165
14804W        W80031   7.166  37.048   0.971
14805W        W80032   3.019  25.580   2.726
14806W        W80033  37.075  26.215   3.048
14807W        W80034   6.883  39.337  10.462
14808W        W80035  17.301   5.315  14.506
14809W        W80036   9.467   2.076  11.941
14810W        W80037  39.897  27.632   4.555
14811W        W80038   5.734  20.213   0.060
14812W        W80039  44.901  11.812  10.723
14813W        W80040   1.476  28.410   2.267
14814W        W80041  16.847  35.541   1.431
14815W        W80042  12.772  14.042   0.377
14816W        W80043   1.497  22.764  11.451
14817W        W80044  10.705  12.827  13.599
14818W        W80045   6.487  24.450  10.935
14819W        W80046  31.367  10.101   4.649
14820W        W80047  14.733  16.027  12.952
14821W        W80048  13.570   4.515   2.373
14822W        W80049   9.740  43.261  14.399
14823W        W80050  15.759  25.795  10.721
14824W        W80051  35.562  12.873   1.246
14825W        W80052   7.856   9.063   3.117
14826W        W80053   5.982   2.281  12.666
14827W        W80054  11.822  17.204   5.031
14828W        W80055  32.632   3.947  11.513
14829W        W80056   1.322   5.687  14.042
14830W        W80057   6.708  39.655  13.117
14831W        W80058  31.302   9.197  10.276
14832W        W80059  21.433  44.247  12.415
14833W        W80060   4.988  12.233   3.013
14834W        W80061   7.595  36.197   4.647
14835W        W80062  31.836   2.454   5.023
14836W        W80063  37.356  25.131   3.765
14837W        W80064  29.948  10.381   4.601
14838W        W80065  38.644  17.148   4.022
14839W        W80066  23.477  42.320  12.493
14840W        W80067  33.165  22.743  14.968
14841W        W80068  23.154   4.415  11.258
14842W        W80069  18.039  29.136  14.459
14843W        W80070  18.899  13.898  14.279
14844W        W80071  21.331  18.273  12.517
14845W        W80072  27.215   8.196  14.917
14846W        W80073  11.014   1.694  11.009
14847W        W80074  25.668  25.096   0.800
14848W        W80075   5.480  21.759   0.647
14849W        W80076  37.117  20.754  13.287
14850W        W80077   1.009  34.969  14.852
14851W        W80078   8.339  38.788  10.277
14852W        W80079   6.181  17.735   3.631
14853W        W80080  23.163  43.046   9.965
14854W        W80081   0.995  29.603  11.117
14855W        W80082  31.953  26.079   2.343
14856W        W80083  24.875  35.332  13.031
14857W        W80084  41.252   0.234  12.160
14858W        W80085   3.875  23.687   3.295
14859W        W80086  38.366  20.561  11.721
14860W        W80087  11.677  10.197  13.404
14861W        W80088  31.634  38.104  10.289
14862W        W80089  43.988  27.149  10.714
14863W        W80090  25.342  16.899  14.834
14864W        W80091  36.578  12.813  13.432
14865W        W80092  16.757  10.758  14.699
14866W        W80093  24.651  42.382   4.643
14867W        W80094   9.240  23.028   0.391
14868W        W80095   2.929  28.262   1.850
14869W        W80096   0.462  33.193  14.093
14870W        W80097  13.262  27.628   4.529
14871W        W80098  39.838  26.554  11.906
14872W        W80099  18.289  27.611   4.611
14873W        W80100  32.776   0.792  14.766
14874W        W80101  26.668  34.174   0.048
14875W        W80102   3.534   6.699   4.998
14876W        W80103  30.525  18.998   3.276
14877W        W80104  37.791  23.150   3.985
14878W        W80105  10.807  36.380   2.709
14879W        W80106  14.185  15.175   0.563
14880W        W80107  26.002  36.039  11.949
14881W        W80108   7.592  13.837   9.891
14882W        W80109   1.762   2.717   3.744
14883W        W80110  30.084   7.872   3.733
14884W        W80111  42.058  39.888  11.278
14885W        W80112   7.660  10.126   4.940
14886W        W80113  35.967  21.155  13.571
14887W        W80114  42.544  41.831   2.245
14888W        W80115  10.000  27.500  10.278
14889W        W80116  16.328  34.601   1.179
14890W        W80117  22.108  26.509  14.875
14891W        W80118  15.419  36.137   3.537
14892W        W80119  36.453  44.515   4.701
14893W        W80120  16.590  44.100  13.966
14894W        W80121  34.614  38.094  11.749
14895W        W80122  35.915  16.066   1.235
14896W        W80123   0.206  22.967  13.974
14897W        W80124  43.055  41.096   3.605
14898W        W80125   4.799  26.726   4.461
14899W        W80126  11.848  14.115  14.353
14900W        W80127  38.394  35.621  10.532
14901W        W80128  30.006  14.139   3.135
14902W        W80129  33.350  22.293   3.181
14903W        W80130  22.107  33.979   4.128
14904W        W80131  29.585  32.074   2.182
14905W        W80132  30.036  25.059   0.911
14906W        W80133  41.547   4.846   4.223
14907W        W80134  32.506  27.421   1.176
14908W        W80135  34.488   5.358   1.975
14909W        W80136   3.358  10.287  11.983
14910W        W80137   9.311  18.524  11.661
14911W        W80138  39.587  34.426   1.921
14912W        W80139  26.169  14.244  10.994
14913W        W80140  44.721  34.848   1.881
14914W        W80141  13.178  18.275  12.072
14915W        W80142  19.082   4.746   0.825
14916W        W80143  18.132   8.252  12.153
14917W        W80144  44.044  38.469  14.905
14918W        W80145  11.093  41.348  14.446
14919W        W80146  14.635  27.559  11.441
14920W        W80147   0.327  37.366  13.507
14921W        W80148   3.465  28.441  13.286
14922W        W80149  28.993   3.674   2.782
14923W        W80150  36.528  24.623  10.723
14924W        W80151   0.031  34.509  10.624
14925W        W80152   1.982  31.969   3.752
14926W        W80153  23.005  18.710  11.107
14927W        W80154   3.342  26.521  10.592
14928W        W80155  28.223  22.934  14.342
14929W        W80156  31.948  29.993   0.746
14930W        W80157  15.354  11.790  10.551
14931W        W80158  21.599  36.711  12.275
14932W        W80159   5.546   2.164   1.447
14933W        W80160  39.654  31.279  11.390
14934W        W80161  33.084   1.359   4.526
14935W        W80162  38.580   9.325   0.315
14936W        W80163  10.123  40.281   2.621
14937W        W80164  11.668  30.884  11.532
14938W        W80165   2.627  36.264   1.285
14939W        W80166   2.220   5.263   2.319
14940W        W80167   1.286  26.003   1.335
14941W        W80168  30.001  15.546  14.785
14942W        W80169  15.294  36.528  14.642
14943W        W80170  35.467  10.364   1.304
14944W        W80171   9.862  40.922  11.121
14945W        W80172  10.794  27.581  11.506
14946W        W80173  44.411  42.773  13.088
14947W        W80174  35.495  40.118  11.012
14948W        W80175  44.838   4.769   0.505
14949W        W80176   6.407   1.900  13.352
14950W        W80177  44.950  15.677  11.561
14951W        W80178  16.792  17.345  11.972
14952W        W80179  18.203  38.409   0.719
14953W        W80180  31.050  24.909   5.074
14954W        W80181  14.892  19.796   0.192
14955W        W80182  31.322   3.201   4.473
14956W        W80183  42.969  42.922   4.101
14957W        W80184  15.795   5.016  11.250
14958W        W80185  15.220  25.540  11.363
14959W        W80186   4.088  15.630   9.821
14960W        W80187   3.466  28.761  14.192
14961W        W80188   4.510  27.525   0.415
14962W        W80189  13.250  27.553  10.486
14963W        W80190  16.407  14.059  13.331
14964W        W80191  12.449  35.475   3.220
14965W        W80192  34.654  30.534   3.713
14966W        W80193  23.381  40.300  14.029
14967W        W80194  27.257  11.690  10.718
14968W        W80195  29.118   4.238   0.648
14969W        W80196  37.581   4.468   0.792
14970W        W80197   6.856  36.082  14.042
14971W        W80198  19.293  40.926  10.738
14972W        W80199  42.241  39.976   4.171
14973W        W80200  23.572  29.005  12.137
14974W        W80201   8.509  36.877  11.112
14975W        W80202  22.624  39.128   2.857
14976W        W80203  31.554  23.054   0.410
14977W        W80204  31.815  28.677   3.125
14978W        W80205  42.094  20.590   2.714
14979W        W80206  12.817  34.982   2.716
14980W        W80207  30.859  13.788   2.821
14981W        W80208  40.685  14.648  12.086
14982W        W80209  25.436   5.304   2.529
14983W        W80210  39.564   6.950   0.663
14984W        W80211  25.582  10.367  14.359
14985W        W80212  43.986  27.111   5.302
14986W        W80213  20.539  21.345  11.277
14987W        W80214  34.702  28.406  12.018
14988W        W80215  43.559   6.012   3.392
14989W        W80216  21.755  34.170   3.111
14990W        W80217  28.845  21.047  11.396
14991W        W80218  36.041  19.627  12.876
14992W        W80219  19.711  23.744   2.780
14993W        W80220  28.156  12.132   2.266
14994W        W80221   0.865  16.863   4.141
14995W        W80222  12.229  38.065  12.339
14996W        W80223  40.953   9.379   4.163
14997W        W80224  26.242  10.845   2.766
14998W        W80225  39.353   8.154  13.293
14999W        W80226  11.885  15.320   0.755
15000W        W80227  43.004  16.268   3.531
15001W        W80228  37.083   3.266  10.751
15002W        W80229  25.321  24.888  12.806
15003W        W80230  20.985  14.372   2.718
15004W        W80231  16.682  43.325   3.593
15005W        W80232   9.069  13.369   1.452
15006W        W80233   3.338   5.515   1.320
15007W        W80234  34.051  24.365   4.759
15008W        W80235  11.227  22.032  12.102
15009W        W80236  36.171   5.775  12.882
15010W        W80237  39.661   4.744   1.219
15011W        W80238  16.849  33.532  11.037
15012W        W80239  26.634  17.171   2.610
15013W        W80240  30.971  44.261  11.952
15014W        W80241   4.267  11.752   4.671
15015W        W80242  16.295   9.074   4.600
15016W        W80243  13.659  25.183   0.530
15017W        W80244  37.976  11.347  11.527
15018W        W80245  21.662  27.547  13.668
15019W        W80246   4.479   1.662  12.831
15020W        W80247  43.145   5.240  11.969
15021W        W80248  44.749  19.221   0.449
15022W        W80249  44.230  42.374   3.829
15023W        W80250   1.835  16.627  13.542
15024W        W80251  13.376  30.474  14.778
15025W        W80252  29.871  38.932  11.548
15026W        W80253  29.179  28.714  10.733
15027W        W80254  17.105  31.016   2.713
15028W        W80255  41.575   1.180  12.595
15029W        W80256   1.794   8.187  10.638
15030W        W80257  21.014   7.355   3.652
15031W        W80258  42.086   0.402  10.855
15032W        W80259  44.726  29.400   1.210
15033W        W80260  17.070   7.676  14.673
15034W        W80261   1.795  19.769  14.537
15035W        W80262  11.278  18.380   0.444
15036W        W80263  32.416  43.392  11.576
15037W        W80264  36.866   4.173  11.070
15038W        W80265   5.814  13.199   4.680
15039W        W80266  18.872  37.778   2.895
15040W        W80267  22.497   0.244  13.081
15041W        W80268   1.888  36.866  11.035
15042W        W80269  22.950  27.068  12.053
15043W        W80270  41.498  42.751  12.017
15044W        W80271  38.878  40.379  14.283
15045W        W80272  36.812  44.534  12.926
15046W        W80273   4.225  40.077   2.245
15047W        W80274  34.026  31.182  13.457
15048W        W80275  17.619  19.281   4.125
15049W        W80276  44.994  35.706   0.317
15050W        W80277  41.291  34.912  13.374
15051W        W80278  25.490  38.113  12.480
15052W        W80279  31.546  15.744  10.348
15053W        W80280  39.752  34.412  14.851
15054W        W80281  27.720   4.981   4.029
15055W        W80282  25.091  25.199   3.245
15056W        W80283  27.548  29.687  11.973
15057W        W80284  29.223  36.001   1.801
15058W        W80285  44.847  18.025  10.662
15059W        W80286  44.791   5.881   0.441
15060W        W80287   0.073   4.154   3.258
15061W        W80288  13.341  20.594   1.134
15062W        W80289  37.046  27.278  11.409
15063W        W80290  43.851  10.153  10.655
15064W        W80291  35.181  37.963   3.630
15065W        W80292  24.133  28.912  13.150
15066W        W80293  32.097  12.121   4.549
15067W        W80294  39.461   9.924   3.807
15068W        W80295  23.778  42.301  13.910
15069W        W80296  43.789  14.225  11.275
15070W        W80297  19.143  23.455   0.555
15071W        W80298  24.385  11.701   1.934
15072W        W80299   0.927  28.550  14.549
15073W        W80300  21.729  42.414  10.996
15074W        W80301  13.091   1.798   1.403
15075W        W80302  40.275   1.568  11.619
15076W        W80303  30.381  23.658   3.690
15077W        W80304  31.821  38.399   2.738
15078W        W80305   1.682  17.715   2.560
15079W        W80306  35.704  13.063   0.784
15080W        W80307  39.070  19.720   4.592
15081W        W80308   3.925  18.051  14.371
15082W        W80309   1.445  32.865  13.209
15083W        W80310  40.512   3.639   2.695
15084W        W80311   3.482  32.469  14.902
15085W        W80312  21.391  25.440   2.226
15086W        W80313  35.069  36.157   3.154
15087W        W80314  40.106   2.037  11.468
15088W        W80315  39.297   0.972  10.436
15089W        W80316  44.728   8.566   3.138
15090W        W80317  32.635  37.589  13.088
15091W        W80318  39.333  15.792  10.788
15092W        W80319  10.820  41.354   2.723
15093W        W80320  29.015  44.567   9.983
15094W        W80321   1.303  41.009  12.858
15095W        W80322  13.009  17.123  14.785
15096W        W80323   7.250   1.778  11.221
15097W        W80324  12.340  34.464   4.555
15098W        W80325  28.380  20.137   4.345
15099W        W80326  35.438  31.971   1.384
15100W        W80327  43.814   0.053   2.952
15101W        W80328   7.894  39.926  14.481
15102W        W80329  33.957  31.836   2.262
15103W        W80330   6.917  40.326  12.419
15104W        W80331  14.367  27.432   4.274
15105W        W80332   6.595  16.575  11.887
15106W        W80333  30.399   4.750  11.692
15107W        W80334  11.777  31.246   9.781
15108W        W80335   1.467  34.914   2.643
15109W        W80336  22.043  35.888  12.307
15110W        W80337  30.339  16.539   1.351
15111W        W80338   8.498  19.010  11.251
15112W        W80339  17.251   2.264   1.286
15113W        W80340  21.898  23.524  14.821
15114W        W80341  16.575  21.815   2.839
15115W        W80342  17.980  23.703  13.194
15116W        W80343  41.895   2.525  14.480
15117W        W80344   8.790  21.109   0.738
15118W        W80345  27.584  17.196   3.078
15119W        W80346  32.134  18.091   3.000
15120W        W80347   0.760  24.017   3.216
15121W        W80348  13.106  40.055  12.961
15122W        W80349  16.726   8.990  11.282
15123W        W80350  27.025  25.014   1.671
15124W        W80351  17.679   7.822   1.598
15125W        W80352   4.566  23.157  11.807
15126W        W80353  35.869  44.463  12.979
15127W        W80354   5.442  36.261   1.823
15128W        W80355  43.414  43.797   0.517
15129W        W80356   8.769   6.017   4.581
15130W        W80357  37.989  23.757   1.858
15131W        W80358  39.799  23.094   2.167
15132W        W80359  11.147  22.023  13.618
15133W        W80360  32.634  40.355   4.984
15134W        W80361  30.873  41.765  11.187
15135W        W80362  34.066  27.969   4.219
15136W        W80363  25.730  12.230   4.987
15137W        W80364  40.450  33.827   4.741
15138W        W80365  10.585  27.199   3.113
15139W        W80366  39.338  39.068   2.453
15140W        W80367  12.715  32.617  14.412
15141W        W80368   5.509  12.912   5.045
15142W        W80369  27.559  30.863   1.889
15143W        W80370   4.765  27.997   0.393
15144W        W80371  25.897  43.271  14.479
15145W        W80372   8.382   3.078  14.362
15146W        W80373  16.071  13.853  12.415
15147W        W80374   7.176   0.474  10.491
15148W        W80375  28.486  44.221  12.535
15149W        W80376   9.328  24.519  12.432
15150W        W80377  25.990  42.603   0.925
15151W        W80378  11.577  20.715   4.292
15152W        W80379  28.143  16.302   4.124
15153W        W80380  35.317  29.297   0.402
15154W        W80381   5.039  28.980  14.288
15155W        W80382  37.546  38.020   3.128
15156W        W80383   1.485   1.537   0.795
15157W        W80384   5.368  39.319   4.566
15158W        W80385  36.571  29.116  11.174
15159W        W80386  18.175  16.031  12.113
15160W        W80387  40.962  43.792   3.321
15161W        W80388  44.461  42.444   0.086
15162W        W80389  19.169  39.986   3.092
15163W        W80390  11.587  20.395   0.512
15164W        W80391  29.613   6.317   0.943
15165W        W80392   2.374  26.178   2.990
15166W        W80393  26.886  13.781   1.696
15167W        W80394  14.376  38.519   0.819
15168W        W80395  16.491   1.887  11.517
15169W        W80396  15.075  31.168  14.961
15170W        W80397  44.307  26.714   3.418
15171W        W80398   7.422  43.735   4.351
15172W        W80399  14.563  40.085  11.206
15173W        W80400  23.801   6.364  11.734
15174W        W80401  22.230  42.898  14.761
15175W        W80402  15.237  27.957  13.038
15176W        W80403  20.676  37.048  14.472
15177W        W80404  21.348  33.421  12.038
15178W        W80405   9.730  22.165   0.498
15179W        W80406   6.170  16.286   4.507
15180W        W80407   1.923  24.241  12.455
15181W        W80408  30.991  43.553   4.701
15182W        W80409  15.079  40.304  12.094
15183W        W80410  16.258   9.931   3.481
15184W        W80411  43.389   0.432   3.772
15185W        W80412  28.566   0.951   0.838
15186W        W80413  40.844  39.588  10.792
15187W        W80414  13.175  26.589   2.720
15188W        W80415  38.370  32.991   2.188
15189W        W80416  23.439  43.071  10.992
15190W        W80417  40.322  14.709  10.696
15191W        W80418  30.540  37.478   3.175
15192W        W80419   1.795   7.183   1.561
15193W        W80420   3.880  30.632  12.502
15194W        W80421  16.756  35.074   2.205
15195W        W80422  30.199  33.417   0.337
15196W        W80423   0.533  42.719  11.933
15197W        W80424   9.920  23.932   4.007
15198W        W80425  32.943   4.982  13.900
15199W        W80426  11.011  44.584   1.951
15200W        W80427   0.019  16.604  14.841
15201W        W80428  13.894  38.853  14.407
15202W        W80429  20.977  43.241   1.499
15203W        W80430  31.084  29.908   1.063
15204W        W80431  42.156  21.983  13.487
15205W        W80432  34.111  30.298  14.079
15206W        W80433  33.696   4.732   0.998
15207W        W80434  38.064  29.048   4.121
15208W        W80435  36.268  27.959   3.723
15209W        W80436   5.320  10.256   4.198
15210W        W80437  37.399   4.957  14.023
15211W        W80438   8.230  26.123   1.195
15212W        W80439  33.457   7.227   1.868
15213W        W80440   6.056  24.081   4.875
15214W        W80441  24.508  41.620   4.087
15215W        W80442  26.155   4.314  12.595
15216W        W80443  22.558  19.682  12.085
15217W        W80444  19.034  25.065   4.633
15218W        W80445  32.895  32.492   0.602
15219W        W80446  35.735   3.588   2.647
15220W        W80447  19.676  17.760   4.632
15221W        W80448  18.722  33.825  11.935
15222W        W80449  33.981   5.223   1.809
15223W        W80450   9.374  37.618  11.910
15224W        W80451  16.042   9.868   3.005
15225W        W80452  19.590  12.139  12.335
15226W        W80453  25.751  27.126  12.500
15227W        W80454  36.924   3.015  13.051
15228W        W80455  36.159  14.798  13.505
15229W        W80456  25.218   1.599  11.197
15230W        W80457  28.088  22.987   3.068
15231W        W80458   5.193   1.339  13.623
15232W        W80459   8.902  29.864   4.564
15233W        W80460  40.375  24.080   4.974
15234W        W80461  20.692  12.202   2.368
15235W        W80462  35.798  16.191   0.146
15236W        W80463  42.732  42.742  13.534
15237W        W80464  20.322  13.679  14.509
15238W        W80465  10.769  20.712  10.766
15239W        W80466   8.761  35.842   1.177
15240W        W80467  35.862  35.480   2.268
15241W        W80468  14.740  20.630  13.509
15242W        W80469  42.010  33.961  12.936
15243W        W80470   8.725   1.251   2.862
15244W        W80471  13.484  42.695  10.273
15245W        W80472  42.503  42.700  12.041
15246W        W80473   2.496  15.632   0.452
15247W        W80474  16.219  43.498   4.630
15248W        W80475  25.153  11.573  14.580
15249W        W80476  35.015  44.963   2.164
15250W        W80477   1.604  42.153  10.782
15251W        W80478   1.181  41.976  13.161
15252W        W80479  29.673  26.782   1.818
15253W        W80480  31.844  29.467  10.370
15254W        W80481  22.581  38.634  13.350
15255W        W80482  15.825  43.069   2.300
15256W        W80483   2.291   2.767   2.680
15257W        W80484  24.513  15.546  11.009
15258W        W80485   1.640  30.147   2.278
15259W        W80486  39.096  43.769   3.167
15260W        W80487  13.977   6.100  14.353
15261W        W80488   9.876  27.852   3.406
15262W        W80489  41.451  35.885  11.673
15263W        W80490   3.097  37.048   1.763
15264W        W80491  35.020  13.017  14.808
15265W        W80492  34.071  42.160  11.233
15266W        W80493  20.689   0.765  11.976
15267W        W80494   6.804  23.640  12.081
15268W        W80495  12.087   6.980  12.579
15269W        W80496  20.715  30.392   1.061
15270W        W80497  38.293  41.237   1.181
15271W        W80498  43.906   5.336   4.144
15272W        W80499  10.450  42.263  12.459
15273W        W80500  33.179   7.108  12.019
15274W        W80501   3.764  39.872  14.018
15275W        W80502  31.185  31.315   0.448
15276W        W80503   1.889  16.176   2.699
15277W        W80504   0.506  38.501  11.852
15278W        W80505  19.755   9.858   2.784
15279W        W80506  15.517  35.993  13.484
15280W        W80507  19.421  35.207   2.234
15281W        W80508  34.518  20.413   4.270
15282W        W80509   9.095   8.488  12.451
15283W        W80510  16.601   9.300  13.856
15284W        W80511  40.538   9.609  12.505
15285W        W80512  22.562   7.869   2.419
15286W        W80513  35.915  30.527  12.011
15287W        W80514  11.729  16.147  12.490
15288W        W80515  27.024  14.918  14.786
15289W        W80516   2.511  28.725  12.820
15290W        W80517  12.701  37.758   4.508
15291W        W80518   8.406   0.674   0.344
15292W        W80519  25.745  15.059  13.109
15293W        W80520  43.863  27.038   3.516
15294W        W80521  11.397  42.437  11.750
15295W        W80522  17.899  19.778   4.159
15296W        W80523  25.042  10.404  12.808
15297W        W80524  14.758  29.437   1.840
15298W        W80525   5.296   9.270  10.616
15299W        W80526  34.939  17.077  12.987
15300W        W80527   3.484  27.538   0.350
15301W        W80528  16.116  26.342  13.245
15302W        W80529  10.692  21.763   2.540
15303W        W80530   8.196  41.484   2.306
15304W        W80531   9.743   8.813   4.797
15305W        W80532  25.026  17.040  10.757
15306W        W80533  33.624  43.463   0.400
15307W        W80534  26.965   4.203   2.721
15308W        W80535  18.789   7.527   0.809
15309W        W80536  23.548   3.431  12.187
15310W        W80537  39.942   0.114   1.142
15311W        W80538  38.765  17.360  12.943
15312W        W80539  35.031  14.633   5.101
15313W        W80540  37.615  11.886   2.681
15314W        W80541  41.227  10.196  13.601
15315W        W80542  20.967  39.946   3.059
15316W        W80543  18.666  22.158   1.703
15317W        W80544  18.556  10.303   3.762
15318W        W80545  18.226   9.753   2.032
15319W        W80546  38.892  44.897   3.753
15320W        W80547   5.142  15.278  14.999
15321W        W80548  18.538  43.025  13.017
15322W        W80549  31.606  30.095   1.340
15323W        W80550  41.838  22.562   3.331
15324W        W80551  19.232  44.477  14.705
15325W        W80552  25.490  24.612   3.123
15326W        W80553   1.267  35.811   2.960
15327W        W80554  18.882   6.851  11.569
15328W        W80555   0.302  29.186   3.651
15329W        W80556   9.393   9.379  14.401
15330W        W80557  42.483  22.704  13.802
15331W        W80558  33.567  28.985   1.458
15332W        W80559   5.721  33.412  14.466
15333W        W80560  30.215  21.110  14.935
15334W        W80561  34.026   1.917  14.536
15335W        W80562  35.601   9.876   1.400
15336W        W80563   3.628  26.137   1.293
15337W        W80564  37.342  22.724   4.684
15338W        W80565   2.326  24.232  12.767
15339W        W80566   2.561  16.142  13.344
15340W        W80567  35.721   3.174   2.303
15341W        W80568  22.729  28.579   4.632
15342W        W80569  42.323  22.687  12.316
15343W        W80570  37.644  40.799  14.385
15344W        W80571  24.958  11.348   0.504
15345W        W80572   9.173   1.587  13.499
15346W        W80573  32.586  22.932  12.522
15347W        W80574  14.253  32.851  11.947
15348W        W80575   5.796  36.352   1.362
15349W        W80576  24.661   5.348   4.564
15350W        W80577  21.364   2.151   4.903
15351W        W80578  10.986  36.982  11.997
15352W        W80579  21.374  10.847  11.431
15353W        W80580  20.845  23.556   3.170
15354W        W80581  29.618  37.993  12.890
15355W        W80582  15.048  39.239   3.704
15356W        W80583  44.975   5.253   1.347
15357W        W80584  23.594  26.008   0.349
15358W        W80585  23.272  36.103  14.018
15359W        W80586  39.833   1.886  12.511
15360W        W80587  35.500  33.831  10.604
15361W        W80588  26.133  17.794  14.499
15362W        W80589  41.497  36.853   2.568
15363W        W80590  17.852  38.555  12.051
15364W        W80591  25.924  38.758   1.860
15365W        W80592  11.884  34.524  11.583
15366W        W80593   5.838   6.218   2.777
15367W        W80594  33.045  21.812  10.692
15368W        W80595  25.522   1.953  14.848
15369W        W80596  22.182  14.134   3.836
15370W        W80597  33.768  12.828  13.458
15371W        W80598  30.836   2.425  12.503
15372W        W80599  29.332  37.114  12.488
15373W        W80600  12.413  14.409  11.103
15374W        W80601   8.638  11.955   1.648
15375W        W80602  24.375  18.133   2.542
15376W        W80603  17.590  13.790  12.520
15377W        W80604  31.399   2.668  11.918
15378W        W80605  34.659   3.163  13.431
15379W        W80606  27.966  44.290  13.428
15380W        W80607  25.961  23.497   4.136
15381W        W80608  17.832  40.701  11.978
15382W        W80609  36.957   1.737   1.733
15383W        W80610  30.528  13.911  13.359
15384W        W80611  33.387  16.797   1.771
15385W        W80612  10.145  12.858   2.082
15386W        W80613  43.938  36.972  12.333
15387W        W80614  16.669  35.962  13.754
15388W        W80615   3.782   5.543   1.832
15389W        W80616  32.584  12.128  13.353
15390W        W80617   6.368  28.404   5.063
15391W        W80618  37.128  36.332  12.871
15392W        W80619  13.099  42.038  11.007
15393W        W80620  35.598   4.219   3.715
15394W        W80621  36.930  16.297   4.471
15395W        W80622   6.102  44.776  13.455
15396W        W80623  35.477  30.710   4.129
15397W        W80624  14.602  21.587   4.564
15398W        W80625  22.552   0.545   2.652
15399W        W80626  14.529  41.487  13.740
15400W        W80627  32.043   3.563   4.190
15401W        W80628  36.435   7.806   4.382
15402W        W80629  36.003  43.761  13.567
15403W        W80630  15.774  35.634   0.723
15404W        W80631  40.415  22.689   1.190
15405W        W80632  29.865  43.257  11.139
15406W        W80633   6.346   2.479   0.683
15407W        W80634  21.543  33.681   0.550
15408W        W80635   9.673  12.399  11.458
15409W        W80636  25.994  12.766  10.981
15410W        W80637  25.697  36.402  13.971
15411W        W80638  30.767  36.935  12.777
15412W        W80639  42.203  38.494  11.026
15413W        W80640  24.544  33.672   2.267
15414W        W80641  25.447   4.373  14.436
15415W        W80642   2.264   9.642   2.333
15416W        W80643  29.094  30.230  14.238
15417W        W80644  24.164   5.581  12.118
15418W        W80645  19.164  34.414   2.228
15419W        W80646  44.515   5.451  12.327
15420W        W80647  14.906  17.112  12.581
15421W        W80648  42.110  14.766  12.946
15422W        W80649  32.793   8.168  11.213
15423W        W80650  42.035  18.681  11.178
15424W        W80651  33.140  12.586   3.684
15425W        W80652  10.871  27.699  12.505
15426W        W80653  27.604   9.712   2.152
15427W        W80654  33.127   9.736   2.803
15428W        W80655   4.043  10.719   0.870
15429W        W80656  16.669  24.473   1.351
15430W        W80657  19.851  10.201  10.404
15431W        W80658  21.119  36.671  11.523
15432W        W80659  29.455  12.722  14.194
15433W        W80660  31.810  33.251  14.479
15434W        W80661  19.169  14.638   1.922
15435W        W80662  36.263   1.730   3.312
15436W        W80663   1.612  16.278   4.238
15437W        W80664  29.867  42.654  11.985
15438W        W80665  10.172  12.564  12.793
15439W        W80666   4.989  25.560  14.049
15440W        W80667  40.139   2.060  12.897
15441W        W80668  10.441  36.025  12.950
15442W        W80669  25.651  11.889  11.487
15443W        W80670  30.068  13.178   1.825
15444W        W80671   8.258  11.439   2.178
15445W        W80672  14.760  18.477  14.892
15446W        W80673  16.645  22.064   3.320
15447W        W80674  43.464   8.823   5.055
15448W        W80675   2.314  44.126   1.337
15449W        W80676   5.813  10.595   0.302
15450W        W80677  33.858   8.657  11.249
15451W        W80678  19.363  31.764  11.651
15452W        W80679   7.944  29.074   3.644
15453W        W80680  23.592  12.526  11.719
15454W        W80681  22.859   6.417   1.775
15455W        W80682  36.980  35.158  10.752
15456W        W80683  20.513  27.188  10.652
15457W        W80684  43.967  36.063  11.216
15458W        W80685  43.625   5.126  12.855
15459W        W80686  13.151   7.631   1.831
15460W        W80687  36.490  29.677  13.534
15461W        W80688  43.439  17.290  12.561
15462W        W80689   1.245  43.278   0.472
15463W        W80690  10.960  11.346   0.252
15464W        W80691  26.472  40.741   4.980
15465W        W80692  24.082   0.676  14.732
15466W        W80693   9.493  12.395   9.557
15467W        W80694  27.760  36.178  10.681
15468W        W80695  23.691   8.023   4.356
15469W        W80696  34.455   0.747   4.218
15470W        W80697  29.937   2.954  12.192
15471W        W80698  20.964  43.736  13.126
15472W        W80699  30.082  40.284  11.461
15473W        W80700   6.832   3.704   0.811
15474W        W80701  42.135   8.811   4.675
15475W        W80702   9.220  25.125   4.723
15476W        W80703  35.424  36.050  11.435
15477W        W80704  34.456  30.388  13.480
15478W        W80705  30.239  28.661  13.439
15479W        W80706  40.315  16.057   2.398
15480W        W80707  37.597  29.739   3.615
15481W        W80708  17.278   8.827  10.688
15482W        W80709  10.854  40.694   1.152
15483W        W80710  44.876  14.784  12.608
15484W        W80711  10.616   8.127  12.501
15485W        W80712  19.644   6.609  13.985
15486W        W80713   1.877  41.726  12.090
15487W        W80714  31.654  36.977  11.741
15488W        W80715  11.334  16.085  14.355
15489W        W80716   6.845  21.609  11.888
15490W        W80717   4.637   4.438  11.625
15491W        W80718  10.239   3.581  13.732
15492W        W80719  22.440  16.218  12.961
15493W        W80720  36.383  21.055  13.904
15494W        W80721  27.156  18.898   1.354
15495W        W80722  10.333   4.282  12.899
15496W        W80723  42.777  34.513   0.120
15497W        W80724  19.668  22.618   0.357
15498W        W80725  23.402  35.625  14.230
15499W        W80726  19.021  37.146  11.558
15500W        W80727  29.222  12.331   5.526
15501W        W80728  30.731  31.418   2.247
15502W        W80729  42.865  38.475   3.204
15503W        W80730  33.280  30.557   3.691
15504W        W80731  28.925  27.032   3.534
15505W        W80732  15.721  25.018   0.971
15506W        W80733  38.986  23.374   3.748
15507W        W80734  30.571  24.516  13.953
15508W        W80735  32.901   9.417   1.938
15509W        W80736  17.062   5.020  13.193
15510W        W80737   7.720  34.119  11.115
15511W        W80738  40.598  44.563   4.078
15512W        W80739   6.679   7.845  11.389
15513W        W80740  44.816  42.743   4.767
15514W        W80741  14.157  30.502   4.093
15515W        W80742   2.299  21.431   3.748
15516W        W80743   2.855  24.602  14.581
15517W        W80744  30.436  30.710   2.760
15518W        W80745   7.915  24.570   4.864
15519W        W80746  19.085   6.349  12.078
15520W        W80747  40.862   3.323   2.445
15521W        W80748  31.113   4.574   0.505
15522W        W80749  13.641  37.369   0.423
15523W        W80750  40.690  42.280  14.394
15524W        W80751  14.059  10.096   4.053
15525W        W80752   3.390   9.956  10.553
15526W        W80753   1.053  32.529   0.020
15527W        W80754  14.909  34.024  12.199
15528W        W80755  28.461  21.084  12.420
15529W        W80756   4.040  23.914  10.294
15530W        W80757  44.038  18.900  14.734
15531W        W80758  30.626  41.070  14.419
15532W        W80759  34.897  12.725  12.282
15533W        W80760  17.608  28.051  11.429
15534W        W80761  28.144  14.574  13.797
15535W        W80762  20.185  27.972   3.704
15536W        W80763   1.733   6.248   1.372
15537W        W80764  15.701   1.449  12.854
15538W        W80765  30.433   1.450  12.424
15539W        W80766  14.633  16.349  13.365
15540W        W80767  16.566  15.128   1.685
15541W        W80768   3.670   1.841   0.170
15542W        W80769  14.334   0.169  10.712
15543W        W80770   9.843  27.049   3.224
15544W        W80771  43.191  30.357  13.443
15545W        W80772  10.428  10.307  13.616
15546W        W80773  15.591  16.576   3.112
15547W        W80774  42.307  39.448   0.394
15548W        W80775  21.012  44.877  13.462
15549W        W80776  36.388   6.725  13.423
15550W        W80777  36.856  25.484   1.285
15551W        W80778  37.380  10.244   1.850
15552W        W80779  15.528  35.287  10.541
15553W        W80780  19.835   5.148   1.259
15554W        W80781  43.877  14.201  10.776
15555W        W80782  22.829  33.685   5.211
15556W        W80783  21.583  12.590   3.994
15557W        W80784  24.939  38.502  13.988
15558W        W80785  34.049  41.741  13.430
15559W        W80786  44.132  38.605   2.111
15560W        W80787   3.490  26.217  10.960
15561W        W80788   7.994  18.818  13.361
15562W        W80789  44.373  40.068   5.218
15563W        W80790  16.344  13.311   3.260
15564W        W80791   0.686   4.862  11.652
15565W        W80792  21.003  17.506  13.109
15566W        W80793  25.731  21.778  11.221
15567W        W80794  36.403  13.563   0.448
15568W        W80795  37.572  33.379  11.711
15569W        W80796   8.873  12.807  14.002
15570W        W80797  35.058  10.241   0.987
15571W        W80798  10.458   8.247   0.687
15572W        W80799  28.657   8.610  12.797
15573W        W80800   7.817  12.721  11.942
15574W        W80801  22.255  39.771   4.064
15575W        W80802  34.942   9.797   0.683
15576W        W80803  36.373  25.061   0.020
15577W        W80804  35.825  14.286  12.554
15578W        W80805  25.698   7.857   4.070
15579W        W80806  27.178  22.762   3.383
15580W        W80807  36.140  39.489  11.023
15581W        W80808  32.119   9.191   3.929
15582W        W80809  20.768  27.225  14.920
15583W        W80810  16.280  21.274   2.105
15584W        W80811   9.114  17.774   2.691
15585W        W80812  14.637  13.336   3.733
15586W        W80813   7.913  43.940   1.316
15587W        W80814  15.126   1.135  11.214
15588W        W80815  41.898  43.606  13.953
15589W        W80816   8.477  41.531  14.170
15590W        W80817   0.388  31.014  13.633
15591W        W80818  35.322  35.637  10.642
15592W        W80819  19.298  15.007  10.498
15593W        W80820  17.055  23.000  10.626
15594W        W80821  28.282  37.554   2.532
15595W        W80822   4.916  37.013   0.405
15596W        W80823  30.143   6.522  13.481
15597W        W80824  36.631   8.125  11.028
15598W        W80825  36.504  26.475  10.638
15599W        W80826  44.047  41.823   2.815
15600W        W80827  38.399  18.409   3.750
15601W        W80828  36.530   4.061  11.444
15602W        W80829  28.728  43.061  10.603
15603W        W80830   1.468  21.332   2.118
15604W        W80831  13.760  44.225   3.222
15605W        W80832   4.948  14.836  14.809
15606W        W80833  41.039  31.870  11.084
15607W        W80834  11.883  12.206  13.391
15608W        W80835   1.798  30.989  14.007
15609W        W80836  42.779  11.782  10.422
15610W        W80837  35.531  32.929  12.711
15611W        W80838  42.005  26.033  13.031
15612W        W80839   6.896   4.913  11.596
15613W        W80840  12.177  16.663  10.673
15614W        W80841  34.552   1.243   4.401
15615W        W80842  18.346  33.635   1.400
15616W        W80843  43.353  29.453   2.532
15617W        W80844  20.612  34.630   5.078
15618W        W80845  21.205  43.172   5.082
15619W        W80846  17.474  43.058   2.703
15620W        W80847  11.717   8.258  11.560
15621W        W80848  17.581   2.328  11.570
15622W        W80849   8.806  35.995  12.390
15623W        W80850  19.431  17.187   0.800
15624W        W80851  32.750  39.044   1.461
15625W        W80852  32.032   3.294   0.820
15626W        W80853   3.334  18.354  11.564
15627W        W80854  13.609  30.003  14.757
15628W        W80855  30.346  24.138   3.328
15629W        W80856  18.814   2.665  10.747
15630W        W80857  15.632  17.393  11.935
15631W        W80858  19.425  27.842   0.415
15632W        W80859   1.854  24.567  10.744
15633W        W80860   6.433  28.955  13.956
15634W        W80861  36.563  26.170   3.158
15635W        W80862  33.081  41.816  12.160
15636W        W80863  27.491   7.301   4.094
15637W        W80864  37.526  35.965   1.486
15638W        W80865  24.585  44.944  14.837
15639W        W80866   8.306   4.747   2.414
15640W        W80867   9.121  23.915  11.198
15641W        W80868  38.881  34.212  14.267
15642W        W80869  39.572  15.539   4.126
15643W        W80870  17.293  32.644  10.682
15644W        W80871   4.728  42.000   4.461
15645W        W80872  34.706  18.723   2.848
15646W        W80873  20.338  33.208  11.076
15647W        W80874  39.852  14.269   4.184
15648W        W80875  14.041  29.620   1.195
15649W        W80876  15.360  20.691  11.873
15650W        W80877  21.466  24.730  12.018
15651W        W80878   1.301   5.701   0.726
15652W        W80879  24.919  27.190  13.115
15653W        W80880  17.638  14.598   2.801
15654W        W80881  43.882  17.317  12.116
15655W        W80882   0.203  43.925   2.316
15656W        W80883  18.524  34.005   2.922
15657W        W80884  29.029   8.755   0.882
15658W        W80885  33.413  27.725   0.840
15659W        W80886   7.953   7.668   2.136
15660W        W80887  33.581   4.899   1.885
15661W        W80888  44.118  29.176   4.562
15662W        W80889  22.389  24.416   3.384
15663W        W80890   9.641  33.254   2.952
15664W        W80891  17.067   5.916  13.936
15665W        W80892   6.131  44.293   2.805
15666W        W80893  21.154   4.910  14.962
15667W        W80894   8.078  43.713  11.449
15668W        W80895  27.457  16.590  10.538
15669W        W80896   1.915  27.715  11.268
15670W        W80897  37.819   4.815  11.105
15671W        W80898   9.826  22.259   1.000
15672W        W80899   5.763  22.059   0.973
15673W        W80900   6.150   2.331  14.425
15674W        W80901  39.637  39.025   3.894
15675W        W80902  32.776   0.415   0.501
15676W        W80903  44.248  40.198   3.603
15677W        W80904  11.012  41.086   0.332
15678W        W80905   8.234  10.216  11.413
15679W        W80906  19.154  39.852   1.293
15680W        W80907  34.104  17.316  10.972
15681W        W80908   3.016  12.802   0.774
15682W        W80909  42.525  14.104  11.531
15683W        W80910  35.397   1.943   2.724
15684W        W80911  32.283  37.099   2.826
15685W        W80912  37.955  35.104   0.323
15686W        W80913  20.976   4.877  12.123
15687W        W80914  23.835  15.702  11.528
15688W        W80915  12.820  13.704   2.268
15689W        W80916  14.234   9.317   0.168
15690W        W80917  15.559  33.370  11.976
15691W        W80918  38.495  24.537   0.753
15692W        W80919  39.808  38.587   0.784
15693W        W80920  19.845  23.222   3.685
15694W        W80921  39.286  20.261   1.338
15695W        W80922  41.969  29.711  13.076
15696W        W80923  40.384   9.359   0.453
15697W        W80924   0.931   7.722   4.256
15698W        W80925   3.739  25.497   4.348
15699W        W80926  13.303  35.082   1.704
15700W        W80927  26.633   7.931   4.044
15701W        W80928   9.293  39.693   2.247
15702W        W80929  17.212  36.485   2.835
15703W        W80930   4.408  10.326   1.802
15704W        W80931  38.874  35.264   1.128
15705W        W80932  37.324  43.852  13.264
15706W        W80933  19.941  43.007  13.745
15707W        W80934  40.577  32.471  10.709
15708W        W80935  12.251  34.366   1.698
15709W        W80936  14.121  23.700   3.313
15710W        W80937  10.668  13.237  12.495
15711W        W80938  37.731  38.207  12.906
15712W        W80939  23.329   9.771   4.823
15713W        W80940  34.594  24.001   0.004
15714W        W80941   2.966  12.495  14.226
15715W        W80942  36.437  33.412   2.365
15716W        W80943  32.512  36.408  13.026
15717W        W80944  39.838  44.499   3.705
15718W        W80945   9.113  25.086   1.414
15719W        W80946  39.792  10.968  11.623
15720W        W80947  21.125  28.087  14.334
15721W        W80948  19.120  36.628   4.205
15722W        W80949  41.948  40.590  12.520
15723W        W80950  34.984  30.205  12.789
15724W        W80951   8.595   6.294  11.074
15725W        W80952  19.213  29.556   2.374
15726W        W80953  21.970   7.519  11.486
15727W        W80954  25.075  43.461  10.907
15728W        W80955  19.800   5.208  12.943
15729W        W80956  30.379  32.643   4.584
15730W        W80957  21.080   0.384  13.602
15731W        W80958   6.149  35.974  12.450
15732W        W80959  26.871  41.940   4.174
15733W        W80960  43.794  21.095   2.374
15734W        W80961  20.058  24.108   3.616
15735W        W80962  12.605   5.286   2.380
15736W        W80963  31.157  23.463  11.129
15737W        W80964   1.961  12.804   0.938
15738W        W80965  21.097  30.354   3.153
15739W        W80966   9.607  17.026   1.691
15740W        W80967  43.753   8.779   3.245
15741W        W80968  14.350   1.179  14.081
15742W        W80969  26.803  28.109  12.475
15743W        W80970  24.861  40.410  14.395
15744W        W80971  41.461  25.070  11.692
15745W        W80972  31.143  39.967  14.843
15746W        W80973  12.469  22.814   3.314
15747W        W80974   4.000  33.311  12.086
15748W        W80975  21.273  24.942   4.127
15749W        W80976  30.697  22.789  13.112
15750W        W80977  36.928  15.226  11.641
15751W        W80978  29.193  35.016   1.796
15752W        W80979  41.770  39.453  13.410
15753W        W80980   9.340  30.437   1.009
15754W        W80981  14.145   7.102   1.668
15755W        W80982   1.532  27.470   4.258
15756W        W80983  12.714   2.230  14.485
15757W        W80984  36.727  29.845  12.681
15758W        W80985  16.664   3.808   3.737
15759W        W80986  12.547  30.091  11.550
15760W        W80987   5.735   8.457  13.194
15761W        W80988  13.792  42.403   2.931
15762W        W80989  29.787  12.308   1.698
15763W        W80990  37.383   0.068   0.647
15764W        W80991  15.736  30.885   5.074
15765W        W80992  13.323  36.825   3.698
15766W        W80993  17.153   1.006  14.918
15767W        W80994  18.860  27.580  11.716
15768W        W80995   9.826  12.676  13.609
15769W        W80996  36.069  11.278  11.833
15770W        W80997  21.448  40.322  12.336
15771W        W80998  33.579  40.617   3.227
15772W        W80999   8.382  28.651   1.458
15773W        W81000  37.808  44.278  14.639
15774W        W81001   4.255  10.337   4.301
15775W        W81002  16.468  34.887  12.202
15776W        W81003  21.134  32.483  14.447
15777W        W81004   4.456  10.706  10.805
15778W        W81005  17.538   8.372  12.987
15779W        W81006  29.855   9.982  12.584
15780W        W81007  36.841  29.594  11.238
15781W        W81008  25.820  34.531   3.480
15782W        W81009   2.237  11.840   4.582
15783W        W81010  28.546   5.878   0.487
15784W        W81011  22.426  19.307   0.847
15785W        W81012  11.113  27.709   3.589
15786W        W81013   8.403  11.243  14.399
15787W        W81014  10.107   0.727  12.072
15788W        W81015  23.533  30.066  12.994
15789W        W81016  11.099  44.056  12.898
15790W        W81017  36.135  40.314  10.607
15791W        W81018  23.243   6.793   4.528
15792W        W81019  22.093  19.461   2.621
15793W        W81020  17.299  26.014  11.503
15794W        W81021  25.772  30.452   4.659
15795W        W81022  18.293  35.414   1.400
15796W        W81023   4.325  19.759  11.512
15797W        W81024  31.384  10.953   1.874
15798W        W81025   1.676  16.176  11.318
15799W        W81026   7.154  21.218  10.763
15800W        W81027  26.989  34.458   2.157
15801W        W81028  25.223  38.112  12.943
15802W        W81029   6.803  18.053   3.717
15803W        W81030  41.684  28.170  12.005
15804W        W81031  21.582  22.545  10.714
15805W        W81032  29.157   8.348   2.761
15806W        W81033  40.234   3.967   4.489
15807W        W81034  34.391   3.523   4.641
15808W        W81035  44.686  15.201  11.568
15809W        W81036  17.482  21.376   1.455
15810W        W81037  23.109  13.027   0.858
15811W        W81038  10.437   4.243   4.221
15812W        W81039  38.099  44.491   3.866
15813W        W81040  39.815  15.399   1.966
15814W        W81041   0.241   8.508  11.069
15815W        W81042  30.164  25.244  11.657
15816W        W81043  25.753  39.502   0.269
15817W        W81044  26.023  32.929  13.970
15818W        W81045   6.206  44.111   0.519
15819W        W81046  43.310  23.326  13.468
15820W        W81047  26.439  12.858   3.321
15821W        W81048  30.318  33.276  12.946
15822W        W81049  41.519  25.158   2.734
15823W        W81050   2.439  19.970  14.772
15824W        W81051  18.645  15.719   0.663
15825W        W81052   2.347  24.604  14.527
15826W        W81053  31.640  38.103  12.536
15827W        W81054   7.235  20.673   1.721
15828W        W81055   1.430  33.681   3.844
15829W        W81056   8.328   7.378   3.796
15830W        W81057  44.824   6.313   3.641
15831W        W81058  18.586  28.388   4.339
15832W        W81059  36.831  32.704  12.443
15833W        W81060  26.481   8.318   4.338
15834W        W81061  34.264  37.218  14.816
15835W        W81062   9.060  10.417   0.422
15836W        W81063  23.585  24.945   4.667
15837W        W81064  23.229   1.351   0.315
15838W        W81065   9.726  37.938  11.497
15839W        W81066  40.928  26.058   4.324
15840W        W81067  14.867  44.371   2.618
15841W        W81068   5.806  11.689  11.824
15842W        W81069   1.289  12.325  11.125
15843W        W81070  26.548  44.830   4.532
15844W        W81071  37.535   8.662  12.690
15845W        W81072  12.768  17.281   4.233
15846W        W81073  12.251  25.130   3.368
15847W        W81074  11.934   5.053  12.512
15848W        W81075   0.491  38.013   4.268
15849W        W81076   1.679  24.683  14.075
15850W        W81077  12.722   5.681  10.644
15851W        W81078  18.270   7.387  12.271
15852W        W81079   0.456   0.890  14.394
15853W        W81080  27.419   0.086  12.313
15854W        W81081   9.281  29.188   3.600
15855W        W81082  42.936   8.374  10.811
15856W        W81083  24.166  37.731   2.269
15857W        W81084  44.506  25.958  14.428
15858W        W81085  10.074  14.319   2.902
15859W        W81086  33.350  24.243   0.879
15860W        W81087  38.167  31.348  13.034
15861W        W81088   9.650  32.887   3.328
15862W        W81089  25.437  30.621  11.674
15863W        W81090  37.286  41.992   3.667
15864W        W81091  30.108   8.161   0.030
15865W        W81092  28.029  41.705  13.445
15866W        W81093  31.613  19.125  13.557
15867W        W81094  14.406  31.659   0.799
15868W        W81095   1.768   9.248   4.535
15869W        W81096  39.205  35.316  13.546
15870W        W81097  16.882  31.082  11.567
15871W        W81098  35.557   2.054   0.480
15872W        W81099  13.863  42.584  11.500
15873W        W81100   5.176  22.938  11.269
15874W        W81101   4.269  34.817  13.915
15875W        W81102  20.115  20.422  12.396
15876W        W81103  29.207   9.953  12.004
15877W        W81104  18.531  11.650   3.881
15878W        W81105  41.604  17.890   1.195
15879W        W81106  27.237  14.230   1.651
15880W        W81107   4.311  33.916  12.540
15881W        W81108  19.964  35.585  11.311
15882W        W81109  10.225  11.360   3.328
15883W        W81110   9.977  11.822   1.359
15884W        W81111  16.900  44.494  12.554
15885W        W81112  21.034  34.798  14.192
15886W        W81113  32.222   4.884   3.431
15887W        W81114   8.189  38.305   0.790
15888W        W81115  43.729  11.817   2.491
15889W        W81116   5.941  39.837  12.991
15890W        W81117  16.584  19.329   2.761
15891W        W81118  18.164   3.190   0.819
15892W        W81119  19.246  40.793  11.662
15893W        W81120  16.162  43.375  11.474
15894W        W81121  38.195  34.332   2.024
15895W        W81122  38.937  42.419   4.115
15896W        W81123  34.606  10.249  11.673
15897W        W81124   6.516  37.120  11.133
15898W        W81125  30.862  29.420  11.628
15899W        W81126   4.386   0.798   0.730
15900W        W81127   6.870  35.500  13.550
15901W        W81128  24.407  32.108  13.837
15902W        W81129  20.749  15.866   0.206
15903W        W81130  22.057  10.106  14.813
15904W        W81131  34.722  19.558  13.350
15905W        W81132   4.419  13.633  10.466
15906W        W81133  32.822  19.492  12.111
15907W        W81134   5.413   0.504   3.606
15908W        W81135  11.629  21.651   2.797
15909W        W81136   4.988  20.695  12.669
15910W        W81137  39.903  15.043   4.774
15911W        W81138   9.532   6.077  14.407
15912W        W81139  33.092  12.217  13.513
15913W        W81140  15.554  43.094   4.199
15914W        W81141  38.966   0.723  11.701
15915W        W81142   2.398  29.735  10.656
15916W        W81143  27.654   2.426   4.577
15917W        W81144   7.458  35.852   2.736
15918W        W81145  41.076  13.723  13.549
15919W        W81146  27.195  20.595  14.310
15920W        W81147   1.850  42.974  13.796
15921W        W81148  13.782   7.242  14.012
15922W        W81149  35.399  34.424  11.485
15923W        W81150  30.967  28.724  11.104
15924W        W81151  31.758  38.717   5.342
15925W        W81152  36.517  11.931   2.371
15926W        W81153   6.687   3.511  10.406
15927W        W81154  23.806  30.454  13.825
15928W        W81155   4.662  42.161  12.077
15929W        W81156   6.711   5.352   1.808
15930W        W81157   2.374  43.107  14.914
15931W        W81158  32.048  41.274   0.401
15932W        W81159  33.021  17.720  13.907
15933W        W81160   6.055  38.553  11.167
15934W        W81161  36.626   9.041   2.659
15935W        W81162  43.046  16.652  11.495
15936W        W81163  34.754  20.574  12.013
15937W        W81164   6.500  16.762   1.463
15938W        W81165   5.924  41.234   3.167
15939W        W81166  42.858  36.504   4.622
15940W        W81167  14.318  15.187   2.678
15941W        W81168  20.761  44.481  13.682
15942W        W81169  10.700  29.519  12.293
15943W        W81170   8.852   0.556   0.022
15944W        W81171  10.862  18.200  10.657
15945W        W81172  10.447   2.998  14.832
15946W        W81173  43.815  24.689   4.679
15947W        W81174   1.350  32.938   0.370
15948W        W81175  13.017   3.980  13.957
15949W        W81176   0.511  14.543   3.868
15950W        W81177  26.029  26.813   3.803
15951W        W81178  24.972  13.278   4.544
15952W        W81179   3.704  36.657  13.868
15953W        W81180  14.569   3.900   4.238
15954W        W81181  12.946  36.232   4.439
15955W        W81182  44.773  33.948  13.327
15956W        W81183  32.003  37.631   9.746
15957W        W81184   6.256   7.987   1.437
15958W        W81185   5.370  12.329   1.336
15959W        W81186   8.570  36.749  13.793
15960W        W81187   9.333   0.163   0.218
15961W        W81188  21.127  43.283   3.747
15962W        W81189   9.801   0.848   0.325
15963W        W81190  40.485  26.463  14.941
15964W        W81191  24.275  35.909   0.460
15965W        W81192  33.041  33.368   2.593
15966W        W81193  41.655  22.406  12.335
15967W        W81194   1.863  17.518   2.112
15968W        W81195  28.696  30.208  13.908
15969W        W81196  33.092  41.314  14.402
15970W        W81197  29.625  32.211  14.760
15971W        W81198  37.971   7.972  11.213
15972W        W81199  38.319  19.706  11.608
15973W        W81200  12.123   8.611  11.947
15974W        W81201   5.982   6.735   2.650
15975W        W81202  37.797  14.063  12.117
15976W        W81203  27.466  34.489   3.667
15977W        W81204  43.017  21.292   4.133
15978W        W81205   6.829  44.740   0.710
15979W        W81206  42.582  21.724  10.721
15980W        W81207   0.404  44.814   0.491
15981W        W81208   5.360  11.829  12.130
15982W        W81209  37.030  17.795  14.351
15983W        W81210  12.641  42.376  12.195
15984W        W81211  25.106  22.713  12.491
15985W        W81212  20.266   2.273  14.698
15986W        W81213  35.171   4.372  11.609
15987W        W81214   2.465  19.075   9.936
15988W        W81215  21.516  24.095  11.452
15989W        W81216  25.106  28.432   3.606
15990W        W81217  36.438  13.156  13.914
15991W        W81218  28.638  30.051  12.078
15992W        W81219  22.124  22.184  13.035
15993W        W81220  29.056  31.354  11.681
15994W        W81221  15.882  28.593   0.786
15995W        W81222  29.874  23.582  10.615
15996W        W81223  38.400  14.848   1.732
15997W        W81224  34.452  11.368   1.210
15998W        W81225   6.290  15.534  12.895
15999W        W81226  16.200  15.115   4.169
16000W        W81227   7.419  21.626  14.830
16001W        W81228  25.676  29.972  13.734
16002W        W81229  44.033  37.907   2.804
16003W        W81230  13.759  31.827   5.442
16004W        W81231   8.166  36.502  11.008
16005W        W81232   7.662  12.337  13.138
16006W        W81233  38.121  27.468   4.150
16007W        W81234  15.105  25.918  12.995
16008W        W81235  17.089  12.173  10.629
16009W        W81236  13.281  39.895   0.693
16010W        W81237  32.448   9.582   1.730
16011W        W81238   3.243  13.621   0.442
16012W        W81239  21.224   3.899   0.461
16013W        W81240  10.723  15.169  13.366
16014W        W81241  34.550   1.687  11.501
16015W        W81242  26.829  23.554   5.072
16016W        W81243  22.462  27.236  10.809
16017W        W81244   2.880  18.541   3.636
16018W        W81245  43.610  30.814  12.947
16019W        W81246   5.138   0.497  11.455
16020W        W81247  16.140   1.274  11.237
16021W        W81248  27.061  10.312   1.325
16022W        W81249  17.250  44.574  10.768
16023W        W81250  39.905  17.552  12.498
16024W        W81251  18.240  33.032   2.348
16025W        W81252   9.512  41.309  13.924
16026W        W81253  23.775  43.303   1.307
16027W        W81254  34.225  10.703  12.500
16028W        W81255   8.193  12.184  11.214
16029W        W81256  26.386  25.725  10.986
16030W        W81257  18.106  24.194   4.484
16031W        W81258  39.531  28.103   0.390
16032W        W81259  29.374  37.055   0.326
16033W        W81260  26.993  20.759   3.914
16034W        W81261  32.466  36.310  12.019
16035W        W81262  27.079  41.400   4.947
16036W        W81263  13.910  24.517   3.831
16037W        W81264   8.765  10.798  13.035
16038W        W81265  12.872  37.591   2.761
16039W        W81266  34.927  18.218  11.975
16040W        W81267  37.129  16.956   3.540
16041W        W81268  12.150   4.344   2.076
16042W        W81269  39.927  25.242  13.260
16043W        W81270   9.926   0.454   4.195
16044W        W81271  13.612  27.134   2.876
16045W        W81272  10.826  10.418  13.318
16046W        W81273  41.880   4.938   1.294
16047W        W81274  17.800   0.268  13.463
16048W        W81275  17.633  21.329  13.385
16049W        W81276  26.129  34.382  10.786
16050W        W81277  25.048   3.209   3.381
16051W        W81278  26.974  15.895   0.015
16052W        W81279  33.184   8.656  12.769
16053W        W81280  42.224   3.766  14.991
16054W        W81281   0.294  15.324  12.942
16055W        W81282   7.193  35.344   0.435
16056W        W81283   8.127  13.910  13.987
16057W        W81284  15.302  21.085   4.797
16058W        W81285  16.690   9.816  10.587
16059W        W81286  33.310  39.932  11.878
16060W        W81287  24.632  22.150  14.863
16061W        W81288  13.506   4.420   0.636
16062W        W81289  43.810  28.216   2.238
16063W        W81290  28.085  26.110   3.569
16064W        W81291  16.007  10.775  13.497
16065W        W81292  19.077  28.521  13.837
16066W        W81293  17.412  32.850   0.696
16067W        W81294  18.075  41.581   2.532
16068W        W81295   5.306  19.960  13.174
16069W        W81296  28.253   4.912   4.237
16070W        W81297  19.997  34.301  12.071
16071W        W81298  10.898  24.114  12.936
16072W        W81299  36.040  43.715   4.523
16073W        W81300  37.277  15.242  13.884
16074W        W81301  25.344  38.571  12.647
16075W        W81302   5.965   4.720   9.732
16076W        W81303   6.238  28.238   3.252
16077W        W81304   2.030   2.305   3.221
16078W        W81305  30.852  29.231   5.044
16079W        W81306  22.884  35.479   2.858
16080W        W81307  12.359  19.781   0.350
16081W        W81308  10.045   4.002   2.167
16082W        W81309  31.643  19.441  14.482
16083W        W81310  26.127  42.493   0.438
16084W        W81311   0.298  40.038   2.403
16085W        W81312  38.572  38.254  14.929
16086W        W81313   8.697  44.806   3.615
16087W        W81314  20.746  32.904   4.413
16088W        W81315  43.018  17.112   4.481
16089W        W81316   1.960   0.372  14.005
16090W        W81317  24.791  25.095  14.941
16091W        W81318  10.355  31.623   1.254
16092W        W81319  21.920  42.555   4.072
16093W        W81320   9.589  33.553   2.190
16094W        W81321  41.249  32.593   2.331
16095W        W81322  17.450  39.970   4.236
16096W        W81323  13.713  28.393   3.165
16097W        W81324  14.065  44.304   0.040
16098W        W81325  41.419  34.204   0.430
16099W        W81326  27.322   7.580   2.927
16100W        W81327   9.865   8.978  13.002
16101W        W81328  36.057  24.133   1.465
16102W        W81329  39.039   4.001  10.227
16103W        W81330  29.565  22.951   1.641
16104W        W81331   8.569  33.184   2.130
16105W        W81332  24.469  26.743  11.622
16106W        W81333  40.415  18.948  14.945
16107W        W81334  20.651   3.040   9.883
16108W        W81335  26.534   6.786   0.858
16109W        W81336   3.216  30.023   5.298
16110W        W81337   3.159  17.507  13.537
16111W        W81338  17.074  10.289   4.644
16112W        W81339  24.981   1.944  12.557
16113W        W81340  10.770  12.115   3.313
16114W        W81341   5.195   2.360   2.293
16115W        W81342  23.348  17.188  11.179
16116W        W81343  27.373  42.390   2.413
16117W        W81344  32.692  30.350  11.988
16118W        W81345   9.148  33.655   3.898
16119W        W81346  44.565  10.336  13.532
16120W        W81347  13.220  38.510  10.684
16121W        W81348  13.863  34.018  10.705
16122W        W81349   2.406  36.444   0.330
16123W        W81350  38.040  10.672   0.389
16124W        W81351   0.461  15.130  11.115
16125W        W81352  11.280  31.597   4.997
16126W        W81353   5.721   2.475   2.336
16127W        W81354  11.843   7.446   3.111
16128W        W81355  12.307   8.050  14.225
16129W        W81356   5.787   0.450   3.233
16130W        W81357   2.327  18.009  12.834
16131W        W81358  35.884  28.640  13.310
16132W        W81359  44.551  22.171  13.244
16133W        W81360  11.297  41.561  14.018
16134W        W81361  17.906  28.626   1.278
16135W        W81362  43.686  39.871   3.761
16136W        W81363  22.485  21.727   4.970
16137W        W81364  36.902  39.990  14.333
16138W        W81365  10.372  35.497   3.239
16139W        W81366  25.150  26.013   2.620
16140W        W81367  13.573  32.977  14.729
16141W        W81368   4.843  40.763   0.600
16142W        W81369  32.792  32.086  12.355
16143W        W81370  31.084  33.035  11.690
16144W        W81371  31.491  34.037  10.649
16145W        W81372  34.042   9.794  14.821
16146W        W81373   5.623  23.333   1.436
16147W        W81374   4.636  24.158   1.211
16148W        W81375  14.145  14.061  12.109
16149W        W81376  24.159  10.413  12.973
16150W        W81377   9.802  14.166   1.942
16151W        W81378  40.965  38.590   4.411
16152W        W81379  24.702  21.201   0.891
16153W        W81380  31.568  25.599   4.822
16154W        W81381  11.058   5.756   4.719
16155W        W81382  11.834  15.158   2.291
16156W        W81383  13.242  36.055  10.307
16157W        W81384  25.821  20.000  13.579
16158W        W81385  37.916  28.481  11.987
16159W        W81386  40.897  13.879  10.663
16160W        W81387  40.459  33.794   1.224
16161W        W81388  33.477  38.023  13.952
16162W        W81389  28.389  15.603   3.596
16163W        W81390  35.447   9.803  14.391
16164W        W81391  13.567  28.246  12.065
16165W        W81392  16.306  11.094  14.660
16166W        W81393  38.380  34.700   2.346
16167W        W81394  34.120   3.806   0.406
16168W        W81395  34.372  43.845   4.682
16169W        W81396  20.173  23.129   1.715
16170W        W81397  24.506  17.269   1.813
16171W        W81398  41.197  19.157   0.222
16172W        W81399   8.601  22.025   4.249
16173W        W81400  27.753  44.580   4.132
16174W        W81401  44.773  37.240   4.120
16175W        W81402   1.812  30.690   3.174
16176W        W81403  12.553   9.811  12.576
16177W        W81404  22.331   0.140   2.372
16178W        W81405   0.284  38.569   2.859
16179W        W81406  39.943  29.992   3.822
16180W        W81407  37.972  34.365  10.446
16181W        W81408  14.739   1.246   1.459
16182W        W81409  38.588  29.021   2.807
16183W        W81410  34.826  20.462   0.314
16184W        W81411   9.174  11.229   2.614
16185W        W81412  26.438  31.736   0.894
16186W        W81413  35.520  18.697   3.296
16187W        W81414  24.169  33.454   1.926
16188W        W81415  24.227  23.528  14.142
16189W        W81416  10.534  16.272   2.851
16190W        W81417   2.154  28.721  14.900
16191W        W81418  23.587  31.346   3.547
16192W        W81419   6.215  14.828  10.785
16193W        W81420  24.168   5.128   4.547
16194W        W81421  15.852  42.334  11.300
16195W        W81422  19.452  43.723  14.877
16196W        W81423  17.166   7.677   3.205
16197W        W81424   7.039  31.931   3.325
16198W        W81425   5.416   0.955  10.502
16199W        W81426  36.146  39.982   1.155
16200W        W81427  44.744  22.121   1.263
16201W        W81428  29.481   6.369  13.424
16202W        W81429  24.229  20.812   4.160
16203W        W81430  31.855  15.802  10.766
16204W        W81431  43.989  22.613   0.105
16205W        W81432  28.633  16.901   0.375
16206W        W81433  30.962  11.102  13.045
16207W        W81434  41.937   4.902   0.739
16208W        W81435   2.838   5.363  12.440
16209W        W81436  27.182  34.099  11.232
16210W        W81437  30.418  34.006  12.387
16211W        W81438  25.524  42.337  12.359
16212W        W81439  14.334  36.347  12.058
16213W        W81440  29.252  10.154  10.727
16214W        W81441  40.456  32.875   1.363
16215W        W81442  14.839  31.043  11.666
16216W        W81443   8.370  28.174   2.699
16217W        W81444  31.449  23.864   1.128
16218W        W81445   0.743  14.546   2.327
16219W        W81446  43.710  22.057   3.851
16220W        W81447   7.559  14.187   2.642
16221W        W81448  12.407  40.495   3.656
16222W        W81449  20.911  19.343  10.867
16223W        W81450  32.309   2.860  11.972
16224W        W81451  11.257  26.115  14.356
16225W        W81452  18.735  30.841   0.275
16226W        W81453  12.763  44.931  13.367
16227W        W81454  18.115  24.668  12.118
16228W        W81455   8.235  13.522  12.040
16229W        W81456  23.304  10.784  13.485
16230W        W81457   6.240  16.734  14.290
16231W        W81458  38.440   3.819   3.978
16232W        W81459   4.191  20.852   0.681
16233W        W81460  10.907  43.813  10.628
16234W        W81461  28.476   0.261  13.325
16235W        W81462  18.133   4.053  14.316
16236W        W81463   1.992  30.147   0.695
16237W        W81464  15.295  12.882  13.877
16238W        W81465  16.910  37.455  10.392
16239W        W81466  17.669   6.072   3.630
16240W        W81467  34.560  27.958  11.829
16241W        W81468  38.568  15.044   2.203
16242W        W81469  31.132   0.909  12.398
16243W        W81470  31.961  40.896   4.574
16244W        W81471  13.546   0.317  13.362
16245W        W81472  11.759  11.653   4.487
16246W        W81473  10.718  39.777   0.947
16247W        W81474  38.493  39.984   4.762
16248W        W81475  24.300   3.490   2.354
16249W        W81476  31.179  24.890  13.561
16250W        W81477   1.012  37.214  10.727
16251W        W81478  42.260  42.473   1.379
16252W        W81479  26.073  34.833  14.777
16253W        W81480  19.446   1.921  13.407
16254W        W81481  37.120  34.395   0.949
16255W        W81482   5.893   5.011   2.219
16256W        W81483   8.686  40.613  13.930
16257W        W81484  22.113   1.945  11.866
16258W        W81485  12.270  14.203  11.547
16259W        W81486   0.993  27.680   3.549
16260W        W81487  16.620   3.007   1.014
16261W        W81488  22.354  44.195   0.780
16262W        W81489  23.210  31.640  11.600
16263W        W81490   7.951  10.327   3.605
16264W        W81491  13.707  35.433  14.557
16265W        W81492  39.861  32.208  11.627
16266W        W81493  26.931  23.745  13.326
16267W        W81494  41.959  16.192  10.740
16268W        W81495  16.886  19.695   0.856
16269W        W81496  37.493   6.217   0.700
16270W        W81497  39.278  34.043   2.705
16271W        W81498  20.615  36.615  13.014
16272W        W81499  30.131   6.331   4.753
16273W        W81500   4.359  22.138   4.169
16274W        W81501  41.197  32.420   1.818
16275W        W81502  16.173  39.999   0.329
16276W        W81503  20.589  20.479  12.143
16277W        W81504   6.083   4.331  14.135
16278W        W81505   7.538  15.699  14.107
16279W        W81506  19.222  23.870   0.031
16280W        W81507  19.310  17.764  10.736
16281W        W81508  20.447  43.627  13.236
16282W        W81509  24.563  44.287   2.417
16283W        W81510  28.657  10.470  11.501
16284W        W81511  14.333  22.631  11.530
16285W        W81512  21.938  39.637  12.941
16286W        W81513  29.429   5.730   3.688
16287W        W81514  27.913  41.082   4.110
16288W        W81515  16.789  43.197   0.568
16289W        W81516  38.043  13.871  14.013
16290W        W81517  14.990  38.324  12.449
16291W        W81518  21.719  41.882  11.115
16292W        W81519  39.935   1.273   3.754
16293W        W81520  42.559  39.552   0.870
16294W        W81521   9.111   9.138  12.945
16295W        W81522  35.032  12.060  14.817
16296W        W81523  11.850  19.780  14.040
16297W        W81524  10.816  26.674  14.844
16298W        W81525  36.111  34.506  13.076
16299W        W81526  17.649  17.357  13.988
16300W        W81527  38.853   0.248  11.615
16301W        W81528  23.582   7.381   0.011
16302W        W81529   2.904   8.221   2.438
16303W        W81530  21.723  23.429  11.740
16304W        W81531   1.815  24.654   1.510
16305W        W81532   1.267  34.939   3.507
16306W        W81533  19.939   2.571  12.954
16307W        W81534   6.083   0.325   2.802
16308W        W81535   8.644  22.966   5.048
16309W        W81536  15.135  17.332  11.799
16310W        W81537  15.885  38.319   0.309
16311W        W81538  27.620   5.466  11.236
16312W        W81539  23.434   6.006  11.743
16313W        W81540  43.843  41.045  11.314
16314W        W81541  43.545  42.522  14.554
16315W        W81542  38.577   1.381   5.095
16316W        W81543   7.510  28.075   0.887
16317W        W81544  40.824  29.702  12.610
16318W        W81545  35.993  32.220   3.653
16319W        W81546   0.562   1.789   3.323
16320W        W81547   1.862   4.847  14.773
16321W        W81548  11.102  43.265   1.246
16322W        W81549   1.298   7.628   0.846
16323W        W81550  20.819   6.729   2.223
16324W        W81551  38.878  28.259  11.405
16325W        W81552  37.392  42.586  14.992
16326W        W81553  44.700  28.105  10.807
16327W        W81554  39.010  25.357   1.216
16328W        W81555   7.677  22.553  12.538
16329W        W81556   5.423  15.856  12.888
16330W        W81557  29.138   1.668   0.966
16331W        W81558  33.591   3.741   4.541
16332W        W81559  29.509   4.372  11.404
16333W        W81560  23.888   8.993   2.163
16334W        W81561   6.945  27.155   0.467
16335W        W81562   9.199   1.471   2.682
16336W        W81563  22.996  35.788   3.262
16337W        W81564   2.815  28.604   2.206
16338W        W81565  44.917  18.285   0.793
16339W        W81566  39.490  29.742   4.356
16340W        W81567   3.741   8.306  11.924
16341W        W81568  40.514   6.679   1.729
16342W        W81569  22.593   2.619  12.948
16343W        W81570  14.556  43.417  11.551
16344W        W81571  14.845  32.892   3.233
16345W        W81572  15.178  38.296  11.413
16346W        W81573  30.513  28.173  10.753
16347W        W81574   7.157  42.296   1.241
16348W        W81575  23.736  44.105  10.470
16349W        W81576  17.725  35.741  14.329
16350W        W81577  42.504  20.488   9.915
16351W        W81578  20.199  22.145  10.569
16352W        W81579   5.702  33.374   0.301
16353W        W81580   3.354  27.325   3.867
16354W        W81581  18.963  14.415   3.353
16355W        W81582   7.182  28.508  11.171
16356W        W81583  42.883  11.193   0.891
16357W        W81584  30.977   7.622  14.315
16358W        W81585  10.269  38.844  12.584
16359W        W81586  29.358  19.638   3.300
16360W        W81587  35.979   6.174   4.618
16361W        W81588  38.736  16.088   0.093
16362W        W81589  17.495   5.134  12.920
16363W        W81590  39.330  17.163   1.339
16364W        W81591  31.102  30.740  11.939
16365W        W81592  19.703  31.948   2.203
16366W        W81593  23.636  42.377   4.322
16367W        W81594  44.609   0.100   1.742
16368W        W81595  17.787  11.429  12.944
16369W        W81596   2.688   4.334   1.234
16370W        W81597  18.205  16.274   2.564
16371W        W81598  14.178   7.574   1.848
16372W        W81599  39.847  32.002   3.707
16373W        W81600   4.599   7.777   4.624
16374W        W81601  37.481  30.483  14.844
16375W        W81602  41.050   8.937  13.306
16376W        W81603  22.589   6.415  13.308
16377W        W81604   7.690  12.572  11.125
16378W        W81605   7.740  14.080  13.660
16379W        W81606  21.489  16.609   3.241
16380W        W81607  41.528   8.677   1.314
16381W        W81608   3.406  23.963  13.323
16382W        W81609  41.462  40.662  12.995
16383W        W81610  43.376   4.777   0.611
16384W        W81611   0.349   5.765  14.480
16385W        W81612   2.925  22.685  12.477
16386W        W81613  42.526  40.713   1.229
16387W        W81614  36.014  19.614   0.210
16388W        W81615   2.423  19.107  14.328
16389W        W81616  12.110  23.614   0.400
16390W        W81617  10.941   7.724  12.432
16391W        W81618  31.975  25.067  12.613
16392W        W81619  26.307   4.266  14.902
16393W        W81620   9.332   9.448   2.215
16394W        W81621  34.894  20.621   1.712
16395W        W81622  31.495   3.260  13.636
16396W        W81623  26.021  12.203   1.722
16397W        W81624  21.021  23.018   2.250
16398W        W81625  14.338  20.176   3.283
16399W        W81626   8.003   1.651   4.690
16400W        W81627  22.980  18.314   1.842
16401W        W81628  19.595  23.375   3.157
16402W        W81629  42.344   6.865   3.180
16403W        W81630   7.952  11.960   1.324
16404W        W81631  20.263  16.132   4.152
16405W        W81632  33.471   8.945  11.395
16406W        W81633  38.791  19.987   4.928
16407W        W81634  24.937  16.288   0.180
16408W        W81635  23.962   7.172   1.899
16409W        W81636  40.242   3.751   3.116
16410W        W81637  17.337  40.665  11.149
16411W        W81638  16.217   6.557   3.604
16412W        W81639  25.736  37.435  13.938
16413W        W81640  22.058   2.509   1.200
16414W        W81641  29.592  13.273   0.050
16415W        W81642   5.768  34.043   4.712
16416W        W81643   6.471  10.415   9.991
16417W        W81644   8.562  34.417   5.700
16418W        W81645  18.792   6.450   4.542
16419W        W81646   3.230  35.171  11.202
16420W        W81647  20.769  36.120   0.268
16421W        W81648  40.220  37.081   4.808
16422W        W81649  32.378  12.627  13.822
16423W        W81650  28.453  16.376  14.239
16424W        W81651  16.121  30.251   0.890
16425W        W81652   1.846  27.934   4.438
16426W        W81653  29.640  20.780   0.321
16427W        W81654  18.301   7.194   4.349
16428W        W81655  15.343   0.831   4.152
16429W        W81656  42.509  10.725   0.278
16430W        W81657  34.340  14.050   2.796
16431W        W81658  31.402  27.887  14.075
16432W        W81659  23.017  26.508  14.834
16433W        W81660  26.284   2.419  11.661
16434W        W81661  38.396  31.602  14.500
16435W        W81662  34.369  44.945   0.875
16436W        W81663  25.593   9.793  11.167
16437W        W81664  28.680  12.016   1.460
16438W        W81665  27.408  13.523  10.103
16439W        W81666  35.684  26.370  10.344
16440W        W81667  34.699  37.735  13.117
16441W        W81668  21.998  31.378   3.377
16442W        W81669  20.292  21.281   2.618
16443W        W81670   9.685  42.510   2.298
16444W        W81671  40.596  20.145   2.862
16445W        W81672  37.033  10.228   1.466
16446W        W81673  27.549   1.251   1.484
16447W        W81674  27.515  27.672   3.246
16448W        W81675  40.562  36.153  11.738
16449W        W81676  11.930   7.146  12.137
16450W        W81677  35.860  37.827   2.138
16451W        W81678  23.076  21.996   2.816
16452W        W81679  44.746  39.840  12.372
16453W        W81680   9.691  39.514   1.643
16454W        W81681  20.970  26.149  12.621
16455W        W81682  30.181  41.817  14.571
16456W        W81683  23.615   8.766   0.578
16457W        W81684  34.863   1.478   1.321
16458W        W81685  37.848  11.793  13.358
16459W        W81686  24.496  19.813  12.093
16460W        W81687  23.929  25.167   9.934
16461W        W81688   5.042   3.798   0.679
16462W        W81689  39.541  33.998   2.263
16463W        W81690  15.408  44.919   0.903
16464W        W81691  44.990  13.316  11.731
16465W        W81692  27.423   9.145   4.530
16466W        W81693   7.729  12.443   1.822
16467W        W81694  29.735  19.352   2.796
16468W        W81695  16.115  40.027  14.376
16469W        W81696   0.743  32.010  13.671
16470W        W81697  42.878  12.176   1.745
16471W        W81698  32.469   8.226  11.618
16472W        W81699   8.348  21.527   1.723
16473W        W81700  39.802   0.806  14.831
16474W        W81701  27.724   4.906   1.826
16475W        W81702   8.918  25.114   4.190
16476W        W81703  40.016   2.687   4.089
16477W        W81704   1.968  12.902  10.660
16478W        W81705   7.698  13.656   5.515
16479W        W81706   7.217   2.388  14.901
16480W        W81707   0.786  11.243   0.742
16481W        W81708   2.616  39.730   0.325
16482W        W81709  37.412   5.127   2.615
16483W        W81710  21.465  32.693   3.264
16484W        W81711  19.171  23.748   3.228
16485W        W81712  17.089   2.505  12.076
16486W        W81713  20.658   3.392   3.568
16487W        W81714  31.212  16.507  12.116
16488W        W81715  44.061  13.236  12.619
16489W        W81716   3.368  10.502   1.173
16490W        W81717  34.947  36.444   4.333
16491W        W81718   9.353  17.754   3.180
16492W        W81719  27.954  34.894  13.042
16493W        W81720  40.500  34.956  13.128
16494W        W81721  40.396  27.502   2.908
16495W        W81722  43.943  39.784   2.947
16496W        W81723  21.178  29.288   2.252
16497W        W81724   7.230   6.369   3.297
16498W        W81725  38.893   1.039  10.743
16499W        W81726  40.540   8.898  13.335
16500W        W81727  27.723   7.739   1.245
16501W        W81728  18.370  39.856   4.495
16502W        W81729  14.079  29.127   4.879
16503W        W81730  11.567  10.809  12.949
16504W        W81731   8.741   7.541  13.362
16505W        W81732  41.933   7.177   0.679
16506W        W81733  15.905  13.703  14.821
16507W        W81734  12.155  19.864  12.543
16508W        W81735   7.726  36.208  12.898
16509W        W81736  17.891   9.302   0.356
16510W        W81737   4.964  32.894  11.939
16511W        W81738   5.834  41.410  14.885
16512W        W81739  32.582  13.200   2.149
16513W        W81740   3.011  27.744   3.170
16514W        W81741  36.375  43.947  12.486
16515W        W81742  22.400  36.178  12.043
16516W        W81743  24.037   6.081  12.119
16517W        W81744  40.368  34.512   3.674
16518W        W81745  19.130  20.546  12.482
16519W        W81746  22.718  16.170  14.985
16520W        W81747  29.003   8.302   0.373
16521W        W81748  12.835  34.420   5.133
16522W        W81749  31.039  36.449  12.959
16523W        W81750   2.842  10.034   4.554
16524W        W81751  31.840  36.007   1.260
16525W        W81752  38.882  40.020   2.087
16526W        W81753  20.407  13.133  12.833
16527W        W81754  35.410  21.001   0.034
16528W        W81755   6.168  18.105  11.165
16529W        W81756   6.659   1.395  10.668
16530W        W81757  14.111  25.059   2.322
16531W        W81758  13.070  38.870  14.052
16532W        W81759   8.066  34.544  10.864
16533W        W81760  31.447  20.283   0.932
16534W        W81761  24.206  24.795   3.047
16535W        W81762  35.036   8.282   2.593
16536W        W81763   8.888  41.791   2.700
16537W        W81764  14.409  34.828  12.474
16538W        W81765   8.619   2.253  14.875
16539W        W81766  36.273  24.929   1.583
16540W        W81767  24.739  28.414  11.112
16541W        W81768  31.874  14.190   2.732
16542W        W81769  34.248   8.800  13.011
16543W        W81770  11.026  36.502  12.442
16544W        W81771  29.492  33.862  12.342
16545W        W81772  44.133  23.461  13.258
16546W        W81773  40.038  39.384   3.397
16547W        W81774   1.977   3.517   1.269
16548W        W81775  17.506   9.580   3.135
16549W        W81776  15.598  31.754  12.726
16550W        W81777  25.344   9.133  14.144
16551W        W81778  12.948  34.479   4.202
16552W        W81779  14.787   8.146   1.323
16553W        W81780  29.444  10.266  11.201
16554W        W81781   7.454  32.419   4.520
16555W        W81782   2.262  36.295  13.808
16556W        W81783   7.128  28.406   4.183
16557W        W81784  30.186  33.091  12.486
16558W        W81785   9.934  42.992   3.846
16559W        W81786  32.083   0.719  12.448
16560W        W81787  44.799   2.857  12.790
16561W        W81788   2.449  21.003  14.045
16562W        W81789   5.944  40.248   1.301
16563W        W81790   6.686  33.800  14.548
16564W        W81791   4.778  40.398  14.214
16565W        W81792  15.786   6.565   4.403
16566W        W81793  35.612   6.690  13.797
16567W        W81794   2.363   5.138  13.476
16568W        W81795  18.300  10.861  11.563
16569W        W81796  42.870  40.817   4.012
16570W        W81797  13.978   2.371   1.436
16571W        W81798   3.271   2.305  11.508
16572W        W81799  28.643  21.610  11.713
16573W        W81800   4.525  44.494   4.467
16574W        W81801  13.604  38.170   1.091
16575W        W81802   5.727  24.721   1.952
16576W        W81803  23.945  13.602   0.840
16577W        W81804  37.639  12.658   2.678
16578W        W81805   4.758   9.219   2.469
16579W        W81806  25.970  15.639  14.447
16580W        W81807  31.115  31.090   2.150
16581W        W81808   2.083   8.592  12.591
16582W        W81809   3.976  17.325  13.955
16583W        W81810  38.329  38.836  10.713
16584W        W81811  25.565  18.575  13.581
16585W        W81812  24.558   5.168  13.816
16586W        W81813  42.588  25.172   4.740
16587W        W81814  44.820  32.768   0.237
16588W        W81815  42.024  13.584  14.817
16589W        W81816  32.073  44.065   1.708
16590W        W81817  28.100   5.459  13.842
16591W        W81818  30.766  28.639   3.273
16592W        W81819  34.676  37.883  12.625
16593W        W81820  29.576  36.456  12.885
16594W        W81821   1.276  40.923   4.550
16595W        W81822  33.366  19.799   5.079
16596W        W81823  37.956  10.763   3.838
16597W        W81824  30.739   4.734  11.258
16598W        W81825  39.466   2.368   3.544
16599W        W81826   5.715  35.289  12.864
16600W        W81827   4.030  30.546   4.440
16601W        W81828   2.346   3.968   1.748
16602W        W81829  39.069   9.197   0.192
16603W        W81830  39.884  25.203  13.795
16604W        W81831  39.165  17.720   1.443
16605W        W81832   3.870  23.028   0.899
16606W        W81833   1.877  14.846  12.559
16607W        W81834  36.255  12.110   4.582
16608W        W81835  38.799  39.732  10.995
16609W        W81836  13.213   1.689   2.320
16610W        W81837  29.323   6.930   0.944
16611W        W81838   0.143   0.493   2.404
16612W        W81839   4.899  42.635   5.025
16613W        W81840   2.898  34.113   3.158
16614W        W81841  25.024  18.455  10.631
16615W        W81842  35.114  34.705  12.411
16616W        W81843  14.625  26.008   0.360
16617W        W81844  34.451  27.403   3.700
16618W        W81845  44.760   6.664  13.797
16619W        W81846  15.570  34.881  14.326
16620W        W81847  21.307  35.965  10.281
16621W        W81848  39.009  36.102  14.897
16622W        W81849  14.257  26.426  12.022
16623W        W81850   5.727  14.465   5.284
16624W        W81851  14.599  40.840  14.321
16625W        W81852   3.007  37.487  10.666
16626W        W81853   6.357   4.306  13.249
16627W        W81854   7.539  31.799   2.424
16628W        W81855  20.561   2.395  13.354
16629W        W81856  39.352   6.646   4.515
16630W        W81857  33.543   1.344  14.093
16631W        W81858  30.907  35.990   1.103
16632W        W81859  15.319   1.685   4.297
16633W        W81860   8.824   2.786   3.993
16634W        W81861  23.523  25.151   4.184
16635W        W81862   5.401  30.385  11.523
16636W        W81863   4.545  19.839   3.377
16637W        W81864  31.645  42.043   2.402
16638W        W81865   1.775  11.577  14.584
16639W        W81866  43.918  21.021  14.219
16640W        W81867  18.170  17.326   1.920
16641W        W81868  17.619  40.753  12.476
16642W        W81869  10.337   3.499  14.677
16643W        W81870  29.178  44.511   0.072
16644W        W81871  41.349  10.253   3.555
16645W        W81872  38.482  30.547   0.349
16646W        W81873  34.001  41.859   1.615
16647W        W81874  39.110  14.177  10.366
16648W        W81875  19.280  26.002  10.657
16649W        W81876  22.191  19.236  11.289
16650W        W81877  24.530   3.733   1.733
16651W        W81878  28.882  26.996   1.311
16652W        W81879  27.069   4.308   4.034
16653W        W81880  35.608   6.117  14.908
16654W        W81881  26.956  10.815   1.427
16655W        W81882  14.900   2.254   0.382
16656W        W81883  36.955  24.884   5.079
16657W        W81884  44.353  18.177   4.525
16658W        W81885  16.596  40.256  11.205
16659W        W81886   8.966  38.152  11.090
16660W        W81887  32.975  38.361   3.345
16661W        W81888  14.746   5.702   0.351
16662W        W81889  43.245  31.890   2.119
16663W        W81890  24.555  32.911   1.686
16664W        W81891  12.463  35.992   4.514
16665W        W81892  38.905  44.818   4.651
16666W        W81893  34.213  44.729  14.744
16667W        W81894  14.747   6.017   4.413
16668W        W81895   4.293  25.968   2.834
16669W        W81896   7.394  19.019   5.007
16670W        W81897  34.985   7.722   2.296
16671W        W81898  15.281  19.592  11.637
16672W        W81899   9.326  34.294   2.430
16673W        W81900  29.587  20.670  12.971
16674W        W81901   6.744  11.141  12.558
16675W        W81902   2.391   7.749   2.999
16676W        W81903  44.112   6.470   0.014
16677W        W81904  34.814  42.779  12.272
16678W        W81905  30.117  30.106   1.957
16679W        W81906  41.643  33.735  11.985
16680W        W81907   6.372  36.605   1.041
16681W        W81908   3.400  13.183   5.030
16682W        W81909  27.074  28.344   5.098
16683W        W81910  35.397  14.782  12.488
16684W        W81911  28.963   4.156  14.039
16685W        W81912  22.750  32.428   0.835
16686W        W81913  36.843  43.338   4.353
16687W        W81914  44.310   9.377  14.645
16688W        W81915   6.350  32.454  13.971
16689W        W81916  19.015   7.832  13.018
16690W        W81917  40.724  13.311   4.174
16691W        W81918  27.479  12.457   1.898
16692W        W81919  24.084  37.942  13.766
16693W        W81920  26.718  25.424  14.486
16694W        W81921  22.603  29.698  12.652
16695W        W81922  44.995  44.767   1.740
16696W        W81923  16.743  42.015  13.858
16697W        W81924  39.407   7.447  10.345
16698W        W81925  39.643  41.798  12.448
16699W        W81926  39.912  32.709  14.935
16700W        W81927   1.894  40.423  11.841
16701W        W81928  15.301  27.252  12.009
16702W        W81929  16.080  33.188  12.502
16703W        W81930  43.525   4.489  13.776
16704W        W81931  42.366   4.958  13.881
16705W        W81932  25.296  42.893   2.744
16706W        W81933   6.640  17.094  14.248
16707W        W81934  27.334  30.668   0.814
16708W        W81935  20.017  23.231  14.919
16709W        W81936  10.684  12.212   0.928
16710W        W81937   4.663  41.958  13.891
16711W        W81938  20.482  36.562   0.280
16712W        W81939   0.400  14.820  12.951
16713W        W81940  25.653   6.177  12.089
16714W        W81941  44.883  24.974   2.275
16715W        W81942  26.832  42.518  14.448
16716W        W81943  37.124   2.132   2.673
16717W        W81944   6.726  37.061   2.773
16718W        W81945   5.748  23.636   3.713
16719W        W81946  27.334  42.852   0.724
16720W        W81947  37.475   6.697  14.913
16721W        W81948   3.457  18.483   1.200
16722W        W81949  20.954  28.526   0.039
16723W        W81950  40.455  22.578   1.710
16724W        W81951  33.333   4.812  12.577
16725W        W81952   1.214  25.353   5.400
16726W        W81953  23.773  13.776   2.195
16727W        W81954  26.616  15.858   2.707
16728W        W81955   8.701  19.193   3.756
16729W        W81956   4.800  38.879  13.778
16730W        W81957  28.720  15.321   1.648
16731W        W81958  26.398  24.439  10.739
16732W        W81959   7.644  40.948   2.639
16733W        W81960  23.423   5.948   2.463
16734W        W81961  37.709  30.960  14.883
16735W        W81962  27.438   8.115  11.064
16736W        W81963  19.221  37.083  14.757
16737W        W81964  22.668   8.032  12.219
16738W        W81965   3.746  24.199  12.560
16739W        W81966   0.250  35.927  10.620
16740W        W81967  41.884  16.118   0.523
16741W        W81968  34.985  40.038   3.127
16742W        W81969  34.041   4.913  12.016
16743W        W81970  14.128  20.085  13.435
16744W        W81971  44.293  11.872  12.659
16745W        W81972  25.067   4.328   1.127
16746W        W81973   8.738   2.686   0.867
16747W        W81974  25.637  31.942   0.372
16748W        W81975   8.333  30.822  11.469
16749W        W81976   4.900  17.202   0.264
16750W        W81977  33.359  18.656   0.698
16751W        W81978   4.500  39.625  14.914
16752W        W81979  43.467   3.688   4.634
16753W        W81980  20.552   0.560  11.517
16754W        W81981  35.341  42.378   4.183
16755W        W81982   7.121  12.572  11.703
16756W        W81983  22.207  35.067   1.215
16757W        W81984  32.860  12.684   4.603
16758W        W81985  10.173  24.550   0.170
16759W        W81986  14.027   3.306   1.586
16760W        W81987   8.730  17.118  12.560
16761W        W81988  43.306   8.099   5.508
16762W        W81989  13.152  15.032   3.657
16763W        W81990  39.796  20.635  14.867
16764W        W81991  13.228  27.076   2.469
16765W        W81992  36.838  34.757  13.752
16766W        W81993  23.653  40.512   3.596
16767W        W81994  39.526  43.037  10.765
16768W        W81995  32.082  43.607   0.822
16769W        W81996  38.884  21.653  13.407
16770W        W81997  36.117  34.288  14.010
16771W        W81998  18.653  41.274  13.383
16772W        W81999  43.779  20.958  12.862
16773W        W82000  22.730  31.082  12.910
16774W        W82001  34.393   4.945   1.680
16775W        W82002   9.922  30.009   3.178
16776W        W82003  37.548   6.900  12.935
16777W        W82004   6.645  26.759   9.892
16778W        W82005  32.391   2.363  12.051
16779W        W82006  11.330  41.275  11.967
16780W        W82007  36.993  14.850  14.148
16781W        W82008   3.433  29.467  12.022
16782W        W82009  19.595   3.794  12.566
16783W        W82010   0.102  44.936   3.679
16784W        W82011   0.407  14.816  10.716
16785W        W82012  32.093   2.216   0.479
16786W        W82013   9.725  23.625   2.308
16787W        W82014   8.666  13.840   3.210
16788W        W82015   5.085  32.235  14.513
16789W        W82016  16.031  19.048   3.388
16790W        W82017   5.940   6.038  11.230
16791W        W82018  44.322  28.091   3.708
16792W        W82019  19.265  36.446   3.313
16793W        W82020  16.554  21.611  10.669
16794W        W82021  24.807  30.673  11.011
16795W        W82022   9.777  10.104   3.410
16796W        W82023   7.569  19.461   2.068
16797W        W82024  43.298  37.576  13.453
16798W        W82025  41.511  34.990   3.454
16799W        W82026   1.234  23.170  11.200
16800W        W82027   5.731  42.922   4.636
16801W        W82028  10.489  42.824  13.067
16802W        W82029  42.149   8.334  12.950
16803W        W82030  18.730  24.010   1.404
16804W        W82031  21.790  16.327   1.866
16805W        W82032  19.026   2.703   1.518
16806W        W82033   9.428  20.076   2.616
16807W        W82034  39.875   0.795   0.685
16808W        W82035   7.904  38.818   3.083
16809W        W82036  20.022  27.579  14.207
16810W        W82037   6.670  28.557   3.398
16811W        W82038  14.361  10.253  10.395
16812W        W82039  24.169  40.716   4.048
16813W        W82040  36.065  41.915  14.374
16814W        W82041  19.378  41.043   1.375
16815W        W82042  25.427   6.683   4.443
16816W        W82043  44.538   7.055  11.379
16817W        W82044  33.079  36.516   3.076
16818W        W82045  44.157  12.262   4.477
16819W        W82046   6.724  17.168   0.073
16820W        W82047  38.980  41.956   4.351
16821W        W82048  26.463   7.146   0.502
16822W        W82049   3.994  11.834   3.386
16823W        W82050  44.898  32.059  12.029
16824W        W82051  25.716  29.044   3.727
16825W        W82052  39.934   3.831   4.092
16826W        W82053  16.301  31.687  10.629
16827W        W82054   5.708  39.344  13.044
16828W        W82055  18.950  36.137  14.999
16829W        W82056  35.779  16.715  11.180
16830W        W82057   3.705  32.528   1.408
16831W        W82058   9.344   2.993   4.299
16832W        W82059   3.411  41.068  13.882
16833W        W82060  43.737  11.754  14.451
16834W        W82061   6.472  23.295  13.429
16835W        W82062  27.895  42.243  13.439
16836W        W82063  26.977  43.231   2.380
16837W        W82064  31.581   4.811  14.362
16838W        W82065   3.275  12.336   3.345
16839W        W82066  16.311  32.444   5.212
16840W        W82067  25.478  35.794  11.547
16841W        W82068   4.080  42.496   4.050
16842W        W82069  29.084  11.590   2.156
16843W        W82070   1.455  15.333   1.314
16844W        W82071  40.779  38.039  13.805
16845W        W82072  11.883  14.199   0.298
16846W        W82073   1.959  42.180   4.193
16847W        W82074  20.234  37.963  11.980
16848W        W82075   5.794   4.259  14.962
16849W        W82076  24.966  18.124  13.264
16850W        W82077  35.900   8.777  11.989
16851W        W82078  12.145  20.300   1.607
16852W        W82079   4.174  24.276   2.770
16853W        W82080  10.740  31.066  14.490
16854W        W82081  35.587   0.575   0.565
16855W        W82082   7.410   1.437  13.978
16856W        W82083  26.477  36.541   1.761
16857W        W82084  43.991  36.831  11.593
16858W        W82085  29.410  11.452   3.504
16859W        W82086  18.256  25.920  14.870
16860W        W82087   4.197  29.530  12.510
16861W        W82088  19.931  16.078  12.888
16862W        W82089  37.429  39.423  12.107
16863W        W82090  29.179  27.831   5.361
16864W        W82091  26.385  31.548   3.717
16865W        W82092  20.252  20.620   3.415
16866W        W82093  23.458  27.898  11.941
16867W        W82094   6.223   0.354   1.468
16868W        W82095  26.029  13.172   3.395
16869W        W82096  37.906  33.098  12.537
16870W        W82097  36.106  36.920  14.885
16871W        W82098  36.356  16.851   2.363
16872W        W82099  20.162   1.820  10.699
16873W        W82100  35.460  22.612  12.581
16874W        W82101  28.075  41.108   4.599
16875W        W82102  43.580  13.044   2.423
16876W        W82103   2.870  39.443   3.526
16877W        W82104  14.840   2.046  10.427
16878W        W82105   1.729  11.981  13.107
16879W        W82106  15.408  30.552   2.804
16880W        W82107  14.538  28.086  14.846
16881W        W82108   5.647   7.751  13.940
16882W        W82109   3.789  12.254   0.809
16883W        W82110  12.767   6.676   0.816
16884W        W82111  20.340  36.124   4.609
16885W        W82112   7.447   5.602   3.661
16886W        W82113  39.823  33.046  13.116
16887W        W82114  43.870  40.349   2.860
16888W        W82115  41.073  11.184   2.777
16889W        W82116  10.856  13.288   4.557
16890W        W82117  35.472  28.050   4.364
16891W        W82118  30.888  15.231  12.111
16892W        W82119  36.883  44.309  14.773
16893W        W82120  43.953  36.423  13.419
16894W        W82121  34.861  32.325  14.955
16895W        W82122  35.054  12.906   3.448
16896W        W82123  13.650   0.515  14.514
16897W        W82124  36.029  25.847  11.198
16898W        W82125  24.641  41.045   2.820
16899W        W82126  20.176  39.882   1.296
16900W        W82127  24.051  28.202   2.367
16901W        W82128  34.024  40.328  12.548
16902W        W82129   0.418  31.812  14.162
16903W        W82130  21.331  14.082   4.324
16904W        W82131   5.614  41.855   4.583
16905W        W82132  11.802   4.972   4.553
16906W        W82133  31.017  17.524   0.831
16907W        W82134  40.798  24.549   3.245
16908W        W82135  10.545  33.681  10.337
16909W        W82136  29.199  41.900  14.777
16910W        W82137  26.679  37.398   3.273
16911W        W82138  41.078  31.321   2.855
16912W        W82139  28.424  24.967  12.469
16913W        W82140  27.990  40.348   2.270
16914W        W82141  23.677  30.108   4.497
16915W        W82142  17.543  27.955   0.413
16916W        W82143   6.248  12.339  14.423
16917W        W82144  30.045   3.240   0.951
16918W        W82145  18.256  19.108  12.838
16919W        W82146  11.158  34.414   2.050
16920W        W82147   3.002  34.547  11.517
16921W        W82148  39.817  12.255  11.100
16922W        W82149   7.493   7.445  10.587
16923W        W82150  22.567   3.246   0.222
16924W        W82151  20.400  26.554  12.185
16925W        W82152   3.303   0.852  12.813
16926W        W82153  40.773  12.237   0.453
16927W        W82154  28.581  35.908  14.945
16928W        W82155  39.871  22.301   3.894
16929W        W82156   6.254   9.959  14.716
16930W        W82157  29.366  36.583   2.804
16931W        W82158  19.356  41.074   0.433
16932W        W82159  33.413   7.329   4.548
16933W        W82160  25.217  41.588  11.665
16934W        W82161  12.855  13.544   0.435
16935W        W82162  43.941  13.652  14.348
16936W        W82163  43.812  18.338   1.413
16937W        W82164  30.531  40.741   4.128
16938W        W82165   9.336  43.744   1.312
16939W        W82166   5.198  10.964   1.973
16940W        W82167  18.948  12.377   2.365
16941W        W82168  34.820  25.160  14.717
16942W        W82169  28.909   0.945  13.010
16943W        W82170  28.448  41.968   2.726
16944W        W82171   6.256  42.946   3.817
16945W        W82172   7.657  43.339   2.673
16946W        W82173   0.927  32.550   2.388
16947W        W82174  11.464   7.621  13.853
16948W        W82175   8.920  39.323   4.582
16949W        W82176  27.510  25.132   0.354
16950W        W82177  19.731  10.836   2.543
16951W        W82178  25.492  30.592   2.770
16952W        W82179  42.624  17.390  12.055
16953W        W82180  15.218  35.146   4.516
16954W        W82181  30.176  39.365  11.468
16955W        W82182  28.023  34.579  12.437
16956W        W82183  23.732  28.208  11.605
16957W        W82184  11.139  39.609   4.125
16958W        W82185  41.119  15.207   4.297
16959W        W82186  35.283  35.514  11.591
16960W        W82187  26.620  10.845   3.127
16961W        W82188  29.221  21.997   3.280
16962W        W82189  17.815  14.311  10.410
16963W        W82190  16.812  42.508   4.107
16964W        W82191  21.315  14.094   1.408
16965W        W82192  26.272  16.770   3.274
16966W        W82193  28.096  42.861   3.563
16967W        W82194  37.107  12.662   4.224
16968W        W82195   3.388   8.859   1.866
16969W        W82196  33.512  40.423  12.546
16970W        W82197  38.217  16.640   3.092
16971W        W82198  27.938  35.757  13.380
16972W        W82199  42.814  38.817   4.157
16973W        W82200   2.233  36.541   1.452
16974W        W82201  19.715  22.504   2.885
16975W        W82202  17.923  22.994   2.328
16976W        W82203   2.777  19.565  14.456
16977W        W82204   1.861   4.921   0.303
16978W        W82205  21.133  14.817   2.092
16979W        W82206   7.471  26.878   0.468
16980W        W82207  20.573  43.905   1.853
16981W        W82208  29.436   5.882   2.845
16982W        W82209  33.479  37.471  13.513
16983W        W82210   2.504  35.067  12.173
16984W        W82211  30.665  38.460  14.942
16985W        W82212  14.872  32.868   9.715
16986W        W82213  20.728  34.373  14.824
16987W        W82214  11.113  36.883   2.152
16988W        W82215  10.922   4.580  14.492
16989W        W82216  18.992  26.569   0.436
16990W        W82217  14.798  28.478   3.654
16991W        W82218  23.198  37.027   3.801
16992W        W82219  20.243   1.754  13.900
16993W        W82220   8.843  35.750  11.555
16994W        W82221   2.871  26.003  14.469
16995W        W82222  22.059  19.011   3.716
16996W        W82223   0.531  44.389  14.745
16997W        W82224  30.067   0.648  11.869
16998W        W82225   2.314   7.370  12.962
16999W        W82226  33.631  20.984   1.436
17000W        W82227  35.162  37.511   1.703
17001W        W82228  44.513   7.532  11.195
17002W        W82229  33.933  21.983   1.484
17003W        W82230   1.198   7.587  11.535
17004W        W82231  15.286  41.444  11.555
17005W        W82232  23.589  29.510   4.063
17006W        W82233  34.951   4.690   2.611
17007W        W82234  14.626  25.254   1.770
17008W        W82235   8.365  14.854  14.666
17009W        W82236  26.723  36.678   0.878
17010W        W82237  38.754  44.943   2.809
17011W        W82238  36.196  15.913   0.339
17012W        W82239  19.445  19.207  14.280
17013W        W82240  40.327  42.118  13.506
17014W        W82241  13.322  17.575  14.866
17015W        W82242   0.037  38.514   1.544
17016W        W82243  43.564   7.768   4.180
17017W        W82244  39.917  40.609   1.717
17018W        W82245   4.802  10.233   3.383
17019W        W82246  36.468  17.153  12.546
17020W        W82247  27.095  40.865   1.133
17021W        W82248  34.285  33.688   1.849
17022W        W82249  33.386  33.916  11.152
17023W        W82250  32.446  10.217   4.866
17024W        W82251  33.553   8.405  13.067
17025W        W82252  19.201  17.162  11.490
17026W        W82253  19.635  44.367   0.490
17027W        W82254  31.622  41.932   0.465
17028W        W82255  34.615  41.132  13.438
17029W        W82256  38.216   9.347  11.271
17030W        W82257   0.212  35.609   2.533
17031W        W82258  38.976  29.039   4.182
17032W        W82259  40.972  37.061  12.412
17033W        W82260  23.283  35.658  11.126
17034W        W82261  37.817   3.028  11.088
17035W        W82262  32.917  44.513   4.594
17036W        W82263  16.294   8.696   1.943
17037W        W82264  23.930  18.228  13.502
17038W        W82265  25.426  23.580   4.150
17039W        W82266  36.064  38.966  14.431
17040W        W82267  26.590  28.938  10.072
17041W        W82268  23.095  21.598  10.474
17042W        W82269  16.145   2.313  14.490
17043W        W82270   7.748  31.869   3.824
17044W        W82271  16.633  30.047   4.577
17045W        W82272  14.050  27.982   0.774
17046W        W82273  13.635  20.051   0.027
17047W        W82274  18.517  37.038  12.949
17048W        W82275  42.617  32.692   3.253
17049W        W82276  34.788  15.196  10.313
17050W        W82277   0.981  34.772   0.329
17051W        W82278  33.207  23.445   2.299
17052W        W82279  32.111  10.483   2.150
17053W        W82280   6.367   5.652  11.947
17054W        W82281  23.684  29.229   0.860
17055W        W82282  35.773   1.431   0.019
17056W        W82283   6.877  26.618   2.408
17057W        W82284   7.747  37.732  11.668
17058W        W82285  10.131  16.725   3.535
17059W        W82286  37.861   0.956   1.399
17060W        W82287   0.934   0.151  14.215
17061W        W82288  34.351  17.796  13.043
17062W        W82289  22.664  33.343  11.208
17063W        W82290   6.045   2.054   1.354
17064W        W82291  31.045  38.342   1.268
17065W        W82292  28.209   4.819   3.704
17066W        W82293  29.959   2.727   2.480
17067W        W82294  36.399  31.470  13.980
17068W        W82295   2.264  34.851   3.690
17069W        W82296  18.285  37.751   3.613
17070W        W82297  40.881  39.877   1.403
17071W        W82298  41.358  19.471  14.357
17072W        W82299  14.836  33.150  14.004
17073W        W82300   3.769  34.670   4.422
17074W        W82301   2.139  41.043   0.291
17075W        W82302   3.902  28.249  14.894
17076W        W82303   3.818  18.472  13.081
17077W        W82304   6.859  35.965   3.635
17078W        W82305  29.390  40.258   3.868
17079W        W82306   9.569  24.915  10.315
17080W        W82307   0.383  13.183  12.975
17081W        W82308  17.072   3.793  10.835
17082W        W82309  43.433  42.215   4.445
17083W        W82310  15.688   3.590   1.011
17084W        W82311  44.962   4.930  11.208
17085W        W82312   2.345   2.519   1.255
17086W        W82313  15.686  32.631   5.504
17087W        W82314  33.989  36.590  13.387
17088W        W82315  22.225  30.801  11.129
17089W        W82316  11.885  44.413  14.130
17090W        W82317  23.821  38.869  14.528
17091W        W82318  15.990  39.006   1.577
17092W        W82319  20.614  28.436  11.564
17093W        W82320   0.989   5.702  11.748
17094W        W82321  36.468  17.836   1.223
17095W        W82322   0.035  36.878   4.350
17096W        W82323   2.566  33.620  14.486
17097W        W82324  28.003  12.810   2.807
17098W        W82325  24.595  19.040   4.081
17099W        W82326  23.913  44.823   0.342
17100W        W82327  32.064   0.906   1.852
17101W        W82328  43.833  35.590  14.418
17102W        W82329   4.169   0.973   2.313
17103W        W82330  44.906  32.732   3.700
17104W        W82331  38.485  32.085   2.346
17105W        W82332  40.360  37.536   2.009
17106W        W82333  20.825   2.865  12.481
17107W        W82334  17.715   9.555   2.647
17108W        W82335   4.182  34.703   4.747
17109W        W82336  37.546  22.967   1.404
17110W        W82337  28.006  17.450   2.772
17111W        W82338  39.445  32.099   0.199
17112W        W82339  18.549  29.728  13.433
17113W        W82340  34.032  14.552  13.756
17114W        W82341  32.540  15.975   1.246
17115W        W82342  30.098  17.496   3.647
17116W        W82343   9.384  19.079  14.856
17117W        W82344  25.472   4.733   0.356
17118W        W82345   8.325  22.367  12.958
17119W        W82346   1.905  42.488   2.816
17120W        W82347  22.542  12.588  12.620
17121W        W82348  14.020   0.174  14.471
17122W        W82349  41.750   1.894  11.854
17123W        W82350  14.200  19.971  14.202
17124W        W82351  22.471  16.322   3.268
17125W        W82352  41.815   6.267   2.802
17126W        W82353  23.231  12.149   3.624
17127W        W82354   4.849  18.033  12.843
17128W        W82355   9.609  28.040   3.022
17129W        W82356  18.194  25.839  13.440
17130W        W82357  43.428   1.747  13.004
17131W        W82358  19.425   8.819  11.915
17132W        W82359  34.013  23.277   0.349
17133W        W82360  28.184   8.312  11.148
17134W        W82361  23.935  10.351   0.779
17135W        W82362   1.691  23.571  13.599
17136W        W82363   4.797  37.949  10.184
17137W        W82364  31.869  20.740  10.758
17138W        W82365   8.112  36.566  13.356
17139W        W82366  31.029  27.554   4.305
17140W        W82367  22.668  30.511   2.564
17141W        W82368  30.491  12.040   5.458
17142W        W82369  38.879   0.395   3.020
17143W        W82370  35.231  34.193   0.249
17144W        W82371  36.968   7.332   3.278
17145W        W82372  26.418  12.625  12.423
17146W        W82373  18.412  27.238  13.486
17147W        W82374  15.865  42.556   2.375
17148W        W82375  18.184  22.589  14.282
17149W        W82376  22.155  24.979   0.864
17150W        W82377   4.416  23.514  13.386
17151W        W82378  23.255  31.856   2.372
17152W        W82379  11.645  43.052   2.290
17153W        W82380   1.395  37.166   9.944
17154W        W82381  13.878  29.153  12.937
17155W        W82382  14.024  35.321   0.289
17156W        W82383  19.087  21.566  12.955
17157W        W82384   2.820  39.461  12.913
17158W        W82385   8.660  35.475  13.045
17159W        W82386  44.452  10.788   1.183
17160W        W82387  27.187  43.213   1.474
17161W        W82388  42.869   3.788   3.667
17162W        W82389  33.274  25.103   0.317
17163W        W82390   6.506  36.246   4.055
17164W        W82391   4.680  28.112  11.921
17165W        W82392  27.720  38.933   1.814
17166W        W82393  41.721  12.796  12.804
17167W        W82394  32.718  14.388   2.390
17168W        W82395  18.612  21.312  13.001
17169W        W82396  18.688  24.036  11.224
17170W        W82397  21.610  37.638   4.237
17171W        W82398   7.569  13.664   0.412
17172W        W82399   4.851  23.136  14.426
17173W        W82400   9.953  16.775   4.051
17174W        W82401  44.688  28.130   4.090
17175W        W82402  27.945  10.897  10.737
17176W        W82403   6.691  29.500   0.228
17177W        W82404  37.479  17.522  12.874
17178W        W82405  27.437  43.336   3.701
17179W        W82406  13.519   3.415  10.770
17180W        W82407  13.912  29.175  11.868
17181W        W82408  10.230  18.439  12.499
17182W        W82409  29.409  21.214   4.081
17183W        W82410  43.909  12.223  12.462
17184W        W82411  18.241  38.308   2.813
17185W        W82412  16.153  27.145   0.366
17186W        W82413   6.096  37.524   9.971
17187W        W82414  27.990  10.975   1.593
17188W        W82415  44.784  20.907   1.343
17189W        W82416  21.759  13.235   0.944
17190W        W82417  16.325  40.994   3.788
17191W        W82418  22.706   5.393  11.248
17192W        W82419  21.497  12.960  11.307
17193W        W82420   0.998   1.357  12.375
17194W        W82421  10.602  30.407   4.028
17195W        W82422  21.438   9.956   0.382
17196W        W82423  37.992   7.146  13.442
17197W        W82424  20.020   5.907  11.696
17198W        W82425  36.271  17.858  14.004
17199W        W82426  43.553   2.163   4.299
17200W        W82427  32.960   1.667  11.020
17201W        W82428   9.605  19.041   0.328
17202W        W82429   3.748  23.578  13.981
17203W        W82430   8.885  17.944   3.200
17204W        W82431  33.341  44.418   3.233
17205W        W82432  39.981  11.385  10.935
17206W        W82433  15.771   0.007  11.629
17207W        W82434  11.276  17.924  10.439
17208W        W82435  10.149  37.571   4.665
17209W        W82436   4.963   3.161  13.051
17210W        W82437  17.564  44.412   4.601
17211W        W82438  19.179  25.164  13.041
17212W        W82439  29.412   2.237   0.286
17213W        W82440  17.455  38.787   1.352
17214W        W82441  40.676  42.418   3.847
17215W        W82442  11.970  32.594  11.920
17216W        W82443  12.682  34.668   2.314
17217W        W82444  12.651  22.255   1.859
17218W        W82445   9.299   9.456   4.646
17219W        W82446  12.680  40.577   1.812
17220W        W82447  39.318  44.071   0.359
17221W        W82448  37.043  39.335  12.474
17222W        W82449  20.355  17.781  11.569
17223W        W82450  23.646  32.144  14.367
17224W        W82451  42.377  29.374  13.089
17225W        W82452  30.901   1.700  14.493
17226W        W82453  13.438  43.742  14.922
17227W        W82454  44.438   5.816   1.943
17228W        W82455  41.342  27.470  14.506
17229W        W82456  27.536  41.152  14.415
17230W        W82457  40.020  12.745  10.380
17231W        W82458  15.320  28.070  11.130
17232W        W82459  27.127  40.389   1.300
17233W        W82460  40.433  20.758  12.663
17234W        W82461  31.478  21.293  12.496
17235W        W82462  26.550  17.658   4.085
17236W        W82463  22.715  31.888   0.846
17237W        W82464   7.800  31.159  12.560
17238W        W82465  17.357  34.475  11.791
17239W        W82466  22.472  23.062  11.203
17240W        W82467  42.200  19.759  14.912
17241W        W82468  16.297  32.093  14.656
17242W        W82469  22.739  34.438   3.285
17243W        W82470   8.862  31.598  11.217
17244W        W82471   6.155  19.164   3.494
17245W        W82472  11.368  29.161  12.934
17246W        W82473  42.698  43.263   2.369
17247W        W82474  37.163   8.717  13.350
17248W        W82475  28.665   8.089  11.037
17249W        W82476  41.579  40.434  11.698
17250W        W82477   4.202  18.640  12.759
17251W        W82478  33.219  44.858  10.607
17252W        W82479  30.678   5.909   3.307
17253W        W82480  27.789  13.173   0.788
17254W        W82481  21.250  38.717   3.616
17255W        W82482  18.448  35.018  10.059
17256W        W82483  24.631  29.122   0.861
17257W        W82484  20.701   7.950   1.230
17258W        W82485  41.080  36.963  14.442
17259W        W82486  31.686   9.849   2.684
17260W        W82487  39.601  33.079   1.631
17261W        W82488  20.288  30.811  12.044
17262W        W82489  10.576  29.007   3.261
17263W        W82490  31.187  12.275  12.499
17264W        W82491  23.560  11.414  12.988
17265W        W82492  12.203  37.064   3.285
17266W        W82493  38.884   9.103   3.659
17267W        W82494   0.409   6.820  11.428
17268W        W82495   2.764  34.330   2.295
17269W        W82496  44.945  14.824  14.313
17270W        W82497  24.705  24.223   2.210
17271W        W82498  24.236  42.777   0.884
17272W        W82499  16.196   1.991   2.695
17273W        W82500  26.351  20.047  13.636
17274W        W82501  39.404  35.082   1.406
17275W        W82502  26.066  25.911   4.803
17276W        W82503   1.273   4.945  12.583
17277W        W82504  40.689  41.487   0.934
17278W        W82505   6.525  34.952  12.486
17279W        W82506  18.841   6.866  14.879
17280W        W82507  29.888  18.630  11.420
17281W        W82508  25.518  23.783   0.975
17282W        W82509  40.058  25.701  13.633
17283W        W82510   0.176  23.932  14.804
17284W        W82511  34.917  39.167   2.183
17285W        W82512  17.707  24.901  14.282
17286W        W82513   5.382  14.933   2.632
17287W        W82514  19.078  41.512  11.194
17288W        W82515  20.735  44.038  11.491
17289W        W82516   7.933  21.108  12.574
17290W        W82517  10.087   5.733  11.214
17291W        W82518  40.266   7.862   4.609
17292W        W82519  20.644  44.939  12.355
17293W        W82520  29.028  23.524  14.987
17294W        W82521  11.634   7.797   1.899
17295W        W82522   3.469  26.925  11.558
17296W        W82523  14.084  34.140  13.192
17297W        W82524   8.470   6.451  12.323
17298W        W82525   0.852  43.841  13.795
17299W        W82526  36.956   0.709   1.882
17300W        W82527  11.941   2.174   0.794
17301W        W82528  42.040   2.886   0.874
17302W        W82529   0.946  10.662   3.057
17303W        W82530  38.446  18.283  12.525
17304W        W82531  21.621  38.263   0.034
17305W        W82532  21.642  20.197   2.724
17306W        W82533  32.454  16.131   3.331
17307W        W82534  38.331  12.174   2.031
17308W        W82535  28.629  31.997  10.539
17309W        W82536  29.659  23.248   2.139
17310W        W82537  39.982  24.206  10.412
17311W        W82538  38.474  24.691  14.752
17312W        W82539  11.721  19.259  11.206
17313W        W82540   3.557   4.335  13.846
17314W        W82541  21.673  28.289   9.820
17315W        W82542  23.731   1.164   0.509
17316W        W82543  28.651   1.153   2.316
17317W        W82544  28.109  35.888   3.627
17318W        W82545  10.254   0.670   4.569
17319W        W82546  23.653  38.787  10.713
17320W        W82547   2.049  31.538   1.798
17321W        W82548  10.724  29.136  14.927
17322W        W82549  28.810  44.883   1.694
17323W        W82550  43.612   9.955  12.493
17324W        W82551  29.259  18.185   4.859
17325W        W82552  31.177   9.850   2.775
17326W        W82553  35.810   9.360   4.672
17327W        W82554   9.223  30.420  11.920
17328W        W82555   9.769  30.712  14.781
17329W        W82556  39.722  14.353   0.936
17330W        W82557  14.710   9.184   0.296
17331W        W82558  30.257  24.064  12.169
17332W        W82559  23.027  16.699   3.183
17333W        W82560   0.369  10.594   4.108
17334W        W82561   4.746  25.991   0.382
17335W        W82562  23.977  44.992  13.621
17336W        W82563   4.947  21.247   4.079
17337W        W82564  15.738  19.598   3.476
17338W        W82565  36.667   0.535  13.107
17339W        W82566   4.751  18.963  11.487
17340W        W82567  30.166   7.909  12.295
17341W        W82568   1.467  33.719  11.597
17342W        W82569  42.370  19.732  12.270
17343W        W82570   6.517  40.811  11.419
17344W        W82571  12.064   2.647   4.595
17345W        W82572  27.829  14.528  14.710
17346W        W82573  15.307   9.357  13.126
17347W        W82574  22.022  10.644  13.168
17348W        W82575  18.802  40.041   4.263
17349W        W82576  43.422  35.318  12.488
17350W        W82577   7.817   7.236   9.620
17351W        W82578   1.974  28.651   3.177
17352W        W82579  29.077   7.144   3.240
17353W        W82580  32.496  43.035  13.327
17354W        W82581  24.206   1.927   3.621
17355W        W82582   2.684  16.417  11.488
17356W        W82583  17.462  38.518   4.514
17357W        W82584  39.766  32.584  10.861
17358W        W82585  42.546  28.284   3.936
17359W        W82586   6.734  28.075   4.295
17360W        W82587  12.025  38.099  12.832
17361W        W82588  39.364  27.945  14.903
17362W        W82589  30.361  23.137  14.906
17363W        W82590   2.890  12.310  11.218
17364W        W82591  38.802   6.424   2.257
17365W        W82592  41.261  15.105  10.605
17366W        W82593  27.218  37.434   4.153
17367W        W82594  23.729  33.150  14.338
17368W        W82595  32.343  10.722   4.022
17369W        W82596  37.745  21.266   1.381
17370W        W82597   8.225  11.890   3.546
17371W        W82598   0.214  29.637   2.178
17372W        W82599   2.924  44.576   4.561
17373W        W82600  37.021  26.628  14.843
17374W        W82601  41.865   8.318   1.732
17375W        W82602  35.004  29.611   0.090
17376W        W82603  27.931  16.918   2.812
17377W        W82604  12.635  14.182  12.816
17378W        W82605  40.206   8.666   5.101
17379W        W82606  40.223   0.992  10.773
17380W        W82607  29.352  24.956  13.914
17381W        W82608   0.873  13.470  13.679
17382W        W82609  21.163   6.183   3.294
17383W        W82610  41.296   2.324   2.418
17384W        W82611  28.674  19.790  12.045
17385W        W82612  15.526  17.202   2.369
17386W        W82613  44.747  11.147  12.446
17387W        W82614  33.590   1.958  11.545
17388W        W82615  21.614   9.097  12.383
17389W        W82616   6.970  10.719  13.491
17390W        W82617   3.672  28.656   0.669
17391W        W82618  19.005  34.106   3.085
17392W        W82619  18.991  25.033   1.913
17393W        W82620  36.768   1.093   2.203
17394W        W82621  16.188  19.622  11.231
17395W        W82622  31.429   0.823   0.395
17396W        W82623  24.716   7.093   1.251
17397W        W82624  42.769  33.574   0.229
17398W        W82625  14.817  23.040   2.206
17399W        W82626   5.005  31.213  13.022
17400W        W82627  26.530   9.798   3.200
17401W        W82628  18.262   9.598  14.867
17402W        W82629   8.411  12.223  10.717
17403W        W82630  27.097   4.584   3.049
17404W        W82631   0.051  24.047  11.506
17405W        W82632  21.685  39.613  13.396
17406W        W82633  15.278   1.408  10.773
17407W        W82634  20.561  17.348  10.759
17408W        W82635  27.390  27.120  12.410
17409W        W82636  29.206  18.394  14.033
17410W        W82637  11.334  29.708  11.268
17411W        W82638  31.133   3.889  11.734
17412W        W82639  19.180   3.493  11.081
17413W        W82640  31.380   4.091  12.192
17414W        W82641  31.995  41.753   3.938
17415W        W82642  31.058  11.630   1.149
17416W        W82643  29.930   1.931   4.487
17417W        W82644  40.924  37.972  12.456
17418W        W82645  10.187   4.974   3.733
17419W        W82646  37.670  21.236  14.340
17420W        W82647  27.823  31.444  10.503
17421W        W82648  11.875   2.060  12.500
17422W        W82649  40.214  24.650   1.304
17423W        W82650  41.952   4.010   4.111
17424W        W82651  27.610  43.061   0.237
17425W        W82652  44.391   4.888  11.503
17426W        W82653  37.174   4.968  10.324
17427W        W82654   6.287  37.113  14.323
17428W        W82655  32.641   7.506  11.983
17429W        W82656   3.512  12.236  13.592
17430W        W82657  21.911  28.543  11.852
17431W        W82658  35.959   9.256  13.047
17432W        W82659  28.703  34.524  10.459
17433W        W82660  36.337  40.000  13.667
17434W        W82661  13.356  44.449   2.274
17435W        W82662  21.700  10.899  14.477
17436W        W82663  33.958  18.438  11.614
17437W        W82664  26.546  26.124   1.900
17438W        W82665  26.674  34.867   2.381
17439W        W82666  21.834   6.363  10.665
17440W        W82667   8.449   2.580  14.480
17441W        W82668  17.651  22.233  13.586
17442W        W82669  13.971   2.703  14.640
17443W        W82670  26.972  15.920  11.614
17444W        W82671   5.279   7.153   0.039
17445W        W82672  11.230  26.518   1.025
17446W        W82673   2.116  40.029  10.203
17447W        W82674  40.805  26.006   4.827
17448W        W82675  13.149   0.359   2.700
17449W        W82676  16.062   9.774   0.454
17450W        W82677  27.136  35.542   2.178
17451W        W82678  43.536  18.480   3.332
17452W        W82679   0.245  43.070   2.623
17453W        W82680  29.501   1.265  13.375
17454W        W82681   3.583  18.620  10.520
17455W        W82682   2.305  17.021   4.170
17456W        W82683   3.710  22.756   2.856
17457W        W82684   9.367  25.729  14.361
17458W        W82685  44.928  35.133  14.527
17459W        W82686  14.352  35.352  11.136
17460W        W82687   6.325  40.688   2.912
17461W        W82688   4.653  38.268  11.982
17462W        W82689   9.930  27.746  13.538
17463W        W82690  36.966   5.518   1.224
17464W        W82691  31.455  19.526   3.168
17465W        W82692  25.719  11.464  11.753
17466W        W82693  17.217  16.219  12.983
17467W        W82694  14.304  31.689  11.096
17468W        W82695  39.889   9.455  10.720
17469W        W82696  38.501   0.424   0.766
17470W        W82697   4.720   0.826  11.693
17471W        W82698  22.354   2.722  14.354
17472W        W82699  38.400  13.962   4.974
17473W        W82700   9.563   1.359  12.985
17474W        W82701  11.777  14.535   1.421
17475W        W82702  26.604  28.564   1.235
17476W        W82703  26.700  26.152   4.325
17477W        W82704  34.547  28.139  14.791
17478W        W82705   5.609   9.620   2.689
17479W        W82706  40.395  25.130   1.249
17480W        W82707   6.683  31.382  14.632
17481W        W82708   1.316   1.893  13.561
17482W        W82709  37.613  44.541   4.080
17483W        W82710  15.296  44.842   3.191
17484W        W82711  31.828  10.770  11.628
17485W        W82712   0.571   3.291   4.739
17486W        W82713  21.444  19.652  12.724
17487W        W82714   4.889  11.161   4.207
17488W        W82715   8.265   7.437  13.537
17489W        W82716   6.244  22.425   4.946
17490W        W82717  12.442  16.537   4.328
17491W        W82718   7.173   9.431  10.953
17492W        W82719  33.639  38.901   1.782
17493W        W82720  40.450  25.861   3.635
17494W        W82721  12.226  41.042  13.101
17495W        W82722  42.338   3.806  13.606
17496W        W82723  33.891  28.354   3.639
17497W        W82724  32.384  30.362  11.585
17498W        W82725   6.285  11.766  12.023
17499W        W82726   9.847   2.470   2.166
17500W        W82727  31.551   8.468   3.722
17501W        W82728  34.029  27.679  14.911
17502W        W82729  12.702   4.417   3.350
17503W        W82730  22.375  13.471   3.029
17504W        W82731  31.430  42.725   1.732
17505W        W82732   1.488  33.408   4.320
17506W        W82733  17.367   6.641  12.467
17507W        W82734  12.263  20.984   2.260
17508W        W82735  32.746  12.666  13.428
17509W        W82736  37.539  26.120   3.274
17510W        W82737  19.534   0.768   9.510
17511W        W82738  36.479  31.155  14.386
17512W        W82739   0.753  13.919  13.437
17513W        W82740  31.970  38.555  13.823
17514W        W82741  42.252  31.889   0.391
17515W        W82742  43.975  29.564  13.419
17516W        W82743  11.860  10.187  11.224
17517W        W82744  34.765  23.294   4.524
17518W        W82745  39.490   7.904   3.910
17519W        W82746   7.866   6.422  11.740
17520W        W82747  25.514  25.147  14.457
17521W        W82748  40.886  18.053  14.330
17522W        W82749   3.642  33.242   4.398
17523W        W82750  44.162  38.464  11.131
17524W        W82751  35.066   8.169  10.972
17525W        W82752  20.051   0.457   3.136
17526W        W82753   1.836  30.982   3.604
17527W        W82754  37.830  30.572   2.671
17528W        W82755  16.516  43.064   0.982
17529W        W82756  39.367  24.864   4.101
17530W        W82757  41.059  10.265  13.112
17531W        W82758  32.321  25.964   4.369
17532W        W82759  19.910  38.920   1.807
17533W        W82760   4.691  20.739   0.793
17534W        W82761  11.483   2.565  14.015
17535W        W82762  18.290  37.123   0.188
17536W        W82763  28.428  19.630   1.161
17537W        W82764  37.015  40.394   2.535
17538W        W82765  21.286  10.165   4.120
17539W        W82766  16.599  18.737  12.178
17540W        W82767  22.557  33.503   4.785
17541W        W82768  15.996  33.848  11.075
17542W        W82769  32.548  40.291   0.923
17543W        W82770  27.962  29.072   4.149
17544W        W82771   2.906  20.160  14.827
17545W        W82772   9.483  30.875  11.733
17546W        W82773  38.807  43.941   0.339
17547W        W82774  18.295  12.746  11.713
17548W        W82775  33.008   3.755  14.893
17549W        W82776  13.655  42.004  11.045
17550W        W82777  39.093  14.736   2.399
17551W        W82778  29.389   9.623  14.755
17552W        W82779  28.881  44.813   0.885
17553W        W82780  20.711  41.450   1.866
17554W        W82781  38.010  30.331  11.165
17555W        W82782  30.506  39.529  13.012
17556W        W82783  36.488  37.931  12.007
17557W        W82784  13.591  40.065   2.379
17558W        W82785   5.695  22.736   0.442
17559W        W82786   7.515  16.644   2.302
17560W        W82787  28.957   6.740   2.864
17561W        W82788  29.342   5.049  12.665
17562W        W82789  20.704   3.740   4.475
17563W        W82790  34.179   5.342  13.537
17564W        W82791  30.915  23.494   0.669
17565W        W82792   9.869  24.850  10.743
17566W        W82793  16.798   4.361  10.677
17567W        W82794  29.847   7.183  10.580
17568W        W82795   6.860   2.537  10.948
17569W        W82796  21.345  30.864   3.868
17570W        W82797  32.341   8.629   3.682
17571W        W82798  27.473  18.909   4.112
17572W        W82799  15.299  39.487   2.709
17573W        W82800  39.519  13.120   1.490
17574W        W82801  22.309  21.638   1.717
17575W        W82802  32.058  42.614   0.625
17576W        W82803  39.115  13.568  13.436
17577W        W82804  30.440  13.566  13.789
17578W        W82805  29.964  19.668  12.648
17579W        W82806   1.826  20.717   3.630
17580W        W82807  24.686  18.864  10.776
17581W        W82808  23.763  13.887   4.573
17582W        W82809  38.574  27.417   2.074
17583W        W82810  17.997  25.416  11.212
17584W        W82811  37.061  18.655   4.485
17585W        W82812   2.495  37.842   0.538
17586W        W82813   4.666  37.975   1.234
17587W        W82814  41.858  16.629  11.224
17588W        W82815  17.064  30.644  13.393
17589W        W82816  43.638  24.666   0.882
17590W        W82817  44.541  20.713   3.560
17591W        W82818  42.345  17.579   2.787
17592W        W82819   1.872  27.770  11.768
17593W        W82820  40.961  18.649   4.797
17594W        W82821  33.958  23.526  11.613
17595W        W82822  13.782  22.560  14.682
17596W        W82823  15.246  12.068  14.525
17597W        W82824   4.318  42.325   3.069
17598W        W82825  38.517  44.566  12.044
17599W        W82826  38.390   6.653   0.247
17600W        W82827   9.137  41.858  11.882
17601W        W82828  23.564  44.170   2.337
17602W        W82829  18.314  41.459  14.041
17603W        W82830   6.261  14.027   3.110
17604W        W82831  39.118   3.259   3.098
17605W        W82832   2.948  35.421  12.050
17606W        W82833   8.103  35.305  13.851
17607W        W82834  36.997  12.451   0.644
17608W        W82835   2.459  44.484   0.983
17609W        W82836  44.668  20.666  12.047
17610W        W82837   9.310  12.630  12.524
17611W        W82838  32.981  39.375   0.697
17612W        W82839   7.688  12.795  12.913
17613W        W82840  44.007  25.791  14.569
17614W        W82841  15.153  11.417   4.356
17615W        W82842  18.229  18.766   0.620
17616W        W82843   5.113  36.836  12.311
17617W        W82844  18.560  38.629   3.345
17618W        W82845  11.801  30.440   4.560
17619W        W82846  10.981   7.433   2.659
17620W        W82847  19.237  44.075   1.733
17621W        W82848  40.832  10.690   1.647
17622W        W82849  32.516  24.515   1.827
17623W        W82850   5.916   8.395  10.580
17624W        W82851  40.927  41.057   0.790
17625W        W82852  31.273  27.192   2.992
17626W        W82853  17.325  28.679  14.526
17627W        W82854  43.275  10.040   4.753
17628W        W82855  25.719  13.664  11.332
17629W        W82856  17.758  23.463   0.189
17630W        W82857   8.701   7.253   1.321
17631W        W82858  34.813  15.702  11.224
17632W        W82859  18.825  14.622   2.315
17633W        W82860  43.332  44.712   1.215
17634W        W82861  28.364  19.090  11.620
17635W        W82862  35.437  14.169  11.570
17636W        W82863   5.189  35.531   1.443
17637W        W82864   2.291  16.551   4.413
17638W        W82865  30.647  17.580   4.667
17639W        W82866  25.046   1.703  13.031
17640W        W82867  38.737   9.294  14.812
17641W        W82868  29.689  25.290   3.681
17642W        W82869  16.505  17.121  11.626
17643W        W82870  20.495  31.684  14.587
17644W        W82871   8.246  43.507  14.585
17645W        W82872  37.727  19.629   1.932
17646W        W82873  40.430  37.050   3.407
17647W        W82874   5.242  43.476   3.133
17648W        W82875  26.712   1.397  10.432
17649W        W82876  13.985   2.490  11.476
17650W        W82877   7.136  42.483  12.516
17651W        W82878  40.879   1.947  14.407
17652W        W82879   4.374   2.746  10.917
17653W        W82880   3.808   6.265   4.940
17654W        W82881   4.695  40.056  11.022
17655W        W82882  11.812  25.995  12.499
17656W        W82883  11.898  38.346   1.274
17657W        W82884  13.765   3.850  13.783
17658W        W82885  34.060  29.481   0.475
17659W        W82886  33.065   8.765  14.971
17660W        W82887  17.748  33.148   2.210
17661W        W82888  37.550  34.422  13.722
17662W        W82889  17.963   7.946   0.861
17663W        W82890  38.383  10.920   4.087
17664W        W82891  35.394  33.130  14.365
17665W        W82892  25.699   0.523   3.235
17666W        W82893  41.312  38.584   2.737
17667W        W82894  19.280  15.148  11.003
17668W        W82895   6.445  32.686   3.549
17669W        W82896   3.785  19.310   1.364
17670W        W82897  44.584  16.315   3.318
17671W        W82898  11.340  35.067   4.021
17672W        W82899  29.456   1.065   2.796
17673W        W82900  10.973  23.504  11.241
17674W        W82901  13.891  37.853   3.255
17675W        W82902  14.289  34.357  14.023
17676W        W82903  42.543   5.352   3.649
17677W        W82904  40.447  31.199  12.994
17678W        W82905  16.187  16.186   3.247
17679W        W82906  27.664  20.182  12.564
17680W        W82907   2.816  38.887   4.142
17681W        W82908   2.749  12.350   0.753
17682W        W82909  43.162  10.971  10.585
17683W        W82910  37.034  23.249  14.505
17684W        W82911  13.579  16.104   1.264
17685W        W82912  17.978  30.901  13.035
17686W        W82913   1.248  30.509  14.050
17687W        W82914  19.118  18.643   4.505
17688W        W82915   5.955  16.569   3.222
17689W        W82916  37.178  34.307  12.076
17690W        W82917  38.111   5.274  11.848
17691W        W82918  32.578   1.725  10.640
17692W        W82919  21.221  40.304  13.309
17693W        W82920  13.181  29.857   2.067
17694W        W82921  43.428   3.990   4.226
17695W        W82922   2.399  31.737   3.545
17696W        W82923  18.172  19.666   0.498
17697W        W82924  21.211  10.837   3.581
17698W        W82925  26.235   6.322  13.207
17699W        W82926  19.348  26.070   3.182
17700W        W82927  32.543  30.189  11.096
17701W        W82928   0.030  16.418   4.239
17702W        W82929  40.337  35.894  10.874
17703W        W82930   1.206  23.273  12.518
17704W        W82931   5.646  30.307  11.092
17705W        W82932  30.442  22.720   3.272
17706W        W82933  11.680  20.300   1.353
17707W        W82934  42.413  27.826   3.246
17708W        W82935  39.239   3.718  14.283
17709W        W82936  24.468  15.570   2.441
17710W        W82937  43.452   7.504  10.811
17711W        W82938  15.933  32.611   0.950
17712W        W82939  13.618  28.282   0.894
17713W        W82940  16.076  38.878   4.130
17714W        W82941  18.560  22.714  14.623
17715W        W82942   6.217  25.747  13.589
17716W        W82943   9.975  14.423   0.286
17717W        W82944  37.836  32.984  11.517
17718W        W82945  34.062  18.179  14.351
17719W        W82946  24.222   6.982   4.013
17720W        W82947  15.257  21.504  10.702
17721W        W82948  24.781  29.366   2.805
17722W        W82949  15.888   3.050  10.542
17723W        W82950  18.907  12.496  14.390
17724W        W82951  40.845   1.394  13.218
17725W        W82952   4.850  40.322   0.909
17726W        W82953   3.451  40.430   4.511
17727W        W82954   8.689  40.268  10.674
17728W        W82955  31.749  24.658   3.257
17729W        W82956   5.527  38.051  14.783
17730W        W82957   2.490  21.711  10.660
17731W        W82958   5.933  18.875   0.196
17732W        W82959   8.439   0.087   1.018
17733W        W82960   6.929  25.835   3.510
17734W        W82961  39.995  10.180  11.227
17735W        W82962  11.307   8.936   1.398
17736W        W82963  22.741  41.507  11.354
17737W        W82964   9.201  33.076  12.366
17738W        W82965  42.634  28.923  13.224
17739W        W82966  26.564  31.569  11.338
17740W        W82967  26.251   2.988   0.100
17741W        W82968  10.338  16.795   1.279
17742W        W82969  42.498   8.777   1.290
17743W        W82970  41.072  21.229  10.693
17744W        W82971   3.278  11.279  11.515
17745W        W82972  11.067   1.695   0.161
17746W        W82973   6.260  29.503  14.936
17747W        W82974   5.399   8.380  10.647
17748W        W82975  26.184   0.371  13.474
17749W        W82976  37.331  44.240  10.405
17750W        W82977   8.505  11.196  12.024
17751W        W82978  33.783  23.223  14.054
17752W        W82979  31.487   8.848  14.312
17753W        W82980  37.008   9.839   0.726
17754W        W82981  34.362   6.758   1.749
17755W        W82982  26.050  22.661  11.053
17756W        W82983   6.877  41.168  11.653
17757W        W82984   3.164  11.521   4.906
17758W        W82985  34.112  25.391  12.019
17759W        W82986  11.953  21.904   3.095
17760W        W82987   9.421  43.843   2.632
17761W        W82988  24.686  16.967   1.427
17762W        W82989  20.019  23.211  12.471
17763W        W82990  37.801   8.813   0.767
17764W        W82991   4.999  34.920  12.633
17765W        W82992  34.567   1.011  12.641
17766W        W82993  10.869  39.333  14.808
17767W        W82994  19.813   3.636   2.392
17768W        W82995  18.738  34.367   0.895
17769W        W82996  24.945  13.403  11.099
17770W        W82997   6.315   3.669   4.474
17771W        W82998  13.515  21.155   4.259
17772W        W82999  42.535  32.955   2.833
17773W        W83000  43.810  42.838  11.906
17774W        W83001  24.565  41.811  11.468
17775W        W83002  12.261  20.977   0.749
17776W        W83003  28.572   4.800   4.659
17777W        W83004  11.574  28.742   1.256
17778W        W83005  17.249  37.457   1.395
17779W        W83006  20.631  29.511   1.665
17780W        W83007   4.450  28.125   0.801
17781W        W83008  15.176  39.459  14.491
17782W        W83009  19.044  30.530  10.481
17783W        W83010   0.905   8.607  10.730
17784W        W83011   6.202  15.104   0.709
17785W        W83012  39.708  21.960  10.744
17786W        W83013  22.116   0.210   9.884
17787W        W83014  14.733  31.644   2.202
17788W        W83015   8.760  42.965  13.844
17789W        W83016  38.506  20.984   9.898
17790W        W83017  27.868  15.414  14.980
17791W        W83018  35.250  12.908  10.995
17792W        W83019   1.973   5.324   2.765
17793W        W83020   8.647  10.272  12.904
17794W        W83021  42.434  41.413  10.512
17795W        W83022  24.229  26.533  11.201
17796W        W83023   7.666  36.097   0.387
17797W        W83024  10.683   0.830  12.569
17798W        W83025  37.410  11.812  12.565
17799W        W83026  35.942  18.248  14.874
17800W        W83027  41.973  39.449   4.399
17801W        W83028  43.703  39.544   1.237
17802W        W83029  37.979  27.997  12.883
17803W        W83030  19.446  25.003  12.585
17804W        W83031  44.255   4.072  14.754
17805W        W83032  43.031  29.960   0.910
17806W        W83033  27.048  11.583  12.105
17807W        W83034  12.200   7.611   4.942
17808W        W83035  40.547  16.550  14.758
17809W        W83036  10.247   5.560   2.699
17810W        W83037   5.446   0.444   2.217
17811W        W83038  44.269  11.648  11.269
17812W        W83039  29.082   0.491   1.276
17813W        W83040  20.740  32.584   0.365
17814W        W83041  34.754  43.982  14.325
17815W        W83042  11.067  16.699   1.797
17816W        W83043  23.069  28.832   2.248
17817W        W83044  35.135   2.862  13.386
17818W        W83045   6.626  38.819   1.407
17819W        W83046  14.517  42.315   0.234
17820W        W83047  36.512   1.732   1.453
17821W        W83048  31.428  15.234   1.335
17822W        W83049  39.827  19.784   3.646
17823W        W83050   2.727  38.490   2.281
17824W        W83051  40.941  42.968   0.461
17825W        W83052   4.368   0.507   2.456
17826W        W83053  37.388  19.348  11.652
17827W        W83054  36.084  14.703  14.019
17828W        W83055  30.048  23.109  11.400
17829W        W83056  43.911  16.760   0.372
17830W        W83057  43.759  28.879  12.327
17831W        W83058  36.520   2.246   1.347
17832W        W83059   3.169  38.543   2.549
17833W        W83060  31.101  33.538  11.816
17834W        W83061  18.327  37.528   0.557
17835W        W83062   5.785  40.824   2.775
17836W        W83063  14.182  42.572  14.311
17837W        W83064  29.854  24.408   3.670
17838W        W83065  40.929  31.041  12.831
17839W        W83066  44.770   6.653   4.553
17840W        W83067  20.511  20.577   3.860
17841W        W83068  14.614  19.937   4.442
17842W        W83069  22.178  15.529  10.612
17843W        W83070  12.334   9.675   1.708
17844W        W83071   0.787  10.486   0.237
17845W        W83072  27.621  26.362   3.282
17846W        W83073  11.728  17.645   2.835
17847W        W83074  25.645   8.786   4.488
17848W        W83075  41.043  10.950  14.680
17849W        W83076  41.599   9.460  13.006
17850W        W83077  14.166  30.869  14.314
17851W        W83078  31.074  21.743   3.803
17852W        W83079  22.229  40.229  13.584
17853W        W83080  36.067   1.957   1.236
17854W        W83081   2.464   4.954   4.753
17855W        W83082  33.050  44.430   2.634
17856W        W83083  44.254  19.804   2.687
17857W        W83084  41.929  36.020  11.523
17858W        W83085  11.653   2.997   3.343
17859W        W83086  28.137  26.987   4.977
17860W        W83087  30.067  32.678   4.175
17861W        W83088  35.427  23.003  14.789
17862W        W83089  26.636  33.416   0.831
17863W        W83090  19.646   4.942   2.823
17864W        W83091  41.775  23.928  12.506
17865W        W83092  42.011   1.236  10.493
17866W        W83093  24.551  36.362   3.712
17867W        W83094  40.242  28.676   0.346
17868W        W83095  26.569  33.369   4.580
17869W        W83096  17.993   7.268   3.352
17870W        W83097  44.706  20.712   1.825
17871W        W83098  44.306   6.926  13.302
17872W        W83099  44.726   0.731  13.885
17873W        W83100  29.692  22.805   4.244
17874W        W83101  38.604  19.665  14.115
17875W        W83102   1.226  15.829   2.321
17876W        W83103  36.408  16.341   2.373
17877W        W83104  33.618   2.971  11.585
17878W        W83105  28.681  32.676  13.983
17879W        W83106  17.255  13.699  10.558
17880W        W83107  13.913  22.673  12.476
17881W        W83108  27.603  40.029  12.373
17882W        W83109  27.583   6.867   1.624
17883W        W83110  12.394  21.211  14.405
17884W        W83111  19.134  13.145   1.324
17885W        W83112  35.169  32.918   2.631
17886W        W83113  22.754  42.360  11.141
17887W        W83114   8.257  26.986  13.906
17888W        W83115  35.120  20.905   3.198
17889W        W83116  24.280  18.171  11.146
17890W        W83117  17.621  30.615  12.768
17891W        W83118  11.116  26.576   3.802
17892W        W83119   0.030  30.017  14.348
17893W        W83120  28.523  41.418  13.527
17894W        W83121  33.357  39.504   0.359
17895W        W83122   1.948  32.927  11.657
17896W        W83123  27.584  43.960   1.461
17897W        W83124  38.556  42.964   2.410
17898W        W83125  10.827  31.382  11.315
17899W        W83126  14.281  23.144   1.324
17900W        W83127  42.662  17.655  12.518
17901W        W83128  27.332  23.906  14.765
17902W        W83129  43.438  38.583   0.805
17903W        W83130  17.500  19.860  10.956
17904W        W83131  38.943  15.313   0.799
17905W        W83132  10.937   9.061   2.410
17906W        W83133  34.044   2.938   1.292
17907W        W83134   0.688  14.294  11.740
17908W        W83135  31.979  15.230   2.804
17909W        W83136  16.542   6.199  12.003
17910W        W83137  21.213  23.920   4.206
17911W        W83138  22.014  12.748   2.462
17912W        W83139  22.231   5.460  13.741
17913W        W83140  36.980   2.006  13.001
17914W        W83141  19.520  14.629  13.471
17915W        W83142  41.335  43.021  13.428
17916W        W83143  25.092  42.617  13.843
17917W        W83144  22.260  28.240  12.080
17918W        W83145  38.099  12.754   4.515
17919W        W83146  39.004  13.830  12.958
17920W        W83147  17.621  15.117   2.854
17921W        W83148  25.568  34.541  12.576
17922W        W83149  28.091  20.419  14.360
17923W        W83150  11.346  43.032   0.850
17924W        W83151  16.284   4.475  12.508
17925W        W83152  15.770   6.232   1.087
17926W        W83153   1.965   6.757  14.500
17927W        W83154   2.953   6.821  14.349
17928W        W83155  30.889  14.634   0.222
17929W        W83156  28.676   6.785   4.721
17930W        W83157  29.061  15.778  14.757
17931W        W83158  36.401  25.074  13.144
17932W        W83159   1.683   2.705   3.230
17933W        W83160  13.959  23.271   0.418
17934W        W83161  43.889   9.834   1.634
17935W        W83162  28.694  17.850   1.934
17936W        W83163  35.009  31.760  11.134
17937W        W83164  29.095  21.975   2.345
17938W        W83165  16.277  33.379  11.856
17939W        W83166  11.378  23.056   4.580
17940W        W83167  22.754   1.690  13.185
17941W        W83168  19.816  27.937  10.681
17942W        W83169  20.008  22.255  11.464
17943W        W83170  21.209   2.720   1.250
17944W        W83171  44.558  26.586   0.027
17945W        W83172  31.707  42.290   1.752
17946W        W83173  24.972  25.007  12.471
17947W        W83174   6.800  32.021   2.875
17948W        W83175  27.328  44.595  14.188
17949W        W83176  17.191  16.011  13.456
17950W        W83177  27.803  19.534  11.226
17951W        W83178  19.181  17.160   4.219
17952W        W83179  22.632  30.912   3.718
17953W        W83180  40.740  43.945   0.216
17954W        W83181  27.742   1.419  12.882
17955W        W83182  17.621  25.570   3.017
17956W        W83183  33.660   4.373  13.440
17957W        W83184  17.432   4.012  14.573
17958W        W83185  30.389  11.779  11.129
17959W        W83186   1.009  11.479  14.042
17960W        W83187  10.710  22.781  14.989
17961W        W83188  30.505  34.782   3.750
17962W        W83189  17.179  31.861  12.684
17963W        W83190   1.936  25.494  10.505
17964W        W83191  10.370  33.828   2.199
17965W        W83192  36.116  17.503  11.671
17966W        W83193  23.729  44.888  12.745
17967W        W83194   3.014  23.783   2.121
17968W        W83195   8.682  38.387   0.916
17969W        W83196  33.699  22.333  11.954
17970W        W83197  19.036  35.633  11.236
17971W        W83198  32.196   8.180  13.461
17972W        W83199  36.404   7.853   3.733
17973W        W83200   9.093  33.566  10.380
17974W        W83201   0.359  35.431  11.024
17975W        W83202   5.510   1.833   0.815
17976W        W83203  29.251  23.162  14.676
17977W        W83204  24.740   8.298  12.081
17978W        W83205   5.845  30.644   2.427
17979W        W83206   6.835  36.035  12.238
17980W        W83207  26.964  34.607   3.589
17981W        W83208  27.043   9.694   0.817
17982W        W83209   7.794   5.840   9.523
17983W        W83210  24.438  26.692  13.643
17984W        W83211   6.839  43.764  12.132
17985W        W83212  20.769  23.606  12.524
17986W        W83213  21.211  36.947  11.950
17987W        W83214  37.615  20.718  13.497
17988W        W83215  40.955  40.557  12.991
17989W        W83216  18.738   2.491   3.279
17990W        W83217  14.864  27.001   0.864
17991W        W83218  22.927  13.620   2.629
17992W        W83219   2.918  41.840   0.290
17993W        W83220  26.589  31.362  14.911
17994W        W83221   0.755  33.648  12.105
17995W        W83222  20.017  12.604   1.395
17996W        W83223  27.944   5.825  12.896
17997W        W83224  39.533  12.201   1.288
17998W        W83225   4.330  16.057   4.177
17999W        W83226   5.730  31.385  14.345
18000W        W83227  38.212   3.493  11.952
18001W        W83228  40.744  26.675  13.021
18002W        W83229  21.155  42.461   0.672
18003W        W83230  16.737  25.389   1.238
18004W        W83231  14.337  36.531  13.040
18005W        W83232   0.734  35.517   2.610
18006W        W83233   6.334  22.431  10.782
18007W        W83234  40.923  31.233  14.356
18008W        W83235  29.858  32.331   2.865
18009W        W83236  41.767   3.501  11.210
18010W        W83237  14.325   3.249  11.113
18011W        W83238  25.500  34.508   3.089
18012W        W83239  25.283  23.020   3.572
18013W        W83240   5.788   7.888   3.171
18014W        W83241  17.353  17.940   5.287
18015W        W83242  43.809  44.508   1.790
18016W        W83243  13.043   8.190   3.649
18017W        W83244  25.204  29.459   2.416
18018W        W83245   4.968  44.348   4.239
18019W        W83246  36.795  17.689   0.837
18020W        W83247  10.341  27.417  13.678
18021W        W83248  29.541  26.007   4.182
18022W        W83249  32.599   6.182  13.311
18023W        W83250   4.939  34.435   2.449
18024W        W83251  25.031  40.936  10.853
18025W        W83252  39.523  17.079   2.241
18026W        W83253   4.849  12.165   0.548
18027W        W83254  22.435  28.212   2.779
18028W        W83255  25.849   2.795   3.365
18029W        W83256   9.378  29.672   3.824
18030W        W83257  19.263   2.881   4.724
18031W        W83258   6.929  15.435   1.903
18032W        W83259   5.432  13.077   2.927
18033W        W83260  22.289  31.621  12.577
18034W        W83261   1.315  34.181   1.470
18035W        W83262  28.953  11.588  13.062
18036W        W83263   0.945  25.489  13.097
18037W        W83264  20.217   5.040  14.525
18038W        W83265  44.944  35.460   3.247
18039W        W83266  29.596   8.232  11.150
18040W        W83267  42.844  38.388   0.864
18041W        W83268  16.413  13.130  13.260
18042W        W83269   2.333  26.685  13.930
18043W        W83270   1.820  37.467  13.993
18044W        W83271  13.314  16.924   0.987
18045W        W83272  11.357  31.681  12.657
18046W        W83273   2.689  16.205  12.834
18047W        W83274  23.720  40.631   4.814
18048W        W83275  19.818  37.548   1.411
18049W        W83276  31.214  39.551   3.748
18050W        W83277  29.392  16.285  11.693
18051W        W83278   8.190  43.413   4.618
18052W        W83279  44.644   8.764   4.489
18053W        W83280  31.677  37.453  11.003
18054W        W83281   2.015  19.228   4.573
18055W        W83282  29.557  44.641   1.670
18056W        W83283  20.118  36.994  14.365
18057W        W83284  14.902  24.087  12.467
18058W        W83285  23.787   0.795   4.029
18059W        W83286  25.101  40.512  11.858
18060W        W83287  28.727  38.917   1.952
18061W        W83288  15.424  28.132   1.164
18062W        W83289  13.331  37.838  11.625
18063W        W83290  34.661  23.179  12.447
18064W        W83291  34.063  41.292  12.609
18065W        W83292  33.431   0.867   3.924
18066W        W83293  23.062  35.746  12.318
18067W        W83294  24.316   8.607  12.010
18068W        W83295  16.093  15.791   0.944
18069W        W83296  18.166  29.871  14.022
18070W        W83297  10.328  33.611   5.122
18071W        W83298  36.820  14.092  13.815
18072W        W83299  42.592  24.256  11.524
18073W        W83300  23.213  10.113  11.629
18074W        W83301   3.912  43.326   0.891
18075W        W83302  23.184  39.437   0.775
18076W        W83303  33.323  13.589   2.114
18077W        W83304  11.781  22.492  14.174
18078W        W83305  11.816  34.855   0.318
18079W        W83306  14.174   6.889   3.070
18080W        W83307  15.667  36.870   4.679
18081W        W83308  43.401  10.318  14.236
18082W        W83309  29.976   2.865   3.725
18083W        W83310  29.114  30.687  12.214
18084W        W83311  18.516  35.409   0.621
18085W        W83312  15.980  13.685   3.215
18086W        W83313  12.914  16.282  14.640
18087W        W83314  30.129  43.448   1.229
18088W        W83315  37.208  40.361   0.564
18089W        W83316  31.113  25.988   9.800
18090W        W83317  13.722  40.571  12.568
18091W        W83318   0.155  23.982   5.765
18092W        W83319  28.035   3.835   4.551
18093W        W83320  13.396  27.970   1.412
18094W        W83321  34.024  20.523  14.947
18095W        W83322  23.127  25.545   1.044
18096W        W83323  27.458  41.295  11.029
18097W        W83324  10.605   8.304   3.939
18098W        W83325  22.037   3.868   0.671
18099W        W83326  38.617  32.674  12.103
18100W        W83327  16.654  38.058   3.836
18101W        W83328  32.653  12.432   2.823
18102W        W83329  14.586  35.108  13.667
18103W        W83330  27.517   3.902   2.400
18104W        W83331   6.788  14.723   2.478
18105W        W83332  29.504  31.506   4.600
18106W        W83333  41.985  26.374   4.538
18107W        W83334  14.246  17.178  12.663
18108W        W83335   5.471  23.650   1.816
18109W        W83336  34.644  26.697   2.751
18110W        W83337   3.399  11.175   1.857
18111W        W83338  29.097   4.456   1.944
18112W        W83339  24.984  24.502  10.724
18113W        W83340  32.143  10.934   3.580
18114W        W83341   3.781  39.042   0.932
18115W        W83342   6.907  43.741   3.711
18116W        W83343  26.625  19.573  14.949
18117W        W83344   2.796   3.843  11.624
18118W        W83345  25.606   8.909  11.550
18119W        W83346   1.107  23.653   4.976
18120W        W83347  21.202  20.965  13.453
18121W        W83348  35.577  22.574  13.641
18122W        W83349  28.473  37.957   0.035
18123W        W83350   1.874  33.733   4.086
18124W        W83351   6.852  16.844  13.826
18125W        W83352   7.370  44.351   0.688
18126W        W83353  12.338  18.163   0.860
18127W        W83354  44.263  17.039  11.918
18128W        W83355  15.148   0.016  11.963
18129W        W83356  36.963   7.092  12.089
18130W        W83357  43.073   4.947  12.489
18131W        W83358   3.165  29.253  10.809
18132W        W83359   9.325   8.923   0.210
18133W        W83360  37.879  43.548   2.765
18134W        W83361  40.906  40.059  12.825
18135W        W83362  18.268  24.426   3.309
18136W        W83363  15.163   5.157  13.802
18137W        W83364  24.361  22.747  11.901
18138W        W83365   0.722  30.556  14.401
18139W        W83366  31.544   1.780   2.306
18140W        W83367  17.780   3.480  12.805
18141W        W83368  27.641  33.939   0.339
18142W        W83369  44.184  37.892  11.531
18143W        W83370  44.092  13.551  11.957
18144W        W83371  20.564   2.336  11.774
18145W        W83372  15.243  27.104   2.717
18146W        W83373  25.504   9.621  12.990
18147W        W83374  15.685  20.979  11.442
18148W        W83375  20.538  17.932   0.411
18149W        W83376  21.512  31.986   2.972
18150W        W83377   4.191  36.592  11.134
18151W        W83378  11.756  27.082   2.452
18152W        W83379  14.592  32.546  12.204
18153W        W83380   0.469  37.081   1.339
18154W        W83381  25.355  17.018   3.954
18155W        W83382  41.260  42.032  11.511
18156W        W83383  12.713   6.357   2.686
18157W        W83384  39.944  10.629   0.459
18158W        W83385  18.673  33.891   4.830
18159W        W83386  38.625  42.334   3.678
18160W        W83387   1.669  37.470   4.026
18161W        W83388  28.962   7.451  11.905
18162W        W83389  10.435  28.216  13.995
18163W        W83390  39.551  26.834   1.231
18164W        W83391  32.582  13.604   3.482
18165W        W83392  38.502  40.950  11.436
18166W        W83393   4.560  35.902  11.567
18167W        W83394  36.433  43.867   3.461
18168W        W83395  42.606   9.710  10.690
18169W        W83396  35.604  36.831  14.965
18170W        W83397  31.146  27.654   3.798
18171W        W83398  40.841  20.523   0.755
18172W        W83399  27.547  17.266   2.575
18173W        W83400  20.209  33.527   2.762
18174W        W83401  39.126  39.537  14.767
18175W        W83402   1.783  18.192   1.233
18176W        W83403  12.399  19.691   2.846
18177W        W83404  15.873   1.229  13.284
18178W        W83405  18.206  34.516   3.685
18179W        W83406  26.205  38.434  13.457
18180W        W83407  22.986  25.645  11.973
18181W        W83408  38.948   9.727   1.930
18182W        W83409  42.595  33.484   2.851
18183W        W83410  41.771  16.063   1.439
18184W        W83411   7.792  37.067   0.314
18185W        W83412  24.824  14.073   4.843
18186W        W83413  42.389  35.353   2.782
18187W        W83414  43.611  28.097   4.889
18188W        W83415   5.722  19.965   4.759
18189W        W83416   8.915   1.835  10.095
18190W        W83417   8.265  10.534   1.429
18191W        W83418   2.886  23.946   4.084
18192W        W83419  36.711  44.916  11.264
18193W        W83420  27.955  43.055  11.153
18194W        W83421  32.618  35.970   0.379
18195W        W83422   3.893   0.326   2.295
18196W        W83423   6.897  18.864   5.009
18197W        W83424   3.035  28.371  14.936
18198W        W83425  35.585  20.439  10.796
18199W        W83426   7.440   1.878   3.121
18200W        W83427   3.628  19.719   1.647
18201W        W83428  15.151  33.822   0.444
18202W        W83429  10.616  17.516  11.550
18203W        W83430  14.912  24.529  14.362
18204W        W83431  32.202  39.334   9.647
18205W        W83432   4.281   7.599  11.181
18206W        W83433   3.749   0.914  12.579
18207W        W83434  22.197  24.768   0.243
18208W        W83435  14.921  24.953  10.267
18209W        W83436  32.759  28.165   4.958
18210W        W83437  25.237   7.182   0.262
18211W        W83438  42.809  36.508   2.230
18212W        W83439  44.732  31.408  14.210
18213W        W83440  26.510   6.756  13.339
18214W        W83441  42.231  40.367  13.304
18215W        W83442  19.027   4.743  14.311
18216W        W83443   2.498  27.030   2.705
18217W        W83444   5.643  32.473   2.421
18218W        W83445   1.182  40.942   0.150
18219W        W83446  33.569  24.576   2.425
18220W        W83447  43.490  14.793   2.167
18221W        W83448  11.904   1.541  12.612
18222W        W83449   8.670  38.864   4.607
18223W        W83450  33.050  21.613  12.061
18224W        W83451   1.698  43.387   1.371
18225W        W83452  29.107  35.470   1.203
18226W        W83453   1.392   2.368  11.649
18227W        W83454  31.378  15.777   4.113
18228W        W83455   2.082  11.234  12.488
18229W        W83456  34.128  20.728  13.413
18230W        W83457  42.568  34.473  12.115
18231W        W83458  25.796  37.938   0.105
18232W        W83459  28.392  23.437  10.748
18233W        W83460  22.443   6.726   3.343
18234W        W83461   5.499  18.453   2.483
18235W        W83462  12.253   3.686   4.410
18236W        W83463   0.450  22.613   0.249
18237W        W83464  30.935  13.766  13.032
18238W        W83465  22.678   3.799  11.547
18239W        W83466  18.993  13.774  12.141
18240W        W83467  16.104  36.213  12.569
18241W        W83468  32.441  34.104  12.562
18242W        W83469  19.967  18.634  11.690
18243W        W83470  42.798  22.161   3.179
18244W        W83471  34.774   0.512  12.480
18245W        W83472  41.349  22.860   3.280
18246W        W83473   6.840  35.684   2.290
18247W        W83474  17.290  18.867   4.300
18248W        W83475  17.811  37.861  14.799
18249W        W83476  20.679  25.328   3.277
18250W        W83477  34.604  23.191  11.374
18251W        W83478   0.456   1.831  13.945
18252W        W83479  29.917   4.884  14.893
18253W        W83480  33.201  24.745   0.876
18254W        W83481  26.191  17.374  14.187
18255W        W83482  25.205  42.540   3.800
18256W        W83483  30.420  21.687  11.949
18257W        W83484  20.869  28.527  12.723
18258W        W83485  16.606  10.161  12.671
18259W        W83486  39.862  28.015   4.087
18260W        W83487  39.165  40.761  14.491
18261W        W83488  29.138  14.906   0.800
18262W        W83489  28.475   4.872   3.234
18263W        W83490   4.820  15.221   4.935
18264W        W83491  42.382  22.681   3.620
18265W        W83492  36.043  33.922  14.346
18266W        W83493  40.628  39.944   1.878
18267W        W83494  16.534  41.570  14.950
18268W        W83495  22.592  35.682  14.632
18269W        W83496   1.994  17.123  13.717
18270W        W83497  18.608  24.525   3.669
18271W        W83498  33.592   4.231   3.776
18272W        W83499  27.195  20.795   2.486
18273W        W83500  37.323  12.239   1.786
18274W        W83501   0.429  36.902  12.538
18275W        W83502  38.697  39.249  13.075
18276W        W83503  33.193   0.781   2.190
18277W        W83504  21.226   0.387   0.045
18278W        W83505  11.874  31.550  10.995
18279W        W83506  32.552   8.647  13.616
18280W        W83507  20.655   8.733   3.619
18281W        W83508  12.732   8.317  12.476
18282W        W83509   5.637  42.475  11.950
18283W        W83510   1.495   4.354   2.281
18284W        W83511  44.036  15.762  10.654
18285W        W83512  13.513  26.244   3.214
18286W        W83513  11.677   7.258   3.646
18287W        W83514   5.498   7.396   0.447
18288W        W83515  27.931  41.474   0.342
18289W        W83516  42.895  16.098   2.158
18290W        W83517  15.736  40.210   1.254
18291W        W83518  26.157   2.788  12.425
18292W        W83519  29.963  39.427   3.166
18293W        W83520  30.122  41.910  10.581
18294W        W83521  28.676  30.918  10.612
18295W        W83522   1.269   7.287  14.284
18296W        W83523  23.128  36.380   2.694
18297W        W83524   7.468  40.698   4.682
18298W        W83525   9.778   1.823   3.894
18299W        W83526   6.852  39.140   2.027
18300W        W83527  14.191   3.852   3.642
18301W        W83528  25.929   7.827  12.489
18302W        W83529  21.099  25.985  11.158
18303W        W83530   2.713  29.987  10.276
18304W        W83531  31.211  27.585   1.264
18305W        W83532  17.968   3.179  11.589
18306W        W83533   3.239  33.152  13.815
18307W        W83534  33.543  34.831   2.347
18308W        W83535   9.773  25.752  11.106
18309W        W83536  35.063   6.783  10.797
18310W        W83537  43.735  30.425   4.036
18311W        W83538   8.168  19.090   0.325
18312W        W83539  30.252   9.613  12.606
18313W        W83540  39.365  38.313   0.884
18314W        W83541  44.519   9.448  13.303
18315W        W83542  32.849  19.738   2.389
18316W        W83543   3.174  33.164   3.184
18317W        W83544  42.160  41.985  10.760
18318W        W83545  36.668  20.284   1.257
18319W        W83546  22.719  11.597   2.610
18320W        W83547  16.266  34.352  13.960
18321W        W83548  26.091  43.420  11.005
18322W        W83549  21.459  21.944   1.830
18323W        W83550  21.075  27.791   0.813
18324W        W83551  39.053  16.106  12.350
18325W        W83552  43.188  40.701   4.823
18326W        W83553  37.357  16.297   3.181
18327W        W83554  19.237  42.514  11.952
18328W        W83555  13.590  30.124  11.583
18329W        W83556  25.202  37.570  11.627
18330W        W83557  26.041   6.955   0.886
18331W        W83558  41.201   5.203   4.104
18332W        W83559  10.774  24.460   0.971
18333W        W83560  30.103   7.393  12.370
18334W        W83561  28.515  28.082   4.635
18335W        W83562  44.396  16.580   0.390
18336W        W83563  20.011   0.205  12.167
18337W        W83564  10.366  27.348   4.236
18338W        W83565  26.221   3.767  14.842
18339W        W83566  28.189  23.864  11.170
18340W        W83567  33.889  17.770  11.052
18341W        W83568  13.719  11.872   4.090
18342W        W83569  15.710  40.734   0.321
18343W        W83570   9.208  18.166   1.971
18344W        W83571  21.958  27.730  11.545
18345W        W83572  44.357   3.231   2.953
18346W        W83573  24.235  29.734  11.925
18347W        W83574  37.940  17.275  14.893
18348W        W83575  10.609  38.381   0.465
18349W        W83576  17.080  10.953   1.285
18350W        W83577  20.369  21.112   1.713
18351W        W83578  42.463   1.695  12.935
18352W        W83579   5.143  24.814  10.522
18353W        W83580  42.570  20.011  13.087
18354W        W83581  44.016   1.295   4.643
18355W        W83582  42.872  23.466  14.801
18356W        W83583  16.581   2.516   1.204
18357W        W83584   7.701  14.083  14.295
18358W        W83585  41.540  33.000   2.517
18359W        W83586  14.572   0.849  13.129
18360W        W83587  34.868   2.667  11.927
18361W        W83588  33.002  38.192   5.048
18362W        W83589   3.351  37.920   0.595
18363W        W83590  29.854  21.642  11.108
18364W        W83591  23.254  34.089  11.866
18365W        W83592  32.649   2.462   3.694
18366W        W83593   9.824  28.845  11.454
18367W        W83594  10.377  12.472  11.971
18368W        W83595  43.455  28.019   1.253
18369W        W83596  13.906  22.985  14.962
18370W        W83597  31.739  41.603  13.148
18371W        W83598  25.623  17.839  14.765
18372W        W83599  28.162  42.316  10.751
18373W        W83600  38.423  21.244   0.019
18374W        W83601  28.873  39.338   2.219
18375W        W83602   3.705  32.570  14.384
18376W        W83603  18.940  42.679   0.749
18377W        W83604   3.932   9.717   2.415
18378W        W83605   9.191   0.367  12.272
18379W        W83606  38.324   6.286   2.049
18380W        W83607   8.214  15.380  12.442
18381W        W83608  44.368  15.340   2.417
18382W        W83609  42.377   4.385   4.089
18383W        W83610  28.397  17.117   2.860
18384W        W83611  41.257  12.579  12.842
18385W        W83612  44.107  39.700   3.452
18386W        W83613  25.037  11.963   1.002
18387W        W83614   4.809  37.267  12.150
18388W        W83615   8.083  27.441   3.144
18389W        W83616  27.426  17.023  11.962
18390W        W83617   4.199  16.147  12.457
18391W        W83618  20.793  13.870   4.197
18392W        W83619  25.670  34.969   0.751
18393W        W83620   4.913   6.795   3.234
18394W        W83621  29.892  35.967  14.515
18395W        W83622  35.453  20.812   3.885
18396W        W83623  42.949  43.009  10.347
18397W        W83624  11.715  18.780   2.297
18398W        W83625   1.157  32.460   0.531
18399W        W83626  13.556   1.261   0.677
18400W        W83627  36.407  28.475  14.983
18401W        W83628  26.833  18.332   2.809
18402W        W83629  37.431   3.733   3.845
18403W        W83630  42.182  25.659  13.347
18404W        W83631  34.480  39.535   2.576
18405W        W83632   1.740  27.261  11.074
18406W        W83633  11.608   0.593   2.773
18407W        W83634  26.325  36.395   4.220
18408W        W83635  17.222   7.215  13.822
18409W        W83636  18.240  12.557  13.096
18410W        W83637  22.711  11.083  14.323
18411W        W83638  19.702  42.081  13.918
18412W        W83639  25.438  16.626  11.572
18413W        W83640   6.323  33.038   4.401
18414W        W83641  23.467  20.676   3.709
18415W        W83642   8.555   1.350  12.905
18416W        W83643  13.820   3.862  10.643
18417W        W83644   9.269  36.650   0.883
18418W        W83645   2.880  23.480   4.322
18419W        W83646   8.889  13.297  11.638
18420W        W83647  10.238  37.514  13.992
18421W        W83648  16.496  42.863  10.493
18422W        W83649  29.851  29.691  12.617
18423W        W83650  30.392  28.262   3.281
18424W        W83651  14.395   1.269   4.774
18425W        W83652  43.370  29.037   4.646
18426W        W83653  10.877  22.592   3.179
18427W        W83654  31.646  29.113   1.418
18428W        W83655  21.115   2.253  10.612
18429W        W83656  30.375  35.943  14.278
18430W        W83657  17.717  23.398  11.799
18431W        W83658  23.027  36.736   1.438
18432W        W83659  19.260  19.330  11.468
18433W        W83660  18.859  28.951   2.235
18434W        W83661  12.188  15.646  14.028
18435W        W83662  24.455  21.291  10.658
18436W        W83663   8.225  22.184   2.350
18437W        W83664  40.768  35.931   0.373
18438W        W83665  29.376  40.207  10.142
18439W        W83666  10.263   0.190  13.588
18440W        W83667  24.548   0.222   1.306
18441W        W83668  28.016  31.153   1.896
18442W        W83669  42.725  10.060  14.771
18443W        W83670  42.354  32.019   5.077
18444W        W83671  23.856   0.306  11.519
18445W        W83672  15.374  11.062   2.297
18446W        W83673  25.053  16.817   3.568
18447W        W83674  34.918  38.954  13.542
18448W        W83675   5.370  21.460  12.556
18449W        W83676  25.505  36.134  10.566
18450W        W83677  20.057   7.223  14.534
18451W        W83678   0.920  19.873  12.001
18452W        W83679   7.904  21.138  13.502
18453W        W83680  15.235  14.295  10.805
18454W        W83681  15.354  40.957   3.901
18455W        W83682  37.426  18.580  12.869
18456W        W83683  10.823  36.552   0.779
18457W        W83684   3.436  32.219   0.947
18458W        W83685  17.841  29.197  13.869
18459W        W83686  17.114  17.632  13.393
18460W        W83687  26.460  15.300  11.874
18461W        W83688  40.952  24.232   0.809
18462W        W83689  43.382  15.092  11.197
18463W        W83690   1.891   3.669  12.605
18464W        W83691  17.891  19.825  13.863
18465W        W83692  42.484  44.456   2.811
18466W        W83693  28.933  24.482   5.096
18467W        W83694  17.172  43.293  14.352
18468W        W83695  42.901   2.802   2.446
18469W        W83696   4.260   5.717   1.927
18470W        W83697  34.969  30.620   4.114
18471W        W83698   5.173   6.357   3.160
18472W        W83699  35.995  29.414  10.581
18473W        W83700  23.119  32.598  12.538
18474W        W83701  40.362  29.514   2.832
18475W        W83702  35.006  15.851  14.360
18476W        W83703  37.474  23.190   4.434
18477W        W83704  28.085  40.231  12.383
18478W        W83705   6.400  36.995  11.623
18479W        W83706   6.319  34.608  12.794
18480W        W83707  30.697  18.178   1.048
18481W        W83708  24.066   4.000  14.398
18482W        W83709   5.232  13.754  14.735
18483W        W83710   4.636  34.010   1.045
18484W        W83711   0.968   8.787  14.065
18485W        W83712  42.735  35.096  11.431
18486W        W83713  11.246  34.820   2.364
18487W        W83714  43.536  21.776   0.041
18488W        W83715   7.841   4.219  13.956
18489W        W83716  30.448  25.044   3.152
18490W        W83717   1.068  24.195  13.370
18491W        W83718   3.328   3.602   2.329
18492W        W83719   1.751  30.684   4.095
18493W        W83720  23.229  43.326   2.651
18494W        W83721  17.161  21.686   4.404
18495W        W83722  34.983   0.465   4.137
18496W        W83723  13.327  10.387  11.984
18497W        W83724  13.048  26.242  11.694
18498W        W83725  10.175  19.872   3.270
18499W        W83726  43.782  16.256   0.288
18500W        W83727   8.021  31.447   1.450
18501W        W83728  35.059  22.205  11.023
18502W        W83729  14.789  11.749  10.760
18503W        W83730  14.870  42.339  11.332
18504W        W83731  26.061   0.752   2.457
18505W        W83732  15.068  32.113   2.315
18506W        W83733  36.416  16.027  12.972
18507W        W83734  25.040   9.699  13.283
18508W        W83735  39.799   9.745   4.173
18509W        W83736  33.713  33.557  11.480
18510W        W83737  44.425  15.121  11.124
18511W        W83738  44.842  37.318  13.310
18512W        W83739  39.399  31.490  10.695
18513W        W83740  30.883  20.061   1.547
18514W        W83741   1.657   9.676   1.853
18515W        W83742  34.009  19.723   0.355
18516W        W83743  12.289  24.061  10.437
18517W        W83744  30.590  15.372   3.651
18518W        W83745  13.864   1.878  14.406
18519W        W83746  13.224   4.950  11.708
18520W        W83747  34.592  44.049   0.314
18521W        W83748  31.038  20.225  12.211
18522W        W83749   3.503  13.145   3.478
18523W        W83750  34.207  44.430   1.248
18524W        W83751  34.474  11.433  10.426
18525W        W83752  37.184  43.658   1.883
18526W        W83753  13.795   8.078  12.505
18527W        W83754  35.322   3.941  11.334
18528W        W83755  44.741   7.443  11.656
18529W        W83756  29.468  25.087  12.581
18530W        W83757  23.434  25.045   1.339
18531W        W83758  21.181  18.081   3.290
18532W        W83759  15.180  42.989  11.967
18533W        W83760  41.450  21.681  12.506
18534W        W83761  34.336  25.378   0.392
18535W        W83762  22.131  33.419   1.332
18536W        W83763  29.367   9.312   0.573
18537W        W83764  22.240  32.394   0.734
18538W        W83765   4.454  22.475   2.348
18539W        W83766  35.448   8.246  10.592
18540W        W83767  42.199  14.258  11.160
18541W        W83768  17.389  28.542   0.546
18542W        W83769  12.250   5.201   3.192
18543W        W83770  31.046  12.330  10.185
18544W        W83771  39.304  44.300  12.430
18545W        W83772  26.234   8.818  11.138
18546W        W83773  24.565  44.951   4.192
18547W        W83774  26.982   0.295   0.765
18548W        W83775  30.378   0.518   4.134
18549W        W83776   0.121   0.225  11.651
18550W        W83777   0.623  41.342  11.646
18551W        W83778  35.838   6.000   5.104
18552W        W83779  32.947  21.192  14.320
18553W        W83780  20.801  30.835   1.306
18554W        W83781  18.839  43.162   2.784
18555W        W83782  39.569   4.816   3.634
18556W        W83783  36.035  33.499   0.478
18557W        W83784  32.499  42.497  13.403
18558W        W83785  31.392   7.897   1.923
18559W        W83786  30.000  18.507   4.497
18560W        W83787   9.212  31.936  10.634
18561W        W83788  35.092  38.917  11.924
18562W        W83789  41.588  15.204   4.092
18563W        W83790  25.616  44.925  12.863
18564W        W83791  31.059   2.765   4.563
18565W        W83792  34.954  17.597   4.580
18566W        W83793  35.951   8.265  10.741
18567W        W83794  10.318   8.988  12.197
18568W        W83795  42.052  22.970   0.346
18569W        W83796   0.402  24.106   2.195
18570W        W83797  14.103  27.624  13.593
18571W        W83798  30.992   1.016  13.749
18572W        W83799  10.407  12.238  12.434
18573W        W83800  19.566   4.279  12.312
18574W        W83801   6.052  44.329  11.600
18575W        W83802  14.786  39.448   0.453
18576W        W83803  19.042  13.125   0.813
18577W        W83804   6.370   6.307   2.670
18578W        W83805  41.551  12.037   2.839
18579W        W83806  24.304  13.249   3.541
18580W        W83807  24.870  33.677   3.131
18581W        W83808   4.841   0.026   1.691
18582W        W83809  10.286   3.823   1.368
18583W        W83810   3.172   8.857   0.310
18584W        W83811   6.864  16.861  12.881
18585W        W83812   5.663  39.410   1.242
18586W        W83813   8.377  42.950   4.630
18587W        W83814  12.289  13.091  13.964
18588W        W83815   4.445  40.364   0.425
18589W        W83816  36.324  43.072   0.965
18590W        W83817  17.851  22.059   0.901
18591W        W83818  36.452  17.563  13.632
18592W        W83819  41.198   9.284   1.499
18593W        W83820  18.256   3.355   2.351
18594W        W83821   6.458  24.523  12.178
18595W        W83822  41.145  35.838   1.332
18596W        W83823   1.285   8.072   4.143
18597W        W83824  28.384  26.532   1.689
18598W        W83825  41.294   8.336   2.157
18599W        W83826   2.348  34.127   2.515
18600W        W83827  20.515  10.421   0.375
18601W        W83828  27.569  24.721  12.899
18602W        W83829  27.984  20.659  13.872
18603W        W83830  21.434  44.648   0.694
18604W        W83831  30.509  40.993   0.529
18605W        W83832  24.956  20.441   1.995
18606W        W83833  23.647  36.048  14.444
18607W        W83834  15.773  27.015   2.673
18608W        W83835   8.441  30.056  13.886
18609W        W83836  26.925  27.563  14.551
18610W        W83837  29.157  20.258   2.714
18611W        W83838  14.919  11.666  10.153
18612W        W83839  31.530   9.714   3.159
18613W        W83840  11.642  18.186  10.695
18614W        W83841  39.500  39.118  13.005
18615W        W83842  24.378  17.059   5.181
18616W        W83843  16.865  27.313  14.239
18617W        W83844  20.031   9.280   3.187
18618W        W83845  44.199  30.608   2.214
18619W        W83846  30.285  14.570   0.794
18620W        W83847  23.406  11.596  12.512
18621W        W83848  21.993  29.539   0.354
18622W        W83849  11.957  37.531  10.729
18623W        W83850  35.538  42.606   1.346
18624W        W83851  19.052  25.549  10.637
18625W        W83852  16.287  32.687   3.316
18626W        W83853  11.968  33.986   0.833
18627W        W83854   9.438  14.953  14.592
18628W        W83855  28.416   2.306   0.446
18629W        W83856   9.175  13.284   2.865
18630W        W83857  11.164  43.489  11.108
18631W        W83858  27.233  17.216   3.907
18632W        W83859  29.462  30.990   2.965
18633W        W83860  28.022   3.315  10.641
18634W        W83861  39.535  11.323   1.543
18635W        W83862  14.898   8.751  11.629
18636W        W83863  43.877  25.272  14.414
18637W        W83864  29.685  33.512   0.313
18638W        W83865  21.456  33.533   1.036
18639W        W83866  41.236  31.579   0.415
18640W        W83867  20.843  35.595  13.124
18641W        W83868  40.110  34.537   1.880
18642W        W83869  37.498  34.620   0.683
18643W        W83870   5.454  36.027  13.512
18644W        W83871  22.963  16.245   3.415
18645W        W83872  12.301  16.887  10.231
18646W        W83873  33.363  31.489  12.971
18647W        W83874  16.740   7.588   1.377
18648W        W83875  33.561  37.383   2.758
18649W        W83876  12.668  32.334   3.170
18650W        W83877   4.679   6.815  11.006
18651W        W83878  40.483  35.960  10.381
18652W        W83879   0.013  42.099  13.993
18653W        W83880  43.795  34.075  11.161
18654W        W83881   1.774  10.160   2.603
18655W        W83882  39.481  27.691   4.249
18656W        W83883   8.113  37.096   3.390
18657W        W83884  21.539  30.033  11.739
18658W        W83885  38.655  34.939  11.678
18659W        W83886  41.271  42.766   3.580
18660W        W83887   3.899  11.715   3.868
18661W        W83888  32.983  33.400  11.950
18662W        W83889   0.352  16.043   4.517
18663W        W83890  39.581  20.029   0.887
18664W        W83891  25.477  15.923  13.211
18665W        W83892  40.463  13.085   0.957
18666W        W83893  27.048  42.795  12.477
18667W        W83894  23.770  18.039  11.120
18668W        W83895  17.282  41.878   2.635
18669W        W83896   2.871   1.064  11.335
18670W        W83897  43.848   8.783  12.636
18671W        W83898   8.264  21.793  14.484
18672W        W83899  13.637  29.633   2.849
18673W        W83900   8.362  14.655   3.858
18674W        W83901  10.315  44.993   0.812
18675W        W83902  12.252   8.232  10.517
18676W        W83903  42.046  20.529   3.623
18677W        W83904  42.995  44.394  12.836
18678W        W83905  19.693  25.881   1.911
18679W        W83906  15.220  40.230   0.961
18680W        W83907   4.922  32.620  14.885
18681W        W83908  40.336  20.536   0.857
18682W        W83909  28.447  29.420   3.565
18683W        W83910  40.471  41.045   4.109
18684W        W83911  16.143  25.542  11.714
18685W        W83912  36.012  24.572  10.664
18686W        W83913  15.248   4.790   2.680
18687W        W83914  38.317   3.717  13.851
18688W        W83915  35.553  25.196  14.364
18689W        W83916   4.279   5.463   4.592
18690W        W83917  27.647  24.591   1.631
18691W        W83918  33.141  31.535   0.915
18692W        W83919  32.973  43.972  13.703
18693W        W83920  11.712  12.999   1.400
18694W        W83921  29.007  33.363   2.525
18695W        W83922  26.794   6.740  14.294
18696W        W83923  42.099  18.825  10.272
18697W        W83924   3.272  40.921   0.363
18698W        W83925  25.798  43.092   0.763
18699W        W83926  21.093  17.084  12.377
18700W        W83927  41.808  15.468  13.519
18701W        W83928  34.828  24.216  10.716
18702W        W83929  42.923  42.382  11.915
18703W        W83930  30.405  26.358   2.149
18704W        W83931  44.549  32.885  12.918
18705W        W83932   2.234   1.383  14.547
18706W        W83933  22.328  36.830   0.786
18707W        W83934   8.473  32.537   0.956
18708W        W83935  26.596  27.695  14.146
18709W        W83936  23.911  12.125  12.401
18710W        W83937   2.916  42.865  11.136
18711W        W83938  30.740   2.800   1.251
18712W        W83939  27.854  33.992  14.459
18713W        W83940  36.545  37.912   2.754
18714W        W83941  18.276   9.972   0.858
18715W        W83942   4.937   8.118  10.703
18716W        W83943  41.811  10.313   2.350
18717W        W83944  24.473  12.642  11.591
18718W        W83945  13.490  32.865   1.230
18719W        W83946  35.538  43.628   4.398
18720W        W83947  19.652   4.693  12.638
18721W        W83948  13.284  25.634  12.480
18722W        W83949   5.166  33.830   1.880
18723W        W83950  16.165  38.678  12.923
18724W        W83951  40.715  14.141  13.413
18725W        W83952  12.333  14.339  14.400
18726W        W83953  20.663  25.393  12.193
18727W        W83954  24.894  34.284  11.890
18728W        W83955  44.545  39.414  14.703
18729W        W83956  40.660   1.083   2.361
18730W        W83957  38.700  23.703  13.998
18731W        W83958  27.050  37.058  12.146
18732W        W83959   1.991  25.460   1.308
18733W        W83960  34.806  16.332   3.279
18734W        W83961  40.901   3.424   0.763
18735W        W83962  40.915  26.254  11.223
18736W        W83963  23.267  26.780   4.278
18737W        W83964   5.982  20.995  13.516
18738W        W83965   9.740  28.063  10.936
18739W        W83966  38.924   9.104   0.698
18740W        W83967   5.935   7.708  12.530
18741W        W83968  35.076  41.261  10.225
18742W        W83969   5.211  16.826  10.309
18743W        W83970  11.632   2.035   4.188
18744W        W83971  38.908  37.553  13.776
18745W        W83972  18.648  42.447  11.218
18746W        W83973  44.976  11.791   0.712
18747W        W83974  33.597   2.796  14.716
18748W        W83975  33.541   2.366   2.659
18749W        W83976  23.947   8.715   2.716
18750W        W83977  19.233  24.084   3.640
18751W        W83978  19.732   5.912   0.878
18752W        W83979  35.444   1.538   0.412
18753W        W83980  28.976  10.298   0.785
18754W        W83981  34.777  32.140  12.075
18755W        W83982   0.494  17.360   2.591
18756W        W83983  39.324  40.851   1.717
18757W        W83984  19.870  29.738   4.308
18758W        W83985  38.978  33.632  11.985
18759W        W83986  12.417  41.067  11.123
18760W        W83987   9.591  23.183  11.418
18761W        W83988  39.155  22.487  11.532
18762W        W83989  30.577  13.403  13.015
18763W        W83990  36.046  38.285  13.830
18764W        W83991  37.012  36.403  11.937
18765W        W83992   0.670  35.996   1.222
18766W        W83993  10.864  19.767  11.155
18767W        W83994   0.975  31.121   4.139
18768W        W83995  10.910   9.221   0.176
18769W        W83996  41.985  35.957  13.387
18770W        W83997  32.588  12.311   1.737
18771W        W83998  37.156   1.681   3.647
18772W        W83999  26.223  39.362   3.642
18773W        W84000  38.049  32.528  14.467
18774W        W84001  29.347  12.884  13.704
18775W        W84002  41.831  23.038  14.462
18776W        W84003  14.641  16.804  14.374
18777W        W84004  26.511  13.385   0.488
18778W        W84005  21.681   4.719   0.780
18779W        W84006   9.253  12.098  13.319
18780W        W84007  41.485  44.225  14.507
18781W        W84008  24.997   4.072  14.450
18782W        W84009  17.490   2.234  13.322
18783W        W84010  25.086  21.745   2.797
18784W        W84011  10.188  10.833  14.768
18785W        W84012   6.029  12.129   4.568
18786W        W84013  25.231  39.069  14.446
18787W        W84014   3.404  42.943  13.032
18788W        W84015  20.965   5.240  12.491
18789W        W84016  11.973  16.347   3.440
18790W        W84017  42.801  15.816  13.960
18791W        W84018  12.237  13.299   4.240
18792W        W84019  17.969  40.110  13.456
18793W        W84020  37.260  40.838   3.676
18794W        W84021  16.830   3.450   0.854
18795W        W84022   2.656  38.667   0.374
18796W        W84023  43.757   3.677  10.751
18797W        W84024  44.916  21.009   3.777
18798W        W84025  11.685  34.884  13.495
18799W        W84026   0.080   8.354   0.908
18800W        W84027  30.793  43.537   3.745
18801W        W84028  41.297  40.964  13.389
18802W        W84029   3.040  28.599  13.938
18803W        W84030  44.398  26.182  11.644
18804W        W84031   5.928   7.658   3.612
18805W        W84032  12.477   9.118  10.855
18806W        W84033  41.320  22.147  13.141
18807W        W84034  21.917   4.630   1.919
18808W        W84035   9.338  41.410  11.712
18809W        W84036  25.725   2.830   1.430
18810W        W84037  16.917   1.300   4.786
18811W        W84038   4.271  26.514  12.073
18812W        W84039   3.922  25.721  11.599
18813W        W84040  39.486  23.462   4.492
18814W        W84041  18.044   5.863  13.591
18815W        W84042  15.609  29.180   4.544
18816W        W84043   8.486   4.329  12.599
18817W        W84044   8.341  10.640   3.345
18818W        W84045  13.206  25.298   0.895
18819W        W84046  20.627  41.881  13.805
18820W        W84047  42.796  10.376  12.692
18821W        W84048  34.613  42.326   2.839
18822W        W84049  37.240  38.013  10.738
18823W        W84050   7.764  36.934   0.972
18824W        W84051   4.399  20.216  11.232
18825W        W84052  34.379   2.930   3.335
18826W        W84053  37.598   0.405   3.697
18827W        W84054   9.784  25.468  14.816
18828W        W84055  20.588  21.536   0.974
18829W        W84056  17.159  32.255   2.191
18830W        W84057  27.066  33.613   4.577
18831W        W84058  38.344   4.104  14.436
18832W        W84059  38.987   9.438   1.514
18833W        W84060   5.254  37.792   9.945
18834W        W84061  37.500  32.607   3.623
18835W        W84062   4.233  27.150   5.350
18836W        W84063   8.377  43.809  13.770
18837W        W84064   0.293  19.209   3.082
18838W        W84065   4.330   1.697   4.229
18839W        W84066  23.491  38.328  14.994
18840W        W84067  19.832  22.221  10.968
18841W        W84068  12.645  32.900  11.165
18842W        W84069  36.073  44.840  14.683
18843W        W84070   1.646  35.447   4.223
18844W        W84071   8.402   1.960   2.679
18845W        W84072   7.914  35.890   0.958
18846W        W84073  13.646   2.921   4.077
18847W        W84074  28.693  40.846  12.357
18848W        W84075  36.083  40.348  11.458
18849W        W84076   6.626  28.458  11.922
18850W        W84077   3.931   0.875   1.620
18851W        W84078  13.906  34.556   3.264
18852W        W84079  26.992  29.011   3.165
18853W        W84080  12.347  10.832   2.080
18854W        W84081  18.085  18.719  11.609
18855W        W84082  19.324  19.326   3.965
18856W        W84083  10.207   0.739   2.300
18857W        W84084   9.180  36.082  13.340
18858W        W84085   9.120   4.326  13.852
18859W        W84086  17.212  14.733   4.244
18860W        W84087   0.101  37.042   0.520
18861W        W84088  39.000   8.816  14.862
18862W        W84089  29.014  11.624   1.619
18863W        W84090  43.708   3.645   2.201
18864W        W84091  39.488  13.653  13.060
18865W        W84092  30.362  41.340  12.570
18866W        W84093   2.132   0.906  13.625
18867W        W84094  11.571  42.768   0.452
18868W        W84095   0.952   1.577   3.605
18869W        W84096  16.618  30.690  13.648
18870W        W84097  28.074   7.053   4.134
18871W        W84098  37.200   8.357  12.952
18872W        W84099  34.372  17.716   0.943
18873W        W84100  32.522  20.065   2.114
18874W        W84101   6.170  33.666  11.509
18875W        W84102  38.828  13.328   4.383
18876W        W84103  33.160   4.251   2.832
18877W        W84104   5.245  32.357  14.032
18878W        W84105  15.879  42.703   4.141
18879W        W84106  41.365  22.349   3.182
18880W        W84107   3.460  32.328  12.534
18881W        W84108  20.531  37.072  13.970
18882W        W84109   9.807  15.822  12.984
18883W        W84110   7.910  42.000   4.211
18884W        W84111  21.325  21.475  13.411
18885W        W84112   7.708  30.788   5.035
18886W        W84113   7.734  39.064   4.959
18887W        W84114   4.135  22.610   4.251
18888W        W84115  28.627  39.553  10.554
18889W        W84116  12.772  19.626   2.420
18890W        W84117   8.351   3.673   0.411
18891W        W84118  19.371  42.005  12.008
18892W        W84119   0.241  34.944   1.956
18893W        W84120  19.196  27.843   0.903
18894W        W84121  32.485  17.066  12.496
18895W        W84122  28.162  31.663  11.498
18896W        W84123  11.219  38.547  13.069
18897W        W84124  13.365  18.851  12.720
18898W        W84125  10.537  28.270   0.496
18899W        W84126  38.039  35.925   2.745
18900W        W84127  29.301  31.410  14.383
18901W        W84128   9.906  31.202   0.060
18902W        W84129  23.224  15.285   1.684
18903W        W84130  33.447  13.844   1.671
18904W        W84131  22.537  17.186   4.684
18905W        W84132  23.734  31.579   2.618
18906W        W84133   6.262   3.499  10.734
18907W        W84134   3.687  22.176  14.782
18908W        W84135  34.507   5.346  11.153
18909W        W84136  17.039  33.520   1.959
18910W        W84137  15.578  13.254   1.045
18911W        W84138  23.418  15.272   3.153
18912W        W84139   5.836  44.964   0.761
18913W        W84140  40.515  13.331   2.251
18914W        W84141   7.506  34.463  10.746
18915W        W84142  36.920  28.804  12.405
18916W        W84143  41.302  27.611   3.092
18917W        W84144   2.839  38.458  14.076
18918W        W84145  27.618  42.499  13.804
18919W        W84146   7.652  28.587  10.967
18920W        W84147  14.515   6.457   4.595
18921W        W84148  44.629   7.586  13.803
18922W        W84149   2.590  37.040  12.944
18923W        W84150   5.424   6.838   3.375
18924W        W84151  44.352   7.381  10.460
18925W        W84152  34.442  10.220   2.645
18926W        W84153  36.863  15.048  10.718
18927W        W84154   8.317   5.023   0.591
18928W        W84155  31.062  39.022   4.631
18929W        W84156   8.781  37.351  14.337
18930W        W84157  26.954  11.304  10.468
18931W        W84158  29.388   2.470   4.142
18932W        W84159  16.653   0.994  13.101
18933W        W84160  24.086  31.962   0.881
18934W        W84161  29.714  37.904   0.945
18935W        W84162   2.360   5.209  11.673
18936W        W84163   3.709  22.954  13.125
18937W        W84164  28.603  25.493  11.608
18938W        W84165   7.990  35.333  12.480
18939W        W84166  15.705  37.332   0.822
18940W        W84167  36.424  33.929  11.855
18941W        W84168  35.782  11.340  14.997
18942W        W84169  41.521  22.289   2.190
18943W        W84170  32.846  35.513  10.666
18944W        W84171  32.721  18.647   2.791
18945W        W84172  32.753  21.264   1.487
18946W        W84173  34.621  13.307   2.221
18947W        W84174  20.626  37.351  12.555
18948W        W84175  34.064  13.683  11.563
18949W        W84176  43.723  15.125   1.434
18950W        W84177  18.773  23.749  13.415
18951W        W84178  14.326  36.590  13.544
18952W        W84179  34.998  42.055   1.887
18953W        W84180  38.537  10.069  11.497
18954W        W84181  32.091  10.978  11.163
18955W        W84182  37.934  34.029   2.738
18956W        W84183  30.871  23.278   0.177
18957W        W84184   4.273  20.531   3.655
18958W        W84185   7.924  13.629  14.389
18959W        W84186   3.379  28.219  14.256
18960W        W84187  15.274  18.325   3.318
18961W        W84188  43.332  34.944   4.369
18962W        W84189  33.469  37.084  12.887
18963W        W84190  14.732   5.946  13.823
18964W        W84191  36.022   2.770  13.490
18965W        W84192   5.386  35.645  11.132
18966W        W84193  25.971  29.920  13.314
18967W        W84194  11.836  39.940  12.320
18968W        W84195  25.512   3.774   0.416
18969W        W84196  16.872   5.782   4.909
18970W        W84197  44.501   2.402   0.169
18971W        W84198  43.363  29.701   0.588
18972W        W84199  38.010  36.577   3.822
18973W        W84200   7.932   2.717  11.780
18974W        W84201  26.606  18.192  13.011
18975W        W84202  41.038  42.505  11.552
18976W        W84203   4.893   7.352   4.829
18977W        W84204  13.412  24.014  12.672
18978W        W84205  11.670  29.905  11.662
18979W        W84206  14.156  13.153  11.556
18980W        W84207  43.970  12.292   3.996
18981W        W84208  21.654  42.844   1.878
18982W        W84209  44.967  12.257  11.513
18983W        W84210  29.228  33.623  11.097
18984W        W84211   6.998  37.487  13.875
18985W        W84212  32.169  18.671   1.878
18986W        W84213  19.291  19.588  13.055
18987W        W84214  36.603  24.017  12.825
18988W        W84215  44.382  20.554   4.949
18989W        W84216  18.517  27.621  13.907
18990W        W84217  33.462   3.924  13.653
18991W        W84218  33.398  38.548  12.454
18992W        W84219  12.539   8.807   0.435
18993W        W84220   2.137  34.078   0.805
18994W        W84221  44.310  44.222  12.135
18995W        W84222  26.918   4.698  12.047
18996W        W84223  37.563  13.635  14.014
18997W        W84224  26.034  17.218   0.193
18998W        W84225  42.461   2.515   2.596
18999W        W84226  34.499  12.850  10.617
19000W        W84227  25.019   6.707   2.745
19001W        W84228  16.216  29.812  13.644
19002W        W84229  27.221   1.390  11.578
19003W        W84230   6.832  34.567  12.152
19004W        W84231  42.351  40.500   1.699
19005W        W84232  22.206  32.563  10.630
19006W        W84233   8.206   7.202   2.024
19007W        W84234  17.161  36.624  11.200
19008W        W84235  17.395  41.412  13.991
19009W        W84236  39.030   4.180  14.382
19010W        W84237  39.999  15.723   1.456
19011W        W84238  19.572  39.525   3.822
19012W        W84239  43.994  32.560   3.582
19013W        W84240  10.394  43.134  11.943
19014W        W84241   6.797  44.744  11.972
19015W        W84242  16.505  11.090  12.526
19016W        W84243   1.712  26.066   2.249
19017W        W84244  19.997  14.041  13.558
19018W        W84245  25.989  20.526   3.544
19019W        W84246  21.623  41.395  12.603
19020W        W84247   7.214  26.395   0.420
19021W        W84248   4.396  37.389   2.754
19022W        W84249  44.975  43.253   0.822
19023W        W84250  31.925  10.435   4.134
19024W        W84251  35.810  13.650  12.990
19025W        W84252   4.448   3.220  13.081
19026W        W84253   5.252  44.452   3.590
19027W        W84254  16.342  29.421  13.964
19028W        W84255   4.514  26.181  14.062
19029W        W84256  17.306   3.978  14.084
19030W        W84257  22.763  17.980  12.300
19031W        W84258  10.349  43.969  11.362
19032W        W84259  14.595  34.626   1.407
19033W        W84260  13.006   0.389  13.421
19034W        W84261  21.552  28.631   2.697
19035W        W84262  11.177  13.028  12.124
19036W        W84263  40.789  27.014  11.480
19037W        W84264   9.806  41.387  10.887
19038W        W84265  11.243   5.445  13.371
19039W        W84266  30.920  21.001   3.712
19040W        W84267  34.670  43.543  13.459
19041W        W84268  35.108  24.033   1.839
19042W        W84269  10.867  25.297  13.368
19043W        W84270   7.306  35.973  10.828
19044W        W84271  38.415  10.353  14.087
19045W        W84272  37.319  28.959  10.716
19046W        W84273  15.181  40.915   4.904
19047W        W84274  14.546  17.051   2.245
19048W        W84275  15.807  21.959   2.835
19049W        W84276  11.707  31.293   4.996
19050W        W84277  22.157  38.595   2.657
19051W        W84278  33.732  40.307   3.582
19052W        W84279  34.996  41.768  10.429
19053W        W84280  20.087  17.426   4.626
19054W        W84281  31.250  36.054   1.491
19055W        W84282  29.417  13.759   1.359
19056W        W84283  17.813  23.231   0.908
19057W        W84284  16.915  14.681  11.662
19058W        W84285  22.807  20.277  11.558
19059W        W84286  44.054  23.235   3.246
19060W        W84287  38.900  43.872   4.532
19061W        W84288   1.766  36.128  11.541
19062W        W84289   7.347  39.881   2.145
19063W        W84290   1.472  43.942   1.843
19064W        W84291  35.540  13.578   0.348
19065W        W84292  20.632  34.885  10.592
19066W        W84293  32.233  41.677  12.396
19067W        W84294  10.223  20.082   0.522
19068W        W84295   7.050  37.614   1.783
19069W        W84296  43.858  38.055   4.329
19070W        W84297  10.377  28.719   0.752
19071W        W84298  41.485  30.596   2.224
19072W        W84299  25.685  36.901  13.846
19073W        W84300  19.350  18.045   3.552
19074W        W84301  36.262  20.593  12.984
19075W        W84302  17.883  18.192  11.924
19076W        W84303  38.036  22.449   2.205
19077W        W84304  33.614   7.084  11.160
19078W        W84305   2.977  21.724  13.580
19079W        W84306  19.175  10.881  13.545
19080W        W84307  20.557  24.593  10.709
19081W        W84308  23.707  38.899   2.901
19082W        W84309  43.744  13.744  10.521
19083W        W84310  24.116  20.600  12.180
19084W        W84311  28.641  19.492   3.818
19085W        W84312  35.777  34.853  12.852
19086W        W84313  10.249  10.671  11.624
19087W        W84314  26.052  25.242   3.640
19088W        W84315  26.632   7.845   0.300
19089W        W84316   0.807  24.898   9.774
19090W        W84317  29.802   7.743   2.428
19091W        W84318  12.739  44.509  13.657
19092W        W84319  41.752  22.869   2.922
19093W        W84320  10.590   0.274   4.721
19094W        W84321  39.341  43.082  14.369
19095W        W84322  21.005  30.948   4.521
19096W        W84323   2.056   3.405  13.045
19097W        W84324  43.263  42.113   2.722
19098W        W84325  41.893  15.631   4.156
19099W        W84326  31.463   9.914  10.780
19100W        W84327  12.272  20.060  13.398
19101W        W84328  20.087   2.696  14.386
19102W        W84329  14.409  33.413  14.063
19103W        W84330   2.922   5.281  13.765
19104W        W84331   3.398  25.159   2.206
19105W        W84332  36.228  41.604  13.956
19106W        W84333  42.937   1.770   3.682
19107W        W84334  42.958  15.744   3.530
19108W        W84335  41.818  30.655   4.075
19109W        W84336  22.006   6.716   3.795
19110W        W84337  29.194   9.891   3.699
19111W        W84338  17.092  40.409   0.205
19112W        W84339  43.123  15.278   3.792
19113W        W84340   1.750  11.681   4.653
19114W        W84341  18.256  36.284   1.697
19115W        W84342   0.398  28.451  12.320
19116W        W84343  34.621   0.399   2.641
19117W        W84344  44.325  19.223  14.094
19118W        W84345   9.492  16.531   0.376
19119W        W84346  14.825   9.295  10.784
19120W        W84347  26.524  38.721   2.312
19121W        W84348  40.023  34.907  14.820
19122W        W84349  22.215   1.828  13.869
19123W        W84350   8.790  37.889   3.709
19124W        W84351   9.153  36.400   3.894
19125W        W84352  29.407  30.191   1.882
19126W        W84353  20.155   1.985  12.829
19127W        W84354  30.391  29.876   3.595
19128W        W84355  23.331  32.960  13.981
19129W        W84356  39.127  41.139   0.805
19130W        W84357   8.798  15.379   3.253
19131W        W84358  24.597  33.504  10.744
19132W        W84359  11.294  16.125   4.612
19133W        W84360  31.866   3.263  13.978
19134W        W84361   3.211  41.423   2.489
19135W        W84362   3.809  23.363  12.242
19136W        W84363  34.592  14.648  11.908
19137W        W84364   7.233  43.762  12.563
19138W        W84365  18.667  18.581   1.839
19139W        W84366  27.577  40.869   4.442
19140W        W84367   4.906   6.961   1.064
19141W        W84368   7.835   5.806  11.195
19142W        W84369  30.097   0.032  13.578
19143W        W84370   1.919  28.761  14.426
19144W        W84371  23.164  24.072   1.925
19145W        W84372  28.543  43.165  12.362
19146W        W84373  16.041  26.799  11.453
19147W        W84374   9.131  13.948  14.767
19148W        W84375  24.534  25.957  13.109
19149W        W84376  42.439  10.268  11.961
19150W        W84377  25.402  21.422   5.048
19151W        W84378  37.195  40.255   1.566
19152W        W84379   5.539  34.262  13.432
19153W        W84380  16.720  10.824  11.596
19154W        W84381  31.114  13.174  14.299
19155W        W84382   5.205  25.604   4.228
19156W        W84383  23.661  34.284  11.112
19157W        W84384  18.845  42.929  14.861
19158W        W84385   3.980   8.567   3.241
19159W        W84386  32.928  14.892  13.048
19160W        W84387   7.825  10.350   2.747
19161W        W84388  14.163  13.303  10.668
19162W        W84389  28.150  11.599   4.511
19163W        W84390  11.974  39.477   0.369
19164W        W84391  37.295   5.269  14.409
19165W        W84392   7.216   0.396   2.082
19166W        W84393  25.970  22.524  13.711
19167W        W84394   9.853  39.576  10.894
19168W        W84395   6.592   3.009  11.604
19169W        W84396  28.357  19.058  12.445
19170W        W84397   6.957  42.818  12.169
19171W        W84398  40.501  15.560  12.955
19172W        W84399  19.114   2.755   4.247
19173W        W84400   0.116  15.802  14.480
19174W        W84401   5.809  38.302  13.168
19175W        W84402  41.020  17.578  14.157
19176W        W84403  42.919  37.615   3.551
19177W        W84404  28.609  34.315   2.113
19178W        W84405  20.073   9.599   4.164
19179W        W84406  29.412   0.208   4.152
19180W        W84407  18.339  25.830   3.066
19181W        W84408  25.353  18.591   1.872
19182W        W84409  14.090  27.210  11.156
19183W        W84410  36.188  26.259  10.293
19184W        W84411  42.133  40.500   3.742
19185W        W84412  20.562  28.298   2.735
19186W        W84413  39.554  35.621   3.626
19187W        W84414  27.219   1.465   3.747
19188W        W84415  16.737  31.408  14.874
19189W        W84416  13.087  19.755   3.166
19190W        W84417  10.257  30.166  14.249
19191W        W84418  20.809  42.491   1.856
19192W        W84419  24.750  28.482   3.251
19193W        W84420  30.491  36.504   1.733
19194W        W84421  25.555   4.924  12.433
19195W        W84422   6.377  37.253   3.398
19196W        W84423   4.299   8.569  11.132
19197W        W84424  27.810  28.634  10.168
19198W        W84425  16.539  36.002   1.338
19199W        W84426   7.155  33.041  13.130
19200W        W84427  42.889  36.899  10.815
19201W        W84428  10.246   6.748   0.841
19202W        W84429  17.551  13.359  12.205
19203W        W84430  28.367   7.680  11.061
19204W        W84431  42.086  19.629   2.706
19205W        W84432  11.298   9.226   2.721
19206W        W84433  12.886   0.921  12.682
19207W        W84434   5.693  17.799   1.324
19208W        W84435  24.979  14.603  11.613
19209W        W84436  12.088  26.602  11.744
19210W        W84437  28.044  44.340   1.246
19211W        W84438  19.291  19.655  14.492
19212W        W84439  35.528  34.369   4.884
19213W        W84440  14.993   2.506   1.263
19214W        W84441   4.232  20.536   2.679
19215W        W84442  37.221   3.117  12.155
19216W        W84443  24.547  25.059   1.829
19217W        W84444  25.288  22.421   4.207
19218W        W84445  32.668   4.806  11.453
19219W        W84446  20.084   6.337   2.421
19220W        W84447  25.070  38.016   2.390
19221W        W84448  20.428   1.456  14.746
19222W        W84449  39.118   8.137  11.025
19223W        W84450   4.695  33.050  11.071
19224W        W84451   3.789  18.500   0.795
19225W        W84452   2.810  30.019  14.091
19226W        W84453  23.050  44.114   4.549
19227W        W84454  23.019  24.222  13.508
19228W        W84455   9.420  14.700  12.630
19229W        W84456  40.842  16.705   0.269
19230W        W84457   1.485  38.510  11.451
19231W        W84458  32.806  38.599  13.636
19232W        W84459   7.170  30.926  12.035
19233W        W84460  16.761  12.262   4.117
19234W        W84461   0.361  30.534  11.895
19235W        W84462   2.793  33.517   3.942
19236W        W84463   0.824   2.996   3.128
19237W        W84464   9.893  24.714  13.926
19238W        W84465  41.370  41.899   0.958
19239W        W84466   4.909  28.712  11.208
19240W        W84467  27.219  28.328   1.013
19241W        W84468  22.675  28.631  14.784
19242W        W84469  37.381   7.659   3.939
19243W        W84470  13.728   0.486   4.682
19244W        W84471   5.872  18.426   1.106
19245W        W84472  31.041   3.416  13.876
19246W        W84473   4.913  17.765   0.968
19247W        W84474   7.610  40.802   0.722
19248W        W84475  12.710  10.454   2.841
19249W        W84476  11.323   5.190  12.351
19250W        W84477  16.061   2.451  14.974
19251W        W84478  44.592  21.740   3.114
19252W        W84479  20.662  15.250  11.627
19253W        W84480  27.416  25.274  13.279
19254W        W84481  44.286  39.098   3.477
19255W        W84482  12.444  41.941   0.042
19256W        W84483  16.964  34.229   2.831
19257W        W84484  10.267  10.005   3.907
19258W        W84485  39.984  40.818   0.369
19259W        W84486  19.282   1.592   2.363
19260W        W84487   2.746  21.216   3.655
19261W        W84488  16.802  11.143  11.207
19262W        W84489  32.939  41.861  13.134
19263W        W84490  36.556   4.464   1.850
19264W        W84491  14.461   9.595  14.409
19265W        W84492  37.003   6.251   1.392
19266W        W84493  40.640   3.352   1.207
19267W        W84494  37.584  29.241   2.820
19268W        W84495  31.902  43.094  11.252
19269W        W84496  29.062  12.556   2.286
19270W        W84497  18.481  25.087   5.302
19271W        W84498  30.183   8.337   1.541
19272W        W84499  27.683  34.547  11.993
19273W        W84500  33.902  27.783  10.227
19274W        W84501  17.055  40.337  13.381
19275W        W84502  44.528   0.742  13.396
19276W        W84503  26.220  26.491  12.020
19277W        W84504   5.730  34.648  13.853
19278W        W84505  40.960  31.555  12.910
19279W        W84506  17.754  20.282   2.694
19280W        W84507   9.674  15.673   1.180
19281W        W84508  23.409  29.113   0.019
19282W        W84509  32.620  12.421   3.751
19283W        W84510   0.345  22.756   3.264
19284W        W84511   1.720   8.117  14.729
19285W        W84512  29.161  26.222  12.874
19286W        W84513   7.243  13.126   3.917
19287W        W84514  13.796   0.680  12.524
19288W        W84515  19.837  25.757  12.870
19289W        W84516  36.472  29.267  11.828
19290W        W84517  41.988  42.069   1.156
19291W        W84518  21.033   0.791  12.876
19292W        W84519   8.442  10.363  13.406
19293W        W84520  34.533   9.699  14.901
19294W        W84521   8.583   6.816  11.982
19295W        W84522  31.569  12.627  11.397
19296W        W84523  26.469  30.535   3.157
19297W        W84524  38.791  28.445   0.736
19298W        W84525   9.087  27.504   3.600
19299W        W84526  10.323  24.707   0.831
19300W        W84527   6.966  29.292   4.574
19301W        W84528   3.063  10.827   2.631
19302W        W84529   0.449  18.254   2.817
19303W        W84530   9.357  32.535  12.388
19304W        W84531  27.032  44.938  14.449
19305W        W84532  27.262  30.149  12.883
19306W        W84533  34.760  39.703  14.587
19307W        W84534   5.203  39.120   1.310
19308W        W84535  25.538  29.595  11.709
19309W        W84536  22.566  15.283   4.188
19310W        W84537   3.844   3.018  11.927
19311W        W84538   1.593  22.683   3.697
19312W        W84539  33.906  16.481   4.099
19313W        W84540  17.299  33.144  14.847
19314W        W84541  18.147  27.664   4.117
19315W        W84542  13.053  43.222  10.903
19316W        W84543  25.108  17.631   3.039
19317W        W84544   3.789   8.137  13.953
19318W        W84545  18.122   5.791   2.356
19319W        W84546  34.283   2.094   2.293
19320W        W84547  42.321   6.790  12.425
19321W        W84548  21.590  37.474   0.739
19322W        W84549  36.476  26.440   1.288
19323W        W84550   3.270  26.750   1.888
19324W        W84551  34.404  23.727  14.359
19325W        W84552  16.078  26.552  14.103
19326W        W84553   6.751  22.364  14.151
19327W        W84554  30.265  23.387  12.641
19328W        W84555  37.153  23.052   1.023
19329W        W84556  21.486  26.801   2.665
19330W        W84557  24.799  14.685   2.070
19331W        W84558  35.560  19.264  11.597
19332W        W84559   5.374   7.346  10.407
19333W        W84560  19.863   0.450   2.645
19334W        W84561  14.216  32.422   0.304
19335W        W84562   4.831   9.702   2.270
19336W        W84563  38.408  25.189   4.620
19337W        W84564  25.231  41.556   1.024
19338W        W84565  16.579  21.219  10.990
19339W        W84566  22.072   6.834   1.716
19340W        W84567   2.733  41.010  13.785
19341W        W84568   5.275   8.410   0.472
19342W        W84569   9.162  22.993  14.512
19343W        W84570   9.241   0.350  14.747
19344W        W84571   3.743  14.898  13.931
19345W        W84572   0.185   1.968  13.515
19346W        W84573  21.498  18.564   1.864
19347W        W84574   3.272  32.121   3.360
19348W        W84575  35.015   5.821  13.425
19349W        W84576  40.794   9.352  13.523
19350W        W84577  26.454  40.362  13.035
19351W        W84578   8.861   7.030  13.305
19352W        W84579  10.359  22.645   1.686
19353W        W84580   4.177   3.402  12.089
19354W        W84581   4.995  20.406   2.132
19355W        W84582  26.938  33.235  11.451
19356W        W84583   0.445  31.981   0.205
19357W        W84584  33.505  17.036   2.219
19358W        W84585   5.802  29.247   1.644
19359W        W84586   9.488  22.565  10.805
19360W        W84587   1.056  27.001  13.792
19361W        W84588  42.536  33.971  11.721
19362W        W84589   1.455  18.345   0.451
19363W        W84590  38.457  12.336   4.470
19364W        W84591  42.831  44.910   0.254
19365W        W84592   0.482  29.474  12.575
19366W        W84593  37.559  27.141   3.636
19367W        W84594  22.001  39.992  14.198
19368W        W84595  31.799  34.996  11.912
19369W        W84596  10.810   4.342  12.663
19370W        W84597  39.967  10.281  12.609
19371W        W84598  36.433  35.689   4.246
19372W        W84599  26.584  11.258   2.665
19373W        W84600   1.361  38.522  12.450
19374W        W84601  23.008  18.470  14.951
19375W        W84602  30.863  43.522  13.478
19376W        W84603  12.224  24.513  14.783
19377W        W84604  41.265  39.835   4.596
19378W        W84605  21.054   2.742  13.960
19379W        W84606  41.863  27.634  12.034
19380W        W84607  19.072  34.026   0.215
19381W        W84608  39.320  42.267   4.873
19382W        W84609  16.034  10.306   3.782
19383W        W84610  19.695  33.351   1.169
19384W        W84611  14.124  29.016   2.223
19385W        W84612  41.767   0.358   4.340
19386W        W84613  20.445  11.891  13.797
19387W        W84614  35.236   6.141   1.222
19388W        W84615   1.757  10.368   4.132
19389W        W84616  30.564  24.741  10.453
19390W        W84617  37.359   4.238   0.319
19391W        W84618  28.651  13.218  10.693
19392W        W84619  18.333  12.558   3.647
19393W        W84620  23.336  10.181   3.081
19394W        W84621  22.659   7.060   0.737
19395W        W84622  32.375  15.568  14.800
19396W        W84623  38.830  13.804  11.196
19397W        W84624  25.465   9.999   3.891
19398W        W84625   4.536  29.543  14.059
19399W        W84626  11.146  12.566  14.021
19400W        W84627  19.330  22.082  10.867
19401W        W84628  34.291   7.637   4.099
19402W        W84629  17.083  42.042  13.420
19403W        W84630  30.070  20.377  12.047
19404W        W84631  32.947  44.012   2.275
19405W        W84632  21.957   0.016   1.973
19406W        W84633   9.421  21.808   3.141
19407W        W84634   5.172  28.406   4.058
19408W        W84635  13.594   2.683  13.063
19409W        W84636  34.685  28.523   2.414
19410W        W84637   1.956  35.826   0.235
19411W        W84638  35.723  34.684   0.879
19412W        W84639   6.916  37.102  11.585
19413W        W84640  10.556  34.030   0.780
19414W        W84641   2.737  21.694  14.119
19415W        W84642  43.767   1.776  11.870
19416W        W84643  30.541  22.525  14.057
19417W        W84644  29.527  34.363   2.919
19418W        W84645   0.445  30.224   4.350
19419W        W84646   2.820  35.999   4.402
19420W        W84647  30.424  25.459  12.048
19421W        W84648  25.051   0.075   0.825
19422W        W84649  41.613  35.179   2.128
19423W        W84650   3.660  23.289   0.088
19424W        W84651  38.355  24.175  10.672
19425W        W84652   9.299  44.965  10.692
19426W        W84653   1.717  20.470   0.855
19427W        W84654  26.471  12.227   1.441
19428W        W84655  11.844  30.616  12.875
19429W        W84656  17.884  17.444   4.623
19430W        W84657  19.511  31.903  14.056
19431W        W84658  37.561  27.704   0.909
19432W        W84659  21.142  23.732   0.986
19433W        W84660  18.225  20.184   0.258
19434W        W84661  19.510  30.167  14.408
19435W        W84662   3.275   6.976  11.209
19436W        W84663  13.900  27.962   5.309
19437W        W84664  26.032  28.730   0.775
19438W        W84665   5.919  11.893   0.248
19439W        W84666  12.673  29.221  10.286
19440W        W84667  43.281  14.306   1.413
19441W        W84668  31.090   4.682  14.470
19442W        W84669  15.369   2.453   0.263
19443W        W84670  10.230  19.897  12.532
19444W        W84671   8.146  39.453   4.078
19445W        W84672  19.654   6.880   4.322
19446W        W84673  26.968  10.799  11.587
19447W        W84674  24.594  20.749  13.942
19448W        W84675   6.165   3.178   4.584
19449W        W84676  33.603  19.265  11.957
19450W        W84677   5.653  10.322   4.601
19451W        W84678  34.602  10.758   0.696
19452W        W84679   0.874  37.710  10.674
19453W        W84680  27.985   0.883   0.399
19454W        W84681  33.450  33.146   2.261
19455W        W84682  15.786  39.405   1.866
19456W        W84683  29.677  22.112   2.910
19457W        W84684  26.482  35.641  12.518
19458W        W84685  38.086   2.194   1.980
19459W        W84686  36.373  31.961  11.903
19460W        W84687   0.232  30.487   0.342
19461W        W84688   2.549  31.401  10.266
19462W        W84689  33.858  29.170  11.417
19463W        W84690  18.557   6.792   2.719
19464W        W84691  38.237  41.542  13.970
19465W        W84692   4.692  24.189  10.991
19466W        W84693   1.818  20.239  11.564
19467W        W84694   1.323   5.180   4.019
19468W        W84695  19.540  22.190   3.725
19469W        W84696  28.724  29.574   2.383
19470W        W84697  36.859   3.788  13.619
19471W        W84698  14.819  13.877   1.900
19472W        W84699   0.914  42.336  10.645
19473W        W84700   3.415  28.938  11.980
19474W        W84701  21.697  26.586  14.548
19475W        W84702  12.719   1.447   2.272
19476W        W84703  11.107  15.794   0.878
19477W        W84704   2.077  29.308   4.881
19478W        W84705  32.872   4.373   1.334
19479W        W84706  21.219  35.860   0.279
19480W        W84707  36.789   4.946   1.751
19481W        W84708   6.104  37.588  12.801
19482W        W84709  37.468  19.857   3.233
19483W        W84710  25.457   2.427   3.566
19484W        W84711  30.771  15.857  14.474
19485W        W84712  44.318  40.737   0.948
19486W        W84713  12.506  16.941   4.638
19487W        W84714  34.960  43.811   2.116
19488W        W84715  32.579   9.072  14.509
19489W        W84716  15.912  38.873  11.457
19490W        W84717  24.085  24.507   4.024
19491W        W84718  43.961  35.561  11.136
19492W        W84719  40.302   9.447   3.391
19493W        W84720   5.414  10.312  14.746
19494W        W84721  26.619  36.150   0.920
19495W        W84722  25.939  38.904  13.557
19496W        W84723  36.461  41.326  10.970
19497W        W84724   7.398  37.081  14.987
19498W        W84725  24.956   9.178   4.221
19499W        W84726  14.997  22.745   3.983
19500W        W84727  36.950  16.864   4.692
19501W        W84728  25.120   5.162  12.604
19502W        W84729  19.097  44.728   4.017
19503W        W84730  39.124  13.400  12.064
19504W        W84731  30.882   5.203   4.656
19505W        W84732   1.185  43.269   3.002
19506W        W84733  28.567  23.037   4.303
19507W        W84734   6.216   0.526   4.314
19508W        W84735   6.707  33.316  11.135
19509W        W84736  16.843  11.696   2.335
19510W        W84737  37.809  17.590  12.469
19511W        W84738  43.367  20.152   3.196
19512W        W84739   4.946   5.337  13.682
19513W        W84740  14.472  14.932   0.897
19514W        W84741  10.196  18.672  14.928
19515W        W84742  25.430   1.950   3.334
19516W        W84743  15.173  35.896   3.163
19517W        W84744  38.811  36.318  11.614
19518W        W84745  18.783   9.872   0.796
19519W        W84746  37.915  21.494  13.429
19520W        W84747  20.523  15.473   1.251
19521W        W84748  16.763  44.511   0.601
19522W        W84749  36.119  43.558  12.126
19523W        W84750  43.541  27.959   3.244
19524W        W84751  38.797  43.157  14.742
19525W        W84752   5.065   5.703   0.261
19526W        W84753  30.046  13.669  12.612
19527W        W84754  23.390  29.220   2.138
19528W        W84755  37.512  22.440   1.423
19529W        W84756  11.057  17.416   3.928
19530W        W84757  37.644  21.507  12.974
19531W        W84758  26.814   5.723   2.700
19532W        W84759  31.852  25.563   2.246
19533W        W84760   9.249   2.461  11.680
19534W        W84761   6.721  12.519   0.476
19535W        W84762  13.857  43.312   3.326
19536W        W84763  16.127  32.922   1.338
19537W        W84764  30.945  31.922  11.534
19538W        W84765  31.353  30.646  14.104
19539W        W84766  12.683  27.431  13.300
19540W        W84767  21.283  42.515   1.164
19541W        W84768  23.770   7.590  11.122
19542W        W84769  23.458  33.650  14.389
19543W        W84770  15.740  15.180   4.440
19544W        W84771  39.448  13.393  10.546
19545W        W84772  28.589  36.234  12.124
19546W        W84773  25.802  11.108   1.086
19547W        W84774  21.196   4.457  11.863
19548W        W84775  30.939  35.108  13.368
19549W        W84776  33.153  25.618  10.441
19550W        W84777  36.615  20.555   1.698
19551W        W84778  30.532  10.292  12.095
19552W        W84779  35.211  12.465  14.025
19553W        W84780  22.072  29.196   3.671
19554W        W84781   3.033  19.640  14.913
19555W        W84782  22.765  19.689  12.974
19556W        W84783  18.858  21.568  13.828
19557W        W84784  25.618  35.715  12.909
19558W        W84785   0.050  37.446   2.280
19559W        W84786  19.474  31.372  11.324
19560W        W84787  31.573  20.245  11.615
19561W        W84788  27.993  39.033   4.060
19562W        W84789   1.433  15.856   1.419
19563W        W84790   4.779  12.632   1.457
19564W        W84791  23.370  37.440   2.656
19565W        W84792  14.212  13.677   2.810
19566W        W84793  40.338  13.842   1.398
19567W        W84794  37.515  11.256   3.686
19568W        W84795  26.655  17.545  14.407
19569W        W84796  18.230  17.096   2.874
19570W        W84797  40.999  30.738  14.471
19571W        W84798  17.561  43.007   9.816
19572W        W84799  33.988  22.963  13.057
19573W        W84800  27.113  28.404   0.101
19574W        W84801  11.445  12.644   0.923
19575W        W84802  18.869  12.791  11.651
19576W        W84803   6.358  38.448  11.585
19577W        W84804   1.651  24.951   4.582
19578W        W84805   4.958  13.578   0.463
19579W        W84806   8.644  23.691   2.122
19580W        W84807  21.559  43.525   0.663
19581W        W84808  14.519  28.905   5.109
19582W        W84809  12.460  23.311   5.046
19583W        W84810   8.924  21.457  11.485
19584W        W84811  12.554  12.361   4.596
19585W        W84812  12.375  38.453   0.976
19586W        W84813  38.085  38.434  11.539
19587W        W84814  22.237  19.766   0.301
19588W        W84815  39.422   7.306   2.291
19589W        W84816   1.707  41.896   1.944
19590W        W84817  10.258  12.547  10.277
19591W        W84818   4.225  16.868   4.529
19592W        W84819  29.449  11.792  12.945
19593W        W84820   3.359   2.620   2.622
19594W        W84821  30.762   1.758   1.846
19595W        W84822  29.627  43.706   2.738
19596W        W84823  34.211  26.649  13.467
19597W        W84824  29.307  12.766   5.264
19598W        W84825  44.005  11.385  10.606
19599W        W84826  30.616   3.391  13.427
19600W        W84827  29.228  34.441  12.071
19601W        W84828  17.610  31.644  11.527
19602W        W84829  26.122  35.898   2.632
19603W        W84830  24.776  23.537   4.733
19604W        W84831  16.643  30.543  13.084
19605W        W84832  11.643   7.685   2.650
19606W        W84833  43.241  29.226   4.099
19607W        W84834  40.810  36.180   1.111
19608W        W84835  16.696  24.453  14.012
19609W        W84836  33.866  43.306   3.525
19610W        W84837   9.320  26.317  10.778
19611W        W84838  17.295  16.301   2.379
19612W        W84839   8.449   1.877  12.826
19613W        W84840  32.052  14.041  12.947
19614W        W84841   7.607  35.139  11.125
19615W        W84842  26.745  20.866   4.988
19616W        W84843  18.044  11.634   4.089
19617W        W84844   0.021  38.034  11.180
19618W        W84845  17.698  21.792   2.352
19619W        W84846   5.419   5.354   1.400
19620W        W84847  27.627  38.744  10.197
19621W        W84848   2.300  18.870  10.796
19622W        W84849   1.418   0.131  10.961
19623W        W84850  26.985  29.473   5.253
19624W        W84851   6.438  31.169  13.065
19625W        W84852  28.482  33.740   9.956
19626W        W84853  42.343   4.830  14.414
19627W        W84854  20.184  24.136   4.141
19628W        W84855  34.123   8.324  13.195
19629W        W84856  20.980  23.647  12.992
19630W        W84857   4.366  16.647  10.746
19631W        W84858  35.094  31.631   3.823
19632W        W84859   2.822   2.968  11.125
19633W        W84860  37.079   0.463   3.642
19634W        W84861  44.719  37.861   2.323
19635W        W84862  44.689  10.727  10.856
19636W        W84863  27.755  28.618   3.603
19637W        W84864   2.319  40.024   1.183
19638W        W84865  39.878  26.117  12.181
19639W        W84866  44.133   9.211  10.214
19640W        W84867   3.095  18.112   1.335
19641W        W84868  44.964  35.630   3.754
19642W        W84869  40.885  15.777  14.336
19643W        W84870   9.930  22.282   4.679
19644W        W84871  22.728  33.345  12.533
19645W        W84872  25.781  16.123  14.648
19646W        W84873  41.901  42.592   0.428
19647W        W84874   4.869   9.677  11.613
19648W        W84875  31.547  16.586   0.344
19649W        W84876  14.906   7.885   4.276
19650W        W84877  29.561   7.690  13.877
19651W        W84878  27.841  11.240  11.511
19652W        W84879  18.657  27.713   1.766
19653W        W84880  26.792  21.343   4.620
19654W        W84881  17.294   8.109   1.379
19655W        W84882  40.034  44.865   1.646
19656W        W84883  31.372  15.792   4.953
19657W        W84884  13.659  31.032   0.897
19658W        W84885  40.773  15.555  13.410
19659W        W84886   7.129   6.920   4.138
19660W        W84887  14.200  43.610   1.804
19661W        W84888  37.435  18.842  12.425
19662W        W84889  28.649  30.716   0.389
19663W        W84890   4.804  34.870  13.121
19664W        W84891  34.028  23.661  13.997
19665W        W84892  30.181   6.341  12.608
19666W        W84893   2.753   6.235  14.971
19667W        W84894  31.068  38.334   3.898
19668W        W84895  15.906   8.265   2.468
19669W        W84896  30.299  40.957  10.780
19670W        W84897  37.844  13.018  10.396
19671W        W84898  37.884  39.076   2.218
19672W        W84899  43.976  33.855  14.827
19673W        W84900   0.268  40.979   1.069
19674W        W84901  19.042  40.559  11.100
19675W        W84902  40.331  26.773   4.654
19676W        W84903  11.639  24.126  12.437
19677W        W84904  31.432   5.415   1.798
19678W        W84905  19.636  30.370  13.941
19679W        W84906  18.581   2.847   3.607
19680W        W84907  34.326  12.350   2.176
19681W        W84908  35.442   6.951  14.592
19682W        W84909  38.454  24.757   1.216
19683W        W84910  40.294  30.980   1.016
19684W        W84911  30.962  15.830  13.981
19685W        W84912  26.020   8.102   3.492
19686W        W84913   3.144  41.993  12.874
19687W        W84914  13.351  23.060  14.002
19688W        W84915  24.557  25.558  12.776
19689W        W84916  23.788  35.962   2.293
19690W        W84917  18.765  44.160  12.469
19691W        W84918   0.798  31.509  10.798
19692W        W84919  10.636  40.995   1.519
19693W        W84920  24.042   2.426   1.683
19694W        W84921  12.821  22.671   0.717
19695W        W84922  28.652  44.232  10.234
19696W        W84923  22.536  22.545  10.309
19697W        W84924   0.454   1.459   9.902
19698W        W84925  10.848  40.535   0.374
19699W        W84926  13.509  32.964  13.240
19700W        W84927  11.271  43.386   3.964
19701W        W84928  16.183  19.707   2.669
19702W        W84929  22.030  24.704   3.682
19703W        W84930  14.683  24.551  11.560
19704W        W84931  34.301  28.946  13.358
19705W        W84932   7.991   7.641  13.944
19706W        W84933  37.577  35.027   2.408
19707W        W84934  44.774   6.630   1.888
19708W        W84935  30.319  12.500   2.651
19709W        W84936  40.099   0.988   0.233
19710W        W84937  39.220  19.189  13.564
19711W        W84938   7.245  35.820  12.057
19712W        W84939   3.706   0.167   3.684
19713W        W84940  22.206  12.741   0.589
19714W        W84941   1.677   5.370   0.889
19715W        W84942  30.545  19.827   0.823
19716W        W84943  35.812   6.877   0.224
19717W        W84944  27.515  30.411   1.618
19718W        W84945  35.176  39.538  12.528
19719W        W84946  19.636   3.676   4.852
19720W        W84947  15.993   4.951   0.858
19721W        W84948  37.788   7.420   3.611
19722W        W84949   1.889   4.355  14.529
19723W        W84950  37.763  44.755  14.838
19724W        W84951  31.403  32.819  13.423
19725W        W84952   8.761   0.317  14.544
19726W        W84953   0.364   1.457   1.714
19727W        W84954  34.842   6.719   4.619
19728W        W84955  18.165  26.117   2.495
19729W        W84956   4.109  12.810  12.883
19730W        W84957  22.179   7.440  14.929
19731W        W84958  11.090  29.453   9.831
19732W        W84959  31.696  35.476  12.703
19733W        W84960   1.674   2.388  14.319
19734W        W84961  14.604  41.963   1.016
19735W        W84962   1.101  22.483   4.334
19736W        W84963  26.647  32.042   2.602
19737W        W84964  39.570  39.345  14.560
19738W        W84965  12.049   8.265  11.170
19739W        W84966  35.508   1.940  14.426
19740W        W84967  27.978  25.280  12.411
19741W        W84968  33.094  42.039   2.802
19742W        W84969  19.704  40.470  12.302
19743W        W84970  16.648  35.962   0.222
19744W        W84971   3.755  42.338   4.434
19745W        W84972   2.374   3.699  13.313
19746W        W84973   0.918  35.940  12.055
19747W        W84974  37.144  16.679  11.035
19748W        W84975  35.905  36.878  11.373
19749W        W84976   9.675   8.462  13.063
19750W        W84977   3.359  26.885   3.589
19751W        W84978   3.289   1.384   3.093
19752W        W84979  34.452  13.530   1.768
19753W        W84980  30.526  11.690  12.017
19754W        W84981  28.933  17.216   4.123
19755W        W84982  39.312   8.924   1.758
19756W        W84983  34.797  22.345  11.441
19757W        W84984  28.932  31.118   1.684
19758W        W84985   6.337   9.371  11.531
19759W        W84986  22.661  14.611  14.861
19760W        W84987  25.935   6.779   4.543
19761W        W84988   8.236   0.230   2.087
19762W        W84989   5.900   7.415  12.067
19763W        W84990  26.324  37.032   0.832
19764W        W84991  32.996  37.814   3.201
19765W        W84992  18.657   1.209  14.411
19766W        W84993  43.002  10.837   3.677
19767W        W84994  35.597  42.448   3.732
19768W        W84995  14.159  25.552  11.848
19769W        W84996  29.713   6.818  13.349
19770W        W84997  43.677   1.840   1.064
19771W        W84998  37.853  19.065   4.564
19772W        W84999  44.319  23.618   0.712
19773W        W85000  25.992  16.629   0.985
19774W        W85001  43.699  12.634  13.302
19775W        W85002  13.282  38.580   3.247
19776W        W85003  25.985  16.680   4.554
19777W        W85004  24.829  40.332  10.640
19778W        W85005  27.165  41.288  12.300
19779W        W85006  43.804  15.668   0.749
19780W        W85007  42.817   2.802  14.887
19781W        W85008  26.226  37.357  12.369
19782W        W85009  39.082  24.021  10.916
19783W        W85010  12.071  36.820  11.617
19784W        W85011   7.113  27.045   4.125
19785W        W85012   0.620   2.283   2.656
19786W        W85013  31.924  17.669   4.162
19787W        W85014  16.429   9.106  13.392
19788W        W85015  20.233   5.469   1.421
19789W        W85016  39.371  24.022   3.686
19790W        W85017  28.981  18.571  14.453
19791W        W85018  34.494   6.206   0.035
19792W        W85019  38.424  17.745   4.064
19793W        W85020  33.746  34.884  13.063
19794W        W85021  27.932  21.598   1.827
19795W        W85022  33.406  21.003   3.679
19796W        W85023  37.039  20.017  12.191
19797W        W85024  26.350  10.385  12.154
19798W        W85025  21.238  27.926  11.139
19799W        W85026  38.250  32.984   3.595
19800W        W85027  35.360  28.943   1.203
19801W        W85028  42.056  12.947   4.135
19802W        W85029   2.706  25.495   4.081
19803W        W85030  14.757  19.086  10.790
19804W        W85031  15.543  17.625  12.641
19805W        W85032  32.343  13.660   3.031
19806W        W85033  37.291  11.271  14.832
19807W        W85034   7.612  29.860  11.226
19808W        W85035  32.598  23.197   0.332
19809W        W85036  12.804   5.572  12.823
19810W        W85037  15.051  26.439  14.419
19811W        W85038   4.569  36.868  11.366
19812W        W85039  16.510  44.590  13.857
19813W        W85040  37.158  26.388  12.783
19814W        W85041  11.574  37.463   2.623
19815W        W85042  21.055  29.614   1.013
19816W        W85043  41.498  15.089  11.895
19817W        W85044  18.505   7.778  12.899
19818W        W85045  44.423   2.418   4.480
19819W        W85046  38.583  35.475  11.534
19820W        W85047  18.759   8.921   3.598
19821W        W85048  26.227   5.843  13.465
19822W        W85049  20.217  32.641   0.409
19823W        W85050  16.037  22.365   1.392
19824W        W85051  43.403   6.651   2.170
19825W        W85052  14.276   4.959   2.791
19826W        W85053   8.560   0.466   1.760
19827W        W85054  23.434   1.768  12.472
19828W        W85055  42.945  24.090   2.302
19829W        W85056  14.637  20.239  10.732
19830W        W85057  31.850  10.518  10.347
19831W        W85058  26.610   5.504   0.064
19832W        W85059  25.885   0.116  10.232
19833W        W85060  26.129  34.079   4.676
19834W        W85061   8.865  29.274  13.843
19835W        W85062   2.690  31.622   0.462
19836W        W85063   9.713  37.543   2.818
19837W        W85064   1.984  23.591   4.159
19838W        W85065   0.558  41.867   2.384
19839W        W85066  36.404  44.302   2.781
19840W        W85067  16.693  32.115   4.611
19841W        W85068  13.206  21.204   1.913
19842W        W85069  44.807  30.435   2.322
19843W        W85070  23.227   7.293   3.254
19844W        W85071  36.572  14.721  13.827
19845W        W85072  32.361  28.819   3.286
19846W        W85073  31.663  33.685   2.133
19847W        W85074  28.154  15.853  11.174
19848W        W85075  39.690  31.150  13.447
19849W        W85076  20.749  35.597   4.028
19850W        W85077  19.230   9.232  14.621
19851W        W85078  12.099  30.516  13.789
19852W        W85079  18.278  41.241  14.548
19853W        W85080  44.605   6.294   3.133
19854W        W85081  34.801  42.673   0.882
19855W        W85082   1.866  20.897  12.160
19856W        W85083   3.955  11.381  12.047
19857W        W85084  34.810   4.728  13.859
19858W        W85085  16.837  20.174  12.067
19859W        W85086  28.171  12.673   0.592
19860W        W85087  24.609   1.697   2.810
19861W        W85088  38.530  42.106  11.175
19862W        W85089  36.406   9.601   3.338
19863W        W85090  42.681  42.362   1.030
19864W        W85091  15.626   9.803   1.689
19865W        W85092  26.611  29.509  12.503
19866W        W85093  10.137   4.753  13.010
19867W        W85094   8.088  28.861   4.116
19868W        W85095  27.133   2.171   0.047
19869W        W85096  28.991  20.784   2.755
19870W        W85097  42.311  13.088  11.135
19871W        W85098  35.521  10.165  14.043
19872W        W85099  11.445   5.489   3.822
19873W        W85100  27.433  18.687  14.419
19874W        W85101   6.073  10.159  10.241
19875W        W85102   9.383  23.328  13.001
19876W        W85103  37.272  18.127   1.869
19877W        W85104  24.471   4.914   0.938
19878W        W85105  24.605  34.019   0.995
19879W        W85106   8.898   2.933   2.258
19880W        W85107  35.188  43.347   1.793
19881W        W85108  27.939   4.044   1.276
19882W        W85109  33.044  39.908  11.098
19883W        W85110  41.351  20.189   2.287
19884W        W85111  10.790  31.675   0.959
19885W        W85112  10.650  11.649  12.151
19886W        W85113  34.478  25.687   3.763
19887W        W85114  37.321  10.457  13.535
19888W        W85115  43.316  26.067   4.749
19889W        W85116  14.918  44.700   1.290
19890W        W85117  36.529  43.212  10.624
19891W        W85118  16.366  31.169  12.373
19892W        W85119  24.094  43.303   0.830
19893W        W85120  41.671  15.156   1.686
19894W        W85121  23.784  43.790  12.031
19895W        W85122  44.157  28.123   5.470
19896W        W85123  36.044  40.477   2.803
19897W        W85124  22.673   9.895  12.470
19898W        W85125  26.379  40.313  12.080
19899W        W85126  21.485  22.805   3.427
19900W        W85127  25.872   9.755   1.966
19901W        W85128  33.644  10.738  13.775
19902W        W85129   5.639  41.987   0.727
19903W        W85130  39.619  10.703   4.418
19904W        W85131  14.892  23.085   3.615
19905W        W85132   4.023  14.108   0.311
19906W        W85133  42.085  15.077   3.822
19907W        W85134   7.738   2.955   3.242
19908W        W85135  10.599  27.444   0.803
19909W        W85136  15.087   6.669   1.630
19910W        W85137  21.024  22.993   4.631
19911W        W85138  23.314  24.081  13.888
19912W        W85139  44.737  34.117   3.794
19913W        W85140  44.348   8.934  12.468
19914W        W85141  35.392  29.284  14.893
19915W        W85142  23.052  28.175  12.065
19916W        W85143  30.543   7.911  14.397
19917W        W85144  20.111  24.764   2.216
19918W        W85145  13.248  24.145   1.503
19919W        W85146   8.244   4.526  14.081
19920W        W85147  35.800   8.151  12.594
19921W        W85148  11.214  20.508  14.276
19922W        W85149  29.931  24.171   2.167
19923W        W85150   9.950  21.065   2.448
19924W        W85151  36.407  39.710   2.289
19925W        W85152  21.540   4.951   2.091
19926W        W85153   6.356  25.222  13.527
19927W        W85154  18.103  35.825   3.301
19928W        W85155   0.211  41.972   4.234
19929W        W85156  35.607   0.738   3.309
19930W        W85157  20.553  44.144   2.316
19931W        W85158  44.965  31.949   2.213
19932W        W85159  25.637   3.797  13.602
19933W        W85160   5.791  37.505  13.548
19934W        W85161  18.748  11.946  10.730
19935W        W85162  16.784  14.425   4.167
19936W        W85163  31.395  15.051  13.568
19937W        W85164   1.505  42.147   4.989
19938W        W85165   7.922  44.830  10.782
19939W        W85166  32.017  43.919   3.584
19940W        W85167  41.289  27.670   4.770
19941W        W85168  35.528  37.975   2.495
19942W        W85169   0.963  23.533   3.244
19943W        W85170  29.702  25.025  14.700
19944W        W85171  36.394  12.786  14.893
19945W        W85172  41.155   4.684   1.457
19946W        W85173  36.420   5.789  11.541
19947W        W85174  20.721  26.116   1.242
19948W        W85175  40.729  37.111  11.461
19949W        W85176   5.214  15.994  10.859
19950W        W85177  10.753  37.926   0.225
19951W        W85178  41.688  20.692  12.508
19952W        W85179  34.810  42.470   4.236
19953W        W85180   3.425  12.561  13.981
19954W        W85181   1.296  33.649  13.351
19955W        W85182   0.800   9.295   2.724
19956W        W85183   0.974  14.791  13.549
19957W        W85184  42.536  36.752   1.207
19958W        W85185  35.452  29.681  11.668
19959W        W85186   2.720  42.036  12.553
19960W        W85187  15.024  43.988  14.519
19961W        W85188  40.767  39.038   0.815
19962W        W85189  44.104  37.395  13.030
19963W        W85190   4.173  13.864  11.173
19964W        W85191   9.372  43.676   3.647
19965W        W85192  43.321  27.032   3.583
19966W        W85193   8.665  44.393   1.820
19967W        W85194  25.366  42.009   2.138
19968W        W85195  27.542  20.826  13.003
19969W        W85196  38.563   2.552   0.847
19970W        W85197   7.615  23.592  13.946
19971W        W85198   2.327  38.674  11.120
19972W        W85199  37.831   7.418  13.863
19973W        W85200  16.057  44.276  13.615
19974W        W85201  17.752  25.969  13.186
19975W        W85202  17.035  37.504   3.834
19976W        W85203  14.254  17.856  14.040
19977W        W85204  13.692   2.275   0.965
19978W        W85205   0.082  12.016  14.843
19979W        W85206  28.190  43.895  10.609
19980W        W85207   4.672  38.312   0.284
19981W        W85208  17.882  35.026  11.025
19982W        W85209  18.776  28.657   1.327
19983W        W85210  28.299   9.538   2.721
19984W        W85211  25.896  16.599  10.604
19985W        W85212   2.191  40.530  11.016
19986W        W85213  33.921   5.211  12.969
19987W        W85214  37.941  30.078   2.876
19988W        W85215  44.262  35.698   2.218
19989W        W85216   8.722   7.193   2.347
19990W        W85217  40.577   4.187  11.147
19991W        W85218  12.215  12.280   0.468
19992W        W85219  20.513  22.658  12.092
19993W        W85220  35.531  19.616   2.958
19994W        W85221   9.603  24.147  11.077
19995W        W85222  24.127   1.703   0.550
19996W        W85223   1.194  13.127  14.034
19997W        W85224  11.420  27.599   0.728
19998W        W85225  11.430   1.220   1.297
19999W        W85226  38.003  23.465   2.940
20000W        W85227  12.940  19.779   1.126
20001W        W85228  12.874  42.877  12.115
20002W        W85229  36.683  38.695  12.354
20003W        W85230  42.915  13.746  11.560
20004W        W85231   4.321  18.407  12.290
20005W        W85232   6.057  39.749   1.389
20006W        W85233   9.672  32.159   1.407
20007W        W85234   0.653  32.087   4.066
20008W        W85235  12.524  40.026   4.179
20009W        W85236   6.688   6.874   0.049
20010W        W85237  23.935  19.118  14.394
20011W        W85238   2.909  10.239  13.948
20012W        W85239   0.504  11.891   2.347
20013W        W85240   5.771  42.611   9.970
20014W        W85241   4.974  26.393   3.524
20015W        W85242  19.362  10.537   3.175
20016W        W85243  34.278   5.809   1.816
20017W        W85244  41.511   7.202   1.331
20018W        W85245  24.756  39.944  12.981
20019W        W85246  40.829  30.971  11.849
20020W        W85247  36.058  19.804   4.193
20021W        W85248  22.785   4.931  13.430
20022W        W85249  27.012  28.866  14.828
20023W        W85250   5.140  15.844   4.307
20024W        W85251   1.438  44.433  14.725
20025W        W85252  31.814  43.518   3.826
20026W        W85253   9.337  15.544  13.037
20027W        W85254  10.337  22.636   3.580
20028W        W85255  19.353  40.810   3.672
20029W        W85256  26.027  27.702  11.624
20030W        W85257  11.744  35.658  11.098
20031W        W85258  22.596  22.743  12.482
20032W        W85259  25.466  12.064   3.978
20033W        W85260  21.832  24.604  14.377
20034W        W85261  21.389  29.479  10.041
20035W        W85262  41.162  39.746  12.070
20036W        W85263  21.039  40.008   4.094
20037W        W85264   1.898   7.908  14.238
20038W        W85265  16.462  20.759   1.911
20039W        W85266  33.204  40.954  13.317
20040W        W85267  23.717  42.789   4.623
20041W        W85268  25.722   0.376   2.312
20042W        W85269  43.519  39.868   2.693
20043W        W85270  35.138  35.953  13.742
20044W        W85271  18.429  25.658   2.371
20045W        W85272  37.811  35.551   0.051
20046W        W85273  31.852  12.164   4.057
20047W        W85274   4.666   7.732   3.148
20048W        W85275  35.462  38.829  14.856
20049W        W85276  17.865  41.290   4.543
20050W        W85277   8.288  32.972  10.549
20051W        W85278  25.695   3.455  11.787
20052W        W85279  18.230  32.083   0.874
20053W        W85280   5.475   2.406  13.057
20054W        W85281  18.286   5.413   3.172
20055W        W85282  14.023  30.384  11.477
20056W        W85283  27.811   6.904  14.294
20057W        W85284  37.560   2.284   4.147
20058W        W85285  36.630  43.075  13.379
20059W        W85286   8.953  27.196  12.609
20060W        W85287  11.815  24.688   0.070
20061W        W85288  10.520  29.918  13.261
20062W        W85289  32.075   1.307   2.717
20063W        W85290  36.537  26.870   4.567
20064W        W85291  44.383   1.999   1.417
20065W        W85292   3.933  15.351  13.787
20066W        W85293  12.875  10.661  12.623
20067W        W85294  12.116  31.544  11.977
20068W        W85295  36.815  31.349   2.371
20069W        W85296   4.692  32.685  12.322
20070W        W85297  30.972  43.294  13.006
20071W        W85298  14.575  11.860   3.757
20072W        W85299  21.035  14.687  12.828
20073W        W85300  18.669  19.779  10.389
20074W        W85301  39.714  42.974  14.914
20075W        W85302  10.007  23.349  11.100
20076W        W85303  44.719  23.650   1.047
20077W        W85304  42.032  20.624   1.164
20078W        W85305   6.629  43.317  13.949
20079W        W85306  22.115  12.302   4.668
20080W        W85307   5.144  21.803  11.622
20081W        W85308  29.645  15.904   2.235
20082W        W85309   9.225  36.274   0.529
20083W        W85310  25.841   7.210   3.675
20084W        W85311  33.804  40.559   0.299
20085W        W85312  27.996  16.552   4.573
20086W        W85313  43.008  27.099  10.500
20087W        W85314   5.778   3.810  13.406
20088W        W85315  32.001  29.882  13.070
20089W        W85316  42.932   6.376   3.772
20090W        W85317  28.930  22.454  12.441
20091W        W85318  35.568   8.903   4.782
20092W        W85319   3.845   6.430   2.357
20093W        W85320  31.919   7.216   0.221
20094W        W85321  15.858  19.256   0.002
20095W        W85322  24.588  40.765   3.260
20096W        W85323  25.698  23.524  10.926
20097W        W85324  10.874  15.588   3.668
20098W        W85325  28.093  42.485   4.365
20099W        W85326  31.989  12.417  14.423
20100W        W85327  22.739   9.343   0.373
20101W        W85328  24.272  33.115   4.617
20102W        W85329  31.623  37.306  14.902
20103W        W85330  23.030  34.077  13.532
20104W        W85331  38.975  22.593  13.920
20105W        W85332  21.866  25.758   3.558
20106W        W85333  14.699  41.884  12.559
20107W        W85334  24.831  40.299  12.630
20108W        W85335  31.593  19.010   2.252
20109W        W85336   0.913  32.938   3.729
20110W        W85337  42.040   9.305   2.699
20111W        W85338   9.291  23.608  12.564
20112W        W85339   1.985  34.401  10.623
20113W        W85340  18.165  13.607   0.985
20114W        W85341  41.524  18.549  12.394
20115W        W85342   3.401  20.689   0.381
20116W        W85343  13.064  21.918   1.829
20117W        W85344  27.657   2.894   3.962
20118W        W85345  41.838  38.115  11.497
20119W        W85346  37.812  18.153   4.550
20120W        W85347   2.995  32.611  14.948
20121W        W85348  31.861   2.802  14.224
20122W        W85349  25.188  15.293   3.770
20123W        W85350  15.756  14.233  12.659
20124W        W85351  21.897  24.013  14.978
20125W        W85352  15.865  37.088  14.909
20126W        W85353  25.462  26.344  13.752
20127W        W85354   1.022  33.568  14.675
20128W        W85355  30.534  38.319  13.014
20129W        W85356  42.020  42.831  12.833
20130W        W85357  34.752  26.192   4.918
20131W        W85358   2.948   6.408   0.420
20132W        W85359  21.667   1.470   3.217
20133W        W85360  16.833   6.180   4.106
20134W        W85361  41.325  21.094  11.148
20135W        W85362   5.591  26.120  12.236
20136W        W85363  24.257  40.927  11.574
20137W        W85364  29.506  15.484   0.999
20138W        W85365   7.703  29.279  14.562
20139W        W85366  16.388  32.192   4.145
20140W        W85367  22.864  13.355   3.326
20141W        W85368   2.076  32.704   2.323
20142W        W85369  22.631  11.702  11.560
20143W        W85370  37.545  33.787   1.899
20144W        W85371   0.473  24.521   4.185
20145W        W85372  35.652  15.022  12.114
20146W        W85373  29.095  18.008  14.997
20147W        W85374  22.776   3.807  12.529
20148W        W85375  42.304  16.897  11.210
20149W        W85376  44.942  29.647  12.591
20150W        W85377  15.171  17.516   0.520
20151W        W85378  19.714   2.530  10.740
20152W        W85379  16.619  28.045  13.121
20153W        W85380   4.840  36.278   3.237
20154W        W85381  23.588  23.592  10.632
20155W        W85382  41.288  11.770  12.527
20156W        W85383  16.061  11.275  12.672
20157W        W85384  38.171  32.052  14.358
20158W        W85385   6.916  34.856   1.363
20159W        W85386  24.176  18.725   4.142
20160W        W85387  44.363   9.115   0.143
20161W        W85388  31.367  26.109  13.625
20162W        W85389  25.978  29.013   2.343
20163W        W85390  31.598  28.876   2.237
20164W        W85391  39.857  41.607  14.855
20165W        W85392   0.659   8.803  11.141
20166W        W85393   3.369  34.097   3.379
20167W        W85394  32.494   1.871   4.311
20168W        W85395  28.240  25.198  10.713
20169W        W85396  37.189  31.708   0.276
20170W        W85397  25.187  10.654  14.673
20171W        W85398   0.587  11.134   1.424
20172W        W85399   0.300  23.464  14.576
20173W        W85400  19.973  32.840  11.161
20174W        W85401   1.514  38.911   2.939
20175W        W85402  32.843  37.801   2.289
20176W        W85403  42.555  24.309  13.070
20177W        W85404  36.926  31.178   3.366
20178W        W85405  21.101  16.126  13.790
20179W        W85406  36.392  20.613   4.085
20180W        W85407  19.079  35.759   2.228
20181W        W85408   5.730  38.453   0.527
20182W        W85409  16.585  15.293   3.476
20183W        W85410  37.349  19.828  11.463
20184W        W85411  15.363  20.939  14.446
20185W        W85412  23.276  12.380  14.918
20186W        W85413  34.802   2.481   0.480
20187W        W85414  37.069  33.929   0.512
20188W        W85415  26.695  12.270   2.720
20189W        W85416   0.450  22.172  12.898
20190W        W85417  16.991  18.820  12.549
20191W        W85418  24.755  10.157  11.739
20192W        W85419  19.831  11.823   4.175
20193W        W85420  23.055  42.087  12.284
20194W        W85421  33.696  34.593  14.479
20195W        W85422   2.026  35.894   3.214
20196W        W85423   0.617  34.585   4.146
20197W        W85424  23.705  23.911   1.865
20198W        W85425   6.611  23.291  11.647
20199W        W85426  42.906  33.348   4.572
20200W        W85427   0.235   6.919   4.469
20201W        W85428  40.936  22.052   3.221
20202W        W85429  29.604  28.154  12.860
20203W        W85430   5.748  26.548  13.109
20204W        W85431  11.133   4.737  12.062
20205W        W85432  14.665   0.888   3.248
20206W        W85433   6.351  22.882   0.362
20207W        W85434  41.620   6.289   3.805
20208W        W85435   2.214  16.700  14.049
20209W        W85436  26.326  32.852  10.724
20210W        W85437  10.306  19.128   2.853
20211W        W85438  29.992  38.322  12.574
20212W        W85439  13.908  36.653   2.568
20213W        W85440  44.387  12.014  14.309
20214W        W85441  20.696  14.322  11.751
20215W        W85442  37.902  30.999   1.484
20216W        W85443   8.700   0.460  12.972
20217W        W85444  15.848   9.420   4.705
20218W        W85445   8.016  19.023  13.869
20219W        W85446  24.809  13.307   2.681
20220W        W85447  21.940   6.650   0.374
20221W        W85448   4.469  27.793  14.941
20222W        W85449  10.774  17.141  13.821
20223W        W85450  41.309  39.989  13.592
20224W        W85451  21.551   5.934   3.587
20225W        W85452  36.453   6.769  10.708
20226W        W85453  15.266  38.302  10.863
20227W        W85454  17.232  23.630  14.050
20228W        W85455  39.453   3.262   3.471
20229W        W85456   3.695  16.795   1.383
20230W        W85457  22.266  30.915   3.368
20231W        W85458  38.517  36.545  13.026
20232W        W85459   9.550  33.401   3.455
20233W        W85460  18.763  16.918   4.944
20234W        W85461  24.835  41.157   2.356
20235W        W85462  14.779  12.204  13.815
20236W        W85463  34.996  41.494   4.289
20237W        W85464  15.689   9.170  11.190
20238W        W85465   3.268  39.134   0.914
20239W        W85466  35.011  17.284  12.501
20240W        W85467  22.660   2.787   1.637
20241W        W85468  40.266  33.333   4.600
20242W        W85469  27.516  19.248  13.055
20243W        W85470  33.823   0.515  13.882
20244W        W85471  18.683  26.145  12.389
20245W        W85472  27.038   3.096   0.533
20246W        W85473  10.662  24.394  12.114
20247W        W85474   2.900   5.906  11.961
20248W        W85475   2.864  37.791  13.308
20249W        W85476  32.466  44.441   3.780
20250W        W85477  21.772  18.608   3.280
20251W        W85478   8.157  44.484  11.171
20252W        W85479  42.691  36.174   3.766
20253W        W85480  17.010  38.480   4.760
20254W        W85481  43.989  14.663   3.865
20255W        W85482  32.513  41.296   1.751
20256W        W85483  19.071  37.434   3.774
20257W        W85484   9.375  18.686   2.845
20258W        W85485   8.886  30.380  10.270
20259W        W85486  37.493  31.875  14.909
20260W        W85487  21.114  41.427   0.386
20261W        W85488  22.742  21.654   2.492
20262W        W85489  43.923  25.727  14.064
20263W        W85490   9.825  18.104   0.365
20264W        W85491  13.019   5.395   1.614
20265W        W85492  35.862  39.515   1.160
20266W        W85493  29.612  21.665  11.614
20267W        W85494  28.475  17.616  11.665
20268W        W85495  32.032  42.723  13.487
20269W        W85496  43.880  16.351  13.946
20270W        W85497  12.148  40.899   4.621
20271W        W85498  36.334  35.370   2.853
20272W        W85499  20.112  26.728  14.055
20273W        W85500  42.320   1.430  14.842
20274W        W85501  39.817  20.495   0.798
20275W        W85502   4.937  23.495  13.497
20276W        W85503   5.805  23.774   3.192
20277W        W85504  26.910  17.777   2.131
20278W        W85505  27.097  40.075   3.692
20279W        W85506   6.776  22.851   4.229
20280W        W85507  23.682   3.141   0.293
20281W        W85508  33.978  13.862   1.767
20282W        W85509  26.962  12.196   1.260
20283W        W85510  15.379   1.874  14.376
20284W        W85511   1.464   5.180  13.063
20285W        W85512  35.615   7.417   1.500
20286W        W85513  34.507  26.396  11.563
20287W        W85514  26.465  17.010   4.522
20288W        W85515  11.913   7.792  11.414
20289W        W85516   3.883  40.881   1.414
20290W        W85517  41.830   8.962   3.982
20291W        W85518  20.593  20.595   1.350
20292W        W85519  14.411   8.785   2.352
20293W        W85520  21.157  38.340  11.830
20294W        W85521   9.644  33.560   0.317
20295W        W85522  24.068  44.908  13.121
20296W        W85523   0.512  32.839  11.996
20297W        W85524  32.021  14.004  11.578
20298W        W85525  39.423   9.643  13.989
20299W        W85526  41.492  31.596   2.267
20300W        W85527  24.938  33.842  11.060
20301W        W85528   7.603  36.625  13.146
20302W        W85529  24.364  26.161  12.235
20303W        W85530  23.985   9.625   2.840
20304W        W85531  42.285  10.850   1.825
20305W        W85532  22.953   5.483  14.271
20306W        W85533  35.135  35.910   1.231
20307W        W85534  22.134  34.558   4.882
20308W        W85535  26.736  18.200   0.515
20309W        W85536   0.802  22.371   9.600
20310W        W85537  20.024  16.818   3.634
20311W        W85538  37.859  18.471  10.790
20312W        W85539  18.903   1.268   2.545
20313W        W85540   3.238   5.650  13.514
20314W        W85541  32.722  32.893   3.298
20315W        W85542  24.935  37.846   0.401
20316W        W85543  30.564  43.746   1.830
20317W        W85544   2.221   7.214  14.746
20318W        W85545  28.695   5.401  10.739
20319W        W85546  17.407  13.337   3.230
20320W        W85547  28.886  36.849  10.669
20321W        W85548  26.581  37.638   2.811
20322W        W85549  26.496   2.973   1.043
20323W        W85550  32.809  41.790   0.003
20324W        W85551  40.445  39.816   4.175
20325W        W85552   5.859  31.908  14.343
20326W        W85553  31.861  17.044  14.300
20327W        W85554  32.501  31.673  14.534
20328W        W85555  29.116  25.267   3.617
20329W        W85556   6.426  11.300  12.931
20330W        W85557  43.847   1.923  14.928
20331W        W85558  42.946  14.319   3.848
20332W        W85559  31.896   1.334  13.288
20333W        W85560  36.997  39.995   2.866
20334W        W85561  40.167  41.314   0.361
20335W        W85562   3.731   3.252   2.246
20336W        W85563  35.011   7.658   4.100
20337W        W85564   9.386  13.170   0.406
20338W        W85565  39.818  25.555  11.456
20339W        W85566  34.502  18.059  12.236
20340W        W85567  22.717  40.401   3.154
20341W        W85568  10.602  37.094  14.470
20342W        W85569   8.662  25.723   3.857
20343W        W85570   4.238   0.457  11.719
20344W        W85571  13.381  44.951   3.567
20345W        W85572  21.492   5.777   0.481
20346W        W85573  14.697  41.519   1.269
20347W        W85574  29.812   4.193  12.480
20348W        W85575  16.614  28.952   2.747
20349W        W85576  13.185  38.926   0.668
20350W        W85577  35.805  14.089   2.946
20351W        W85578   9.029  29.694  14.482
20352W        W85579  31.625  13.981   3.687
20353W        W85580   4.255  44.727   1.316
20354W        W85581  43.785  43.690   4.589
20355W        W85582  39.709  39.805   2.222
20356W        W85583  42.415   3.488  10.619
20357W        W85584  28.210  44.889  13.560
20358W        W85585  32.571  41.897   2.876
20359W        W85586  35.189  10.677  14.891
20360W        W85587  23.799   3.163  14.634
20361W        W85588   0.263  21.593  13.584
20362W        W85589  38.856   7.264   0.006
20363W        W85590  12.012   2.105   4.533
20364W        W85591  23.176  33.441   2.453
20365W        W85592   1.871  31.486   3.666
20366W        W85593   5.409  18.319  14.609
20367W        W85594  11.457  36.991  13.946
20368W        W85595  15.207  14.260   0.375
20369W        W85596  11.893  25.617  14.251
20370W        W85597  20.849  14.221   0.311
20371W        W85598   2.869  42.718   1.361
20372W        W85599   0.026  30.015   4.102
20373W        W85600   4.534  25.522   2.580
20374W        W85601  35.787   3.201  11.057
20375W        W85602  27.103  34.906  10.806
20376W        W85603   2.294  19.679   2.327
20377W        W85604  37.228  35.420   2.703
20378W        W85605  25.960  10.169   1.183
20379W        W85606   9.369  35.876  10.674
20380W        W85607  33.001   5.190  13.418
20381W        W85608  33.168  13.144  14.343
20382W        W85609  41.764   4.947   3.766
20383W        W85610  16.195  37.963  13.435
20384W        W85611  23.555  32.659   4.040
20385W        W85612   5.727  10.678  14.253
20386W        W85613   3.793   9.057   3.218
20387W        W85614  25.234   6.263  10.770
20388W        W85615  12.318  10.831  13.353
20389W        W85616   5.146  34.457  10.544
20390W        W85617  35.646   2.894   0.383
20391W        W85618  44.896  32.427  10.822
20392W        W85619   3.818  29.139   0.719
20393W        W85620   0.232  17.805   2.740
20394W        W85621  17.353   9.576   2.246
20395W        W85622  39.393  35.944  10.776
20396W        W85623  15.575  40.187  12.544
20397W        W85624   2.231  21.162   2.769
20398W        W85625  23.984  10.861   1.553
20399W        W85626  23.123   3.953  14.488
20400W        W85627   0.748  42.883   2.245
20401W        W85628  21.140  18.076   1.502
20402W        W85629   0.591  34.626  10.696
20403W        W85630   9.715   8.280   1.152
20404W        W85631   1.044  41.536   3.308
20405W        W85632   3.324  39.355  13.062
20406W        W85633  38.236  29.735  14.117
20407W        W85634  10.168   7.291   2.307
20408W        W85635   3.893  15.499  10.975
20409W        W85636   8.152   3.488  14.606
20410W        W85637  22.461  40.390  13.093
20411W        W85638  27.157   9.738  11.263
20412W        W85639  26.535  21.522   2.337
20413W        W85640   6.973   1.198  13.872
20414W        W85641   5.765  17.847  14.330
20415W        W85642  35.390  27.048  14.337
20416W        W85643  39.495  32.420  14.794
20417W        W85644  12.309   9.728   4.175
20418W        W85645  13.042  43.738  14.466
20419W        W85646  12.774  14.041  12.321
20420W        W85647  41.192  29.364  12.477
20421W        W85648   7.185   1.583  13.012
20422W        W85649  37.989  30.690   0.232
20423W        W85650  34.612  39.928   0.037
20424W        W85651   1.019  25.168   1.054
20425W        W85652  18.803  14.261   3.980
20426W        W85653   3.434  15.243  11.086
20427W        W85654  13.090  31.157   0.682
20428W        W85655  31.225  14.475  10.226
20429W        W85656  44.786   4.969  10.629
20430W        W85657  10.324  37.803   3.463
20431W        W85658  44.939  13.800  14.380
20432W        W85659  23.925  32.599   2.735
20433W        W85660  24.836   6.854  10.628
20434W        W85661  31.856  35.014   3.615
20435W        W85662  42.791  43.812  10.725
20436W        W85663  22.580  28.474   1.720
20437W        W85664   5.716   0.874  14.233
20438W        W85665  43.067  43.517  11.208
20439W        W85666  30.449  27.420  13.010
20440W        W85667   9.860  37.657   1.734
20441W        W85668  44.471  37.421  11.552
20442W        W85669   4.239  40.653  14.895
20443W        W85670  11.113   9.258   3.205
20444W        W85671  18.684  22.134  13.362
20445W        W85672  15.157  14.396   4.140
20446W        W85673  11.516  29.236  13.731
20447W        W85674  34.980   4.368   0.698
20448W        W85675  16.715  17.367   1.679
20449W        W85676  10.268  27.100   1.423
20450W        W85677  40.345  41.908   3.732
20451W        W85678  21.740   1.312   1.206
20452W        W85679   4.935   8.174   3.245
20453W        W85680  24.899  33.879   1.968
20454W        W85681  23.448   7.720  11.564
20455W        W85682  40.115  14.726  12.768
20456W        W85683  19.222   2.327  10.751
20457W        W85684  37.068   9.290   2.755
20458W        W85685  33.029  29.404  14.340
20459W        W85686  29.473   5.494   0.820
20460W        W85687  39.788  13.119   2.255
20461W        W85688  23.161  22.569   4.110
20462W        W85689  42.343   0.447   2.904
20463W        W85690  40.138   0.884  12.123
20464W        W85691  44.326   1.527   5.039
20465W        W85692  19.839  12.759   4.631
20466W        W85693   7.009  16.766   3.249
20467W        W85694  12.106   0.420   1.762
20468W        W85695   0.008   2.802   3.220
20469W        W85696  44.796  17.567   3.406
20470W        W85697  30.911  39.894  13.889
20471W        W85698  20.201   7.084   1.775
20472W        W85699  44.331  14.211   4.525
20473W        W85700   2.926  17.494   1.519
20474W        W85701  35.910  34.122   4.656
20475W        W85702  14.497  36.506  10.802
20476W        W85703  37.616  10.510   3.179
20477W        W85704  40.483  20.892  14.896
20478W        W85705  38.984  11.723  11.985
20479W        W85706  28.719  23.568   0.924
20480W        W85707  40.259  30.530  11.154
20481W        W85708   5.765  37.370   1.546
20482W        W85709  17.809  28.728  12.502
20483W        W85710  21.061  11.133  11.132
20484W        W85711  17.815  42.981   1.806
20485W        W85712   7.183  35.139   4.666
20486W        W85713  24.499  16.800  12.149
20487W        W85714  40.724  29.289   5.046
20488W        W85715  15.286  35.471  13.111
20489W        W85716   1.201  17.610  12.394
20490W        W85717  29.205  23.367   2.834
20491W        W85718   1.284   6.309  14.919
20492W        W85719  18.579  29.019  10.796
20493W        W85720  43.969  10.300  13.531
20494W        W85721   8.803  19.922   5.222
20495W        W85722  35.887  17.535  13.026
20496W        W85723  24.354  38.017   1.685
20497W        W85724   4.275   0.065   1.755
20498W        W85725  19.633  19.126   0.433
20499W        W85726  29.429  16.253   3.175
20500W        W85727  12.791  26.491  13.035
20501W        W85728  10.528  21.460   0.649
20502W        W85729   6.852  12.805   2.831
20503W        W85730  10.947  28.576  11.959
20504W        W85731  28.591  14.368   3.771
20505W        W85732   9.489  41.233   4.607
20506W        W85733  22.490   9.248  11.200
20507W        W85734   0.955  30.158   1.843
20508W        W85735  12.389  36.090  14.010
20509W        W85736  15.498  20.071   5.116
20510W        W85737   9.154  34.947   1.976
20511W        W85738   3.876  11.061   4.528
20512W        W85739   3.393  25.060  13.065
20513W        W85740  35.913   1.255  12.559
20514W        W85741  25.353  20.538   2.313
20515W        W85742  12.548  31.613  11.652
20516W        W85743   8.840  34.473   0.791
20517W        W85744   5.276  37.317  12.364
20518W        W85745  29.608  24.692   1.034
20519W        W85746  41.866  13.810  12.922
20520W        W85747  34.026   6.312   3.796
20521W        W85748  12.100  40.902   3.575
20522W        W85749  33.109  11.357   3.183
20523W        W85750  17.239  34.313   4.705
20524W        W85751   7.774  35.742  13.735
20525W        W85752  26.910  41.297   2.974
20526W        W85753  20.567  15.139   0.828
20527W        W85754  25.130   7.145  11.453
20528W        W85755  13.609  19.202  12.090
20529W        W85756  10.256  39.965  13.461
20530W        W85757  26.160  10.741   1.837
20531W        W85758  24.788   4.252  13.836
20532W        W85759  15.814  22.549  13.764
20533W        W85760  19.048  17.219   1.806
20534W        W85761  34.455  27.908  10.839
20535W        W85762  37.971  37.252   1.128
20536W        W85763   2.496  41.873  10.406
20537W        W85764  33.960  12.912  11.998
20538W        W85765  21.649  13.010   3.663
20539W        W85766  41.980  18.554   0.291
20540W        W85767   0.691  42.354   2.233
20541W        W85768  25.476  41.832  12.450
20542W        W85769   0.535   8.681   4.603
20543W        W85770  42.860  28.149  14.907
20544W        W85771  32.627   0.238   2.791
20545W        W85772  36.782  42.469  11.234
20546W        W85773  36.020  30.213   1.958
20547W        W85774  28.095  26.645   0.822
20548W        W85775  21.333  10.383  10.117
20549W        W85776   3.823   4.545   4.129
20550W        W85777  20.080  10.239   2.558
20551W        W85778  25.224   2.391   0.550
20552W        W85779  21.141  29.995   0.398
20553W        W85780  28.438  39.339  14.534
20554W        W85781  25.898  29.525  14.663
20555W        W85782  37.038   9.717   1.235
20556W        W85783  13.842  24.177   3.182
20557W        W85784  44.869  40.264   0.398
20558W        W85785  17.777  27.688  14.433
20559W        W85786  35.470  33.396  12.991
20560W        W85787   7.714  40.460   4.249
20561W        W85788  22.800  20.001   1.293
20562W        W85789  15.339  42.243  11.133
20563W        W85790  20.194  39.409  10.731
20564W        W85791  23.872   4.310  12.855
20565W        W85792   6.324   2.503  14.862
20566W        W85793  30.334  36.316   0.307
20567W        W85794   3.895  35.669  13.892
20568W        W85795  37.098  12.593   0.126
20569W        W85796  37.368   0.749  10.881
20570W        W85797   4.787  42.620  10.332
20571W        W85798   5.364  31.890  14.794
20572W        W85799  19.209   3.900   1.291
20573W        W85800  34.870  20.070  14.106
20574W        W85801  12.344   7.697  13.825
20575W        W85802  34.365  35.663  11.585
20576W        W85803  30.921   0.951   2.396
20577W        W85804   4.102  44.830   4.611
20578W        W85805  28.106   1.351   0.208
20579W        W85806   4.025  24.421   4.209
20580W        W85807  30.856  37.869  12.950
20581W        W85808  27.501  29.475  12.444
20582W        W85809  38.488  42.789   4.137
20583W        W85810  36.001  13.380  13.804
20584W        W85811  14.632  32.018   1.360
20585W        W85812  11.305   6.119  11.143
20586W        W85813   9.349   0.954   0.638
20587W        W85814  22.158  41.041   0.986
20588W        W85815  35.114  30.666   2.743
20589W        W85816  15.682  36.374  12.928
20590W        W85817  33.534  31.016  14.746
20591W        W85818   8.686   3.443  14.529
20592W        W85819  27.982  35.046   4.182
20593W        W85820  41.891  27.119  10.683
20594W        W85821  13.869  30.532  14.562
20595W        W85822   8.653  10.255   4.397
20596W        W85823  18.289   7.359  14.080
20597W        W85824   6.692  31.108  10.663
20598W        W85825  28.817  28.036  11.748
20599W        W85826  22.248  31.732   3.656
20600W        W85827  35.154  27.624   2.440
20601W        W85828  43.588  19.157  14.556
20602W        W85829   0.785  12.235  12.870
20603W        W85830   6.423  17.649  11.830
20604W        W85831  35.618  30.096   1.643
20605W        W85832  30.988   7.127  13.300
20606W        W85833  40.917  28.656   2.743
20607W        W85834  13.155   6.795  13.285
20608W        W85835  32.249  20.206   1.674
20609W        W85836  10.245  23.599   3.727
20610W        W85837  21.326  33.914  12.854
20611W        W85838   7.769  26.551  11.564
20612W        W85839  39.597  21.973   3.239
20613W        W85840  11.400  41.133   2.956
20614W        W85841  11.558   1.482   3.212
20615W        W85842   4.803   9.940   3.795
20616W        W85843  36.421  16.198  10.071
20617W        W85844  44.327  43.741  10.986
20618W        W85845  31.330  33.452  14.413
20619W        W85846  28.173  15.635  14.607
20620W        W85847  11.785   9.222   2.421
20621W        W85848  42.854  32.873   3.673
20622W        W85849  14.680  29.595   1.350
20623W        W85850   7.643  29.950  12.262
20624W        W85851  27.805  36.946   4.497
20625W        W85852  10.191  16.016  13.700
20626W        W85853  13.283  30.678   0.761
20627W        W85854  19.270   6.928   1.503
20628W        W85855  28.684  16.251  13.744
20629W        W85856  19.258  22.855  14.033
20630W        W85857  42.049  41.845  12.897
20631W        W85858  13.100   7.885  12.991
20632W        W85859  28.276  29.008   0.380
20633W        W85860  26.041  38.973   2.339
20634W        W85861   0.782  17.342   4.336
20635W        W85862  16.731   7.893   3.341
20636W        W85863  42.664   8.237   2.109
20637W        W85864  16.805  20.223  14.363
20638W        W85865  13.682   8.232   2.423
20639W        W85866  20.875  15.842   4.067
20640W        W85867  42.913  21.870  11.080
20641W        W85868  10.508  10.696   0.761
20642W        W85869  19.127  25.884   1.840
20643W        W85870  40.262  36.663  13.387
20644W        W85871  39.808  38.999   1.607
20645W        W85872  36.906  44.224  13.788
20646W        W85873  24.306   6.763   1.918
20647W        W85874  23.875  21.724  12.760
20648W        W85875  36.628  11.874  14.285
20649W        W85876   4.329   5.322  10.945
20650W        W85877  19.287  19.747   0.401
20651W        W85878   4.440  20.725  11.066
20652W        W85879  17.625  30.964   4.032
20653W        W85880  31.414   7.180  11.632
20654W        W85881   7.341   8.786   0.373
20655W        W85882   4.957  34.293   0.250
20656W        W85883  18.630   1.014   0.336
20657W        W85884  18.737   6.890   2.187
20658W        W85885   2.032  22.809   3.473
20659W        W85886  43.508  23.112  12.192
20660W        W85887  40.478   8.754  11.581
20661W        W85888  29.496  39.840  11.463
20662W        W85889  15.836   6.648   1.383
20663W        W85890  19.526   2.238   3.001
20664W        W85891  35.393  22.281  10.641
20665W        W85892  21.673  34.070   1.719
20666W        W85893  34.566  11.789   2.685
20667W        W85894  19.773  22.405  13.372
20668W        W85895  17.006  26.005   3.376
20669W        W85896  26.658   2.416   1.186
20670W        W85897  40.547  26.299   0.821
20671W        W85898  21.707  27.050   2.252
20672W        W85899   3.064   7.613  14.374
20673W        W85900  40.741  38.056   2.379
20674W        W85901  38.997  16.561  12.103
20675W        W85902  11.787  10.305   3.870
20676W        W85903  10.303  20.652  10.540
20677W        W85904  34.370  15.281  10.021
20678W        W85905  44.011   4.299   2.629
20679W        W85906   2.120  26.670  12.033
20680W        W85907  36.615  39.382   0.476
20681W        W85908  33.381  18.550   2.426
20682W        W85909   2.805  41.246  11.891
20683W        W85910  44.985  26.258   1.731
20684W        W85911  37.109  39.877  12.908
20685W        W85912  39.486  40.987  11.680
20686W        W85913  30.029  38.200  13.089
20687W        W85914  19.054  23.595   3.722
20688W        W85915  24.180  33.049   2.853
20689W        W85916  29.499  12.509  12.199
20690W        W85917  23.156   4.654   1.326
20691W        W85918  12.978  10.241   3.796
20692W        W85919  32.656  23.573  14.939
20693W        W85920   3.376  18.141  10.569
20694W        W85921   8.350  15.656  11.476
20695W        W85922  26.805  41.809  14.786
20696W        W85923  15.243  18.522  13.940
20697W        W85924  12.194  32.466   3.363
20698W        W85925  33.507  36.324   5.610
20699W        W85926  37.540  28.136  10.970
20700W        W85927  28.345  39.261  11.819
20701W        W85928  28.014  22.487   1.769
20702W        W85929  34.858   3.592  12.049
20703W        W85930  29.055  42.569   0.411
20704W        W85931  14.096  27.131   0.406
20705W        W85932  27.518  35.987  14.528
20706W        W85933  44.812  40.174   2.930
20707W        W85934   0.132  31.159   0.952
20708W        W85935  35.502  40.312   3.070
20709W        W85936   9.654  10.603   3.317
20710W        W85937  30.481   9.177   5.021
20711W        W85938  13.215  39.841  11.853
20712W        W85939   4.654  35.526   1.531
20713W        W85940   2.934  14.870  13.574
20714W        W85941  23.479  42.795   2.583
20715W        W85942  39.172  25.190   0.728
20716W        W85943   6.494  38.067  10.699
20717W        W85944  25.656  44.214   3.802
20718W        W85945  22.336   6.791   4.789
20719W        W85946  34.361  27.513  10.519
20720W        W85947  27.192   4.307   2.200
20721W        W85948   7.104  38.888   3.767
20722W        W85949  18.127  28.248   0.943
20723W        W85950  17.246  16.791   4.151
20724W        W85951   8.328  29.252   2.679
20725W        W85952  27.896  16.191   2.032
20726W        W85953  32.664   6.332   1.519
20727W        W85954  44.996  17.776  13.350
20728W        W85955   7.049  19.042  13.650
20729W        W85956  19.325  22.586  14.981
20730W        W85957   7.292   1.552   2.229
20731W        W85958  40.225  39.884   2.175
20732W        W85959   5.456   0.878  11.059
20733W        W85960   8.952  32.437   3.677
20734W        W85961  12.843  15.593  11.046
20735W        W85962   1.325  10.623   3.966
20736W        W85963  14.585  33.203  10.625
20737W        W85964  15.820  37.114  11.190
20738W        W85965  44.980  16.511  13.966
20739W        W85966  22.634   4.151   4.088
20740W        W85967  30.514   7.243   0.849
20741W        W85968  42.848   2.713  11.313
20742W        W85969  33.109  31.905   2.202
20743W        W85970  10.752   4.209   1.216
20744W        W85971  40.509  25.599   1.440
20745W        W85972  36.303  25.925   2.766
20746W        W85973   9.590   4.996  12.867
20747W        W85974  26.091  43.862  11.677
20748W        W85975  13.081  33.359  14.225
20749W        W85976  24.121   8.723   0.432
20750W        W85977  30.052   8.033  13.540
20751W        W85978  28.244   4.414   2.221
20752W        W85979  20.242  15.282   1.631
20753W        W85980  10.235  39.878   4.548
20754W        W85981  21.244  32.064  13.956
20755W        W85982  17.787   5.597   3.845
20756W        W85983  12.791  28.097  11.625
20757W        W85984  44.583  36.929  12.189
20758W        W85985  43.285  32.148   0.415
20759W        W85986   0.552  38.994   2.726
20760W        W85987  14.232  16.531   0.948
20761W        W85988  15.292  35.451   0.729
20762W        W85989  32.061  18.170  13.783
20763W        W85990  25.641  17.789  12.004
20764W        W85991  30.136   7.048  13.571
20765W        W85992   9.833  16.302  12.083
20766W        W85993  15.675   5.311  14.772
20767W        W85994  21.224  24.723  13.521
20768W        W85995  39.105  23.135   3.313
20769W        W85996  20.032  15.061  14.474
20770W        W85997  29.228   5.811   2.339
20771W        W85998  41.603  11.066  10.467
20772W        W85999  10.611   0.791   0.633
20773W        W86000  10.112  31.496  13.581
20774W        W86001  16.005   5.391   0.195
20775W        W86002  34.880  15.228   4.124
20776W        W86003   7.263   5.816   5.063
20777W        W86004  16.046  18.048   1.352
20778W        W86005  16.627   0.458   4.327
20779W        W86006  32.553  27.619   2.719
20780W        W86007  41.742   2.467   2.138
20781W        W86008   7.652  40.280   0.717
20782W        W86009  32.461   3.492  11.250
20783W        W86010  22.441  20.806   3.593
20784W        W86011  13.845  12.197  11.431
20785W        W86012   4.391  13.074  13.895
20786W        W86013  42.704   6.153  14.010
20787W        W86014  33.601  30.355  14.085
20788W        W86015  25.114   8.236  10.802
20789W        W86016  17.136   9.643  14.415
20790W        W86017  43.071  40.108   1.522
20791W        W86018  16.030  42.370   0.764
20792W        W86019  17.026  11.271   1.710
20793W        W86020   9.474  19.050  13.643
20794W        W86021  28.551   6.311  10.743
20795W        W86022  21.290   4.380   0.251
20796W        W86023  31.692  28.678   1.736
20797W        W86024   2.439   5.485  10.676
20798W        W86025  10.284  38.864   1.493
20799W        W86026   0.288  39.411  12.466
20800W        W86027  32.024   6.280  13.063
20801W        W86028  29.591  35.032   4.058
20802W        W86029  12.113  21.025  12.956
20803W        W86030  11.425   0.251   4.161
20804W        W86031  41.026   6.785   0.664
20805W        W86032  11.478  13.217  11.133
20806W        W86033   7.837  30.123   2.923
20807W        W86034  25.775  38.989  10.241
20808W        W86035   3.493  11.851   0.900
20809W        W86036  14.751  41.457   2.197
20810W        W86037  43.532  17.101   0.319
20811W        W86038  34.059  20.319   3.405
20812W        W86039   4.556  29.021   1.681
20813W        W86040  10.086  33.402   2.188
20814W        W86041  22.299  35.025  12.405
20815W        W86042   6.768  40.465   4.307
20816W        W86043  13.704   0.955   2.198
20817W        W86044  14.814  21.833  12.985
20818W        W86045   4.832  36.479   2.377
20819W        W86046  34.952  16.319   0.734
20820W        W86047   1.890  36.829   1.230
20821W        W86048  27.165  24.727  11.992
20822W        W86049  23.217  25.232  10.688
20823W        W86050  37.541  44.704  12.974
20824W        W86051   7.472   3.242   4.092
20825W        W86052  12.791  14.052  14.215
20826W        W86053  29.916  31.457  13.652
20827W        W86054   4.173   5.186  11.460
20828W        W86055  36.208   9.841  11.174
20829W        W86056  20.204  42.312  13.037
20830W        W86057  10.451  16.387  10.717
20831W        W86058  30.470  22.246   2.252
20832W        W86059  15.772  32.193   5.140
20833W        W86060   2.205  30.666  14.027
20834W        W86061  21.429   2.620   2.692
20835W        W86062  13.605  18.141   1.741
20836W        W86063  44.380  36.367  12.855
20837W        W86064  40.784  25.002   4.549
20838W        W86065  12.827  20.633  14.961
20839W        W86066  16.987  34.784  13.528
20840W        W86067  11.871  17.927  11.991
20841W        W86068  26.811   4.305  14.842
20842W        W86069   8.767  24.581   2.350
20843W        W86070   6.493  32.169  13.066
20844W        W86071   0.290  34.632   2.383
20845W        W86072  39.788  14.076  14.916
20846W        W86073  28.135  21.784   4.378
20847W        W86074  24.402   1.276  12.919
20848W        W86075  43.031  41.609   1.397
20849W        W86076  23.724  16.520  12.466
20850W        W86077  34.884  30.545  13.701
20851W        W86078   5.446  41.492   0.965
20852W        W86079  19.146  35.353  12.354
20853W        W86080   3.362   6.282   4.707
20854W        W86081  10.123  44.892   0.356
20855W        W86082  29.229  43.612  14.215
20856W        W86083  22.277  21.790   2.682
20857W        W86084  16.329  28.567  14.292
20858W        W86085  41.313  20.072  11.214
20859W        W86086  28.870  27.608   3.442
20860W        W86087  37.128  21.648  13.024
20861W        W86088  31.182  20.740   2.133
20862W        W86089  12.841  23.188   1.460
20863W        W86090  11.877  14.619  14.447
20864W        W86091   9.267   6.695   4.823
20865W        W86092  32.567   3.957   3.639
20866W        W86093  22.078  18.008   2.838
20867W        W86094  23.747  12.550  13.906
20868W        W86095  17.271  21.758   4.943
20869W        W86096  33.620  20.021   1.174
20870W        W86097  41.260  36.910   4.631
20871W        W86098  42.433  35.207  12.677
20872W        W86099  29.339  25.205  14.370
20873W        W86100  34.069   2.002   1.494
20874W        W86101  34.223  38.445   3.079
20875W        W86102  24.512  15.122  11.770
20876W        W86103  26.262  35.746  11.178
20877W        W86104   8.230  16.262   4.141
20878W        W86105  23.980  12.908  13.603
20879W        W86106  22.728  40.562  11.127
20880W        W86107  35.032  22.731   4.670
20881W        W86108  23.485  28.872   1.237
20882W        W86109  30.164  11.687   0.215
20883W        W86110  22.449  43.293  12.068
20884W        W86111  25.264  28.083  10.729
20885W        W86112   6.021  14.752   3.237
20886W        W86113  33.683  44.679  14.827
20887W        W86114   6.182  34.112   2.901
20888W        W86115   2.344   0.437  10.441
20889W        W86116  10.368  35.548  11.396
20890W        W86117  34.386  15.804   9.946
20891W        W86118  40.836  28.848   4.710
20892W        W86119  34.940  22.704   1.027
20893W        W86120   7.418  34.987  14.730
20894W        W86121  36.525  32.534  14.432
20895W        W86122   9.333  36.558   2.891
20896W        W86123  27.184  35.555  14.901
20897W        W86124   8.317  21.513   3.580
20898W        W86125  17.276  19.952  14.212
20899W        W86126   3.697   8.131   4.300
20900W        W86127  22.635   4.661   4.072
20901W        W86128  10.819  10.350   1.016
20902W        W86129   0.854  20.421   2.739
20903W        W86130  15.125   6.402   3.731
20904W        W86131   2.501  10.584  13.838
20905W        W86132  11.185   7.575   1.807
20906W        W86133  26.213  10.186  13.025
20907W        W86134  20.256   7.881  11.859
20908W        W86135  43.951  36.094  12.072
20909W        W86136  41.550   7.452   0.884
20910W        W86137  24.739  38.337   1.835
20911W        W86138   9.271  20.204   4.632
20912W        W86139  44.071   5.665  13.565
20913W        W86140  42.577  34.852   2.779
20914W        W86141  13.166  39.772   3.686
20915W        W86142  25.010   0.486   1.146
20916W        W86143  10.716  30.359   3.520
20917W        W86144  44.255  19.257   0.532
20918W        W86145  35.034  13.112  11.899
20919W        W86146  32.972   3.018  14.254
20920W        W86147  33.711   1.777   9.849
20921W        W86148  31.573  35.695  11.169
20922W        W86149  29.441  19.805   2.797
20923W        W86150   7.307  32.508  10.960
20924W        W86151  38.808  40.296   2.919
20925W        W86152  13.229  17.040  11.736
20926W        W86153  24.875  29.533  14.972
20927W        W86154  40.042   1.643  13.837
20928W        W86155  15.830  41.257  14.413
20929W        W86156  34.571  36.594  10.794
20930W        W86157  28.184  41.551   2.952
20931W        W86158  26.568   5.620  12.156
20932W        W86159  39.188   0.774   4.205
20933W        W86160  22.637  13.760   4.656
20934W        W86161  33.223  15.828  14.096
20935W        W86162   7.314   6.938  10.620
20936W        W86163  39.908  44.780  12.477
20937W        W86164  20.774  40.044   4.966
20938W        W86165  41.929  44.302   1.690
20939W        W86166  13.331  37.068   4.619
20940W        W86167   3.343  31.638   3.603
20941W        W86168   6.354  31.274   3.319
20942W        W86169  42.815   9.025   0.289
20943W        W86170  16.812  41.833   2.847
20944W        W86171  26.199  12.139  12.183
20945W        W86172   2.559   4.387  14.882
20946W        W86173   7.222  29.429  13.851
20947W        W86174   3.866  42.539  12.869
20948W        W86175   2.090  13.346  11.565
20949W        W86176  42.056   9.953   0.349
20950W        W86177  18.483  31.849   0.456
20951W        W86178  30.524  38.541  10.339
20952W        W86179  41.087  27.566   0.045
20953W        W86180   6.959   2.942   3.822
20954W        W86181   3.378   0.215   4.089
20955W        W86182   2.785   3.220   4.724
20956W        W86183  42.481  44.506   4.522
20957W        W86184  31.300  39.375  13.105
20958W        W86185  20.943   5.918  13.109
20959W        W86186  39.434  40.497  12.423
20960W        W86187  39.506   2.344   2.523
20961W        W86188  32.857  12.780   0.543
20962W        W86189  24.493  36.181  10.532
20963W        W86190  13.824  20.549   0.276
20964W        W86191  44.471  41.570   0.430
20965W        W86192   7.834  11.695  12.285
20966W        W86193   2.122  37.624   1.416
20967W        W86194   6.801  42.673  14.451
20968W        W86195  42.320  39.317   1.923
20969W        W86196  30.133  22.705  13.754
20970W        W86197  24.698  30.085   3.169
20971W        W86198  27.643  13.751   3.422
20972W        W86199   4.298  37.910   2.822
20973W        W86200  30.568  29.700   2.631
20974W        W86201   9.604   0.208  12.579
20975W        W86202  35.088  30.443   4.568
20976W        W86203   6.317  42.372  13.113
20977W        W86204  17.581  12.644   4.173
20978W        W86205   5.413  32.433  14.892
20979W        W86206  17.125  12.130  12.457
20980W        W86207   9.536  31.130   3.696
20981W        W86208  39.033   1.719  13.424
20982W        W86209  43.355  39.507   1.876
20983W        W86210  20.223   8.710   0.850
20984W        W86211   2.512  37.360  11.742
20985W        W86212   1.527  20.764   3.157
20986W        W86213  37.115  11.618   3.728
20987W        W86214  25.196   1.997  13.452
20988W        W86215   2.104  43.518  12.492
20989W        W86216  37.524   2.393   1.381
20990W        W86217  41.963  29.158   3.101
20991W        W86218  25.557  28.718   2.815
20992W        W86219  38.006  22.955   2.297
20993W        W86220  39.362  20.789  14.054
20994W        W86221  10.906   4.786   4.827
20995W        W86222  22.616   7.182  14.971
20996W        W86223  13.874  15.674  11.131
20997W        W86224  31.462  19.292  10.781
20998W        W86225  20.753  32.025  11.966
20999W        W86226  14.064  35.111  12.816
21000W        W86227   7.027  11.612  14.359
21001W        W86228  39.562  39.288  13.650
21002W        W86229  31.045   0.503  11.553
21003W        W86230  29.428  33.933  12.832
21004W        W86231  23.720  35.320  13.871
21005W        W86232   1.845   0.212  13.092
21006W        W86233  16.652  25.646   3.164
21007W        W86234  35.544   4.910   4.826
21008W        W86235  41.259  38.895  10.980
21009W        W86236   2.966  27.559   0.307
21010W        W86237  18.151  44.473   2.273
21011W        W86238  29.583  11.316   4.107
21012W        W86239   8.918  43.147  12.883
21013W        W86240  21.593  42.784  13.080
21014W        W86241  31.437  11.839  12.563
21015W        W86242   6.200  21.939  10.688
21016W        W86243   8.371   2.647   0.494
21017W        W86244  15.426   0.198  14.869
21018W        W86245  15.995  44.770  13.823
21019W        W86246  38.559  39.413   2.791
21020W        W86247  24.579  25.655   2.681
21021W        W86248  23.771  21.241  12.925
21022W        W86249   5.192  24.115  10.968
21023W        W86250  13.524   9.081   1.376
21024W        W86251  36.579  24.919   2.849
21025W        W86252   3.817   7.824   2.087
21026W        W86253  10.296  30.176   2.819
21027W        W86254  13.805   0.259  10.687
21028W        W86255  43.426   3.381  11.398
21029W        W86256  42.226   1.482   4.705
21030W        W86257  32.450  41.844   0.896
21031W        W86258  12.475  23.701  12.094
21032W        W86259  44.310  41.798  13.859
21033W        W86260   2.072  22.976   0.793
21034W        W86261  25.925  32.380   4.044
21035W        W86262  12.768  26.950   4.836
21036W        W86263  21.274  42.629  12.078
21037W        W86264  42.036  19.205  13.426
21038W        W86265  28.612  27.179   5.063
21039W        W86266   7.786   3.473   3.134
21040W        W86267   2.370  20.452   4.818
21041W        W86268  30.141  33.116   3.896
21042W        W86269  36.889  27.645   1.713
21043W        W86270  40.667  44.582   3.549
21044W        W86271  44.332  35.193   0.753
21045W        W86272  20.609   8.868  14.570
21046W        W86273  12.651  40.279  12.911
21047W        W86274   9.293  34.116  14.051
21048W        W86275  29.181  24.978   1.004
21049W        W86276  21.753  33.976  13.134
21050W        W86277  33.487   1.748  10.724
21051W        W86278  37.806  21.144   4.874
21052W        W86279  28.015  44.797   3.126
21053W        W86280   0.246  26.036   3.214
21054W        W86281   5.976   0.415   0.473
21055W        W86282  12.257  12.209  11.585
21056W        W86283   0.879  40.459   1.289
21057W        W86284  11.312  21.076   4.026
21058W        W86285   6.755  37.290   1.509
21059W        W86286  44.988  21.993  13.043
21060W        W86287   7.382  42.364  11.561
21061W        W86288  23.599  34.404   2.714
21062W        W86289  19.049  19.677  14.950
21063W        W86290  10.096  44.446  12.070
21064W        W86291  25.416  28.108   2.201
21065W        W86292  29.935   1.933  10.662
21066W        W86293  26.342   4.343   0.444
21067W        W86294  33.903   4.762   1.497
21068W        W86295  39.289  40.909  12.157
21069W        W86296   2.567  28.463   0.252
21070W        W86297  21.372  12.830   0.099
21071W        W86298  35.145  39.859   4.196
21072W        W86299  41.783  28.450  13.543
21073W        W86300  10.427  26.449  13.040
21074W        W86301  33.897  12.366   2.452
21075W        W86302  20.107  28.988   2.793
21076W        W86303   0.480  42.934   0.214
21077W        W86304  11.180  41.107   4.392
21078W        W86305   7.192  18.261   3.487
21079W        W86306  11.750  36.832  11.995
21080W        W86307  19.645   3.296  11.157
21081W        W86308  18.084   4.298  11.426
21082W        W86309  23.779  19.810   4.580
21083W        W86310   0.821   8.281   4.341
21084W        W86311  31.620  28.848   0.665
21085W        W86312  12.183  16.097  14.939
21086W        W86313  17.041   3.327   4.141
21087W        W86314  32.787  34.773   3.772
21088W        W86315  10.138  23.802  13.902
21089W        W86316  24.374  43.350  11.418
21090W        W86317  11.203  33.366  12.896
21091W        W86318   8.273   0.800  13.029
21092W        W86319  20.149  26.991   1.816
21093W        W86320  28.482  26.373  13.442
21094W        W86321  14.100  14.194  14.810
21095W        W86322  14.392   5.034  11.609
21096W        W86323  24.500  24.563  10.546
21097W        W86324  19.450  14.814   4.184
21098W        W86325   6.172  35.871  14.302
21099W        W86326  17.375  24.624  11.194
21100W        W86327  14.103  41.795  11.768
21101W        W86328  12.673  31.899   2.886
21102W        W86329  19.401   1.406   0.500
21103W        W86330  25.086  20.513  11.938
21104W        W86331  25.684   4.928   2.767
21105W        W86332   5.011   1.334  12.403
21106W        W86333  44.985  33.713  10.091
21107W        W86334  43.357  28.488   1.450
21108W        W86335   0.211  16.099  10.156
21109W        W86336  38.542  42.022  14.313
21110W        W86337  30.878  35.395   3.169
21111W        W86338   2.847  34.738  11.979
21112W        W86339  17.582  13.294   4.479
21113W        W86340   7.508   5.900   2.358
21114W        W86341  35.079   5.204  14.021
21115W        W86342   1.798  18.924   2.295
21116W        W86343   0.487  19.284   2.146
21117W        W86344   4.754   7.371  13.071
21118W        W86345  31.940   4.435  12.950
21119W        W86346  14.044  11.146   4.103
21120W        W86347   8.697  44.841  14.340
21121W        W86348   2.727   5.507  13.336
21122W        W86349   3.373  14.518   1.069
21123W        W86350   1.990   7.794  12.893
21124W        W86351  23.005  10.122   0.218
21125W        W86352  32.879  42.179  14.094
21126W        W86353  36.571  18.350   2.574
21127W        W86354  19.162   1.402   4.365
21128W        W86355  44.878  42.134   3.508
21129W        W86356   5.465  30.983   4.572
21130W        W86357   0.416  13.768   0.872
21131W        W86358  39.754   8.868  10.248
21132W        W86359  33.943  43.779  12.401
21133W        W86360  34.784   4.726   3.110
21134W        W86361  10.314   8.697   1.751
21135W        W86362  44.367  24.977   0.359
21136W        W86363  11.663  37.561   4.632
21137W        W86364  10.256   7.112  10.283
21138W        W86365  44.992  34.297   0.477
21139W        W86366  36.872   9.323   3.251
21140W        W86367  17.702   1.469   1.392
21141W        W86368  30.660  42.410   1.097
21142W        W86369  18.689   8.284   3.777
21143W        W86370  19.174  19.465   2.589
21144W        W86371  31.767   6.273  10.735
21145W        W86372  40.490   8.881   0.257
21146W        W86373  29.157  28.702  14.367
21147W        W86374  18.811  22.352  12.880
21148W        W86375  19.081  23.865  12.304
21149W        W86376  23.582   3.894  13.027
21150W        W86377  29.513  20.016  14.329
21151W        W86378   8.569  23.546   4.178
21152W        W86379  10.697   9.865  10.736
21153W        W86380  31.707  40.643  11.912
21154W        W86381  34.116   6.498   2.850
21155W        W86382  13.733  22.207   0.865
21156W        W86383  27.099  30.511   1.230
21157W        W86384  27.225  37.588   2.229
21158W        W86385   9.910  21.780   1.244
21159W        W86386  24.664  44.444   0.064
21160W        W86387  35.259   2.153  11.110
21161W        W86388  25.863   9.276  14.483
21162W        W86389   3.007  19.595   1.677
21163W        W86390  14.555  15.402   1.996
21164W        W86391  12.908  11.554   2.240
21165W        W86392  10.198  44.143  13.806
21166W        W86393  33.409   6.032  13.777
21167W        W86394   1.967  12.277   0.331
21168W        W86395  18.014  21.780   3.989
21169W        W86396  42.786  23.037   3.576
21170W        W86397  27.914  36.557  12.411
21171W        W86398  25.175  26.760   3.743
21172W        W86399  37.726  31.035   2.904
21173W        W86400  43.344  26.135   2.673
21174W        W86401  13.809   7.251   4.240
21175W        W86402   2.696  13.137   3.624
21176W        W86403  35.669   8.633  12.432
21177W        W86404  24.212  22.051  14.562
21178W        W86405  38.191   5.225   3.458
21179W        W86406  29.522   7.333  11.685
21180W        W86407  17.593   0.526   1.046
21181W        W86408  18.239  19.663  10.698
21182W        W86409   7.989  31.022  13.549
21183W        W86410  44.455  39.057   1.780
21184W        W86411  33.037  27.663   0.446
21185W        W86412  13.681  36.389   1.067
21186W        W86413  22.450  41.742  10.571
21187W        W86414  16.637  41.668   3.699
21188W        W86415  17.390  43.064   4.072
21189W        W86416  32.123  31.854   0.952
21190W        W86417   8.860   2.688  13.164
21191W        W86418   7.370  25.251   2.908
21192W        W86419  25.200  21.241   1.904
21193W        W86420  27.979  36.341   2.718
21194W        W86421  39.982  12.171   2.159
21195W        W86422  33.045  36.659   2.599
21196W        W86423  23.133  26.232   0.355
21197W        W86424  22.479  19.176  12.104
21198W        W86425   0.013  37.395  10.781
21199W        W86426  19.057  43.433   3.637
21200W        W86427  16.259  30.819  14.003
21201W        W86428   9.602  33.662  12.899
21202W        W86429  39.747   6.870  12.573
21203W        W86430   0.873  38.008  13.081
21204W        W86431  26.221  26.739   0.914
21205W        W86432  43.024  11.550  14.932
21206W        W86433  16.109  20.049  11.577
21207W        W86434   1.640   6.710   1.786
21208W        W86435  31.860  21.586  12.313
21209W        W86436  17.286   2.089   2.182
21210W        W86437  24.227   4.181  12.108
21211W        W86438  34.391   3.010   4.649
21212W        W86439  29.927  40.012   2.146
21213W        W86440  35.442  29.627   2.855
21214W        W86441  32.548   8.358   0.898
21215W        W86442  30.985   7.187  14.589
21216W        W86443  19.589  31.484  10.764
21217W        W86444  34.986  39.205  13.113
21218W        W86445   8.011  42.321   4.653
21219W        W86446  40.508  25.326  11.244
21220W        W86447  44.010  11.293  13.734
21221W        W86448  40.835  20.753  10.535
21222W        W86449  18.792  41.414   3.224
21223W        W86450  25.631  21.418   2.712
21224W        W86451  44.734  33.048  12.453
21225W        W86452  39.468  19.292   1.358
21226W        W86453  29.608  23.256  10.298
21227W        W86454  20.628   1.064   4.024
21228W        W86455   0.247   1.989  10.794
21229W        W86456  12.740  40.961  12.697
21230W        W86457  27.803   3.528   9.871
21231W        W86458  24.514  24.542   2.694
21232W        W86459  17.634   4.843  14.450
21233W        W86460  14.430  10.147  12.804
21234W        W86461  17.577   4.075   0.759
21235W        W86462  19.290  30.581   4.121
21236W        W86463  24.265  34.563  12.969
21237W        W86464  31.988  15.856  14.595
21238W        W86465  44.947  27.035  11.744
21239W        W86466  17.478  10.416  11.589
21240W        W86467  34.008   9.725  13.670
21241W        W86468  16.506  10.640   0.644
21242W        W86469  42.517  16.162  10.811
21243W        W86470   7.744  37.745  10.787
21244W        W86471  21.674  34.197  14.019
21245W        W86472  24.963  28.268   2.047
21246W        W86473  17.576   3.280   1.847
21247W        W86474   6.168  10.688  13.928
21248W        W86475  12.751  15.307   3.871
21249W        W86476  19.029  30.128   2.359
21250W        W86477  34.396  33.012   2.688
21251W        W86478  41.411  31.621   0.900
21252W        W86479  28.759  13.519  10.293
21253W        W86480  26.903  12.612   3.296
21254W        W86481  35.681  40.579   0.302
21255W        W86482   7.226  23.688   4.109
21256W        W86483  32.659   1.580  13.918
21257W        W86484  42.923  17.846   1.341
21258W        W86485  21.694  32.681   0.827
21259W        W86486  35.119  29.317   0.925
21260W        W86487  37.813  18.058  13.527
21261W        W86488  40.606  17.696   1.067
21262W        W86489  40.865  42.755  14.237
21263W        W86490  35.829   6.339  14.114
21264W        W86491  41.819  21.993  12.638
21265W        W86492  21.466  20.716  12.111
21266W        W86493   4.889   8.778  11.648
21267W        W86494  40.017  16.681  13.591
21268W        W86495  28.436  30.442   3.562
21269W        W86496  29.878  24.437   2.884
21270W        W86497  44.439  15.052   3.934
21271W        W86498   8.003   6.394  14.456
21272W        W86499  24.697  11.772  11.580
21273W        W86500   6.845   8.425   4.539
21274W        W86501  20.865  37.018   2.205
21275W        W86502   7.830  23.569  13.324
21276W        W86503  21.485  17.390  12.001
21277W        W86504  17.539  12.303  11.539
21278W        W86505  31.571  21.809   2.597
21279W        W86506  33.546  41.573  14.471
21280W        W86507  22.138  28.219   3.660
21281W        W86508  23.383   0.952   1.741
21282W        W86509  21.917  22.147   1.928
21283W        W86510   8.387  16.569   1.212
21284W        W86511  43.360  34.994   1.692
21285W        W86512  22.505   4.473  13.414
21286W        W86513  38.103   3.285   0.857
21287W        W86514  38.207  22.740  13.275
21288W        W86515  37.066   1.985  11.162
21289W        W86516  27.522  28.755   9.740
21290W        W86517  28.125  40.577  14.792
21291W        W86518  19.682  36.776  14.832
21292W        W86519  31.399  32.400   1.675
21293W        W86520  41.009  15.574   1.273
21294W        W86521  23.802  44.152   1.460
21295W        W86522  43.876  18.061   0.994
21296W        W86523   0.325  10.726  14.556
21297W        W86524  28.027  36.620  10.678
21298W        W86525  39.164  25.624  13.988
21299W        W86526  18.651  11.582   1.413
21300W        W86527  35.325  18.286   1.924
21301W        W86528  37.379  18.293  10.901
21302W        W86529  19.767  24.824  11.164
21303W        W86530  44.789  12.657   0.486
21304W        W86531  32.796  11.191  14.997
21305W        W86532   6.472  27.980  11.584
21306W        W86533  25.508  32.318   4.341
21307W        W86534   5.436  15.616  11.129
21308W        W86535  17.559  34.905   3.230
21309W        W86536  39.873   3.343  11.508
21310W        W86537  21.891  17.271   2.346
21311W        W86538  13.705  18.595   2.418
21312W        W86539  21.291  25.584   0.882
21313W        W86540  43.662   2.661   4.515
21314W        W86541   5.440   1.831  13.465
21315W        W86542  41.398  24.995  13.484
21316W        W86543   6.877  33.567   0.872
21317W        W86544   5.260   9.314  12.365
21318W        W86545  31.395  38.550   2.424
21319W        W86546   3.409  43.996   2.738
21320W        W86547  24.611  10.267  10.389
21321W        W86548  28.401  16.161   4.602
21322W        W86549  44.248  36.341  14.259
21323W        W86550  43.601  21.737  14.540
21324W        W86551  26.659   3.475  10.718
21325W        W86552  42.911  11.807  12.917
21326W        W86553   8.926  16.343  12.169
21327W        W86554  19.580  17.234   3.174
21328W        W86555  26.453  17.079  11.179
21329W        W86556   9.229  19.126   3.606
21330W        W86557  35.397  14.577  12.982
21331W        W86558  23.089   9.210  14.996
21332W        W86559   1.694  41.468   3.551
21333W        W86560   2.834   3.246  12.344
21334W        W86561  10.963  31.094  12.844
21335W        W86562  21.014   9.592  12.003
21336W        W86563  26.900  38.830  13.450
21337W        W86564   4.194  31.230   0.728
21338W        W86565  27.225  19.335  12.035
21339W        W86566   1.922   7.817  13.730
21340W        W86567   8.905   5.845   1.870
21341W        W86568  32.643  19.780  14.306
21342W        W86569   1.722  12.257   0.785
21343W        W86570  32.957  16.306  12.418
21344W        W86571  10.053  13.724  10.961
21345W        W86572  22.457  32.106  10.574
21346W        W86573  11.514  17.986   4.602
21347W        W86574  14.536  28.658   4.059
21348W        W86575  15.298  33.870   1.194
21349W        W86576   5.619  12.427  13.511
21350W        W86577  31.576  42.450  13.412
21351W        W86578  14.890  36.292   0.912
21352W        W86579   3.016  43.912   0.155
21353W        W86580   7.535  35.553   1.147
21354W        W86581  21.788  25.125   2.398
21355W        W86582  36.940   4.520   1.452
21356W        W86583  30.430  28.848   0.832
21357W        W86584  37.558  28.030  13.344
21358W        W86585   2.111  14.536   1.040
21359W        W86586  42.878  28.744   4.699
21360W        W86587  18.716  11.151  13.427
21361W        W86588  14.270  44.479  13.518
21362W        W86589  30.695   0.961  14.928
21363W        W86590  38.967  35.338   2.157
21364W        W86591  34.715  11.426  13.561
21365W        W86592   5.662   3.969   4.516
21366W        W86593  16.253  41.250  11.140
21367W        W86594   0.560   1.140  12.629
21368W        W86595  19.840  33.418   2.401
21369W        W86596  23.682  32.373  13.117
21370W        W86597  18.298  30.369  12.272
21371W        W86598  40.758  20.877  12.313
21372W        W86599  27.015  24.945   4.849
21373W        W86600  21.263  19.755   0.455
21374W        W86601   9.018   0.310   1.984
21375W        W86602  11.276  21.972  11.599
21376W        W86603  13.272  17.637  13.438
21377W        W86604  42.377  25.275  11.591
21378W        W86605  36.067  35.998  14.842
21379W        W86606  24.765   5.365  11.878
21380W        W86607  29.000  16.909  10.112
21381W        W86608  41.378  28.831  10.751
21382W        W86609  23.729  38.644   0.494
21383W        W86610  23.545  20.015   3.309
21384W        W86611  35.435  30.100   0.172
21385W        W86612  26.031  33.939  14.258
21386W        W86613  34.588  30.153  13.918
21387W        W86614  32.493  44.723   4.292
21388W        W86615  43.063  44.913  13.755
21389W        W86616  41.806  39.979  13.415
21390W        W86617  44.639  39.900   3.796
21391W        W86618  12.931   2.624   3.520
21392W        W86619  39.444  13.156   2.973
21393W        W86620  33.346  22.031   0.347
21394W        W86621  30.527  43.748  12.531
21395W        W86622  28.005  27.652  14.521
21396W        W86623  38.245  36.913  14.748
21397W        W86624  36.865   6.415   3.741
21398W        W86625  22.793  33.583  13.448
21399W        W86626  17.303  17.884   3.263
21400W        W86627  28.476  28.918   4.220
21401W        W86628  11.627  22.653   1.215
21402W        W86629  43.666  29.486   2.138
21403W        W86630  37.841  13.099   1.917
21404W        W86631  17.347  17.604   1.408
21405W        W86632  23.962  20.326   2.835
21406W        W86633  14.508  40.303  11.999
21407W        W86634  42.389  13.931   0.507
21408W        W86635   1.520  39.983  11.475
21409W        W86636   1.411  19.541   3.864
21410W        W86637   1.804  32.879  11.142
21411W        W86638  12.864   5.391   0.012
21412W        W86639  12.045  40.435   0.802
21413W        W86640  10.142   9.223  13.464
21414W        W86641  42.486  32.688  14.851
21415W        W86642   5.962  14.756  14.850
21416W        W86643  22.579   9.665  12.917
21417W        W86644  12.473  16.220   3.495
21418W        W86645  24.010  18.242  10.706
21419W        W86646  24.804  21.732   1.310
21420W        W86647  41.439  21.221   0.711
21421W        W86648  41.058  32.618  10.585
21422W        W86649  37.354  18.210   2.910
21423W        W86650   8.446  43.779   2.940
21424W        W86651   9.853  15.817  12.199
21425W        W86652   1.279  13.425   3.501
21426W        W86653  33.487  22.459   3.652
21427W        W86654  19.289  33.899  13.798
21428W        W86655  36.182  44.733  11.272
21429W        W86656  34.967  22.398  11.967
21430W        W86657  15.437   0.247   2.654
21431W        W86658  21.481  34.397  13.028
21432W        W86659  38.424  34.026  14.938
21433W        W86660  36.433  39.490  10.585
21434W        W86661   1.991  19.676   3.603
21435W        W86662  32.872  21.180  11.629
21436W        W86663  23.949   3.315  11.387
21437W        W86664  29.689   7.510   2.903
21438W        W86665  40.047  25.089   3.598
21439W        W86666  12.238  11.628   4.242
21440W        W86667  20.481  32.010  12.680
21441W        W86668  43.464  21.070  10.858
21442W        W86669  43.465  43.356  14.748
21443W        W86670  15.685   8.601  11.210
21444W        W86671   0.275  35.911  13.423
21445W        W86672   4.889   8.275   0.860
21446W        W86673  24.593  13.589   3.857
21447W        W86674  24.519  41.054  14.079
21448W        W86675  18.452   3.937   3.274
21449W        W86676  17.313  28.900  12.510
21450W        W86677  41.584   1.425  10.753
21451W        W86678   7.386  23.272  13.619
21452W        W86679  39.062  39.125  12.168
21453W        W86680  33.195  25.653  14.214
21454W        W86681   5.231   3.473   3.827
21455W        W86682   2.438  24.016  10.221
21456W        W86683  34.858  21.030  11.205
21457W        W86684   0.326   9.854   1.814
21458W        W86685  38.917   5.199  12.456
21459W        W86686  37.939  36.647   2.204
21460W        W86687  19.094  10.239  12.840
21461W        W86688  40.470  37.769  13.497
21462W        W86689  34.058  34.786  13.971
21463W        W86690  30.109  39.364   0.799
21464W        W86691  31.416  38.840  11.623
21465W        W86692  29.852   5.868  10.989
21466W        W86693  38.403   7.662   1.157
21467W        W86694   2.474   8.200  11.872
21468W        W86695  34.039  15.332  12.479
21469W        W86696  26.384  28.071   1.308
21470W        W86697  25.442  12.097   0.221
21471W        W86698   2.285   8.022   3.445
21472W        W86699  35.551  40.468  13.510
21473W        W86700  30.723  21.040  14.906
21474W        W86701   6.564  33.637  10.729
21475W        W86702  33.609  23.919  12.334
21476W        W86703   2.871   4.997  10.991
21477W        W86704  13.860  12.219  14.130
21478W        W86705  26.579   0.429   1.817
21479W        W86706  41.897  12.410  12.530
21480W        W86707  21.100  31.044  14.388
21481W        W86708  27.041   0.992   4.873
21482W        W86709  38.539  10.210  12.531
21483W        W86710  37.126  32.181   2.633
21484W        W86711  10.633  29.624   1.687
21485W        W86712   4.283  22.898  11.424
21486W        W86713  11.353   2.937   4.328
21487W        W86714   1.386  17.350   0.382
21488W        W86715   9.889  40.407  11.009
21489W        W86716  32.234  15.556  13.905
21490W        W86717   5.825  36.585   3.762
21491W        W86718  12.329  39.669   1.183
21492W        W86719   1.286   8.032  11.264
21493W        W86720   6.018  17.851  10.431
21494W        W86721  19.863   0.229  13.030
21495W        W86722   9.925  15.994   3.512
21496W        W86723  38.271  24.243   1.190
21497W        W86724  26.089  19.456  11.658
21498W        W86725  21.606  23.620   4.392
21499W        W86726   0.407  31.199  12.711
21500W        W86727  33.385  19.597  10.140
21501W        W86728  42.610   9.182  13.073
21502W        W86729   6.805   6.513  11.169
21503W        W86730   3.070  10.225   4.976
21504W        W86731  31.871  38.070   1.786
21505W        W86732  31.674  36.597   4.359
21506W        W86733   1.226   7.412  12.378
21507W        W86734   3.704  13.300  14.878
21508W        W86735  31.478  18.354   4.150
21509W        W86736  43.973  31.892  14.872
21510W        W86737   6.264  26.591  10.581
21511W        W86738  29.957   6.927  11.565
21512W        W86739   3.638   1.380   0.832
21513W        W86740  42.232   6.982  11.088
21514W        W86741   6.014  44.667  10.882
21515W        W86742   1.495  24.911   2.447
21516W        W86743  40.930  43.180  13.924
21517W        W86744   1.224  30.439   2.237
21518W        W86745  33.366   6.775  13.467
21519W        W86746   4.031  16.543   4.137
21520W        W86747  44.989   8.585  13.535
21521W        W86748  23.811  17.322  12.092
21522W        W86749  13.225  41.238   3.763
21523W        W86750  16.846  12.507  10.951
21524W        W86751  40.281   1.780   1.788
21525W        W86752   6.652  18.916   3.211
21526W        W86753  23.122  31.858   3.256
21527W        W86754   6.144  41.839   4.515
21528W        W86755  44.881  41.529   2.927
21529W        W86756  40.828  24.034   4.713
21530W        W86757  27.971  30.520   4.772
21531W        W86758  39.327  23.655  11.165
21532W        W86759  24.284  31.474  11.501
21533W        W86760   7.866  21.739  11.020
21534W        W86761   3.835  29.687  14.988
21535W        W86762  31.134  19.678   1.781
21536W        W86763   4.267   3.192   2.208
21537W        W86764  32.865   8.382   2.166
21538W        W86765  16.084   6.749  10.707
21539W        W86766  25.691  13.310  14.964
21540W        W86767  25.557  12.413   3.172
21541W        W86768  14.125   2.331   4.706
21542W        W86769  34.218  11.704  11.638
21543W        W86770   8.317  17.612   4.792
21544W        W86771  17.362  14.028  11.658
21545W        W86772   5.094  24.429  13.419
21546W        W86773  43.715  28.142  13.019
21547W        W86774   4.993  24.946  13.405
21548W        W86775  41.484  26.402   4.643
21549W        W86776  22.185   7.906   0.823
21550W        W86777  15.388   2.773  14.336
21551W        W86778  25.002  43.533  13.544
21552W        W86779  20.772   2.776   0.348
21553W        W86780  20.582  17.815  12.488
21554W        W86781   8.129   6.545  11.079
21555W        W86782  18.754  37.493   4.612
21556W        W86783  28.491   8.109   4.843
21557W        W86784  34.635  14.583   0.494
21558W        W86785  40.987  40.918   2.306
21559W        W86786  27.895  18.205   9.994
21560W        W86787  19.976   9.831   3.281
21561W        W86788  22.966  13.740  14.902
21562W        W86789   9.478  14.247   2.368
21563W        W86790  44.088  41.837  12.034
21564W        W86791  21.631  15.549   2.717
21565W        W86792  26.725  31.129   3.280
21566W        W86793  37.482  31.533   4.580
21567W        W86794   6.882  30.204  14.544
21568W        W86795  26.695  13.394  12.168
21569W        W86796  24.974  36.743   4.836
21570W        W86797   3.638   1.726   2.938
21571W        W86798  21.699  38.653   3.306
21572W        W86799  11.831  38.037  10.637
21573W        W86800  16.543  33.094  10.678
21574W        W86801   1.847  25.904  11.746
21575W        W86802  37.946  17.297  12.857
21576W        W86803  35.295  33.752   4.235
21577W        W86804  27.271   8.328  11.545
21578W        W86805  24.623  15.477  14.926
21579W        W86806  17.758  16.042   4.582
21580W        W86807  40.739  17.212  11.655
21581W        W86808  32.671  25.789  10.595
21582W        W86809  43.923  43.035   0.871
21583W        W86810   1.315  29.539   5.005
21584W        W86811  22.800  33.967  14.900
21585W        W86812  37.004  41.307  12.360
21586W        W86813  27.712  27.209  14.473
21587W        W86814   7.521  43.619   2.245
21588W        W86815   8.231  33.377  13.968
21589W        W86816  28.939  10.208  13.502
21590W        W86817  22.807  29.428   0.943
21591W        W86818  19.592  18.601   0.438
21592W        W86819  14.456  20.963   4.623
21593W        W86820  41.935  21.083   1.956
21594W        W86821  42.407  24.043  10.711
21595W        W86822   0.131  41.819  13.505
21596W        W86823  29.008  34.784  11.615
21597W        W86824   0.819   4.654   2.783
21598W        W86825  38.511  23.268   1.226
21599W        W86826  42.560   9.833  14.322
21600W        W86827   1.336  41.817  14.061
21601W        W86828  18.007  13.522  12.373
21602W        W86829  36.553  19.623   4.154
21603W        W86830  15.100  34.833   4.141
21604W        W86831  24.894  25.461   4.280
21605W        W86832  26.542  12.651  11.623
21606W        W86833   2.971  10.740   4.127
21607W        W86834   3.938  22.490   0.684
21608W        W86835  17.558   9.116   2.410
21609W        W86836  33.666   0.563   2.251
21610W        W86837  34.436  32.661   2.278
21611W        W86838  11.865  34.445   4.383
21612W        W86839  33.827  42.955   1.705
21613W        W86840  31.652  12.414   3.602
21614W        W86841  17.993  37.166   4.475
21615W        W86842  20.401  31.134   3.860
21616W        W86843  40.890  21.864  11.266
21617W        W86844  40.718   9.359  14.049
21618W        W86845  13.586  38.135   2.358
21619W        W86846   5.140   6.199   1.619
21620W        W86847  36.961  24.158   3.749
21621W        W86848  33.984   7.383   1.958
21622W        W86849  34.335  13.745  12.027
21623W        W86850  13.194   3.505  13.889
21624W        W86851  38.115  44.820   3.364
21625W        W86852   9.197  13.292  13.924
21626W        W86853  12.195   8.913  12.363
21627W        W86854  36.524  14.254  14.614
21628W        W86855  40.919   9.711   4.575
21629W        W86856  14.084  15.548   0.889
21630W        W86857  40.332  27.593  11.121
21631W        W86858  30.473  32.430  10.754
21632W        W86859  42.428  37.499   3.321
21633W        W86860  27.776  30.996  14.530
21634W        W86861  18.062  38.010   0.373
21635W        W86862   2.516  23.912   2.287
21636W        W86863  12.209  32.040   5.172
21637W        W86864  21.091   4.925  11.640
21638W        W86865  22.487  19.710  13.892
21639W        W86866  12.636  37.789   1.246
21640W        W86867  33.515  28.738   3.741
21641W        W86868  21.174   9.376  12.445
21642W        W86869  15.048   4.878   2.187
21643W        W86870  24.415  29.116   3.980
21644W        W86871  14.881  21.258   2.322
21645W        W86872   1.717   6.680   2.743
21646W        W86873  30.357  39.813   0.967
21647W        W86874  42.203  19.018   0.362
21648W        W86875  35.633  22.732  10.637
21649W        W86876   3.714  34.228   4.149
21650W        W86877  29.438   8.183   3.136
21651W        W86878  32.764  35.590   3.178
21652W        W86879   5.377  12.728  10.485
21653W        W86880   7.782  18.307   3.773
21654W        W86881  41.479   6.009  12.901
21655W        W86882   1.935  35.132   3.947
21656W        W86883  34.396  22.582  13.156
21657W        W86884   9.813   0.520  13.933
21658W        W86885  38.476  25.279   1.392
21659W        W86886   7.745   6.805  11.417
21660W        W86887  40.224  35.011   0.419
21661W        W86888  34.553  19.721  10.891
21662W        W86889  13.220  19.876  12.755
21663W        W86890  19.301  41.542  12.881
21664W        W86891  39.959  33.050  12.187
21665W        W86892  35.705  42.546  12.581
21666W        W86893  12.723  37.127  14.326
21667W        W86894  17.576  39.634   3.693
21668W        W86895  11.348  23.469  13.386
21669W        W86896  18.333   7.186  10.700
21670W        W86897  20.243  29.701  14.000
21671W        W86898  13.709   5.073  12.923
21672W        W86899  14.303  28.154   1.687
21673W        W86900  14.666   5.655   2.208
21674W        W86901  20.244  41.983   0.958
21675W        W86902  41.963  12.897  13.229
21676W        W86903   1.969  36.671   3.776
21677W        W86904   3.920  39.369  13.746
21678W        W86905  42.199  26.176  12.574
21679W        W86906  32.687  17.705   4.612
21680W        W86907   2.434   0.168  13.900
21681W        W86908  20.799   3.466  13.969
21682W        W86909  30.981   4.377  10.967
21683W        W86910  23.610  11.375  10.779
21684W        W86911  26.099  42.692   3.879
21685W        W86912   0.024  23.162   3.147
21686W        W86913  34.542  17.174  11.195
21687W        W86914   2.808  35.665  13.005
21688W        W86915  12.074  33.899   5.202
21689W        W86916   3.431  23.355   4.759
21690W        W86917  41.931  13.361   0.954
21691W        W86918   6.587  19.026  12.026
21692W        W86919   1.001  37.512   3.243
21693W        W86920  20.321  16.888  10.785
21694W        W86921  30.421   3.880   2.679
21695W        W86922  26.091  39.101   4.932
21696W        W86923   7.756  17.954   2.731
21697W        W86924  30.706  30.582  12.940
21698W        W86925  31.296  42.355  13.920
21699W        W86926  28.892  31.764   0.115
21700W        W86927   1.184  23.137   4.964
21701W        W86928  41.424   4.990   1.819
21702W        W86929   1.312   9.664  10.626
21703W        W86930  27.823  32.943  13.818
21704W        W86931  43.558  11.098   3.717
21705W        W86932  24.182   8.023   4.098
21706W        W86933  18.729   6.591  10.763
21707W        W86934  31.994  44.115   0.813
21708W        W86935  12.500  30.169   0.299
21709W        W86936   9.684  32.078  13.118
21710W        W86937  38.711  27.515  13.897
21711W        W86938  11.929  15.573   4.440
21712W        W86939  33.891  30.916   1.913
21713W        W86940  35.051  14.412  10.716
21714W        W86941   6.937  19.658   3.773
21715W        W86942  38.850  20.247   3.711
21716W        W86943   4.349  44.395   3.985
21717W        W86944  41.748  22.529  14.451
21718W        W86945  19.835  40.019  12.497
21719W        W86946  37.841  28.555   4.159
21720W        W86947  36.588  43.746  12.065
21721W        W86948  31.801   9.829  12.948
21722W        W86949  43.281  29.926   0.069
21723W        W86950   6.149  25.665   4.592
21724W        W86951  13.635   9.001  13.365
21725W        W86952  37.016  17.333   3.884
21726W        W86953  30.097  15.226   1.858
21727W        W86954  20.296  40.139   1.716
21728W        W86955  36.977   8.840  10.702
21729W        W86956  43.817  24.785  13.011
21730W        W86957  19.593  13.380   1.338
21731W        W86958  22.625  28.197   2.152
21732W        W86959  40.578  41.424   3.678
21733W        W86960  14.282  17.703   2.890
21734W        W86961   4.659  30.469  10.241
21735W        W86962  18.257  25.557  14.501
21736W        W86963  28.565  15.680  14.981
21737W        W86964  28.400   2.978  10.611
21738W        W86965  12.138  14.737   4.527
21739W        W86966   0.354   7.246  12.826
21740W        W86967  14.860  27.121  14.955
21741W        W86968  37.509  37.992  12.090
21742W        W86969  33.362  12.120  12.161
21743W        W86970  24.566   7.666   0.912
21744W        W86971  21.077  33.158   1.152
21745W        W86972   3.589  25.125   4.020
21746W        W86973  30.485   7.955   1.725
21747W        W86974  17.005  15.541   4.621
21748W        W86975   3.038  30.603   1.688
21749W        W86976  15.647  24.083   4.662
21750W        W86977  24.321   9.222   3.414
21751W        W86978   4.721  12.822  11.725
21752W        W86979   4.762   4.969   4.145
21753W        W86980  18.619   3.317  14.364
21754W        W86981  23.894  29.324   9.831
21755W        W86982  44.001  43.362   3.302
21756W        W86983  10.788  11.139   1.674
21757W        W86984   9.166   7.346  13.573
21758W        W86985  14.843  22.797   0.427
21759W        W86986  32.643  11.814   0.994
21760W        W86987  30.474  44.042   2.266
21761W        W86988  11.722   7.862   4.898
21762W        W86989  17.078   4.213  11.627
21763W        W86990  17.552  41.034  11.661
21764W        W86991  19.445   1.810   1.694
21765W        W86992   6.698  14.172   1.322
21766W        W86993  22.210  39.971   2.416
21767W        W86994   4.360   8.810  10.663
21768W        W86995  37.936  32.146  11.364
21769W        W86996  11.670   0.384   4.616
21770W        W86997  42.957  19.534   2.991
21771W        W86998  24.645  21.476  13.164
21772W        W86999  25.333  36.922   2.792
21773W        W87000  23.816  16.234  10.668
21774W        W87001  43.458   5.700   0.803
21775W        W87002   5.895   3.524   3.189
21776W        W87003  36.246  39.061  10.272
21777W        W87004   5.704  14.831   9.975
21778W        W87005  31.278  24.319  10.064
21779W        W87006   9.875  14.710  10.800
21780W        W87007  38.183  10.772   4.974
21781W        W87008  14.065  24.103   2.695
21782W        W87009   5.942   2.733  11.066
21783W        W87010   7.374  34.634   4.667
21784W        W87011  21.083  12.276  10.785
21785W        W87012  34.050   9.850   3.200
21786W        W87013  13.101  36.726  14.858
21787W        W87014  19.121  20.068  11.053
21788W        W87015  18.998  10.289   3.440
21789W        W87016  21.062   4.442   2.674
21790W        W87017  41.779   9.683  11.898
21791W        W87018  26.586  26.536  11.629
21792W        W87019  35.960  13.234   1.216
21793W        W87020  23.444  43.425   0.881
21794W        W87021  37.056  41.654   0.915
21795W        W87022  33.880   1.701  12.904
21796W        W87023  10.390   7.098   1.424
21797W        W87024  20.543  28.410   1.741
21798W        W87025   7.208   3.942  13.993
21799W        W87026  32.593   3.066  11.574
21800W        W87027  18.094  35.267   0.930
21801W        W87028  40.649  28.989   0.426
21802W        W87029  21.554  30.685   0.054
21803W        W87030  39.971  19.572  10.755
21804W        W87031  10.134  19.676   1.318
21805W        W87032  19.577   6.227  12.029
21806W        W87033  15.779  44.693  10.585
21807W        W87034  40.432  34.044   3.494
21808W        W87035   9.412   3.837  10.458
21809W        W87036   1.927  18.226   1.715
21810W        W87037  17.068  32.650   4.664
21811W        W87038  44.912  25.403  13.144
21812W        W87039   2.980   1.798  14.377
21813W        W87040  18.929  38.576  11.549
21814W        W87041  31.277  31.982  10.201
21815W        W87042  25.229   8.698  11.153
21816W        W87043  43.420  38.868  11.223
21817W        W87044  12.925  25.992   2.440
21818W        W87045  28.735  44.564   4.179
21819W        W87046  38.009  31.663   3.737
21820W        W87047  34.272  35.385  10.776
21821W        W87048  27.138  14.295   2.524
21822W        W87049  21.426  33.393  10.022
21823W        W87050  13.652   8.823   0.160
21824W        W87051  16.738  34.741   4.194
21825W        W87052  13.868  24.265  13.392
21826W        W87053  17.189   0.848  12.511
21827W        W87054  15.148  21.689   2.182
21828W        W87055  42.297  12.071  11.139
21829W        W87056  21.864   3.184  10.886
21830W        W87057  17.342  29.804   2.052
21831W        W87058   2.744  25.544   1.877
21832W        W87059  13.690   2.035   4.631
21833W        W87060  26.516  22.600   5.034
21834W        W87061  28.133  23.205   2.587
21835W        W87062  31.045  24.878  10.711
21836W        W87063  33.630   5.299   2.227
21837W        W87064  32.613  24.438  11.924
21838W        W87065  34.508   1.697   0.265
21839W        W87066  41.756  35.469  13.363
21840W        W87067  27.691  33.483   2.848
21841W        W87068  35.433  12.118  12.022
21842W        W87069  25.476  40.743   4.971
21843W        W87070  22.884  24.958  13.375
21844W        W87071  30.626  25.096  10.093
21845W        W87072  23.734  39.984   3.037
21846W        W87073  22.699  10.734   3.361
21847W        W87074  12.920  43.745  14.968
21848W        W87075   9.857  12.576   4.296
21849W        W87076  29.683   6.814   1.305
21850W        W87077  18.812  12.770   4.516
21851W        W87078  40.150   3.217   1.782
21852W        W87079  12.782  15.635   1.244
21853W        W87080  39.748  42.319  14.154
21854W        W87081  38.418  31.600   0.518
21855W        W87082  27.201  42.070  12.192
21856W        W87083  43.573  21.365   3.106
21857W        W87084   0.386  23.311  11.011
21858W        W87085   9.179   9.837  13.670
21859W        W87086  30.468  34.322  10.718
21860W        W87087   0.025  35.923   4.166
21861W        W87088  33.477  29.693  14.354
21862W        W87089   1.503   7.548  13.657
21863W        W87090  34.585  40.244  13.933
21864W        W87091  41.297  16.114   0.623
21865W        W87092   9.019  20.919   1.753
21866W        W87093  28.576  39.348   4.868
21867W        W87094   5.828  14.068  11.618
21868W        W87095  34.819   0.461  10.242
21869W        W87096  44.083  36.344   2.742
21870W        W87097  21.714   4.419  13.040
21871W        W87098  35.442  22.467  14.792
21872W        W87099  22.690  39.058   4.849
21873W        W87100  23.937  35.501  12.421
21874W        W87101  37.890   0.280  10.701
21875W        W87102  42.843   5.943  12.449
21876W        W87103   4.508  15.266   1.280
21877W        W87104   7.538  24.048  14.191
21878W        W87105  19.309   5.410   1.342
21879W        W87106  36.786   7.866   2.619
21880W        W87107   8.946  19.154  11.017
21881W        W87108  19.008  17.840  11.136
21882W        W87109  14.216  31.562   1.318
21883W        W87110   0.352   9.704   0.359
21884W        W87111  11.569  19.575  11.609
21885W        W87112   7.335   6.612   1.816
21886W        W87113  31.711  42.053   4.274
21887W        W87114   6.608   4.755  13.314
21888W        W87115   8.254   6.921  10.725
21889W        W87116  10.673  21.698  13.072
21890W        W87117  13.310   4.887   0.986
21891W        W87118   7.822  34.934   2.247
21892W        W87119   6.981   3.980   2.175
21893W        W87120  22.652  24.507  13.295
21894W        W87121   6.741   7.641   1.464
21895W        W87122  26.243  34.910   2.040
21896W        W87123  13.165  18.609  13.617
21897W        W87124  37.855   1.838  14.827
21898W        W87125  31.268  43.366   0.963
21899W        W87126   1.124   5.479   0.295
21900W        W87127   6.304   9.687   2.199
21901W        W87128  41.764  11.933  12.616
21902W        W87129  43.800   1.766  14.421
21903W        W87130  34.328  17.210   0.854
21904W        W87131  20.677  24.844  12.671
21905W        W87132  24.514  40.400  13.079
21906W        W87133  32.638  41.954   1.364
21907W        W87134  43.453  35.042   3.484
21908W        W87135  35.987  44.600   2.462
21909W        W87136  30.532  12.917   1.861
21910W        W87137   8.382   2.435  12.082
21911W        W87138   0.970  11.261  11.029
21912W        W87139  33.519  31.914   2.899
21913W        W87140  43.896  29.740   1.226
21914W        W87141   5.918  23.239   0.412
21915W        W87142  15.218  15.572  12.056
21916W        W87143  23.784  42.073  13.451
21917W        W87144  17.575  43.719   3.226
21918W        W87145  32.857   8.658  13.197
21919W        W87146   1.486  41.867   4.074
21920W        W87147   3.262  41.481  12.116
21921W        W87148   9.307  31.022  12.604
21922W        W87149  41.659   4.329   0.706
21923W        W87150   8.381  35.108   0.916
21924W        W87151  23.196  33.922  14.015
21925W        W87152  35.029  15.555   4.484
21926W        W87153  43.651  44.114  10.388
21927W        W87154  36.998  10.648   0.393
21928W        W87155  31.763  29.629   2.013
21929W        W87156  19.333   3.017  14.816
21930W        W87157  34.416  28.469   3.686
21931W        W87158  30.069  32.556   0.353
21932W        W87159  33.760  11.812  14.427
21933W        W87160  17.339  36.596   4.787
21934W        W87161   4.690  21.992  13.558
21935W        W87162  26.929   1.851   4.630
21936W        W87163   9.086   2.342   4.227
21937W        W87164  29.270  13.052  11.012
21938W        W87165  12.027  43.098  11.465
21939W        W87166  20.302  38.699   4.565
21940W        W87167  42.773  40.405  12.367
21941W        W87168  40.900   8.155   1.876
21942W        W87169   9.588  25.801   2.602
21943W        W87170  33.536  31.726   3.417
21944W        W87171  23.025  27.426   2.247
21945W        W87172  18.676  40.507  12.964
21946W        W87173  26.985  32.320  11.697
21947W        W87174  32.634   4.587   4.862
21948W        W87175  21.737  40.600  11.387
21949W        W87176   5.882   2.087  13.129
21950W        W87177  41.313   8.911   2.259
21951W        W87178   5.197  40.090  11.641
21952W        W87179  39.787  20.342   4.799
21953W        W87180  33.067  22.006  12.889
21954W        W87181  38.526  37.215  13.864
21955W        W87182  37.942   8.993  14.061
21956W        W87183  43.688  34.106   2.379
21957W        W87184  30.632  19.411   3.001
21958W        W87185   6.253   7.455   1.446
21959W        W87186   1.313   6.609  11.532
21960W        W87187  38.992   0.899   0.305
21961W        W87188  38.351  38.896   1.979
21962W        W87189  30.596  44.279   1.268
21963W        W87190  18.957  41.643   3.674
21964W        W87191  12.856  21.512  12.056
21965W        W87192  24.111  11.648   1.501
21966W        W87193  20.514  39.343   0.759
21967W        W87194  30.059  29.542   0.831
21968W        W87195   9.818  30.877  12.608
21969W        W87196  37.268   8.069  10.361
21970W        W87197  24.724   9.072   0.661
21971W        W87198   1.320  38.007  10.667
21972W        W87199  40.055  21.429   4.455
21973W        W87200  12.650  35.098  12.100
21974W        W87201  13.721  30.396  11.047
21975W        W87202  30.851   7.225   3.700
21976W        W87203  41.768   7.957   2.413
21977W        W87204  38.429   6.877  13.335
21978W        W87205  36.749  19.118   2.260
21979W        W87206  15.621  33.577   3.712
21980W        W87207  40.494  43.751  10.615
21981W        W87208  37.866  28.456   1.867
21982W        W87209   6.307  25.006  13.043
21983W        W87210  44.765  20.356  12.442
21984W        W87211  38.400  20.089  11.961
21985W        W87212   7.366   8.020  14.986
21986W        W87213   1.167  18.740   0.302
21987W        W87214   6.644  11.600   2.288
21988W        W87215  20.668  11.153  11.462
21989W        W87216  40.251  20.328  13.395
21990W        W87217  43.083  25.657  11.550
21991W        W87218  43.771  22.196   2.893
21992W        W87219   2.456  33.003  11.665
21993W        W87220  21.509   5.400  13.356
21994W        W87221  26.197  29.976   3.317
21995W        W87222  18.830  20.124   4.009
21996W        W87223  13.646  25.731   3.193
21997W        W87224   5.366   1.308   2.424
21998W        W87225  14.333  33.579   2.281
21999W        W87226  11.438  27.149   0.248
22000W        W87227  42.055   7.151  13.438
22001W        W87228  32.189  44.855  11.331
22002W        W87229  23.770   9.628  13.018
22003W        W87230   0.849  34.507  13.105
22004W        W87231  15.011   7.979  12.281
22005W        W87232   2.282  26.686  12.902
22006W        W87233  30.446  29.549   1.719
22007W        W87234  27.709  14.117   3.770
22008W        W87235  22.545  40.875   2.862
22009W        W87236  11.876   8.227   0.993
22010W        W87237  12.331  44.457   1.506
22011W        W87238  27.950  32.769   4.989
22012W        W87239  12.986  37.323  10.811
22013W        W87240  37.792   1.990   1.171
22014W        W87241  22.089  41.351  12.881
22015W        W87242  30.118  10.701   0.331
22016W        W87243  30.136  37.289   0.219
22017W        W87244   3.138  10.229   4.138
22018W        W87245  30.975  22.124   0.512
22019W        W87246   0.304  32.988  12.451
22020W        W87247  38.391  42.068  12.028
22021W        W87248   0.166  27.707   2.954
22022W        W87249  39.521  21.020  14.523
22023W        W87250  17.317   9.707  12.521
22024W        W87251  42.979  40.055   0.041
22025W        W87252   0.011  41.314  13.378
22026W        W87253   5.534  42.598  12.436
22027W        W87254  38.801  18.863  10.737
22028W        W87255   7.927   8.740  10.333
22029W        W87256  19.024  22.951  11.057
22030W        W87257  36.653  23.357   1.224
22031W        W87258  21.160  12.206   2.872
22032W        W87259  12.267  38.784  12.219
22033W        W87260  24.985  29.393  11.156
22034W        W87261  18.553  12.842   3.273
22035W        W87262   3.176  39.368  11.997
22036W        W87263   8.776  37.805   2.808
22037W        W87264  31.671   6.757   3.308
22038W        W87265  32.546  12.093   0.178
22039W        W87266  20.171  38.814   2.749
22040W        W87267  40.320   2.080  12.409
22041W        W87268  27.524   7.043   2.207
22042W        W87269   1.674  17.753   1.681
22043W        W87270   3.568  38.567  12.617
22044W        W87271  44.055   7.339   0.980
22045W        W87272  23.651  35.193  14.347
22046W        W87273  20.143  37.505   5.048
22047W        W87274  11.435  22.151  14.573
22048W        W87275   9.007  44.058  10.632
22049W        W87276   0.550  36.303  12.027
22050W        W87277  34.081   1.911  12.417
22051W        W87278  23.198  21.815   2.297
22052W        W87279  29.243  27.270  14.735
22053W        W87280  15.571  38.818   2.784
22054W        W87281  12.598  10.672   0.717
22055W        W87282  14.060  31.943  10.265
22056W        W87283   6.938  37.066   2.292
22057W        W87284  36.026  40.428   2.284
22058W        W87285  16.680  34.799  13.091
22059W        W87286  31.082  19.535   2.738
22060W        W87287   9.777  35.727   0.902
22061W        W87288  15.680  40.125   3.074
22062W        W87289  36.739  30.672  12.511
22063W        W87290  34.425  38.204  14.993
22064W        W87291  26.930  36.079   4.225
22065W        W87292  34.566  37.253   4.705
22066W        W87293  18.765   3.421  10.430
22067W        W87294  26.269   3.894  13.748
22068W        W87295   3.178   1.766  12.497
22069W        W87296  16.789  33.969  13.145
22070W        W87297  19.027  30.051  12.768
22071W        W87298   0.244  43.390   0.389
22072W        W87299  18.576  13.547  11.978
22073W        W87300  17.031  35.663   0.526
22074W        W87301   1.494  10.654   3.058
22075W        W87302  34.736  17.096   0.022
22076W        W87303   2.390  14.530   0.474
22077W        W87304  40.125   4.301   4.107
22078W        W87305  32.003  12.168  14.859
22079W        W87306   2.775  20.019   0.833
22080W        W87307  38.290  27.205  13.906
22081W        W87308  22.028  18.440  14.957
22082W        W87309  41.342  36.580   0.262
22083W        W87310  18.318  17.236  11.617
22084W        W87311  41.795  19.241   2.520
22085W        W87312  37.579  15.427  13.436
22086W        W87313  25.796  14.522  14.298
22087W        W87314   0.343  25.536  14.341
22088W        W87315  37.989  21.360  13.928
22089W        W87316  17.284  18.158  13.074
22090W        W87317  36.494  24.563  13.003
22091W        W87318   9.109  34.842   3.204
22092W        W87319  20.760   5.447  11.872
22093W        W87320  41.463  36.765  13.815
22094W        W87321  19.064   2.997  13.095
22095W        W87322  43.536  19.967  12.994
22096W        W87323  11.471  22.287  11.121
22097W        W87324  36.840  19.250  14.897
22098W        W87325  27.056  31.935   2.897
22099W        W87326  30.178  17.912  11.111
22100W        W87327  39.858  10.456  10.795
22101W        W87328  33.894  39.791   0.985
22102W        W87329  43.549  34.168  12.978
22103W        W87330  29.500  26.562  13.466
22104W        W87331  29.907   3.905   2.745
22105W        W87332  14.708  28.092  12.516
22106W        W87333  14.364  15.620   2.954
22107W        W87334  38.380  43.924   2.140
22108W        W87335  42.765  13.699   4.122
22109W        W87336  17.618  27.135  11.520
22110W        W87337  35.026  21.070   4.008
22111W        W87338  14.826  14.686  13.218
22112W        W87339  26.676  27.175   0.337
22113W        W87340  30.650  30.684   3.258
22114W        W87341   3.662  27.625  11.949
22115W        W87342  36.360   8.798  13.128
22116W        W87343  14.414  17.516   1.954
22117W        W87344  27.484  19.865   4.573
22118W        W87345  25.691   4.128   3.193
22119W        W87346  24.217  35.910   3.699
22120W        W87347  18.173  23.415   2.171
22121W        W87348   6.218   8.031  12.850
22122W        W87349   0.259   5.156  11.591
22123W        W87350  29.032  44.704   4.632
22124W        W87351  13.199  14.999   3.129
22125W        W87352  15.928  28.988   1.443
22126W        W87353  14.988   5.886  10.316
22127W        W87354  24.996  22.708   1.462
22128W        W87355  12.836  32.116   0.774
22129W        W87356   6.141   3.827  13.025
22130W        W87357  13.420  40.388  10.608
22131W        W87358   1.665   4.216   3.642
22132W        W87359   0.382  15.079  14.426
22133W        W87360  10.078  31.670  11.466
22134W        W87361   9.946  20.871   0.723
22135W        W87362   2.746  23.548  11.417
22136W        W87363  43.236  36.142   3.079
22137W        W87364   2.311  31.218   3.609
22138W        W87365   9.369  25.185  14.706
22139W        W87366  13.733  14.256   0.683
22140W        W87367  44.970   6.546   4.090
22141W        W87368  22.151  11.432  13.543
22142W        W87369   9.343  39.079  12.513
22143W        W87370  29.605  28.669   2.717
22144W        W87371  24.130   1.307  13.427
22145W        W87372  22.811  16.215   0.511
22146W        W87373  30.898  38.576   2.279
22147W        W87374  33.219   8.427  13.501
22148W        W87375   4.362  23.610   1.343
22149W        W87376  15.730  32.597  11.561
22150W        W87377  20.066  41.295   2.620
22151W        W87378  42.830  16.099   3.073
22152W        W87379   3.411  31.585  13.780
22153W        W87380   2.844  12.233   4.129
22154W        W87381   5.839   8.911  12.944
22155W        W87382  17.413  36.779   3.222
22156W        W87383  18.480   6.025  12.671
22157W        W87384  18.373  10.284  13.414
22158W        W87385  13.082  16.770   0.559
22159W        W87386  38.931   3.415   3.552
22160W        W87387   8.393  31.450   4.922
22161W        W87388  44.347   3.889   4.697
22162W        W87389   4.625   8.265   4.369
22163W        W87390  25.686  41.167   2.752
22164W        W87391  25.633   7.664   3.570
22165W        W87392  23.084  22.921  12.428
22166W        W87393   8.314   0.947   2.663
22167W        W87394  36.261  28.620   4.219
22168W        W87395  25.176   1.870   5.588
22169W        W87396  22.653  39.766  11.596
22170W        W87397  34.892  36.485   2.378
22171W        W87398  20.680  41.887  10.827
22172W        W87399  24.463  29.175   4.511
22173W        W87400   9.775  12.877  10.461
22174W        W87401  27.645   6.301  10.749
22175W        W87402  12.651  22.334  14.052
22176W        W87403  29.675   7.266  13.606
22177W        W87404  28.080   0.345  10.577
22178W        W87405   0.851  35.999   0.732
22179W        W87406  28.549  37.373   2.129
22180W        W87407  29.099  12.175   3.888
22181W        W87408  34.036  40.060  13.005
22182W        W87409  35.737  43.474   4.878
22183W        W87410  30.358  26.104   0.878
22184W        W87411   7.233  37.905   0.376
22185W        W87412  15.705  12.311  14.414
22186W        W87413   8.939   6.315   0.822
22187W        W87414  15.601  39.675  12.628
22188W        W87415  16.589  18.956  13.479
22189W        W87416  14.305  30.378  14.271
22190W        W87417  26.491  17.491  11.498
22191W        W87418  44.250  36.341   3.981
22192W        W87419  16.265  37.989  14.361
22193W        W87420  20.831  13.130  11.504
22194W        W87421  19.662  25.148   1.159
22195W        W87422  42.741  37.795  14.816
22196W        W87423  27.372  32.014  12.526
22197W        W87424  14.857  22.594  14.904
22198W        W87425  26.739  23.994   2.669
22199W        W87426  33.021  13.795  13.995
22200W        W87427  21.004  30.608   3.583
22201W        W87428   3.758  27.012   2.206
22202W        W87429  38.185  30.292   3.281
22203W        W87430  13.399   1.350   1.371
22204W        W87431  20.037  33.474  12.638
22205W        W87432  31.558  26.948  13.433
22206W        W87433  39.506  23.937  12.575
22207W        W87434  33.356  11.074  12.922
22208W        W87435   4.847  16.998   4.967
22209W        W87436  18.026  21.560   2.693
22210W        W87437  10.462  16.220   0.950
22211W        W87438  11.720  39.712   2.658
22212W        W87439   5.529  36.508   0.172
22213W        W87440   0.729   0.405   3.234
22214W        W87441  18.147  21.133   0.387
22215W        W87442  44.994  40.093  13.919
22216W        W87443   9.293  19.812   4.951
22217W        W87444  16.630  22.560  11.021
22218W        W87445  27.407  33.934  13.063
22219W        W87446  22.184  23.025   1.610
22220W        W87447  27.166  43.349  12.530
22221W        W87448  23.157  43.388  13.389
22222W        W87449  39.844  25.030   1.350
22223W        W87450  31.845   7.385  12.990
22224W        W87451  30.478   2.863   3.688
22225W        W87452   7.233  22.905  14.001
22226W        W87453  10.010  10.276   4.273
22227W        W87454  24.115   4.581   4.532
22228W        W87455  17.530  35.660  11.512
22229W        W87456   5.674   8.598  14.248
22230W        W87457   9.200  44.160   3.432
22231W        W87458  25.558   2.772  14.398
22232W        W87459  28.008  19.020   2.261
22233W        W87460  21.985  10.861   4.077
22234W        W87461   1.880   3.393   4.257
22235W        W87462  22.091   6.421  13.988
22236W        W87463  18.629  34.520   2.287
22237W        W87464  24.256  22.373   3.163
22238W        W87465  16.651  11.382   0.482
22239W        W87466   5.978  12.950   1.132
22240W        W87467  25.987  14.348   2.362
22241W        W87468  37.944   2.109   4.910
22242W        W87469  37.632  11.218  11.172
22243W        W87470  18.787   5.733   3.130
22244W        W87471   6.394   4.726   2.533
22245W        W87472  14.180  21.113  10.478
22246W        W87473  44.492  40.427  11.162
22247W        W87474  34.934  23.531   1.663
22248W        W87475  12.524  29.481   1.450
22249W        W87476  39.049  10.639  11.151
22250W        W87477  33.523  38.820  11.760
22251W        W87478  28.914  35.919   1.381
22252W        W87479  25.566   1.981   5.259
22253W        W87480  31.566  34.490   4.698
22254W        W87481  13.821   8.390  10.731
22255W        W87482  13.876  36.618  12.825
22256W        W87483  25.561   4.062  12.011
22257W        W87484  32.977  26.519   2.525
22258W        W87485  21.310  41.545  13.763
22259W        W87486  43.735  20.730   4.020
22260W        W87487  14.333  13.025  11.068
22261W        W87488  26.527  40.806  12.052
22262W        W87489  32.942  42.535   1.008
22263W        W87490  24.762   4.984  10.437
22264W        W87491  22.063   3.206  12.438
22265W        W87492  14.335  22.179   4.123
22266W        W87493   9.162  26.165  13.437
22267W        W87494  39.437  29.729   3.853
22268W        W87495  31.426   2.666   3.369
22269W        W87496  14.693  28.397  10.293
22270W        W87497  16.956   4.032  13.699
22271W        W87498  18.111  21.318  14.886
22272W        W87499  22.597  16.673   1.385
22273W        W87500   5.140  14.211  12.482
22274W        W87501   3.216  19.215   4.249
22275W        W87502  14.134  16.718  12.951
22276W        W87503   8.096  16.772   4.919
22277W        W87504   0.507   9.815  14.487
22278W        W87505  17.753  36.407   4.514
22279W        W87506  19.331   5.752   3.322
22280W        W87507  40.071  15.773   2.956
22281W        W87508   7.744  38.002  11.235
22282W        W87509  12.794  35.310  13.449
22283W        W87510   6.765   3.953  10.779
22284W        W87511  17.051  19.204  13.505
22285W        W87512  18.165  33.521   0.084
22286W        W87513  23.672   9.955   1.414
22287W        W87514  38.446  28.424  11.697
22288W        W87515  28.794  26.476   1.352
22289W        W87516   1.881  27.909   2.646
22290W        W87517  37.804  29.180  12.954
22291W        W87518  35.453  33.503   0.386
22292W        W87519  29.449   3.237  13.613
22293W        W87520  38.493  35.494  13.865
22294W        W87521  22.394  30.612   4.414
22295W        W87522   2.875  18.556  14.419
22296W        W87523  23.132  22.212  14.036
22297W        W87524  15.270  20.674  13.991
22298W        W87525  17.005  32.645   1.891
22299W        W87526  27.012  37.366   3.686
22300W        W87527  31.600  34.850  13.530
22301W        W87528  32.925  23.950   2.277
22302W        W87529  30.859  25.711  11.981
22303W        W87530  34.367  11.104   3.967
22304W        W87531  35.117  35.443  11.114
22305W        W87532  18.642  11.808   0.913
22306W        W87533   5.390  36.098  12.031
22307W        W87534  17.127  23.123  13.905
22308W        W87535  19.622  36.255  14.890
22309W        W87536  39.315   1.923   1.767
22310W        W87537  22.742  21.612   1.987
22311W        W87538   3.198  39.097   4.788
22312W        W87539   8.193  14.336  13.521
22313W        W87540  36.078  35.335  14.059
22314W        W87541  30.146  38.988   4.310
22315W        W87542  17.747  26.964   4.064
22316W        W87543  16.072  13.478   3.684
22317W        W87544  42.349  42.877   4.542
22318W        W87545  40.475  30.917  10.932
22319W        W87546  38.493  41.524   4.722
22320W        W87547  32.584  20.015  12.487
22321W        W87548  24.775   0.282   0.398
22322W        W87549   7.813   2.108   4.915
22323W        W87550   8.885  36.799  11.467
22324W        W87551   0.702  37.570  12.322
22325W        W87552  25.904  22.185  10.940
22326W        W87553  42.819   6.909   2.839
22327W        W87554  17.658  24.943  12.946
22328W        W87555  13.215  34.779   5.008
22329W        W87556  13.185  29.560  12.873
22330W        W87557  26.127  16.503  14.361
22331W        W87558  32.096  16.208  12.290
22332W        W87559   4.174  11.644  11.499
22333W        W87560  19.085  41.231   4.144
22334W        W87561  12.866  39.094  14.470
22335W        W87562  36.563  13.834  14.345
22336W        W87563  17.182  15.017  11.389
22337W        W87564  40.286  29.017   0.825
22338W        W87565  27.650  16.602   0.309
22339W        W87566  39.327  17.490   4.576
22340W        W87567  37.377  44.766   2.817
22341W        W87568   8.483  19.214  14.025
22342W        W87569  21.257  44.974   1.309
22343W        W87570   8.679  41.547   0.453
22344W        W87571  36.951  11.917  13.875
22345W        W87572  28.190  34.924   3.712
22346W        W87573  17.204   8.893   3.687
22347W        W87574   9.483   3.831  14.089
22348W        W87575  31.129  28.984   1.381
22349W        W87576  10.337  37.424  10.991
22350W        W87577  33.951  11.771   3.290
22351W        W87578  44.376  43.770  13.040
22352W        W87579  18.828   8.022  12.557
22353W        W87580  36.079  35.559   3.350
22354W        W87581   2.344  21.981  14.313
22355W        W87582  19.636  24.086   0.284
22356W        W87583  30.966  23.204   1.652
22357W        W87584  38.605   1.395  13.384
22358W        W87585  16.780  44.992   2.297
22359W        W87586  21.029   0.409   3.627
22360W        W87587  22.049  33.433   3.396
22361W        W87588  12.713  12.176  12.113
22362W        W87589   7.134  20.444   1.190
22363W        W87590  11.639  38.444   0.353
22364W        W87591  10.284   5.709   4.115
22365W        W87592  12.316  37.057   0.129
22366W        W87593  19.662   2.006  10.742
22367W        W87594  30.326  29.519  12.541
22368W        W87595  32.956   0.762   1.318
22369W        W87596  29.526  31.708  11.041
22370W        W87597   0.870   2.385   4.326
22371W        W87598  40.631  32.939   4.697
22372W        W87599  27.111  27.194  10.206
22373W        W87600  22.122  28.184   0.248
22374W        W87601  10.497  29.187   0.573
22375W        W87602   2.285  24.223   1.804
22376W        W87603  33.340  23.904   0.494
22377W        W87604  30.554  40.501  13.899
22378W        W87605  12.511   0.324  13.585
22379W        W87606  14.570   4.248  13.185
22380W        W87607  21.501  12.389  13.036
22381W        W87608  35.428  28.008   2.198
22382W        W87609  40.399  19.066  13.894
22383W        W87610  25.880  13.575  12.555
22384W        W87611  25.054  23.120   0.689
22385W        W87612  18.998   9.229  10.761
22386W        W87613  17.615   8.993   4.922
22387W        W87614   7.806   5.888   3.871
22388W        W87615  12.869  28.807   0.740
22389W        W87616   0.823   8.141  12.151
22390W        W87617   3.080  31.558   1.722
22391W        W87618   9.803  27.995   4.396
22392W        W87619  13.499   2.144   4.173
22393W        W87620  31.839   5.188   3.770
22394W        W87621   5.586  22.658  12.459
22395W        W87622   1.655  10.205  11.874
22396W        W87623  21.036  25.694  12.385
22397W        W87624  27.227   2.740  10.963
22398W        W87625  29.896  30.763  10.186
22399W        W87626   9.290  30.653   4.574
22400W        W87627  18.611  16.627  11.055
22401W        W87628  26.497  43.669  11.986
22402W        W87629  25.064   7.894   3.684
22403W        W87630  38.016  22.389  14.045
22404W        W87631  38.385  15.457   5.011
22405W        W87632  12.935  29.173  10.728
22406W        W87633   3.935   1.993  14.476
22407W        W87634   0.471  23.488  12.280
22408W        W87635  11.366  29.152   1.486
22409W        W87636  42.352  10.311  14.250
22410W        W87637   2.345  38.235  14.042
22411W        W87638  20.703  39.977  14.409
22412W        W87639   4.486  11.198   3.863
22413W        W87640  12.327  41.395   4.656
22414W        W87641  37.313  20.984  14.068
22415W        W87642  17.045  15.448  12.137
22416W        W87643   9.008  27.378   4.123
22417W        W87644  36.093  37.932  12.620
22418W        W87645  20.050  38.440   3.362
22419W        W87646  40.397   8.142   0.783
22420W        W87647  24.979  41.519   0.579
22421W        W87648  36.899  26.090   3.518
22422W        W87649  23.567  17.618  10.934
22423W        W87650   7.387   9.301  10.511
22424W        W87651  25.499  18.002   4.139
22425W        W87652   2.690   5.469   3.329
22426W        W87653  36.132  11.378  13.648
22427W        W87654  10.943  18.976  14.969
22428W        W87655   0.487  24.960  12.540
22429W        W87656   8.580  12.330  13.122
22430W        W87657   6.873  31.603   2.362
22431W        W87658  19.983  25.540   4.718
22432W        W87659   5.686  12.307   4.218
22433W        W87660  19.048  28.969   4.825
22434W        W87661   0.767  18.606   2.619
22435W        W87662   4.938   2.755   0.852
22436W        W87663  32.621  21.027   4.097
22437W        W87664   6.463  23.985  10.162
22438W        W87665  30.264  31.363   2.044
22439W        W87666  28.434   1.158   1.314
22440W        W87667   4.240  20.625  11.519
22441W        W87668  14.854  15.653   2.744
22442W        W87669  12.552   4.511   0.358
22443W        W87670  22.560  34.783   3.669
22444W        W87671  28.623   9.924  11.530
22445W        W87672  25.493   2.326  11.254
22446W        W87673  28.417  33.047   0.416
22447W        W87674   7.803  13.443   5.061
22448W        W87675  26.193  24.397  11.963
22449W        W87676  28.483  23.621   3.525
22450W        W87677  42.949  15.188   0.956
22451W        W87678  38.342   9.677   4.512
22452W        W87679  16.545  28.569  13.181
22453W        W87680  31.083  38.216  11.134
22454W        W87681   0.903  12.665   2.388
22455W        W87682  11.347  28.892  13.368
22456W        W87683  28.511   8.138  11.913
22457W        W87684  11.168  43.363   2.718
22458W        W87685  17.354  29.938   0.304
22459W        W87686  21.215  41.246  12.849
22460W        W87687  37.930  43.877   3.608
22461W        W87688  33.592  21.110  11.287
22462W        W87689   6.405  34.601   2.303
22463W        W87690   8.970   6.755  14.292
22464W        W87691  22.102  26.386   0.778
22465W        W87692  25.367   5.410  10.462
22466W        W87693  21.759  11.693   1.238
22467W        W87694  30.103  44.992  14.451
22468W        W87695  34.103  15.193   4.694
22469W        W87696  26.039  27.981  11.184
22470W        W87697   5.205  25.675   2.916
22471W        W87698  28.978  17.660  14.310
22472W        W87699  28.146  20.697   2.363
22473W        W87700  42.980   3.326  14.788
22474W        W87701  38.484   0.966   0.764
22475W        W87702  17.595  38.075  11.989
22476W        W87703  31.592  16.394   3.713
22477W        W87704  40.893  43.073   3.726
22478W        W87705  21.505  20.971   0.546
22479W        W87706  20.161  40.535  10.820
22480W        W87707  25.497  29.976  12.521
22481W        W87708  19.424  23.109  14.773
22482W        W87709  17.223   4.473  14.437
22483W        W87710  19.225   2.266  11.601
22484W        W87711  17.579  35.808   3.404
22485W        W87712  19.243   7.636   4.230
22486W        W87713  26.481  13.767   0.894
22487W        W87714  36.525  42.200   2.715
22488W        W87715  36.607  18.133  14.305
22489W        W87716  43.222  26.890   4.912
22490W        W87717  26.794  37.800  14.524
22491W        W87718  43.986  26.083   1.885
22492W        W87719  36.585   9.616  10.499
22493W        W87720  27.065  13.623  11.917
22494W        W87721  41.076  23.427   0.301
22495W        W87722   3.956  35.769   3.136
22496W        W87723  24.674  19.990  13.482
22497W        W87724   9.236  27.654  12.676
22498W        W87725  29.485  34.864   0.632
22499W        W87726   0.677   6.690   2.691
22500W        W87727  25.009  37.022   3.520
22501W        W87728  25.193  37.093   4.538
22502W        W87729   9.552  38.038   0.781
22503W        W87730  39.633  15.910   1.788
22504W        W87731   7.703  11.820  12.833
22505W        W87732  19.184   0.221  12.491
22506W        W87733  12.866   1.671   2.713
22507W        W87734   2.144   7.802  11.252
22508W        W87735   3.261  16.692  13.255
22509W        W87736  11.267   9.929   1.324
22510W        W87737   2.422  30.403   0.856
22511W        W87738  38.835  19.184   4.584
22512W        W87739  23.965  13.867  13.349
22513W        W87740  34.604  14.085  13.097
22514W        W87741  42.876  31.153   0.769
22515W        W87742  25.540   0.958  12.944
22516W        W87743  24.302  13.897   2.317
22517W        W87744   3.123  41.122  13.451
22518W        W87745  34.791  24.705  14.367
22519W        W87746  31.112   4.620   1.904
22520W        W87747  29.990  38.506   4.202
22521W        W87748   5.688  19.741   0.794
22522W        W87749  15.712  12.118   3.963
22523W        W87750  29.394   8.482  12.765
22524W        W87751  24.198  20.835  10.657
22525W        W87752   7.126   8.265   0.386
22526W        W87753  25.272  19.279  14.287
22527W        W87754  31.610  19.689   4.543
22528W        W87755   7.758  33.668   2.220
22529W        W87756  22.485   8.830   2.919
22530W        W87757  30.434   5.462   2.793
22531W        W87758  38.014   5.202  12.349
22532W        W87759   4.693  37.542   0.291
22533W        W87760  33.520  27.577  14.225
22534W        W87761  17.196  22.089   3.543
22535W        W87762  21.554   7.158  10.576
22536W        W87763  13.703  30.135   2.777
22537W        W87764  10.697  35.605  14.298
22538W        W87765  22.708   1.509   1.274
22539W        W87766  19.266  42.949  11.128
22540W        W87767  10.152   6.380   0.493
22541W        W87768  35.632  21.539  14.888
22542W        W87769   0.187   1.455  11.887
22543W        W87770   7.178  10.878   0.276
22544W        W87771  21.784  21.113  12.164
22545W        W87772  36.350   9.073  13.977
22546W        W87773   1.517  36.856   2.916
22547W        W87774  25.201   5.367  13.176
22548W        W87775  12.350  30.518  12.861
22549W        W87776  32.876  31.469   3.860
22550W        W87777  33.115  44.777  12.634
22551W        W87778  10.700  11.868  12.653
22552W        W87779  20.376   8.383   1.246
22553W        W87780  18.998   7.783  13.730
22554W        W87781  23.467  12.273  13.062
22555W        W87782  37.336  13.186  10.583
22556W        W87783  44.715   7.807   3.573
22557W        W87784  40.172  22.200   2.548
22558W        W87785   8.735  20.015  12.034
22559W        W87786  43.345  31.355   4.231
22560W        W87787  15.713   9.432  14.542
22561W        W87788   0.978  23.755  10.614
22562W        W87789   7.675  21.742   3.133
22563W        W87790   0.405   9.589   2.272
22564W        W87791  21.288  25.081   2.574
22565W        W87792  32.139   6.199  13.578
22566W        W87793   4.524   4.098  12.901
22567W        W87794  28.398  28.109  12.044
22568W        W87795  14.110  32.155  14.856
22569W        W87796  31.344  10.921  12.582
22570W        W87797  27.598  24.038   2.925
22571W        W87798  31.622  20.089  13.599
22572W        W87799  40.559  25.436   2.817
22573W        W87800   8.200  10.895   0.608
22574W        W87801  22.627   1.886  11.944
22575W        W87802  29.424  38.032  14.785
22576W        W87803  10.683  27.695   1.794
22577W        W87804  39.252  34.335   4.683
22578W        W87805   1.039  38.533  11.735
22579W        W87806  20.139  32.088  13.056
22580W        W87807  25.167  37.722  12.505
22581W        W87808   9.745  23.835  13.540
22582W        W87809  44.680  31.548  13.285
22583W        W87810  18.681  15.671   2.400
22584W        W87811  18.722  25.574   4.415
22585W        W87812  17.767   3.265   0.496
22586W        W87813  34.426   4.490  11.234
22587W        W87814  14.566   3.433  10.689
22588W        W87815   6.825  24.007  12.463
22589W        W87816  41.492   8.651   0.363
22590W        W87817  33.246  25.146  11.120
22591W        W87818  34.902  26.185  10.192
22592W        W87819  39.532  19.786   0.057
22593W        W87820  19.788  32.120  13.469
22594W        W87821   6.893  17.351  13.830
22595W        W87822  16.687   2.171   2.747
22596W        W87823  10.079  32.878  12.562
22597W        W87824  42.910  44.983  11.082
22598W        W87825   5.932  21.075   3.215
22599W        W87826  34.629   2.243   0.917
22600W        W87827  13.033   3.374   2.947
22601W        W87828   6.545   5.215   0.483
22602W        W87829  20.344  14.890   2.511
22603W        W87830   8.210  37.940  13.558
22604W        W87831  30.088  24.156  14.376
22605W        W87832  34.050   8.819   0.213
22606W        W87833   6.330  27.073  13.531
22607W        W87834  10.734   0.676   9.995
22608W        W87835  14.500  33.679   5.235
22609W        W87836  42.954   5.546   0.884
22610W        W87837  43.148  38.925  12.894
22611W        W87838  14.696  10.830  11.570
22612W        W87839  28.344  17.322   4.881
22613W        W87840  27.619  15.773   2.755
22614W        W87841  19.105  18.786   0.426
22615W        W87842  19.739  44.911  10.549
22616W        W87843   5.599   0.357  11.530
22617W        W87844   7.279  11.247   4.120
22618W        W87845  12.187  12.226   0.989
22619W        W87846  42.628  35.931   1.548
22620W        W87847  37.909   6.639  13.620
22621W        W87848  36.058  44.388   1.558
22622W        W87849   2.623  34.291   5.126
22623W        W87850  26.186  36.462  11.226
22624W        W87851  29.970   3.859  14.997
22625W        W87852  23.929  33.465   1.135
22626W        W87853   3.184  27.755   0.729
22627W        W87854   4.645  27.574  10.724
22628W        W87855  23.089  23.797   3.121
22629W        W87856  35.861  31.965  11.970
22630W        W87857  15.889  37.831  12.456
22631W        W87858   5.164  28.092   3.363
22632W        W87859  12.715  20.733  11.023
22633W        W87860  11.627  37.500   0.306
22634W        W87861  12.442  34.121  10.730
22635W        W87862  44.736  26.092   0.860
22636W        W87863   6.705  18.763  13.949
22637W        W87864  18.879  38.043   1.772
22638W        W87865  19.642  14.253  12.640
22639W        W87866   8.608  16.798   0.368
22640W        W87867  42.094  25.494   4.770
22641W        W87868  21.774  20.539   0.700
22642W        W87869  33.498   3.399   2.776
22643W        W87870   1.711  14.425   4.059
22644W        W87871  25.253  27.494  11.163
22645W        W87872   4.905  14.677  11.514
22646W        W87873  22.201  12.394  13.467
22647W        W87874  37.903  42.518   1.929
22648W        W87875  39.810   8.349  14.033
22649W        W87876  22.669  12.503  10.395
22650W        W87877  39.319  33.995  12.650
22651W        W87878   6.269  18.104  13.033
22652W        W87879   6.236  23.574  10.430
22653W        W87880  40.722  28.022  11.712
22654W        W87881  33.187  35.936  13.596
22655W        W87882  39.362  10.294   2.108
22656W        W87883   0.320  24.533   2.758
22657W        W87884  33.416  25.637  13.727
22658W        W87885  23.360  37.962   2.768
22659W        W87886  20.212  19.580   3.855
22660W        W87887   5.938  23.288  11.946
22661W        W87888  38.050  10.288   3.082
22662W        W87889  44.487  35.320  14.302
22663W        W87890  37.446  25.547  11.517
22664W        W87891   9.806  33.981  11.953
22665W        W87892   9.995  31.133   0.599
22666W        W87893   5.735  20.709   0.827
22667W        W87894   3.007  31.122  13.879
22668W        W87895   7.714   9.380   0.830
22669W        W87896  12.640  39.741  14.007
22670W        W87897  36.546  12.402  14.334
22671W        W87898  16.822  25.946  11.696
22672W        W87899  16.078   7.880   0.360
22673W        W87900  16.990  41.576  13.694
22674W        W87901  18.232   6.972   0.776
22675W        W87902   4.364  32.017   0.291
22676W        W87903   0.713   2.802   4.601
22677W        W87904  20.134   5.515  14.349
22678W        W87905  24.436   5.395  10.450
22679W        W87906  41.644   8.148   0.415
22680W        W87907  23.463   4.805   3.151
22681W        W87908  31.565  11.620   3.235
22682W        W87909  14.211  25.727  11.378
22683W        W87910  30.084  11.919   4.712
22684W        W87911  14.843  21.627  11.013
22685W        W87912   5.803  26.654  11.610
22686W        W87913  44.988  32.631  11.311
22687W        W87914  22.252  29.711   3.495
22688W        W87915  25.037  40.024  14.803
22689W        W87916  31.695  39.116   3.210
22690W        W87917  22.500  34.167   2.815
22691W        W87918  41.970   6.730  14.413
22692W        W87919  36.138  32.559   0.435
22693W        W87920  17.299  29.459   2.441
22694W        W87921  23.067   6.519  13.043
22695W        W87922  34.389   7.789  11.649
22696W        W87923  23.138  41.976   2.114
22697W        W87924  44.352  20.003  11.011
22698W        W87925  30.985  14.773  11.900
22699W        W87926  27.219  44.368  11.195
22700W        W87927  31.456  10.134  10.321
22701W        W87928   3.034  40.443  10.463
22702W        W87929   4.483  26.467  13.614
22703W        W87930   4.407   9.652  11.879
22704W        W87931  44.282  42.963  11.726
22705W        W87932  11.631   0.010  11.521
22706W        W87933   3.221  12.301   2.338
22707W        W87934  27.390  25.342   0.853
22708W        W87935  15.308  33.084  14.911
22709W        W87936  24.426   7.391  11.577
22710W        W87937  41.054  22.549   4.844
22711W        W87938  29.577  36.841   3.185
22712W        W87939  43.092  21.914  13.418
22713W        W87940  36.104  12.355   1.519
22714W        W87941  13.048  19.717   1.614
22715W        W87942  12.120  35.606  14.036
22716W        W87943  11.191   6.667   4.548
22717W        W87944  43.424   1.142   3.814
22718W        W87945   3.112  26.344   5.264
22719W        W87946  20.126  10.129  11.190
22720W        W87947   4.889  19.050  14.401
22721W        W87948  12.236  42.030  10.793
22722W        W87949  30.888  39.858  11.026
22723W        W87950  32.158   5.368  14.920
22724W        W87951  30.846  40.816   3.714
22725W        W87952   2.372  43.643  14.856
22726W        W87953  29.610  31.444   2.740
22727W        W87954  39.053  21.034  12.128
22728W        W87955  12.173  37.926  11.042
22729W        W87956   8.616  13.660  13.901
22730W        W87957  31.120  36.158   5.373
22731W        W87958  41.829  16.593   2.800
22732W        W87959  30.576   4.670   3.093
22733W        W87960  24.008  41.699  14.408
22734W        W87961  19.172  44.483  13.240
22735W        W87962  38.499  24.036  13.362
22736W        W87963  17.930  40.338  12.366
22737W        W87964  19.504  12.981   0.608
22738W        W87965   5.783  30.739   1.931
22739W        W87966  42.309  16.745  13.354
22740W        W87967  41.336  34.930   4.454
22741W        W87968   7.854  36.292  14.840
22742W        W87969   2.819  29.721   0.041
22743W        W87970  41.867  11.801  13.366
22744W        W87971  33.713  31.167  10.395
22745W        W87972  38.571   2.498  13.327
22746W        W87973  25.702  21.216   1.893
22747W        W87974   7.205  36.518   4.619
22748W        W87975  10.929  23.964   1.758
22749W        W87976  27.603  18.197  14.554
22750W        W87977   6.921  43.256  11.899
22751W        W87978   4.703  42.322  10.762
22752W        W87979  33.420  27.169  12.927
22753W        W87980   7.677   1.901  11.504
22754W        W87981  40.294  29.128   2.298
22755W        W87982  24.127  11.758  12.052
22756W        W87983  19.145  24.336   1.401
22757W        W87984  35.822  27.060  11.647
22758W        W87985   2.184   5.446   3.227
22759W        W87986  31.948  29.127   3.347
22760W        W87987   2.906  43.560  11.658
22761W        W87988   8.098  42.829  11.486
22762W        W87989   9.200  22.591   4.217
22763W        W87990  13.898   0.738   3.421
22764W        W87991   5.983   7.763  14.798
22765W        W87992  21.455  31.419  14.468
22766W        W87993   7.333  27.502   4.217
22767W        W87994  38.459  28.935  13.596
22768W        W87995  24.706   2.077   5.533
22769W        W87996  28.559   4.155  12.597
22770W        W87997   9.610  23.494   1.813
22771W        W87998   9.427  36.071   3.593
22772W        W87999  33.559   4.262   0.800
22773W        W88000   2.369  43.889   2.986
22774W        W88001   4.971  28.723   5.008
22775W        W88002  14.455   8.383  14.832
22776W        W88003  32.032  44.509   2.760
22777W        W88004  14.599   0.571   2.819
22778W        W88005   3.535  41.303   0.114
22779W        W88006  32.326  23.629   1.286
22780W        W88007  25.023  37.837   3.421
22781W        W88008   0.285  19.939  10.260
22782W        W88009  42.824  11.761   4.516
22783W        W88010  11.267  32.495  12.840
22784W        W88011   0.194  22.910  13.472
22785W        W88012  29.815   0.223  12.018
22786W        W88013   9.711  37.041   0.507
22787W        W88014  25.403  24.668  14.975
22788W        W88015  41.613  44.510  11.600
22789W        W88016   4.965   3.403  10.390
22790W        W88017  38.678  24.502  13.535
22791W        W88018  42.540  27.289  11.134
22792W        W88019   2.816  27.236   3.099
22793W        W88020  17.715   7.302   2.359
22794W        W88021  37.406   7.099   2.850
22795W        W88022  32.889  18.769   0.927
22796W        W88023  13.646  36.804   3.275
22797W        W88024  27.606  43.328   4.205
22798W        W88025   9.365  13.755   2.848
22799W        W88026  41.467  23.126   2.565
22800W        W88027  39.377  34.826   0.970
22801W        W88028  33.143   9.365  13.348
22802W        W88029  23.562   0.813  13.090
22803W        W88030  21.951  32.543   3.194
22804W        W88031  11.073  12.794  14.935
22805W        W88032   3.485  34.070  11.995
22806W        W88033   7.472   0.002  14.894
22807W        W88034  33.943  31.078   1.413
22808W        W88035  26.057  24.418   1.294
22809W        W88036  19.203  34.060   2.596
22810W        W88037   5.389  11.250  14.867
22811W        W88038  10.080  28.293   3.200
22812W        W88039  26.538  41.597  10.802
22813W        W88040  17.640  42.607   4.103
22814W        W88041  39.616  12.318   2.933
22815W        W88042   5.540  17.067  13.390
22816W        W88043  28.449   6.140   4.129
22817W        W88044  25.661  33.555  11.464
22818W        W88045  14.260   4.952   3.611
22819W        W88046  37.583  13.140  14.284
22820W        W88047   7.235  18.690  12.582
22821W        W88048  31.233  17.165   3.329
22822W        W88049  10.764  15.446   1.726
22823W        W88050  42.332  37.591   4.173
22824W        W88051  43.191   8.729  12.129
22825W        W88052  22.656  11.837  12.050
22826W        W88053  12.322   0.545   2.229
22827W        W88054  17.754  35.929  11.085
22828W        W88055  26.671  44.510   1.967
22829W        W88056   3.667   4.493  14.547
22830W        W88057   8.317  32.996   2.573
22831W        W88058  42.986  40.918  13.091
22832W        W88059  21.177  16.142  10.416
22833W        W88060   9.364  24.690  14.844
22834W        W88061  43.440  11.476   1.586
22835W        W88062  32.183  16.948  10.650
22836W        W88063  25.188  23.518  10.843
22837W        W88064  41.606  19.128   1.162
22838W        W88065  41.359   2.494  13.926
22839W        W88066   6.169  21.220  14.299
22840W        W88067  43.744  12.192   1.143
22841W        W88068  20.402  28.523   4.051
22842W        W88069  41.891  20.178  12.480
22843W        W88070  17.006  22.947   2.194
22844W        W88071  24.047  41.115   1.814
22845W        W88072   5.167  38.976   2.820
22846W        W88073  37.019   6.443   5.286
22847W        W88074  19.645  18.087   0.407
22848W        W88075  24.689   2.375   0.759
22849W        W88076  42.026  13.864  13.408
22850W        W88077  11.131  21.523  11.793
22851W        W88078  34.004  17.299  13.314
22852W        W88079  34.848  32.413   0.790
22853W        W88080  24.543  30.590   3.146
22854W        W88081  23.081   6.199  11.455
22855W        W88082  34.441  19.399  13.761
22856W        W88083   6.673   1.008  14.487
22857W        W88084  14.269  11.932   2.329
22858W        W88085  21.024  42.534  12.532
22859W        W88086  12.674   5.990  11.068
22860W        W88087  21.082  13.583   2.285
22861W        W88088  33.433  13.581   0.303
22862W        W88089  36.404  40.072  12.320
22863W        W88090  16.268  43.881  13.334
22864W        W88091  13.370  22.600  12.481
22865W        W88092  17.109   6.341   4.779
22866W        W88093   0.965   5.289  14.840
22867W        W88094  18.688   7.284   3.718
22868W        W88095  25.688   0.204  11.216
22869W        W88096  26.460  35.074  11.969
22870W        W88097  11.176  13.276  12.572
22871W        W88098  26.415   8.268   0.516
22872W        W88099  11.169  16.171  13.336
22873W        W88100  16.735  20.298  14.883
22874W        W88101  30.887  18.511  14.951
22875W        W88102   4.847  17.675  10.168
22876W        W88103  10.760  27.024   1.641
22877W        W88104  44.507  23.050   1.032
22878W        W88105  20.552  35.244  12.906
22879W        W88106  41.434  34.018  13.905
22880W        W88107  33.010  44.645   0.799
22881W        W88108   2.276  19.080  12.358
22882W        W88109  15.795  24.088  12.020
22883W        W88110  28.786  24.573  11.257
22884W        W88111   9.764  29.369  14.079
22885W        W88112  41.923  38.116  12.430
22886W        W88113   0.771   0.995   2.807
22887W        W88114   7.418  15.202   0.725
22888W        W88115  14.081  11.256   0.516
22889W        W88116  22.665  41.549  13.556
22890W        W88117  24.969   3.811   0.801
22891W        W88118  32.196  32.635  11.037
22892W        W88119   0.971  13.720  14.431
22893W        W88120  42.965  18.106   3.225
22894W        W88121  26.195  23.183   3.018
22895W        W88122  34.929   9.199  10.513
22896W        W88123  35.322  23.589  11.720
22897W        W88124  18.738   0.118   4.708
22898W        W88125   1.444  10.845   2.251
22899W        W88126  11.632  14.169  13.399
22900W        W88127   3.289  17.124   1.484
22901W        W88128  15.224  35.721   4.452
22902W        W88129   2.618   1.979   2.681
22903W        W88130   3.414  23.006   1.183
22904W        W88131  33.837  39.562  13.909
22905W        W88132  40.442  41.324   4.977
22906W        W88133   0.582  38.999   4.432
22907W        W88134  19.749  14.605   3.771
22908W        W88135  23.329  16.316   0.731
22909W        W88136  15.768  33.629   1.161
22910W        W88137  27.234  26.510  11.984
22911W        W88138  33.054  10.955   2.261
22912W        W88139  17.173   8.606   5.116
22913W        W88140  26.549  32.147  11.893
22914W        W88141   8.202  40.307  14.909
22915W        W88142  25.130  37.036   4.022
22916W        W88143  43.148  15.795  12.278
22917W        W88144   4.376   6.827   4.918
22918W        W88145  31.098  34.120   1.341
22919W        W88146  16.617  29.085   0.839
22920W        W88147  42.479  11.822   1.572
22921W        W88148  30.051   9.927  14.028
22922W        W88149  35.883  24.516  11.508
22923W        W88150  29.975  14.615  13.159
22924W        W88151  38.995  17.609   2.796
22925W        W88152  42.307  13.678   4.797
22926W        W88153  11.642   0.752   1.424
22927W        W88154  42.579  35.572  11.230
22928W        W88155  37.596   6.871   4.944
22929W        W88156   5.459  36.980   0.435
22930W        W88157  17.680   0.933   0.717
22931W        W88158   3.754   2.961   2.677
22932W        W88159   3.232  20.110   4.709
22933W        W88160  14.894  39.652  14.086
22934W        W88161  13.566  44.907  13.851
22935W        W88162  31.106  26.092  14.757
22936W        W88163  39.395  34.625   3.782
22937W        W88164  40.841  42.284  13.485
22938W        W88165  21.981  24.292  12.558
22939W        W88166  41.276   8.733  11.186
22940W        W88167  36.661   3.380  13.369
22941W        W88168  20.228  12.402  11.673
22942W        W88169   0.014  13.993   2.644
22943W        W88170  35.944  14.110   4.285
22944W        W88171   6.739   6.220   2.187
22945W        W88172  25.537  41.797   4.469
22946W        W88173   2.647  13.077  12.350
22947W        W88174  37.366  36.867   1.456
22948W        W88175  26.610   3.924   0.164
22949W        W88176  18.945  42.959   4.111
22950W        W88177  33.883  27.013  13.642
22951W        W88178  37.292  36.309   2.801
22952W        W88179  28.909  40.344   2.393
22953W        W88180   2.294   2.632  12.063
22954W        W88181  43.955  24.141   1.520
22955W        W88182   0.606  37.662  14.361
22956W        W88183  39.033   2.344  14.335
22957W        W88184  39.268  26.136   2.592
22958W        W88185  38.711  43.703  14.035
22959W        W88186  36.312   0.901  13.842
22960W        W88187  33.670  23.345  13.203
22961W        W88188  36.325  23.599   5.074
22962W        W88189  16.436  32.828   3.831
22963W        W88190   6.615   7.719  14.211
22964W        W88191  26.124  44.762   0.974
22965W        W88192   8.684  31.865  12.617
22966W        W88193  32.641  35.716  14.873
22967W        W88194  17.700  14.243  12.282
22968W        W88195  37.083  33.101  10.856
22969W        W88196   3.298   5.785   0.858
22970W        W88197   7.814  12.678   3.313
22971W        W88198  23.312  44.224   1.267
22972W        W88199  23.961  18.135   3.338
22973W        W88200   7.797  33.093  10.469
22974W        W88201  29.769   3.680  14.505
22975W        W88202   0.360   8.335  11.972
22976W        W88203  13.119  22.149  13.839
22977W        W88204  40.969  37.501  11.233
22978W        W88205   0.317   4.230   4.674
22979W        W88206   9.954  27.891  11.364
22980W        W88207   6.520  44.206   4.139
22981W        W88208   4.860  29.669  13.202
22982W        W88209   0.829  39.018   1.250
22983W        W88210  19.653  15.855  10.577
22984W        W88211  40.752  23.780   3.983
22985W        W88212   2.734  14.585  13.941
22986W        W88213  44.254  20.215   3.313
22987W        W88214  37.223  38.581  11.113
22988W        W88215  18.181   8.428   3.677
22989W        W88216  27.090  37.024  13.958
22990W        W88217  43.561   8.760  11.779
22991W        W88218  12.348   3.362  11.551
22992W        W88219  29.381  34.987   4.519
22993W        W88220  43.917   8.312  11.043
22994W        W88221  13.224   0.757  11.267
22995W        W88222  44.636  24.703  12.705
22996W        W88223  28.909  26.685  12.896
22997W        W88224  13.357  24.507   3.860
22998W        W88225  44.814  44.240  12.312
22999W        W88226  33.802  29.084  13.371
23000W        W88227   4.478  32.234   0.758
23001W        W88228  33.308  44.013  11.743
23002W        W88229  25.835   3.967  14.045
23003W        W88230  35.053  32.138  13.075
23004W        W88231  18.829  37.528   1.301
23005W        W88232  16.139  15.483   4.526
23006W        W88233   3.149  10.850  11.203
23007W        W88234  39.295  20.450   0.799
23008W        W88235  33.912  34.351   1.458
23009W        W88236  13.365  20.559   1.648
23010W        W88237   9.788  19.009   4.540
23011W        W88238  29.617   0.299   2.179
23012W        W88239   8.280   8.110  12.934
23013W        W88240  36.442  36.679  14.500
23014W        W88241   7.079  16.235  14.727
23015W        W88242   8.121  15.126   3.660
23016W        W88243  20.063  16.675  14.868
23017W        W88244  22.002  13.805  12.651
23018W        W88245   3.384  16.158  10.735
23019W        W88246  27.945  16.521  13.234
23020W        W88247  35.313  12.174   3.663
23021W        W88248  16.079  19.760   0.952
23022W        W88249  31.083   9.156  11.106
23023W        W88250  35.360   3.921  11.844
23024W        W88251  34.050  14.563  11.196
23025W        W88252   6.962  28.194  11.580
23026W        W88253   2.161  40.827  13.001
23027W        W88254  35.879  13.255   4.567
23028W        W88255  21.110   6.245   2.361
23029W        W88256  38.818  29.252  13.439
23030W        W88257  11.848  34.655   3.523
23031W        W88258  14.135  11.708   2.799
23032W        W88259  21.105  15.563   4.546
23033W        W88260  35.520  36.446  10.135
23034W        W88261  26.532   9.856   0.589
23035W        W88262  44.340  30.601  10.671
23036W        W88263  40.126  22.794   4.550
23037W        W88264  19.600  43.179   2.099
23038W        W88265  17.450   6.355  13.326
23039W        W88266   7.337  10.582  14.874
23040W        W88267  44.710  30.558  14.450
23041W        W88268  20.222  13.586  13.096
23042W        W88269  36.336  20.016  13.824
23043W        W88270  23.885  22.470   9.918
23044W        W88271   8.675  16.815  12.138
23045W        W88272  39.764   5.452  12.719
23046W        W88273  23.995   8.084   0.328
23047W        W88274  39.269   7.122  13.932
23048W        W88275  31.181  39.325   5.398
23049W        W88276  13.904  33.744  10.276
23050W        W88277  26.648  21.327   2.810
23051W        W88278  22.441   2.185   4.063
23052W        W88279   3.653  31.785   4.514
23053W        W88280   4.809   9.480  13.521
23054W        W88281   7.132  35.360  12.879
23055W        W88282  32.985  41.665  14.033
23056W        W88283  22.627   5.140  11.674
23057W        W88284  37.294  22.835  14.386
23058W        W88285  14.895  44.838  10.355
23059W        W88286   0.958  13.025  12.245
23060W        W88287   8.821  14.157  10.696
23061W        W88288  24.233  23.499  12.073
23062W        W88289   9.603  42.450  13.778
23063W        W88290  32.485  32.441   3.629
23064W        W88291  10.829  16.134   0.545
23065W        W88292  22.589  32.435  14.057
23066W        W88293  16.908  14.189  11.489
23067W        W88294  39.073  38.552   2.793
23068W        W88295  43.899   1.843   3.458
23069W        W88296   4.835   6.461   0.909
23070W        W88297   8.788  27.588  14.236
23071W        W88298   0.749   7.801   0.783
23072W        W88299   2.675  39.442  13.396
23073W        W88300  30.108   5.276  11.749
23074W        W88301   8.179  38.916   0.251
23075W        W88302   3.019  29.052   2.289
23076W        W88303  38.338  28.156   3.707
23077W        W88304  17.145   4.420   0.763
23078W        W88305  28.009  13.514   3.738
23079W        W88306  31.106  11.443   4.167
23080W        W88307  42.856  42.853  11.690
23081W        W88308  22.010   4.835  13.025
23082W        W88309  33.184  39.372  11.175
23083W        W88310   0.397  42.111   0.859
23084W        W88311  27.913  25.666  12.851
23085W        W88312  14.324   3.442  14.410
23086W        W88313   9.642  37.580   3.769
23087W        W88314  12.338  13.996  12.012
23088W        W88315  37.912   3.625   1.632
23089W        W88316   4.999  44.397   1.697
23090W        W88317  37.130  22.488   0.498
23091W        W88318  34.002  44.763  14.260
23092W        W88319  27.910   1.788  10.624
23093W        W88320  24.802  19.768  14.930
23094W        W88321  23.737   9.207   2.599
23095W        W88322  43.261   0.742   1.226
23096W        W88323   7.221  23.451   3.641
23097W        W88324  29.951  16.227   1.431
23098W        W88325  21.449  30.608   2.853
23099W        W88326  35.166  17.166   1.190
23100W        W88327   9.716  12.724   0.502
23101W        W88328   7.221  16.041  12.498
23102W        W88329   6.662  13.196   1.696
23103W        W88330  13.643  37.597   2.290
23104W        W88331  11.597   5.796  10.581
23105W        W88332  16.829  40.931  12.081
23106W        W88333   2.478   9.301   3.753
23107W        W88334  32.939  38.888   3.303
23108W        W88335  34.931  15.813   1.652
23109W        W88336   9.140  39.321  12.921
23110W        W88337   5.907  29.476  13.527
23111W        W88338  11.260  30.494   9.703
23112W        W88339   5.977  32.785   2.181
23113W        W88340  28.092  15.514  13.567
23114W        W88341  39.015   7.354  11.561
23115W        W88342  25.564  11.716   4.359
23116W        W88343  32.333  21.847  11.116
23117W        W88344  13.093  13.402   4.205
23118W        W88345  36.126  10.199   2.695
23119W        W88346   9.727  33.109   2.436
23120W        W88347  20.466  24.523  13.010
23121W        W88348   5.476  29.016   1.143
23122W        W88349  41.072  40.803   3.183
23123W        W88350  35.631  22.514   4.550
23124W        W88351   5.640  15.791  10.637
23125W        W88352  36.342  28.593  11.074
23126W        W88353  21.131  12.343   3.775
23127W        W88354  39.674  23.749   1.974
23128W        W88355  35.194   8.427   3.649
23129W        W88356   7.276  30.067   4.282
23130W        W88357  28.582   7.853   2.284
23131W        W88358  37.552   4.706   2.893
23132W        W88359  11.673  21.219  10.850
23133W        W88360  37.927  10.660   2.323
23134W        W88361  15.526  30.320  11.311
23135W        W88362   2.867  32.034   0.226
23136W        W88363   5.330   3.303  11.202
23137W        W88364  26.535  33.251   0.022
23138W        W88365  44.460  24.129   0.771
23139W        W88366  19.956  37.774  11.585
23140W        W88367   9.626  38.655  10.739
23141W        W88368  14.125  44.586   3.812
23142W        W88369  35.578  21.340  12.337
23143W        W88370  43.186  17.698  14.249
23144W        W88371  19.750  29.859  14.052
23145W        W88372  12.845  29.920   0.622
23146W        W88373  16.808   9.511   3.355
23147W        W88374   5.970  40.011  14.517
23148W        W88375  35.953   6.320   2.885
23149W        W88376  20.231  16.974  14.387
23150W        W88377  18.635  31.155  12.059
23151W        W88378  35.567  19.090  14.375
23152W        W88379  19.960  18.706   4.916
23153W        W88380  14.121   0.457   0.848
23154W        W88381  30.480   8.948   3.675
23155W        W88382  12.887  32.519  13.928
23156W        W88383  29.199  35.378  12.110
23157W        W88384   2.274  17.014  13.132
23158W        W88385   4.416   9.856  12.369
23159W        W88386   3.130  16.239  11.631
23160W        W88387  30.168  19.247   2.302
23161W        W88388  15.541  37.529  11.030
23162W        W88389  44.801  10.200  14.988
23163W        W88390  40.990  42.471   2.626
23164W        W88391  44.818   6.753  12.360
23165W        W88392  19.713  24.766   0.817
23166W        W88393  18.789  28.658   0.713
23167W        W88394  12.706  23.598   1.751
23168W        W88395  37.566  14.827  14.046
23169W        W88396  40.351   4.663  14.869
23170W        W88397  36.022  11.604  11.440
23171W        W88398   8.177   0.515  13.565
23172W        W88399  28.950  44.913  14.092
23173W        W88400  30.956  34.658  14.769
23174W        W88401  29.874  13.064   0.840
23175W        W88402  28.881  29.930   2.728
23176W        W88403   7.009   4.417  14.078
23177W        W88404  16.707  12.751  13.530
23178W        W88405  11.763  21.979   4.496
23179W        W88406  26.397  22.621  12.732
23180W        W88407   8.232  32.225   5.115
23181W        W88408  25.169  41.324   3.298
23182W        W88409  21.616  38.570   2.782
23183W        W88410  39.850  15.022   0.959
23184W        W88411  16.835   7.912  10.598
23185W        W88412  22.352  24.298   2.171
23186W        W88413  41.557  20.152  12.088
23187W        W88414  42.929  35.924  11.389
23188W        W88415  16.706  26.642  14.866
23189W        W88416  41.845   7.186   4.053
23190W        W88417   2.575   9.228  12.303
23191W        W88418  35.477   1.484   2.461
23192W        W88419  42.310  36.139   0.355
23193W        W88420  38.912  21.137  13.478
23194W        W88421  19.230  35.957   0.447
23195W        W88422  14.814  33.876   4.870
23196W        W88423  21.108  36.419   0.037
23197W        W88424  19.101   9.691  10.547
23198W        W88425  20.948  36.985   0.890
23199W        W88426  40.566   8.883   3.218
23200W        W88427  32.575  41.355  14.264
23201W        W88428  11.334   4.250  12.445
23202W        W88429   6.756   8.222   0.777
23203W        W88430   0.986  13.201   3.859
23204W        W88431  25.808  24.081  12.852
23205W        W88432   2.305  28.836   5.492
23206W        W88433   0.236  23.225   2.397
23207W        W88434  22.594  35.530   0.651
23208W        W88435  21.877   8.942   1.673
23209W        W88436  32.235  24.580  11.605
23210W        W88437  34.314  27.866   5.013
23211W        W88438   2.872  38.410   4.334
23212W        W88439  26.823  44.960   4.048
23213W        W88440  41.089  32.537   0.010
23214W        W88441  24.761  17.245  13.639
23215W        W88442   7.314  23.487   1.617
23216W        W88443  13.822  10.368  11.077
23217W        W88444   8.257  39.784  14.839
23218W        W88445  13.410   2.267  11.264
23219W        W88446  20.132  17.560  12.463
23220W        W88447  30.514  18.117   0.545
23221W        W88448   4.955   3.289   0.845
23222W        W88449  25.074  40.058   4.634
23223W        W88450  19.264  17.910  14.686
23224W        W88451  32.940  12.853  10.296
23225W        W88452   8.301  18.163  12.097
23226W        W88453  26.493  29.711  12.959
23227W        W88454  26.205  29.057  11.621
23228W        W88455  43.103   7.884  10.977
23229W        W88456  37.928   3.073  12.001
23230W        W88457  44.600  25.208  12.804
23231W        W88458  41.986  22.726  14.878
23232W        W88459  26.459   4.096  12.956
23233W        W88460  39.633   0.834  12.160
23234W        W88461   0.802   6.478   3.664
23235W        W88462  42.812  39.704   1.297
23236W        W88463  38.440  28.008  11.377
23237W        W88464  40.840   7.632   2.063
23238W        W88465   0.043   3.457   1.283
23239W        W88466   1.447  38.790  11.908
23240W        W88467  31.073  15.090  11.204
23241W        W88468  25.804   1.612  10.084
23242W        W88469  26.874  29.647   4.302
23243W        W88470  36.496  17.496  14.992
23244W        W88471  29.435  24.112  10.665
23245W        W88472   9.595  28.487  11.185
23246W        W88473  44.402  15.500   3.656
23247W        W88474  12.164  28.625  14.980
23248W        W88475  26.344  44.320  14.247
23249W        W88476  40.799  22.295  14.456
23250W        W88477  40.936  36.239   3.386
23251W        W88478  21.040  18.691  14.214
23252W        W88479  11.106   0.366  13.189
23253W        W88480  30.511   1.971   2.264
23254W        W88481  44.060  29.245   1.205
23255W        W88482  21.605  39.959  10.717
23256W        W88483  15.964   9.244   5.181
23257W        W88484  39.064  15.422   4.154
23258W        W88485   5.493  31.586   1.507
23259W        W88486  44.977  15.295   3.221
23260W        W88487   2.583  35.940  14.609
23261W        W88488  23.951  31.426   1.673
23262W        W88489  30.206  20.848  12.200
23263W        W88490  38.564  19.644  10.350
23264W        W88491  28.248  27.067  10.709
23265W        W88492  25.742  38.047  11.203
23266W        W88493  28.078   5.327   2.524
23267W        W88494   8.167  13.140  11.082
23268W        W88495  18.292  33.043   3.826
23269W        W88496  18.233  33.116  13.017
23270W        W88497  28.160  42.974   0.514
23271W        W88498  13.409  42.382   3.722
23272W        W88499  37.983  41.229  12.139
23273W        W88500   6.502   6.107  12.138
23274W        W88501  22.215  37.157   0.051
23275W        W88502  34.826  14.809  14.355
23276W        W88503   8.538  40.976  12.050
23277W        W88504   4.866   9.676  13.994
23278W        W88505  39.614   3.101   3.013
23279W        W88506  29.478  39.999  13.238
23280W        W88507   2.380  40.116  14.491
23281W        W88508  11.418  14.282  10.977
23282W        W88509  25.562  31.372  12.081
23283W        W88510  20.910  13.270  12.889
23284W        W88511  27.957   4.858   2.305
23285W        W88512  35.804   3.754   0.826
23286W        W88513   0.885  22.464   1.438
23287W        W88514  36.984  27.349  11.966
23288W        W88515  21.659   5.748   4.529
23289W        W88516   3.991   7.445  13.487
23290W        W88517  16.863   9.318  14.842
23291W        W88518  33.876  26.919  13.135
23292W        W88519  35.087   3.472  10.757
23293W        W88520  24.097  38.479  10.679
23294W        W88521   2.742  22.667   4.644
23295W        W88522  25.371   0.065  10.216
23296W        W88523  42.880  29.614  14.840
23297W        W88524  14.785  35.407   0.789
23298W        W88525  26.470  33.853  10.918
23299W        W88526  38.618  12.421  14.902
23300W        W88527  11.623  20.764  12.065
23301W        W88528   2.336  29.996  11.491
23302W        W88529  32.527   1.085   1.753
23303W        W88530  19.711   8.587   4.847
23304W        W88531   6.944   0.016  14.817
23305W        W88532  30.265  31.429   1.490
23306W        W88533   0.859  18.349  12.135
23307W        W88534  10.572  10.347   0.368
23308W        W88535   5.055  27.442  10.434
23309W        W88536  15.668  20.175   1.743
23310W        W88537  33.084  15.749   1.902
23311W        W88538   9.254  29.181  14.406
23312W        W88539  12.331  16.094   0.875
23313W        W88540  36.571  22.669   4.178
23314W        W88541  28.463  22.575  10.781
23315W        W88542  10.857  31.247  14.001
23316W        W88543  15.577   5.616   2.804
23317W        W88544  32.719  40.831   3.250
23318W        W88545  33.386   6.199  12.780
23319W        W88546   9.401  13.811  14.330
23320W        W88547  13.338  37.559  12.878
23321W        W88548  41.571  27.951  13.472
23322W        W88549  30.532  14.642   4.555
23323W        W88550  41.115   7.625   1.160
23324W        W88551  40.577   2.753  14.869
23325W        W88552   0.788  23.669  13.937
23326W        W88553  37.892   1.695  11.569
23327W        W88554  33.699  38.284   4.498
23328W        W88555  34.076   8.211  11.408
23329W        W88556  30.944  39.086  11.574
23330W        W88557  37.236  34.483   2.868
23331W        W88558  17.881  27.607  11.482
23332W        W88559  21.039  37.408   3.170
23333W        W88560  23.422  37.094   4.699
23334W        W88561  13.498  37.006  13.804
23335W        W88562   5.775  19.230  12.817
23336W        W88563  38.479   0.875  11.579
23337W        W88564   6.296   2.698   3.175
23338W        W88565  35.500  30.849  11.001
23339W        W88566  24.639  24.569   4.761
23340W        W88567   3.691  29.374  14.289
23341W        W88568   3.390   0.738  13.295
23342W        W88569  28.487  43.483  10.761
23343W        W88570  41.430   6.755  14.397
23344W        W88571   9.236   0.955   2.697
23345W        W88572  33.698  40.496  13.906
23346W        W88573  18.986   8.910   4.104
23347W        W88574  41.320  38.112  12.854
23348W        W88575  25.666  41.579  14.401
23349W        W88576  29.598  44.783   2.881
23350W        W88577  38.312  19.154  13.729
23351W        W88578  27.171  40.277  12.396
23352W        W88579  25.135  12.042  14.789
23353W        W88580   8.804  30.095  11.744
23354W        W88581  37.447  38.757   4.546
23355W        W88582  29.520   3.627  11.713
23356W        W88583  21.996   4.393  11.723
23357W        W88584  13.182  12.214  12.330
23358W        W88585  30.690   2.225   3.600
23359W        W88586  12.108  21.734   3.547
23360W        W88587  30.385  19.817   3.145
23361W        W88588  19.823   4.116  14.448
23362W        W88589  44.332   0.516   0.833
23363W        W88590  24.967   2.497   1.946
23364W        W88591  11.658  18.474  12.985
23365W        W88592  18.240  40.783   0.803
23366W        W88593   9.232  31.467   3.974
23367W        W88594   1.366  23.551   2.717
23368W        W88595   0.213  39.478  11.446
23369W        W88596  21.815   2.924   0.565
23370W        W88597  24.269  25.043   1.393
23371W        W88598   7.355  22.531   2.711
23372W        W88599  18.571  23.072  11.412
23373W        W88600  11.886  24.030   2.698
23374W        W88601  39.966  28.520   3.193
23375W        W88602   1.892  18.248  11.556
23376W        W88603   2.145  40.019   4.539
23377W        W88604   3.516  41.909   3.278
23378W        W88605  37.343  32.579  13.319
23379W        W88606   0.704  17.140  10.975
23380W        W88607  38.020  25.033   1.265
23381W        W88608  29.186  20.056   3.841
23382W        W88609  38.876   7.864  10.613
23383W        W88610  43.356  39.449   3.799
23384W        W88611  36.673  38.487  11.141
23385W        W88612  44.265  33.510   2.072
23386W        W88613  29.616  39.376   2.813
23387W        W88614  38.771  33.009   3.568
23388W        W88615  24.118   2.299  13.572
23389W        W88616  25.496   9.147  14.995
23390W        W88617   1.988   5.350   1.857
23391W        W88618  10.559   9.630   3.684
23392W        W88619  31.669  33.544  13.998
23393W        W88620  34.507  40.712   1.197
23394W        W88621   7.730  13.051   4.124
23395W        W88622  30.991   6.260   3.524
23396W        W88623  43.008  17.674   0.405
23397W        W88624   8.442  35.430   4.137
23398W        W88625  31.776  41.793  12.612
23399W        W88626   8.977   9.647  12.981
23400W        W88627  12.894   8.347   0.023
23401W        W88628  31.199   2.856   4.061
23402W        W88629  35.920  18.238  12.170
23403W        W88630  42.942   2.746  10.792
23404W        W88631   3.703   1.721  12.496
23405W        W88632  42.812   3.727   2.000
23406W        W88633  31.296  34.954  12.058
23407W        W88634  35.602  31.525  13.567
23408W        W88635  39.917   8.819  14.720
23409W        W88636  16.551   0.504  13.028
23410W        W88637  17.472   2.969  12.915
23411W        W88638  20.104  27.507   1.957
23412W        W88639  21.792  43.066   4.060
23413W        W88640  12.890  42.084  11.562
23414W        W88641  26.336  42.026  14.896
23415W        W88642  26.768  34.872   1.894
23416W        W88643  38.807  34.612  11.193
23417W        W88644  28.879   4.024  11.099
23418W        W88645   1.228   7.674  12.854
23419W        W88646  42.726   3.555   4.104
23420W        W88647  36.464  42.279  10.865
23421W        W88648  33.921  36.640  14.326
23422W        W88649   7.861   9.249  11.206
23423W        W88650  33.637  19.956   1.695
23424W        W88651  24.424  19.848   1.388
23425W        W88652   2.488  25.230  14.383
23426W        W88653  42.387  42.006  12.490
23427W        W88654  42.505   2.756   0.649
23428W        W88655   9.172  39.220   2.064
23429W        W88656  24.455  24.595   0.408
23430W        W88657  16.678   1.008  12.592
23431W        W88658  24.178  31.560  14.458
23432W        W88659   5.159  42.329   0.361
23433W        W88660   0.991  29.157   4.131
23434W        W88661  17.995  43.491  11.640
23435W        W88662   0.576  16.520   4.486
23436W        W88663  17.622  22.426   4.925
23437W        W88664  33.897  44.621  11.172
23438W        W88665  41.347  13.604  14.079
23439W        W88666  23.550   6.276  11.286
23440W        W88667  10.803   7.353   4.856
23441W        W88668  19.576  27.626  13.892
23442W        W88669  19.296   7.580   2.104
23443W        W88670  35.472   1.434  14.563
23444W        W88671  35.658  36.200  10.975
23445W        W88672  15.998  26.556  12.401
23446W        W88673  23.178  12.781  11.019
23447W        W88674  22.344   5.660   0.502
23448W        W88675   9.680  35.912  13.341
23449W        W88676  29.577   2.113  11.948
23450W        W88677   7.522  30.026  13.459
23451W        W88678   9.866   2.866  14.599
23452W        W88679  43.731  20.844  14.967
23453W        W88680  13.579  22.608   4.299
23454W        W88681  31.344  32.573  12.952
23455W        W88682   1.487   7.164   2.743
23456W        W88683  25.993   2.907   0.923
23457W        W88684   2.008  35.217   4.992
23458W        W88685  24.868   2.721   3.426
23459W        W88686   9.839  39.592   3.818
23460W        W88687  28.737  27.947  14.399
23461W        W88688  43.140  35.832   4.072
23462W        W88689  44.381  15.067  11.994
23463W        W88690  34.289  40.832  12.512
23464W        W88691  14.350  35.464  13.092
23465W        W88692  10.728  31.820   5.106
23466W        W88693  33.827   2.217   0.437
23467W        W88694  31.376  31.697   0.789
23468W        W88695  36.338  39.030  12.630
23469W        W88696   4.812  32.086  14.030
23470W        W88697  10.115  18.428   0.829
23471W        W88698  29.780   3.106   0.460
23472W        W88699  31.711  33.692   0.338
23473W        W88700  30.709   3.432  12.503
23474W        W88701  44.414  30.804  11.979
23475W        W88702  35.719  13.087   4.105
23476W        W88703  15.615  20.531  12.601
23477W        W88704  36.573  12.395  12.471
23478W        W88705  39.283  38.587  11.152
23479W        W88706  13.221   6.758  11.233
23480W        W88707  19.144   8.467   3.917
23481W        W88708  24.226  32.602  14.017
23482W        W88709  16.503  14.231   1.890
23483W        W88710  11.555  40.853   3.643
23484W        W88711  13.828  18.334  13.442
23485W        W88712   7.065  20.311  11.925
23486W        W88713  39.933  42.878  11.123
23487W        W88714   8.540  32.559   2.734
23488W        W88715  43.215  32.968   2.982
23489W        W88716   6.934  17.875   3.238
23490W        W88717  34.891   5.401   2.298
23491W        W88718  12.574  23.733  13.985
23492W        W88719  42.102  15.883  13.655
23493W        W88720  18.762   1.716   3.852
23494W        W88721   3.326   6.429  12.131
23495W        W88722   2.534  33.812  13.080
23496W        W88723  10.432  29.525   1.220
23497W        W88724  11.667   3.958   2.069
23498W        W88725  27.710  13.764   1.347
23499W        W88726   7.187   1.401   1.293
23500W        W88727  43.711  35.811  10.772
23501W        W88728  15.787  39.078  12.993
23502W        W88729  23.566  39.988  12.595
23503W        W88730   2.985  27.124  12.344
23504W        W88731  31.419  29.605   1.336
23505W        W88732   0.010  33.970   0.095
23506W        W88733  26.104  23.523  14.025
23507W        W88734   9.231  25.640  14.898
23508W        W88735   2.011  38.335  14.950
23509W        W88736  13.196  33.035   2.365
23510W        W88737  19.195  35.584   3.625
23511W        W88738  10.646   5.675  14.664
23512W        W88739  14.641  43.822   3.674
23513W        W88740  29.927  36.394   3.621
23514W        W88741  22.425  18.484   1.268
23515W        W88742  39.835  44.798  13.663
23516W        W88743  38.478  14.755  14.831
23517W        W88744  25.669   2.510   4.551
23518W        W88745  43.859  44.635   0.422
23519W        W88746  24.117  35.060   0.066
23520W        W88747  23.620  37.154   1.887
23521W        W88748  25.534  25.835  13.819
23522W        W88749   7.082  19.061   1.268
23523W        W88750   4.540   3.074  12.259
23524W        W88751  27.494  17.287   4.828
23525W        W88752  40.368  12.719   2.785
23526W        W88753  35.417   9.126   1.878
23527W        W88754   8.134   4.940   1.062
23528W        W88755  23.962  44.071  12.517
23529W        W88756  15.209  32.951   4.286
23530W        W88757  33.390  20.497   1.245
23531W        W88758  31.727  26.966   2.522
23532W        W88759  34.912  16.884  10.982
23533W        W88760  16.115  15.082  12.015
23534W        W88761  23.228   9.248   3.145
23535W        W88762  41.395  32.842  13.510
23536W        W88763  44.275  37.258   4.024
23537W        W88764  23.644  33.069   0.247
23538W        W88765  28.460   4.409   3.890
23539W        W88766  35.953  30.873   3.261
23540W        W88767  44.579   9.990   2.772
23541W        W88768  29.845  38.297  13.872
23542W        W88769   2.873  29.874   0.581
23543W        W88770  36.719   0.068  12.821
23544W        W88771  35.897  17.131   3.245
23545W        W88772  10.445   7.407  14.902
23546W        W88773  33.722  14.455   5.022
23547W        W88774  36.084  39.556  13.462
23548W        W88775  44.324  16.618  13.525
23549W        W88776  24.955   3.245  14.009
23550W        W88777  40.768  35.830  11.149
23551W        W88778  22.829  15.570  12.631
23552W        W88779   8.532  35.388  10.260
23553W        W88780  33.221  26.104  13.876
23554W        W88781  21.171  11.272   2.644
23555W        W88782  15.166  31.884  11.868
23556W        W88783  40.326  36.948  10.696
23557W        W88784  36.799  33.575  10.662
23558W        W88785  41.244  39.487   1.217
23559W        W88786  41.962  22.756  11.508
23560W        W88787   6.628  38.438  12.024
23561W        W88788   0.259  37.387  14.048
23562W        W88789  41.883  43.901  13.286
23563W        W88790  39.435  27.094  13.056
23564W        W88791  29.997  14.777  13.674
23565W        W88792   2.875  24.383   1.338
23566W        W88793  11.010  31.690  10.307
23567W        W88794   2.139  10.130  11.724
23568W        W88795  16.227   8.722  12.086
23569W        W88796  10.673   1.440   2.402
23570W        W88797  35.380  16.118   3.775
23571W        W88798  12.253  26.967  11.441
23572W        W88799   6.616  23.234  10.277
23573W        W88800  33.115  24.941   1.349
23574W        W88801   1.250  31.857   0.610
23575W        W88802   6.141  31.889  11.717
23576W        W88803   7.376   3.305  12.173
23577W        W88804  33.126  12.802  12.987
23578W        W88805   7.686  14.101  12.578
23579W        W88806  14.337  31.139  12.512
23580W        W88807  41.542  12.225   0.022
23581W        W88808  43.385  23.833   3.696
23582W        W88809   4.783   6.608  14.336
23583W        W88810  19.791  29.656  12.659
23584W        W88811  26.535   4.420   4.526
23585W        W88812  39.889  41.732  12.883
23586W        W88813  39.407   7.134   1.777
23587W        W88814   9.368   3.221   2.277
23588W        W88815  35.810  24.437   2.768
23589W        W88816  42.998  28.504  11.029
23590W        W88817  43.245  20.519   0.838
23591W        W88818   7.707  10.419   1.845
23592W        W88819  38.932   2.544  14.797
23593W        W88820  12.382  35.400   1.878
23594W        W88821  44.487  29.523  10.663
23595W        W88822  40.364  23.804  11.096
23596W        W88823  36.459   9.785   4.599
23597W        W88824  35.821  23.251  13.901
23598W        W88825  31.070  14.444   1.374
23599W        W88826  34.516   9.388   2.096
23600W        W88827  12.263   3.357  12.629
23601W        W88828  12.317  30.474   4.450
23602W        W88829  12.470  31.878  11.193
23603W        W88830  17.280  20.616  13.096
23604W        W88831  41.926   0.722   1.737
23605W        W88832   4.922  30.408  12.455
23606W        W88833   0.405   2.921  12.165
23607W        W88834   5.585   3.318   4.653
23608W        W88835  16.514   0.484  11.234
23609W        W88836  44.318  29.596  14.084
23610W        W88837  40.329   4.041  11.583
23611W        W88838  26.941  20.779  13.877
23612W        W88839   7.630  28.147  10.323
23613W        W88840  22.471   2.760   0.790
23614W        W88841  33.629  13.210   4.909
23615W        W88842  24.734  40.582   1.200
23616W        W88843  20.082  19.829   1.506
23617W        W88844  37.449  41.068  14.853
23618W        W88845   0.967  24.406   1.411
23619W        W88846  17.359   3.855  12.778
23620W        W88847  17.479  27.174   3.049
23621W        W88848  17.709   4.252  11.085
23622W        W88849   3.390  21.340   4.020
23623W        W88850  42.721  24.078   3.256
23624W        W88851  15.846  11.396   2.165
23625W        W88852  38.884  22.773   1.638
23626W        W88853  25.123   9.886   0.821
23627W        W88854  20.271  42.802  14.686
23628W        W88855  21.183   7.898   0.465
23629W        W88856   6.198   4.877   3.004
23630W        W88857  19.654  25.699   4.356
23631W        W88858  22.952  37.800  14.998
23632W        W88859  17.480  25.640  14.899
23633W        W88860  38.461  25.106  12.954
23634W        W88861   7.068  14.052   2.669
23635W        W88862  27.424  19.017   3.304
23636W        W88863  40.256  42.199  14.105
23637W        W88864  14.367  11.928   3.266
23638W        W88865  11.033  31.064   4.506
23639W        W88866  15.679  13.264   0.529
23640W        W88867   6.903  31.442   0.814
23641W        W88868  14.241  28.588   1.336
23642W        W88869  32.476   0.467  14.505
23643W        W88870  39.358   5.920   4.403
23644W        W88871   1.795  19.700   2.689
23645W        W88872  36.166   7.194   1.020
23646W        W88873  38.679  31.959   1.302
23647W        W88874  24.651  19.589   4.329
23648W        W88875  28.595  33.165  12.647
23649W        W88876  37.771  18.094  11.170
23650W        W88877  13.690  32.529  14.521
23651W        W88878  19.913   0.435   9.807
23652W        W88879  17.416  19.036  12.014
23653W        W88880  40.153  17.640  13.090
23654W        W88881  38.073  38.007   3.253
23655W        W88882  20.493  25.773   0.311
23656W        W88883  12.167   1.876  13.836
23657W        W88884  10.850  43.159  12.849
23658W        W88885   6.250   6.871   0.373
23659W        W88886  26.949  37.985  12.511
23660W        W88887  36.078  22.295  14.438
23661W        W88888  11.270  15.516   0.067
23662W        W88889   8.132  43.455   1.382
23663W        W88890  36.809   7.367  14.000
23664W        W88891   2.237  22.965  13.098
23665W        W88892  15.669   0.560  13.201
23666W        W88893   6.256  13.360   1.333
23667W        W88894  30.068  12.237   4.328
23668W        W88895  13.710  38.568  12.970
23669W        W88896  27.439  20.748   1.296
23670W        W88897  14.327   2.485  12.003
23671W        W88898  44.956  24.100   3.533
23672W        W88899   2.197  16.254  11.466
23673W        W88900   5.200  15.665  14.385
23674W        W88901   0.949  23.204   1.666
23675W        W88902  21.997  14.439   3.090
23676W        W88903  41.323   6.726   3.101
23677W        W88904  20.579  33.590  12.485
23678W        W88905  33.109  33.602  13.798
23679W        W88906  29.625  23.038  11.734
23680W        W88907  29.233   3.392  13.167
23681W        W88908   4.451  23.230   3.684
23682W        W88909  14.849  27.617   2.699
23683W        W88910  34.464   7.834   3.657
23684W        W88911  40.743   9.669   0.838
23685W        W88912   8.936  12.987   0.569
23686W        W88913  39.003  34.286  11.537
23687W        W88914  12.739   5.200   4.860
23688W        W88915  37.258  15.668  10.812
23689W        W88916  24.611   2.059   3.165
23690W        W88917   1.498  39.881   1.336
23691W        W88918  30.002  22.502   2.150
23692W        W88919  22.236  39.778  12.358
23693W        W88920  14.076  33.950   3.616
23694W        W88921  40.952  36.496  13.124
23695W        W88922  44.868  33.362  13.889
23696W        W88923  14.243  27.058  12.901
23697W        W88924  19.683  42.129   2.223
23698W        W88925   0.807  32.652   3.309
23699W        W88926  26.730  41.424   4.333
23700W        W88927  22.671  44.792  12.879
23701W        W88928  39.610  26.961  12.171
23702W        W88929  27.107  12.136  10.444
23703W        W88930  11.407  36.848   0.446
23704W        W88931  37.015  44.936   2.336
23705W        W88932   1.529  23.703   4.381
23706W        W88933   1.693  44.538  12.330
23707W        W88934  19.940  27.159  13.817
23708W        W88935  18.334  32.098  14.960
23709W        W88936  37.079  16.217   0.836
23710W        W88937  27.542  14.332  11.983
23711W        W88938   7.731   3.234   2.669
23712W        W88939  31.970  32.727   0.373
23713W        W88940  33.498  10.703  11.374
23714W        W88941  16.129  24.643   0.431
23715W        W88942  37.939   8.914  12.406
23716W        W88943  24.809   8.376   2.603
23717W        W88944  37.541  21.208  13.643
23718W        W88945  10.446  41.774   4.174
23719W        W88946   8.434   9.695   0.831
23720W        W88947  14.196   4.231  14.877
23721W        W88948   3.681  36.892  10.431
23722W        W88949  41.580  33.221   1.464
23723W        W88950  38.740  32.519  14.902
23724W        W88951  21.719  16.050  11.101
23725W        W88952  44.718  22.030   0.324
23726W        W88953  20.284   1.932   2.792
23727W        W88954  29.481   3.425  12.226
23728W        W88955  31.095  11.833   0.675
23729W        W88956  15.521   6.450  14.555
23730W        W88957  11.533  16.630  11.594
23731W        W88958  18.673   9.891   2.242
23732W        W88959  17.660  41.037   4.127
23733W        W88960  34.114  39.612   1.411
23734W        W88961  14.097  44.024  13.742
23735W        W88962  28.786  37.976  13.045
23736W        W88963  38.494  10.020   1.984
23737W        W88964  21.236  35.877  12.962
23738W        W88965  39.372  35.102   2.377
23739W        W88966  27.517   3.308  12.025
23740W        W88967  37.889  41.386   1.451
23741W        W88968  29.740  11.749  11.588
23742W        W88969  12.771  19.456   0.776
23743W        W88970  13.516  11.403   4.073
23744W        W88971  14.735   3.510   0.858
23745W        W88972  30.481   2.652  13.834
23746W        W88973  18.125  43.263   0.982
23747W        W88974  19.342  20.669  13.955
23748W        W88975  20.826  42.883   4.893
23749W        W88976  17.347   1.923   3.219
23750W        W88977  16.375  23.339  13.562
23751W        W88978  26.929   2.215   2.402
23752W        W88979  25.231  15.262   0.260
23753W        W88980  12.834  11.702  10.400
23754W        W88981  18.575  25.242   4.800
23755W        W88982  21.249  14.641  10.718
23756W        W88983  41.372  30.453  14.716
23757W        W88984  27.067   2.171   5.012
23758W        W88985   1.789  38.767   0.618
23759W        W88986  17.680   7.607   1.138
23760W        W88987  34.176  13.607  14.980
23761W        W88988   8.497  15.725   3.987
23762W        W88989  26.395   9.364  12.347
23763W        W88990  17.681  11.536  13.441
23764W        W88991  17.035   3.811   4.939
23765W        W88992   1.382  21.170  13.539
23766W        W88993  24.019   3.857   1.714
23767W        W88994  41.965  39.585   2.230
23768W        W88995   1.377  19.097   5.044
23769W        W88996  17.657  41.750   2.265
23770W        W88997  26.887  18.068   3.959
23771W        W88998  13.935  19.636   1.404
23772W        W88999  14.896  13.053   1.505
23773W        W89000   2.849  37.876  14.299
23774W        W89001  13.007  24.053  11.551
23775W        W89002  41.067  11.574   3.223
23776W        W89003  16.380  20.152  14.034
23777W        W89004  32.525  30.924  10.660
23778W        W89005  42.482  35.090   0.408
23779W        W89006  26.712  27.001  11.516
23780W        W89007  12.081  36.789   2.829
23781W        W89008  16.359  44.765   3.165
23782W        W89009  28.396  28.687  11.814
23783W        W89010  16.858  30.065   0.127
23784W        W89011  25.767  35.305   4.137
23785W        W89012  22.026  44.944  14.813
23786W        W89013  29.000  33.771  11.547
23787W        W89014  24.897  20.028   4.549
23788W        W89015  24.684   9.608   4.250
23789W        W89016  34.896  10.245  14.958
23790W        W89017   4.450   5.878   3.447
23791W        W89018  14.691  35.787  11.136
23792W        W89019  25.712  29.656   3.110
23793W        W89020  40.122  17.475   4.135
23794W        W89021   1.446  37.048   4.245
23795W        W89022  10.368  31.952   0.827
23796W        W89023  11.431  29.887  10.764
23797W        W89024  21.977   6.235   3.613
23798W        W89025  19.607  36.913  12.073
23799W        W89026  27.573  37.411  14.104
23800W        W89027  39.893  27.246   3.609
23801W        W89028  26.007  19.141   4.128
23802W        W89029  39.798  40.095  14.040
23803W        W89030  33.383  31.542  11.949
23804W        W89031   8.800  19.866   4.685
23805W        W89032  43.150  18.271   4.128
23806W        W89033  29.239  29.502   2.632
23807W        W89034   8.256  41.204   0.392
23808W        W89035   9.054  32.577   2.767
23809W        W89036  22.707  21.433  13.707
23810W        W89037   6.848  26.496  14.812
23811W        W89038  35.596  17.017   1.425
23812W        W89039  26.356  19.015  14.278
23813W        W89040  30.239  20.149  13.858
23814W        W89041  12.809   6.247  10.644
23815W        W89042  19.727  42.590   2.749
23816W        W89043  33.578   9.715   4.314
23817W        W89044   1.760  30.414  13.978
23818W        W89045  10.614  28.524   4.464
23819W        W89046  24.248  24.442   2.245
23820W        W89047   6.709  26.724  14.325
23821W        W89048  40.682   8.557   3.660
23822W        W89049  31.835  14.867   1.888
23823W        W89050  23.707   7.921  11.954
23824W        W89051   9.363  28.574  11.643
23825W        W89052  15.107  23.895   2.645
23826W        W89053  34.058   3.140  13.395
23827W        W89054   8.059  25.092   3.621
23828W        W89055  28.575  10.924  12.512
23829W        W89056  43.443  28.150   0.746
23830W        W89057  25.897  15.787  11.221
23831W        W89058  11.645  14.655   9.622
23832W        W89059  28.535  41.479   0.059
23833W        W89060  24.732  19.071   0.383
23834W        W89061  13.206  17.163  11.227
23835W        W89062  15.719   5.855  13.936
23836W        W89063   3.811  21.889  12.066
23837W        W89064  24.959  29.712  13.808
23838W        W89065  44.744   4.912  13.986
23839W        W89066  39.920  10.705   2.207
23840W        W89067  10.782  28.653  12.486
23841W        W89068   0.800  26.139  13.738
23842W        W89069  16.740  11.670   2.844
23843W        W89070  29.612   5.008   0.748
23844W        W89071  32.520  25.185   0.143
23845W        W89072  36.518  42.286  12.989
23846W        W89073  28.534  35.584   1.236
23847W        W89074  15.325  17.673   2.462
23848W        W89075  35.117  23.437  13.567
23849W        W89076  31.444  19.027  11.242
23850W        W89077  20.467  31.135  13.507
23851W        W89078  37.817  43.785  14.451
23852W        W89079  35.174   6.646   5.058
23853W        W89080  29.616  41.811  12.035
23854W        W89081  10.352  18.833   0.401
23855W        W89082  38.483   6.755  12.009
23856W        W89083  41.609  39.345  14.944
23857W        W89084  20.093  20.844   1.384
23858W        W89085  41.027  26.582  11.628
23859W        W89086  26.305   5.665  11.147
23860W        W89087  34.369  15.428  11.204
23861W        W89088   1.452  26.597  12.487
23862W        W89089  29.022  33.141   0.849
23863W        W89090  28.988   4.992   0.149
23864W        W89091   2.002  20.039  12.076
23865W        W89092  31.023   1.769  13.005
23866W        W89093  21.965  43.130  12.956
23867W        W89094   4.224   0.089  12.084
23868W        W89095  15.084   3.415  10.627
23869W        W89096  31.178   1.483  10.484
23870W        W89097  34.743  27.111   4.018
23871W        W89098  13.259  15.282   4.103
23872W        W89099  23.884  35.374   3.078
23873W        W89100  24.703  21.911  14.377
23874W        W89101  20.588   8.842   1.429
23875W        W89102  42.955  11.348   4.817
23876W        W89103  22.671  35.117   1.822
23877W        W89104   3.252  21.206   0.411
23878W        W89105  15.039   0.878   0.836
23879W        W89106  19.526  36.050   2.245
23880W        W89107  26.488  32.491  13.306
23881W        W89108   4.396  14.205  14.407
23882W        W89109  27.107  14.917  10.547
23883W        W89110  25.507  27.933  14.912
23884W        W89111  17.507  32.958  14.381
23885W        W89112  36.126  34.978  10.523
23886W        W89113  31.456   1.389  13.613
23887W        W89114  38.996  23.060  13.617
23888W        W89115  31.340   1.300  12.127
23889W        W89116  44.472  21.480  14.852
23890W        W89117   9.841  34.528   0.988
23891W        W89118  31.510   8.675  13.384
23892W        W89119  14.133  16.137  11.180
23893W        W89120  38.851  21.028  14.011
23894W        W89121  35.077  33.421   2.455
23895W        W89122  10.948  37.288   5.074
23896W        W89123  41.502   0.938   0.835
23897W        W89124  23.107  18.991   4.506
23898W        W89125   3.724   0.778   2.088
23899W        W89126  21.485   2.306  13.389
23900W        W89127   2.156  39.533   0.413
23901W        W89128  13.331  31.203  11.149
23902W        W89129  25.055   3.655   3.631
23903W        W89130  16.170  38.959   0.212
23904W        W89131  43.829  38.832   3.384
23905W        W89132  25.389   8.339   0.421
23906W        W89133   3.111   9.882   1.793
23907W        W89134   4.207   4.170  11.731
23908W        W89135  17.852   2.925  13.767
23909W        W89136  23.737  40.464  14.931
23910W        W89137   0.926  26.644  12.454
23911W        W89138  41.655  16.149   4.148
23912W        W89139  10.595  18.871   9.893
23913W        W89140  29.552  42.547  10.775
23914W        W89141  16.788  13.864   4.847
23915W        W89142  27.812   8.740  13.153
23916W        W89143  18.121  34.564   2.190
23917W        W89144  10.309   5.270   1.323
23918W        W89145   3.734  29.502   1.382
23919W        W89146  33.795  16.095  11.226
23920W        W89147   3.471  38.861   2.234
23921W        W89148  14.112   3.780   2.317
23922W        W89149  17.506  21.199  11.487
23923W        W89150  12.340   0.954  10.900
23924W        W89151  17.947  35.440  13.087
23925W        W89152  43.355  39.323  14.005
23926W        W89153   2.137   9.227   4.139
23927W        W89154  14.364  44.917   4.612
23928W        W89155  38.480  21.747   1.191
23929W        W89156  28.331  44.922   3.507
23930W        W89157   9.422  42.934  11.176
23931W        W89158   4.549  40.826  14.432
23932W        W89159   4.704  16.194  14.816
23933W        W89160  20.712  23.135   3.466
23934W        W89161  27.668  44.443  13.833
23935W        W89162  31.370  30.565   1.247
23936W        W89163  44.497  15.667  10.381
23937W        W89164  14.667  31.977  10.270
23938W        W89165  14.734  38.534  14.543
23939W        W89166  34.174  33.635  12.384
23940W        W89167   1.612  19.574  10.306
23941W        W89168  15.165   0.804   3.215
23942W        W89169   9.117  10.352  10.890
23943W        W89170  39.512  38.830   2.894
23944W        W89171   0.943  17.328   2.814
23945W        W89172   0.126  22.580   9.908
23946W        W89173   5.909  34.543  12.473
23947W        W89174  15.822  21.285   4.086
23948W        W89175  21.096  37.316   4.944
23949W        W89176  43.952  42.623   2.874
23950W        W89177  39.987   8.898  11.569
23951W        W89178   7.974  25.142   0.228
23952W        W89179   0.837   0.254   4.080
23953W        W89180  44.602   1.560   2.432
23954W        W89181  20.053  23.662   0.219
23955W        W89182   2.384  23.802   0.871
23956W        W89183  14.855  32.465   1.455
23957W        W89184  32.919  17.998   4.943
23958W        W89185   8.793  39.235  11.943
23959W        W89186  28.140   4.065   4.094
23960W        W89187  23.650  38.367   2.899
23961W        W89188  12.215  10.325  13.422
23962W        W89189  33.873  43.515  13.379
23963W        W89190  22.500   3.487  12.107
23964W        W89191  37.855  23.780  11.085
23965W        W89192  18.622  18.836  13.960
23966W        W89193  31.170   0.008   4.495
23967W        W89194   2.161   0.302   2.291
23968W        W89195   0.137  20.726  14.743
23969W        W89196  17.081   8.921   1.017
23970W        W89197  18.537  43.796   3.285
23971W        W89198  28.256  27.633   4.529
23972W        W89199   7.661  18.709  10.693
23973W        W89200  11.922  22.065  14.412
23974W        W89201  19.143  26.834   0.877
23975W        W89202  44.839  12.604   2.522
23976W        W89203  35.847  19.142   4.454
23977W        W89204  10.436  34.942  12.565
23978W        W89205  23.833  18.250  13.999
23979W        W89206  40.964  26.738  12.558
23980W        W89207  27.346  19.602   4.989
23981W        W89208  30.527  11.600  10.674
23982W        W89209  39.089  14.111   0.299
23983W        W89210  31.628   3.779   3.987
23984W        W89211  11.182  20.158  12.450
23985W        W89212   2.765  31.430  12.623
23986W        W89213   2.456  37.052  14.597
23987W        W89214  20.841  40.424  13.642
23988W        W89215  38.397   7.678  11.246
23989W        W89216   7.369  29.012  11.056
23990W        W89217  22.362  35.156   2.800
23991W        W89218  43.589  22.558   1.550
23992W        W89219  39.087  43.347   2.381
23993W        W89220  43.784  23.335  10.801
23994W        W89221  10.491  14.412  10.748
23995W        W89222  29.440  17.203  10.142
23996W        W89223  14.573   7.294   4.731
23997W        W89224   8.275   5.955   4.051
23998W        W89225   1.946  38.908   2.643
23999W        W89226   2.808  14.065  12.078
24000W        W89227  41.845  28.959  11.682
24001W        W89228  12.261  26.582   2.800
24002W        W89229  16.029  42.837  12.602
24003W        W89230   7.250  26.665  11.510
24004W        W89231  15.770  17.541   4.623
24005W        W89232  12.043  44.663   2.051
24006W        W89233  13.997  42.358   0.252
24007W        W89234  13.687   3.138   4.541
24008W        W89235  27.574  17.438  14.345
24009W        W89236  30.701  12.180   3.670
24010W        W89237   8.374  31.251   1.751
24011W        W89238  22.312  16.263  14.496
24012W        W89239   5.234  37.107  11.895
24013W        W89240  18.614  40.756  13.416
24014W        W89241  32.917  34.460   4.148
24015W        W89242   0.747  33.780   0.440
24016W        W89243  26.115  11.313  10.994
24017W        W89244  26.074  42.731   3.374
24018W        W89245   1.669  18.089  14.030
24019W        W89246  42.718  23.768   4.192
24020W        W89247   9.381  42.526   1.858
24021W        W89248  15.331  18.300  12.109
24022W        W89249  15.920  30.052   2.674
24023W        W89250  36.839  21.276   3.709
24024W        W89251   4.849  27.466  12.627
24025W        W89252  23.238  26.498   2.163
24026W        W89253   0.923  11.338  12.390
24027W        W89254   6.201   9.801  10.590
24028W        W89255  26.240  32.398   0.748
24029W        W89256   0.022   8.336   0.013
24030W        W89257  24.137   0.809  10.822
24031W        W89258   0.880   8.179  14.927
24032W        W89259   0.338  41.107   0.578
24033W        W89260  25.976  13.053  12.468
24034W        W89261  14.076  21.284  13.923
24035W        W89262  19.705  16.829  14.416
24036W        W89263  39.546  25.939  14.430
24037W        W89264  11.212  34.076   2.951
24038W        W89265  41.029  41.697  13.728
24039W        W89266  18.515   9.376   3.551
24040W        W89267  18.693  18.520   0.759
24041W        W89268   1.195  10.696   3.487
24042W        W89269   9.180  20.632   3.784
24043W        W89270  28.602  18.178  12.406
24044W        W89271  20.278  26.349   1.311
24045W        W89272   6.183  40.026   1.843
24046W        W89273  18.051  36.450  14.454
24047W        W89274  16.381  38.271  10.771
24048W        W89275   7.804  30.712   4.554
24049W        W89276  24.563  39.877  12.490
24050W        W89277  37.496  41.821   3.218
24051W        W89278  44.103  34.399  10.591
24052W        W89279  13.787  32.623   3.113
24053W        W89280  36.910  11.299   4.475
24054W        W89281  13.171   1.934  12.835
24055W        W89282  34.318  17.711   2.851
24056W        W89283  27.041  20.166   1.475
24057W        W89284  14.234  25.553   2.256
24058W        W89285   7.170  43.335   4.628
24059W        W89286  14.748  19.076   3.653
24060W        W89287   0.490  26.519   2.931
24061W        W89288  13.203  14.090  12.039
24062W        W89289  42.361  20.217   2.395
24063W        W89290  11.605   3.509   9.953
24064W        W89291  28.444  44.451  13.431
24065W        W89292  14.620  42.063   3.297
24066W        W89293  39.677  21.033  12.826
24067W        W89294  31.258  25.437   1.802
24068W        W89295  38.029   8.498  12.712
24069W        W89296   8.867  39.561   2.862
24070W        W89297   5.501  31.414   2.339
24071W        W89298  41.459  15.866   3.109
24072W        W89299   4.322   3.676   4.361
24073W        W89300  13.566  43.259   2.858
24074W        W89301  34.042   7.664   4.552
24075W        W89302  18.639  40.254   4.721
24076W        W89303  37.385  26.443   4.622
24077W        W89304  37.825  20.887  13.977
24078W        W89305  39.518  21.865  14.922
24079W        W89306  13.331  41.614   0.140
24080W        W89307  38.332   6.251   2.574
24081W        W89308  42.475   3.069  11.869
24082W        W89309  30.083   1.797  12.547
24083W        W89310  29.619  10.454  14.496
24084W        W89311  21.119   3.526   2.442
24085W        W89312  42.846  24.825  13.471
24086W        W89313  17.849  29.675  13.641
24087W        W89314  15.159  16.102  11.194
24088W        W89315  32.144  36.962  14.245
24089W        W89316   1.815  44.229  13.267
24090W        W89317   0.513  33.365  13.276
24091W        W89318  26.414  42.241  11.135
24092W        W89319  17.870   4.764  12.993
24093W        W89320  17.053   5.817   0.773
24094W        W89321   2.720  13.774   1.393
24095W        W89322   6.130  43.218   4.803
24096W        W89323  16.347   7.323   3.867
24097W        W89324  12.613   2.161   1.552
24098W        W89325  44.183  36.478   1.180
24099W        W89326  39.924  30.602  10.774
24100W        W89327  26.940  24.402  12.306
24101W        W89328  20.084   3.691  13.506
24102W        W89329  40.275  42.575   4.123
24103W        W89330   1.039  20.857   4.326
24104W        W89331  26.434   9.268  11.017
24105W        W89332  21.027  39.555   4.361
24106W        W89333   2.684  10.960  13.500
24107W        W89334  29.357  22.758  10.761
24108W        W89335   5.249   7.062   1.460
24109W        W89336  40.542   0.528  11.570
24110W        W89337  29.643  38.474   0.255
24111W        W89338  27.481  39.911  13.714
24112W        W89339  20.137  33.431   0.407
24113W        W89340  25.570   7.186   4.486
24114W        W89341  21.451  42.454   2.729
24115W        W89342  39.149  11.769   1.754
24116W        W89343  28.447  30.547  11.532
24117W        W89344  13.727  26.982  11.433
24118W        W89345   8.215  42.590  13.055
24119W        W89346   1.418  40.795   2.807
24120W        W89347  31.106  39.353   4.220
24121W        W89348  21.983  38.839  11.556
24122W        W89349  26.419  30.153   3.860
24123W        W89350  34.504   1.250   2.153
24124W        W89351   4.938  26.048  13.831
24125W        W89352  18.578  28.215  12.477
24126W        W89353   9.845  14.178   4.826
24127W        W89354  28.092  42.579   0.153
24128W        W89355  18.976  34.963   0.726
24129W        W89356  24.140  23.522   0.128
24130W        W89357  42.210  15.367   3.418
24131W        W89358   4.137   7.041   3.096
24132W        W89359  18.960  26.972   3.158
24133W        W89360  35.893  40.265  12.438
24134W        W89361  23.576  40.655   1.330
24135W        W89362   5.653   9.203   0.405
24136W        W89363  39.490   9.171  10.942
24137W        W89364  14.213  18.343  11.596
24138W        W89365  12.805  13.884  13.708
24139W        W89366   6.209   5.204   1.767
24140W        W89367  13.174  23.654  13.160
24141W        W89368   8.862  16.117  13.976
24142W        W89369  33.534  11.932   0.754
24143W        W89370  16.398   5.654  14.350
24144W        W89371  11.391  21.067  13.534
24145W        W89372  25.192  25.011  14.079
24146W        W89373  42.501  31.930   1.794
24147W        W89374  14.229  41.632   4.772
24148W        W89375  42.289  32.694  12.637
24149W        W89376   3.018   6.296   5.100
24150W        W89377  23.703  44.501  10.769
24151W        W89378  34.562  15.644   4.163
24152W        W89379  39.793  41.999  11.673
24153W        W89380  18.307  35.967   2.499
24154W        W89381  43.918  17.010  10.334
24155W        W89382  27.140  44.924   0.438
24156W        W89383  43.130   3.691   2.672
24157W        W89384  31.318  24.399  13.466
24158W        W89385  15.991  11.745  13.312
24159W        W89386   9.308  17.187  12.979
24160W        W89387  42.603  37.306  14.883
24161W        W89388  37.611  33.538   1.455
24162W        W89389  21.077  25.045   1.103
24163W        W89390  30.548  40.226   1.200
24164W        W89391  13.360  27.339   4.114
24165W        W89392  35.064   6.241   1.699
24166W        W89393  22.933  42.919   0.497
24167W        W89394   6.874  32.303   1.906
24168W        W89395  32.432  24.921  14.358
24169W        W89396  36.117  36.551   1.768
24170W        W89397  14.090  31.903  12.900
24171W        W89398  28.619  17.303  14.191
24172W        W89399  31.305  29.800  11.013
24173W        W89400  36.054  13.869  14.414
24174W        W89401  10.344  21.555  11.305
24175W        W89402  28.491   5.418  14.351
24176W        W89403  15.631   6.764  14.991
24177W        W89404  33.523  39.625   4.128
24178W        W89405  38.342  19.576  12.603
24179W        W89406  31.276  42.454   2.852
24180W        W89407   1.542  26.745  14.809
24181W        W89408  21.328   0.958   2.718
24182W        W89409  11.187  17.884   0.394
24183W        W89410  13.776   5.721   3.653
24184W        W89411  15.565  17.464  13.646
24185W        W89412  14.820  34.204  10.492
24186W        W89413   3.262  12.981   1.280
24187W        W89414  11.139  26.947  10.741
24188W        W89415  11.724  42.804  10.529
24189W        W89416  15.659  12.266  11.148
24190W        W89417  10.793  44.780   0.936
24191W        W89418  19.581  22.116   2.208
24192W        W89419  15.404   6.871  12.471
24193W        W89420  13.217  12.684   0.325
24194W        W89421  14.546  29.190   4.671
24195W        W89422   7.117  10.759  14.430
24196W        W89423  19.036  38.845   2.837
24197W        W89424  23.563  39.623   1.322
24198W        W89425  32.379   8.941   2.706
24199W        W89426  20.135  29.073   0.079
24200W        W89427  29.977   1.256  12.611
24201W        W89428  30.193  43.364   1.834
24202W        W89429  22.149  19.918   4.334
24203W        W89430  35.619  11.062   0.413
24204W        W89431   6.773  24.164  11.954
24205W        W89432  23.150  33.594  12.629
24206W        W89433  35.149  14.777  13.468
24207W        W89434  27.545   8.597  11.202
24208W        W89435  32.553  42.926  12.280
24209W        W89436  25.341  18.838   0.953
24210W        W89437  27.222   9.103   1.965
24211W        W89438  13.888  17.369  14.935
24212W        W89439  16.610  21.316  13.455
24213W        W89440  44.348  33.985  12.630
24214W        W89441  26.175  19.213  12.093
24215W        W89442  43.279   3.018   0.069
24216W        W89443  38.431  25.900   2.228
24217W        W89444  38.901  28.088  10.562
24218W        W89445  23.174  30.032   3.678
24219W        W89446  33.010  40.618   4.646
24220W        W89447  10.796  40.425  10.624
24221W        W89448  19.843  25.617   1.106
24222W        W89449  35.447  28.974  12.587
24223W        W89450  17.348  12.827   4.606
24224W        W89451  25.469  13.887  13.618
24225W        W89452  37.099  19.492   2.233
24226W        W89453   8.089  24.018  12.424
24227W        W89454  11.099   8.231  13.572
24228W        W89455  32.189  41.965   4.521
24229W        W89456  33.598  44.962   1.938
24230W        W89457  31.947   3.768   2.780
24231W        W89458  19.584  37.608   2.274
24232W        W89459  37.284  20.776   2.227
24233W        W89460   2.283  40.693   1.994
24234W        W89461  10.814  21.278   1.069
24235W        W89462  42.471  26.533  13.885
24236W        W89463   8.926   1.842  14.390
24237W        W89464  42.098   4.365  11.091
24238W        W89465  29.574  24.568   2.470
24239W        W89466  44.164  38.811  13.014
24240W        W89467  28.958  14.738   1.266
24241W        W89468  38.993  20.672   1.177
24242W        W89469   7.861  17.088  14.944
24243W        W89470   0.938   7.695   1.249
24244W        W89471  39.309  28.442   2.975
24245W        W89472  42.778  13.596   5.269
24246W        W89473   1.627   7.813  13.245
24247W        W89474  44.836  15.769   3.487
24248W        W89475  24.771  37.331   0.480
24249W        W89476  43.610  25.121   4.885
24250W        W89477   7.278   6.419  10.778
24251W        W89478  20.758  37.562   0.375
24252W        W89479   4.328  22.910   0.701
24253W        W89480  27.042  17.583  10.646
24254W        W89481  40.855  38.601  14.563
24255W        W89482  38.881  18.108   2.473
24256W        W89483   7.192  24.464  12.962
24257W        W89484   6.724  13.292  13.742
24258W        W89485  28.771  12.490   4.601
24259W        W89486  33.123  44.615  10.138
24260W        W89487  21.973  23.570   4.033
24261W        W89488  20.935  11.096  12.735
24262W        W89489  18.551   4.929  14.113
24263W        W89490  23.108  17.268   0.335
24264W        W89491  11.587  43.024   1.322
24265W        W89492  35.073   0.912  12.486
24266W        W89493  43.206  36.390   1.432
24267W        W89494  31.733   2.276   3.663
24268W        W89495   9.929  35.884  13.812
24269W        W89496  25.703  37.643   3.914
24270W        W89497  22.097   7.691  14.485
24271W        W89498  15.726  36.348   3.883
24272W        W89499  25.008  42.909   2.275
24273W        W89500  41.036  19.677   2.219
24274W        W89501   6.389  17.202  11.571
24275W        W89502  28.057   9.648  12.508
24276W        W89503  33.332  42.332   2.435
24277W        W89504   0.189   6.346  11.449
24278W        W89505  30.163  26.983  12.970
24279W        W89506  28.542  30.708  11.062
24280W        W89507  40.358  12.351   4.502
24281W        W89508  43.623   7.899  11.078
24282W        W89509   9.232  40.660   2.271
24283W        W89510  23.940  18.209  14.519
24284W        W89511   1.814  22.559  14.974
24285W        W89512  19.557  34.256   4.417
24286W        W89513  29.537  42.108  12.453
24287W        W89514  33.362   4.808  13.556
24288W        W89515  30.360  10.053  14.942
24289W        W89516  37.088  17.739   3.136
24290W        W89517  33.101  24.707  10.388
24291W        W89518  15.247  16.316  14.916
24292W        W89519  37.208   0.419   2.283
24293W        W89520  27.427  34.813  12.986
24294W        W89521  21.189  38.551  11.368
24295W        W89522  21.535   7.222   4.833
24296W        W89523   7.424  28.449   4.613
24297W        W89524   9.180  32.121   1.198
24298W        W89525  11.926  28.653   3.644
24299W        W89526  12.885  40.559  11.481
24300W        W89527  43.452  15.823   2.658
24301W        W89528  27.468  24.410  12.415
24302W        W89529   5.897  14.872   2.750
24303W        W89530  35.104  27.703   1.927
24304W        W89531  42.880  38.192   4.934
24305W        W89532  17.613   2.364   1.836
24306W        W89533  21.738   4.598   2.413
24307W        W89534  37.026  23.047  14.982
24308W        W89535  31.359  32.791  11.338
24309W        W89536  32.164  29.233   1.413
24310W        W89537  35.370  25.090   0.934
24311W        W89538  44.102  41.434  11.004
24312W        W89539  39.277  25.789  12.642
24313W        W89540  16.066  12.752   2.379
24314W        W89541  15.038  26.640  14.901
24315W        W89542   2.822  18.707   9.719
24316W        W89543  10.151  25.876  14.794
24317W        W89544   6.372  30.645   4.774
24318W        W89545  39.226   8.771  10.245
24319W        W89546  19.701  38.041   1.344
24320W        W89547  42.808  25.616  12.825
24321W        W89548  22.738  36.584  11.979
24322W        W89549  29.549   5.409   1.790
24323W        W89550  16.645   6.002  10.697
24324W        W89551   3.301  19.518   1.251
24325W        W89552  37.517   7.030  13.636
24326W        W89553   5.000  26.491  13.577
24327W        W89554  22.279  28.903   1.667
24328W        W89555  19.829  42.348   0.773
24329W        W89556  18.925  19.504  13.431
24330W        W89557  19.558  15.783  11.507
24331W        W89558  31.196  10.881  14.490
24332W        W89559  34.741   0.741   0.351
24333W        W89560  17.704  42.328   0.055
24334W        W89561  37.337  21.493  12.173
24335W        W89562  40.813  19.689   2.680
24336W        W89563  19.984  35.766   0.022
24337W        W89564  10.617  20.792  11.567
24338W        W89565  38.024  24.481  14.891
24339W        W89566  40.656  28.765  14.232
24340W        W89567  23.071  22.167   3.691
24341W        W89568  44.002  31.826   0.764
24342W        W89569  26.064  33.010  14.894
24343W        W89570  37.872  26.042   1.129
24344W        W89571   8.410  39.331  11.122
24345W        W89572  16.511  15.547  12.999
24346W        W89573  27.011   5.934  13.140
24347W        W89574  17.128  14.499   3.799
24348W        W89575  42.352   9.706   2.902
24349W        W89576  11.907  43.974   3.152
24350W        W89577  31.995  44.358  10.626
24351W        W89578  43.806  20.414   3.167
24352W        W89579  13.923  12.995   0.488
24353W        W89580   1.062  36.984   0.336
24354W        W89581  30.927  25.493  12.931
24355W        W89582  43.580  14.668  14.292
24356W        W89583  36.955  41.807  11.611
24357W        W89584  43.966  40.524   4.374
24358W        W89585  24.130  42.592   1.827
24359W        W89586  41.966  16.848   3.715
24360W        W89587  36.553   2.818   3.579
24361W        W89588   8.773  36.616   5.002
24362W        W89589  41.906  23.242  10.755
24363W        W89590  36.934  44.419   2.194
24364W        W89591  10.600   5.916   3.754
24365W        W89592  35.655  38.204  12.574
24366W        W89593   1.488  27.988  11.482
24367W        W89594  34.567  12.868   3.284
24368W        W89595  18.303   5.484  13.353
24369W        W89596  16.058  15.117  13.433
24370W        W89597  30.882  12.319  12.978
24371W        W89598  29.337  23.783  13.400
24372W        W89599  35.050   3.400   4.610
24373W        W89600  30.533  13.162  13.491
24374W        W89601  38.359  41.763   1.840
24375W        W89602  32.819  39.951  11.553
24376W        W89603  14.992  22.925   4.471
24377W        W89604  43.433   7.736  12.473
24378W        W89605  41.476  33.264   2.074
24379W        W89606  36.391  33.690  13.193
24380W        W89607  27.030   2.468  13.239
24381W        W89608  30.037  22.423   4.199
24382W        W89609   2.079  30.346   2.758
24383W        W89610  29.099  21.314  11.730
24384W        W89611   7.246  24.291  12.485
24385W        W89612  18.064  33.986  12.748
24386W        W89613  44.913  34.590   3.663
24387W        W89614   2.646  24.646   0.931
24388W        W89615  27.303  24.141  12.996
24389W        W89616  18.062   5.811  14.105
24390W        W89617  38.134  36.515   4.826
24391W        W89618  43.672   6.957   2.911
24392W        W89619  25.945  16.191   4.261
24393W        W89620  28.678  28.454  14.385
24394W        W89621  23.696  11.471   2.758
24395W        W89622  42.554   9.599  12.774
24396W        W89623  42.250  36.861  11.279
24397W        W89624  11.804  39.254  14.944
24398W        W89625  32.737   6.876  14.555
24399W        W89626  37.465  12.754   3.184
24400W        W89627  19.108  21.977  12.644
24401W        W89628  38.271  44.768   2.706
24402W        W89629  35.636  42.796   4.145
24403W        W89630  27.920  37.661   5.114
24404W        W89631  34.430  41.874   1.311
24405W        W89632  36.648   5.636  12.972
24406W        W89633   1.274  17.603  11.149
24407W        W89634  25.591  43.597  10.581
24408W        W89635  31.724   1.300  14.117
24409W        W89636   9.014  14.320  13.995
24410W        W89637  12.247  13.329  14.395
24411W        W89638   6.273  38.139  14.311
24412W        W89639   8.364   7.289   4.828
24413W        W89640  43.723  12.421  11.583
24414W        W89641  23.149   9.389  14.530
24415W        W89642   3.582  19.840  11.583
24416W        W89643  11.325  12.274   3.211
24417W        W89644  30.934   4.140   0.271
24418W        W89645  28.704  32.254  13.087
24419W        W89646  42.710  13.604   1.850
24420W        W89647  14.341  28.934  12.958
24421W        W89648   2.754  18.665   4.524
24422W        W89649  34.971  30.836  10.892
24423W        W89650  15.695  40.224   0.355
24424W        W89651  27.866  38.324  11.222
24425W        W89652  35.788  28.161   2.543
24426W        W89653  20.498  40.000  12.991
24427W        W89654  21.690  41.533   2.805
24428W        W89655   9.075   8.218   0.378
24429W        W89656  26.766  25.607  11.947
24430W        W89657   2.949  29.589  13.832
24431W        W89658  18.099   0.987  12.962
24432W        W89659  36.380  29.833   0.970
24433W        W89660  14.332  40.357   1.057
24434W        W89661  31.087   1.972  14.907
24435W        W89662  38.218   5.872   0.958
24436W        W89663  12.202  11.753  13.375
24437W        W89664  38.140  35.336   1.763
24438W        W89665  28.922   0.775  10.501
24439W        W89666  35.636  24.554   4.571
24440W        W89667   0.725   7.725  11.464
24441W        W89668  42.913  32.441  11.542
24442W        W89669  11.612  31.408   3.218
24443W        W89670  15.230  15.513  14.458
24444W        W89671  22.747  12.200   3.357
24445W        W89672  29.349  38.422  13.824
24446W        W89673  33.553   3.831  10.709
24447W        W89674  17.982  40.316  11.627
24448W        W89675   5.452   2.949   2.731
24449W        W89676  33.366  41.117  10.410
24450W        W89677  39.069  16.117  12.884
24451W        W89678  24.807   4.287   4.271
24452W        W89679  35.340  10.294   4.837
24453W        W89680  16.613  25.586  10.943
24454W        W89681  42.269  40.331  11.150
24455W        W89682   8.764  13.215  13.143
24456W        W89683  23.790  11.827  14.801
24457W        W89684   5.770  12.700   2.842
24458W        W89685   1.465  40.565  12.620
24459W        W89686   6.665  27.483   0.799
24460W        W89687   6.959  24.996   1.878
24461W        W89688  34.442  20.609   0.688
24462W        W89689  40.833  21.061   2.456
24463W        W89690  11.171   7.364   3.542
24464W        W89691  40.741  44.186  12.608
24465W        W89692   5.613  24.248   1.810
24466W        W89693  27.491  16.817  12.795
24467W        W89694  32.794   7.690   4.926
24468W        W89695  28.448  27.562   0.723
24469W        W89696  35.930  25.262   1.723
24470W        W89697   1.768  37.317   4.546
24471W        W89698  43.695   1.362   3.272
24472W        W89699  27.595  14.805  14.067
24473W        W89700  28.024  23.851   3.156
24474W        W89701  34.597   0.249  13.903
24475W        W89702   3.112  17.274  11.400
24476W        W89703  27.935  39.507  11.082
24477W        W89704  36.757   2.750  14.363
24478W        W89705  39.985   6.951   2.844
24479W        W89706  14.404  26.000   4.212
24480W        W89707  32.133  35.819  14.911
24481W        W89708  33.709  38.133  12.513
24482W        W89709  25.615   2.804  13.423
24483W        W89710  33.346   5.460  11.742
24484W        W89711  39.525  26.078   2.120
24485W        W89712  28.629  10.413  12.469
24486W        W89713  22.558  44.103   0.008
24487W        W89714  33.597   9.644   4.830
24488W        W89715   2.641  35.074   3.395
24489W        W89716   7.646  14.377   4.104
24490W        W89717   2.406   8.297  14.300
24491W        W89718   3.663  26.035   2.242
24492W        W89719  13.943  30.097   1.027
24493W        W89720   0.081  19.322   0.824
24494W        W89721   6.749  23.000  14.973
24495W        W89722   2.330  27.767  12.920
24496W        W89723  11.091   6.107   2.835
24497W        W89724  21.987  23.683  14.088
24498W        W89725  22.495  34.385  14.869
24499W        W89726  29.895  42.362  10.447
24500W        W89727  39.681  27.361   1.252
24501W        W89728  11.135   1.771   3.344
24502W        W89729  36.587   2.568  11.612
24503W        W89730  43.335  34.468   4.100
24504W        W89731  28.281   9.865  12.079
24505W        W89732  13.627  15.155   2.890
24506W        W89733   0.479  12.756   1.812
24507W        W89734  43.761  26.571  12.994
24508W        W89735  14.129  22.539   2.112
24509W        W89736  42.450   1.017   4.642
24510W        W89737   5.979  24.156  13.008
24511W        W89738  12.828  14.147  10.898
24512W        W89739  27.561  34.832   2.525
24513W        W89740  34.857  24.736  10.718
24514W        W89741   7.788   9.569   3.101
24515W        W89742  13.836  32.091   3.110
24516W        W89743  19.361  18.809   4.080
24517W        W89744   0.688  14.104   0.016
24518W        W89745  10.780  19.819   0.977
24519W        W89746  20.983  25.403   1.873
24520W        W89747  41.112  20.748  13.787
24521W        W89748   1.323  12.907   3.581
24522W        W89749  13.798  11.630   0.269
24523W        W89750   3.437  19.253  11.531
24524W        W89751  40.972  34.614  14.738
24525W        W89752   5.754  24.791   2.943
24526W        W89753  19.112   1.958  14.695
24527W        W89754  31.915  26.625   2.162
24528W        W89755  38.539  36.366   4.497
24529W        W89756  26.152  28.464   0.335
24530W        W89757  26.535  29.232   4.183
24531W        W89758  40.969  23.579   2.948
24532W        W89759  13.798  23.657  11.413
24533W        W89760  27.775   8.697   1.308
24534W        W89761  17.352  38.555  12.093
24535W        W89762  13.995   6.515   4.573
24536W        W89763  29.146  32.057  10.968
24537W        W89764  16.323  38.903  11.118
24538W        W89765  15.610  30.102   4.556
24539W        W89766  18.495  19.007   2.955
24540W        W89767  42.845  22.725  12.167
24541W        W89768   3.746  16.654   4.545
24542W        W89769  16.635  14.587  14.951
24543W        W89770  15.509  25.000  14.858
24544W        W89771  34.587  18.764  10.546
24545W        W89772  14.594  37.294  12.462
24546W        W89773  25.452   0.418   2.757
24547W        W89774   3.380  35.090   0.028
24548W        W89775   9.098  35.925  11.972
24549W        W89776  17.331   2.010  13.882
24550W        W89777  24.775   3.809  10.978
24551W        W89778   4.744  40.238   1.864
24552W        W89779   6.107  10.151  12.184
24553W        W89780  29.588   1.032   1.724
24554W        W89781   8.845  19.033  10.521
24555W        W89782  44.406  42.467  14.561
24556W        W89783  42.274  19.520  14.447
24557W        W89784  20.070  37.841   4.085
24558W        W89785   7.499  21.323   0.940
24559W        W89786   4.901  32.207  12.968
24560W        W89787  11.037  36.948  14.243
24561W        W89788  14.775  28.754   4.501
24562W        W89789  28.558   6.641  14.879
24563W        W89790  30.638  18.612  10.758
24564W        W89791  31.835  30.062   2.286
24565W        W89792  30.623  15.685  10.769
24566W        W89793  16.170   1.844   4.612
24567W        W89794  20.148  29.419  12.349
24568W        W89795  26.534   1.090   4.142
24569W        W89796  19.968  25.052   4.561
24570W        W89797   0.904  15.105  13.977
24571W        W89798  42.329  37.059   4.271
24572W        W89799  39.925  41.903   1.227
24573W        W89800  13.068  13.827  10.467
24574W        W89801  44.370   2.724   2.869
24575W        W89802  43.273  15.665   1.668
24576W        W89803  40.475  26.982   1.705
24577W        W89804  10.605  44.362  11.141
24578W        W89805  15.150  16.728  13.013
24579W        W89806   7.628  40.032   2.861
24580W        W89807  17.820  13.152   1.965
24581W        W89808   9.271  35.360  10.785
24582W        W89809   2.409  38.919   2.371
24583W        W89810   3.902   0.835  13.437
24584W        W89811   7.502  18.864  13.480
24585W        W89812   3.449  40.657   1.953
24586W        W89813  30.867  23.758  14.409
24587W        W89814  19.038  24.607   2.204
24588W        W89815  18.021  44.756  11.207
24589W        W89816  37.782  23.507  12.336
24590W        W89817   9.337  16.007  12.218
24591W        W89818  42.881   0.245   3.773
24592W        W89819  42.907  19.964  12.699
24593W        W89820  23.016  12.861   1.459
24594W        W89821  32.059  42.278   3.980
24595W        W89822   9.743  32.917  13.985
24596W        W89823  43.922  23.703  11.146
24597W        W89824   5.493  30.409  14.466
24598W        W89825  41.537  16.357  12.999
24599W        W89826  43.909  43.334  11.768
24600W        W89827  41.803  19.702   1.182
24601W        W89828   8.787  42.267  12.001
24602W        W89829   9.240  23.614   3.227
24603W        W89830  18.588  22.257  14.321
24604W        W89831  14.708  23.347   0.481
24605W        W89832  35.077  40.150  11.317
24606W        W89833   8.263  20.661  11.699
24607W        W89834  27.485  13.337   2.589
24608W        W89835   7.047  33.264   3.160
24609W        W89836  20.182  10.580  14.960
24610W        W89837  24.604  21.115  12.490
24611W        W89838   7.398  43.147  11.109
24612W        W89839   8.393  25.786  11.542
24613W        W89840  13.624  11.419   4.581
24614W        W89841  43.717  27.053   4.874
24615W        W89842  38.064  28.572  12.884
24616W        W89843  43.909   2.974   2.384
24617W        W89844  33.195  43.709   3.645
24618W        W89845  19.645  41.867   0.933
24619W        W89846  25.199  18.577  13.199
24620W        W89847  25.185  32.012   2.747
24621W        W89848  19.669  19.622   1.754
24622W        W89849  35.368   9.320  14.972
24623W        W89850  44.534   0.351   0.397
24624W        W89851  36.432  14.079   0.485
24625W        W89852   6.088  26.041  14.558
24626W        W89853   0.140  41.310   1.678
24627W        W89854   8.100  24.550   2.416
24628W        W89855  15.882   7.852  14.056
24629W        W89856  27.385   1.736  13.114
24630W        W89857  39.220   6.316   0.133
24631W        W89858  42.609   4.977   2.857
24632W        W89859   4.742  37.474   4.511
24633W        W89860  41.028  19.540   1.717
24634W        W89861  19.103   3.362  12.418
24635W        W89862  12.620  19.091   1.155
24636W        W89863  23.540  14.733   4.543
24637W        W89864  40.419  38.329  14.422
24638W        W89865  41.292  43.442   1.805
24639W        W89866  16.107  42.441  14.314
24640W        W89867  40.605  24.381   3.742
24641W        W89868  42.574  23.619   1.848
24642W        W89869   7.687  44.068  14.425
24643W        W89870   0.760  21.812  13.701
24644W        W89871   1.512  30.043  14.281
24645W        W89872   0.423   3.709  13.566
24646W        W89873   1.719   1.359   1.253
24647W        W89874  44.564  39.479   0.581
24648W        W89875  33.896   0.132   4.667
24649W        W89876  33.948  34.840   2.692
24650W        W89877  43.992   6.733   4.927
24651W        W89878  10.687  14.965   2.909
24652W        W89879   6.606  29.890  14.872
24653W        W89880   2.230  25.488   3.798
24654W        W89881  23.958  23.448   1.298
24655W        W89882   9.254  29.344  13.489
24656W        W89883  43.986  40.699   0.266
24657W        W89884  31.689  42.128   2.904
24658W        W89885  21.966  31.636  11.154
24659W        W89886  27.404  14.733   1.772
24660W        W89887   8.084  16.154  14.470
24661W        W89888  25.487   6.272   2.346
24662W        W89889   8.412  24.665  14.909
24663W        W89890  34.505  16.845  10.640
24664W        W89891  32.454   7.750   3.860
24665W        W89892   5.438  19.889  14.441
24666W        W89893   8.101   7.681  12.103
24667W        W89894   4.346   6.109   1.610
24668W        W89895  29.669  25.563  12.491
24669W        W89896  36.403  11.921   3.281
24670W        W89897  13.849   7.395  11.628
24671W        W89898   7.668  24.527   3.864
24672W        W89899   8.704  28.287   1.255
24673W        W89900  16.173   7.709   2.169
24674W        W89901  43.064  34.678  10.368
24675W        W89902   7.765  32.120   2.833
24676W        W89903  14.347   8.758  13.996
24677W        W89904   9.635  42.897  14.052
24678W        W89905  13.174  24.956   0.461
24679W        W89906  36.885  28.922   1.233
24680W        W89907  22.907  34.340   0.343
24681W        W89908   1.433  41.976   0.982
24682W        W89909  10.218  35.780  13.388
24683W        W89910  34.232  33.997   1.201
24684W        W89911  12.283   2.950   2.379
24685W        W89912  32.080  35.427  12.161
24686W        W89913  36.480  40.503  12.021
24687W        W89914  31.105  41.477   2.774
24688W        W89915  17.149   3.027   0.865
24689W        W89916  14.869  21.695   2.641
24690W        W89917  44.703   4.126  11.841
24691W        W89918  10.542  21.509  14.622
24692W        W89919  17.307  34.727   1.564
24693W        W89920  32.061  10.921   0.371
24694W        W89921  28.500  12.547  12.793
24695W        W89922  11.591  33.691   1.884
24696W        W89923   5.765  19.245   4.237
24697W        W89924  15.178  33.840   4.489
24698W        W89925  19.488  24.152  12.419
24699W        W89926  41.241  26.165  13.834
24700W        W89927   8.186  19.070  11.668
24701W        W89928   2.358  41.828  11.876
24702W        W89929  22.572  10.780  14.786
24703W        W89930  38.383   4.019   0.783
24704W        W89931  14.943  21.678  12.521
24705W        W89932  17.321  24.790  14.879
24706W        W89933  41.294  12.092   4.167
24707W        W89934  15.653  19.551   3.987
24708W        W89935  20.259  36.093   0.327
24709W        W89936   0.948   1.357   0.994
24710W        W89937  24.509  12.298   1.669
24711W        W89938   6.332  36.037   0.262
24712W        W89939  11.855   1.787   2.907
24713W        W89940   2.954  38.919  13.093
24714W        W89941  15.666  23.490  14.965
24715W        W89942  44.186  26.608  14.681
24716W        W89943  23.041  14.139   0.917
24717W        W89944  25.540  29.230  13.019
24718W        W89945  27.594  15.655  12.508
24719W        W89946   7.475  33.596   1.292
24720W        W89947  23.921  31.075  12.893
24721W        W89948  23.694   6.926  10.460
24722W        W89949   9.422  24.193   0.747
24723W        W89950  10.240  32.166   3.570
24724W        W89951  21.495   0.452  13.956
24725W        W89952  11.634  31.268  14.036
24726W        W89953   4.397  28.094   1.305
24727W        W89954  43.470   4.327   2.647
24728W        W89955  38.541   3.226   2.565
24729W        W89956  25.917  22.682   1.846
24730W        W89957  39.204  14.312   1.033
24731W        W89958  38.066  38.559   1.060
24732W        W89959  44.330  18.156  11.873
24733W        W89960   7.351  41.527   2.038
24734W        W89961   8.433  34.939  14.776
24735W        W89962  16.764  11.631   1.344
24736W        W89963  19.936   0.380   4.674
24737W        W89964  13.301  33.107   0.774
24738W        W89965  38.178  32.097   1.171
24739W        W89966  19.797  14.286  11.321
24740W        W89967  30.642  38.246  13.512
24741W        W89968  29.666  37.425  14.592
24742W        W89969  35.567   0.742   1.070
24743W        W89970   7.182   8.270   1.089
24744W        W89971  26.234  13.278   4.250
24745W        W89972   5.706  32.840   0.364
24746W        W89973  10.206  18.688  12.982
24747W        W89974  17.623  35.167  11.481
24748W        W89975  16.671  35.838  14.728
24749W        W89976  28.688   6.719   1.546
24750W        W89977  17.981  29.648  10.508
24751W        W89978   9.207   4.372  11.527
24752W        W89979  15.324  40.729   1.881
24753W        W89980  21.544  24.948  12.523
24754W        W89981   2.441  42.808  12.904
24755W        W89982  12.921  37.498  12.563
24756W        W89983   0.276  38.924  11.695
24757W        W89984  23.208  20.105  12.426
24758W        W89985  16.349  14.847   1.279
24759W        W89986   3.407   0.267   2.105
24760W        W89987  24.247   8.799   1.842
24761W        W89988  12.248  28.240  12.575
24762W        W89989   9.325  12.382   4.533
24763W        W89990   7.113  39.896  13.386
24764W        W89991  17.685  43.443  14.516
24765W        W89992  41.254   8.351  14.790
24766W        W89993  21.227  18.861   0.989
24767W        W89994   2.757  43.030  11.669
24768W        W89995   6.840  34.498  12.656
24769W        W89996  32.878  20.479  13.889
24770W        W89997  21.302  41.239   3.662
24771W        W89998  23.922  27.242   1.200
24772W        W89999  33.189  39.963  14.534
24773W        W90000  30.339  16.643   4.110
24774W        W90001  11.836  40.552  10.576
24775W        W90002  35.397  18.945  13.192
24776W        W90003  32.874   1.618   5.067
24777W        W90004   8.055  11.796  14.428
24778W        W90005  41.045  29.411   1.789
24779W        W90006  32.044  23.728   1.733
24780W        W90007  26.578   5.866   3.551
24781W        W90008   6.388   2.343  13.024
24782W        W90009   7.882  11.204   0.343
24783W        W90010  37.273  21.146   2.744
24784W        W90011  12.069  10.872  12.917
24785W        W90012   5.246  42.817  12.015
24786W        W90013  43.689  30.701   0.228
24787W        W90014  42.479  27.087  12.406
24788W        W90015  28.061  27.542  11.976
24789W        W90016  28.898   6.654  12.231
24790W        W90017   0.161  23.759   5.293
24791W        W90018   6.720  17.106   2.553
24792W        W90019  23.654  34.343   1.267
24793W        W90020  44.080  21.991   4.207
24794W        W90021  35.815   9.571   1.052
24795W        W90022  23.752  20.115  14.354
24796W        W90023  12.621  30.541   3.481
24797W        W90024  20.013  23.580  12.098
24798W        W90025  32.212  18.553   2.794
24799W        W90026  21.759   5.711   0.035
24800W        W90027   9.408  27.707   4.168
24801W        W90028  28.961  23.970   2.204
24802W        W90029  14.923  37.663   5.013
24803W        W90030  20.042  43.872  12.882
24804W        W90031  22.483   3.034   2.053
24805W        W90032  13.694   1.951   2.373
24806W        W90033  42.769  26.104  13.776
24807W        W90034   8.896   0.825   0.467
24808W        W90035  12.411   0.844  12.863
24809W        W90036  21.072  27.374   0.478
24810W        W90037  19.396  20.225  10.632
24811W        W90038  13.254   8.686   3.600
24812W        W90039  26.611  14.714   4.782
24813W        W90040  12.563  13.522  13.990
24814W        W90041   6.188  43.395  14.513
24815W        W90042   4.787  33.956  11.340
24816W        W90043  20.016  43.429   1.911
24817W        W90044  44.472   0.265  10.696
24818W        W90045  33.326  41.507  13.087
24819W        W90046  29.611  28.111  14.238
24820W        W90047   0.590  21.570   0.527
24821W        W90048   7.795   2.727   4.116
24822W        W90049  26.696   6.713   2.136
24823W        W90050  35.857  25.952  11.666
24824W        W90051  27.141  24.865  11.048
24825W        W90052  43.916  10.249   3.938
24826W        W90053  35.905   0.914  11.630
24827W        W90054  44.029  13.357   4.060
24828W        W90055   3.477   2.711  13.397
24829W        W90056  30.134  38.652   4.699
24830W        W90057   9.254  42.785   2.302
24831W        W90058  43.198   2.458   4.648
24832W        W90059  30.986  43.404   2.368
24833W        W90060  43.387  10.797  13.325
24834W        W90061   1.277   7.102   1.761
24835W        W90062   0.778   6.247  12.590
24836W        W90063  25.307  16.325   1.274
24837W        W90064  17.935  31.221  11.645
24838W        W90065  13.009  21.572   2.205
24839W        W90066  42.381  29.025  13.955
24840W        W90067  13.412  43.361   4.636
24841W        W90068  32.442  40.082  11.910
24842W        W90069  41.994  27.062   0.480
24843W        W90070  42.472   2.990  13.644
24844W        W90071  19.202  24.789   0.890
24845W        W90072  37.960   1.474  14.036
24846W        W90073  10.310   6.662  14.381
24847W        W90074  16.062  15.076   0.583
24848W        W90075  10.656  21.906   0.373
24849W        W90076   0.774   4.604  13.391
24850W        W90077  14.178  30.846  14.866
24851W        W90078  11.688  27.498   4.596
24852W        W90079  11.482  12.604   3.573
24853W        W90080  27.739  39.059  12.091
24854W        W90081   7.870  15.291   3.201
24855W        W90082  34.904  19.755  14.500
24856W        W90083  16.621   1.657   2.770
24857W        W90084  14.133  41.736   0.852
24858W        W90085  39.294  17.088  12.984
24859W        W90086  24.305  43.773   2.276
24860W        W90087  43.842  23.733   3.361
24861W        W90088  31.041   4.691   3.857
24862W        W90089  40.613   1.856   4.019
24863W        W90090  37.044  25.275  11.727
24864W        W90091  15.459  14.350  11.839
24865W        W90092  19.245  10.805   2.732
24866W        W90093  13.155  13.731  10.987
24867W        W90094  38.465  21.775   2.584
24868W        W90095  14.606  11.466   3.287
24869W        W90096   8.334  44.294   4.160
24870W        W90097   7.728   2.288   0.951
24871W        W90098  33.991  29.221  14.996
24872W        W90099  31.732  42.930   4.503
24873W        W90100  25.114  17.993  13.747
24874W        W90101   6.604  44.195   2.969
24875W        W90102  26.207  12.577   2.726
24876W        W90103  30.353  24.657  14.440
24877W        W90104  36.866  21.966  12.510
24878W        W90105  31.858  23.532   0.362
24879W        W90106  14.128  37.853  11.113
24880W        W90107  30.515  29.912  13.999
24881W        W90108  37.474   2.284  14.174
24882W        W90109   4.907  41.679  13.509
24883W        W90110  23.024   4.149   1.338
24884W        W90111   3.832  41.853   1.980
24885W        W90112  41.000   5.909   1.898
24886W        W90113   4.893  21.261   4.958
24887W        W90114  10.957   8.755  14.890
24888W        W90115  41.909   2.259  14.907
24889W        W90116  25.776  36.980   0.870
24890W        W90117  32.538  23.203  13.517
24891W        W90118  28.003  38.805   2.441
24892W        W90119  30.542  33.312  13.405
24893W        W90120  19.168  16.370  12.091
24894W        W90121   5.271  40.910   2.615
24895W        W90122  17.895  10.671   4.647
24896W        W90123  32.458  38.597   2.284
24897W        W90124  18.302  11.149  11.999
24898W        W90125  16.039  42.831  11.275
24899W        W90126   4.089  34.984   0.352
24900W        W90127  25.145  20.181  14.302
24901W        W90128  23.207  37.358   2.168
24902W        W90129  22.170  44.951  12.812
24903W        W90130  13.638  11.139  10.714
24904W        W90131  10.105  42.036   3.739
24905W        W90132  12.616  25.896  11.417
24906W        W90133   2.645   5.845   4.603
24907W        W90134   8.078  34.827  12.362
24908W        W90135  43.955  13.840   3.371
24909W        W90136  32.613  42.758   4.416
24910W        W90137  31.574  29.963   0.376
24911W        W90138   2.809  40.406  12.495
24912W        W90139  29.229  44.716  13.399
24913W        W90140  32.653  28.751  13.890
24914W        W90141   4.742   3.077  13.930
24915W        W90142  44.349  11.379   4.591
24916W        W90143  10.346  24.209  12.972
24917W        W90144  19.293  10.189  12.277
24918W        W90145  44.353   8.410   4.257
24919W        W90146  18.036  38.533  11.575
24920W        W90147  37.098  18.655   4.975
24921W        W90148  35.826  14.827  11.670
24922W        W90149  11.984   2.624   0.047
24923W        W90150  22.733  21.511  11.656
24924W        W90151  41.709  15.001  12.738
24925W        W90152   4.931  33.006   4.922
24926W        W90153  15.758  33.671   2.847
24927W        W90154  36.103  34.986   0.282
24928W        W90155  36.568  13.449  11.535
24929W        W90156  24.722  43.945  12.528
24930W        W90157   0.911   4.987   1.151
24931W        W90158  18.869  17.278  12.293
24932W        W90159   5.139  27.086  14.807
24933W        W90160  22.706  40.193   0.317
24934W        W90161   5.275  37.327   4.595
24935W        W90162  33.628  31.186  14.257
24936W        W90163  15.257   9.281  12.110
24937W        W90164  16.321  17.075  10.814
24938W        W90165   5.360  26.747  12.428
24939W        W90166  17.217  14.491  12.068
24940W        W90167  39.798  11.200  14.098
24941W        W90168  26.049  25.808   3.601
24942W        W90169   4.090  19.659  10.823
24943W        W90170  31.636  27.658  13.612
24944W        W90171  28.580  17.846   3.651
24945W        W90172  23.521  41.771   2.481
24946W        W90173  19.799  44.632   1.482
24947W        W90174  15.348  39.113  14.848
24948W        W90175  10.110   6.428   1.849
24949W        W90176  43.820  25.612  12.504
24950W        W90177   8.809  11.609  14.895
24951W        W90178  34.538  32.842  12.534
24952W        W90179  23.661   5.860   0.107
24953W        W90180  22.669  22.748  13.483
24954W        W90181   9.935   6.423  10.936
24955W        W90182  13.592  19.629  11.181
24956W        W90183  36.586  36.577   0.845
24957W        W90184   4.187  14.899  11.665
24958W        W90185  28.976  14.498  14.516
24959W        W90186  19.147  27.407   1.842
24960W        W90187   9.909  33.580   2.629
24961W        W90188  39.798  28.886   1.389
24962W        W90189   7.017  23.092  12.640
24963W        W90190  24.596  13.335   3.137
24964W        W90191   2.616   5.388  11.177
24965W        W90192  38.165   0.987  12.021
24966W        W90193  37.099   9.175  12.142
24967W        W90194  44.962  37.358   4.586
24968W        W90195  27.784  33.432   0.204
24969W        W90196  23.718  15.610  12.593
24970W        W90197  21.324  43.688  10.775
24971W        W90198   4.783  31.661  13.391
24972W        W90199  21.527  31.021   4.677
24973W        W90200  43.561  31.611   2.426
24974W        W90201  17.685  25.361   0.311
24975W        W90202  14.660  18.301   1.529
24976W        W90203  30.449  42.365   4.598
24977W        W90204  10.390  22.322   2.371
24978W        W90205  42.333  42.718  11.189
24979W        W90206  42.743   7.812   3.305
24980W        W90207  20.153   0.257  11.679
24981W        W90208   5.408  18.111  13.484
24982W        W90209   4.739  29.171  13.107
24983W        W90210  35.865   9.417   1.773
24984W        W90211  10.775  34.595  11.206
24985W        W90212  19.052  12.836   1.754
24986W        W90213   5.260  20.690  11.376
24987W        W90214  19.026  15.787  12.974
24988W        W90215  36.993  12.167   4.086
24989W        W90216   2.049  28.262   4.843
24990W        W90217  32.850  39.794  12.055
24991W        W90218  31.166  18.129  14.721
24992W        W90219  28.954  19.278   2.281
24993W        W90220  27.347  10.963  13.436
24994W        W90221  19.240  40.246   4.027
24995W        W90222  30.522  30.204   2.753
24996W        W90223   1.769  13.459   1.782
24997W        W90224  25.132  21.692  13.016
24998W        W90225  14.257  42.035   1.801
24999W        W90226  39.831  12.479  13.502
25000W        W90227  43.671  26.191  13.912
25001W        W90228  43.520  39.683   3.309
25002W        W90229  40.509  19.646   2.245
25003W        W90230  23.943  19.837   2.647
25004W        W90231  11.246   6.572   1.568
25005W        W90232   1.474  36.211   4.558
25006W        W90233  11.064  17.484  13.555
25007W        W90234  33.485   3.253   0.844
25008W        W90235  22.196   5.379  11.157
25009W        W90236  19.689  28.725   2.719
25010W        W90237  35.589  38.257   3.398
25011W        W90238  37.370  28.605   1.860
25012W        W90239  29.500   4.184   3.646
25013W        W90240  25.466  39.503  12.653
25014W        W90241   3.917  37.871  11.623
25015W        W90242  39.044  44.577   2.584
25016W        W90243  42.524  19.290  14.022
25017W        W90244  16.081  12.352   3.108
25018W        W90245   7.303  26.161   3.322
25019W        W90246  30.944   1.769   4.551
25020W        W90247  34.330  28.665   0.721
25021W        W90248  41.446  18.090  13.363
25022W        W90249  17.720  41.251  13.049
25023W        W90250  13.108   4.463  12.181
25024W        W90251  35.833  12.178   3.631
25025W        W90252  40.000  20.969   2.572
25026W        W90253  36.098  33.115   0.833
25027W        W90254  25.425   5.795  14.454
25028W        W90255  29.990  38.159  12.073
25029W        W90256  14.263  29.083   0.341
25030W        W90257  18.311   8.160   2.428
25031W        W90258   7.227   2.011  12.686
25032W        W90259  34.228  37.853  12.904
25033W        W90260  40.971  35.988   4.626
25034W        W90261   0.462  13.483  13.369
25035W        W90262  44.413  43.757   1.533
25036W        W90263   3.522  28.136  10.677
25037W        W90264  17.968  32.348  12.988
25038W        W90265  26.922  32.253   3.263
25039W        W90266  37.020   9.139   0.446
25040W        W90267   8.363  40.832   4.592
25041W        W90268  36.186  26.215   4.055
25042W        W90269  23.164   0.277  11.582
25043W        W90270  36.000  20.297   2.454
25044W        W90271  23.645  20.912   1.013
25045W        W90272  23.266  36.688  11.237
25046W        W90273   4.941  30.047  10.821
25047W        W90274  41.784   9.184   4.529
25048W        W90275  37.965  43.296   4.602
25049W        W90276  40.262  32.406  14.733
25050W        W90277  44.259  29.819  11.982
25051W        W90278  32.076   4.405   0.867
25052W        W90279   0.736  18.596  11.672
25053W        W90280  24.326  39.633  14.524
25054W        W90281  37.377  11.967  13.137
25055W        W90282  22.428  12.974   4.979
25056W        W90283  15.841   8.267   1.215
25057W        W90284  10.338  30.021   1.399
25058W        W90285  37.534  38.274  14.576
25059W        W90286  21.986  30.784   4.682
25060W        W90287  30.321  36.020   2.582
25061W        W90288  17.105   8.060  12.035
25062W        W90289   7.987  28.506   2.809
25063W        W90290   5.363  18.592  13.298
25064W        W90291  29.912  14.562   4.445
25065W        W90292  33.620   7.609  11.126
25066W        W90293  40.385  27.785  13.580
25067W        W90294   1.039  35.919   1.623
25068W        W90295  11.297  21.688   4.762
25069W        W90296  42.773  33.002  11.573
25070W        W90297  33.577  37.168  13.979
25071W        W90298   9.433  43.989   0.835
25072W        W90299  11.131  17.472  12.522
25073W        W90300   9.096   5.143   4.810
25074W        W90301  25.281   0.216   0.366
25075W        W90302   3.832   1.729   3.694
25076W        W90303  28.253  36.086  10.607
25077W        W90304  18.116  12.510   2.437
25078W        W90305  29.654   8.965  14.196
25079W        W90306  23.710  26.705   4.019
25080W        W90307  33.221  15.034  11.649
25081W        W90308   4.247  25.846  12.024
25082W        W90309  38.008  34.033   0.295
25083W        W90310  12.033  38.080   2.814
25084W        W90311   7.192  12.384  13.337
25085W        W90312   3.680  25.035  10.095
25086W        W90313   8.942  22.267   1.266
25087W        W90314   4.868  36.480   3.714
25088W        W90315  24.934  32.462   2.304
25089W        W90316  42.821  34.912   4.271
25090W        W90317  14.670  38.660   0.083
25091W        W90318  33.956   3.977  12.435
25092W        W90319  36.465   9.006   5.003
25093W        W90320  18.578  27.896   4.261
25094W        W90321  19.757  33.865  12.983
25095W        W90322  12.223   2.711   4.105
25096W        W90323  43.279  23.928  10.258
25097W        W90324  35.212  41.946  14.286
25098W        W90325  37.545  18.021  14.435
25099W        W90326   5.389   7.719   1.836
25100W        W90327   5.214  30.010   0.247
25101W        W90328  28.895  35.518   3.234
25102W        W90329  12.537   7.802  10.667
25103W        W90330  20.297  33.568  11.768
25104W        W90331  16.283   4.208   0.393
25105W        W90332  10.147  40.455   3.914
25106W        W90333  44.017  30.045  11.155
25107W        W90334   7.801  11.955  11.864
25108W        W90335  26.893  31.732   9.990
25109W        W90336  11.103  27.552   0.330
25110W        W90337  25.385  29.653  14.608
25111W        W90338  30.350  35.913   4.120
25112W        W90339  25.183   9.625   4.108
25113W        W90340  17.559  31.599   1.328
25114W        W90341  35.427  13.772   0.841
25115W        W90342  30.514  43.387  14.556
25116W        W90343  31.432  36.526   0.687
25117W        W90344  17.485  43.648  14.073
25118W        W90345  38.154  36.856  13.848
25119W        W90346  41.430  40.105   0.582
25120W        W90347  16.580  17.809  11.997
25121W        W90348   5.698  14.184  14.816
25122W        W90349  27.595  42.796   3.688
25123W        W90350  20.029  36.950  11.613
25124W        W90351  11.759  21.817  12.973
25125W        W90352  10.209  19.510  11.401
25126W        W90353  41.409  43.208   4.603
25127W        W90354  34.975  41.753   2.560
25128W        W90355  33.872  34.302  14.078
25129W        W90356   0.014  13.548   2.924
25130W        W90357  13.174  10.372   2.363
25131W        W90358  26.032  20.822   0.814
25132W        W90359  23.243  41.953   0.611
25133W        W90360  21.743  29.823   1.654
25134W        W90361   4.944  25.660  12.589
25135W        W90362  17.117  18.510   1.083
25136W        W90363  34.671  23.547  14.769
25137W        W90364  19.606  16.058   3.519
25138W        W90365  29.664  35.420  12.829
25139W        W90366  33.173  35.783  12.514
25140W        W90367   5.252   9.092  12.839
25141W        W90368  31.943   5.373   1.747
25142W        W90369   1.476   8.180   1.885
25143W        W90370  27.693  21.206   4.901
25144W        W90371  29.444  27.620  13.068
25145W        W90372  39.571  41.563   2.611
25146W        W90373  28.035   4.284   3.615
25147W        W90374  32.410  36.455   0.379
25148W        W90375  40.369  38.491   3.651
25149W        W90376   4.441   4.377  12.125
25150W        W90377  23.495  25.815  14.598
25151W        W90378  21.282  18.018  11.523
25152W        W90379  11.740  26.018  13.965
25153W        W90380  31.070  27.105   4.000
25154W        W90381  41.978   3.276   1.827
25155W        W90382  10.162  31.883   2.220
25156W        W90383  38.915  42.324  14.521
25157W        W90384  16.262  40.496   3.841
25158W        W90385  17.307  21.952   1.554
25159W        W90386   9.373  30.640   3.698
25160W        W90387  11.459  37.203   9.214
25161W        W90388  17.537  38.794   4.078
25162W        W90389  21.641  44.047  10.516
25163W        W90390  19.810  28.014  13.031
25164W        W90391  31.276  15.297  10.322
25165W        W90392  16.197  36.770  11.315
25166W        W90393  11.360  14.103  13.894
25167W        W90394  31.972   8.195  14.928
25168W        W90395  20.547  41.355  14.992
25169W        W90396  25.975  24.044   0.255
25170W        W90397  32.911  40.296  11.932
25171W        W90398  16.118  21.733   0.782
25172W        W90399  18.546   7.540   4.661
25173W        W90400   1.100  19.366  11.530
25174W        W90401   5.631  22.048   1.792
25175W        W90402  12.186   5.673   4.894
25176W        W90403  10.801  17.184   1.191
25177W        W90404  25.844   0.928   2.029
25178W        W90405  29.364  10.179   3.289
25179W        W90406   9.022   9.403   0.225
25180W        W90407  42.735   5.775  14.491
25181W        W90408  26.195   7.417   1.782
25182W        W90409  37.319  18.670   1.828
25183W        W90410   4.652  33.753  13.338
25184W        W90411  29.951  16.540  13.240
25185W        W90412  41.563  31.001  11.066
25186W        W90413  12.379  18.258  11.455
25187W        W90414   1.066   4.722   4.164
25188W        W90415  39.873  16.032  12.469
25189W        W90416  35.586  44.809   3.387
25190W        W90417  19.233  42.622   3.337
25191W        W90418  37.724  43.952  12.011
25192W        W90419  31.422  32.771   4.898
25193W        W90420  42.774  41.811  13.628
25194W        W90421  18.050  10.270   3.817
25195W        W90422  35.636  41.995   0.738
25196W        W90423  38.813  27.917   0.832
25197W        W90424  35.235  19.729   0.946
25198W        W90425  30.418   0.323  12.061
25199W        W90426  34.991  19.109  11.651
25200W        W90427  27.024  31.492  13.105
25201W        W90428  30.820  29.698  11.209
25202W        W90429   4.390  37.499  12.882
25203W        W90430  29.363   8.128  14.063
25204W        W90431   8.348   1.888  13.337
25205W        W90432  14.699  26.667  11.813
25206W        W90433  11.344  23.475  14.980
25207W        W90434  12.688  18.805   4.688
25208W        W90435  39.399   8.035   4.398
25209W        W90436   3.743  44.935   1.851
25210W        W90437  15.697  16.779  12.974
25211W        W90438  37.467  27.534  11.230
25212W        W90439  30.221  14.052  14.324
25213W        W90440   6.751  29.179   4.106
25214W        W90441  27.648   9.337  12.658
25215W        W90442  39.353   6.393   2.321
25216W        W90443   4.669  39.253  12.063
25217W        W90444  28.203  25.256   2.858
25218W        W90445  19.790  10.614  12.414
25219W        W90446  26.422   6.524   4.410
25220W        W90447  30.267   0.038   2.126
25221W        W90448  33.594   2.897   1.728
25222W        W90449   1.431  21.522  11.111
25223W        W90450  34.979   8.916  14.040
25224W        W90451   3.136   0.307  13.456
25225W        W90452  13.258   6.510   3.854
25226W        W90453  40.829  22.127  14.973
25227W        W90454  26.453  39.766  10.253
25228W        W90455  39.517  19.164   0.859
25229W        W90456  16.571  43.220  11.806
25230W        W90457   3.295   0.909   2.344
25231W        W90458  28.076  12.659  13.620
25232W        W90459  44.808  29.853  11.629
25233W        W90460   9.943   5.849  13.972
25234W        W90461  32.936  28.027   3.618
25235W        W90462   9.883  10.042  13.144
25236W        W90463   7.629  18.928   2.003
25237W        W90464  41.334  18.300   1.354
25238W        W90465   7.706  17.837  13.023
25239W        W90466  34.889  16.554  11.372
25240W        W90467   8.888   4.437  13.405
25241W        W90468   1.206  30.607   4.129
25242W        W90469  11.661  15.122  12.914
25243W        W90470  11.139  10.232   3.284
25244W        W90471  26.030  29.452  13.053
25245W        W90472  30.164  24.619   1.907
25246W        W90473   1.399  18.043  13.307
25247W        W90474  20.234  22.812  14.006
25248W        W90475  26.118  17.073  13.095
25249W        W90476  43.023  42.281  13.369
25250W        W90477  22.240   0.407  14.741
25251W        W90478   6.257  29.639  11.871
25252W        W90479  43.418  27.533   1.036
25253W        W90480  42.356  29.611   3.333
25254W        W90481  33.415   8.067   3.053
25255W        W90482  27.528  12.234  13.027
25256W        W90483  30.584   6.014   2.270
25257W        W90484  18.262  30.658   4.142
25258W        W90485  10.191  11.433  12.041
25259W        W90486  30.547   5.606  10.638
25260W        W90487  15.763  24.493  14.066
25261W        W90488  15.899  23.808  11.598
25262W        W90489  15.819  24.789  12.919
25263W        W90490  17.576  36.885   4.374
25264W        W90491   5.192  13.403  13.547
25265W        W90492  18.944  10.822   2.162
25266W        W90493   7.296  34.235  14.508
25267W        W90494  38.130   6.133   1.427
25268W        W90495   6.738  34.791   3.333
25269W        W90496  28.212  17.669   1.826
25270W        W90497  28.488  37.377  10.586
25271W        W90498   2.889  32.029  10.810
25272W        W90499  35.818  15.513  12.962
25273W        W90500   3.310  41.538   1.476
25274W        W90501  44.858  35.308  13.128
25275W        W90502   3.977   3.481   1.849
25276W        W90503  26.212  26.843  12.914
25277W        W90504   5.267   2.756   1.284
25278W        W90505  35.410  26.711   2.242
25279W        W90506  43.381  20.807   1.249
25280W        W90507  31.860  24.410  13.403
25281W        W90508  12.601  33.982   0.895
25282W        W90509  31.698  36.393   3.579
25283W        W90510  20.026  12.397  12.549
25284W        W90511   4.009   2.684  11.543
25285W        W90512  20.723   6.462   3.725
25286W        W90513   8.403  27.650  12.833
25287W        W90514  33.681  44.379   1.218
25288W        W90515  20.503  32.499   0.838
25289W        W90516   4.680  14.963   3.140
25290W        W90517  11.614  33.188   0.914
25291W        W90518  10.934  33.397  12.457
25292W        W90519  11.839   2.505   3.231
25293W        W90520  43.836  28.542   3.570
25294W        W90521  15.823  41.590   1.795
25295W        W90522  39.453  25.605  11.796
25296W        W90523  19.548  23.638   3.589
25297W        W90524   6.789  27.922  11.185
25298W        W90525  26.156  36.597  12.918
25299W        W90526  17.361  33.304   0.447
25300W        W90527  15.686  30.794   2.010
25301W        W90528   3.285  42.168  10.056
25302W        W90529  27.356   9.393  10.942
25303W        W90530  43.858  22.257   3.395
25304W        W90531   6.397   8.398  13.280
25305W        W90532  19.221  21.281   2.726
25306W        W90533   7.357  12.185   2.598
25307W        W90534  28.544  37.238   4.484
25308W        W90535  20.427  28.950   0.994
25309W        W90536  21.210  15.637   2.084
25310W        W90537  41.750  22.653   0.732
25311W        W90538   7.653   6.315   4.172
25312W        W90539  29.774  22.471   0.821
25313W        W90540  15.734   5.933  10.676
25314W        W90541   1.951  19.267  11.979
25315W        W90542  22.518  27.506   1.923
25316W        W90543  19.654   7.353  12.452
25317W        W90544   9.592  15.443  14.765
25318W        W90545  17.841  10.751  14.861
25319W        W90546  16.119   6.962   2.604
25320W        W90547  31.032  18.240  14.226
25321W        W90548  13.501  15.803  14.559
25322W        W90549  12.642  10.372  10.743
25323W        W90550  21.634  41.419  13.117
25324W        W90551   3.762  29.955   0.413
25325W        W90552  37.025  32.395   4.406
25326W        W90553  37.001  40.512   3.058
25327W        W90554  26.858  22.402  12.609
25328W        W90555  37.761  13.526  12.033
25329W        W90556  17.300  32.457  13.607
25330W        W90557  16.545  42.248   3.746
25331W        W90558  34.314  11.850   0.310
25332W        W90559   8.909  21.302   2.289
25333W        W90560  27.335  23.491   3.694
25334W        W90561   7.928  24.238  13.867
25335W        W90562  25.963  25.290  12.348
25336W        W90563  38.770  23.965  12.388
25337W        W90564  16.370  22.116   1.743
25338W        W90565  24.459   2.402   3.517
25339W        W90566  43.515   3.242  12.941
25340W        W90567  42.471  12.349   1.452
25341W        W90568  13.048  25.695   4.632
25342W        W90569  14.536   6.188  12.010
25343W        W90570  27.330   8.446   2.595
25344W        W90571  31.381  43.886  13.593
25345W        W90572   9.291   2.872  13.782
25346W        W90573  12.406  33.696  12.553
25347W        W90574  14.851   9.122  12.968
25348W        W90575  21.197  31.202   1.772
25349W        W90576  37.102   3.755   0.344
25350W        W90577  21.336  28.381  12.826
25351W        W90578   8.759  13.558  14.790
25352W        W90579  11.803  42.296  14.578
25353W        W90580  17.305  42.391  12.489
25354W        W90581   9.186   3.854  13.668
25355W        W90582  11.692  34.400  11.130
25356W        W90583  24.567  35.083  14.728
25357W        W90584   0.033  30.139  12.018
25358W        W90585  11.223   2.784   3.784
25359W        W90586   1.092  31.280  11.562
25360W        W90587  28.214  13.995   3.687
25361W        W90588  11.783  15.108   4.574
25362W        W90589   7.901  10.135   2.268
25363W        W90590  31.597   3.269   4.039
25364W        W90591  16.911   5.657  14.382
25365W        W90592   1.797  13.129  11.947
25366W        W90593  12.097  26.852  10.477
25367W        W90594  36.875  17.018  10.727
25368W        W90595  20.688  23.567   1.231
25369W        W90596  43.815  19.622  14.163
25370W        W90597   7.001  21.649   3.744
25371W        W90598  36.831  13.440  13.136
25372W        W90599  17.412  23.747   4.927
25373W        W90600  39.527  32.547  13.765
25374W        W90601  30.674   4.180   3.014
25375W        W90602  24.167   8.779  12.937
25376W        W90603   7.209   1.401  14.911
25377W        W90604  10.308  17.458  13.842
25378W        W90605   1.677  39.569  13.622
25379W        W90606  40.192   8.362  13.300
25380W        W90607  28.140  31.773  14.314
25381W        W90608  12.045  15.732  12.415
25382W        W90609  38.490  14.209  13.423
25383W        W90610  34.175  28.510   1.575
25384W        W90611   3.334  20.530   1.358
25385W        W90612  18.687  35.875  13.409
25386W        W90613  12.587  41.769   3.188
25387W        W90614   4.774  26.699   1.757
25388W        W90615  15.707  41.114   3.184
25389W        W90616   6.925  17.565  11.991
25390W        W90617   0.363   6.438   0.020
25391W        W90618   4.609  19.034   0.538
25392W        W90619  24.521  20.764  14.822
25393W        W90620  32.195  30.595   4.798
25394W        W90621  44.840  44.023  12.993
25395W        W90622  13.270   5.764   0.090
25396W        W90623   2.387  11.112   1.791
25397W        W90624   6.480  11.843   4.623
25398W        W90625   3.372   7.765   4.949
25399W        W90626  12.171  17.368   1.312
25400W        W90627  36.461  25.146   2.393
25401W        W90628  20.127   4.927  13.301
25402W        W90629  41.591   6.791  10.606
25403W        W90630  27.658  16.616   0.840
25404W        W90631  11.681  21.450  12.537
25405W        W90632  22.855  32.530   1.336
25406W        W90633  41.874   9.159  14.440
25407W        W90634  26.965  22.165  13.071
25408W        W90635  39.904  20.932   2.083
25409W        W90636  24.130  11.483  12.937
25410W        W90637   1.747  44.801  13.991
25411W        W90638   6.125  28.728  11.983
25412W        W90639  10.671  24.248  13.392
25413W        W90640  31.151  10.905   0.305
25414W        W90641  27.125  30.203  14.543
25415W        W90642  43.255  18.543   2.443
25416W        W90643  44.182  27.903   2.056
25417W        W90644   2.645  30.660  13.072
25418W        W90645  22.493   0.850   0.363
25419W        W90646  31.213  18.161   9.951
25420W        W90647   5.146   2.466   4.729
25421W        W90648  30.408  32.861  13.592
25422W        W90649   0.708  24.108  13.009
25423W        W90650  40.414   5.664   0.012
25424W        W90651  33.983  21.680  13.474
25425W        W90652  11.836   0.324  10.527
25426W        W90653   3.373   9.714   2.353
25427W        W90654  32.056  20.783  12.024
25428W        W90655  33.003  20.835   0.458
25429W        W90656  41.366  27.879  11.166
25430W        W90657  40.142  15.611  11.158
25431W        W90658  41.903  19.073   2.982
25432W        W90659  12.467  15.194  14.032
25433W        W90660  38.086  39.514   1.925
25434W        W90661  24.815   5.131   3.222
25435W        W90662  16.863  13.639  12.238
25436W        W90663  26.191  31.543  14.628
25437W        W90664  31.352  22.941  11.184
25438W        W90665  23.649  37.623   2.226
25439W        W90666  14.265  42.512  10.556
25440W        W90667  30.629   9.752  12.967
25441W        W90668   5.266  11.007  12.447
25442W        W90669  35.422  15.855   0.851
25443W        W90670  27.161  25.043  12.909
25444W        W90671   3.426   6.789   2.873
25445W        W90672  20.109   2.805   2.826
25446W        W90673  13.886  31.691  11.628
25447W        W90674   5.821  32.427  10.679
25448W        W90675  13.129  44.652  12.898
25449W        W90676  32.144  44.724   3.480
25450W        W90677  13.403  34.535  14.490
25451W        W90678   5.655  33.429   1.424
25452W        W90679  39.848  10.952  10.723
25453W        W90680  43.326  11.879   1.249
25454W        W90681  39.114  20.903   3.281
25455W        W90682  14.346  29.482   2.165
25456W        W90683  41.713  35.423   4.871
25457W        W90684  38.317  32.251   4.221
25458W        W90685  19.075  13.985   3.602
25459W        W90686  27.738  20.068  13.509
25460W        W90687  38.890  22.713  12.615
25461W        W90688   5.803  13.655   4.002
25462W        W90689  29.031  40.741  14.489
25463W        W90690   0.513  41.242   2.195
25464W        W90691  10.870  29.056  10.599
25465W        W90692  15.692  21.682   3.758
25466W        W90693   5.819  18.201  13.787
25467W        W90694   9.822  17.762   1.888
25468W        W90695  27.306  43.007  12.901
25469W        W90696   4.858  14.383  12.081
25470W        W90697  34.517  26.234   3.577
25471W        W90698   5.944  23.965   2.660
25472W        W90699   1.833  14.144   3.607
25473W        W90700   7.610   3.100  11.638
25474W        W90701  38.847   2.901  13.545
25475W        W90702   7.908  18.068   3.317
25476W        W90703  29.592   7.263   3.356
25477W        W90704  23.003  39.498   2.704
25478W        W90705  29.906  16.495   3.223
25479W        W90706  24.129  13.728   3.675
25480W        W90707  35.465  33.903  12.871
25481W        W90708   9.673  12.345   2.786
25482W        W90709  17.335  27.541  13.325
25483W        W90710   5.967  26.383   4.216
25484W        W90711  36.788  26.004  10.691
25485W        W90712   6.868  29.993   3.310
25486W        W90713  19.599  10.572  14.885
25487W        W90714  27.496  34.506  12.499
25488W        W90715  44.485   6.030   9.996
25489W        W90716  16.564   8.826  12.583
25490W        W90717  38.079  20.431  14.237
25491W        W90718   5.247  20.228  11.629
25492W        W90719   4.468  35.555  11.134
25493W        W90720  24.954  42.168  12.499
25494W        W90721  33.983  32.541   4.752
25495W        W90722  34.067   9.720  11.527
25496W        W90723  31.633   1.409  10.738
25497W        W90724   8.305  23.678  10.710
25498W        W90725   5.585  21.726  13.435
25499W        W90726  18.828  11.501   4.290
25500W        W90727  17.916  31.872  14.719
25501W        W90728  22.409  21.791  14.434
25502W        W90729  38.511   8.421   3.088
25503W        W90730  20.794   8.910  10.866
25504W        W90731  22.664  26.958   0.492
25505W        W90732  11.267   2.257  13.170
25506W        W90733  14.790  38.271  11.052
25507W        W90734   4.274  17.923  10.933
25508W        W90735   0.090  13.315   3.527
25509W        W90736  44.001   1.944  13.828
25510W        W90737  20.294  29.177  14.063
25511W        W90738   4.326  23.485  14.589
25512W        W90739  29.997   5.440   1.283
25513W        W90740  30.160  28.955  11.993
25514W        W90741   7.764  15.909   2.610
25515W        W90742  16.103   6.887   4.030
25516W        W90743  35.052  28.183  14.841
25517W        W90744  36.559  41.130   2.167
25518W        W90745  37.070  13.312  11.545
25519W        W90746  25.591  30.497   0.399
25520W        W90747   5.379  34.388   3.422
25521W        W90748  31.643   0.290   2.834
25522W        W90749   6.180  35.578   0.007
25523W        W90750  18.824  26.111  11.498
25524W        W90751  37.024  17.374   4.406
25525W        W90752  40.315  41.518  13.102
25526W        W90753   0.947  18.995   0.739
25527W        W90754  32.538  43.940  12.285
25528W        W90755  28.270   3.428   0.489
25529W        W90756  42.386  15.052  14.770
25530W        W90757  38.859   4.002   1.005
25531W        W90758  42.023   3.090  12.121
25532W        W90759  44.814   1.149  10.555
25533W        W90760  31.082   9.348   0.542
25534W        W90761  26.582   8.771  10.062
25535W        W90762  44.777  35.599   4.513
25536W        W90763   1.876  32.353  11.154
25537W        W90764  37.940   1.168  11.599
25538W        W90765   4.883   0.156  11.149
25539W        W90766  36.835  26.879   0.986
25540W        W90767  18.196  16.775  13.008
25541W        W90768  20.998   0.848   1.250
25542W        W90769  15.772   0.168  12.533
25543W        W90770   6.007   9.337   2.496
25544W        W90771  11.340  29.656   4.532
25545W        W90772  35.981  38.761  14.938
25546W        W90773  15.632  15.894  12.109
25547W        W90774   2.349  20.120  11.599
25548W        W90775  29.300  35.782  11.550
25549W        W90776  21.218  37.877  13.145
25550W        W90777  41.559  40.554   5.135
25551W        W90778  43.254  34.184  14.917
25552W        W90779  24.456   6.372  12.531
25553W        W90780  24.208  25.927   2.421
25554W        W90781  22.372   1.572   3.488
25555W        W90782  32.991  25.293   1.718
25556W        W90783  28.966  37.982  10.523
25557W        W90784  33.079  20.965  13.824
25558W        W90785  37.082  20.299   2.538
25559W        W90786  38.708  26.566  12.080
25560W        W90787   0.820  35.503   1.264
25561W        W90788  11.169  12.308   0.124
25562W        W90789  41.713  38.588  11.767
25563W        W90790  30.489  20.601   0.088
25564W        W90791   0.019  28.208  11.222
25565W        W90792  11.655  28.235  13.857
25566W        W90793  43.759  17.331  14.906
25567W        W90794  10.444  12.983  11.966
25568W        W90795  15.508  11.779  12.076
25569W        W90796  30.510  30.910  11.665
25570W        W90797  20.673  38.894   2.290
25571W        W90798  15.013  38.027  12.886
25572W        W90799  26.185   9.176   2.196
25573W        W90800  11.739  42.243   0.476
25574W        W90801   9.227  16.798  14.816
25575W        W90802  36.637   7.161   4.919
25576W        W90803  14.559  35.018  12.916
25577W        W90804  19.798  30.570  10.788
25578W        W90805   9.346  12.960  14.835
25579W        W90806  41.955  12.203  13.021
25580W        W90807  44.458  32.700   3.361
25581W        W90808  16.722  33.916   3.603
25582W        W90809   7.307  30.408   3.682
25583W        W90810  32.098  23.161   1.809
25584W        W90811  30.868  29.430  14.848
25585W        W90812  22.255  10.872   2.824
25586W        W90813   9.442  39.578   0.781
25587W        W90814   2.399  17.557  13.095
25588W        W90815  20.113   2.841  10.585
25589W        W90816  21.915  21.807  14.243
25590W        W90817  30.331  33.954   5.057
25591W        W90818  12.151  43.047   3.929
25592W        W90819  19.918   7.664  13.374
25593W        W90820  39.779  23.242  14.854
25594W        W90821  16.581  25.692   2.670
25595W        W90822   7.040  38.753   2.776
25596W        W90823   4.255  15.612   3.302
25597W        W90824  26.304  24.164  12.925
25598W        W90825  18.569  36.142   4.199
25599W        W90826   6.165  14.119  12.503
25600W        W90827  22.728   6.341   2.656
25601W        W90828   6.132   2.333  12.092
25602W        W90829   8.793  39.161  14.140
25603W        W90830  22.113  31.373   0.150
25604W        W90831   6.768  44.285  12.185
25605W        W90832  18.454  38.869  12.726
25606W        W90833  18.068  10.234   2.780
25607W        W90834   8.965  11.956  11.938
25608W        W90835   5.501  16.732   2.340
25609W        W90836  36.063  28.160  12.579
25610W        W90837  31.205  32.907  13.938
25611W        W90838  28.682  39.824   1.817
25612W        W90839  10.719  20.271   0.448
25613W        W90840  28.629  37.333   0.717
25614W        W90841  17.255   4.478  11.218
25615W        W90842  15.881  28.419   2.253
25616W        W90843  28.075  44.859  13.047
25617W        W90844   3.141  35.834  13.545
25618W        W90845  35.558  11.746   2.527
25619W        W90846  15.845  25.695  12.652
25620W        W90847   6.914  38.412   0.227
25621W        W90848  34.590  35.485  11.186
25622W        W90849  37.320   1.522   0.582
25623W        W90850  12.299  30.693   3.095
25624W        W90851   0.275  23.905  13.736
25625W        W90852   5.119  21.519   3.255
25626W        W90853  24.576   3.055   3.151
25627W        W90854  16.236  34.792   1.875
25628W        W90855  39.313   4.615  12.341
25629W        W90856  42.906   6.446  12.234
25630W        W90857  23.016  28.967   4.817
25631W        W90858   4.781  33.640  12.436
25632W        W90859  21.252   6.813  13.786
25633W        W90860  34.294  31.091  12.070
25634W        W90861  12.529  32.142  13.079
25635W        W90862  13.758   1.305   1.744
25636W        W90863   1.210  25.489   4.273
25637W        W90864   4.708  37.806   0.732
25638W        W90865  26.106  21.674   4.225
25639W        W90866  22.137  37.951   1.862
25640W        W90867  24.156  17.692  12.036
25641W        W90868  12.300  25.575   0.019
25642W        W90869   9.471  31.957   0.339
25643W        W90870  20.662  42.848  14.310
25644W        W90871   9.671   0.389  10.721
25645W        W90872   7.065  28.010  14.431
25646W        W90873  40.335  10.659   0.924
25647W        W90874  11.061  32.609  14.685
25648W        W90875   9.433  36.092  12.869
25649W        W90876  37.523  15.386  11.158
25650W        W90877  19.137  26.359  12.412
25651W        W90878  12.828  23.094   1.984
25652W        W90879  26.053  44.420   4.062
25653W        W90880  38.009  16.827  11.646
25654W        W90881  34.456  37.061  13.877
25655W        W90882  33.704  24.640   0.910
25656W        W90883   2.577  22.317   0.618
25657W        W90884  10.776   7.875   1.680
25658W        W90885  13.071  44.367   3.774
25659W        W90886  34.789  34.493   0.319
25660W        W90887   6.726  38.942  10.770
25661W        W90888  27.226  27.015   4.076
25662W        W90889   6.817  40.798  12.121
25663W        W90890  39.023  28.557  12.363
25664W        W90891  25.246  34.297  11.104
25665W        W90892  16.589  43.986   2.272
25666W        W90893   3.851  15.749   2.159
25667W        W90894  35.445  43.268   4.057
25668W        W90895  23.555  20.436  11.153
25669W        W90896   2.334  10.771  14.312
25670W        W90897  41.346   7.504  14.930
25671W        W90898  16.309  19.188  13.858
25672W        W90899  23.116  34.777   3.372
25673W        W90900   7.157   2.882  12.442
25674W        W90901  24.256  20.334  11.449
25675W        W90902   7.215   3.241  14.483
25676W        W90903  30.023  35.382   3.334
25677W        W90904  16.721  37.427  10.867
25678W        W90905   3.895   7.983   0.693
25679W        W90906  40.904  33.801  13.840
25680W        W90907  41.591  30.763   3.374
25681W        W90908  40.296   4.832  12.791
25682W        W90909  44.505  36.543  11.065
25683W        W90910  43.211  36.924   4.679
25684W        W90911  44.707  26.475   1.243
25685W        W90912  44.616  43.909  10.581
25686W        W90913  39.622   8.266   2.171
25687W        W90914  34.201  34.894   4.099
25688W        W90915  35.578  20.120  11.965
25689W        W90916  12.779  25.132  10.844
25690W        W90917  11.399   6.415  13.217
25691W        W90918  40.848   0.933  11.576
25692W        W90919  13.802   8.788   1.694
25693W        W90920  35.626  17.407   2.876
25694W        W90921  10.588  14.559   4.411
25695W        W90922  27.553  20.521  11.555
25696W        W90923  34.741  15.835  13.529
25697W        W90924  35.029  18.972   0.100
25698W        W90925   7.857   8.260   4.582
25699W        W90926  27.920  31.038   0.471
25700W        W90927  35.330   8.685  11.187
25701W        W90928  25.432  19.834   4.683
25702W        W90929  20.910  17.291   1.878
25703W        W90930  35.093   0.452  13.829
25704W        W90931  17.234  16.775   2.013
25705W        W90932  16.754  44.121   4.895
25706W        W90933  32.126  33.843  13.835
25707W        W90934  16.210  33.936  14.928
25708W        W90935   4.893  11.204  14.931
25709W        W90936  36.487  23.765  13.365
25710W        W90937  23.158   6.238  10.959
25711W        W90938  35.450  21.152   4.280
25712W        W90939  17.611  33.818   1.220
25713W        W90940  27.739  39.311  13.714
25714W        W90941   9.589  35.023   3.333
25715W        W90942  17.731  34.818  13.751
25716W        W90943  21.358  17.134   3.246
25717W        W90944  23.276  42.360   1.310
25718W        W90945   4.228   3.672  11.656
25719W        W90946  11.481  33.415  14.756
25720W        W90947  20.568  44.473   4.859
25721W        W90948  25.933  13.423  13.554
25722W        W90949  15.556  23.155  14.535
25723W        W90950  25.271  18.229  11.040
25724W        W90951  37.405  34.247   3.332
25725W        W90952  22.351   9.944   4.669
25726W        W90953  25.812  25.302   1.269
25727W        W90954   5.933  10.916   2.321
25728W        W90955  32.163   0.929   0.931
25729W        W90956  21.306  40.775  13.088
25730W        W90957  37.545  29.459  10.674
25731W        W90958  23.578   4.911   2.637
25732W        W90959  41.833   6.329   0.279
25733W        W90960  15.746  21.793  14.329
25734W        W90961  26.708  40.047  14.490
25735W        W90962  11.994   3.751  11.719
25736W        W90963  43.430  25.710  12.861
25737W        W90964   9.379  21.832  12.039
25738W        W90965  37.991  41.717  11.984
25739W        W90966  31.323  32.016   2.983
25740W        W90967   3.783  40.850   0.427
25741W        W90968  30.469  35.458  14.912
25742W        W90969  18.222  21.008  10.824
25743W        W90970  38.679  42.558  11.398
25744W        W90971  40.778  24.965  10.496
25745W        W90972  28.365  29.933   2.652
25746W        W90973  27.531  14.282  13.897
25747W        W90974  27.809   5.686  14.227
25748W        W90975  30.699  15.610   1.343
25749W        W90976  37.544  19.239  14.380
25750W        W90977  17.322  18.066  10.381
25751W        W90978  31.594  42.857   0.757
25752W        W90979  18.323   3.482   2.967
25753W        W90980  31.329  41.292  11.465
25754W        W90981  15.712  12.958  11.609
25755W        W90982  34.044   5.825  14.281
25756W        W90983  18.724   8.846   2.089
25757W        W90984  31.463  17.263   0.741
25758W        W90985  39.933  43.049   2.908
25759W        W90986  32.848   1.837   2.757
25760W        W90987  28.050  11.213   0.746
25761W        W90988   2.486  41.451  13.978
25762W        W90989   6.960  12.767  14.898
25763W        W90990   0.924  38.815  12.385
25764W        W90991   9.876  26.136   4.257
25765W        W90992  36.776  27.555  14.808
25766W        W90993  16.731  12.412   0.491
25767W        W90994  39.954  30.473  12.124
25768W        W90995  39.297  26.616  14.907
25769W        W90996  22.546  28.688  12.575
25770W        W90997   5.265  26.168   2.723
25771W        W90998   2.972  29.144   3.309
25772W        W90999  17.763  12.627   2.821
25773W        W91000  18.565  17.024   1.707
25774W        W91001  34.926  16.245  12.083
25775W        W91002  33.665   0.441   4.091
25776W        W91003  35.685  35.277   0.954
25777W        W91004  44.988   2.311  11.120
25778W        W91005  41.538  34.929  14.783
25779W        W91006  17.130   5.491  13.024
25780W        W91007   7.187  36.081   2.286
25781W        W91008  40.447  25.162  14.425
25782W        W91009  18.008  34.684  14.167
25783W        W91010  38.455  13.522   2.206
25784W        W91011   2.677  44.610  12.981
25785W        W91012  35.030   0.971  10.946
25786W        W91013  32.648  17.047   2.354
25787W        W91014  20.212  22.393  13.107
25788W        W91015  10.759  22.174   2.864
25789W        W91016  29.576  28.684   0.817
25790W        W91017   1.025  24.556  12.905
25791W        W91018  17.134  24.216  12.905
25792W        W91019  17.984   2.708  14.334
25793W        W91020   1.824  13.461  12.353
25794W        W91021   3.156  21.174  12.352
25795W        W91022   9.172  32.938   3.690
25796W        W91023   5.968  15.134   1.529
25797W        W91024  14.039  33.413   1.876
25798W        W91025  40.212   2.710   3.603
25799W        W91026   0.839   3.423   0.500
25800W        W91027  21.958   5.129   1.763
25801W        W91028  16.186  23.612  10.479
25802W        W91029  30.919  12.096  10.640
25803W        W91030  11.185   7.308  14.394
25804W        W91031  20.829  29.459   4.058
25805W        W91032   0.337  31.048   3.844
25806W        W91033  27.937  24.309  11.208
25807W        W91034   0.499   5.471   1.139
25808W        W91035  24.734  18.175  14.025
25809W        W91036  16.765   4.272  14.779
25810W        W91037  18.819  17.664  10.648
25811W        W91038  42.441  35.835  13.160
25812W        W91039  35.955  31.820   5.019
25813W        W91040   2.019  40.953  10.719
25814W        W91041  13.041  37.920  14.088
25815W        W91042   8.684  17.390  13.002
25816W        W91043  21.136  41.517   3.267
25817W        W91044  40.853  40.978   3.722
25818W        W91045  21.352   4.267   5.439
25819W        W91046  38.653  17.642   2.406
25820W        W91047  14.066   8.657   2.747
25821W        W91048  30.736  27.703  11.263
25822W        W91049  12.576  12.275  14.951
25823W        W91050  40.843  27.233   2.833
25824W        W91051  11.759  16.342  11.162
25825W        W91052  18.232  28.776   3.224
25826W        W91053  20.751  44.821  14.394
25827W        W91054  11.178   8.366   2.651
25828W        W91055  29.396  11.469  13.365
25829W        W91056   8.893  19.421   1.622
25830W        W91057  20.491  23.476  11.223
25831W        W91058  31.903  43.562   1.698
25832W        W91059  24.035  39.851   2.218
25833W        W91060  16.711  34.038  14.042
25834W        W91061  13.286  17.841   1.370
25835W        W91062  24.149   5.964   3.175
25836W        W91063  21.318  22.053   4.249
25837W        W91064   6.939  37.404  11.099
25838W        W91065  32.474  22.911   4.035
25839W        W91066  40.243  44.089   2.356
25840W        W91067  30.996  22.998   0.612
25841W        W91068  30.952   1.486  12.443
25842W        W91069  26.507  12.495  13.890
25843W        W91070  36.506  39.160  14.657
25844W        W91071  37.325  31.079   4.814
25845W        W91072  10.668   6.022   4.281
25846W        W91073  44.966  17.266   3.797
25847W        W91074  15.455  34.971  12.465
25848W        W91075  24.579   3.929   3.756
25849W        W91076  44.271   9.562   4.193
25850W        W91077  10.872  18.096   3.349
25851W        W91078  39.356  31.321   0.879
25852W        W91079  20.564   8.147   4.108
25853W        W91080   2.981  20.065   2.237
25854W        W91081  10.335   2.957  14.317
25855W        W91082  34.360  25.137  13.066
25856W        W91083  10.896  34.571   4.463
25857W        W91084  34.616   3.642  14.219
25858W        W91085  23.850  10.464  11.146
25859W        W91086   0.667  25.470   1.564
25860W        W91087   6.791  32.580  12.961
25861W        W91088  39.271  34.469  10.292
25862W        W91089   0.930  18.156   3.741
25863W        W91090  41.220   4.387   0.305
25864W        W91091  26.752   5.835  12.613
25865W        W91092   9.191  10.652  11.644
25866W        W91093  29.051  15.415   0.704
25867W        W91094  32.128  34.014  10.324
25868W        W91095  27.882   9.484   0.224
25869W        W91096  12.954  42.835  14.700
25870W        W91097  37.932  33.088   4.021
25871W        W91098  40.973  16.966  13.444
25872W        W91099  28.013  31.537   0.740
25873W        W91100  35.748  44.064   1.245
25874W        W91101  18.235  41.027  11.121
25875W        W91102  19.928   3.942   3.851
25876W        W91103  41.514  23.626  12.865
25877W        W91104  43.545   7.156   9.963
25878W        W91105  34.146  36.281   1.324
25879W        W91106  43.303   8.648  13.541
25880W        W91107  36.427  11.474  12.230
25881W        W91108  18.455   7.272   1.924
25882W        W91109  12.132  35.628  12.547
25883W        W91110  44.083  40.305   1.304
25884W        W91111  28.526   8.877  10.544
25885W        W91112  31.366  27.494   2.171
25886W        W91113  17.327  20.115   0.191
25887W        W91114  31.981  12.893   3.234
25888W        W91115   0.824  17.003   2.400
25889W        W91116  22.229   8.130  13.475
25890W        W91117  43.159  13.284   4.716
25891W        W91118  31.614   6.334   4.149
25892W        W91119  24.441  32.018  11.930
25893W        W91120  35.298   1.221   0.026
25894W        W91121  13.860  22.444  11.614
25895W        W91122  34.634   3.883   2.390
25896W        W91123  25.112   6.119  13.600
25897W        W91124  16.112   3.303  11.749
25898W        W91125   9.693   0.824  13.441
25899W        W91126  17.995   7.065   1.984
25900W        W91127  40.232   6.985  13.390
25901W        W91128  41.015  14.377  12.417
25902W        W91129  31.544  41.218  12.855
25903W        W91130  31.935  44.715   2.138
25904W        W91131  11.183   5.188   0.203
25905W        W91132  44.297  36.652  14.716
25906W        W91133  36.084   8.251   3.217
25907W        W91134   1.787  40.489  11.362
25908W        W91135  32.552  29.634  14.394
25909W        W91136  27.552   2.982   2.666
25910W        W91137   3.949  10.616  14.588
25911W        W91138  27.459  44.207  13.402
25912W        W91139  20.531   4.218  10.631
25913W        W91140  40.400  38.631  11.793
25914W        W91141  21.728  12.281  13.943
25915W        W91142  20.192   8.308   4.838
25916W        W91143  31.329  14.531  13.608
25917W        W91144   7.961  11.849   4.428
25918W        W91145  21.386  12.455   0.458
25919W        W91146  17.655  38.142  13.065
25920W        W91147  19.195  43.292  14.861
25921W        W91148   5.655   1.851  13.983
25922W        W91149  31.158  25.597   2.641
25923W        W91150  21.277  17.599  10.601
25924W        W91151  19.277  41.460  12.019
25925W        W91152   1.438  11.242  11.238
25926W        W91153   8.962  14.639  12.441
25927W        W91154  10.228  39.373  12.591
25928W        W91155  42.456  34.876  14.930
25929W        W91156  14.574  29.928   1.830
25930W        W91157   3.762   3.899  13.587
25931W        W91158  41.582   1.871   2.921
25932W        W91159   3.502  43.519   1.863
25933W        W91160   0.432   3.000  13.107
25934W        W91161  10.473  11.271  14.491
25935W        W91162   7.070  22.238   0.463
25936W        W91163  33.152   9.854  14.723
25937W        W91164   3.458  25.046  12.066
25938W        W91165  30.449  11.715   3.752
25939W        W91166  14.683   4.289  14.509
25940W        W91167   6.252  20.094  12.892
25941W        W91168  43.761  33.202   2.306
25942W        W91169  33.981  11.600  11.183
25943W        W91170  27.095  42.900   3.594
25944W        W91171  16.741  38.684  12.514
25945W        W91172  13.964  27.168   1.899
25946W        W91173  33.870  27.200   0.114
25947W        W91174  22.873  37.727  11.576
25948W        W91175  43.994  18.623  12.925
25949W        W91176   4.284  14.754   5.436
25950W        W91177  11.255  41.919  11.721
25951W        W91178  30.955  41.056   1.838
25952W        W91179  24.536  14.350  12.850
25953W        W91180  26.245  32.293  10.657
25954W        W91181   9.912  44.208   0.738
25955W        W91182  20.859  33.583  13.377
25956W        W91183  43.395   0.906  12.503
25957W        W91184  13.562   0.812  14.102
25958W        W91185  41.690  11.755   1.702
25959W        W91186  23.751  37.222  10.497
25960W        W91187  16.127   2.445   0.988
25961W        W91188  13.125   9.283   1.730
25962W        W91189  31.110  17.881  12.071
25963W        W91190  13.806  33.248  10.364
25964W        W91191  26.165  30.237   2.818
25965W        W91192  17.693   3.887  10.705
25966W        W91193   1.430   4.581  14.705
25967W        W91194  20.463   9.808  14.269
25968W        W91195  33.003  14.754   0.809
25969W        W91196  43.351  30.518  10.902
25970W        W91197  39.482  18.376   3.689
25971W        W91198  33.221   4.399   4.123
25972W        W91199  11.291  43.812  12.460
25973W        W91200  31.053  19.782   4.482
25974W        W91201  21.838  29.564   4.356
25975W        W91202  12.321  12.827   4.490
25976W        W91203  18.249   2.832   2.285
25977W        W91204  33.853  32.920  14.444
25978W        W91205  42.857  28.215   4.648
25979W        W91206   5.428  44.284   4.486
25980W        W91207  17.009  19.351  12.531
25981W        W91208   5.276   8.859   4.797
25982W        W91209  34.658  33.456  14.297
25983W        W91210  30.448  29.165  14.420
25984W        W91211  17.648  41.571  11.355
25985W        W91212   5.790  38.921  14.836
25986W        W91213  38.164  29.068  14.023
25987W        W91214   7.705  26.362   2.743
25988W        W91215  40.652  28.044   1.876
25989W        W91216  33.569  24.563  10.256
25990W        W91217   0.516   3.791  12.139
25991W        W91218   5.911  13.810  13.322
25992W        W91219  38.496  43.953  11.055
25993W        W91220  33.856  44.170  14.985
25994W        W91221  43.738  27.012  11.691
25995W        W91222  38.796  38.696   1.805
25996W        W91223  22.610  27.730  10.979
25997W        W91224   8.985  25.956   0.239
25998W        W91225  40.663   5.018  12.495
25999W        W91226   4.791  25.317   4.344
26000W        W91227   1.514  11.596   1.796
26001W        W91228  10.151  41.255   1.302
26002W        W91229  19.770  21.552   0.394
26003W        W91230  16.156  30.763   2.406
26004W        W91231  27.838  14.511   9.968
26005W        W91232  43.317  21.248   4.580
26006W        W91233   5.625  27.656  14.200
26007W        W91234  10.289   3.989   2.617
26008W        W91235  13.005  33.583   0.882
26009W        W91236   1.317  25.182   1.481
26010W        W91237  19.045   2.046  11.145
26011W        W91238  39.178  24.315  12.771
26012W        W91239  23.808  31.573  13.404
26013W        W91240  27.847  42.925   2.554
26014W        W91241  35.066   0.328   2.877
26015W        W91242  27.439  36.527  13.294
26016W        W91243  18.318   2.691   0.687
26017W        W91244  34.380  19.438   1.241
26018W        W91245  12.568  31.810  13.920
26019W        W91246  27.578  27.474  11.780
26020W        W91247  25.583  21.528  12.740
26021W        W91248   3.276  27.358   3.356
26022W        W91249  28.456  20.401   4.821
26023W        W91250  11.171  23.648  12.072
26024W        W91251  32.953  25.352   2.233
26025W        W91252  17.218  35.148   2.399
26026W        W91253  10.821  13.844  14.422
26027W        W91254  33.125  35.916  14.833
26028W        W91255  23.291  35.141   5.062
26029W        W91256  16.840  39.498   1.735
26030W        W91257   7.808  33.642  13.828
26031W        W91258  36.377  38.848   1.470
26032W        W91259  25.043  33.368  14.254
26033W        W91260  19.990  22.286   0.100
26034W        W91261  35.128  26.434   4.617
26035W        W91262  20.160  11.369  10.723
26036W        W91263  21.591  11.183   4.832
26037W        W91264   0.860  12.357  14.728
26038W        W91265  28.636  42.514   4.425
26039W        W91266  24.989  39.800   1.266
26040W        W91267  15.046  24.142   1.677
26041W        W91268   5.308  44.776   1.477
26042W        W91269  36.482  41.129  12.985
26043W        W91270  24.702  29.135  13.317
26044W        W91271  42.203  42.005  11.563
26045W        W91272  23.558  33.615   4.289
26046W        W91273  32.674  43.471  13.571
26047W        W91274  20.772   0.930  12.462
26048W        W91275   0.623  22.736  10.664
26049W        W91276  35.429  12.593   2.152
26050W        W91277  15.778  40.917  14.781
26051W        W91278  27.014  23.607   2.412
26052W        W91279  31.603  11.473  14.602
26053W        W91280   6.995  16.114   0.822
26054W        W91281  40.607  44.873   1.621
26055W        W91282  16.047  42.824   3.264
26056W        W91283   8.891  21.939   0.054
26057W        W91284   7.907  15.163   4.202
26058W        W91285  36.980  20.501  12.366
26059W        W91286   4.765  31.279   0.325
26060W        W91287  18.201  44.733  10.715
26061W        W91288  19.656  33.050  13.812
26062W        W91289  31.110  44.925   1.710
26063W        W91290  26.859   0.745   1.076
26064W        W91291  23.856  15.221   1.710
26065W        W91292  24.685  28.478   0.019
26066W        W91293  43.783  37.641   0.475
26067W        W91294   0.389  37.385   2.677
26068W        W91295   9.175  10.167  12.884
26069W        W91296  44.011  27.087  11.260
26070W        W91297   6.025  40.817  11.540
26071W        W91298  33.128  13.126   2.307
26072W        W91299   9.258  40.109   0.727
26073W        W91300  20.022  37.356   1.857
26074W        W91301  21.913  22.186   0.078
26075W        W91302  39.355  43.586  10.893
26076W        W91303  39.665  33.196   2.652
26077W        W91304  12.286  17.162  10.692
26078W        W91305  20.292  19.830  13.548
26079W        W91306   5.189  14.256  14.844
26080W        W91307   9.137  31.409  10.498
26081W        W91308  39.308  42.261   0.485
26082W        W91309  42.128  43.961   0.518
26083W        W91310  38.044   5.408   2.231
26084W        W91311  30.991  43.416  14.354
26085W        W91312  22.205  42.108   4.126
26086W        W91313   9.377  18.511   0.319
26087W        W91314  14.833  18.877  12.900
26088W        W91315  38.190  26.045  11.363
26089W        W91316  26.232  34.959  13.432
26090W        W91317  11.218  29.114   0.962
26091W        W91318  10.694  10.637   4.402
26092W        W91319   7.969  19.790  13.347
26093W        W91320  32.446  29.633   1.260
26094W        W91321   9.808  23.453  11.797
26095W        W91322  44.594  10.680  12.389
26096W        W91323  43.017  28.398  11.983
26097W        W91324  31.208  20.300   3.310
26098W        W91325  22.054  42.838   3.644
26099W        W91326  26.842  42.946   5.154
26100W        W91327   6.545  25.666   2.392
26101W        W91328   0.235   9.005  12.549
26102W        W91329   0.089  13.300   4.849
26103W        W91330   1.891  32.926   3.714
26104W        W91331  12.396  28.483  13.045
26105W        W91332  17.813  25.173  11.622
26106W        W91333  30.240  11.880  11.610
26107W        W91334  24.647   9.199   1.155
26108W        W91335  12.766  22.468  14.550
26109W        W91336   4.693  33.647   4.491
26110W        W91337  16.297  44.984  10.632
26111W        W91338   9.370  44.723   3.320
26112W        W91339  41.442  27.970   2.108
26113W        W91340  35.316  27.555   2.918
26114W        W91341   1.250   0.354   3.229
26115W        W91342  36.997  18.281  12.805
26116W        W91343  16.364   6.891   1.251
26117W        W91344  25.054  44.485  12.341
26118W        W91345  33.804   5.380  11.976
26119W        W91346  12.062   3.752   2.849
26120W        W91347  38.317  32.859  12.961
26121W        W91348  34.026   3.017  10.760
26122W        W91349  44.886   6.275  12.619
26123W        W91350  42.635  41.837   3.189
26124W        W91351   9.865  25.209   4.110
26125W        W91352  21.271  22.575   2.163
26126W        W91353   6.834  40.550  13.126
26127W        W91354   0.337   4.154   0.397
26128W        W91355   9.784  39.821  13.627
26129W        W91356  26.164   6.137  14.943
26130W        W91357   2.382  35.164   2.791
26131W        W91358  26.528  37.753   4.628
26132W        W91359  19.003  22.458  14.558
26133W        W91360  23.077  42.895  14.992
26134W        W91361  25.624  12.282  14.755
26135W        W91362  14.654  21.050   3.252
26136W        W91363  33.416  26.206   1.863
26137W        W91364  17.739  22.693  12.575
26138W        W91365   9.581  26.829  12.150
26139W        W91366  16.736   5.870   3.222
26140W        W91367   4.840  14.242   4.390
26141W        W91368  36.430  32.021  12.414
26142W        W91369   8.351  41.374   1.771
26143W        W91370  36.732  26.632  14.365
26144W        W91371  44.940  22.249  14.566
26145W        W91372  12.747   5.725   0.864
26146W        W91373  38.453  36.417  13.566
26147W        W91374   2.890  44.594   5.433
26148W        W91375  31.293  17.712   3.506
26149W        W91376  15.037   6.143   1.679
26150W        W91377  22.596   5.158   4.058
26151W        W91378  29.602   0.799  11.596
26152W        W91379  17.632  26.464   1.686
26153W        W91380  30.124   0.400  11.074
26154W        W91381  16.571  28.142  14.521
26155W        W91382   3.295   1.648  13.425
26156W        W91383  15.263   1.953  10.758
26157W        W91384  22.029  19.842  10.631
26158W        W91385  31.957  22.099  13.421
26159W        W91386  27.150  22.830  11.177
26160W        W91387  33.570   5.267  10.764
26161W        W91388   6.377   7.105  11.639
26162W        W91389  18.211  40.309   2.800
26163W        W91390   2.371   7.393  10.979
26164W        W91391  37.384  39.762   1.643
26165W        W91392  16.778  33.564  10.517
26166W        W91393  31.068  28.269   4.966
26167W        W91394  31.811  44.583   0.808
26168W        W91395   5.677   5.283  11.542
26169W        W91396  21.310  30.224   4.141
26170W        W91397  20.863  34.200   1.122
26171W        W91398  42.335   5.798  14.140
26172W        W91399   7.239  23.475  14.876
26173W        W91400  33.044   2.022  10.670
26174W        W91401  12.561  40.947   2.164
26175W        W91402  22.520  10.407   1.959
26176W        W91403  29.686  30.178   2.320
26177W        W91404  13.266  18.220   0.969
26178W        W91405  22.202   1.363   2.559
26179W        W91406  35.958  43.994  12.807
26180W        W91407   1.945  18.128   3.801
26181W        W91408  38.280  20.844   2.679
26182W        W91409   2.273  19.496  13.819
26183W        W91410  23.199   7.747  13.699
26184W        W91411  44.494  10.950   0.597
26185W        W91412   2.637  35.548   4.198
26186W        W91413  16.128   3.443   2.641
26187W        W91414  21.257  21.174  11.447
26188W        W91415   9.879  35.424  13.196
26189W        W91416  22.077  16.787  11.924
26190W        W91417  27.438  11.164  10.571
26191W        W91418  14.711  18.435  11.541
26192W        W91419  34.204  19.469  13.320
26193W        W91420  15.920  12.871  13.939
26194W        W91421  14.009  17.264   4.541
26195W        W91422  29.456  28.074  14.967
26196W        W91423   2.514  25.899  11.491
26197W        W91424   6.719   0.829  11.943
26198W        W91425  39.853  10.124  12.124
26199W        W91426  24.991  41.033  13.835
26200W        W91427  10.278   9.698  13.294
26201W        W91428  19.640  20.658  12.500
26202W        W91429   4.697  44.713   2.574
26203W        W91430   5.733  34.850  12.082
26204W        W91431  39.673  24.446  14.465
26205W        W91432   8.055  36.597  12.851
26206W        W91433  31.145  14.853   1.063
26207W        W91434   2.843  13.221  10.453
26208W        W91435  19.328  26.732  14.454
26209W        W91436  19.767   6.789  14.882
26210W        W91437  15.058  43.927   1.719
26211W        W91438  23.287  38.684   3.149
26212W        W91439  18.185  40.089   0.979
26213W        W91440   4.516  24.254  13.912
26214W        W91441  39.556  26.168  14.886
26215W        W91442   7.744  37.999   0.372
26216W        W91443   9.709  20.982  12.865
26217W        W91444  34.066  15.216  14.968
26218W        W91445  11.769   6.839  11.407
26219W        W91446  11.094   5.444   0.641
26220W        W91447  21.175  26.112  11.648
26221W        W91448  42.010  24.680  14.847
26222W        W91449   8.461  36.043  10.644
26223W        W91450  24.750  17.667  13.933
26224W        W91451  42.307  38.801   2.779
26225W        W91452   0.304  30.069  11.443
26226W        W91453  14.029  20.008   1.904
26227W        W91454  18.896  37.970   4.024
26228W        W91455  10.217  19.658  12.049
26229W        W91456  14.741  10.050   1.423
26230W        W91457  39.263  28.939   1.328
26231W        W91458   8.951  14.116  10.192
26232W        W91459  31.417  38.508   0.455
26233W        W91460  34.930  18.048  11.498
26234W        W91461  26.016  11.834   3.591
26235W        W91462  26.109   8.935   4.343
26236W        W91463  28.598  19.826   1.954
26237W        W91464  30.226  11.160  12.826
26238W        W91465  24.700  28.399   4.676
26239W        W91466  20.615  25.780  12.661
26240W        W91467   1.467   3.421   1.198
26241W        W91468  14.340  16.324  12.535
26242W        W91469  29.892  19.613  14.128
26243W        W91470   7.017  10.078   2.429
26244W        W91471   5.293  22.209  11.927
26245W        W91472  18.585   3.449  14.896
26246W        W91473  26.591  11.463  12.899
26247W        W91474  25.124   9.101   1.335
26248W        W91475  32.984  32.534  13.023
26249W        W91476  37.238  41.465  13.938
26250W        W91477  17.273  11.224  12.108
26251W        W91478  37.415  34.263   4.701
26252W        W91479   9.237  20.299  13.889
26253W        W91480  10.585  39.032  10.625
26254W        W91481  29.399  31.140  13.382
26255W        W91482  15.862   4.344   2.287
26256W        W91483  19.188  36.978  13.752
26257W        W91484   1.564  28.685   0.373
26258W        W91485  31.013  43.053   1.597
26259W        W91486  26.043   3.890   2.058
26260W        W91487  18.565  23.676  12.039
26261W        W91488   9.766  25.400   1.671
26262W        W91489  43.488   4.724   1.784
26263W        W91490  19.046   5.274   0.910
26264W        W91491  26.645  40.915   4.514
26265W        W91492  11.326  33.464   3.148
26266W        W91493   1.964  38.289   4.398
26267W        W91494   8.089  44.170  10.320
26268W        W91495  26.881  16.808  14.901
26269W        W91496  14.122  14.650  13.944
26270W        W91497  20.969  41.661  14.616
26271W        W91498  36.316  18.878  13.890
26272W        W91499   8.826  34.463  11.242
26273W        W91500  17.667   4.402   0.340
26274W        W91501  30.461  23.269  10.753
26275W        W91502  23.199  35.867   1.735
26276W        W91503  29.637  32.226  11.075
26277W        W91504  13.323   7.456  12.834
26278W        W91505  14.550   1.264   4.254
26279W        W91506   5.441  14.754   4.975
26280W        W91507  24.067  12.073   1.802
26281W        W91508  34.556  10.929  12.960
26282W        W91509  15.827  26.518   1.444
26283W        W91510   3.265  10.868  13.391
26284W        W91511   9.717  39.113  14.929
26285W        W91512  40.250   6.853  13.887
26286W        W91513   4.688  31.188   0.837
26287W        W91514  17.264  27.988  11.018
26288W        W91515  11.012  38.117   3.047
26289W        W91516   2.660  39.996   4.602
26290W        W91517  43.908  10.755   3.865
26291W        W91518  28.683  26.582  13.866
26292W        W91519  35.856  18.750  14.979
26293W        W91520  18.981   6.625  12.499
26294W        W91521  15.518   5.140  12.785
26295W        W91522  14.751   7.070  10.570
26296W        W91523  36.334  13.778   4.157
26297W        W91524  16.624  31.266  12.817
26298W        W91525  33.052  40.485  12.373
26299W        W91526  31.658  20.080   4.178
26300W        W91527   5.304   5.526  11.222
26301W        W91528  39.077  42.591   1.799
26302W        W91529  12.220  31.428  13.797
26303W        W91530  44.012  30.800  13.981
26304W        W91531  14.347  36.418   2.686
26305W        W91532   4.250  37.044  14.994
26306W        W91533  41.533  35.842  14.850
26307W        W91534  29.673  16.967  13.308
26308W        W91535  35.257  44.144  11.181
26309W        W91536  20.893  35.040   1.294
26310W        W91537  34.381   7.383   2.903
26311W        W91538  15.140  10.326   3.477
26312W        W91539  20.986  25.071  10.273
26313W        W91540  10.144  44.667  10.211
26314W        W91541  14.020  44.482   4.669
26315W        W91542  25.275  30.378   4.762
26316W        W91543  25.126  42.020   0.787
26317W        W91544  36.772  11.281  14.878
26318W        W91545  33.185  27.996   3.164
26319W        W91546  25.101   4.910   2.461
26320W        W91547  43.320  44.834   1.767
26321W        W91548  39.109  32.451  12.191
26322W        W91549  36.902  17.817  14.866
26323W        W91550  33.388  44.812  13.404
26324W        W91551  21.231  29.447  12.627
26325W        W91552  31.885  10.337   2.601
26326W        W91553  16.819  31.701  10.487
26327W        W91554  10.865  17.006   3.637
26328W        W91555  40.207  17.597   1.433
26329W        W91556  21.725  21.709   4.122
26330W        W91557  22.984  28.176   0.489
26331W        W91558  20.306  31.518   2.188
26332W        W91559  15.715  43.834  12.547
26333W        W91560  40.851  11.417  14.543
26334W        W91561  24.071  26.137   3.332
26335W        W91562  20.817  27.962   2.458
26336W        W91563  29.685   9.206   1.255
26337W        W91564  26.935  13.535   0.751
26338W        W91565  21.686   8.392  11.885
26339W        W91566  19.031  38.551   1.844
26340W        W91567  27.414   5.309   4.316
26341W        W91568  30.625  18.068  11.874
26342W        W91569  34.589  36.446   0.389
26343W        W91570  20.831  19.743   3.701
26344W        W91571  34.667  41.863  13.000
26345W        W91572  24.106  32.463  10.495
26346W        W91573  43.296  12.268   0.891
26347W        W91574  40.511  31.035  12.500
26348W        W91575  29.988  26.918  12.484
26349W        W91576  31.421  28.000  14.590
26350W        W91577   3.445  38.509  11.508
26351W        W91578  20.912  26.999  12.099
26352W        W91579  20.734  28.484  13.235
26353W        W91580  41.758   3.237  10.752
26354W        W91581  32.101  24.554  14.550
26355W        W91582  13.364   3.838  14.511
26356W        W91583   0.333  13.638  13.840
26357W        W91584  18.350   5.216   4.626
26358W        W91585  12.721   0.007  14.864
26359W        W91586   2.577   9.999   2.535
26360W        W91587  23.495  16.656  10.652
26361W        W91588  41.530  19.673   3.422
26362W        W91589  19.219  15.038  12.655
26363W        W91590  38.013  38.351  14.898
26364W        W91591  10.791  22.140  11.811
26365W        W91592  15.558   7.251   4.853
26366W        W91593  30.373  12.283  14.003
26367W        W91594  41.041  36.998  11.086
26368W        W91595  23.541   3.573  11.221
26369W        W91596  27.186  19.627   2.165
26370W        W91597  34.884   4.567  10.316
26371W        W91598  25.951  38.711   3.271
26372W        W91599  11.225  31.448   1.200
26373W        W91600  27.854  11.787  11.555
26374W        W91601   5.320  35.575   2.237
26375W        W91602   3.140  18.648   5.024
26376W        W91603  12.418  34.124   4.195
26377W        W91604  43.758  44.998   3.450
26378W        W91605   6.226  34.454   1.663
26379W        W91606  10.364  25.369   4.130
26380W        W91607  35.166  15.587   1.215
26381W        W91608  44.924  32.564  13.126
26382W        W91609   2.161  42.303   0.496
26383W        W91610  17.757   3.055  12.026
26384W        W91611  37.309  44.464   0.050
26385W        W91612  11.379  17.233   1.827
26386W        W91613  44.394   8.148   2.678
26387W        W91614  11.048  20.186  12.947
26388W        W91615  23.699  23.459   3.642
26389W        W91616  10.258   1.015  11.373
26390W        W91617  17.064  33.095  13.587
26391W        W91618  26.680  22.981  13.510
26392W        W91619  39.793  23.475  11.963
26393W        W91620  10.710  30.858   1.893
26394W        W91621  34.076   4.285   0.743
26395W        W91622  23.532  28.350   1.177
26396W        W91623   9.036  34.490   4.115
26397W        W91624   5.881  42.778   4.163
26398W        W91625  16.574  23.442  12.087
26399W        W91626  23.263  29.532  14.247
26400W        W91627   8.713  30.006  13.054
26401W        W91628  10.788  10.084   3.785
26402W        W91629   2.062   8.384   1.031
26403W        W91630  20.554  23.495   1.721
26404W        W91631  19.715  34.100  14.063
26405W        W91632  12.776   6.088   2.236
26406W        W91633  23.017  30.014  11.680
26407W        W91634  39.639   6.229  14.817
26408W        W91635  42.742  28.758  13.694
26409W        W91636   7.691   1.088  14.823
26410W        W91637  25.432  16.697   4.537
26411W        W91638  29.079  26.761  14.809
26412W        W91639  43.296  26.103   0.644
26413W        W91640  42.294   5.768   4.657
26414W        W91641  12.327  30.367  11.966
26415W        W91642  15.058  41.322  10.764
26416W        W91643  42.303  21.183   4.665
26417W        W91644  28.418  17.713   0.919
26418W        W91645  18.213   6.945  12.011
26419W        W91646  37.499  33.525   3.626
26420W        W91647  33.122  23.757  14.789
26421W        W91648  26.461  20.680  14.883
26422W        W91649   2.901  25.893  13.068
26423W        W91650  30.605  34.598  11.649
26424W        W91651   6.402  39.576  14.849
26425W        W91652  20.875  35.105   4.187
26426W        W91653  23.816  33.529  13.445
26427W        W91654  38.037  32.080  13.459
26428W        W91655  41.601  21.211   2.322
26429W        W91656  15.378  30.322  10.253
26430W        W91657   9.632  44.744   0.292
26431W        W91658   5.757   4.181  12.155
26432W        W91659  32.579  29.192  14.130
26433W        W91660  14.473  28.274   3.278
26434W        W91661  13.524   5.845  14.589
26435W        W91662  22.895   0.636  12.531
26436W        W91663  44.654  23.168  10.642
26437W        W91664   6.122  21.922  13.664
26438W        W91665  40.238  18.850   1.791
26439W        W91666  38.512   2.406  14.321
26440W        W91667  41.157  27.028  13.760
26441W        W91668  31.334  33.352  11.207
26442W        W91669  14.338   9.781  12.028
26443W        W91670  10.214  25.553  12.154
26444W        W91671  43.287  34.167  11.211
26445W        W91672  43.685  11.561  11.907
26446W        W91673  15.074  41.466   2.747
26447W        W91674  19.552  29.939   2.340
26448W        W91675   6.170  33.197  12.770
26449W        W91676  35.520  32.074  12.872
26450W        W91677  38.509  33.937   4.924
26451W        W91678  29.149  43.265   2.766
26452W        W91679  14.681  14.331   2.107
26453W        W91680   9.334   6.602   2.854
26454W        W91681   9.211  11.556  12.566
26455W        W91682   0.215  22.526   4.422
26456W        W91683  25.095  23.968  10.626
26457W        W91684  11.269  33.870  14.868
26458W        W91685  12.125  17.140  14.416
26459W        W91686  23.193  11.303  13.569
26460W        W91687   8.641  19.265   1.210
26461W        W91688  16.563   9.263   2.406
26462W        W91689  18.282  12.111  12.846
26463W        W91690  33.049  20.295   0.455
26464W        W91691  39.023  21.192   3.730
26465W        W91692   3.357  17.208   0.456
26466W        W91693   5.368  29.415   3.244
26467W        W91694  29.984  18.525  14.864
26468W        W91695  20.181  28.254  13.325
26469W        W91696   4.926  35.262   3.300
26470W        W91697   6.160   8.610   9.777
26471W        W91698  10.710  38.046   2.183
26472W        W91699  12.605   8.297  12.982
26473W        W91700  21.467  14.208   2.700
26474W        W91701  41.283  18.228   4.839
26475W        W91702   8.861  43.905  14.793
26476W        W91703  10.746  44.605  14.309
26477W        W91704  13.731  44.297  12.249
26478W        W91705  39.173  35.128   2.868
26479W        W91706  21.645  14.819  10.415
26480W        W91707  23.184  33.200  14.438
26481W        W91708  31.240   4.731  11.349
26482W        W91709  22.559  36.587  12.884
26483W        W91710  21.172  22.234   0.581
26484W        W91711  30.426  44.706   0.227
26485W        W91712   1.305  33.610  13.853
26486W        W91713  31.108  23.617   1.951
26487W        W91714  18.123  41.247   1.060
26488W        W91715  19.734  35.604   2.429
26489W        W91716   9.672  18.255  11.950
26490W        W91717  31.845  31.694  12.850
26491W        W91718  20.700  19.797  10.760
26492W        W91719  29.411  31.998  11.485
26493W        W91720   5.175  27.001  12.872
26494W        W91721  34.091   0.972  12.411
26495W        W91722   3.308  26.825  13.796
26496W        W91723  43.546  27.790  11.013
26497W        W91724  23.486  39.470  11.763
26498W        W91725  24.152  32.767  13.496
26499W        W91726  29.991  28.558   4.585
26500W        W91727   6.636  26.112  12.186
26501W        W91728   6.617  30.457   1.744
26502W        W91729   8.235  11.914  13.556
26503W        W91730   5.905  10.090   0.517
26504W        W91731  38.909  22.955  11.747
26505W        W91732  29.063  42.290  12.315
26506W        W91733  44.916  38.774  14.353
26507W        W91734   8.899  12.855  12.317
26508W        W91735   9.321   2.053   4.632
26509W        W91736   5.398  22.137  14.727
26510W        W91737  20.591   7.573   0.836
26511W        W91738  20.521   7.836  13.130
26512W        W91739  37.338  25.589   1.916
26513W        W91740  19.078  44.808  12.818
26514W        W91741  36.477  21.671  10.443
26515W        W91742  33.171   6.886  14.285
26516W        W91743  40.011  10.827   4.708
26517W        W91744  10.832  12.657  12.090
26518W        W91745   8.046  37.517  13.843
26519W        W91746  38.979  30.433   2.657
26520W        W91747  21.239  42.763  10.856
26521W        W91748  35.055  42.532   3.774
26522W        W91749  12.076  10.578  14.851
26523W        W91750  13.123   3.884   1.282
26524W        W91751  16.863   8.895  14.039
26525W        W91752  35.674  44.373  13.506
26526W        W91753  12.112  30.647  11.614
26527W        W91754  44.413  34.118  14.049
26528W        W91755   7.838  36.916   4.674
26529W        W91756  28.594  21.473   1.279
26530W        W91757  28.477   7.611  13.964
26531W        W91758  10.694  25.686  14.943
26532W        W91759  38.581  27.175   0.381
26533W        W91760  30.607  37.903   5.045
26534W        W91761  20.404  16.758   3.994
26535W        W91762   8.726  31.951   3.716
26536W        W91763  26.152   6.017   3.189
26537W        W91764  25.664  39.769  14.048
26538W        W91765   0.132  17.724  11.046
26539W        W91766  22.131  30.286   4.779
26540W        W91767  13.714  25.743  14.248
26541W        W91768  11.288  15.108  10.502
26542W        W91769  39.059  38.579  14.806
26543W        W91770  37.550  21.227  11.611
26544W        W91771   1.717   7.206  14.560
26545W        W91772  24.069  30.066   2.803
26546W        W91773  10.898  20.086  12.007
26547W        W91774  36.034  20.335   0.500
26548W        W91775   3.185   8.804  11.857
26549W        W91776   9.383  27.247  11.880
26550W        W91777  32.051  16.095   1.392
26551W        W91778  42.220  32.067   2.223
26552W        W91779  32.428  35.163  12.595
26553W        W91780  15.777   1.467   4.722
26554W        W91781  24.903  12.308  14.371
26555W        W91782  41.313  14.864   2.726
26556W        W91783  32.357  10.145  10.209
26557W        W91784   7.197   8.633  12.005
26558W        W91785  43.067   9.913  14.331
26559W        W91786  40.524  18.774  13.485
26560W        W91787  11.724   5.817   4.655
26561W        W91788   3.813  27.772  13.529
26562W        W91789   5.794   7.773   0.270
26563W        W91790  39.967  40.360  13.067
26564W        W91791   4.262  24.165   0.190
26565W        W91792  42.932  33.909  13.898
26566W        W91793   4.423   1.005   1.683
26567W        W91794  39.017  19.269   3.669
26568W        W91795  24.510  40.125  11.213
26569W        W91796   4.948  36.996   4.846
26570W        W91797  21.338  34.406   3.892
26571W        W91798  33.456  33.116  10.733
26572W        W91799  27.571  12.612   9.753
26573W        W91800  34.442  23.805   2.466
26574W        W91801  23.908  27.153   3.787
26575W        W91802  34.409  41.314   0.013
26576W        W91803   3.954   9.437  10.384
26577W        W91804  34.495  31.633   0.413
26578W        W91805  43.061   5.362   3.622
26579W        W91806  25.760  16.701   3.220
26580W        W91807  18.231  14.314  13.059
26581W        W91808  27.820  24.140  14.811
26582W        W91809   8.397  19.983  13.589
26583W        W91810  20.521   9.856   4.245
26584W        W91811  15.869   7.162   1.405
26585W        W91812  30.055   5.792  14.486
26586W        W91813   5.333  19.618  13.569
26587W        W91814   2.196  15.098  14.734
26588W        W91815  21.948  20.435  10.472
26589W        W91816  13.285  17.824  13.936
26590W        W91817  22.607  12.319   1.889
26591W        W91818  17.617  17.669  13.573
26592W        W91819  26.486  29.473  11.556
26593W        W91820   6.408   6.381   0.951
26594W        W91821  25.023  25.706   1.354
26595W        W91822  30.664   5.656   4.491
26596W        W91823  32.338   3.655  12.465
26597W        W91824   0.864   2.402  13.756
26598W        W91825  19.668   2.133  12.958
26599W        W91826  21.522   5.726  14.568
26600W        W91827  36.912  41.420  13.007
26601W        W91828  32.716  40.397   3.629
26602W        W91829  14.104   3.127   4.156
26603W        W91830  20.405  19.751   3.430
26604W        W91831   1.690   0.916   3.958
26605W        W91832  43.265  42.943   4.579
26606W        W91833  10.404  21.894  12.635
26607W        W91834  21.846  10.378  14.321
26608W        W91835   3.827  33.679  10.041
26609W        W91836  19.830  17.535   4.164
26610W        W91837  13.270   5.578  10.309
26611W        W91838  13.823  26.593   4.093
26612W        W91839  36.369  20.446  10.750
26613W        W91840  29.559   1.515  13.871
26614W        W91841  31.205  41.391  11.970
26615W        W91842  39.548  24.600  11.439
26616W        W91843  32.544  28.586   2.331
26617W        W91844  32.439   9.888  14.138
26618W        W91845  40.033  13.645  14.997
26619W        W91846   5.937  33.657   4.388
26620W        W91847  15.194  39.312   3.202
26621W        W91848  28.150  19.639  11.586
26622W        W91849  33.752  21.539   0.315
26623W        W91850   0.377  29.657   0.037
26624W        W91851   9.309  43.931   4.924
26625W        W91852  33.578  15.824   4.459
26626W        W91853  27.914   6.771   1.995
26627W        W91854  24.992   0.911   2.431
26628W        W91855  29.245   0.755  13.363
26629W        W91856  21.081  16.212   1.360
26630W        W91857  11.357  26.484   1.515
26631W        W91858   5.356  43.022  10.855
26632W        W91859  33.300  43.812  14.083
26633W        W91860  29.437   4.650   1.581
26634W        W91861  18.492  43.392   4.795
26635W        W91862  34.097  38.025  13.909
26636W        W91863  42.394  22.059   1.325
26637W        W91864   9.123  28.752  12.081
26638W        W91865   4.310  10.117   3.676
26639W        W91866  11.388  16.461  14.706
26640W        W91867  27.497  24.113   0.202
26641W        W91868  36.846   8.583  11.132
26642W        W91869  16.243  30.701   1.894
26643W        W91870  10.108  29.494   0.305
26644W        W91871   2.196  18.133  14.829
26645W        W91872  19.764  10.105  12.485
26646W        W91873  15.745  32.332  12.663
26647W        W91874  16.293  26.885   2.117
26648W        W91875   6.707  37.732   2.720
26649W        W91876  13.150  21.987  11.193
26650W        W91877  13.557   8.719   2.596
26651W        W91878  13.825   4.311  11.119
26652W        W91879   5.212  37.964  11.006
26653W        W91880  24.897  11.951  12.612
26654W        W91881  15.718  31.107   4.614
26655W        W91882  26.524  42.795  13.407
26656W        W91883  14.889   1.197   4.631
26657W        W91884  17.931  24.559  11.197
26658W        W91885  15.574  42.550   1.916
26659W        W91886  34.817   4.792   3.972
26660W        W91887   8.260  17.169  13.998
26661W        W91888  12.632  35.689   3.652
26662W        W91889  41.277  37.476   0.015
26663W        W91890  12.335   5.663  13.060
26664W        W91891  12.292   3.410  14.973
26665W        W91892  35.168  36.018  10.997
26666W        W91893  36.013  37.615   2.600
26667W        W91894  39.518  33.510  12.912
26668W        W91895  23.570  29.504  10.469
26669W        W91896  24.678  36.567  12.119
26670W        W91897  40.036  34.408  13.743
26671W        W91898  36.315  29.151   3.087
26672W        W91899   6.696  24.978  14.855
26673W        W91900  32.551  41.512  13.229
26674W        W91901  27.113  14.594  13.939
26675W        W91902  20.717   4.226  11.472
26676W        W91903  11.468  38.414  13.536
26677W        W91904  35.866  26.200   2.843
26678W        W91905  15.529  17.110   1.291
26679W        W91906   2.012   5.191  14.337
26680W        W91907  44.010  41.345  14.426
26681W        W91908  41.236   1.162   3.147
26682W        W91909   0.220  29.600  14.555
26683W        W91910  42.066   1.153  12.451
26684W        W91911  23.387  14.400  11.772
26685W        W91912  44.970   1.370   1.392
26686W        W91913   8.230  20.518   2.846
26687W        W91914  15.390   8.390  11.628
26688W        W91915  40.085  42.657  13.923
26689W        W91916  27.207  24.916  14.998
26690W        W91917  17.360  44.453  13.473
26691W        W91918  13.879   0.040   2.327
26692W        W91919  20.147  27.537  10.763
26693W        W91920  22.732  28.162  10.693
26694W        W91921  38.426  26.668  12.930
26695W        W91922  25.146  10.774   4.102
26696W        W91923  16.078  29.115  11.212
26697W        W91924  35.256  30.808   2.190
26698W        W91925   3.538  23.198  10.791
26699W        W91926  12.105  32.387  11.334
26700W        W91927  13.084  24.298   2.790
26701W        W91928  26.456  21.829   2.762
26702W        W91929   3.296   7.376   1.632
26703W        W91930  36.444  21.069  12.835
26704W        W91931   3.378  23.317  14.242
26705W        W91932  34.454  10.811   3.528
26706W        W91933  25.274  36.146   1.138
26707W        W91934  34.180  24.119  14.595
26708W        W91935  38.606  24.619   3.414
26709W        W91936   6.971  18.093  12.512
26710W        W91937  34.719  34.087   1.442
26711W        W91938  31.690  39.419   3.642
26712W        W91939  22.439  39.111  14.261
26713W        W91940   5.258  13.715   1.234
26714W        W91941  33.071  36.507  12.888
26715W        W91942  21.927  27.203  11.552
26716W        W91943  19.815  26.572  14.430
26717W        W91944  32.050  20.366  14.897
26718W        W91945  14.604  24.053  14.080
26719W        W91946  36.514   4.175  13.533
26720W        W91947   5.539  43.074  10.006
26721W        W91948  30.583  34.770   0.502
26722W        W91949   2.256  33.041  10.515
26723W        W91950  26.151  34.644  12.133
26724W        W91951  23.216  33.093   4.730
26725W        W91952  26.639  41.009  11.579
26726W        W91953  21.326  19.472   1.395
26727W        W91954   3.419  38.008  11.627
26728W        W91955   5.415  36.572  10.771
26729W        W91956   5.677   3.742  14.965
26730W        W91957  11.677  28.414   3.259
26731W        W91958  37.882  24.976  12.844
26732W        W91959   5.421  41.357  14.351
26733W        W91960  41.422  30.239  10.605
26734W        W91961  24.201  29.888  14.395
26735W        W91962  19.865  30.698   3.319
26736W        W91963   5.258  22.185   0.842
26737W        W91964   0.695  29.095   4.565
26738W        W91965   6.689  28.668   2.435
26739W        W91966   1.688   7.383   3.761
26740W        W91967  15.498  26.587   2.846
26741W        W91968   4.966  21.242   0.910
26742W        W91969  34.409  36.550   1.685
26743W        W91970  19.947   3.181   0.690
26744W        W91971  33.935   7.732   3.721
26745W        W91972  24.802   2.319   0.255
26746W        W91973  34.602  16.715   0.855
26747W        W91974  24.938  23.169   3.203
26748W        W91975  28.252  25.680   3.244
26749W        W91976   0.466   7.213   3.010
26750W        W91977   9.635  11.417   1.265
26751W        W91978  18.447  12.264  14.307
26752W        W91979  41.732  19.481   3.856
26753W        W91980  28.760  34.379   0.229
26754W        W91981   7.092  32.416   2.714
26755W        W91982   0.657  21.851   2.498
26756W        W91983  22.685  35.820   3.686
26757W        W91984  40.775  20.990  11.527
26758W        W91985  28.572   1.477   4.139
26759W        W91986  17.823  14.084  14.480
26760W        W91987  33.091  42.775   3.689
26761W        W91988   4.620   2.176   3.254
26762W        W91989  38.416  14.257   4.317
26763W        W91990  39.294  20.225   2.202
26764W        W91991  14.211  24.555  14.000
26765W        W91992  17.085  32.434   0.521
26766W        W91993   6.393  31.924  13.951
26767W        W91994   5.795  25.733  14.280
26768W        W91995  33.601  35.314   4.368
26769W        W91996  38.882  34.867   0.781
26770W        W91997  36.331  29.267   1.048
26771W        W91998  32.854  26.559   4.038
26772W        W91999  22.572  32.184   0.404
26773W        W92000  15.799  10.095  11.194
26774W        W92001  34.989   9.881  14.144
26775W        W92002  30.874  34.368   3.769
26776W        W92003  26.898  43.339   4.375
26777W        W92004   9.380  36.091   2.645
26778W        W92005  27.599  28.551  14.230
26779W        W92006  11.325   0.310  12.276
26780W        W92007  44.687   2.096   0.987
26781W        W92008  39.098  27.781  13.678
26782W        W92009  36.656  32.178  10.491
26783W        W92010   9.840  22.223   1.519
26784W        W92011  22.824  23.686  11.935
26785W        W92012   4.344  23.817   4.857
26786W        W92013  34.069  30.548  12.660
26787W        W92014  20.281  12.824   0.917
26788W        W92015  13.790  16.266   3.178
26789W        W92016  23.125  23.452   0.085
26790W        W92017  13.210  43.310  14.715
26791W        W92018  27.873   5.288   0.008
26792W        W92019  10.200  25.001   0.394
26793W        W92020  31.396  28.165  12.765
26794W        W92021   6.271  27.637  10.472
26795W        W92022  35.391  25.414  12.904
26796W        W92023   2.746   8.334  13.914
26797W        W92024   6.394  38.126   1.654
26798W        W92025  33.343  43.100   1.734
26799W        W92026  25.612  21.556  12.226
26800W        W92027  18.156  32.587   0.707
26801W        W92028  34.425   5.149  13.119
26802W        W92029   2.301  31.554   4.026
26803W        W92030  25.996  15.122   0.790
26804W        W92031  15.572  35.132  13.886
26805W        W92032  39.833  35.351   1.197
26806W        W92033  21.751   9.101   0.326
26807W        W92034  22.748  18.195   0.293
26808W        W92035  10.374  40.461  12.171
26809W        W92036   3.665   0.437   1.688
26810W        W92037   5.938  20.203  12.458
26811W        W92038  31.191   4.833  10.754
26812W        W92039   0.644   4.371   3.595
26813W        W92040   7.770  41.775   3.753
26814W        W92041  26.928  29.317   0.090
26815W        W92042  24.557  42.600   5.114
26816W        W92043  27.626  41.511   2.208
26817W        W92044  35.356  14.653  11.421
26818W        W92045   1.632  26.636   3.803
26819W        W92046   7.814  25.426  10.371
26820W        W92047   8.854  29.443   3.635
26821W        W92048  30.644  32.340  11.642
26822W        W92049  31.079  25.176   9.345
26823W        W92050  40.920   2.154   3.657
26824W        W92051  19.691  33.549   2.894
26825W        W92052  11.195   0.912  11.433
26826W        W92053  27.535  11.357   3.267
26827W        W92054  13.243  11.983   2.387
26828W        W92055   8.946  43.953  13.284
26829W        W92056  10.053  38.574   1.878
26830W        W92057  32.441  44.279   4.629
26831W        W92058   3.348  40.797   3.279
26832W        W92059   9.639  38.945  11.447
26833W        W92060  18.177  23.027   4.554
26834W        W92061  36.590  35.003   1.062
26835W        W92062  10.771  16.019   3.222
26836W        W92063  25.911   4.955   1.929
26837W        W92064  17.514   5.616  10.991
26838W        W92065   9.921  21.823  11.557
26839W        W92066   0.651  34.337   1.244
26840W        W92067  26.945  40.410   1.804
26841W        W92068   7.947  40.452   4.712
26842W        W92069  11.379  27.980   3.132
26843W        W92070   8.387  42.813  11.057
26844W        W92071  34.417  17.675  11.228
26845W        W92072   8.528  18.946   3.325
26846W        W92073  43.279  43.885  14.451
26847W        W92074  43.403  42.673   4.162
26848W        W92075   2.459   8.398   3.740
26849W        W92076  26.000  15.765  14.976
26850W        W92077  27.941   7.632  13.097
26851W        W92078   4.334  14.251   4.531
26852W        W92079  23.108  18.124   4.487
26853W        W92080   3.254   0.948  10.504
26854W        W92081  18.013  29.982   4.839
26855W        W92082  38.365  25.647  11.084
26856W        W92083  28.195  37.555   3.127
26857W        W92084   9.302  30.445  10.925
26858W        W92085  17.750  28.696   4.746
26859W        W92086   0.264  43.417   3.611
26860W        W92087  43.875  40.307  14.868
26861W        W92088  19.620  15.351   0.731
26862W        W92089   2.250  41.231   1.211
26863W        W92090  26.406  22.198  13.039
26864W        W92091  18.685  40.043  11.971
26865W        W92092  29.808  21.256   4.907
26866W        W92093  39.436  29.266   4.143
26867W        W92094  22.622  34.532   0.894
26868W        W92095  44.849  41.028  12.928
26869W        W92096  10.736  35.180  13.060
26870W        W92097   1.081  24.049  11.594
26871W        W92098  33.840  17.283  13.814
26872W        W92099  26.637  37.552  12.594
26873W        W92100  16.589  24.201  11.187
26874W        W92101   9.350  25.093   0.196
26875W        W92102  33.680  13.765  14.857
26876W        W92103  43.950  13.229  11.001
26877W        W92104  21.726  20.899  13.908
26878W        W92105  17.259  28.493   3.532
26879W        W92106  22.729  15.886  12.250
26880W        W92107  31.966   5.696  14.511
26881W        W92108  18.634   5.190  14.565
26882W        W92109  18.534   0.419   1.010
26883W        W92110  11.358  20.525   0.958
26884W        W92111  27.897  25.453   0.253
26885W        W92112  22.126  11.447  11.607
26886W        W92113  41.052  32.858   0.483
26887W        W92114  15.074  22.246   1.083
26888W        W92115  25.514  39.076   4.091
26889W        W92116  23.418  14.167   2.231
26890W        W92117  38.073  29.830  14.805
26891W        W92118  30.002  23.126  10.893
26892W        W92119  34.188  13.373  14.468
26893W        W92120  39.350  30.980  13.792
26894W        W92121  18.928  35.646   1.745
26895W        W92122  36.574  27.406   2.841
26896W        W92123  18.915  11.974  14.367
26897W        W92124  43.351  21.230  11.612
26898W        W92125   2.651  16.209  11.963
26899W        W92126  37.793  15.580   3.548
26900W        W92127  11.928   2.713   2.754
26901W        W92128   2.207  29.557   0.184
26902W        W92129  28.634  20.637   3.752
26903W        W92130   6.266   7.609  11.566
26904W        W92131  25.188  41.389   0.088
26905W        W92132  37.902  24.888  13.764
26906W        W92133  19.713  42.496  13.012
26907W        W92134  15.278  25.967  12.085
26908W        W92135  36.032  25.058  13.543
26909W        W92136  24.902   1.002   0.905
26910W        W92137  30.073   5.144   3.991
26911W        W92138   6.817   5.370   4.801
26912W        W92139   1.738   5.816   1.674
26913W        W92140  25.473  29.211   3.275
26914W        W92141  42.007  25.941   1.852
26915W        W92142  29.423  24.539   4.902
26916W        W92143  10.658  15.563  11.604
26917W        W92144  14.135  25.810   0.412
26918W        W92145  40.857  16.712  12.527
26919W        W92146  24.072  36.389   3.907
26920W        W92147  29.367  12.622   4.774
26921W        W92148   2.683  18.312  14.858
26922W        W92149   3.321   2.951   2.993
26923W        W92150  43.715  21.812  13.282
26924W        W92151  34.503  35.487   2.724
26925W        W92152  38.550  32.160  13.451
26926W        W92153  30.189   2.468  11.810
26927W        W92154  41.510   1.541  13.927
26928W        W92155   3.844  41.309  14.215
26929W        W92156  35.628   4.207   1.939
26930W        W92157  33.965  10.213   2.847
26931W        W92158  19.766  30.201   0.208
26932W        W92159  34.885  16.779   0.423
26933W        W92160  35.602   3.663  12.714
26934W        W92161  18.478  20.564   4.117
26935W        W92162  17.677  24.095   1.431
26936W        W92163  30.622  30.187   4.555
26937W        W92164  16.517  26.425  14.415
26938W        W92165  18.308  13.568   2.350
26939W        W92166  33.712  44.873  10.454
26940W        W92167   2.576  35.086  12.752
26941W        W92168  19.713   1.276  13.410
26942W        W92169  22.706  40.437   5.200
26943W        W92170  35.002   1.629  10.261
26944W        W92171  37.168  19.965  13.148
26945W        W92172  34.195  16.249  10.910
26946W        W92173  14.939  35.691   2.752
26947W        W92174  26.956  34.141   3.787
26948W        W92175   0.474  23.662  10.639
26949W        W92176  18.753  28.514   4.850
26950W        W92177   9.342  40.278   1.214
26951W        W92178   6.344  18.527   1.348
26952W        W92179  36.133  40.903  12.056
26953W        W92180  12.154  42.486   1.731
26954W        W92181  37.329   9.062  12.977
26955W        W92182  25.211  16.373   1.789
26956W        W92183   7.365  10.743   4.164
26957W        W92184  30.045  21.791  13.357
26958W        W92185  29.386  15.845   3.726
26959W        W92186  16.136  29.531  12.455
26960W        W92187  43.068   0.994   5.135
26961W        W92188   5.306  26.935   3.989
26962W        W92189  35.424   4.434  11.172
26963W        W92190  31.566  24.254   1.473
26964W        W92191   1.961   5.854  13.120
26965W        W92192  14.202   1.719   3.671
26966W        W92193  23.897  29.367  14.971
26967W        W92194  13.650  21.660  12.358
26968W        W92195  14.801  37.405  13.798
26969W        W92196  10.719   5.192   3.291
26970W        W92197  42.820  33.994   1.907
26971W        W92198  40.520  19.260   2.813
26972W        W92199   0.424   4.340   1.898
26973W        W92200  32.013  36.037   2.076
26974W        W92201  35.011  28.447   2.019
26975W        W92202  11.657   8.527   0.328
26976W        W92203   4.326   0.096  12.590
26977W        W92204  28.433  19.306  12.889
26978W        W92205  18.289  31.667  13.390
26979W        W92206  29.203   0.450   4.537
26980W        W92207  35.402  14.889  14.966
26981W        W92208  22.121  44.026   3.175
26982W        W92209   7.952  15.720   2.101
26983W        W92210  25.161  40.865  14.347
26984W        W92211  24.523   4.497  10.590
26985W        W92212   4.926  23.068  12.186
26986W        W92213  36.844   4.976  14.038
26987W        W92214   9.300  12.790  10.649
26988W        W92215  13.858  42.829  10.656
26989W        W92216  44.375   6.981   4.669
26990W        W92217  12.394   9.329  12.588
26991W        W92218  42.495  11.106  11.052
26992W        W92219  27.666  38.232  10.190
26993W        W92220  42.729  21.392  11.219
26994W        W92221  43.994  43.068   1.382
26995W        W92222  33.612   7.942  11.990
26996W        W92223   1.584  18.703  13.907
26997W        W92224  40.952  43.478   4.663
26998W        W92225  42.422   8.712   2.715
26999W        W92226   8.095  40.098  13.568
27000W        W92227  34.322  31.225   4.145
27001W        W92228  39.488  17.054  14.337
27002W        W92229  12.603  18.595   3.312
27003W        W92230  27.064  22.458   0.003
27004W        W92231   1.160  24.159  14.754
27005W        W92232  14.194  36.341   1.148
27006W        W92233  12.276  38.882  13.476
27007W        W92234  28.653  33.603  10.435
27008W        W92235   4.954  28.167   0.871
27009W        W92236  40.423  29.711  12.069
27010W        W92237   0.792  15.775   3.243
27011W        W92238  29.998  32.718  10.787
27012W        W92239  31.563  14.981   4.491
27013W        W92240  29.768  30.760  14.845
27014W        W92241   6.863  43.389  13.489
27015W        W92242  22.716  34.107   1.825
27016W        W92243  32.949   7.348   0.187
27017W        W92244  44.860  10.295   0.502
27018W        W92245  30.593  11.902   1.210
27019W        W92246  21.452  31.011   2.232
27020W        W92247  30.005  33.737  14.970
27021W        W92248   6.278  27.975  13.562
27022W        W92249  27.332  38.650   4.571
27023W        W92250  10.124  11.969   3.659
27024W        W92251   1.076   0.630  14.093
27025W        W92252  18.470  17.233  12.615
27026W        W92253   9.145  16.173  14.450
27027W        W92254  23.093   9.846   4.316
27028W        W92255   7.610  23.975  13.579
27029W        W92256  42.117   2.247  13.804
27030W        W92257  31.489  11.584  11.187
27031W        W92258  38.928  37.410  11.325
27032W        W92259  30.139  24.622   3.283
27033W        W92260  36.248  32.400   2.155
27034W        W92261  31.645  40.519  12.408
27035W        W92262  36.986  22.395   1.458
27036W        W92263  24.655  21.984   0.369
27037W        W92264   4.437   9.810  13.397
27038W        W92265  14.349  23.249   3.723
27039W        W92266  25.258  30.035   1.658
27040W        W92267  40.209  31.720   2.480
27041W        W92268  32.568  20.265   1.191
27042W        W92269  13.414  43.412  14.258
27043W        W92270  18.818  43.777   4.654
27044W        W92271  17.121  41.890  12.442
27045W        W92272  14.735  31.387   2.679
27046W        W92273  40.990  13.217   0.371
27047W        W92274  11.656  12.889  12.015
27048W        W92275  31.042  35.520   0.974
27049W        W92276  12.287  44.490   0.949
27050W        W92277  44.230  34.482  14.992
27051W        W92278  32.443  42.399   4.773
27052W        W92279  13.432  15.793   4.066
27053W        W92280  22.124  19.361  10.797
27054W        W92281   1.721   7.262  12.198
27055W        W92282  28.424  36.013   0.964
27056W        W92283   0.088  21.290   5.103
27057W        W92284  11.896   0.919   1.830
27058W        W92285  22.875   5.837   2.669
27059W        W92286   9.253  26.751  12.543
27060W        W92287  20.258   7.691  10.899
27061W        W92288  36.990  38.946   4.290
27062W        W92289  41.218  12.869   1.803
27063W        W92290  38.314  14.144  11.936
27064W        W92291  21.326  20.299  11.610
27065W        W92292  25.101  21.885   4.173
27066W        W92293  13.125  19.615   4.403
27067W        W92294  44.689  32.468  10.354
27068W        W92295  10.494   4.619   2.881
27069W        W92296  25.908  28.081   2.228
27070W        W92297  18.051  20.670  12.423
27071W        W92298  25.984  23.025  13.838
27072W        W92299  16.284  16.993   4.578
27073W        W92300   6.440   6.883   0.853
27074W        W92301  35.468  20.578   2.468
27075W        W92302  40.264  21.310   2.272
27076W        W92303   1.940  36.379  11.949
27077W        W92304   5.887  30.875   3.746
27078W        W92305  22.190  17.043  10.530
27079W        W92306  36.611  28.070  13.790
27080W        W92307  19.792  11.064  11.493
27081W        W92308  42.935  42.368   4.095
27082W        W92309  17.295  33.590  10.606
27083W        W92310   1.989  17.144  11.575
27084W        W92311  29.482  43.889  13.858
27085W        W92312   8.268  13.170  12.416
27086W        W92313  28.909  17.582   1.129
27087W        W92314  22.258  15.974   2.931
27088W        W92315  36.893  12.744  14.580
27089W        W92316  10.240  20.620  14.639
27090W        W92317  18.575  24.501  12.929
27091W        W92318  10.910  17.560   3.455
27092W        W92319  13.331   6.909  14.716
27093W        W92320  37.931  32.493  10.478
27094W        W92321  39.065  27.072   3.376
27095W        W92322  16.354  44.770   1.352
27096W        W92323  21.671  18.015  11.190
27097W        W92324   4.021   4.354  10.809
27098W        W92325  10.296  18.646  11.363
27099W        W92326  26.011  12.376   0.812
27100W        W92327  44.434  13.695  14.533
27101W        W92328  31.402  17.557   1.182
27102W        W92329  44.778  41.486   2.417
27103W        W92330  13.765  16.265   0.234
27104W        W92331   7.918   2.369  11.366
27105W        W92332  13.649  14.228  13.401
27106W        W92333  37.335  36.886   2.752
27107W        W92334  40.080   0.289   4.056
27108W        W92335  41.176  21.074   2.053
27109W        W92336  22.786   5.885   3.730
27110W        W92337   4.005  24.123  14.714
27111W        W92338  41.349  18.081  12.545
27112W        W92339  26.446   6.622  12.080
27113W        W92340  43.309  23.223   2.720
27114W        W92341   5.652  23.393   2.244
27115W        W92342  15.814   6.802   4.846
27116W        W92343  36.854  33.047  11.745
27117W        W92344  30.849   3.959   0.754
27118W        W92345  12.679  42.444   0.072
27119W        W92346  19.297   8.962   0.957
27120W        W92347  26.953   9.691   2.781
27121W        W92348  26.311  26.198   1.454
27122W        W92349  12.218  40.899  12.046
27123W        W92350   7.779  44.146   5.010
27124W        W92351  16.317  43.301  13.708
27125W        W92352   4.063  27.486  10.164
27126W        W92353  29.181  25.256   0.013
27127W        W92354  11.647  19.348   4.187
27128W        W92355  13.778   6.223  14.891
27129W        W92356  14.808  35.438   4.622
27130W        W92357  20.067   0.349  13.541
27131W        W92358  35.280  28.656   1.638
27132W        W92359  36.405  17.420  13.018
27133W        W92360  27.304   4.452  13.044
27134W        W92361  37.472  28.135  11.928
27135W        W92362   0.504   8.669   5.133
27136W        W92363  11.321  19.303  12.012
27137W        W92364  43.035  11.356  13.140
27138W        W92365  40.767  30.007  11.810
27139W        W92366   3.397  16.608   2.355
27140W        W92367  29.520   0.359   3.664
27141W        W92368  15.320  26.024  14.365
27142W        W92369  28.471  21.846  11.287
27143W        W92370  38.375   8.792   4.012
27144W        W92371  35.119  30.605   0.285
27145W        W92372   9.260   6.909   3.854
27146W        W92373  23.579  31.876   3.567
27147W        W92374  27.218  20.185  13.992
27148W        W92375  30.082  24.034   0.758
27149W        W92376  35.883  26.692   4.151
27150W        W92377  18.181  41.099  13.294
27151W        W92378  17.465  35.452   0.343
27152W        W92379  15.180  29.591  13.339
27153W        W92380  38.277  26.159  13.847
27154W        W92381   8.963  29.200  10.132
27155W        W92382  28.576  40.968  11.484
27156W        W92383  25.133  12.187   1.455
27157W        W92384  27.080  13.315  10.589
27158W        W92385  26.829  43.775   3.646
27159W        W92386  25.139   7.653   0.479
27160W        W92387   3.284  34.186   1.279
27161W        W92388  42.904  35.269   2.757
27162W        W92389  10.653  27.479   3.550
27163W        W92390   6.242   4.435   4.187
27164W        W92391   0.495   1.204   1.247
27165W        W92392  43.781  27.491   3.258
27166W        W92393  17.549  37.397   4.603
27167W        W92394   7.407  22.259  13.440
27168W        W92395   1.306  19.877  12.348
27169W        W92396  41.486   6.950   0.801
27170W        W92397   8.371  10.634  14.884
27171W        W92398  30.496  23.248   0.837
27172W        W92399  21.077   0.076  12.616
27173W        W92400  27.817   5.135  12.647
27174W        W92401   6.090   2.158  13.958
27175W        W92402  27.473  28.044  14.959
27176W        W92403  39.527  21.112   3.822
27177W        W92404  24.432  19.338   1.475
27178W        W92405  28.630  23.721   1.455
27179W        W92406  24.994   1.034  12.173
27180W        W92407  12.095   1.356   3.128
27181W        W92408  27.732  15.654  10.576
27182W        W92409  41.242  35.101  11.239
27183W        W92410  14.778   5.511   2.937
27184W        W92411  31.099  15.046  12.568
27185W        W92412  10.181  32.425   9.891
27186W        W92413  10.869  12.026   2.394
27187W        W92414  13.011  42.884  13.020
27188W        W92415  18.366  26.625  11.861
27189W        W92416  16.597  11.156   1.442
27190W        W92417  41.884  31.687  13.419
27191W        W92418  38.510  29.696   2.137
27192W        W92419  23.167  31.588   3.721
27193W        W92420  12.707  41.905   1.490
27194W        W92421  31.177   3.354   2.705
27195W        W92422   6.776  10.322   2.799
27196W        W92423  42.524  21.924  14.302
27197W        W92424  16.120  27.478   1.371
27198W        W92425  30.924  34.163   2.064
27199W        W92426  21.778  37.462  12.513
27200W        W92427  34.350  42.816   4.594
27201W        W92428   0.066  42.742   1.538
27202W        W92429  14.619   3.135  11.528
27203W        W92430   6.211   1.321   3.375
27204W        W92431  24.063  15.589  14.363
27205W        W92432  43.584  37.482  13.006
27206W        W92433  27.040  18.113  12.713
27207W        W92434  18.575  18.085   1.691
27208W        W92435  42.393  20.006   1.906
27209W        W92436  40.449  10.996   4.945
27210W        W92437  14.109  43.293   0.343
27211W        W92438  22.947  30.101   2.730
27212W        W92439   7.948   0.892   3.398
27213W        W92440  37.412  35.936  10.734
27214W        W92441  40.910  11.331   1.530
27215W        W92442   5.925  16.031  12.818
27216W        W92443  38.202   0.475  12.094
27217W        W92444  29.170  26.337  13.804
27218W        W92445   3.804   9.386   4.139
27219W        W92446  31.885   6.001   1.010
27220W        W92447  17.147  29.940  14.019
27221W        W92448  16.953  16.554   0.943
27222W        W92449  16.531  40.367  12.124
27223W        W92450  43.555  29.345  12.477
27224W        W92451  35.715  11.859   4.040
27225W        W92452  40.478  42.922  10.388
27226W        W92453   7.823   9.882  14.988
27227W        W92454  11.968  19.532   5.064
27228W        W92455   0.555  36.065  13.817
27229W        W92456   1.899  15.823   1.708
27230W        W92457  12.243  18.653   2.364
27231W        W92458  22.083  13.152  13.009
27232W        W92459  43.513   6.274   4.182
27233W        W92460  41.905  32.879   2.854
27234W        W92461   3.284  23.180   1.652
27235W        W92462   9.110   5.777  14.324
27236W        W92463  18.505  20.817   0.859
27237W        W92464  24.262   9.218   0.308
27238W        W92465  33.891  18.612   2.483
27239W        W92466  32.806  30.094   2.188
27240W        W92467  26.440  38.672  10.752
27241W        W92468  19.534  35.583  11.031
27242W        W92469  39.522  21.813  14.084
27243W        W92470  23.285  36.412  12.648
27244W        W92471   6.404  32.944  14.870
27245W        W92472   9.764  21.917   1.920
27246W        W92473  31.019  36.521   1.645
27247W        W92474  36.895  11.658   1.408
27248W        W92475  32.109  44.350  11.495
27249W        W92476  20.056  36.333   4.040
27250W        W92477  25.117  28.868  11.157
27251W        W92478  19.845  24.969   3.673
27252W        W92479  21.834  33.149   1.010
27253W        W92480  15.049  41.454  13.978
27254W        W92481  17.668  20.234  14.045
27255W        W92482  22.586  17.611  13.105
27256W        W92483  19.999  34.314  12.915
27257W        W92484  31.551  14.952   5.367
27258W        W92485  10.359  34.083  13.879
27259W        W92486  38.095  40.223  11.622
27260W        W92487   6.772  44.570  14.549
27261W        W92488   0.896  11.664  13.586
27262W        W92489  23.697  11.893  10.705
27263W        W92490  10.266  22.152   1.245
27264W        W92491  27.618   1.798  11.658
27265W        W92492  29.731   8.185   2.699
27266W        W92493   5.636  12.310  10.690
27267W        W92494  40.323  20.691  11.604
27268W        W92495  25.522  28.535   3.874
27269W        W92496  22.829  24.167   1.365
27270W        W92497   9.089  42.252   3.631
27271W        W92498  18.079  42.517   1.957
27272W        W92499  14.786   3.314   2.986
27273W        W92500   9.160   6.329   0.359
27274W        W92501   5.898  43.447  12.089
27275W        W92502  33.006   3.163  12.056
27276W        W92503   5.671  34.064  12.419
27277W        W92504   3.865  20.195  13.512
27278W        W92505   0.480  30.354   3.142
27279W        W92506  40.826   7.260  13.900
27280W        W92507  36.310  25.463  12.778
27281W        W92508  20.416  17.163   3.674
27282W        W92509  27.001  27.579  12.534
27283W        W92510  29.261  22.563   4.102
27284W        W92511   7.027  21.133  11.625
27285W        W92512  11.751  24.232  14.762
27286W        W92513  33.618  44.424   2.711
27287W        W92514   9.881   5.213  10.685
27288W        W92515  26.705   1.745   2.334
27289W        W92516  11.241  44.103  11.582
27290W        W92517   2.374  11.867   5.084
27291W        W92518  17.202  34.901  11.561
27292W        W92519  23.673  16.714   0.635
27293W        W92520  34.560  31.844  12.437
27294W        W92521  27.965  30.123   1.696
27295W        W92522   8.774  39.360  14.617
27296W        W92523   2.863  32.201   4.082
27297W        W92524  25.672  29.408   2.182
27298W        W92525  43.121  24.136   4.134
27299W        W92526  29.913  14.803  14.192
27300W        W92527   8.384  10.050   3.593
27301W        W92528  16.579  33.033  11.571
27302W        W92529  19.774  44.281   1.872
27303W        W92530   7.761  32.883   3.805
27304W        W92531   4.864  17.525  12.903
27305W        W92532  26.965   6.260  11.044
27306W        W92533  20.274  32.399  10.770
27307W        W92534  30.879   2.453  13.413
27308W        W92535   0.192  42.935  11.586
27309W        W92536  41.294  20.844  11.600
27310W        W92537   0.325  29.671  13.904
27311W        W92538  43.077  16.179   4.029
27312W        W92539  42.510  38.492  10.623
27313W        W92540  20.226  17.519  11.155
27314W        W92541  16.303  44.018   4.627
27315W        W92542  27.674   5.131  13.599
27316W        W92543  26.665  20.607  14.390
27317W        W92544  15.701   1.754   1.443
27318W        W92545   6.175  13.754  12.881
27319W        W92546   7.623  23.568  10.688
27320W        W92547  21.673  28.687  12.315
27321W        W92548  31.177  22.204   2.786
27322W        W92549   9.853  43.349   0.462
27323W        W92550  38.812  43.129   0.883
27324W        W92551  44.264  23.062  12.938
27325W        W92552   8.710  34.983   5.005
27326W        W92553   0.695  43.943  12.106
27327W        W92554   2.800  21.955   1.875
27328W        W92555   1.753  42.614  13.383
27329W        W92556  16.035  13.465   4.937
27330W        W92557   7.778  17.817  11.349
27331W        W92558  35.814  15.960  14.339
27332W        W92559   1.354  41.145   0.943
27333W        W92560  37.830  31.119   4.614
27334W        W92561  33.685  28.569  13.922
27335W        W92562  38.301   9.372   3.141
27336W        W92563  16.861  33.566  14.236
27337W        W92564  30.481  21.627   3.313
27338W        W92565  10.624  37.378  11.873
27339W        W92566  28.093   6.808  10.198
27340W        W92567  21.772  42.443  13.937
27341W        W92568  22.444  16.971  11.455
27342W        W92569  12.310  23.670  14.413
27343W        W92570  44.694  26.042   4.991
27344W        W92571  18.821  36.951   1.932
27345W        W92572  22.943  12.035  11.141
27346W        W92573   2.006  31.924   5.098
27347W        W92574  29.975   9.893   4.737
27348W        W92575  15.231   2.246  13.085
27349W        W92576  37.131  40.860  14.398
27350W        W92577  34.181   3.929   2.126
27351W        W92578   5.163   4.393   0.853
27352W        W92579  17.121  16.021   3.772
27353W        W92580  37.183  41.150   4.075
27354W        W92581  23.103  31.459  13.012
27355W        W92582   1.129  30.563  13.051
27356W        W92583  33.968  41.329   1.614
27357W        W92584  19.576   4.461   3.958
27358W        W92585  20.863  12.370   0.365
27359W        W92586  27.459  43.589   3.246
27360W        W92587  37.021  43.026  10.595
27361W        W92588  41.478  27.101   0.224
27362W        W92589  12.753  44.942   4.799
27363W        W92590  27.070  14.134  11.881
27364W        W92591   7.406  26.667  12.958
27365W        W92592   3.220  30.570   4.170
27366W        W92593   9.241  13.182  12.519
27367W        W92594  18.184  15.697  11.684
27368W        W92595   1.347  29.405  10.182
27369W        W92596  21.145  10.127  14.874
27370W        W92597  22.472  28.122   0.651
27371W        W92598  23.052  19.785   3.381
27372W        W92599  29.647   3.898   3.212
27373W        W92600  26.237  29.117   3.757
27374W        W92601   9.284  23.953   0.315
27375W        W92602  29.451  35.846   1.338
27376W        W92603  17.658  27.431  11.939
27377W        W92604  18.069  16.682  14.906
27378W        W92605  40.760  31.390   0.278
27379W        W92606   2.254  17.445   3.905
27380W        W92607  14.552  44.928   1.567
27381W        W92608   3.074  42.314  13.282
27382W        W92609  35.945  17.164  10.544
27383W        W92610  14.118  29.239   4.368
27384W        W92611   2.117  14.838   1.660
27385W        W92612  20.056  44.781   1.942
27386W        W92613  34.552   4.678  14.339
27387W        W92614   2.275  28.030   0.460
27388W        W92615  35.856  13.592   4.141
27389W        W92616  35.970  20.523   3.738
27390W        W92617  27.479  28.018   4.937
27391W        W92618  15.305  11.516   4.849
27392W        W92619   5.252  15.580  10.279
27393W        W92620  26.344  23.332  12.849
27394W        W92621  40.475  22.209  11.157
27395W        W92622   2.746  42.133   2.662
27396W        W92623   6.936  31.603  10.642
27397W        W92624  14.118  28.083  13.374
27398W        W92625  20.568   3.867  13.366
27399W        W92626  41.700  33.590   0.341
27400W        W92627  30.994  30.895   3.581
27401W        W92628   9.419  27.039   2.899
27402W        W92629  27.454  30.159   0.848
27403W        W92630   8.316   5.814  11.745
27404W        W92631  17.193   7.728   0.186
27405W        W92632  13.861  29.984   1.532
27406W        W92633   4.426  13.982   3.042
27407W        W92634  12.822   4.189   4.666
27408W        W92635  12.795   8.112   2.295
27409W        W92636   6.183  39.652  10.618
27410W        W92637  23.026  17.166  11.618
27411W        W92638   9.881  44.430   4.138
27412W        W92639  24.072  30.367   3.220
27413W        W92640   8.270  17.872  10.749
27414W        W92641  27.612   1.370   4.326
27415W        W92642   1.417  44.088  12.424
27416W        W92643  10.465  16.667  11.131
27417W        W92644   3.257  35.530   0.283
27418W        W92645  23.022  21.856  12.620
27419W        W92646   8.783  34.014  10.993
27420W        W92647   6.683  24.234   3.612
27421W        W92648  34.871  23.802   3.069
27422W        W92649  13.928  28.123  10.857
27423W        W92650  30.437  24.955   1.618
27424W        W92651  19.164   7.602   0.422
27425W        W92652  15.098   4.897   4.580
27426W        W92653  36.506  41.699   2.879
27427W        W92654  40.039   1.031   4.855
27428W        W92655   5.458   0.867   4.037
27429W        W92656  11.247  31.170  11.546
27430W        W92657   2.820  24.193  12.597
27431W        W92658  11.702  41.798  12.718
27432W        W92659   5.395  16.345  13.897
27433W        W92660  34.355  34.844   4.609
27434W        W92661  43.094  10.063   2.710
27435W        W92662  25.121  44.388  10.880
27436W        W92663  36.016  38.901   3.321
27437W        W92664  38.559  21.454   2.152
27438W        W92665  27.101  44.217   0.778
27439W        W92666  25.823   1.524   2.029
27440W        W92667   6.074  44.436  13.861
27441W        W92668  17.206  26.375   2.079
27442W        W92669   1.399  10.336  11.218
27443W        W92670  19.504   7.153   2.993
27444W        W92671  33.405   5.620  12.258
27445W        W92672   1.682  34.426   2.703
27446W        W92673   0.469   7.893   1.256
27447W        W92674  15.160  37.251   3.088
27448W        W92675  41.332  10.356   4.750
27449W        W92676  22.425  25.103   5.070
27450W        W92677  22.956   3.949  11.110
27451W        W92678   9.823  23.959  11.697
27452W        W92679  28.104  27.890  13.075
27453W        W92680  30.941   1.900  10.680
27454W        W92681  11.623  30.920   2.362
27455W        W92682  15.528  39.200  12.425
27456W        W92683  34.701  27.810   0.584
27457W        W92684  32.508  15.602   0.817
27458W        W92685  44.017  36.578  11.160
27459W        W92686  31.664  34.626   3.355
27460W        W92687  25.539  25.047   3.438
27461W        W92688  24.228  24.059  12.092
27462W        W92689  16.668  23.362   4.185
27463W        W92690  39.285  18.825   2.773
27464W        W92691  35.080  39.826  10.877
27465W        W92692  17.187  43.362   3.264
27466W        W92693   2.124  31.891  11.059
27467W        W92694  42.495  16.878  12.059
27468W        W92695  42.498  11.921  12.090
27469W        W92696   0.378   5.421   1.633
27470W        W92697  31.010  43.536  12.484
27471W        W92698  16.938   9.975  12.046
27472W        W92699  40.823  28.354   2.312
27473W        W92700  37.962  43.291  14.503
27474W        W92701  17.963  30.142  14.427
27475W        W92702  39.465  10.156  12.497
27476W        W92703  19.939  43.265  14.196
27477W        W92704  26.989   8.058   2.583
27478W        W92705   6.765  18.557   3.585
27479W        W92706   3.433  33.836  10.607
27480W        W92707  41.229   6.859  14.896
27481W        W92708  17.268  10.800  14.903
27482W        W92709   0.550  14.717   0.367
27483W        W92710   1.878  10.562   2.140
27484W        W92711  37.448  19.785  11.960
27485W        W92712   5.927  18.256  10.731
27486W        W92713  38.061  27.012   3.252
27487W        W92714  22.433   2.098  10.884
27488W        W92715  44.526  15.546   0.337
27489W        W92716  21.316  15.844  10.002
27490W        W92717  30.093   3.704   2.293
27491W        W92718   7.661  34.656   4.221
27492W        W92719   3.406  34.116  14.074
27493W        W92720  30.921  44.620   4.740
27494W        W92721  22.544  21.912  12.916
27495W        W92722   2.939  10.538   4.582
27496W        W92723  38.408  21.013   5.153
27497W        W92724   7.091  35.597   0.887
27498W        W92725  28.956  10.857   0.743
27499W        W92726  34.903  21.346  10.800
27500W        W92727  21.676   1.754  11.101
27501W        W92728  22.023   3.240   0.175
27502W        W92729  29.485  34.637   3.762
27503W        W92730  44.810  21.637  13.894
27504W        W92731  44.309   7.272   1.434
27505W        W92732   2.903  37.177   0.383
27506W        W92733  31.192  23.690   4.205
27507W        W92734  18.530  29.217   1.918
27508W        W92735  40.582  10.527   5.093
27509W        W92736  38.535  42.029   4.611
27510W        W92737  29.087  35.499   3.721
27511W        W92738  19.593  24.104   2.360
27512W        W92739  27.926   3.720   3.741
27513W        W92740  14.448  12.679   0.771
27514W        W92741  21.045  17.323  13.833
27515W        W92742  44.880   0.853  10.960
27516W        W92743   1.147  15.160  10.676
27517W        W92744  41.431  34.399  14.907
27518W        W92745  20.156   8.325   3.011
27519W        W92746  27.128  14.373  10.567
27520W        W92747  17.389   4.981  11.249
27521W        W92748  22.604  36.921   4.547
27522W        W92749  21.279  19.637   2.358
27523W        W92750  33.963  18.195   0.337
27524W        W92751  10.218   3.868   3.953
27525W        W92752  21.774   3.483   3.126
27526W        W92753   6.732  32.754   4.207
27527W        W92754   9.032   3.931   4.543
27528W        W92755  27.722  15.599  11.956
27529W        W92756  16.861  13.431   3.270
27530W        W92757  28.658  41.914  14.780
27531W        W92758  37.841  37.051   3.663
27532W        W92759  19.521   3.308   0.965
27533W        W92760  32.599  31.032   1.415
27534W        W92761  25.931  10.484  13.384
27535W        W92762  42.367  22.818  12.868
27536W        W92763  39.444   7.866   2.886
27537W        W92764  19.737   5.442   3.765
27538W        W92765  34.321  20.012   2.284
27539W        W92766   6.163  27.080  12.008
27540W        W92767  32.472   0.308  12.122
27541W        W92768   0.840  33.959  13.351
27542W        W92769  11.715  29.243   1.087
27543W        W92770  34.298  10.061   3.937
27544W        W92771  28.610  42.316  13.770
27545W        W92772  32.098  22.322   4.512
27546W        W92773  23.231  10.438   1.702
27547W        W92774  24.704  15.460   9.991
27548W        W92775  40.055   2.385  14.430
27549W        W92776  34.045  37.580  12.339
27550W        W92777   2.469   9.691   0.732
27551W        W92778  43.005   6.917  12.025
27552W        W92779  44.719   3.257   1.622
27553W        W92780   2.291  14.087  12.938
27554W        W92781  15.431  35.929   4.008
27555W        W92782  21.960  44.593  13.146
27556W        W92783  41.860  37.276  12.129
27557W        W92784  36.697  40.118   4.060
27558W        W92785   9.288  20.530  11.659
27559W        W92786  34.353  36.793   4.917
27560W        W92787  20.922  20.146   0.817
27561W        W92788  28.450  14.757   3.454
27562W        W92789  30.946   3.431   0.829
27563W        W92790  23.662   7.885  13.905
27564W        W92791   9.370  13.565  13.455
27565W        W92792  23.931  16.589  12.930
27566W        W92793  27.990   7.069   5.012
27567W        W92794  23.315   4.339  12.973
27568W        W92795   4.291  40.124  14.940
27569W        W92796  42.093  20.174   0.880
27570W        W92797  40.260  31.306   4.009
27571W        W92798   4.715  27.854  11.150
27572W        W92799  28.351   2.846  13.015
27573W        W92800   4.215  31.360  11.596
27574W        W92801  27.833   0.451   4.879
27575W        W92802  38.836  19.147  14.715
27576W        W92803  25.750  37.029  14.345
27577W        W92804  22.035  12.686  13.895
27578W        W92805  11.442  34.366   3.309
27579W        W92806  18.685  18.196   2.204
27580W        W92807  25.637  41.804   0.765
27581W        W92808  28.565  37.988   2.399
27582W        W92809  35.684   6.906   1.322
27583W        W92810  13.677   3.354  13.978
27584W        W92811  31.403  27.612  12.094
27585W        W92812  32.120  25.337  14.301
27586W        W92813  36.762  36.354  12.385
27587W        W92814  28.713  37.289   1.234
27588W        W92815  10.190   8.184   0.210
27589W        W92816  33.476  36.895  14.478
27590W        W92817  17.582  36.415   2.102
27591W        W92818  44.077  44.035   0.815
27592W        W92819  19.954  28.870   4.773
27593W        W92820   2.906  31.012  10.302
27594W        W92821   5.200  35.079   1.171
27595W        W92822  42.830  11.313   3.288
27596W        W92823  35.015  13.543  14.730
27597W        W92824  32.530  42.515   3.767
27598W        W92825   8.267  27.370  11.658
27599W        W92826   4.252  18.427   4.703
27600W        W92827   5.205   8.821  10.370
27601W        W92828  16.824  16.466   2.134
27602W        W92829   5.537  30.105  13.456
27603W        W92830  18.365  22.860   2.718
27604W        W92831  43.187   1.274   3.381
27605W        W92832  43.465  43.256  10.984
27606W        W92833  18.695  22.449   4.854
27607W        W92834  24.442  29.817   3.717
27608W        W92835  23.119  31.881  12.120
27609W        W92836  10.938  29.685  11.870
27610W        W92837   2.276  25.053  12.981
27611W        W92838  37.409  15.070   2.660
27612W        W92839   8.660  34.952   4.214
27613W        W92840  16.127   9.215   0.631
27614W        W92841  37.575  24.490  11.598
27615W        W92842  22.056  29.534   1.941
27616W        W92843   7.988  23.242  12.884
27617W        W92844  20.722  38.522  14.505
27618W        W92845  15.033   2.931   3.761
27619W        W92846  35.117   5.722   2.978
27620W        W92847  33.371   3.070  11.154
27621W        W92848  10.470  10.997  12.023
27622W        W92849  40.554  42.394   2.870
27623W        W92850   4.030  26.699   3.435
27624W        W92851  44.546  19.591  14.706
27625W        W92852  41.994  30.385  11.499
27626W        W92853  14.870   7.381  11.403
27627W        W92854   8.695   8.939   4.928
27628W        W92855  18.727  29.603   2.189
27629W        W92856   4.841  32.180  12.440
27630W        W92857  14.454  11.266   0.075
27631W        W92858  22.746   7.450   0.412
27632W        W92859  28.224  25.650   1.719
27633W        W92860  15.145  19.804   2.262
27634W        W92861  39.746   9.884  12.899
27635W        W92862  25.864  28.417   3.099
27636W        W92863  12.345  23.690  11.507
27637W        W92864   6.946  26.626  10.528
27638W        W92865  21.803  16.315  11.540
27639W        W92866  19.111  27.260  12.996
27640W        W92867  31.243  19.799  10.782
27641W        W92868   2.313  41.346  13.042
27642W        W92869  32.565  11.690  14.121
27643W        W92870  24.697  12.591  11.127
27644W        W92871  14.196  29.060   3.888
27645W        W92872  35.034  31.925  14.045
27646W        W92873  41.227  33.355  14.434
27647W        W92874  13.355  10.653  12.425
27648W        W92875  14.863  34.044  14.464
27649W        W92876   4.970  11.645  14.114
27650W        W92877  35.097  20.291  10.702
27651W        W92878   3.751  41.547   4.140
27652W        W92879  23.982   3.954  11.207
27653W        W92880  17.595  29.059   0.479
27654W        W92881  21.724  39.064  11.953
27655W        W92882   5.996   3.223  11.982
27656W        W92883  11.160  11.831   0.328
27657W        W92884  19.022  32.405   3.844
27658W        W92885  16.250  40.258  12.870
27659W        W92886   6.744   9.857  14.874
27660W        W92887  29.636  30.601  13.496
27661W        W92888  35.762  30.740  13.327
27662W        W92889  31.170  25.029   3.648
27663W        W92890  32.960  30.913  14.572
27664W        W92891  37.993   5.369  13.285
27665W        W92892  18.357  39.842  13.692
27666W        W92893   1.088  19.338  13.014
27667W        W92894  21.232  38.537  10.444
27668W        W92895   8.499   3.057   3.686
27669W        W92896   4.884  23.650   1.338
27670W        W92897  15.054  16.994   1.449
27671W        W92898  16.297   7.819   3.609
27672W        W92899  44.925   5.231  12.569
27673W        W92900  25.796   4.210  14.775
27674W        W92901  39.573   5.459   3.031
27675W        W92902   2.243   6.971   0.797
27676W        W92903  23.360  30.628  12.356
27677W        W92904  38.034  29.427  10.904
27678W        W92905  44.841  29.907   2.445
27679W        W92906   1.245  29.918  10.172
27680W        W92907  22.967  21.461   0.018
27681W        W92908   3.930   4.337   4.580
27682W        W92909  15.458   8.157  12.087
27683W        W92910  41.967  37.361   0.455
27684W        W92911  14.645   9.449  14.856
27685W        W92912  22.572  42.949   0.142
27686W        W92913  23.241  29.620   0.717
27687W        W92914   5.146  29.733  10.420
27688W        W92915   3.232  17.934   2.304
27689W        W92916   4.260  38.636   0.258
27690W        W92917   7.409  35.148   1.937
27691W        W92918  24.939  39.984   2.276
27692W        W92919  42.452  43.317   0.437
27693W        W92920  22.210  17.546  10.636
27694W        W92921  11.172  12.811   1.329
27695W        W92922  19.932  25.227   0.722
27696W        W92923  35.791  28.148  13.129
27697W        W92924  21.697  43.831  14.319
27698W        W92925  34.344  13.660   5.073
27699W        W92926   7.927   6.927  14.376
27700W        W92927  39.433  30.962   4.784
27701W        W92928  39.975  36.380   1.400
27702W        W92929  29.502  28.652   4.768
27703W        W92930  33.096  25.028  13.534
27704W        W92931   2.545  32.487   4.454
27705W        W92932  33.384  22.201  10.651
27706W        W92933   4.986  15.259   9.889
27707W        W92934  20.233  24.800   0.817
27708W        W92935   9.262  18.208   2.960
27709W        W92936  44.218  21.448  12.087
27710W        W92937  28.419  29.149   2.327
27711W        W92938  25.046  42.979  14.266
27712W        W92939  44.988   5.365  13.069
27713W        W92940  23.689  22.140  14.310
27714W        W92941  34.597  18.263  14.392
27715W        W92942  44.811  16.767   5.485
27716W        W92943  34.849  25.537   4.239
27717W        W92944   7.912   0.389  11.672
27718W        W92945  32.792   1.998   0.413
27719W        W92946   4.824   9.934  12.069
27720W        W92947  35.320   7.599   1.889
27721W        W92948  12.765  39.912   2.773
27722W        W92949  29.663  14.261   0.015
27723W        W92950   6.970  20.703  14.916
27724W        W92951   3.053  33.864   2.269
27725W        W92952  40.869  37.949   1.446
27726W        W92953  13.345   4.955   3.738
27727W        W92954  33.654  35.786   4.148
27728W        W92955   4.381   0.334  11.212
27729W        W92956   7.666  35.343  12.926
27730W        W92957  27.532  13.093   4.586
27731W        W92958   7.612  35.162  13.798
27732W        W92959  43.314   8.681   0.838
27733W        W92960  23.660  36.251   1.897
27734W        W92961  16.592  39.413   0.723
27735W        W92962  27.149  39.290   0.346
27736W        W92963   7.247  27.495  14.482
27737W        W92964  15.412  20.058  12.955
27738W        W92965  24.977  32.334   1.200
27739W        W92966   5.189  36.861   0.004
27740W        W92967  22.989  16.314  13.853
27741W        W92968  21.618  30.435   1.420
27742W        W92969   8.830  36.583   0.446
27743W        W92970  19.038  31.380   1.625
27744W        W92971  44.415  12.525   2.217
27745W        W92972  25.126   3.468   1.719
27746W        W92973   0.700   4.496   1.274
27747W        W92974  18.195  34.972   0.465
27748W        W92975   2.444  22.945  12.358
27749W        W92976  13.862  16.057  14.250
27750W        W92977  16.462  11.263  11.709
27751W        W92978   8.923  33.513  11.714
27752W        W92979   2.891  39.961  11.276
27753W        W92980  37.486  38.886   0.453
27754W        W92981   5.840  27.421  14.682
27755W        W92982  19.475  30.450   2.338
27756W        W92983  23.393   9.719  11.373
27757W        W92984  14.722  36.884  10.550
27758W        W92985  38.056  30.629   4.627
27759W        W92986  43.400  13.616  13.342
27760W        W92987   0.421  31.521  12.307
27761W        W92988  20.582  26.121  11.683
27762W        W92989   9.550  17.297   3.322
27763W        W92990  33.472  19.992   3.696
27764W        W92991  27.603   3.600  10.721
27765W        W92992   8.311  27.914   2.206
27766W        W92993  31.562  40.163  12.008
27767W        W92994  16.858  10.241  13.484
27768W        W92995  24.755   9.585   3.292
27769W        W92996   8.410  15.107   4.108
27770W        W92997   9.398  39.263   1.211
27771W        W92998  19.773  32.164   2.699
27772W        W92999  19.379  41.331   3.747
27773W        W93000  13.007  36.981   5.016
27774W        W93001  14.311  28.140   0.342
27775W        W93002  17.626  28.344  11.009
27776W        W93003  31.139  32.802  12.519
27777W        W93004  17.241   9.364   4.715
27778W        W93005  36.840   9.376  10.105
27779W        W93006  37.568  42.800  12.840
27780W        W93007   9.810   7.236   0.725
27781W        W93008  40.393  30.587   0.244
27782W        W93009   0.541  43.352   2.133
27783W        W93010  29.600  15.053   1.803
27784W        W93011  16.547  12.204  11.217
27785W        W93012   1.815  28.970  13.447
27786W        W93013  42.130  37.894   4.572
27787W        W93014  24.728  40.423  14.899
27788W        W93015  14.420  30.878  13.863
27789W        W93016   0.819  44.324  12.448
27790W        W93017  26.661  31.149  11.608
27791W        W93018   0.819   6.672  11.710
27792W        W93019  10.861  36.881   0.367
27793W        W93020   0.218   9.905  14.893
27794W        W93021   7.240  37.969  13.921
27795W        W93022   8.204  37.551  12.818
27796W        W93023  42.256  40.890  14.442
27797W        W93024  18.564  21.297   2.225
27798W        W93025   0.567  35.571   0.825
27799W        W93026  30.948   9.160   2.903
27800W        W93027  38.524  20.510  12.211
27801W        W93028  42.452   7.712   0.319
27802W        W93029  19.474  41.839   3.693
27803W        W93030  35.497  23.790   4.000
27804W        W93031   6.442  24.941   2.656
27805W        W93032  23.203  41.542   0.240
27806W        W93033  38.416   4.228  13.928
27807W        W93034  16.271  21.191   2.701
27808W        W93035  18.747  36.556   4.581
27809W        W93036  17.710  11.297  13.887
27810W        W93037   7.248  19.760   1.778
27811W        W93038  10.158  38.497   0.688
27812W        W93039  41.681  31.442   1.821
27813W        W93040  13.860  14.724  13.101
27814W        W93041  22.091  39.130   2.721
27815W        W93042   4.502   7.267  12.628
27816W        W93043  43.505   9.775  14.988
27817W        W93044  32.558  35.570   2.691
27818W        W93045  29.823  29.187  12.744
27819W        W93046  34.070  26.042  14.722
27820W        W93047  23.499  28.749  12.578
27821W        W93048  10.171  44.229   3.288
27822W        W93049  34.111  11.402  14.428
27823W        W93050   7.685  37.927   1.395
27824W        W93051   0.578  10.935   1.912
27825W        W93052   2.625  31.446   4.598
27826W        W93053  25.663   6.934  14.350
27827W        W93054  34.841  19.748   1.893
27828W        W93055  22.124  23.122  10.512
27829W        W93056  28.697  39.328   2.727
27830W        W93057  24.508  43.873  13.354
27831W        W93058   8.167  22.911  12.040
27832W        W93059  30.391  44.253   1.789
27833W        W93060  22.767  29.670  13.506
27834W        W93061  14.819   8.291  10.806
27835W        W93062  12.835  24.489   3.802
27836W        W93063   5.347  28.884  13.855
27837W        W93064  12.050  30.150  11.437
27838W        W93065  22.237  19.761   2.224
27839W        W93066  18.722  25.354  14.351
27840W        W93067   3.158   5.316  13.047
27841W        W93068  34.226  43.744   2.805
27842W        W93069  23.605  15.675   2.905
27843W        W93070  39.881  34.053  14.496
27844W        W93071  38.892  16.618  13.971
27845W        W93072  29.843  44.851   1.263
27846W        W93073  22.631  31.359  11.646
27847W        W93074  16.363  39.767  11.269
27848W        W93075  42.052  34.672  12.065
27849W        W93076   3.248  42.326  10.602
27850W        W93077  26.021  18.104   3.884
27851W        W93078  22.527  19.244   3.818
27852W        W93079  10.543  38.293  12.035
27853W        W93080  37.087  23.350   2.008
27854W        W93081  28.828  17.266   4.687
27855W        W93082  19.395  25.280   0.724
27856W        W93083   2.144  16.328  11.983
27857W        W93084  19.180  22.445   2.039
27858W        W93085  40.305  44.264   0.562
27859W        W93086  15.223  18.221   0.853
27860W        W93087  41.116   7.702  11.199
27861W        W93088   6.325  43.346  13.491
27862W        W93089   8.041  40.708  12.923
27863W        W93090  13.115  30.072  14.610
27864W        W93091  20.895   0.318   4.628
27865W        W93092   0.416   2.367   4.586
27866W        W93093  39.477  43.486   3.386
27867W        W93094  39.579  10.719   5.011
27868W        W93095  20.955  17.146  14.868
27869W        W93096  43.110  28.914   3.362
27870W        W93097  41.022  15.707  12.981
27871W        W93098  23.456  39.790  14.107
27872W        W93099  43.767   7.843  11.562
27873W        W93100  17.659  11.736   1.337
27874W        W93101  34.420  43.567   4.239
27875W        W93102   9.567  21.549  14.803
27876W        W93103  39.715  38.523   1.841
27877W        W93104  22.978   3.346  12.364
27878W        W93105  18.220  37.918   0.900
27879W        W93106  42.889  32.098   2.729
27880W        W93107  37.862  29.899  12.082
27881W        W93108   3.376  30.946  14.783
27882W        W93109  43.525  12.479   4.194
27883W        W93110   7.758  28.073  13.808
27884W        W93111  24.228  10.861   0.667
27885W        W93112   1.299  12.256  12.997
27886W        W93113  38.779  28.052  12.309
27887W        W93114  43.188  31.004  13.824
27888W        W93115  39.294  17.822  13.403
27889W        W93116  24.034  11.112   0.258
27890W        W93117  12.954  27.589  12.408
27891W        W93118  14.876  19.576   3.607
27892W        W93119  33.855  38.683  14.334
27893W        W93120  32.039   8.427  13.882
27894W        W93121  34.168  18.200  12.716
27895W        W93122  13.611   8.536  12.655
27896W        W93123  12.217  26.195   1.458
27897W        W93124  29.101  21.235   4.507
27898W        W93125  22.463  39.462   4.443
27899W        W93126  42.844  35.899  12.358
27900W        W93127  13.380  33.575  11.218
27901W        W93128   1.197   3.721  13.872
27902W        W93129  24.240  36.272  12.169
27903W        W93130  36.911  14.089  12.079
27904W        W93131   4.266  18.650   3.280
27905W        W93132   1.738  35.817   2.791
27906W        W93133  25.113  43.531   3.560
27907W        W93134  18.220  40.783  11.600
27908W        W93135  37.494   6.074   2.569
27909W        W93136   5.143  16.468  12.227
27910W        W93137  16.572  24.020  14.256
27911W        W93138  37.800  16.218  12.316
27912W        W93139  42.615  22.273  12.155
27913W        W93140   8.558  16.099  11.311
27914W        W93141  25.241  27.458   0.729
27915W        W93142  24.083  35.028  12.488
27916W        W93143  16.345  39.684  14.902
27917W        W93144  37.825   9.776  11.061
27918W        W93145   2.324  35.248  14.400
27919W        W93146  22.589  37.090  10.319
27920W        W93147  41.553  43.012  12.902
27921W        W93148  14.312  38.331   3.157
27922W        W93149  32.424  36.064   2.858
27923W        W93150  33.949  18.260  11.143
27924W        W93151  38.653  25.216   0.408
27925W        W93152  28.484  42.012   0.774
27926W        W93153  27.836   6.784  11.020
27927W        W93154  37.627  13.154   2.717
27928W        W93155  25.126  41.786  11.205
27929W        W93156  29.716  31.034   3.409
27930W        W93157  37.373   6.078  13.179
27931W        W93158  33.570  24.687   0.375
27932W        W93159  40.009  28.357   1.821
27933W        W93160   9.222  10.683   2.707
27934W        W93161   3.397  24.151   4.097
27935W        W93162  24.781  19.807  10.375
27936W        W93163  31.905  32.757  14.422
27937W        W93164  12.823  41.441  11.082
27938W        W93165  42.124  14.408  11.653
27939W        W93166  31.039   3.351   4.059
27940W        W93167  30.967  22.577  12.739
27941W        W93168   6.331  17.729  10.836
27942W        W93169  24.561  27.949  14.873
27943W        W93170   7.865  30.803   2.329
27944W        W93171  18.806  20.729  13.941
27945W        W93172  21.812  24.434  11.737
27946W        W93173  13.701  23.566  10.914
27947W        W93174  39.083  20.745   2.188
27948W        W93175  26.018  44.685   3.143
27949W        W93176  38.706  30.330  10.999
27950W        W93177  21.705   6.446   1.213
27951W        W93178  16.277  32.046   1.497
27952W        W93179   0.267  35.863  14.362
27953W        W93180  28.450  12.027   4.609
27954W        W93181  38.925  36.269   1.394
27955W        W93182  31.879  32.034  11.988
27956W        W93183   3.639  10.126  12.833
27957W        W93184  38.958  16.625  11.603
27958W        W93185  17.596  17.882   3.864
27959W        W93186  19.382  37.065   4.141
27960W        W93187  16.639  44.239  10.414
27961W        W93188  17.632   7.762   2.625
27962W        W93189  43.007   0.283  13.160
27963W        W93190  15.673   8.940   0.713
27964W        W93191  27.079   1.805  12.429
27965W        W93192  22.185   0.922   0.809
27966W        W93193  40.447   9.686  11.615
27967W        W93194  17.769  41.683   3.188
27968W        W93195  27.009   7.121   2.225
27969W        W93196  36.842  29.602  13.903
27970W        W93197  17.906  39.929  10.877
27971W        W93198  16.486  10.929   3.246
27972W        W93199  42.366  27.648  14.433
27973W        W93200  37.005   1.009   0.903
27974W        W93201  33.471   3.335   1.374
27975W        W93202  23.566  29.163  14.003
27976W        W93203  23.005  41.573  12.083
27977W        W93204   5.214  42.459  11.641
27978W        W93205  15.733  43.215  10.281
27979W        W93206  39.448  43.437  12.420
27980W        W93207   7.732  39.129  10.739
27981W        W93208  32.982  30.623  13.355
27982W        W93209  43.698  14.424   0.491
27983W        W93210  14.198  35.092   3.150
27984W        W93211  27.419  12.084   1.523
27985W        W93212   7.005  38.460   4.617
27986W        W93213   9.780  18.649  12.689
27987W        W93214   1.178  25.136   2.816
27988W        W93215  31.422  40.272  12.799
27989W        W93216  26.417  10.247   0.908
27990W        W93217  31.016  29.443   2.604
27991W        W93218  14.184  14.875  11.625
27992W        W93219  34.468  31.142   0.190
27993W        W93220  23.066  17.525  13.567
27994W        W93221   7.062  15.842  13.889
27995W        W93222  16.379  11.386  14.079
27996W        W93223  17.639  38.872  11.503
27997W        W93224  25.755   7.741   2.246
27998W        W93225  27.436  28.957   2.842
27999W        W93226  35.611   5.191  13.902
28000W        W93227  42.408  26.973   0.176
28001W        W93228  15.049  22.248  13.644
28002W        W93229  21.563  32.971  11.755
28003W        W93230  26.876  10.184  11.004
28004W        W93231  32.395  24.719  11.050
28005W        W93232  11.866  29.025  13.405
28006W        W93233  24.506  15.798   1.934
28007W        W93234  36.270  23.650  14.210
28008W        W93235  31.445  14.089   1.450
28009W        W93236  43.551  24.172   0.727
28010W        W93237   4.677  39.867   4.484
28011W        W93238  12.738  19.085  14.855
28012W        W93239  37.002  11.087  14.447
28013W        W93240   8.596  15.127  13.446
28014W        W93241  25.786  27.161  13.247
28015W        W93242   8.835   4.774   1.780
28016W        W93243  11.865  44.211  10.749
28017W        W93244  15.758  22.632   3.268
28018W        W93245  33.543  32.301  11.239
28019W        W93246  10.843   3.287  13.535
28020W        W93247  34.868  43.032   3.749
28021W        W93248  23.619   4.610   2.186
28022W        W93249  31.523  30.496   3.179
28023W        W93250  15.294   6.335  11.554
28024W        W93251  23.783   9.858  13.947
28025W        W93252  35.651  26.253   4.039
28026W        W93253  18.775   6.375  12.896
28027W        W93254  16.190  25.405  10.706
28028W        W93255  39.955  26.031  11.218
28029W        W93256  20.599  12.810  13.465
28030W        W93257  28.997  21.676  10.806
28031W        W93258  11.865   5.411   2.857
28032W        W93259  12.865  10.166  14.459
28033W        W93260  30.607  23.041   4.623
28034W        W93261   2.384  16.579   1.254
28035W        W93262   6.192  27.225   3.163
28036W        W93263  38.023  20.765   0.503
28037W        W93264  28.037  17.063   3.702
28038W        W93265  34.092  28.955  14.333
28039W        W93266  26.626  11.979  12.960
28040W        W93267  21.539  18.976  11.536
28041W        W93268   2.297  24.590  11.643
28042W        W93269   9.176  34.349   3.292
28043W        W93270  31.609  26.288   3.088
28044W        W93271  40.429   8.381   3.231
28045W        W93272  24.834  43.109  11.608
28046W        W93273  20.571  18.607   2.805
28047W        W93274   7.875   1.356  11.351
28048W        W93275   2.427   0.050  10.783
28049W        W93276  27.226  32.025  10.766
28050W        W93277  16.539  41.621   0.891
28051W        W93278  25.656   5.765   2.374
28052W        W93279  41.605  10.489  10.395
28053W        W93280  19.318  19.645   4.372
28054W        W93281   2.949  18.511  12.055
28055W        W93282  24.991  38.392  12.060
28056W        W93283  12.218  27.611  10.810
28057W        W93284   4.793   6.927   0.037
28058W        W93285  35.397  37.512   3.738
28059W        W93286   4.685  14.869   0.978
28060W        W93287   6.672  37.789   1.357
28061W        W93288  14.834   2.339  12.722
28062W        W93289  18.293   6.152   1.948
28063W        W93290  24.094  14.117  12.835
28064W        W93291  12.372  28.149   4.548
28065W        W93292  21.005  44.337   0.798
28066W        W93293   1.083  22.352   0.973
28067W        W93294  25.087  26.270   4.695
28068W        W93295  34.141   9.776   2.618
28069W        W93296   7.641  20.320   0.267
28070W        W93297  31.410  13.075  13.492
28071W        W93298  34.426  23.541   4.849
28072W        W93299   2.369  42.718  11.864
28073W        W93300  15.833   4.366  14.280
28074W        W93301  19.815  13.735  11.972
28075W        W93302  10.281  22.485   0.805
28076W        W93303  28.956  39.878  10.269
28077W        W93304  26.449   4.457  12.055
28078W        W93305   5.763   1.624  12.207
28079W        W93306  15.797  11.843  14.642
28080W        W93307  12.890   2.340  10.726
28081W        W93308  30.744  31.100  13.474
28082W        W93309  33.027  35.758  11.539
28083W        W93310   2.461  20.245   1.354
28084W        W93311  30.532  33.106   0.712
28085W        W93312  39.854  17.486   2.292
28086W        W93313  28.866  30.279  11.658
28087W        W93314   9.602  40.399   4.014
28088W        W93315  19.717  16.270   1.172
28089W        W93316  30.542  11.346   0.304
28090W        W93317  38.160  34.318  13.653
28091W        W93318  37.698  32.365  14.815
28092W        W93319  42.165  37.756  14.089
28093W        W93320   7.677  23.618   2.318
28094W        W93321   9.240  21.482  13.360
28095W        W93322  27.708  36.892   0.924
28096W        W93323  40.569  33.494  10.589
28097W        W93324   7.063  30.437   0.422
28098W        W93325   7.839  17.045  12.584
28099W        W93326   5.956  32.932  10.818
28100W        W93327  13.219   9.406   2.363
28101W        W93328  34.547  29.930   1.278
28102W        W93329  37.715   2.294  10.674
28103W        W93330   3.800  10.665   2.015
28104W        W93331   8.938  14.101  11.243
28105W        W93332  21.091   0.252  13.099
28106W        W93333  30.720  11.098   9.803
28107W        W93334   5.285   2.065   4.390
28108W        W93335  30.638  16.908   2.213
28109W        W93336  40.330   8.365   1.239
28110W        W93337  13.930   5.588  14.325
28111W        W93338  15.255  43.268  13.879
28112W        W93339  14.064   7.962  11.418
28113W        W93340  38.386  24.016   1.675
28114W        W93341  31.306  37.491   2.776
28115W        W93342  38.315  38.796   2.487
28116W        W93343  15.242  25.764   4.491
28117W        W93344  27.594  11.195   2.539
28118W        W93345  12.896  39.059   1.693
28119W        W93346   0.837  34.470  11.111
28120W        W93347   6.371  27.060   1.490
28121W        W93348  29.039  14.070   1.850
28122W        W93349  20.528  27.219   1.289
28123W        W93350  38.442  36.980   1.421
28124W        W93351   0.332  18.496  13.772
28125W        W93352  43.381  25.482  11.187
28126W        W93353   8.237  38.059   4.948
28127W        W93354  31.161  22.037   0.032
28128W        W93355   1.001  29.806  13.391
28129W        W93356   9.824  23.247  12.299
28130W        W93357  10.900  34.886   2.741
28131W        W93358  36.883  11.365  11.953
28132W        W93359  11.128   7.442  11.688
28133W        W93360  42.743   7.723  13.813
28134W        W93361  36.535  13.392  12.587
28135W        W93362  21.823  14.015   4.513
28136W        W93363   6.949  13.577   1.927
28137W        W93364  15.672  23.236  12.526
28138W        W93365  23.487  27.744  12.511
28139W        W93366  15.912   0.826   1.932
28140W        W93367  13.189  35.223   0.557
28141W        W93368  13.849  44.554   2.154
28142W        W93369   3.465  11.249  11.032
28143W        W93370  40.339   1.934  14.311
28144W        W93371  12.359  10.377  14.460
28145W        W93372  27.678  37.998  13.895
28146W        W93373  26.102  14.426   1.477
28147W        W93374  15.070   3.702  11.229
28148W        W93375   0.027  24.565   9.674
28149W        W93376  14.309  32.321   3.596
28150W        W93377  10.338  36.186   2.402
28151W        W93378  15.180   6.948   2.739
28152W        W93379  39.541  34.356  10.711
28153W        W93380  37.647   0.533  13.809
28154W        W93381  37.894  27.485   1.881
28155W        W93382  41.884   4.849  14.138
28156W        W93383  39.601  22.136   1.315
28157W        W93384  27.622  17.190   1.007
28158W        W93385  27.625  22.424   0.784
28159W        W93386  41.399  19.110   3.255
28160W        W93387  40.146   3.482   1.308
28161W        W93388  15.095  29.583   0.364
28162W        W93389  32.451  31.013   1.910
28163W        W93390  17.314   7.187  12.388
28164W        W93391  21.092  29.666   1.866
28165W        W93392  36.524  40.981   1.254
28166W        W93393  38.596  39.655  14.008
28167W        W93394   9.725  31.095  10.957
28168W        W93395   5.894  41.730  12.621
28169W        W93396   7.130   4.763   3.159
28170W        W93397  17.306   3.278   2.732
28171W        W93398  25.336   1.036  14.785
28172W        W93399  23.650  20.642  12.428
28173W        W93400  39.440  27.444   2.924
28174W        W93401  31.961  16.466  10.665
28175W        W93402  39.848  13.604  10.985
28176W        W93403  27.478  10.741  10.850
28177W        W93404   2.383  16.037   2.544
28178W        W93405  21.007   6.206  11.060
28179W        W93406  12.191  14.068   0.749
28180W        W93407  38.550  23.776   1.272
28181W        W93408   3.960  33.478   0.446
28182W        W93409   3.500  31.380  14.366
28183W        W93410   8.435  15.209   1.786
28184W        W93411  36.114  31.677  13.546
28185W        W93412  10.844   0.881   4.026
28186W        W93413  31.486   5.755  14.746
28187W        W93414  16.797  25.208   2.853
28188W        W93415  39.003  25.717   3.202
28189W        W93416  12.269  35.359  13.460
28190W        W93417   2.856  20.360  10.658
28191W        W93418   7.312   9.369   1.197
28192W        W93419  24.697  35.002   2.386
28193W        W93420   3.100  36.672  11.567
28194W        W93421  41.302  40.008   1.080
28195W        W93422   6.164  24.745  13.469
28196W        W93423  11.767  44.843  13.280
28197W        W93424  23.759  12.876  12.049
28198W        W93425  19.102   0.353  14.263
28199W        W93426  28.422  19.624   4.286
28200W        W93427  29.221  33.636   1.799
28201W        W93428  32.472  12.322  14.274
28202W        W93429  20.681  18.715   0.973
28203W        W93430   3.833  11.628  12.522
28204W        W93431  21.194  10.270   2.764
28205W        W93432   6.083  12.625   0.734
28206W        W93433   1.552   2.204  13.239
28207W        W93434  24.507  40.816   0.330
28208W        W93435  11.951  19.729  11.138
28209W        W93436  21.726   4.323   3.198
28210W        W93437   2.714  31.551  11.645
28211W        W93438   8.807   2.403   0.363
28212W        W93439  13.878  34.883  11.604
28213W        W93440  15.099  16.812  10.624
28214W        W93441  27.623  23.286   0.387
28215W        W93442  40.452  16.422   4.638
28216W        W93443  38.907  17.122  13.831
28217W        W93444  42.564  11.387   2.871
28218W        W93445  41.888  31.414  12.965
28219W        W93446  33.721  23.854   3.289
28220W        W93447  32.547  42.435   2.849
28221W        W93448  22.621  17.754  10.919
28222W        W93449  40.926   5.298  12.107
28223W        W93450  41.753  17.540  12.122
28224W        W93451  32.047  37.930   0.374
28225W        W93452   6.065  42.983  11.474
28226W        W93453  40.954  38.110  10.713
28227W        W93454   8.316   7.439  10.681
28228W        W93455   0.324  35.615   4.552
28229W        W93456  41.953   0.268   4.809
28230W        W93457  39.507  34.407  11.659
28231W        W93458   0.626  44.055   9.845
28232W        W93459  24.521  41.473  13.740
28233W        W93460  28.948  32.504   3.193
28234W        W93461  34.967  30.631  13.188
28235W        W93462  39.376   8.184  11.788
28236W        W93463  22.500  18.674   0.159
28237W        W93464   0.310  12.018  11.185
28238W        W93465  10.308  42.768   4.127
28239W        W93466  16.176   4.564   1.783
28240W        W93467  33.950   0.910   4.126
28241W        W93468   4.821   2.951  11.728
28242W        W93469  25.530  44.714  12.415
28243W        W93470   7.833  32.540  13.046
28244W        W93471  43.739   8.223  11.941
28245W        W93472   7.129  29.000   0.945
28246W        W93473  19.254  12.800   0.188
28247W        W93474  10.883  25.565  14.406
28248W        W93475   0.624   5.118  14.487
28249W        W93476  32.143  32.375  13.428
28250W        W93477  24.572   1.319  14.296
28251W        W93478  14.608  44.305  12.028
28252W        W93479   4.471   3.523  13.909
28253W        W93480  43.502  27.665   0.040
28254W        W93481  33.652  29.562  13.533
28255W        W93482  41.216   7.960   3.186
28256W        W93483  12.843  12.400  13.582
28257W        W93484  27.178  23.051  13.384
28258W        W93485  18.708   4.962   4.948
28259W        W93486   9.269   4.313   3.251
28260W        W93487  44.352  20.158  14.620
28261W        W93488   2.421  16.077   4.595
28262W        W93489  39.553  31.399   4.494
28263W        W93490  41.777  27.940   0.778
28264W        W93491  28.854   7.335   1.689
28265W        W93492  23.714  13.610   0.356
28266W        W93493  40.922  43.599   3.794
28267W        W93494  31.196  24.023  11.169
28268W        W93495   8.896  44.476  14.040
28269W        W93496  37.274  40.284   3.438
28270W        W93497  35.224  20.726   5.212
28271W        W93498   2.846   7.412  13.590
28272W        W93499  33.430  35.766   4.610
28273W        W93500   5.839  38.723  10.739
28274W        W93501  26.437   5.822  14.310
28275W        W93502  28.174  21.522  13.906
28276W        W93503  30.057  33.733   2.710
28277W        W93504  14.851   7.354   4.222
28278W        W93505  16.631  33.450   3.844
28279W        W93506   8.035   7.937   3.059
28280W        W93507  28.635  39.995  11.474
28281W        W93508  12.261  19.538   0.813
28282W        W93509  14.361  10.810   0.554
28283W        W93510  26.303  28.104  10.762
28284W        W93511  21.486  30.531   4.515
28285W        W93512  23.908  26.638   0.657
28286W        W93513  34.839   3.743   0.821
28287W        W93514  16.019  15.146  14.459
28288W        W93515  15.666  11.410  12.398
28289W        W93516   7.594   4.158   1.638
28290W        W93517  39.922   6.017   1.030
28291W        W93518  11.390  41.941   2.764
28292W        W93519   2.090  19.708   4.775
28293W        W93520  24.284   7.494   4.066
28294W        W93521  18.763  31.554   3.266
28295W        W93522  43.803  18.109   3.620
28296W        W93523  28.211  23.683   3.995
28297W        W93524  36.918   9.116   5.215
28298W        W93525  24.087   8.293   1.782
28299W        W93526  37.856   6.908   3.558
28300W        W93527  43.072   9.621  14.755
28301W        W93528   2.927   5.024   0.651
28302W        W93529  12.409  27.363   4.115
28303W        W93530   7.959  22.442  13.945
28304W        W93531   7.402  11.951  12.434
28305W        W93532  10.032  23.306  14.516
28306W        W93533   9.364  41.062  14.356
28307W        W93534  30.399   9.288  14.020
28308W        W93535   3.293  10.336   2.940
28309W        W93536  15.833  33.129  12.992
28310W        W93537  28.167  13.923   1.143
28311W        W93538  28.982  11.992   4.586
28312W        W93539  38.986  39.603   1.821
28313W        W93540  25.540   5.405   1.504
28314W        W93541  37.827   0.003   2.886
28315W        W93542   1.307  13.899  13.010
28316W        W93543  19.620  41.067  14.098
28317W        W93544   8.585  14.674   2.329
28318W        W93545  16.155  23.894   0.942
28319W        W93546  35.452  41.915  13.414
28320W        W93547  44.388   7.478   3.811
28321W        W93548   4.237  25.428  14.956
28322W        W93549  11.074  39.712  11.496
28323W        W93550  38.910  29.146   2.405
28324W        W93551  16.863  23.430   3.705
28325W        W93552   5.430  26.908  13.359
28326W        W93553  16.597   3.306   0.383
28327W        W93554   6.308  11.319   0.824
28328W        W93555  14.699   9.421   2.581
28329W        W93556  34.938  11.173  14.402
28330W        W93557  43.097  16.312  12.410
28331W        W93558  34.792  31.474   2.078
28332W        W93559  40.936  10.302   3.871
28333W        W93560   6.271  35.377  14.083
28334W        W93561  11.578  17.572   2.211
28335W        W93562   1.986   5.357  12.025
28336W        W93563   5.268  10.851  11.183
28337W        W93564  28.119   5.361   1.003
28338W        W93565   7.386  24.972   4.424
28339W        W93566  34.640   7.386  12.912
28340W        W93567  19.340  29.149  10.686
28341W        W93568  27.215   2.342   3.374
28342W        W93569  43.959  24.065   3.785
28343W        W93570  10.697   7.969   1.165
28344W        W93571  12.609   0.790  11.750
28345W        W93572  38.000  31.155   3.756
28346W        W93573  28.418  35.557   2.800
28347W        W93574  30.667  15.223   1.864
28348W        W93575  43.046   5.495  13.536
28349W        W93576  22.013  43.772   1.713
28350W        W93577  28.059  35.768  11.924
28351W        W93578  41.068  18.906   5.235
28352W        W93579  42.824  18.545   0.759
28353W        W93580  15.284  27.351   2.276
28354W        W93581  26.188  38.830   3.704
28355W        W93582  24.985  27.972   4.614
28356W        W93583  15.893  20.040  11.107
28357W        W93584  12.377  37.213   0.662
28358W        W93585   4.874  43.669   0.789
28359W        W93586  20.438  20.980   4.207
28360W        W93587  28.519   8.857  11.505
28361W        W93588  40.529  26.995  14.879
28362W        W93589  17.258  20.235   2.401
28363W        W93590  12.094   6.750   4.383
28364W        W93591  20.470  40.430  11.232
28365W        W93592  37.128  36.429   3.801
28366W        W93593  43.528  12.138  13.437
28367W        W93594  14.308  22.868   0.343
28368W        W93595  16.258  30.988   3.891
28369W        W93596   0.220  27.098   0.195
28370W        W93597   8.647  40.934   3.296
28371W        W93598   4.472  41.517  11.143
28372W        W93599  15.101  38.371   1.397
28373W        W93600  44.062  27.891   5.011
28374W        W93601  14.245  43.358   4.248
28375W        W93602   8.940   7.893  12.546
28376W        W93603  37.992  16.328   4.187
28377W        W93604  25.025  29.602   1.799
28378W        W93605  38.872  31.625   0.231
28379W        W93606  22.260  14.876  12.082
28380W        W93607   0.358  15.668   4.085
28381W        W93608  22.118  23.929  10.922
28382W        W93609  12.405  13.114  13.476
28383W        W93610  34.799  31.661   4.840
28384W        W93611   1.339  12.649  10.710
28385W        W93612  37.840  29.055   1.502
28386W        W93613   5.944  36.043   1.775
28387W        W93614  36.937   2.173  11.617
28388W        W93615  44.350   8.665   1.889
28389W        W93616  29.483  30.056  12.774
28390W        W93617   5.415   4.784  11.581
28391W        W93618   5.116  12.566  11.439
28392W        W93619  11.627  44.185  11.249
28393W        W93620  36.429  23.613  12.386
28394W        W93621  16.244   7.645  11.123
28395W        W93622  44.324  35.105  11.925
28396W        W93623  24.869  32.700   3.095
28397W        W93624  22.509  44.041   2.818
28398W        W93625  15.588   8.569   4.316
28399W        W93626  10.888  37.999   0.723
28400W        W93627  26.654   8.841  12.947
28401W        W93628  13.223  15.575   2.286
28402W        W93629  15.673   4.520  11.617
28403W        W93630  34.472   1.690   4.078
28404W        W93631  34.368   8.161  12.590
28405W        W93632  19.069  14.777  14.425
28406W        W93633  27.262  35.598  12.874
28407W        W93634  32.825  27.153   3.643
28408W        W93635   4.025  20.229   0.354
28409W        W93636  21.589  12.688   4.510
28410W        W93637   2.867  19.592   4.189
28411W        W93638  34.378  19.269   1.742
28412W        W93639  41.610  34.977   4.015
28413W        W93640  18.664  30.443  11.468
28414W        W93641  42.710  15.111  14.355
28415W        W93642  29.445  35.115  10.888
28416W        W93643  14.234  36.061  13.490
28417W        W93644  25.101   4.032   5.010
28418W        W93645  31.659  14.896   0.980
28419W        W93646  24.537  42.763  11.853
28420W        W93647  15.064  34.803   1.282
28421W        W93648  34.502   7.578  11.205
28422W        W93649   0.731  13.360   4.495
28423W        W93650  30.263  33.837  10.763
28424W        W93651  33.168  12.829   2.737
28425W        W93652  34.374  29.225  10.781
28426W        W93653  27.254  36.865  14.450
28427W        W93654  22.703  23.321  14.335
28428W        W93655  14.708  17.087   3.606
28429W        W93656  31.320  31.551  10.989
28430W        W93657  26.787  18.857   2.730
28431W        W93658   1.827  38.109  10.650
28432W        W93659  15.840  13.637  10.658
28433W        W93660   0.982  38.917   4.087
28434W        W93661  30.129  41.433  12.096
28435W        W93662  31.915   2.009  11.680
28436W        W93663  11.968  24.968  12.564
28437W        W93664   1.153  40.905  12.005
28438W        W93665  14.014  30.555  13.865
28439W        W93666  26.291  26.259  12.515
28440W        W93667  24.953  30.960  14.435
28441W        W93668  14.238  22.706   2.633
28442W        W93669  36.864  30.058  10.543
28443W        W93670  14.570   2.487   2.280
28444W        W93671   0.717   2.548   1.335
28445W        W93672  27.893   7.312  12.690
28446W        W93673  20.114  24.526  11.990
28447W        W93674  24.650  21.673   2.221
28448W        W93675   7.539  40.793  13.060
28449W        W93676  23.379  21.774  14.924
28450W        W93677  38.136  10.639  11.085
28451W        W93678   8.705   0.953   3.303
28452W        W93679  21.439   0.388   3.951
28453W        W93680  28.533  14.881  13.531
28454W        W93681  38.470  41.481   3.280
28455W        W93682  14.583   7.866  12.548
28456W        W93683  22.296  33.791  12.009
28457W        W93684   7.162  31.871   2.002
28458W        W93685  35.451  18.066  12.581
28459W        W93686  30.913  34.883   3.154
28460W        W93687  36.283  32.697  14.957
28461W        W93688  22.050  34.129  14.358
28462W        W93689  30.059   3.939   1.843
28463W        W93690  33.941  14.226  12.887
28464W        W93691  27.433  41.238   3.582
28465W        W93692   7.169  34.909  13.835
28466W        W93693  37.047  39.001  11.995
28467W        W93694  35.982  37.830   0.187
28468W        W93695  21.567   3.864   4.046
28469W        W93696   7.267   3.387  10.683
28470W        W93697   1.830  23.473  11.770
28471W        W93698  20.764   7.064   0.025
28472W        W93699  32.972  34.735  14.791
28473W        W93700   1.589   0.492   2.830
28474W        W93701  44.438  16.049  12.115
28475W        W93702  40.335  28.162  13.981
28476W        W93703   4.689  31.569  11.566
28477W        W93704  37.533  14.198  14.749
28478W        W93705  42.411  35.872  11.629
28479W        W93706  13.785  26.293  10.775
28480W        W93707  37.574  25.588   2.385
28481W        W93708  43.309  24.610   4.809
28482W        W93709   3.779  27.009  13.882
28483W        W93710  30.462  15.386   4.147
28484W        W93711  42.828   4.864   4.695
28485W        W93712  13.355  39.906   1.910
28486W        W93713  25.688  32.135   1.851
28487W        W93714  40.373   8.559   4.151
28488W        W93715  33.265  24.058  13.821
28489W        W93716  33.456  38.435   1.457
28490W        W93717  13.609  16.627   1.306
28491W        W93718  15.180  33.338   4.628
28492W        W93719  14.176   3.948  13.052
28493W        W93720  34.595  34.566  10.779
28494W        W93721  33.717  10.875   1.808
28495W        W93722  40.817  41.248  11.152
28496W        W93723  43.469   6.858   4.636
28497W        W93724  20.019  16.115   3.216
28498W        W93725  33.682  43.532  13.855
28499W        W93726  37.621   5.401  11.989
28500W        W93727  13.116   3.439  11.680
28501W        W93728  32.200   1.992  10.400
28502W        W93729   9.708  19.699  12.267
28503W        W93730  11.748   0.147   3.741
28504W        W93731   2.088   7.534   3.383
28505W        W93732  28.580   0.915   1.796
28506W        W93733   7.244   2.251  11.464
28507W        W93734  41.929   3.340  14.956
28508W        W93735   9.713  42.744   4.797
28509W        W93736  30.941  21.239   0.319
28510W        W93737  25.139   1.596  14.940
28511W        W93738  37.478  21.135  11.100
28512W        W93739  16.440   4.747   1.020
28513W        W93740   0.406  33.028  14.640
28514W        W93741  18.260  18.582   3.180
28515W        W93742  34.894  39.111  12.622
28516W        W93743  36.612  15.603  12.502
28517W        W93744   2.368   7.870  13.986
28518W        W93745  39.941  20.150  14.921
28519W        W93746   9.434  44.641   1.623
28520W        W93747   7.405  36.041   0.922
28521W        W93748  21.522  29.450  10.551
28522W        W93749  20.600  24.712  11.214
28523W        W93750  13.114  16.006   1.471
28524W        W93751  13.772  27.949   2.852
28525W        W93752  22.062  28.467  11.100
28526W        W93753  13.316  39.363   1.846
28527W        W93754  28.686  35.053   3.663
28528W        W93755  16.575  34.346  12.865
28529W        W93756  25.955  41.964  13.573
28530W        W93757  34.281   9.967  14.394
28531W        W93758   1.347   0.494   1.921
28532W        W93759   7.904  21.007   1.029
28533W        W93760   3.269  34.778  10.275
28534W        W93761  26.234  37.754   0.330
28535W        W93762  15.116  20.054  11.825
28536W        W93763  36.434  22.616  12.153
28537W        W93764  30.062   0.296   1.019
28538W        W93765  31.441  29.673  10.116
28539W        W93766   3.905  25.688   3.420
28540W        W93767  10.100  16.511   0.699
28541W        W93768  18.224  42.993   3.137
28542W        W93769  18.244  27.475   3.326
28543W        W93770  26.213  26.154   3.185
28544W        W93771   6.025  31.074  14.024
28545W        W93772   1.920  27.661   1.264
28546W        W93773  33.975  17.102   4.511
28547W        W93774  39.117  29.891  12.104
28548W        W93775  36.529   6.881   1.385
28549W        W93776  26.575  13.306  14.376
28550W        W93777  38.909   8.296   2.322
28551W        W93778  35.475  10.712   3.886
28552W        W93779  23.105   7.815   0.531
28553W        W93780   5.226  33.565  10.692
28554W        W93781  19.974  44.392   5.100
28555W        W93782  36.137  34.582   4.592
28556W        W93783  26.781   5.462  13.402
28557W        W93784  13.298  44.856  13.390
28558W        W93785  26.477  17.049   0.348
28559W        W93786  16.251  11.611   4.374
28560W        W93787  13.350  12.512   2.356
28561W        W93788  42.597   3.645   4.795
28562W        W93789  34.129  22.158   2.365
28563W        W93790  40.825  36.117  13.907
28564W        W93791  33.597  41.948   2.645
28565W        W93792   6.262  27.980  11.113
28566W        W93793  14.642  37.896   4.641
28567W        W93794  30.730  19.646  12.942
28568W        W93795  43.401   7.350  14.045
28569W        W93796  23.780  33.417  12.112
28570W        W93797  15.003   9.217  13.502
28571W        W93798  18.708  28.657  13.435
28572W        W93799  15.879  22.630   0.917
28573W        W93800  40.436  29.978  13.085
28574W        W93801  10.336  32.573   1.249
28575W        W93802  30.460  44.180  11.575
28576W        W93803   6.189   3.673   2.770
28577W        W93804  23.483  12.165   0.931
28578W        W93805  29.784   2.403   3.808
28579W        W93806  16.687  25.809   0.932
28580W        W93807  20.162  20.994   3.007
28581W        W93808  16.853  36.459  10.817
28582W        W93809  22.285  31.402  13.444
28583W        W93810  34.937  32.747   1.175
28584W        W93811  40.105  13.274  14.359
28585W        W93812   5.383  31.339   3.062
28586W        W93813   2.330  10.317   2.211
28587W        W93814  26.725   2.365   1.694
28588W        W93815  39.359  23.125  10.973
28589W        W93816  28.108  24.653  12.999
28590W        W93817   6.896   1.219   2.227
28591W        W93818  17.621  30.161   1.263
28592W        W93819  31.067  32.373   0.237
28593W        W93820  10.363  36.677   2.658
28594W        W93821  29.052   3.893  13.382
28595W        W93822  34.088  41.939   3.211
28596W        W93823  22.008  13.398  13.561
28597W        W93824  25.789   7.838   3.096
28598W        W93825  34.405  29.472  14.464
28599W        W93826   1.555  13.777   3.183
28600W        W93827   5.400  41.822   1.926
28601W        W93828  20.908  42.744   1.424
28602W        W93829  43.850  13.289   0.351
28603W        W93830  14.226  40.204   1.919
28604W        W93831  15.868  44.953   4.927
28605W        W93832   5.150  42.042  10.759
28606W        W93833   3.203   4.700  14.416
28607W        W93834  19.358  29.831  12.446
28608W        W93835  44.264   6.255   2.217
28609W        W93836  27.974  42.272   1.823
28610W        W93837  15.104   7.905   0.382
28611W        W93838   9.682   6.843  11.639
28612W        W93839   5.037   2.315   1.359
28613W        W93840  20.817   9.247  10.483
28614W        W93841   5.229  29.674   3.694
28615W        W93842  18.891  18.229  14.836
28616W        W93843  24.580  41.044  11.164
28617W        W93844   9.457  26.678  14.947
28618W        W93845   8.089   6.767  12.068
28619W        W93846  26.510  43.523  10.633
28620W        W93847  31.187   7.065  12.073
28621W        W93848   8.917  10.567  13.491
28622W        W93849  26.983   3.182  10.992
28623W        W93850  27.148  35.929   3.324
28624W        W93851  34.018  14.709  12.680
28625W        W93852  39.964  20.746  12.473
28626W        W93853  19.904  42.524   3.257
28627W        W93854  44.778  10.732  12.889
28628W        W93855  17.682  26.579   4.426
28629W        W93856   7.875  29.090   1.433
28630W        W93857  27.814  28.825   5.366
28631W        W93858  38.010  29.553   2.845
28632W        W93859  13.754  19.143   4.667
28633W        W93860  31.720  15.672   1.393
28634W        W93861  26.561   1.222  14.804
28635W        W93862   0.947  38.419   4.265
28636W        W93863  23.292  13.698  14.490
28637W        W93864  27.224  22.496   3.823
28638W        W93865  24.488  34.625  14.409
28639W        W93866   6.246  38.120  13.410
28640W        W93867   0.388  13.578  11.160
28641W        W93868  19.875  41.335  12.152
28642W        W93869  15.753  23.751   0.421
28643W        W93870  10.945  18.311  11.973
28644W        W93871  44.196  21.146  13.083
28645W        W93872   6.942  38.024   4.278
28646W        W93873  10.771  24.790  13.438
28647W        W93874  24.713  43.794  12.007
28648W        W93875  30.034  31.852   2.925
28649W        W93876  29.415  44.391   0.588
28650W        W93877  23.093   7.871  11.952
28651W        W93878  10.682  12.711  10.029
28652W        W93879  31.136  40.379   4.671
28653W        W93880  26.190  42.451  11.551
28654W        W93881   9.759  33.444  14.472
28655W        W93882  30.050   6.345   0.664
28656W        W93883  37.016   5.357   0.732
28657W        W93884  20.626  33.898  11.574
28658W        W93885   4.879   3.019  11.194
28659W        W93886  27.938   6.919  13.804
28660W        W93887  42.401  33.842  13.913
28661W        W93888   3.171  18.774  10.795
28662W        W93889  43.270   5.950   3.838
28663W        W93890  29.371  40.991  11.830
28664W        W93891  17.218  13.574   0.028
28665W        W93892  44.678   9.299  14.283
28666W        W93893  12.319   9.673   0.780
28667W        W93894  20.895  31.112   4.029
28668W        W93895  27.718  16.177   1.120
28669W        W93896  37.947  18.122   1.294
28670W        W93897  13.270   4.889   2.803
28671W        W93898  15.071  18.052   4.927
28672W        W93899  29.769  28.864  12.337
28673W        W93900  12.817  28.611  11.714
28674W        W93901  25.129  24.048  12.107
28675W        W93902  39.398  25.160  13.969
28676W        W93903  37.554  28.370   2.289
28677W        W93904  11.505   3.899  11.672
28678W        W93905  12.572  36.594   2.754
28679W        W93906  43.686  40.545  13.537
28680W        W93907  17.117  22.723  11.897
28681W        W93908  22.199  11.559   3.418
28682W        W93909  21.227  39.904   1.401
28683W        W93910   9.266  10.836  14.175
28684W        W93911   8.449   6.905  14.371
28685W        W93912  11.999   2.701  14.174
28686W        W93913   2.735   4.489  13.348
28687W        W93914  13.709  31.139   2.797
28688W        W93915   5.901  38.679  11.648
28689W        W93916  43.623  17.338  10.703
28690W        W93917  38.084  17.056  13.535
28691W        W93918   2.296  33.589   3.212
28692W        W93919   3.440  34.240  11.504
28693W        W93920  43.002  40.906   3.138
28694W        W93921   9.445  42.356  12.528
28695W        W93922  35.946  29.539   4.133
28696W        W93923   6.411  34.700   0.420
28697W        W93924  41.650   4.625  11.133
28698W        W93925  28.433  27.854  11.107
28699W        W93926  41.499  40.416   1.431
28700W        W93927  29.605   9.804   1.892
28701W        W93928  29.982   5.068   0.384
28702W        W93929  28.913  19.431   4.251
28703W        W93930  15.133  27.063   4.009
28704W        W93931  35.293  44.235   0.871
28705W        W93932  40.152  12.274  13.133
28706W        W93933  34.088  12.202  11.509
28707W        W93934  13.492  35.005  14.734
28708W        W93935  26.253  36.996  11.734
28709W        W93936   2.009  37.633   2.788
28710W        W93937   0.286  37.917   2.333
28711W        W93938  39.942  38.463   4.017
28712W        W93939  39.023  31.156  14.935
28713W        W93940  10.046   7.934  14.479
28714W        W93941  25.389  15.345   4.248
28715W        W93942  38.751  20.124  13.548
28716W        W93943  31.040  13.094  14.801
28717W        W93944  27.048  40.035   2.333
28718W        W93945  41.272  13.905   1.858
28719W        W93946  11.132  11.101  10.733
28720W        W93947  44.049   8.645  11.899
28721W        W93948   1.265  14.821  11.904
28722W        W93949   3.545  42.524   2.728
28723W        W93950  25.568  14.630  10.762
28724W        W93951  11.275  34.715   0.925
28725W        W93952  41.850   0.543  13.162
28726W        W93953   8.173  42.011   2.317
28727W        W93954  29.386  19.286  11.543
28728W        W93955  32.779  17.564   3.767
28729W        W93956   6.647  21.983  13.794
28730W        W93957  11.069  20.074  13.844
28731W        W93958  20.255   4.404  11.614
28732W        W93959  30.161   6.937   1.150
28733W        W93960  31.368   1.017   2.129
28734W        W93961  32.463  21.781  14.798
28735W        W93962   7.496  22.000   2.659
28736W        W93963  37.590  28.653   4.612
28737W        W93964  21.281  32.168  11.624
28738W        W93965  28.019  31.921   3.114
28739W        W93966  40.992   2.864  13.929
28740W        W93967  24.968  36.419  12.698
28741W        W93968  18.153  12.824  12.200
28742W        W93969  19.069   6.199  14.734
28743W        W93970  38.341   1.270   3.621
28744W        W93971   2.156  41.428   0.645
28745W        W93972  33.648   0.283   2.700
28746W        W93973  36.680  20.227   2.863
28747W        W93974  32.087   3.227  14.450
28748W        W93975  35.114  17.297   0.311
28749W        W93976  21.249  27.231   2.403
28750W        W93977  10.381  13.924   1.273
28751W        W93978  38.763  26.320   2.664
28752W        W93979  43.835   8.700  13.523
28753W        W93980  15.230  13.294   0.227
28754W        W93981  18.565   6.913  14.407
28755W        W93982  23.473   7.364  10.659
28756W        W93983   2.928  31.171   0.441
28757W        W93984  14.051   3.731  14.821
28758W        W93985  15.668  21.894   4.743
28759W        W93986  19.131  36.048   0.954
28760W        W93987  24.211  35.042   5.123
28761W        W93988  27.155  41.094  13.542
28762W        W93989  19.003  22.995  14.469
28763W        W93990  29.963  22.095   1.748
28764W        W93991  40.341  17.846  11.192
28765W        W93992  13.649  16.830   2.346
28766W        W93993  22.179   8.396  10.577
28767W        W93994  44.836  18.342  11.848
28768W        W93995  10.086  40.311   1.666
28769W        W93996  38.512  30.683   3.332
28770W        W93997  32.826  16.551  11.978
28771W        W93998   3.881  10.205  11.949
28772W        W93999  40.712  19.056   4.558
28773W        W94000   3.946  30.664   2.154
28774W        W94001  38.099  31.086   2.556
28775W        W94002  25.136   9.093  11.522
28776W        W94003  17.013   2.346  13.563
28777W        W94004   9.205   3.036  13.321
28778W        W94005  11.593  34.447   2.336
28779W        W94006   0.919  33.079   2.318
28780W        W94007  19.659   1.684   3.733
28781W        W94008   3.752  24.111   1.771
28782W        W94009   4.839   8.433  12.048
28783W        W94010  32.551   8.088   0.447
28784W        W94011  30.505  11.092  14.847
28785W        W94012  24.462  26.214   2.082
28786W        W94013   1.746  36.655   2.490
28787W        W94014  27.377   6.159   2.381
28788W        W94015   0.789  38.436   2.859
28789W        W94016  29.339  25.449   2.263
28790W        W94017  19.055  30.103   4.117
28791W        W94018   7.235  26.741   0.032
28792W        W94019   4.472  40.278  10.522
28793W        W94020   0.755  24.810   2.816
28794W        W94021  25.623  25.986  11.579
28795W        W94022  17.111  26.664  13.612
28796W        W94023  34.599  33.898  12.518
28797W        W94024  37.161  11.486   0.947
28798W        W94025  16.828  37.519   5.385
28799W        W94026  28.573  15.362   4.158
28800W        W94027  13.132  33.131  11.105
28801W        W94028  29.486  38.387   2.106
28802W        W94029   7.827  15.204  14.012
28803W        W94030  19.773  39.197  13.050
28804W        W94031  27.111  15.785   2.613
28805W        W94032  10.082  21.252   0.406
28806W        W94033  26.741  35.851   2.427
28807W        W94034  43.422  16.966   2.233
28808W        W94035  20.026  21.298  11.251
28809W        W94036  43.379   3.293  12.397
28810W        W94037   8.261   9.241   4.752
28811W        W94038  10.784  37.515  14.886
28812W        W94039  12.863   5.082   1.982
28813W        W94040  11.095  29.209   4.447
28814W        W94041  40.899  33.903   4.376
28815W        W94042  12.734  31.443   3.105
28816W        W94043  38.457  30.371   3.787
28817W        W94044  22.170   5.204   2.285
28818W        W94045  30.132  25.527  13.992
28819W        W94046  20.266  37.343   4.082
28820W        W94047  24.715  31.889  11.494
28821W        W94048  22.691  32.925  10.860
28822W        W94049  43.739  14.233   3.112
28823W        W94050   7.345  22.041  14.463
28824W        W94051   4.503  34.303   4.604
28825W        W94052  25.195  40.896   2.679
28826W        W94053  19.062  16.656  11.630
28827W        W94054  32.322  19.684   2.406
28828W        W94055  12.066  34.559  13.024
28829W        W94056  41.608  26.111   1.235
28830W        W94057   4.767  21.220   3.597
28831W        W94058  27.920  26.306   9.846
28832W        W94059  27.964   8.223  13.043
28833W        W94060  10.224  42.737   4.632
28834W        W94061  37.494   8.360  11.865
28835W        W94062   4.306  44.482  10.362
28836W        W94063  32.916   5.263  12.016
28837W        W94064  29.162   6.950   1.488
28838W        W94065  20.279  13.790   4.402
28839W        W94066  29.871  42.413  11.533
28840W        W94067  36.335  27.662   3.240
28841W        W94068   5.159  35.075  14.334
28842W        W94069   0.365   8.227  12.867
28843W        W94070  14.128  42.567   1.730
28844W        W94071   9.942   1.948  12.120
28845W        W94072  44.047  28.191   3.236
28846W        W94073  14.780  25.226  14.058
28847W        W94074  36.501  29.487   0.603
28848W        W94075  35.685   4.960   2.294
28849W        W94076  25.165   6.869  12.409
28850W        W94077   2.141  43.869  13.534
28851W        W94078  33.055   8.612   0.832
28852W        W94079  24.673  15.515  12.071
28853W        W94080   9.225  29.051   0.360
28854W        W94081   3.712  23.689  10.657
28855W        W94082  17.216  35.949  12.546
28856W        W94083  43.266  30.762   0.529
28857W        W94084   2.265   4.738  14.040
28858W        W94085  15.038  18.645  10.849
28859W        W94086  18.706  10.925   2.636
28860W        W94087  30.637   3.391   2.666
28861W        W94088  24.088  23.022  11.136
28862W        W94089  38.009  44.365   1.125
28863W        W94090  35.290   2.480   3.456
28864W        W94091  23.482  31.799  14.835
28865W        W94092   2.529   0.528   4.073
28866W        W94093  44.334  31.585  11.565
28867W        W94094  33.118  33.996  13.079
28868W        W94095   3.396   8.799   0.783
28869W        W94096  39.964  24.854  14.297
28870W        W94097   2.382  43.244  14.376
28871W        W94098  29.159  15.552   3.379
28872W        W94099  22.184   5.756   4.731
28873W        W94100  14.155  30.690  13.379
28874W        W94101  20.509  39.406   2.285
28875W        W94102  18.723  16.348   2.510
28876W        W94103  14.625  21.520   0.800
28877W        W94104  31.073   5.706  10.640
28878W        W94105  40.582  39.955   5.040
28879W        W94106  16.261  32.359   0.639
28880W        W94107  34.842  26.613   4.132
28881W        W94108  28.583  13.161   1.256
28882W        W94109  42.843  14.433   0.455
28883W        W94110  18.616   1.660  10.364
28884W        W94111   3.380  12.272  14.487
28885W        W94112   2.254   9.090   1.830
28886W        W94113  41.268  34.109   0.929
28887W        W94114  32.475  40.590  12.015
28888W        W94115  31.577   5.230  12.695
28889W        W94116  44.482  20.797  13.859
28890W        W94117  29.631  22.620  13.932
28891W        W94118  22.066   1.839   9.840
28892W        W94119  16.988  41.439   0.710
28893W        W94120  13.788  36.006   3.335
28894W        W94121  17.031  31.121   3.345
28895W        W94122  20.273   4.158   0.589
28896W        W94123  28.019  42.432   2.440
28897W        W94124  12.187   1.108  14.329
28898W        W94125   4.933  35.701   4.184
28899W        W94126   1.135  20.612  13.092
28900W        W94127  31.137   5.168   2.331
28901W        W94128   6.107  25.403   4.133
28902W        W94129   9.926   8.203   0.678
28903W        W94130  26.603  41.882  12.906
28904W        W94131  40.011  36.323   3.190
28905W        W94132  39.113  14.290   3.689
28906W        W94133  30.518  21.015  10.723
28907W        W94134  44.964   7.429   1.765
28908W        W94135  36.025  35.699   0.971
28909W        W94136  33.436  23.286   3.217
28910W        W94137  13.765  13.239   2.308
28911W        W94138   9.902  21.617  10.627
28912W        W94139  11.207  28.555   3.172
28913W        W94140  19.140  24.104  12.861
28914W        W94141  27.082  12.127  12.108
28915W        W94142  29.918  44.844  11.684
28916W        W94143  16.093   6.218   1.486
28917W        W94144  37.610  11.627  14.983
28918W        W94145  25.538  26.730  11.590
28919W        W94146  10.862  17.105  10.458
28920W        W94147  34.363  28.885  11.167
28921W        W94148  41.307   9.709   1.782
28922W        W94149  26.200   3.613  10.931
28923W        W94150  24.640  22.954  11.492
28924W        W94151  16.703   3.431  13.127
28925W        W94152   4.500  38.142   4.282
28926W        W94153  38.009  15.285   0.871
28927W        W94154  22.928  35.423  14.334
28928W        W94155   5.422   0.327  14.205
28929W        W94156  14.594   9.871   1.890
28930W        W94157  12.863  26.096  10.571
28931W        W94158  17.249  28.903   1.952
28932W        W94159  29.407  18.764  11.593
28933W        W94160  43.324  40.670  12.091
28934W        W94161  22.786  35.994   2.829
28935W        W94162  40.963  35.632  14.404
28936W        W94163  20.955  17.519   4.672
28937W        W94164   5.059  41.831  11.966
28938W        W94165  15.937  30.206  13.448
28939W        W94166  20.447  29.012   3.172
28940W        W94167   9.702   8.767   4.267
28941W        W94168  22.618  19.736   1.791
28942W        W94169   8.583  43.150   1.566
28943W        W94170  21.423   6.730  13.277
28944W        W94171  20.118   5.221   3.416
28945W        W94172   9.364  16.073  13.022
28946W        W94173   7.983  30.413   0.970
28947W        W94174  27.655   4.064   0.060
28948W        W94175   4.764   6.499   0.337
28949W        W94176   7.776   0.207   2.289
28950W        W94177  35.952   8.118   0.916
28951W        W94178   3.548  41.800   2.408
28952W        W94179  30.154  26.930  14.522
28953W        W94180  29.927  29.356  12.213
28954W        W94181  13.413  25.601   4.280
28955W        W94182  25.628   9.864  14.477
28956W        W94183  44.572  12.187  13.403
28957W        W94184  16.280  39.655   1.859
28958W        W94185  35.426  24.917   3.190
28959W        W94186   5.372  19.102  13.448
28960W        W94187   6.040  11.345  12.132
28961W        W94188  41.517  29.326  10.871
28962W        W94189  22.979   1.390  13.548
28963W        W94190  37.763  37.527  14.341
28964W        W94191   5.308   6.271  11.673
28965W        W94192  14.245  25.493   4.142
28966W        W94193  18.851  38.234  10.740
28967W        W94194  16.528  42.256   2.889
28968W        W94195  38.929   9.408   3.245
28969W        W94196  39.626  10.899   3.901
28970W        W94197  43.802  36.388   3.727
28971W        W94198  43.406  31.173   1.410
28972W        W94199   6.171   6.113   0.091
28973W        W94200   7.900  43.041   0.780
28974W        W94201  19.548  34.070  12.240
28975W        W94202  38.254  25.578  14.850
28976W        W94203  14.647  39.454  14.517
28977W        W94204  18.785  33.053   4.908
28978W        W94205  34.925  38.342  12.821
28979W        W94206  18.927   1.613   2.975
28980W        W94207   5.857  17.965   1.851
28981W        W94208  39.393  40.056  12.171
28982W        W94209  22.669  19.761   0.858
28983W        W94210  28.130   8.786   0.963
28984W        W94211  30.165  21.601  14.417
28985W        W94212  23.682  35.002   0.352
28986W        W94213  24.948  15.840   2.657
28987W        W94214  28.695  21.198  14.702
28988W        W94215  31.983  38.485  13.311
28989W        W94216  34.855   6.441   3.762
28990W        W94217  28.834  23.603  10.538
28991W        W94218  41.193  18.538   2.999
28992W        W94219   6.855   3.810   3.626
28993W        W94220   4.239   2.303  12.038
28994W        W94221  39.611  30.213  13.966
28995W        W94222  35.675  38.501  13.518
28996W        W94223  25.492  38.932   3.189
28997W        W94224   7.204  37.460   1.285
28998W        W94225  22.014  11.846   4.386
28999W        W94226  17.379  10.292   5.153
29000W        W94227  39.574   8.384  10.283
29001W        W94228  12.874  27.641   4.140
29002W        W94229  26.735   4.705   4.151
29003W        W94230   5.956  16.934   4.013
29004W        W94231  22.820   7.548   4.128
29005W        W94232   4.470   9.158   3.860
29006W        W94233   7.309  20.963   1.296
29007W        W94234   6.332  40.101  10.346
29008W        W94235  15.404  41.263   1.801
29009W        W94236  44.516  35.248   2.179
29010W        W94237   3.832  20.676   1.247
29011W        W94238  14.881   7.169   2.383
29012W        W94239  28.036  31.909   4.536
29013W        W94240   0.639  30.528  13.250
29014W        W94241  26.157   2.516   4.211
29015W        W94242   6.542  37.697   1.872
29016W        W94243  24.264   9.590   1.139
29017W        W94244  26.103  10.834  13.727
29018W        W94245  18.137  26.601   4.203
29019W        W94246  16.076   7.387  12.411
29020W        W94247  26.082  23.985   3.293
29021W        W94248  40.228  15.781   3.509
29022W        W94249  12.793  41.911   3.660
29023W        W94250  43.349  18.115   1.418
29024W        W94251  38.972   8.591   4.935
29025W        W94252  43.962   0.421  10.709
29026W        W94253   2.215  27.480   2.677
29027W        W94254   7.145  37.414  12.975
29028W        W94255  43.426  18.330  10.576
29029W        W94256   4.343   6.883   0.235
29030W        W94257  42.320   2.900   4.813
29031W        W94258   0.719  10.223  12.922
29032W        W94259  21.235  13.189   0.880
29033W        W94260   4.970  12.870  14.792
29034W        W94261  21.044   4.997   1.479
29035W        W94262  26.182  36.827   2.662
29036W        W94263  12.302  22.060   2.770
29037W        W94264  35.775   3.287   1.780
29038W        W94265  37.715  29.895   4.092
29039W        W94266   2.362  23.017   0.376
29040W        W94267  13.218  40.430   1.871
29041W        W94268  23.169  31.010   0.922
29042W        W94269  26.543  35.095  12.470
29043W        W94270   6.226  36.477  11.226
29044W        W94271  38.644  36.512  14.885
29045W        W94272  24.037  38.084  11.010
29046W        W94273  43.147   3.507  10.967
29047W        W94274   4.176  41.294  13.003
29048W        W94275  13.795   4.191   2.738
29049W        W94276  23.070  36.953   2.486
29050W        W94277  20.960   2.085  12.010
29051W        W94278  34.107  42.369   3.752
29052W        W94279  29.984  35.129   1.920
29053W        W94280  25.667  30.136   2.916
29054W        W94281  18.696  37.067  14.578
29055W        W94282  39.477   1.019  14.024
29056W        W94283  28.978   4.501   1.429
29057W        W94284  13.979   8.367   4.660
29058W        W94285  41.905  41.039  14.036
29059W        W94286  16.573  39.814  13.602
29060W        W94287  38.478  23.587  14.836
29061W        W94288  41.301  38.368   4.079
29062W        W94289  40.977  21.016   0.615
29063W        W94290  11.274  43.464  14.884
29064W        W94291  18.101  15.729  13.944
29065W        W94292  37.914  34.984  12.612
29066W        W94293  23.237  41.012  11.436
29067W        W94294  38.961  19.995   0.029
29068W        W94295  40.447  39.321   4.160
29069W        W94296  19.504  27.857  14.905
29070W        W94297  32.031   8.431   2.285
29071W        W94298  11.270  23.545   4.694
29072W        W94299  42.526  20.726   4.561
29073W        W94300  33.357   1.473  12.678
29074W        W94301  36.655  33.520   1.381
29075W        W94302   1.404  31.634   2.610
29076W        W94303   3.946  34.485   0.495
29077W        W94304   2.007  37.937   1.809
29078W        W94305  36.188  11.733  14.483
29079W        W94306  30.625  19.620   1.689
29080W        W94307  37.642  33.079   2.696
29081W        W94308  21.655  30.703   0.963
29082W        W94309  40.317   7.361  13.727
29083W        W94310  22.323  11.420   2.921
29084W        W94311   1.512  18.349  12.901
29085W        W94312  32.411   6.009   0.245
29086W        W94313   9.570  20.205   2.064
29087W        W94314   3.141  30.732  12.187
29088W        W94315  19.206  38.801   3.745
29089W        W94316  18.120  44.026   0.736
29090W        W94317  17.129   0.422   4.427
29091W        W94318  30.968  42.795  13.898
29092W        W94319  22.622   0.875  12.162
29093W        W94320  33.524  20.287   0.740
29094W        W94321  43.443  42.900   2.101
29095W        W94322  29.976  19.737  13.635
29096W        W94323  32.675  24.759  13.346
29097W        W94324  17.477  26.047   3.139
29098W        W94325  13.769  21.671  13.485
29099W        W94326   9.189  14.187  12.592
29100W        W94327   2.792  24.642  11.468
29101W        W94328  25.095  13.599  13.851
29102W        W94329  35.577  22.160  11.906
29103W        W94330   5.143  41.912   0.894
29104W        W94331  42.181  16.258   2.431
29105W        W94332  34.928  16.808   2.626
29106W        W94333   8.732   2.261   2.921
29107W        W94334  40.170  39.235   1.319
29108W        W94335  28.805   0.187   4.750
29109W        W94336  40.848  30.133  12.290
29110W        W94337  15.306  29.892   4.153
29111W        W94338   0.684  11.875  14.014
29112W        W94339  34.494   0.425   3.800
29113W        W94340  32.038  30.896  13.082
29114W        W94341   7.764  31.983  14.678
29115W        W94342  34.793  34.642   2.329
29116W        W94343  37.636  26.519  12.561
29117W        W94344   8.656  44.243   0.873
29118W        W94345  28.549   3.700   4.509
29119W        W94346  25.556  35.387   3.658
29120W        W94347  38.585  17.526  11.990
29121W        W94348  40.673  31.488  14.769
29122W        W94349  26.098  39.849   3.637
29123W        W94350  30.094  26.109   3.992
29124W        W94351  29.495  17.079   5.081
29125W        W94352  33.147  20.354   3.907
29126W        W94353   3.143  26.211  14.013
29127W        W94354  24.997  39.587   0.714
29128W        W94355  43.604  14.647  11.061
29129W        W94356   9.201  22.183  10.626
29130W        W94357  26.836  15.547   3.047
29131W        W94358  23.207   3.422   1.744
29132W        W94359  12.886  30.288  11.172
29133W        W94360   1.972   1.865   2.898
29134W        W94361  42.893  37.235  13.445
29135W        W94362   6.267   3.725   3.516
29136W        W94363  12.308  37.500  13.628
29137W        W94364  13.691   7.033   1.413
29138W        W94365   4.437  11.285  14.016
29139W        W94366  37.346  34.340  14.755
29140W        W94367   1.941  19.435   3.143
29141W        W94368  26.693  17.278  14.934
29142W        W94369   6.191  28.999  14.806
29143W        W94370   6.450  14.200  12.980
29144W        W94371  20.374  14.329   4.139
29145W        W94372  33.082  23.622  12.877
29146W        W94373  31.629  19.772  14.042
29147W        W94374  37.505  37.764   0.372
29148W        W94375  43.280  14.622   0.245
29149W        W94376  16.135  35.224  12.008
29150W        W94377  31.165  33.148  14.854
29151W        W94378  39.050  39.934   2.564
29152W        W94379  19.157  43.897   2.230
29153W        W94380  30.603  13.040   0.088
29154W        W94381  28.077   9.673   0.775
29155W        W94382   1.955  21.679  14.528
29156W        W94383  32.818   0.681   2.585
29157W        W94384  23.768  42.813  13.824
29158W        W94385  36.817   4.310  12.990
29159W        W94386   2.738  17.343  14.871
29160W        W94387   4.677  15.559   1.711
29161W        W94388  38.156  36.048  13.768
29162W        W94389  22.754  14.653   1.214
29163W        W94390  31.778  14.763   4.913
29164W        W94391   2.700   8.297  10.961
29165W        W94392   8.713  15.631  11.109
29166W        W94393  32.969  35.268  12.475
29167W        W94394   0.482  28.116  13.993
29168W        W94395   7.553  15.219  14.433
29169W        W94396   7.297  43.181  13.712
29170W        W94397  30.552   2.580   0.810
29171W        W94398  18.682  30.861  13.389
29172W        W94399   5.296  16.976   0.041
29173W        W94400   3.794   2.230  11.526
29174W        W94401   6.674  19.933   0.405
29175W        W94402  10.329  36.459  11.881
29176W        W94403  11.484  24.655  10.709
29177W        W94404  28.878  22.269   3.596
29178W        W94405  11.371  24.309  11.589
29179W        W94406  23.610  22.697   1.478
29180W        W94407  15.037  21.668  12.023
29181W        W94408   7.904  12.901   1.948
29182W        W94409  17.176  29.464  13.298
29183W        W94410  34.649  38.062  10.791
29184W        W94411  44.507  32.881  11.218
29185W        W94412  44.741  17.386  11.068
29186W        W94413  23.401   7.600  12.248
29187W        W94414  16.383   5.967   2.724
29188W        W94415   0.525  29.187  13.007
29189W        W94416  25.957  22.210  14.449
29190W        W94417  24.804  31.842   1.315
29191W        W94418  43.230   9.470   0.857
29192W        W94419  12.178  15.127   1.896
29193W        W94420  11.701  22.686   2.772
29194W        W94421  10.355  21.488   2.896
29195W        W94422  26.034  14.126   3.725
29196W        W94423   7.553  39.371  11.600
29197W        W94424  25.101   8.241  14.368
29198W        W94425  43.647  37.937  13.585
29199W        W94426  15.763  44.538  11.392
29200W        W94427  19.060  22.728   3.856
29201W        W94428  36.454  43.996   0.489
29202W        W94429  29.913  34.178  11.621
29203W        W94430   8.229   2.283   2.317
29204W        W94431  13.655  17.365   4.165
29205W        W94432  22.028  26.516   1.286
29206W        W94433  16.841  32.625   2.401
29207W        W94434  34.871  16.559   4.509
29208W        W94435   9.825  36.787  13.919
29209W        W94436  43.408  35.103  12.966
29210W        W94437   7.119  37.069   3.207
29211W        W94438  27.101  22.292   0.640
29212W        W94439  19.673  39.458   4.326
29213W        W94440  15.130  24.258  11.472
29214W        W94441   1.958   5.536  11.553
29215W        W94442  40.880  29.396   2.275
29216W        W94443  14.078  43.890   2.850
29217W        W94444  22.317   3.484  14.801
29218W        W94445  20.536  26.727  10.366
29219W        W94446  12.608   0.359   1.796
29220W        W94447   6.824  20.790   1.401
29221W        W94448  14.798  35.351  11.384
29222W        W94449  21.619  20.226  12.056
29223W        W94450  16.725   7.907   0.006
29224W        W94451  17.490   4.198   3.601
29225W        W94452  34.301  30.424   2.421
29226W        W94453  28.804  15.306   3.691
29227W        W94454   0.246  25.168  11.232
29228W        W94455  11.835  12.759   4.175
29229W        W94456  12.893  16.968  12.131
29230W        W94457  39.132  11.836  13.964
29231W        W94458  15.183  28.540  10.382
29232W        W94459  13.710  33.454   9.891
29233W        W94460  23.468   5.661  14.299
29234W        W94461  17.127  23.549  10.627
29235W        W94462  19.523   1.244   3.313
29236W        W94463  38.962  15.829   2.388
29237W        W94464  41.717  10.777  14.299
29238W        W94465   8.465   1.913   1.145
29239W        W94466  33.653   4.394  14.376
29240W        W94467  24.696   3.992  11.949
29241W        W94468  10.248  14.326  11.630
29242W        W94469  14.319  27.974   2.885
29243W        W94470   1.462  29.461   2.342
29244W        W94471  21.546  15.420  10.238
29245W        W94472  12.464   7.722   4.127
29246W        W94473  40.707   1.321  12.705
29247W        W94474  34.411  15.630   3.179
29248W        W94475  26.978  41.873   4.763
29249W        W94476  42.947   7.917   9.593
29250W        W94477   1.316   0.698   0.517
29251W        W94478   7.762  11.496  14.884
29252W        W94479  31.260  40.900  11.819
29253W        W94480  36.867  16.708   3.086
29254W        W94481  17.251  29.555  14.365
29255W        W94482  32.133  24.406  12.523
29256W        W94483  40.411  37.813  10.843
29257W        W94484  38.612  21.163  14.518
29258W        W94485  17.733  10.871   2.184
29259W        W94486   6.444   6.146  11.212
29260W        W94487  40.468  30.109  13.600
29261W        W94488  28.662  28.685   0.262
29262W        W94489  17.760  43.052  12.099
29263W        W94490  13.483   2.820  14.448
29264W        W94491  24.816  16.545  10.774
29265W        W94492  28.425  14.673   1.194
29266W        W94493   6.889  28.908  12.073
29267W        W94494  44.425  27.186  10.114
29268W        W94495  36.144  14.105  13.062
29269W        W94496  22.764  23.933   3.679
29270W        W94497  36.232  18.649  13.425
29271W        W94498  43.947  44.148   2.708
29272W        W94499  44.873   8.327   3.565
29273W        W94500   5.307  43.584  10.053
29274W        W94501   2.744  19.524  12.086
29275W        W94502   7.999  43.158   2.259
29276W        W94503  12.228  38.385  10.752
29277W        W94504  40.019  42.338  11.198
29278W        W94505  39.487   0.962   3.684
29279W        W94506  35.847   1.119   2.367
29280W        W94507  41.838   6.778   3.145
29281W        W94508  44.478  13.788  11.604
29282W        W94509  25.654  15.046   3.777
29283W        W94510   4.879  18.702   1.425
29284W        W94511  32.155  14.576  14.723
29285W        W94512  41.785  18.370   1.634
29286W        W94513  32.638  39.588  13.367
29287W        W94514  15.638   9.194  13.508
29288W        W94515  35.904  39.255  14.024
29289W        W94516   2.449  14.294  14.263
29290W        W94517  24.218   6.204  10.793
29291W        W94518  14.202  12.653  11.711
29292W        W94519  12.237  11.608   3.103
29293W        W94520   9.085   2.748   3.161
29294W        W94521  44.979  23.575  10.774
29295W        W94522  24.217  38.335  13.434
29296W        W94523   5.819  27.610   2.801
29297W        W94524   6.249  12.890   1.568
29298W        W94525  13.040  30.872   3.447
29299W        W94526  21.083  37.361  13.401
29300W        W94527   3.761  30.419  11.556
29301W        W94528  27.728  31.185   0.006
29302W        W94529  13.208  13.488   0.068
29303W        W94530  31.187  13.716  12.522
29304W        W94531  27.487  33.873   4.285
29305W        W94532  28.455  12.685   4.105
29306W        W94533   8.775  22.217   2.201
29307W        W94534  37.957  15.686   4.106
29308W        W94535  28.557  38.525  11.514
29309W        W94536  34.145  31.925  11.218
29310W        W94537   1.418  34.443   4.367
29311W        W94538  18.559  25.732  10.683
29312W        W94539  17.811  35.110   0.109
29313W        W94540  24.443  35.178  12.817
29314W        W94541  27.856  39.205   4.949
29315W        W94542  19.402  22.373  14.083
29316W        W94543  38.038   2.523  11.990
29317W        W94544  33.553  27.454  12.509
29318W        W94545  23.414  19.149  14.324
29319W        W94546   9.779  29.881  11.599
29320W        W94547  35.054  17.318   2.831
29321W        W94548  40.663   1.611   2.643
29322W        W94549  31.894   0.725   1.318
29323W        W94550  30.955  27.910   2.655
29324W        W94551  16.314  31.266  14.585
29325W        W94552   9.735  34.349   3.695
29326W        W94553  16.159  17.480   2.887
29327W        W94554  30.954   6.120   1.912
29328W        W94555  42.574   9.782  10.176
29329W        W94556  42.402  21.818   3.287
29330W        W94557   2.741  36.841   2.115
29331W        W94558   3.206  39.045  11.201
29332W        W94559  12.168   2.388   1.706
29333W        W94560  39.462  13.322  11.465
29334W        W94561  24.669   7.796  12.091
29335W        W94562  27.556  17.243  13.047
29336W        W94563  40.553  11.654   0.783
29337W        W94564  32.154  30.543  11.173
29338W        W94565  41.075   2.848  14.894
29339W        W94566  14.797  25.432   3.271
29340W        W94567  29.055  21.981  12.665
29341W        W94568  41.671  16.248   2.331
29342W        W94569  17.318  18.239   4.207
29343W        W94570  10.637  44.808   0.439
29344W        W94571  40.355   9.130  12.518
29345W        W94572   9.850  40.840   4.069
29346W        W94573  18.315  33.951   0.949
29347W        W94574  36.473   4.832   4.693
29348W        W94575  41.539  30.608  11.416
29349W        W94576  15.171  27.703  11.487
29350W        W94577  31.044  16.351   2.761
29351W        W94578  39.383  24.924  10.625
29352W        W94579  42.557   7.293  12.565
29353W        W94580  16.343  23.986  10.795
29354W        W94581  28.510  42.916  14.562
29355W        W94582  34.342  14.881   1.520
29356W        W94583   6.280  21.554   2.756
29357W        W94584   0.393   2.895  11.099
29358W        W94585   5.871   4.015   0.392
29359W        W94586  12.084  25.171  14.457
29360W        W94587  12.177  34.460  12.031
29361W        W94588   9.697  29.354   4.577
29362W        W94589   8.240  11.969   2.162
29363W        W94590   6.595   9.870   2.595
29364W        W94591   2.466   6.114   9.901
29365W        W94592  23.284  23.678   2.664
29366W        W94593  36.929   7.924   2.111
29367W        W94594  25.966  29.001  12.119
29368W        W94595   5.964  19.573   3.867
29369W        W94596  12.226  20.060   2.504
29370W        W94597  24.816  26.496  14.572
29371W        W94598  15.679  35.911   3.155
29372W        W94599  38.127  32.199   1.699
29373W        W94600  10.648  18.721  12.665
29374W        W94601  30.073  18.633   0.873
29375W        W94602  27.188  40.883   3.084
29376W        W94603  35.629  23.591   0.550
29377W        W94604  25.708   0.306   4.067
29378W        W94605  20.643  44.315   4.239
29379W        W94606  11.332   9.881  12.041
29380W        W94607  28.055  24.866   3.207
29381W        W94608  10.762  23.102  12.635
29382W        W94609   0.431  22.075   1.478
29383W        W94610   0.641   4.889   3.232
29384W        W94611  33.187   3.991   0.396
29385W        W94612   7.239  42.213   4.621
29386W        W94613  24.914  20.283  12.651
29387W        W94614   4.743   4.383  12.536
29388W        W94615  18.319   6.879  11.095
29389W        W94616  43.139  11.110   1.852
29390W        W94617  27.585  27.276  13.276
29391W        W94618  41.768  26.829   1.843
29392W        W94619  34.052  30.091  13.599
29393W        W94620  37.854   8.222  13.606
29394W        W94621  15.693  36.061  10.306
29395W        W94622  17.679   9.352  13.904
29396W        W94623  18.332  42.910  14.880
29397W        W94624  37.652  38.363  13.394
29398W        W94625   0.243  18.255   2.338
29399W        W94626  24.169  43.182  13.019
29400W        W94627  24.703  29.229  14.484
29401W        W94628  28.632  43.936   0.475
29402W        W94629   6.404  27.068   0.528
29403W        W94630   2.709  16.723   2.634
29404W        W94631  44.701   3.801   1.443
29405W        W94632   0.528   1.212   0.105
29406W        W94633  31.049   4.644   2.423
29407W        W94634   6.793  21.025   2.164
29408W        W94635   4.824  15.744  10.029
29409W        W94636  32.668  34.809  11.888
29410W        W94637   8.891  25.786  14.097
29411W        W94638  28.860   7.581   4.151
29412W        W94639  20.516  17.489   1.492
29413W        W94640   4.535  37.513  10.053
29414W        W94641   0.334  36.574   2.382
29415W        W94642  43.908  36.170   0.827
29416W        W94643   9.340  43.917  14.966
29417W        W94644  42.911  29.558  14.315
29418W        W94645  38.953  40.588  10.661
29419W        W94646  28.994  17.907   2.857
29420W        W94647  31.982   0.310  13.785
29421W        W94648  11.051  14.423   4.108
29422W        W94649  37.025  10.148   3.659
29423W        W94650  35.786  18.070  13.974
29424W        W94651  28.775  35.403  12.819
29425W        W94652  16.156  24.655  13.285
29426W        W94653  15.601  28.679   0.292
29427W        W94654   4.045  21.042  11.756
29428W        W94655  33.175  26.688  12.533
29429W        W94656  40.317  25.756  11.433
29430W        W94657  32.354  13.886  13.362
29431W        W94658   4.372  13.807  12.604
29432W        W94659  41.484   3.964   0.382
29433W        W94660  24.452  25.764   4.097
29434W        W94661  28.723  37.493  11.680
29435W        W94662  41.015  29.589   3.797
29436W        W94663   5.697  28.755   2.383
29437W        W94664   0.320  41.462  13.876
29438W        W94665  23.514  30.567  13.386
29439W        W94666  39.394   5.152  14.337
29440W        W94667  11.481  15.546  10.678
29441W        W94668   2.922  39.552  12.415
29442W        W94669  42.514  10.867   2.761
29443W        W94670  28.907  20.285  10.770
29444W        W94671  40.095  14.848   3.383
29445W        W94672  15.299  28.741   4.525
29446W        W94673  28.449   1.011   4.349
29447W        W94674  30.642  10.757  14.452
29448W        W94675  20.085  13.615  11.041
29449W        W94676  19.713  43.088   2.613
29450W        W94677   6.979  44.825  13.551
29451W        W94678   9.931   3.527  13.311
29452W        W94679  32.000  29.663   0.281
29453W        W94680  29.206  43.529  12.850
29454W        W94681  19.709  23.675  12.517
29455W        W94682  32.804  14.663   3.765
29456W        W94683  39.100   2.967  11.000
29457W        W94684  31.092   7.490  12.946
29458W        W94685  17.200  31.535   3.899
29459W        W94686  31.891  25.912   2.869
29460W        W94687  24.829  44.843   3.753
29461W        W94688  12.063  23.430   1.259
29462W        W94689  29.137  11.358   4.379
29463W        W94690  16.140   3.731   0.250
29464W        W94691  27.912  40.561  11.997
29465W        W94692  40.003  19.123  14.679
29466W        W94693  39.975  18.784   4.576
29467W        W94694   1.748  28.632  13.052
29468W        W94695  43.569   5.288   4.538
29469W        W94696  10.503  38.147   3.135
29470W        W94697  27.447  41.886   2.708
29471W        W94698  35.114  30.095  13.894
29472W        W94699  16.637  24.039  12.886
29473W        W94700   8.157  36.332   2.217
29474W        W94701  20.485  27.109  14.077
29475W        W94702  43.495  29.092  13.308
29476W        W94703  44.068   8.544  13.092
29477W        W94704  12.806  24.226  10.709
29478W        W94705  18.723   3.685   1.419
29479W        W94706  13.082  30.034   4.502
29480W        W94707   4.488  44.208  12.470
29481W        W94708  14.010  32.922   3.458
29482W        W94709   1.331  31.825   9.643
29483W        W94710   6.681  10.680   0.353
29484W        W94711  35.400  23.826   1.487
29485W        W94712  27.070  43.454  13.042
29486W        W94713  28.847  15.828   3.683
29487W        W94714   0.227  25.973  11.284
29488W        W94715  36.469  21.763   0.249
29489W        W94716   4.190   0.951   0.271
29490W        W94717  16.289  44.449   0.423
29491W        W94718  41.440  17.589  10.667
29492W        W94719   8.153  10.127  12.845
29493W        W94720  24.463  20.477   4.899
29494W        W94721  33.656  19.749  11.166
29495W        W94722  22.133  31.523   1.688
29496W        W94723  30.629   5.185   1.451
29497W        W94724  38.497  21.331  13.727
29498W        W94725  16.133  27.125  12.440
29499W        W94726  25.570  21.072  13.356
29500W        W94727   5.925  16.968   0.905
29501W        W94728  32.698  39.751  12.532
29502W        W94729  34.062  21.279   1.736
29503W        W94730   2.399  44.226  14.049
29504W        W94731  22.681   9.078  10.761
29505W        W94732  31.157   7.895   2.419
29506W        W94733  37.886  22.213  14.517
29507W        W94734  23.732  26.437   1.228
29508W        W94735  10.834  19.477   0.025
29509W        W94736  36.478  23.122   3.417
29510W        W94737  37.822  42.017   2.846
29511W        W94738  44.970  11.048  14.925
29512W        W94739  17.925  40.566  11.187
29513W        W94740  18.248  15.698  10.691
29514W        W94741  43.765  33.176  12.620
29515W        W94742  23.253  21.219  10.784
29516W        W94743  33.100   6.994  10.792
29517W        W94744   3.451  33.401  10.313
29518W        W94745   6.531  42.304   0.025
29519W        W94746  10.339  38.811   3.688
29520W        W94747   0.240  10.739   2.257
29521W        W94748   6.358  23.029  12.049
29522W        W94749  15.159  35.390   4.046
29523W        W94750   1.718  25.031   1.174
29524W        W94751  33.246  36.133   1.144
29525W        W94752  43.029  16.812  13.888
29526W        W94753  22.382   8.683   4.193
29527W        W94754   3.709  21.848  11.140
29528W        W94755  37.033  16.483  11.838
29529W        W94756   2.478  19.992  13.810
29530W        W94757  13.813  15.699   3.121
29531W        W94758  37.403  32.660  13.839
29532W        W94759  32.882  44.862  13.599
29533W        W94760  44.909  11.855  14.374
29534W        W94761  25.102  17.905   3.510
29535W        W94762  28.448  30.899   1.710
29536W        W94763  33.053  36.811   2.109
29537W        W94764  17.772  15.640   2.020
29538W        W94765  37.606  19.788  11.015
29539W        W94766  27.679  15.672  11.437
29540W        W94767  40.473  23.035  11.569
29541W        W94768  27.274  31.107  11.040
29542W        W94769  37.805  39.148   4.739
29543W        W94770  36.181  10.955  14.905
29544W        W94771  26.522   3.421   3.779
29545W        W94772  29.665  23.951  13.011
29546W        W94773  41.889   9.183  11.700
29547W        W94774   2.241  22.122   2.824
29548W        W94775  36.000  29.652  11.027
29549W        W94776  38.455  25.619  12.964
29550W        W94777  31.548  42.329  11.208
29551W        W94778  12.634   1.768  13.636
29552W        W94779  35.034  42.997  13.999
29553W        W94780  16.245   1.900   0.295
29554W        W94781  35.912   8.070  13.391
29555W        W94782  29.433  42.488   2.281
29556W        W94783  36.423  34.670   3.309
29557W        W94784  21.315  35.313   1.170
29558W        W94785  33.563  21.242   3.025
29559W        W94786  36.998  23.671  11.657
29560W        W94787  41.784   9.816  14.900
29561W        W94788  35.487  34.352  12.542
29562W        W94789  14.645  28.507  14.005
29563W        W94790  43.959  24.278  13.091
29564W        W94791  36.561  17.075   2.795
29565W        W94792   9.409   0.206  11.135
29566W        W94793  24.473  12.968  13.488
29567W        W94794  30.250  12.725  13.396
29568W        W94795  38.835  27.522   1.631
29569W        W94796  21.766  17.361  13.557
29570W        W94797   8.955  13.689  12.427
29571W        W94798  33.816  16.703  12.276
29572W        W94799  37.014  20.598   0.419
29573W        W94800  40.888  35.550  13.200
29574W        W94801   4.882  26.995  12.438
29575W        W94802   8.561  38.418   3.538
29576W        W94803   2.912  13.233   4.186
29577W        W94804  32.608  27.745  14.809
29578W        W94805  38.891  32.625  10.465
29579W        W94806  16.471   5.162   0.325
29580W        W94807  19.368   0.917   1.761
29581W        W94808  19.656  27.042   4.507
29582W        W94809  35.104  36.793   1.993
29583W        W94810  11.290   4.001  13.829
29584W        W94811  15.991   2.490   2.459
29585W        W94812  37.475  14.555   4.156
29586W        W94813  25.077  22.729  11.126
29587W        W94814  10.729  24.346   2.977
29588W        W94815   4.320  19.242  10.619
29589W        W94816  28.518  26.738   2.135
29590W        W94817   5.775  15.589  12.585
29591W        W94818  20.828  22.480  11.163
29592W        W94819   7.152  11.140   1.777
29593W        W94820  25.071   3.444  10.773
29594W        W94821  26.049  21.013   3.178
29595W        W94822  36.456   8.478   0.937
29596W        W94823   6.282  33.144   1.961
29597W        W94824  13.200   4.968  14.985
29598W        W94825  15.066  42.756   0.840
29599W        W94826  17.655  23.069  13.861
29600W        W94827  31.150  25.889  10.973
29601W        W94828   7.793  18.587   2.387
29602W        W94829   0.202  22.296  11.044
29603W        W94830  34.059  22.414   0.694
29604W        W94831   2.528  27.435  12.429
29605W        W94832  36.306  23.159  14.034
29606W        W94833   1.506  42.115   2.382
29607W        W94834  19.130  42.883   4.581
29608W        W94835  26.004   1.532   2.851
29609W        W94836   1.235  11.136   3.161
29610W        W94837  40.451  36.651  11.952
29611W        W94838   9.343  15.781  11.759
29612W        W94839   4.854  44.228   0.840
29613W        W94840   2.865  32.054  11.528
29614W        W94841  18.565  39.293   3.635
29615W        W94842  20.046  31.053   0.935
29616W        W94843  35.377  42.920   3.700
29617W        W94844  28.110   2.168   3.773
29618W        W94845  14.217  41.899  13.807
29619W        W94846  13.201  10.711  13.556
29620W        W94847  38.896  30.500  14.358
29621W        W94848   1.375  19.720  13.306
29622W        W94849   6.557  24.050   1.868
29623W        W94850  22.349  33.326  10.794
29624W        W94851   1.936  14.139   4.505
29625W        W94852  16.358   4.211  14.360
29626W        W94853  43.438  23.314   4.120
29627W        W94854   4.982  32.031   0.788
29628W        W94855  10.901   6.160  11.489
29629W        W94856   5.602  43.452   9.657
29630W        W94857  38.214   8.686  13.155
29631W        W94858  31.327  37.310   0.341
29632W        W94859  41.065  25.623   1.946
29633W        W94860  19.978  26.063  14.501
29634W        W94861  14.084  29.880   2.991
29635W        W94862  39.240  32.127  13.839
29636W        W94863  44.138  44.337  11.656
29637W        W94864   6.172  10.843   1.053
29638W        W94865  35.940  17.119   2.223
29639W        W94866  40.545  27.504   0.033
29640W        W94867  44.550  14.360  12.466
29641W        W94868  12.193  20.022  10.788
29642W        W94869  14.588  11.835  14.343
29643W        W94870  13.120  26.104   4.334
29644W        W94871  21.146  24.236   4.615
29645W        W94872  15.596  29.809   1.707
29646W        W94873  30.715  42.584  11.573
29647W        W94874  27.801  26.507  13.001
29648W        W94875  42.304  20.494   5.516
29649W        W94876  34.694  15.725  10.351
29650W        W94877  24.428  14.819  10.711
29651W        W94878  21.025  25.148  14.716
29652W        W94879  19.168  34.062   0.810
29653W        W94880   3.577  13.692   3.667
29654W        W94881  17.728   3.344   2.329
29655W        W94882  30.533   8.436  14.341
29656W        W94883  17.567  15.173   4.203
29657W        W94884  29.351   5.442  13.491
29658W        W94885  40.786  18.125   0.214
29659W        W94886  13.500   7.874   4.186
29660W        W94887  44.334   9.623   0.116
29661W        W94888  12.627  22.576   4.556
29662W        W94889  23.955  43.202   4.801
29663W        W94890   4.773  25.707   4.668
29664W        W94891   2.543   3.785   4.121
29665W        W94892  32.045  30.212   0.274
29666W        W94893  40.822  15.412  10.763
29667W        W94894  20.473   6.289  12.372
29668W        W94895   8.179  44.912  14.330
29669W        W94896   3.774  14.828  11.984
29670W        W94897  11.246  36.038  12.629
29671W        W94898  44.044  12.026  14.781
29672W        W94899  25.040  37.296  11.233
29673W        W94900  33.515  21.365  12.201
29674W        W94901  21.584  16.091  14.337
29675W        W94902  14.529  34.193   3.498
29676W        W94903  36.707  22.769   0.343
29677W        W94904  34.975  17.052  11.470
29678W        W94905  21.886   1.028   1.657
29679W        W94906  42.825  37.963   0.314
29680W        W94907  32.498  37.511   3.105
29681W        W94908  40.000  19.137  12.798
29682W        W94909   1.891  20.535   1.760
29683W        W94910  18.884   7.778  10.711
29684W        W94911  31.503  36.510  13.854
29685W        W94912  22.049  10.604   3.229
29686W        W94913   9.244  21.998  13.347
29687W        W94914   8.832  30.306  12.223
29688W        W94915  36.224  31.037   2.428
29689W        W94916   6.761  13.505   0.157
29690W        W94917  33.456  26.667  12.074
29691W        W94918  11.353  34.977  14.057
29692W        W94919  23.537  10.258   3.668
29693W        W94920  30.025  39.295  13.873
29694W        W94921  17.238  13.748   4.567
29695W        W94922   4.307   4.252   1.974
29696W        W94923   6.121  30.156  11.136
29697W        W94924  42.745   3.513  11.920
29698W        W94925  21.234  18.286  13.915
29699W        W94926   5.644  31.224  11.036
29700W        W94927  13.187  40.758   0.379
29701W        W94928  39.971   6.306   0.617
29702W        W94929  35.004  40.681   5.251
29703W        W94930   5.398  30.875  11.747
29704W        W94931  14.258  21.458   1.867
29705W        W94932  10.677  26.576   2.411
29706W        W94933  15.482  32.919   4.765
29707W        W94934  31.043  22.282  14.169
29708W        W94935   3.855  37.367  11.683
29709W        W94936  20.486  18.752  11.573
29710W        W94937  24.707  26.934   0.126
29711W        W94938   4.199  42.032   0.717
29712W        W94939  44.372  34.432   2.787
29713W        W94940  15.128  31.835  14.348
29714W        W94941  35.649  38.952   3.678
29715W        W94942  37.302   3.764  11.841
29716W        W94943   4.378  43.756   2.639
29717W        W94944  26.158  23.738   4.562
29718W        W94945  29.612   5.024  12.033
29719W        W94946  35.158  40.318   2.684
29720W        W94947  34.187  26.189   5.400
29721W        W94948  23.834  30.006   0.372
29722W        W94949  42.946  41.350  12.833
29723W        W94950   7.246  40.691   4.216
29724W        W94951  17.345  36.417  13.778
29725W        W94952  43.973   9.022  14.798
29726W        W94953  38.510   2.774  13.939
29727W        W94954   3.451  13.480  11.580
29728W        W94955   8.767  18.149   3.671
29729W        W94956  12.781  15.137   5.006
29730W        W94957  28.631   1.450   3.626
29731W        W94958  36.977  35.947   0.345
29732W        W94959  27.715  31.484  14.383
29733W        W94960  24.843   4.424  12.807
29734W        W94961  27.891  15.426  11.033
29735W        W94962  43.693  38.871  13.942
29736W        W94963  33.610  37.649   1.848
29737W        W94964   2.284  21.254   1.616
29738W        W94965  34.047   6.679  14.728
29739W        W94966  28.240  17.242  12.476
29740W        W94967   9.761  44.782  10.922
29741W        W94968  26.350  34.236  14.521
29742W        W94969  44.968  22.237   5.046
29743W        W94970  21.066   9.486   2.126
29744W        W94971  28.960  33.937  13.036
29745W        W94972   2.352  14.776  12.376
29746W        W94973   4.647   0.774  14.043
29747W        W94974  23.318  37.495  10.602
29748W        W94975   2.389   8.798   4.311
29749W        W94976  18.078  41.104   1.782
29750W        W94977  44.539  29.458   2.395
29751W        W94978  43.869  31.015   3.202
29752W        W94979   4.227  17.674   0.154
29753W        W94980  12.327  36.007  11.403
29754W        W94981  29.686   7.280   1.005
29755W        W94982  22.987  31.622  14.829
29756W        W94983  31.217  42.117   1.641
29757W        W94984  14.317   3.950  12.112
29758W        W94985  12.194  14.390  12.996
29759W        W94986  39.545  10.217   3.372
29760W        W94987  27.961  14.959   3.426
29761W        W94988  10.306  21.552  13.424
29762W        W94989  35.507   3.537   4.879
29763W        W94990   9.952  38.255   1.094
29764W        W94991  37.444   9.516  11.972
29765W        W94992  40.685  37.449  13.166
29766W        W94993  18.650  36.417  13.330
29767W        W94994   7.798  16.365   4.813
29768W        W94995  25.917  18.916  10.603
29769W        W94996  38.471  32.060  12.564
29770W        W94997   8.928  39.413  11.183
29771W        W94998  18.715  17.091  11.295
29772W        W94999  22.983  43.706   1.190
29773W        W95000  34.809  25.612  14.982
29774W        W95001  12.361  41.352   3.584
29775W        W95002  42.610   7.891   4.238
29776W        W95003  24.889  26.696   3.304
29777W        W95004   9.099  32.513   2.016
29778W        W95005  21.941  25.251  12.556
29779W        W95006   7.827  15.218   2.297
29780W        W95007  19.485  10.249   3.610
29781W        W95008   3.990   6.545   1.841
29782W        W95009   8.776  38.710  11.797
29783W        W95010   0.998  25.868   4.585
29784W        W95011   5.222  16.806   1.370
29785W        W95012  44.460   2.643  13.484
29786W        W95013  35.598  24.070   0.775
29787W        W95014   3.882   8.856   2.747
29788W        W95015  21.551  36.487   2.723
29789W        W95016  19.263  28.486   4.884
29790W        W95017  44.409  18.686   0.705
29791W        W95018  39.581  35.917  13.172
29792W        W95019   5.124  13.846  12.853
29793W        W95020   1.809  26.407  11.102
29794W        W95021   3.837   5.965  11.583
29795W        W95022  20.081   2.199  13.266
29796W        W95023   7.334  39.048  13.469
29797W        W95024  14.939   0.321  14.875
29798W        W95025  23.584  42.857  14.758
29799W        W95026   7.915  40.748  14.870
29800W        W95027  36.528  15.419   3.238
29801W        W95028  23.151  24.055  10.788
29802W        W95029   4.477   9.609   1.361
29803W        W95030  28.638  42.510   0.777
29804W        W95031  41.834  33.008   1.041
29805W        W95032  22.189   8.326  11.478
29806W        W95033  39.953   7.247   0.485
29807W        W95034   1.764  10.626  13.178
29808W        W95035   3.845  28.557   4.784
29809W        W95036  33.886  23.135   3.415
29810W        W95037   9.818  27.459   2.828
29811W        W95038  41.379  40.667   0.321
29812W        W95039   7.765  20.589   2.623
29813W        W95040  34.817   8.744  12.139
29814W        W95041  26.443   6.633   2.574
29815W        W95042  21.792  12.352   2.202
29816W        W95043  24.933  27.613   4.248
29817W        W95044  12.633  31.124  10.760
29818W        W95045  20.979   4.389  12.328
29819W        W95046  10.365   9.422   1.237
29820W        W95047  29.033  20.878   4.134
29821W        W95048   4.685   3.445   5.161
29822W        W95049   6.501  36.828   1.507
29823W        W95050  24.787   1.709  12.126
29824W        W95051  30.807  16.753   1.394
29825W        W95052  12.157  29.128   1.319
29826W        W95053  22.882  28.167  14.845
29827W        W95054  39.342  11.603   0.418
29828W        W95055  11.216  23.192   1.389
29829W        W95056  44.803  24.185  11.961
29830W        W95057   7.382   4.736   3.592
29831W        W95058  38.821   6.265   2.769
29832W        W95059  15.682  27.390  12.613
29833W        W95060  27.054  23.682  14.299
29834W        W95061  25.448  28.512  12.442
29835W        W95062  23.302  43.229   0.327
29836W        W95063  38.853  38.855  11.353
29837W        W95064  11.422  38.351   0.817
29838W        W95065   7.281  10.231   4.214
29839W        W95066  31.502  17.213  12.508
29840W        W95067  39.774  32.059  13.860
29841W        W95068  24.282  11.224   1.769
29842W        W95069   0.512  35.345  11.517
29843W        W95070  35.655  38.295   2.877
29844W        W95071  17.441  13.785  11.032
29845W        W95072  27.390   3.600  11.600
29846W        W95073   7.584  29.465   2.175
29847W        W95074   3.375  38.097  12.559
29848W        W95075  27.975  30.707  12.863
29849W        W95076  40.394  12.418  11.356
29850W        W95077   2.233  32.257   2.784
29851W        W95078   1.207  24.501  11.795
29852W        W95079  40.793  41.743  10.967
29853W        W95080  27.052  27.930   0.305
29854W        W95081   3.865   6.602   3.072
29855W        W95082   1.839  22.684   2.552
29856W        W95083  44.270  30.980   1.016
29857W        W95084  26.204  16.657  11.014
29858W        W95085   3.472   1.927  10.627
29859W        W95086  12.150  42.528  12.963
29860W        W95087  38.017  27.159   2.258
29861W        W95088  11.147  40.785   4.829
29862W        W95089   0.132   8.235  11.510
29863W        W95090  22.004  23.218  13.601
29864W        W95091  17.785   3.945   4.658
29865W        W95092  35.548   2.445  10.785
29866W        W95093  31.468  30.572  13.603
29867W        W95094  24.080  32.261  13.458
29868W        W95095  22.070   7.416  14.052
29869W        W95096  23.473   7.039   1.779
29870W        W95097  14.314   3.940   1.757
29871W        W95098  30.816  41.207   4.066
29872W        W95099  29.694  27.031  14.777
29873W        W95100  24.168   6.937   1.454
29874W        W95101   0.036   4.926   4.152
29875W        W95102  32.656   4.833  10.948
29876W        W95103  41.990  17.839   0.827
29877W        W95104  25.451  19.191  14.776
29878W        W95105  10.359  16.157  11.225
29879W        W95106  39.334  17.942  10.711
29880W        W95107  43.468  16.922   1.626
29881W        W95108  19.731  12.423  11.912
29882W        W95109  13.564  15.074  12.830
29883W        W95110  42.519  18.097   1.538
29884W        W95111  40.541  14.169  12.399
29885W        W95112  32.040   4.326   0.030
29886W        W95113  25.450  34.864  14.063
29887W        W95114  36.342   6.806   0.041
29888W        W95115  15.642  27.450  11.632
29889W        W95116  12.276  21.162  12.459
29890W        W95117  22.836  15.125  14.819
29891W        W95118   6.419  29.196   1.398
29892W        W95119  40.539  28.634  12.800
29893W        W95120  16.650  27.598   2.986
29894W        W95121  38.070  16.669  14.849
29895W        W95122  10.367   1.603   0.239
29896W        W95123  26.567   8.673  14.469
29897W        W95124  17.780  29.946  11.656
29898W        W95125  24.626  24.721  13.077
29899W        W95126  20.086   2.946  13.879
29900W        W95127  16.852  35.867   3.726
29901W        W95128  35.991  40.268  13.975
29902W        W95129  28.642  12.594  13.389
29903W        W95130  19.069  44.980   0.111
29904W        W95131  42.231  17.244  13.994
29905W        W95132   0.660  30.142   2.670
29906W        W95133  34.593  39.038  10.684
29907W        W95134   1.935  22.274   3.762
29908W        W95135  26.236  43.733  10.219
29909W        W95136   5.279   8.349   4.543
29910W        W95137  21.500  10.286  13.936
29911W        W95138   2.504  17.299  13.523
29912W        W95139  36.946  40.452  14.017
29913W        W95140  20.322  34.878  13.745
29914W        W95141  28.303  34.816  10.310
29915W        W95142  31.105  17.861   2.986
29916W        W95143  18.322   5.980  11.142
29917W        W95144  18.435  15.203   2.443
29918W        W95145  42.856   4.871  10.439
29919W        W95146  43.115  28.830  13.051
29920W        W95147  17.508  23.126  14.880
29921W        W95148  30.108  23.238  14.430
29922W        W95149  43.895  14.268  12.263
29923W        W95150  15.610  31.415   2.763
29924W        W95151  33.650   4.913  14.575
29925W        W95152   4.195   2.839   1.448
29926W        W95153  20.296   7.995  10.485
29927W        W95154   3.711  43.240  12.287
29928W        W95155  23.165  41.461   1.806
29929W        W95156  39.988  36.808   3.365
29930W        W95157  33.298  22.778  11.887
29931W        W95158  28.501  41.509  14.492
29932W        W95159   6.953  10.679   3.661
29933W        W95160  29.452  33.997  11.858
29934W        W95161  44.285  21.670   2.689
29935W        W95162  10.124  42.218  13.634
29936W        W95163  44.929  16.096  12.370
29937W        W95164  24.748   5.938  12.718
29938W        W95165  13.312  18.299   4.137
29939W        W95166  42.775  41.024  10.657
29940W        W95167  26.443   1.045  13.296
29941W        W95168   1.151   6.401  14.384
29942W        W95169   3.940  21.090   3.257
29943W        W95170  23.486   4.065  11.131
29944W        W95171   1.666  25.213   0.330
29945W        W95172  10.495  41.441   5.052
29946W        W95173  38.134  32.950  13.506
29947W        W95174  16.175  28.234   1.876
29948W        W95175  38.660  13.889   1.897
29949W        W95176   2.434  31.950  13.295
29950W        W95177  16.283  43.124  12.228
29951W        W95178   4.659   1.482   3.868
29952W        W95179  23.974  25.945   4.225
29953W        W95180  43.245   1.200   0.296
29954W        W95181  20.246  23.887   1.113
29955W        W95182   4.147  17.086  10.531
29956W        W95183  29.130   6.293  13.035
29957W        W95184  35.218  28.890  10.781
29958W        W95185  23.606   2.776  14.902
29959W        W95186   8.676  16.115  12.661
29960W        W95187  21.156  41.364  14.236
29961W        W95188  38.057  40.529   4.209
29962W        W95189   9.846  37.694   3.315
29963W        W95190  44.026  31.741  13.839
29964W        W95191  10.311  23.708  12.320
29965W        W95192  23.006  29.083   1.302
29966W        W95193  32.098  38.316   3.165
29967W        W95194  19.573   8.620   2.202
29968W        W95195   2.492  36.075  13.029
29969W        W95196  27.240   0.576   9.852
29970W        W95197   5.734  29.621  12.091
29971W        W95198  37.930  24.282   1.862
29972W        W95199  28.077  35.778   4.668
29973W        W95200  15.390   8.981   3.139
29974W        W95201  30.154  35.492  14.493
29975W        W95202  12.531  34.576   2.894
29976W        W95203  27.661  36.779   4.031
29977W        W95204  28.903  39.986   0.636
29978W        W95205  18.327  14.826   0.385
29979W        W95206  44.840  32.402  14.029
29980W        W95207   4.214   0.819  13.019
29981W        W95208  27.794   4.283  13.062
29982W        W95209   5.790  20.090  13.434
29983W        W95210  13.336  33.743   0.525
29984W        W95211  35.471  31.034   0.323
29985W        W95212  14.363  26.696   1.627
29986W        W95213  31.558  14.051  12.159
29987W        W95214  20.690  33.583  10.987
29988W        W95215   0.987   6.712   1.431
29989W        W95216   6.959  22.920   2.675
29990W        W95217  25.322   4.075  14.021
29991W        W95218   3.198   3.699  14.275
29992W        W95219  43.338  33.097  12.004
29993W        W95220  30.138  32.382  11.165
29994W        W95221  33.511   6.375  11.547
29995W        W95222   5.761   2.539  14.026
29996W        W95223  29.710  19.430   3.689
29997W        W95224  35.318  10.026  12.282
29998W        W95225  12.765  15.090  14.436
29999W        W95226  43.364  11.968   1.767
30000W        W95227  39.921  21.874   3.625
30001W        W95228  23.447  11.678   1.718
30002W        W95229   9.914   7.071  12.045
30003W        W95230  32.701  25.808   3.559
30004W        W95231  27.948  36.924  10.229
30005W        W95232   2.092  17.464  10.287
30006W        W95233  36.543  37.415   1.402
30007W        W95234  27.424  28.749   5.000
30008W        W95235  25.428  43.094  10.770
30009W        W95236  16.753  37.387  11.908
30010W        W95237  28.993   3.697  10.652
30011W        W95238  34.416  12.368   1.262
30012W        W95239  42.381  38.560   4.084
30013W        W95240  17.538  37.912  11.067
30014W        W95241  25.220  36.608   3.232
30015W        W95242   4.707   5.868  12.531
30016W        W95243   9.629  19.734  11.279
30017W        W95244  16.863   7.334  12.692
30018W        W95245   0.950   1.413  14.893
30019W        W95246   6.390  28.489  12.393
30020W        W95247  34.537  41.771   4.231
30021W        W95248  41.999  17.220   4.121
30022W        W95249  24.041  26.227  10.837
30023W        W95250  12.288  32.642  12.891
30024W        W95251   1.952  15.272  13.893
30025W        W95252  25.655  42.996   3.114
30026W        W95253   7.854  25.269  12.097
30027W        W95254   1.779  35.530  10.554
30028W        W95255  16.778  18.115   0.005
30029W        W95256   9.436   1.625   1.266
30030W        W95257   4.921  40.283  10.198
30031W        W95258  41.085  42.752   4.085
30032W        W95259  28.500  12.711  13.868
30033W        W95260   8.603  42.518   1.517
30034W        W95261  11.414  44.387   4.270
30035W        W95262  38.053  11.200  14.351
30036W        W95263  12.409  20.478   0.714
30037W        W95264  21.035  13.287   4.095
30038W        W95265  30.316  19.764   1.288
30039W        W95266  12.092  12.711  11.821
30040W        W95267   2.663  40.799   0.328
30041W        W95268  42.162  27.389   3.281
30042W        W95269   9.164  41.478  10.782
30043W        W95270  28.477   5.942  14.374
30044W        W95271  39.409  20.104   4.533
30045W        W95272  20.859  11.414   0.768
30046W        W95273  40.585   3.353   5.065
30047W        W95274  20.088   8.730   2.312
30048W        W95275  27.919  12.056   3.661
30049W        W95276  35.115   3.458   3.097
30050W        W95277  21.499  25.475  12.434
30051W        W95278   9.242  40.758   1.325
30052W        W95279   8.862  24.689   4.666
30053W        W95280   8.628  32.188  11.988
30054W        W95281   7.625  14.494  13.379
30055W        W95282  40.885  16.241   2.682
30056W        W95283   8.261   6.247   4.507
30057W        W95284  16.117  28.402  12.947
30058W        W95285  11.884  21.678   1.438
30059W        W95286  15.820   2.733   4.859
30060W        W95287  11.694  19.833   4.245
30061W        W95288  24.902  27.979   3.816
30062W        W95289  29.103  11.288   3.870
30063W        W95290  20.039  38.088  12.990
30064W        W95291  15.078   2.743  13.921
30065W        W95292  38.672  16.128  11.997
30066W        W95293  41.486  32.212   4.528
30067W        W95294   1.191  34.005  11.238
30068W        W95295  20.254  20.692   0.510
30069W        W95296  40.918  40.351   3.522
30070W        W95297  30.875  15.355  14.659
30071W        W95298  16.177  30.537  12.097
30072W        W95299  40.145  11.454   3.162
30073W        W95300  27.684  38.900  14.362
30074W        W95301  39.517  20.186  11.814
30075W        W95302  21.146  15.748   3.595
30076W        W95303  23.063  26.451   2.688
30077W        W95304   2.876   7.398   2.415
30078W        W95305   2.459   5.000   3.327
30079W        W95306  39.892  18.234  14.040
30080W        W95307   2.767  31.701   2.213
30081W        W95308  41.935   5.245  10.735
30082W        W95309  43.319  10.388  10.503
30083W        W95310   8.873  19.925   1.770
30084W        W95311  24.759  35.154   4.152
30085W        W95312  22.381  32.064   2.377
30086W        W95313  28.593  25.135  11.993
30087W        W95314  31.772   5.851   2.836
30088W        W95315  36.585  23.815   2.109
30089W        W95316   8.571  34.741  12.401
30090W        W95317  33.348  33.168  11.582
30091W        W95318  13.699  41.962  12.061
30092W        W95319  40.988   2.190   4.169
30093W        W95320  24.539  28.971  12.804
30094W        W95321  27.699  18.844   1.386
30095W        W95322  31.516   3.690   3.103
30096W        W95323  11.839  27.368   4.121
30097W        W95324  21.747   7.481  12.190
30098W        W95325  21.660  13.043   2.706
30099W        W95326   4.585  31.839  11.113
30100W        W95327   6.359   8.058  10.648
30101W        W95328  10.816   1.986   3.705
30102W        W95329  17.276  25.748   1.680
30103W        W95330  27.520  24.155  11.506
30104W        W95331  25.448  18.765  14.467
30105W        W95332  29.067  26.646   0.920
30106W        W95333  33.333  17.277  13.910
30107W        W95334  22.017  22.929   3.347
30108W        W95335   5.460  39.851  12.614
30109W        W95336  41.366  19.330   5.203
30110W        W95337  43.699  31.375  12.958
30111W        W95338   5.969  29.160   2.184
30112W        W95339  40.277   5.654   0.932
30113W        W95340  20.430  31.014   2.301
30114W        W95341  11.735  30.728   9.692
30115W        W95342  21.833  10.316  12.817
30116W        W95343  17.256  32.635  14.724
30117W        W95344  33.780  40.509  12.974
30118W        W95345  12.714  22.714   1.641
30119W        W95346  13.711  25.974   4.599
30120W        W95347  33.646   5.890   4.776
30121W        W95348   8.450  42.953   2.576
30122W        W95349   6.991   8.932  12.976
30123W        W95350  30.577   0.983  11.162
30124W        W95351   1.839  36.060  10.517
30125W        W95352  10.103  20.718   3.597
30126W        W95353  31.701  20.605  13.488
30127W        W95354  33.697  31.988  14.783
30128W        W95355   6.945  43.308   9.723
30129W        W95356  13.152   0.509   0.939
30130W        W95357  44.271   4.658   1.240
30131W        W95358  37.633  43.315  13.078
30132W        W95359  24.433  40.531  14.072
30133W        W95360  14.671   7.297  13.877
30134W        W95361   7.514   8.478   0.752
30135W        W95362  43.251  33.355  12.659
30136W        W95363  35.993   1.837   0.297
30137W        W95364  10.114  33.064   1.339
30138W        W95365  13.114   7.783   2.778
30139W        W95366   7.061  27.157  11.616
30140W        W95367   2.413  21.028  10.166
30141W        W95368  12.272   9.924  12.139
30142W        W95369  24.593   9.106  12.867
30143W        W95370  37.873  19.248   3.656
30144W        W95371   2.326   3.871  11.396
30145W        W95372  39.334  27.654   1.545
30146W        W95373  30.129  39.146  11.946
30147W        W95374   3.216   8.320   4.213
30148W        W95375  27.420  27.161   2.358
30149W        W95376  16.287  37.942  11.472
30150W        W95377  31.647  24.496  10.386
30151W        W95378  22.180   9.173  14.497
30152W        W95379  11.887  16.601   2.228
30153W        W95380  43.915  40.063   2.429
30154W        W95381   8.521  37.467  13.631
30155W        W95382   3.658  40.664  11.878
30156W        W95383  44.933   2.375  12.617
30157W        W95384   9.585  35.245   3.811
30158W        W95385  34.500  11.924   4.883
30159W        W95386  42.542  20.287  13.895
30160W        W95387  13.105  36.395  11.613
30161W        W95388  39.094   0.395  11.150
30162W        W95389   1.245  27.660   2.715
30163W        W95390   0.558  25.742  11.581
30164W        W95391  23.580  21.991   3.624
30165W        W95392  24.183  31.878   4.103
30166W        W95393  41.796   0.785  10.626
30167W        W95394   6.102  41.019  13.291
30168W        W95395  31.476  10.555  11.255
30169W        W95396  40.096  34.928   3.749
30170W        W95397   2.060  36.840   0.383
30171W        W95398   7.130   5.962  13.509
30172W        W95399  30.613  22.225   0.870
30173W        W95400  38.513  27.902   4.690
30174W        W95401  42.681  16.504   0.844
30175W        W95402  25.483   0.529  14.860
30176W        W95403  17.036  38.850   0.436
30177W        W95404  32.350   8.363  12.488
30178W        W95405  40.695  34.523  12.923
30179W        W95406   4.260   2.194  13.964
30180W        W95407  31.614   0.287   1.268
30181W        W95408  29.486  31.135  11.063
30182W        W95409   2.336  42.588   0.080
30183W        W95410   3.339   6.364   3.693
30184W        W95411  22.539  20.301   2.684
30185W        W95412  23.567  13.761  13.004
30186W        W95413  38.767  40.793   4.581
30187W        W95414  10.718  34.504  14.303
30188W        W95415  31.614  18.270  10.724
30189W        W95416  42.567   4.877   4.250
30190W        W95417  43.293  21.043   1.709
30191W        W95418  41.841  13.152   0.022
30192W        W95419  12.242   7.950   3.723
30193W        W95420  25.161  26.456  14.146
30194W        W95421  28.077  38.539   3.884
30195W        W95422   8.387  32.947   4.471
30196W        W95423   9.233  29.642   3.319
30197W        W95424   1.894  24.280   0.535
30198W        W95425  40.104  30.112  10.896
30199W        W95426  37.916  35.096   4.725
30200W        W95427  44.523  17.217   2.555
30201W        W95428  32.866  31.868   1.686
30202W        W95429  36.754  36.557   4.205
30203W        W95430   0.845   3.397  12.695
30204W        W95431  26.728  24.459   2.910
30205W        W95432  15.327   7.833   3.515
30206W        W95433  24.497  35.854  13.989
30207W        W95434  32.411  10.339   2.669
30208W        W95435  13.600   9.779  12.663
30209W        W95436  22.081  16.256  11.979
30210W        W95437  17.242  26.995  14.033
30211W        W95438  40.028  12.719   4.249
30212W        W95439  29.151  12.863   1.274
30213W        W95440  30.587  28.203  12.659
30214W        W95441  10.779  33.002   0.740
30215W        W95442  15.917  17.196  10.513
30216W        W95443  14.774  10.045  12.041
30217W        W95444  41.469   8.556   2.600
30218W        W95445  35.270  43.217   4.606
30219W        W95446   4.358  30.660   2.459
30220W        W95447  30.097  23.188   1.171
30221W        W95448  15.347  40.853  12.894
30222W        W95449  39.576  29.690  11.970
30223W        W95450  31.361  38.957   5.063
30224W        W95451  27.194  34.401  10.777
30225W        W95452  33.452  11.659   3.469
30226W        W95453  39.903  17.269   2.791
30227W        W95454  41.796  42.292   2.291
30228W        W95455  21.252  15.179  13.563
30229W        W95456  39.928  41.769   0.362
30230W        W95457   2.841  14.729  12.574
30231W        W95458  20.651  29.969  13.773
30232W        W95459   7.648   2.434   4.524
30233W        W95460  41.705  44.297  12.613
30234W        W95461  16.550   2.286   3.265
30235W        W95462   1.065   4.578   0.879
30236W        W95463  20.276   6.771   2.205
30237W        W95464  18.206  17.358   1.294
30238W        W95465  23.169  37.025  13.343
30239W        W95466  26.100   5.323  12.075
30240W        W95467  26.542  21.570  10.852
30241W        W95468  30.230  29.486  14.088
30242W        W95469  34.099  29.529   2.284
30243W        W95470  14.009  28.553  14.586
30244W        W95471   1.606  26.116  12.620
30245W        W95472   7.948  22.158   4.826
30246W        W95473  36.280  28.037  14.677
30247W        W95474   2.243  27.197   3.134
30248W        W95475  24.981  26.731  10.749
30249W        W95476  35.918  28.179   2.008
30250W        W95477  43.923   5.009   1.424
30251W        W95478  12.855  33.378  13.730
30252W        W95479  21.615  22.685   4.889
30253W        W95480  39.035  38.735  11.819
30254W        W95481   7.953  29.342  13.441
30255W        W95482  42.858   3.331   1.187
30256W        W95483  33.335   0.392  14.082
30257W        W95484  34.953  14.605  14.847
30258W        W95485  10.501   5.325  14.299
30259W        W95486  44.848   9.129  12.961
30260W        W95487  31.571   1.701  12.500
30261W        W95488   1.315   2.294   0.218
30262W        W95489  40.746  44.708  14.784
30263W        W95490   8.057   9.295   2.671
30264W        W95491  14.627  39.158   1.290
30265W        W95492  12.881   6.664  14.909
30266W        W95493  30.927  27.292  10.808
30267W        W95494   6.827  24.199   3.122
30268W        W95495   3.366  18.628   0.353
30269W        W95496  31.989   5.234   5.058
30270W        W95497  26.446  17.943   1.931
30271W        W95498  33.321   3.822   2.527
30272W        W95499   4.225  25.669   0.407
30273W        W95500  35.912  27.522   1.272
30274W        W95501  44.772  43.772  14.802
30275W        W95502  44.966  13.297  12.259
30276W        W95503  31.349  24.242  10.732
30277W        W95504   8.821  20.214  11.236
30278W        W95505  23.764   2.557  11.535
30279W        W95506  12.564  31.303  10.263
30280W        W95507  24.041   1.782  10.201
30281W        W95508  23.949   7.140   0.948
30282W        W95509  18.323  35.602  14.360
30283W        W95510  25.493  34.683  10.856
30284W        W95511   7.604   2.181  13.491
30285W        W95512  22.242   2.258   2.176
30286W        W95513  10.291  34.501  10.947
30287W        W95514  27.239  16.574  13.800
30288W        W95515  12.480  12.364  11.111
30289W        W95516  38.552  16.185  14.603
30290W        W95517  12.564  38.022   2.758
30291W        W95518  36.602  22.256   0.308
30292W        W95519  42.630  21.568   0.442
30293W        W95520  39.586  14.537  14.742
30294W        W95521  25.436  26.999   4.536
30295W        W95522  22.188   8.637  13.577
30296W        W95523  13.912  14.498  14.421
30297W        W95524   2.755  22.979   4.228
30298W        W95525  33.603  32.072   1.326
30299W        W95526  19.256  42.795   2.863
30300W        W95527  11.770   6.195  11.456
30301W        W95528  41.985   9.411   1.661
30302W        W95529  10.369  41.489   0.854
30303W        W95530   7.261   0.452  11.960
30304W        W95531   9.941  26.206   0.498
30305W        W95532   2.532  17.061   3.680
30306W        W95533  39.542   7.654  12.064
30307W        W95534  14.307  11.703   0.344
30308W        W95535   2.689  13.801  13.121
30309W        W95536  32.833   4.945   3.560
30310W        W95537  34.171  19.757   0.890
30311W        W95538  10.331  21.070  11.973
30312W        W95539  28.702  39.589  12.059
30313W        W95540  10.169  43.547   2.729
30314W        W95541  40.727  20.818   4.054
30315W        W95542  39.436  32.604   1.753
30316W        W95543  15.094  20.730  14.864
30317W        W95544  20.321  13.710  12.028
30318W        W95545   9.717  11.908  11.448
30319W        W95546   5.945  43.602   5.320
30320W        W95547  11.109   3.903  14.856
30321W        W95548  14.203   9.273   2.398
30322W        W95549  20.870  13.189   1.249
30323W        W95550  31.900  40.301  13.234
30324W        W95551   4.154   9.928  14.380
30325W        W95552  11.266   6.951   0.096
30326W        W95553   3.184  29.474   0.651
30327W        W95554  27.186  16.044   9.707
30328W        W95555  38.760  33.562  13.555
30329W        W95556  23.089  21.350  12.695
30330W        W95557  16.276  17.442   0.010
30331W        W95558  41.699  34.669  10.405
30332W        W95559  33.783  38.477   2.822
30333W        W95560  35.683  39.463  12.630
30334W        W95561   3.645   7.215  14.816
30335W        W95562   5.440   7.307   4.684
30336W        W95563  42.503  25.659   3.450
30337W        W95564  17.610  13.277   0.951
30338W        W95565   1.477  30.530   3.679
30339W        W95566  32.657  19.613   0.864
30340W        W95567  33.805  11.781   0.336
30341W        W95568  11.181  23.313   3.725
30342W        W95569  28.245  14.580   0.019
30343W        W95570  24.272   7.362  11.077
30344W        W95571  39.551   2.915   4.209
30345W        W95572   4.874  37.903   1.956
30346W        W95573  15.553   5.219  13.292
30347W        W95574  27.869  44.156  11.948
30348W        W95575  39.026  36.448  12.087
30349W        W95576  31.213  35.611  12.508
30350W        W95577  38.306  22.809   4.807
30351W        W95578  23.411  39.481   3.748
30352W        W95579   0.552   8.755  12.888
30353W        W95580   4.816  43.778   3.079
30354W        W95581  26.236  15.843  14.028
30355W        W95582  28.246  16.135   2.403
30356W        W95583  37.110  17.224  11.139
30357W        W95584  21.834  23.704  11.305
30358W        W95585  25.373  34.346  14.060
30359W        W95586  21.106  40.008  10.244
30360W        W95587   5.653   0.076   3.753
30361W        W95588  33.832  40.462  11.061
30362W        W95589  29.540   3.033  14.952
30363W        W95590  38.827   2.932   3.368
30364W        W95591  42.001  15.257  13.083
30365W        W95592  40.957   6.469  12.605
30366W        W95593  31.545  28.439   3.701
30367W        W95594  18.356   0.438  10.821
30368W        W95595  29.900  10.308   2.453
30369W        W95596  19.747  35.386  14.745
30370W        W95597  21.094  33.853  10.752
30371W        W95598  15.810  37.269   2.671
30372W        W95599  21.604   2.375   1.416
30373W        W95600  12.761  34.226   2.583
30374W        W95601  19.567  43.372  13.794
30375W        W95602  16.659   4.501  11.559
30376W        W95603   7.510   4.462  12.468
30377W        W95604  23.583  31.597   4.019
30378W        W95605  43.263   0.788   3.433
30379W        W95606  24.369  31.324  11.984
30380W        W95607  37.566  43.565   3.189
30381W        W95608  18.666  44.339  14.475
30382W        W95609   9.261  32.773   9.797
30383W        W95610  43.044  32.375  13.758
30384W        W95611  14.886  32.212  12.474
30385W        W95612   8.907  29.221   1.361
30386W        W95613  11.110   2.222   2.729
30387W        W95614  31.706  20.032  12.953
30388W        W95615  18.371  39.460  10.648
30389W        W95616  43.241  31.470   0.976
30390W        W95617   9.999   3.920  14.045
30391W        W95618  28.537  11.113   0.935
30392W        W95619   8.827  12.743   2.313
30393W        W95620  44.550   2.500   3.992
30394W        W95621   6.381   1.746  13.872
30395W        W95622  26.131  25.514   4.480
30396W        W95623  44.060  11.966  10.392
30397W        W95624  32.132  16.049  13.995
30398W        W95625  36.669  11.731   0.961
30399W        W95626  26.700  17.317   3.642
30400W        W95627   7.840  44.269   0.488
30401W        W95628  23.749  39.177   0.406
30402W        W95629   8.166  28.343   0.060
30403W        W95630  15.196  36.109   9.919
30404W        W95631   3.723  21.914  13.960
30405W        W95632  40.848  41.530   1.989
30406W        W95633   8.006  21.506  14.848
30407W        W95634  21.215  36.159  11.647
30408W        W95635  24.470  13.604   0.902
30409W        W95636  29.204  31.972  12.392
30410W        W95637   0.035  43.891   0.233
30411W        W95638   7.224  22.749   4.495
30412W        W95639  39.326  32.538   2.277
30413W        W95640  44.693  23.231   2.316
30414W        W95641  44.404  36.509   3.530
30415W        W95642  33.478  14.126  12.656
30416W        W95643  10.054  26.627  12.095
30417W        W95644  11.835  24.959  14.052
30418W        W95645  18.646  20.279  13.072
30419W        W95646  32.126  35.301  13.911
30420W        W95647  37.455  24.692   2.528
30421W        W95648   3.289  18.042  11.987
30422W        W95649  39.881  17.858   0.883
30423W        W95650  29.942  27.950   3.195
30424W        W95651  36.794  10.381   3.263
30425W        W95652  17.055  31.418   4.756
30426W        W95653  13.971  33.826   0.691
30427W        W95654   8.777   3.792  11.660
30428W        W95655  26.495  44.833   3.217
30429W        W95656  23.973  20.692   3.705
30430W        W95657  34.835  28.055   1.062
30431W        W95658  28.400  40.106   2.452
30432W        W95659  27.621  38.096   1.437
30433W        W95660  44.266  23.466   1.231
30434W        W95661  34.850  20.817  10.725
30435W        W95662  35.066  19.164   3.659
30436W        W95663   1.439  21.510   3.536
30437W        W95664  38.439   9.844  14.286
30438W        W95665  31.410  15.257   4.087
30439W        W95666   1.914  35.353  14.066
30440W        W95667  34.006  10.427   1.841
30441W        W95668  16.127   1.518  10.775
30442W        W95669  26.048  19.799  14.022
30443W        W95670  43.773   5.686   0.381
30444W        W95671   7.641  43.913   0.883
30445W        W95672  16.531  38.772   0.513
30446W        W95673  14.671  20.769  11.612
30447W        W95674  38.817   9.625  12.065
30448W        W95675  36.510  21.514   3.388
30449W        W95676  32.872  27.650   1.509
30450W        W95677  15.934   2.320   4.551
30451W        W95678  29.899   4.369  13.835
30452W        W95679  43.390   3.975   3.058
30453W        W95680  40.436   7.420   0.376
30454W        W95681  27.935  22.207   4.673
30455W        W95682  32.956  20.037   3.556
30456W        W95683  23.576  44.407  12.652
30457W        W95684  24.082  12.007   4.969
30458W        W95685  21.113  15.344  14.518
30459W        W95686  28.554   4.973  12.983
30460W        W95687  12.876  32.029   1.402
30461W        W95688  41.731   5.460   1.326
30462W        W95689  40.503  34.012  11.114
30463W        W95690   8.596  30.516  14.898
30464W        W95691  33.548  24.980  14.897
30465W        W95692   0.745  25.235   3.574
30466W        W95693  29.161  16.702   4.946
30467W        W95694  42.029  21.036  12.290
30468W        W95695   3.773  42.360   1.896
30469W        W95696  29.611  38.114  13.408
30470W        W95697   6.755   3.444  10.907
30471W        W95698   3.887  15.075   2.625
30472W        W95699  22.163  34.112  13.407
30473W        W95700  26.979  12.261   1.779
30474W        W95701  32.396   4.663   1.216
30475W        W95702  44.832  43.538  10.258
30476W        W95703   0.446  23.288   1.516
30477W        W95704  29.121   9.752  13.306
30478W        W95705   0.778  10.451  10.672
30479W        W95706  20.886  14.056  13.324
30480W        W95707  17.085   6.794   0.249
30481W        W95708   6.448  21.373  12.099
30482W        W95709  40.477  13.329   1.404
30483W        W95710   5.368   7.816  10.690
30484W        W95711  32.053  43.001  13.048
30485W        W95712  31.797  26.349   0.866
30486W        W95713   0.907  12.421   1.871
30487W        W95714  36.651   5.495   9.826
30488W        W95715   9.013  27.981  13.987
30489W        W95716  42.769  18.189   3.685
30490W        W95717   9.735  30.695  11.302
30491W        W95718  10.186  29.980   0.498
30492W        W95719  20.714  11.428  14.864
30493W        W95720   1.294  23.310   1.276
30494W        W95721  27.681  34.039  13.963
30495W        W95722  34.967  19.261   1.738
30496W        W95723  19.788   1.470  10.748
30497W        W95724  20.542  17.191   4.600
30498W        W95725   7.955   5.352  12.472
30499W        W95726  11.087  31.373   2.459
30500W        W95727  20.591  19.744   0.801
30501W        W95728   8.238  21.451  11.245
30502W        W95729   9.156   4.348   3.850
30503W        W95730  14.867  30.073   1.288
30504W        W95731  24.446   1.287   3.104
30505W        W95732  26.129   6.950  12.421
30506W        W95733   8.276  37.154  12.380
30507W        W95734  42.347   4.894  12.870
30508W        W95735  12.663  16.065   4.507
30509W        W95736  36.504  41.424  11.461
30510W        W95737   2.296   9.609  13.832
30511W        W95738  36.097  21.847   3.278
30512W        W95739  37.808  41.253   0.418
30513W        W95740  14.259  22.759  13.914
30514W        W95741  34.526  26.802  14.801
30515W        W95742  17.616  20.735   3.638
30516W        W95743  40.369  10.350  10.354
30517W        W95744   2.205   3.261  10.566
30518W        W95745   5.980   8.928   4.278
30519W        W95746  23.026  18.557   3.619
30520W        W95747  15.082   9.193   4.103
30521W        W95748  39.896  14.846   2.895
30522W        W95749  36.616  27.137  12.825
30523W        W95750  23.798  20.975   4.973
30524W        W95751  37.010   3.623   1.676
30525W        W95752  14.987  32.913   3.753
30526W        W95753   2.644   6.851   1.677
30527W        W95754  17.989  24.846   3.355
30528W        W95755   0.774  35.020   1.445
30529W        W95756  28.674  16.603  10.968
30530W        W95757  31.776  28.357  14.515
30531W        W95758  35.603  36.229  11.890
30532W        W95759  22.114   8.840  10.818
30533W        W95760  16.783  37.893  14.548
30534W        W95761  41.447  34.555   3.772
30535W        W95762   6.449  39.915   3.288
30536W        W95763  37.208  24.504  14.852
30537W        W95764  42.202  30.638  12.556
30538W        W95765   1.420  15.020   2.854
30539W        W95766  44.156  23.687   4.842
30540W        W95767  38.080  40.751  10.789
30541W        W95768  43.879  21.934   0.372
30542W        W95769   6.875  40.987  13.910
30543W        W95770   4.910  12.120   1.431
30544W        W95771  29.439  37.025  14.818
30545W        W95772  12.767   0.429  14.505
30546W        W95773   9.465  20.639  10.761
30547W        W95774  13.215   7.410  14.832
30548W        W95775   0.431  36.875  14.823
30549W        W95776  31.683   6.203  12.646
30550W        W95777  16.080   4.411   0.886
30551W        W95778  23.616  39.499  13.383
30552W        W95779   3.714  43.441  14.749
30553W        W95780  22.761  38.074  14.221
30554W        W95781  26.041   6.523  14.044
30555W        W95782  31.448  39.021   1.177
30556W        W95783  12.776   4.758   4.590
30557W        W95784  44.858  16.343   1.262
30558W        W95785   1.298  32.157  11.265
30559W        W95786  40.003  16.731  11.870
30560W        W95787  29.874  13.416   0.451
30561W        W95788  33.445  42.828   4.532
30562W        W95789  10.664  43.536  11.203
30563W        W95790  11.634   2.258   2.777
30564W        W95791  43.329  41.778  14.926
30565W        W95792  18.760  19.755  13.026
30566W        W95793  23.190  30.532  11.827
30567W        W95794  37.016  34.002  14.552
30568W        W95795  40.915   8.597   2.404
30569W        W95796  13.645  39.545   0.498
30570W        W95797  21.311  40.808   1.385
30571W        W95798  20.492  12.669   1.878
30572W        W95799  27.219  22.371  13.998
30573W        W95800  34.454  35.390   1.161
30574W        W95801   5.776   5.721   3.653
30575W        W95802  24.618  34.947   0.827
30576W        W95803  27.079  14.885   4.618
30577W        W95804  16.589  30.917   2.695
30578W        W95805  44.717  17.877   1.080
30579W        W95806  24.540  21.987   3.792
30580W        W95807   8.087   5.740   1.529
30581W        W95808   5.751   7.227  13.195
30582W        W95809  18.563  20.780  12.117
30583W        W95810  11.074   0.824   2.838
30584W        W95811  39.440   0.543   1.766
30585W        W95812  15.747  24.399   3.836
30586W        W95813  43.349  24.766  10.724
30587W        W95814  10.748  19.911  12.500
30588W        W95815   6.324  20.111   3.705
30589W        W95816   7.710   5.157   3.719
30590W        W95817   5.365  43.519   0.873
30591W        W95818   5.642  36.016  14.328
30592W        W95819  10.627  10.972   1.189
30593W        W95820  28.410  32.621   3.283
30594W        W95821  27.700  36.108   4.793
30595W        W95822  43.071   1.845  13.937
30596W        W95823  21.193  34.654  14.743
30597W        W95824  44.783  33.514   0.193
30598W        W95825  27.029  10.210   2.921
30599W        W95826  35.091  29.043  12.094
30600W        W95827  21.390   1.515   4.158
30601W        W95828   4.846  32.335  11.075
30602W        W95829  35.802  10.146  12.449
30603W        W95830   8.430  16.097  11.822
30604W        W95831  25.688  13.666   4.717
30605W        W95832  24.979  19.055   4.883
30606W        W95833  43.366  17.251  12.044
30607W        W95834  14.669  25.948  13.330
30608W        W95835   8.745  40.029   3.642
30609W        W95836  22.818  43.054  12.589
30610W        W95837  20.372  40.410   5.018
30611W        W95838  41.919  28.995   4.614
30612W        W95839  25.488   1.974  13.944
30613W        W95840  12.377  39.951   1.757
30614W        W95841   9.588  19.037   4.044
30615W        W95842  19.080  39.453  12.153
30616W        W95843  11.631   9.452  13.901
30617W        W95844  24.609  21.786  10.759
30618W        W95845   3.762  18.982   2.703
30619W        W95846  24.237   8.263  13.600
30620W        W95847  36.835  12.924   1.044
30621W        W95848  17.550  10.147   1.364
30622W        W95849  23.344   6.546   1.705
30623W        W95850  28.167  22.898  12.005
30624W        W95851  29.574   8.665   2.813
30625W        W95852  16.764  40.572   3.084
30626W        W95853  13.620   2.813  12.104
30627W        W95854  16.011  32.450  11.964
30628W        W95855  36.912   9.690  14.408
30629W        W95856  26.789  14.721   2.313
30630W        W95857  43.338  22.908   1.886
30631W        W95858  13.388  31.473   3.705
30632W        W95859  26.716   4.163  13.866
30633W        W95860   1.721  35.630  13.133
30634W        W95861  11.455  30.927  12.812
30635W        W95862  25.125  21.223  12.579
30636W        W95863  44.498   7.233   2.884
30637W        W95864  28.061  17.973   2.751
30638W        W95865  39.930   0.871  11.215
30639W        W95866   8.357   4.294   1.247
30640W        W95867   4.209  32.518   1.662
30641W        W95868  42.745  35.677   1.122
30642W        W95869  29.490  27.794   4.941
30643W        W95870  18.277  32.660  13.239
30644W        W95871  14.813   0.005   3.814
30645W        W95872  29.921  11.175   1.860
30646W        W95873  41.978  28.878   0.446
30647W        W95874  30.839  13.742   3.331
30648W        W95875  12.348  11.474   3.629
30649W        W95876   8.404   6.306   3.710
30650W        W95877   4.899  20.939  11.129
30651W        W95878   6.227  24.388  12.598
30652W        W95879  26.184  24.843  11.009
30653W        W95880  32.152  19.721   1.785
30654W        W95881  15.198  32.131  13.390
30655W        W95882  29.882  11.971  14.821
30656W        W95883  29.437  17.864   3.131
30657W        W95884  42.333  30.425  14.500
30658W        W95885  40.887   3.888  11.989
30659W        W95886  40.896  35.649   4.267
30660W        W95887   8.387   6.877  13.468
30661W        W95888  36.098   9.054  13.507
30662W        W95889  43.482  38.802   4.719
30663W        W95890  20.059  37.840   0.567
30664W        W95891  15.932  29.231   4.119
30665W        W95892   3.262  20.585   2.533
30666W        W95893  20.240  26.202  14.048
30667W        W95894   4.421   0.946  13.533
30668W        W95895   6.190  27.189   2.351
30669W        W95896  41.774  28.411   0.329
30670W        W95897  27.721  12.592   4.546
30671W        W95898  44.374  14.519   2.146
30672W        W95899  21.799   7.414  13.157
30673W        W95900   2.718  22.096   3.264
30674W        W95901  33.639  16.131  14.994
30675W        W95902   0.438  30.207  14.064
30676W        W95903  32.809   2.534  14.298
30677W        W95904  18.709  20.231  13.967
30678W        W95905  42.001  10.099  12.238
30679W        W95906  14.146  34.769  14.323
30680W        W95907  25.194  18.227   2.179
30681W        W95908  10.433  22.548  13.437
30682W        W95909  41.771  27.518   0.398
30683W        W95910   8.662  33.017  12.458
30684W        W95911  19.459  38.005  12.630
30685W        W95912  13.197  15.165   2.612
30686W        W95913  16.263  31.314   0.337
30687W        W95914  34.522  44.563   2.691
30688W        W95915   5.749  11.755   1.951
30689W        W95916  40.675   7.598  13.432
30690W        W95917  11.764  31.378  12.787
30691W        W95918  16.184   7.176   4.869
30692W        W95919  13.477  24.619  13.347
30693W        W95920  19.657  42.873   1.688
30694W        W95921   6.042   8.216  12.375
30695W        W95922  31.865  41.314   4.187
30696W        W95923  19.627  19.013  13.817
30697W        W95924  12.730  27.714   0.294
30698W        W95925   2.475  28.531   3.396
30699W        W95926   0.451  17.573  14.186
30700W        W95927  34.056   4.759   0.533
30701W        W95928  29.931  42.351  13.461
30702W        W95929  23.769  15.715  12.054
30703W        W95930   9.647  24.367   1.721
30704W        W95931  32.635   0.761   4.748
30705W        W95932   6.409  34.586  11.381
30706W        W95933  38.834  31.061   1.331
30707W        W95934  38.716  22.197   2.091
30708W        W95935  20.993  37.067   4.511
30709W        W95936  17.473  27.935   5.014
30710W        W95937  34.543  40.843   3.853
30711W        W95938  39.046   0.317   0.813
30712W        W95939  19.580   0.107   2.389
30713W        W95940  38.101  15.566  13.579
30714W        W95941  36.112  42.247  11.779
30715W        W95942  35.468  13.934   2.568
30716W        W95943  37.596  16.406  11.075
30717W        W95944   8.413  30.205   0.283
30718W        W95945  27.398  37.066   1.368
30719W        W95946  21.844  39.831   1.990
30720W        W95947   2.169  36.085   1.146
30721W        W95948   5.865  11.589  13.764
30722W        W95949  15.803  23.204   0.478
30723W        W95950  17.591  12.331  10.582
30724W        W95951  14.628  22.019  13.428
30725W        W95952  35.387  44.968   4.652
30726W        W95953  44.964  43.801  12.542
30727W        W95954  17.289  14.387  12.580
30728W        W95955  18.647  37.383  10.093
30729W        W95956   1.357  39.316  13.017
30730W        W95957  19.873  27.611   0.246
30731W        W95958  30.884   5.449   3.302
30732W        W95959  41.066  27.081  11.896
30733W        W95960  17.568  21.442   4.651
30734W        W95961  31.558   7.879   2.810
30735W        W95962  37.043  28.424  12.007
30736W        W95963  42.649  26.543   0.391
30737W        W95964  31.388   9.688   2.281
30738W        W95965   0.884  25.690  10.191
30739W        W95966  33.900  41.765  11.536
30740W        W95967  35.360  15.527   1.731
30741W        W95968  29.780  26.355   1.531
30742W        W95969  38.648  19.408   1.474
30743W        W95970   4.720   8.759  10.152
30744W        W95971  42.410  41.220  11.075
30745W        W95972  43.633  24.626  12.524
30746W        W95973  16.562  40.567  12.583
30747W        W95974  29.110  43.777   2.653
30748W        W95975  32.505  27.355  11.528
30749W        W95976  34.892   8.741   1.233
30750W        W95977   2.288   1.253   0.426
30751W        W95978  17.014  19.469   2.016
30752W        W95979  14.573  26.087  13.822
30753W        W95980  18.583  39.765  14.160
30754W        W95981  38.503  32.915   0.171
30755W        W95982  37.930  19.673   3.341
30756W        W95983   7.167  22.591   4.010
30757W        W95984  24.253  43.925   1.483
30758W        W95985  31.083   3.616   4.687
30759W        W95986  28.140  16.216  12.437
30760W        W95987  16.686  17.329   2.698
30761W        W95988  28.339  18.145  13.963
30762W        W95989   2.634  22.513   5.290
30763W        W95990  40.785  43.018  13.443
30764W        W95991  40.721  15.549   3.591
30765W        W95992  31.620   3.502   3.565
30766W        W95993  11.749  40.789  12.368
30767W        W95994  43.977  38.355   3.133
30768W        W95995  22.178   8.341  11.997
30769W        W95996  16.967  26.489  12.595
30770W        W95997  28.763   4.946  10.992
30771W        W95998  30.276  31.683  12.315
30772W        W95999  31.863   7.965   0.783
30773W        W96000  17.420   1.165  13.401
30774W        W96001  42.397   9.664   4.949
30775W        W96002   6.307  14.869  14.498
30776W        W96003  10.969  19.090  12.325
30777W        W96004  34.653   0.300   0.632
30778W        W96005   0.218   9.240   1.910
30779W        W96006   9.876  40.869   4.578
30780W        W96007  19.720  41.218  10.675
30781W        W96008  33.965   3.218   2.669
30782W        W96009  25.531  25.469   3.130
30783W        W96010  25.047  13.350  14.343
30784W        W96011  35.821  26.253  14.404
30785W        W96012  34.507  42.319  11.024
30786W        W96013  18.649  34.734   0.350
30787W        W96014  13.279  40.241   0.295
30788W        W96015  35.955  28.156  11.016
30789W        W96016  17.253  20.284   1.882
30790W        W96017   9.631  34.013   1.752
30791W        W96018   8.667   6.324   1.768
30792W        W96019  40.833   8.859  14.824
30793W        W96020  20.263   5.434  14.860
30794W        W96021  24.150  21.655   2.426
30795W        W96022  12.796  17.104   0.255
30796W        W96023  15.546  32.571   4.181
30797W        W96024  12.278  42.974   1.883
30798W        W96025  29.898  14.704   2.098
30799W        W96026  39.359  12.606  13.664
30800W        W96027  44.857  20.403  12.940
30801W        W96028  14.296  29.446  12.951
30802W        W96029  17.767  28.654  11.993
30803W        W96030  28.644  12.796   9.854
30804W        W96031  19.743  34.496  12.489
30805W        W96032  21.623   7.890  13.015
30806W        W96033  17.815   2.807  12.475
30807W        W96034  27.479  32.726  11.215
30808W        W96035  43.579  34.876   2.634
30809W        W96036  13.321  30.063  12.023
30810W        W96037  10.577   5.472   0.555
30811W        W96038  39.416  32.415  12.735
30812W        W96039  36.170  12.852   1.496
30813W        W96040  36.808  12.569   3.798
30814W        W96041  22.833  32.882  13.971
30815W        W96042  25.456  14.145  12.005
30816W        W96043  35.117  14.804   1.767
30817W        W96044  13.372  30.474   0.293
30818W        W96045  34.465  22.017  13.474
30819W        W96046  26.414   7.435  12.548
30820W        W96047  18.532   4.510   4.161
30821W        W96048   2.445  23.509  14.229
30822W        W96049  28.542   4.477  11.218
30823W        W96050  13.339   9.712   1.952
30824W        W96051  40.411  15.578  14.373
30825W        W96052  39.292   3.306   2.167
30826W        W96053   0.850  32.091   0.799
30827W        W96054  26.625  30.406   2.681
30828W        W96055  15.316  43.654  14.218
30829W        W96056  24.479  10.215   0.058
30830W        W96057  43.097   4.919   4.224
30831W        W96058   5.462  39.852  13.166
30832W        W96059  10.888  39.511   2.994
30833W        W96060  22.178  15.178  12.504
30834W        W96061  41.348  17.833   4.499
30835W        W96062  31.160   6.874   4.705
30836W        W96063  32.501  18.212  10.469
30837W        W96064  26.979  29.436  11.752
30838W        W96065  26.982   7.837  11.751
30839W        W96066   1.067  35.514   0.760
30840W        W96067   6.359  37.843   4.184
30841W        W96068  42.416  27.777  11.228
30842W        W96069  40.588  12.196  11.767
30843W        W96070  38.183  22.137   0.860
30844W        W96071   0.953   7.627  11.999
30845W        W96072  36.343  37.043   0.771
30846W        W96073  40.522   6.074   3.067
30847W        W96074  23.415  38.518   4.723
30848W        W96075  38.524  14.347   1.673
30849W        W96076  13.534  15.099   4.639
30850W        W96077  22.271  44.258   1.436
30851W        W96078  16.048   8.838  12.552
30852W        W96079   9.253  37.146  11.577
30853W        W96080  15.794   3.715  12.109
30854W        W96081   8.203  12.260   2.631
30855W        W96082   9.372  15.023   3.284
30856W        W96083  16.577  26.475  12.966
30857W        W96084  42.557  19.362   2.707
30858W        W96085  20.905  11.455  14.399
30859W        W96086   1.166   6.597   0.951
30860W        W96087  14.758  37.472   2.296
30861W        W96088   4.528  44.595   1.722
30862W        W96089   1.749  38.844  12.324
30863W        W96090   2.995  33.998  13.781
30864W        W96091  28.510  41.003  14.387
30865W        W96092  34.454  16.381  11.548
30866W        W96093  44.165   9.045  11.151
30867W        W96094   9.806   2.449   1.301
30868W        W96095  32.609  17.652   2.315
30869W        W96096  34.897  37.571   3.863
30870W        W96097   6.390  25.618   1.457
30871W        W96098  33.452  29.075   4.139
30872W        W96099  10.310   8.903  14.111
30873W        W96100   4.510  39.942  14.480
30874W        W96101  16.199  16.756   0.453
30875W        W96102  12.929   1.921   3.166
30876W        W96103   6.904  41.813   4.085
30877W        W96104  16.588   8.182   4.719
30878W        W96105   9.651   9.304   5.006
30879W        W96106   4.708  27.495  14.491
30880W        W96107  39.792   7.825  12.483
30881W        W96108   6.749  10.102   1.223
30882W        W96109  16.701  15.311   2.162
30883W        W96110  34.695  24.467   0.761
30884W        W96111  17.828  22.707  13.479
30885W        W96112  23.427   8.657   1.403
30886W        W96113  12.378  35.947   1.211
30887W        W96114  13.400  36.484  13.567
30888W        W96115  13.249  21.538  10.744
30889W        W96116   2.741  12.699   3.907
30890W        W96117  10.690  25.407  11.975
30891W        W96118  42.473  42.060  13.967
30892W        W96119  20.926  40.447   3.811
30893W        W96120  37.087  33.001   3.356
30894W        W96121  12.020  28.541   2.808
30895W        W96122   3.153   9.238   0.948
30896W        W96123   3.553   4.750   2.818
30897W        W96124  38.262  44.414  12.524
30898W        W96125  25.478  20.520   0.065
30899W        W96126   3.825  30.058  13.040
30900W        W96127  16.170  26.053  14.311
30901W        W96128   8.268   2.729  10.971
30902W        W96129   0.379  40.042  14.275
30903W        W96130  37.891  37.998  11.697
30904W        W96131   6.351  19.938  10.513
30905W        W96132  28.855   2.246   3.303
30906W        W96133  22.200  22.565   1.849
30907W        W96134  38.292   2.525  12.882
30908W        W96135  36.541  27.645  12.893
30909W        W96136  28.000   3.386  11.845
30910W        W96137  13.805  37.494  14.955
30911W        W96138  33.570   1.242   4.270
30912W        W96139  42.598  44.229  14.435
30913W        W96140  20.602   7.753  11.266
30914W        W96141  19.346  23.138   3.616
30915W        W96142   1.241  29.773   4.547
30916W        W96143  19.674  31.891   1.160
30917W        W96144   1.496   1.261  12.457
30918W        W96145   2.021  18.557  11.127
30919W        W96146   2.785   4.238  10.636
30920W        W96147  14.078  43.743   3.921
30921W        W96148   0.954  20.622   5.131
30922W        W96149   3.395  12.834   4.619
30923W        W96150  28.098  19.882   1.744
30924W        W96151  29.607  22.725   0.394
30925W        W96152  17.660  37.805   2.315
30926W        W96153   6.587  12.794  11.165
30927W        W96154  33.992  43.972  13.632
30928W        W96155  25.624  34.348  14.970
30929W        W96156  22.120  39.355  13.331
30930W        W96157  18.776  40.100   3.398
30931W        W96158   0.812  10.743   3.851
30932W        W96159  37.455   7.461   1.145
30933W        W96160   3.590  25.133   1.180
30934W        W96161   1.277  44.604   2.796
30935W        W96162  39.872  43.230  14.136
30936W        W96163  34.383  44.894  12.956
30937W        W96164  11.014  29.716  14.467
30938W        W96165  44.861  18.681   1.607
30939W        W96166  39.521   2.982   0.254
30940W        W96167  15.138  21.753   3.096
30941W        W96168  16.768  11.186  13.803
30942W        W96169   4.511  35.000   4.139
30943W        W96170  22.593  14.926   3.228
30944W        W96171  39.541  27.935  14.376
30945W        W96172  39.878   9.146  14.281
30946W        W96173  15.059  28.713  13.735
30947W        W96174  27.213  26.636   0.769
30948W        W96175  29.871   9.642  14.573
30949W        W96176  30.026  32.793   3.015
30950W        W96177  18.270   9.328  12.152
30951W        W96178  27.896  32.410  13.545
30952W        W96179  16.732  25.245   4.387
30953W        W96180  42.566  42.515  12.550
30954W        W96181  32.973  28.582   3.641
30955W        W96182  34.814  11.903   0.403
30956W        W96183  44.717  24.581   3.529
30957W        W96184  18.742  21.634   4.743
30958W        W96185  23.423  22.491   0.967
30959W        W96186  40.904  10.759  11.949
30960W        W96187  42.718   1.650  13.370
30961W        W96188  27.641  30.215  11.948
30962W        W96189  22.711  18.978   2.246
30963W        W96190  26.467  35.496  11.637
30964W        W96191  35.965  10.923  13.856
30965W        W96192  33.413  43.563  11.517
30966W        W96193  10.225  27.653  11.722
30967W        W96194  40.474  14.741  11.194
30968W        W96195  39.361  41.896   3.982
30969W        W96196  10.367  38.060  13.007
30970W        W96197  43.394  31.630  11.537
30971W        W96198  24.968  27.532  12.523
30972W        W96199   6.237  25.534  13.117
30973W        W96200  14.966  37.630   1.803
30974W        W96201  33.872  32.445  14.215
30975W        W96202  44.214  13.721  12.960
30976W        W96203  28.682  17.219   0.789
30977W        W96204  36.988  23.839  13.600
30978W        W96205  33.238  10.781   0.749
30979W        W96206  11.882  21.639  10.595
30980W        W96207   5.217   7.317  14.029
30981W        W96208  32.182  33.478  14.184
30982W        W96209  28.515   2.844  14.033
30983W        W96210  26.386  29.735   4.192
30984W        W96211  30.846  31.429  12.920
30985W        W96212   1.548  17.002  10.643
30986W        W96213   1.351  28.172   2.707
30987W        W96214  41.579  25.099  11.210
30988W        W96215   7.198  38.876   2.296
30989W        W96216  11.207  19.599   4.365
30990W        W96217  29.555  26.569   1.104
30991W        W96218  16.479  34.295   4.337
30992W        W96219  11.273  27.204   4.643
30993W        W96220  22.191  13.445   1.183
30994W        W96221  36.339   3.069  14.316
30995W        W96222  42.351   4.417  13.860
30996W        W96223   6.827  10.834  12.992
30997W        W96224   3.859   5.223   0.267
30998W        W96225  34.857  41.601  14.983
30999W        W96226  23.050   6.356  13.535
31000W        W96227  33.494  19.075  11.507
31001W        W96228  18.636  33.459  13.291
31002W        W96229  42.751  35.766   2.793
31003W        W96230  26.971  33.423   3.093
31004W        W96231  36.673  16.443   4.056
31005W        W96232  21.490   7.798   4.562
31006W        W96233   4.672  36.006  14.284
31007W        W96234  41.329  10.581   1.383
31008W        W96235   7.449  20.071   1.372
31009W        W96236  27.137  20.227   0.965
31010W        W96237   8.011   2.063  10.021
31011W        W96238  12.327  39.274  11.950
31012W        W96239  31.693  38.885   2.148
31013W        W96240  32.008  30.092   4.799
31014W        W96241  11.905  15.699   3.960
31015W        W96242  28.641   5.397   0.246
31016W        W96243  35.710  23.219   2.195
31017W        W96244   7.268  26.140  13.021
31018W        W96245  37.030  25.640   0.827
31019W        W96246  11.395  10.417   1.204
31020W        W96247  38.498  34.058   3.455
31021W        W96248  10.782   3.534   0.455
31022W        W96249  13.309  15.535   1.331
31023W        W96250  27.165  38.069  13.848
31024W        W96251   0.803   1.438  13.237
31025W        W96252   0.870  15.481   2.249
31026W        W96253   6.899  41.832   3.036
31027W        W96254   4.254  27.109   0.197
31028W        W96255  27.716  33.006  12.525
31029W        W96256  32.120  29.216  12.523
31030W        W96257  39.770  15.344   2.800
31031W        W96258  16.527  42.758   2.780
31032W        W96259  17.143  14.603  14.809
31033W        W96260  17.727  26.174   4.777
31034W        W96261  18.523  35.463  11.286
31035W        W96262  15.333  38.970  10.745
31036W        W96263  43.110  26.579   3.255
31037W        W96264   4.184  10.963  13.051
31038W        W96265  35.435   9.944   2.264
31039W        W96266  43.100   1.335  11.556
31040W        W96267  12.872  23.290  14.010
31041W        W96268   9.840  20.177  13.490
31042W        W96269   6.009  44.995  13.918
31043W        W96270  14.796  19.917   4.943
31044W        W96271  15.162   4.237   1.166
31045W        W96272   6.227  21.718  14.457
31046W        W96273  12.849  30.459  14.936
31047W        W96274  37.185  13.520   4.183
31048W        W96275  19.247  38.990  10.778
31049W        W96276  23.578  19.972  13.178
31050W        W96277  38.901  35.954  11.980
31051W        W96278  36.602  19.572  13.669
31052W        W96279   8.056   8.482   0.417
31053W        W96280  21.550  32.637   1.317
31054W        W96281   0.692  30.598   1.250
31055W        W96282   5.203  22.855   0.157
31056W        W96283  24.665   9.906  14.235
31057W        W96284  21.812   5.771  13.563
31058W        W96285  33.924  21.614   2.856
31059W        W96286  36.519   8.373   3.674
31060W        W96287  29.004  27.545   2.478
31061W        W96288  24.088   0.798  13.333
31062W        W96289  41.812  20.700   2.290
31063W        W96290  44.122   3.053  14.952
31064W        W96291  39.053  11.233  14.699
31065W        W96292   1.385  36.120  10.772
31066W        W96293  20.168  39.996   4.238
31067W        W96294  31.001  14.067   1.724
31068W        W96295  43.955  44.931  13.328
31069W        W96296  29.061  21.705   2.796
31070W        W96297  19.125  37.722   2.095
31071W        W96298  21.446   3.892   3.161
31072W        W96299  32.013  38.182   5.418
31073W        W96300  14.264  17.060   0.790
31074W        W96301   3.797  14.821   3.059
31075W        W96302  23.121  17.031   4.016
31076W        W96303  39.740  21.688  12.382
31077W        W96304  31.134  42.906   0.228
31078W        W96305   4.278  34.331  10.575
31079W        W96306  43.986  15.000   2.180
31080W        W96307  16.013   2.003   0.767
31081W        W96308  19.001  24.675  14.073
31082W        W96309  13.554  15.783   0.096
31083W        W96310  17.243  30.693   4.248
31084W        W96311   4.452  26.650   0.362
31085W        W96312   6.594   8.137   0.241
31086W        W96313   2.757  35.961   2.030
31087W        W96314  44.551  34.771  12.239
31088W        W96315   5.531   0.726   0.052
31089W        W96316  37.702  26.744   2.345
31090W        W96317  20.364  19.148   2.258
31091W        W96318  20.204  11.989   2.296
31092W        W96319  44.088   8.258  11.549
31093W        W96320  30.534  34.849  14.490
31094W        W96321  29.387  25.723  14.330
31095W        W96322  44.308  17.222  12.402
31096W        W96323   5.675  12.692  10.070
31097W        W96324  16.492  25.054   0.460
31098W        W96325   5.687  34.988  14.292
31099W        W96326   6.201  17.216  13.995
31100W        W96327   2.944   6.305  10.677
31101W        W96328  22.935  43.330   3.274
31102W        W96329   8.441   1.930   0.602
31103W        W96330  33.939  34.434   4.071
31104W        W96331  29.566  14.647  12.823
31105W        W96332  27.563  40.875  11.653
31106W        W96333  43.858  40.929   1.708
31107W        W96334   0.042  35.952  14.820
31108W        W96335  17.185  24.504   2.190
31109W        W96336  30.120  34.632   2.266
31110W        W96337  14.698  21.709   4.052
31111W        W96338  21.509  20.507  12.601
31112W        W96339  19.692  26.161  11.727
31113W        W96340   2.176  32.026  12.355
31114W        W96341  43.203  30.222  10.128
31115W        W96342  16.808  29.023   1.689
31116W        W96343  21.640   8.279   2.350
31117W        W96344  23.135   1.238   1.162
31118W        W96345  28.956  42.660  13.912
31119W        W96346  19.415  38.622   2.184
31120W        W96347  27.215  25.737  13.389
31121W        W96348  23.711  40.946   3.837
31122W        W96349  20.692  13.695   4.685
31123W        W96350   6.747   9.820   1.692
31124W        W96351  12.233  39.596  10.977
31125W        W96352   7.349   3.661   4.383
31126W        W96353  39.472   7.214   9.880
31127W        W96354  30.095   9.248   3.922
31128W        W96355  32.890  34.167   1.558
31129W        W96356  12.618  28.368  14.799
31130W        W96357   1.229  39.854  14.725
31131W        W96358  35.441  30.120   3.371
31132W        W96359  16.487  18.452  13.443
31133W        W96360  32.902  20.020  12.090
31134W        W96361  33.560  27.911  14.983
31135W        W96362  20.056   2.994   4.273
31136W        W96363  29.043  44.213   4.901
31137W        W96364  15.718  26.546   1.954
31138W        W96365  14.182  34.571  13.546
31139W        W96366   1.815   2.435  11.989
31140W        W96367  15.668  25.551  11.144
31141W        W96368  33.590  22.387   5.014
31142W        W96369  23.226  40.823   3.601
31143W        W96370  20.690  27.442   0.837
31144W        W96371  28.264  13.968   4.519
31145W        W96372  26.643  42.596   1.285
31146W        W96373  23.494  41.568  13.412
31147W        W96374  30.982  34.644  10.563
31148W        W96375  33.997  11.394   2.340
31149W        W96376  13.257  30.517   4.425
31150W        W96377  16.266  33.974  13.111
31151W        W96378   4.680  19.734   2.553
31152W        W96379  36.647  15.458   1.382
31153W        W96380  43.986   3.697   3.670
31154W        W96381  39.895  21.587   1.444
31155W        W96382   0.273  35.159   1.192
31156W        W96383  32.440  38.417  13.972
31157W        W96384  16.576  16.156  11.260
31158W        W96385   9.341   2.579   4.613
31159W        W96386  40.447  16.127   2.911
31160W        W96387  23.923  21.262  10.593
31161W        W96388  36.816  29.010  13.069
31162W        W96389  10.901  44.938   4.455
31163W        W96390   1.247  37.562   1.017
31164W        W96391  10.177  15.768   1.356
31165W        W96392  31.109  34.623  13.438
31166W        W96393  16.216  30.087   4.259
31167W        W96394   1.807  12.138  11.053
31168W        W96395  25.886  17.741  12.456
31169W        W96396  29.944   6.727   0.320
31170W        W96397  18.262   5.374   2.626
31171W        W96398   7.857  40.213   3.640
31172W        W96399  13.254   4.207   4.304
31173W        W96400  30.996   7.619  11.027
31174W        W96401  37.823  40.077  12.608
31175W        W96402   4.496   8.449  11.601
31176W        W96403  31.469  41.754   3.906
31177W        W96404   9.280  13.963  12.117
31178W        W96405  31.025   9.701   1.784
31179W        W96406  42.967  32.854   2.129
31180W        W96407  10.566   7.992  14.310
31181W        W96408   3.754  41.781  13.938
31182W        W96409  19.373  11.624  10.748
31183W        W96410  15.884  12.186   1.758
31184W        W96411  25.571  43.855  11.411
31185W        W96412  39.152   1.053   3.307
31186W        W96413  20.090  27.199   3.247
31187W        W96414  26.697   2.892   1.509
31188W        W96415  16.323   9.270  12.832
31189W        W96416  31.902  13.739   1.632
31190W        W96417  32.435  44.582   3.095
31191W        W96418  24.024  16.098  12.250
31192W        W96419  34.108  14.406   1.716
31193W        W96420   3.823   6.220  14.336
31194W        W96421  22.125   2.547  14.794
31195W        W96422   8.440   2.123  11.668
31196W        W96423  25.917  14.621   0.594
31197W        W96424  18.786  23.196   1.831
31198W        W96425  14.727  27.708  12.890
31199W        W96426  28.840  18.784   2.084
31200W        W96427  16.750  36.856   1.843
31201W        W96428  32.042  17.940  10.430
31202W        W96429   6.830   0.243   2.412
31203W        W96430  37.453  17.074   1.883
31204W        W96431  33.078  22.740   3.815
31205W        W96432  43.480  16.321  14.869
31206W        W96433  13.093   5.445  11.582
31207W        W96434  13.283  38.850   4.117
31208W        W96435  40.245   3.774  13.541
31209W        W96436  41.506  30.793   0.096
31210W        W96437  11.190   7.316  13.514
31211W        W96438  15.566  12.305  10.634
31212W        W96439  10.356  43.973   2.112
31213W        W96440  31.915  40.868   3.665
31214W        W96441   2.380  38.580   4.174
31215W        W96442   3.485  39.885   4.192
31216W        W96443  34.131  30.677   2.858
31217W        W96444  40.374  11.372  12.340
31218W        W96445  33.475  21.192  14.423
31219W        W96446  26.506  25.710   2.287
31220W        W96447  22.264  25.785   0.586
31221W        W96448  18.104  22.013  11.641
31222W        W96449   1.684  43.130  13.331
31223W        W96450   7.830  14.209   2.136
31224W        W96451   1.481  41.600  12.506
31225W        W96452  19.618  18.833   4.553
31226W        W96453  38.446   4.981  12.532
31227W        W96454   8.943  30.940  13.960
31228W        W96455  12.341  13.821  12.493
31229W        W96456  35.559   2.789   2.673
31230W        W96457  42.890  11.760  13.449
31231W        W96458  36.281  28.050  13.032
31232W        W96459   3.175  22.033  14.886
31233W        W96460   5.428  22.148  12.467
31234W        W96461  20.774  24.113  12.977
31235W        W96462  30.119   0.808  11.388
31236W        W96463  44.950   6.718  14.904
31237W        W96464   4.301  33.400  12.481
31238W        W96465   4.261  12.743   2.409
31239W        W96466   2.823   7.244  14.073
31240W        W96467  16.067   0.774  14.998
31241W        W96468   5.676   6.892  10.921
31242W        W96469  22.784  14.120   2.833
31243W        W96470  12.956  17.538   3.280
31244W        W96471  40.492   8.861   1.273
31245W        W96472   0.605  23.691  14.946
31246W        W96473   4.290   9.756   0.365
31247W        W96474  25.469  37.463  14.398
31248W        W96475  36.519  41.001  14.737
31249W        W96476  26.324   3.558   3.137
31250W        W96477  13.340   3.364  13.036
31251W        W96478  40.469   0.700   2.067
31252W        W96479  11.885  37.936   1.928
31253W        W96480  21.814  39.006   0.387
31254W        W96481  13.713  25.708  11.554
31255W        W96482  33.010  18.469  11.121
31256W        W96483  29.531  21.769   2.558
31257W        W96484  24.878   6.977   3.632
31258W        W96485   9.868  22.781   3.753
31259W        W96486   4.694  42.335  12.547
31260W        W96487  40.864   9.754   3.171
31261W        W96488  20.670  42.785  10.710
31262W        W96489   1.464  27.891   2.287
31263W        W96490  34.951  40.882  10.962
31264W        W96491   1.884  43.563   1.814
31265W        W96492   1.021  40.248  12.604
31266W        W96493  24.842  42.450   5.527
31267W        W96494  11.766  44.822   3.205
31268W        W96495  41.017  16.599  11.245
31269W        W96496  26.396   1.785   4.590
31270W        W96497   9.543   9.385   0.308
31271W        W96498  39.440  14.184  13.032
31272W        W96499  18.584  11.625  11.124
31273W        W96500   3.786  33.808  14.931
31274W        W96501  43.167   5.391  12.786
31275W        W96502  43.317  24.505  14.384
31276W        W96503  15.334  13.324  12.930
31277W        W96504  39.353   8.628  13.864
31278W        W96505  21.596  15.792   1.772
31279W        W96506  38.306  10.194   4.214
31280W        W96507   6.836  18.807   4.020
31281W        W96508  15.238  12.713  11.570
31282W        W96509  29.625  11.847   2.825
31283W        W96510   5.391  21.273   2.363
31284W        W96511  44.399   3.176  13.466
31285W        W96512  13.016   0.315   3.586
31286W        W96513  38.132  27.389  14.388
31287W        W96514  40.237  23.032   1.904
31288W        W96515   5.187  31.658   2.704
31289W        W96516   5.916  43.692  13.497
31290W        W96517  15.291  17.623   1.958
31291W        W96518  30.409   6.683  11.613
31292W        W96519  31.812  22.941  11.523
31293W        W96520   6.070   9.212  11.128
31294W        W96521   5.817  34.908   3.395
31295W        W96522  12.636  31.965  12.084
31296W        W96523  36.310  32.197   1.649
31297W        W96524   6.895  22.538   1.843
31298W        W96525  21.534  42.346   0.286
31299W        W96526   8.730  12.344  11.632
31300W        W96527  12.271   6.352  12.551
31301W        W96528  27.091  41.288   1.466
31302W        W96529  10.293  24.617   2.818
31303W        W96530  13.241   3.012   0.696
31304W        W96531  15.501  18.149  12.583
31305W        W96532  44.053  39.803   0.038
31306W        W96533   7.168  18.548  11.251
31307W        W96534  44.577  26.673  11.712
31308W        W96535  22.474  32.201   1.208
31309W        W96536  23.667  15.880  14.959
31310W        W96537   3.510  20.160   0.385
31311W        W96538  28.722  15.316  12.016
31312W        W96539  26.332   9.103   3.104
31313W        W96540  11.330   8.208  13.090
31314W        W96541  40.979  41.326  12.055
31315W        W96542  42.841  30.049   2.776
31316W        W96543   3.118   8.241   3.291
31317W        W96544  26.553  18.615  13.618
31318W        W96545  29.914  40.952  11.910
31319W        W96546  11.074  17.458   2.234
31320W        W96547  12.221  30.463  10.697
31321W        W96548  23.209  16.568   4.251
31322W        W96549  32.177  24.294  11.188
31323W        W96550  37.441  21.708  13.445
31324W        W96551  11.700  15.524  13.257
31325W        W96552  41.809  20.238  11.248
31326W        W96553  19.160  33.190  11.286
31327W        W96554   0.049  42.068  12.107
31328W        W96555   3.715  43.337   1.392
31329W        W96556  25.017   6.389   4.576
31330W        W96557  15.856  31.474  13.901
31331W        W96558  43.341  27.441  12.371
31332W        W96559  16.115   3.761  14.239
31333W        W96560  35.444   4.494   2.351
31334W        W96561  35.342   9.510   0.467
31335W        W96562  24.205  42.795  12.702
31336W        W96563   7.162  17.112  14.198
31337W        W96564   2.481  36.463  13.367
31338W        W96565  20.628   4.738  11.487
31339W        W96566  20.617  18.107  12.048
31340W        W96567  15.819   2.422  11.332
31341W        W96568  44.930  25.752   1.816
31342W        W96569  24.559  42.314   0.516
31343W        W96570  30.616   9.406   0.286
31344W        W96571  22.470  30.455  12.520
31345W        W96572  28.711  44.372  14.926
31346W        W96573   7.406   6.884  12.427
31347W        W96574  19.862   8.138  12.145
31348W        W96575  11.161  27.679  12.022
31349W        W96576  29.960  31.697  14.938
31350W        W96577   2.143  20.881   4.975
31351W        W96578  20.010   3.551   1.047
31352W        W96579   9.206  40.988  11.440
31353W        W96580  40.989  14.058   2.271
31354W        W96581  28.984  42.033  13.502
31355W        W96582   0.355   5.275   0.709
31356W        W96583  21.534   2.893  14.099
31357W        W96584   2.813  13.543  14.006
31358W        W96585  32.949   3.093   3.729
31359W        W96586   8.727  29.089  11.853
31360W        W96587  25.608  20.158  14.526
31361W        W96588  19.788  20.716   3.197
31362W        W96589  39.026  20.824  14.468
31363W        W96590  17.387  15.590  14.346
31364W        W96591   4.454  22.469  13.224
31365W        W96592  24.778  22.247   1.379
31366W        W96593  23.018  23.661   4.068
31367W        W96594  15.979  35.096  14.669
31368W        W96595  21.534   8.590  12.341
31369W        W96596   2.520  42.295  12.136
31370W        W96597  22.278  21.515   2.239
31371W        W96598  13.313  31.821   0.099
31372W        W96599   0.734  44.851   0.122
31373W        W96600  19.823   6.745  13.484
31374W        W96601  34.079  23.278  11.181
31375W        W96602   0.316  34.633  12.289
31376W        W96603  23.651  36.599   3.666
31377W        W96604  42.970  19.026  13.866
31378W        W96605   6.802  19.446   1.462
31379W        W96606  28.907  36.322   2.796
31380W        W96607  15.162  16.680  12.481
31381W        W96608  40.043  21.116  10.597
31382W        W96609   7.277   8.796   2.511
31383W        W96610  26.922  35.269  11.674
31384W        W96611  41.405  19.156   0.691
31385W        W96612  14.776  31.905   2.687
31386W        W96613  18.279  41.427  12.897
31387W        W96614   4.180   0.920  10.903
31388W        W96615  34.648   5.324   2.737
31389W        W96616   5.249  29.476  11.406
31390W        W96617  27.358  31.942  11.636
31391W        W96618   9.783  38.203  10.926
31392W        W96619   8.633  44.265  10.308
31393W        W96620  20.800  29.109  12.554
31394W        W96621   3.961  22.041   4.532
31395W        W96622  34.175  25.615  14.418
31396W        W96623  15.963  11.328  11.618
31397W        W96624  18.650   0.866  10.801
31398W        W96625  40.314  30.191  11.910
31399W        W96626   7.605   5.749  13.373
31400W        W96627  25.560  29.098  11.216
31401W        W96628   6.297   0.922  12.205
31402W        W96629  29.244   0.663  14.431
31403W        W96630  40.023  26.136   1.945
31404W        W96631   7.766  13.528  10.267
31405W        W96632  18.544  16.739  12.500
31406W        W96633  31.491   7.095   1.247
31407W        W96634   2.328   0.377  14.396
31408W        W96635   4.316  23.561  12.398
31409W        W96636  34.804  23.495  13.058
31410W        W96637   4.500  31.559   2.137
31411W        W96638  41.705  13.093   1.944
31412W        W96639   4.204  34.273   5.059
31413W        W96640  13.994   3.530   3.264
31414W        W96641  22.079  31.171  12.437
31415W        W96642  39.101   0.269   3.461
31416W        W96643  35.767  15.893  12.089
31417W        W96644  25.807   1.084  10.082
31418W        W96645  42.257  10.820  14.282
31419W        W96646  38.736  32.242   4.557
31420W        W96647  36.809  22.662   1.849
31421W        W96648   9.766   4.238  14.381
31422W        W96649  12.070  17.725   0.821
31423W        W96650  21.047  11.763   2.594
31424W        W96651  27.647  28.979  12.375
31425W        W96652   7.524  29.274  12.825
31426W        W96653  19.148  32.916   3.632
31427W        W96654  27.118  34.519   4.108
31428W        W96655   5.119   7.626  12.164
31429W        W96656  14.175   4.747  13.940
31430W        W96657   8.724  36.356  14.446
31431W        W96658  10.693  11.078   3.596
31432W        W96659   5.852  23.673  12.941
31433W        W96660  33.879  21.920  14.987
31434W        W96661  17.083   2.425  14.068
31435W        W96662  11.454  27.476   3.279
31436W        W96663  24.081  34.957  14.532
31437W        W96664  44.532  36.063  11.226
31438W        W96665   3.826  38.761  13.482
31439W        W96666  25.178  19.704  14.560
31440W        W96667  39.101  23.785  12.846
31441W        W96668  18.736   0.697  14.404
31442W        W96669   5.186   1.314   1.945
31443W        W96670  29.904  32.868  11.274
31444W        W96671  32.528   1.764   3.347
31445W        W96672  43.366  18.011   4.537
31446W        W96673  40.542  23.003  14.835
31447W        W96674  32.421  21.083  10.759
31448W        W96675   2.896   1.408   1.228
31449W        W96676   7.339  13.383  10.003
31450W        W96677  26.135   9.479  11.913
31451W        W96678  36.868  38.401  12.957
31452W        W96679  39.023  19.773  10.130
31453W        W96680  10.188  29.675   2.902
31454W        W96681  18.796  30.959  11.564
31455W        W96682  43.553   2.298   1.822
31456W        W96683  10.255  44.010  12.351
31457W        W96684   9.695  20.024   3.352
31458W        W96685  28.476  20.825   0.022
31459W        W96686   2.757  15.362  11.551
31460W        W96687  30.544  44.757  10.677
31461W        W96688   0.676  39.435  13.360
31462W        W96689  28.441   9.755   4.635
31463W        W96690  43.588  15.239   1.911
31464W        W96691   9.134  23.129  11.679
31465W        W96692   7.958  30.224  13.072
31466W        W96693  21.623  42.031   3.666
31467W        W96694   6.965  35.291  14.611
31468W        W96695   9.756   5.824  13.437
31469W        W96696  41.547   6.350   2.308
31470W        W96697  20.738  23.735  10.842
31471W        W96698   0.233  18.837  14.128
31472W        W96699  20.136   6.714   0.674
31473W        W96700   5.436  20.168   2.004
31474W        W96701  26.070  22.093  10.446
31475W        W96702  33.441  23.153   0.867
31476W        W96703  37.955  10.193  13.297
31477W        W96704  23.590  34.151   1.756
31478W        W96705   4.726   9.165   3.377
31479W        W96706   8.207  35.300   3.692
31480W        W96707  25.942   4.418   1.896
31481W        W96708  27.590  29.738  12.887
31482W        W96709  28.075  10.688   0.735
31483W        W96710  32.916  37.700  11.258
31484W        W96711  24.621  36.631   1.797
31485W        W96712  41.673  21.079  14.390
31486W        W96713  18.696  44.724  13.318
31487W        W96714  11.765   8.311   2.730
31488W        W96715  41.508  35.023  13.817
31489W        W96716  44.981  40.271  11.111
31490W        W96717  20.676  11.869   0.598
31491W        W96718  11.660   6.946   3.200
31492W        W96719  14.867  11.838   1.235
31493W        W96720  15.111   9.767   0.781
31494W        W96721   6.224  13.540   2.974
31495W        W96722  25.470  11.015   2.749
31496W        W96723  13.833  15.833   0.519
31497W        W96724   4.272   6.183  11.814
31498W        W96725  13.893  28.629  12.973
31499W        W96726   3.636  16.295   3.164
31500W        W96727  40.406  37.189  13.605
31501W        W96728   7.403  29.031  14.211
31502W        W96729  37.117  26.284  14.466
31503W        W96730  26.630  35.783   4.551
31504W        W96731  40.980  14.931  12.414
31505W        W96732   0.040  21.321  11.808
31506W        W96733  14.136  44.098  11.962
31507W        W96734  14.053  16.752  12.435
31508W        W96735  11.313  20.550   2.298
31509W        W96736  25.919  33.917   2.813
31510W        W96737  10.433  12.130  14.323
31511W        W96738  27.609  23.080   3.367
31512W        W96739  39.152  28.871  11.047
31513W        W96740  23.676  11.605   4.188
31514W        W96741   5.802  36.796  12.964
31515W        W96742  41.821   5.079   3.277
31516W        W96743   7.455  15.637   3.189
31517W        W96744   0.024  27.867  13.384
31518W        W96745   2.742  39.943  12.733
31519W        W96746   2.539   6.236   2.863
31520W        W96747  26.500  10.370  14.235
31521W        W96748  14.390  39.360  11.463
31522W        W96749  27.090  31.370  14.832
31523W        W96750  37.876   9.301  14.528
31524W        W96751   7.592  13.175   2.548
31525W        W96752  27.535  17.628  11.571
31526W        W96753  38.627  16.934  10.394
31527W        W96754  10.878  16.267   1.573
31528W        W96755  10.797  27.605   4.033
31529W        W96756   6.461   5.314   1.251
31530W        W96757  33.933  30.894   4.200
31531W        W96758  24.615  31.633  13.072
31532W        W96759  22.153  42.966  10.939
31533W        W96760  15.767  36.879  12.819
31534W        W96761  10.251   8.751   4.644
31535W        W96762  41.874   2.965   4.144
31536W        W96763  40.516  33.422   3.263
31537W        W96764  38.644  23.469  11.680
31538W        W96765  26.011   8.488   1.637
31539W        W96766  23.960  27.937   4.409
31540W        W96767  32.450  31.703   4.101
31541W        W96768  41.462  38.832   3.879
31542W        W96769  16.494  21.465  12.027
31543W        W96770  20.009  22.863   1.293
31544W        W96771  35.662  33.581  14.496
31545W        W96772  24.528  43.831   3.621
31546W        W96773  38.145   2.864   0.405
31547W        W96774  16.591  30.899  14.826
31548W        W96775  37.031   8.664   1.341
31549W        W96776   3.407  22.725  11.863
31550W        W96777  39.946  28.393  11.990
31551W        W96778  32.076  33.608   1.243
31552W        W96779  37.921  25.954  14.752
31553W        W96780  29.162  16.356   1.016
31554W        W96781  17.760  13.624   1.786
31555W        W96782   2.753  19.779   2.640
31556W        W96783  43.929  21.086   3.701
31557W        W96784  34.493  30.625  12.969
31558W        W96785  22.635   4.345  11.251
31559W        W96786   8.621  12.505   1.887
31560W        W96787   7.062  43.731  13.078
31561W        W96788  42.689  29.380   5.029
31562W        W96789  32.993  30.155   2.689
31563W        W96790  12.355   0.549  10.558
31564W        W96791  36.620   8.817  13.572
31565W        W96792  14.519  15.622   3.768
31566W        W96793  20.880  19.303   2.295
31567W        W96794  21.002   0.472  10.664
31568W        W96795   6.576  34.601  13.643
31569W        W96796  39.719  21.217   1.095
31570W        W96797   6.396  35.843   4.813
31571W        W96798  17.844  17.590  11.498
31572W        W96799  35.342  37.385   3.214
31573W        W96800  33.573  26.186   0.974
31574W        W96801   1.555  32.648  14.988
31575W        W96802  41.519   3.297   3.159
31576W        W96803  14.364  40.653   4.539
31577W        W96804  37.244   3.391   2.090
31578W        W96805  31.861   6.491  14.009
31579W        W96806  14.256   7.385   0.493
31580W        W96807  20.744  44.946  13.903
31581W        W96808   1.406   2.384  13.710
31582W        W96809   4.776  38.248  13.154
31583W        W96810   4.934  27.987  10.591
31584W        W96811   7.586  19.375  10.102
31585W        W96812  27.463  20.613  13.848
31586W        W96813  11.284  24.631  12.059
31587W        W96814  10.656   9.917  12.454
31588W        W96815  15.296  39.445   0.435
31589W        W96816  17.305   9.187  12.454
31590W        W96817  18.280   3.121  11.996
31591W        W96818  28.021  23.161  12.450
31592W        W96819  30.637  20.834   2.859
31593W        W96820  23.417  33.336   3.427
31594W        W96821  30.422  30.706  14.409
31595W        W96822  35.388  24.488  11.699
31596W        W96823  37.888   2.937  12.928
31597W        W96824  32.873   5.482  11.021
31598W        W96825   5.795  27.729  12.484
31599W        W96826   6.757   6.277  11.628
31600W        W96827  30.936   6.726   3.748
31601W        W96828  17.243  41.934   0.681
31602W        W96829  17.742   3.910  11.564
31603W        W96830  33.754  11.458   0.763
31604W        W96831  44.621  27.713  10.059
31605W        W96832  31.610  11.403   2.291
31606W        W96833   7.618  32.821  11.935
31607W        W96834  43.191  34.103   2.260
31608W        W96835  12.841  11.351  14.935
31609W        W96836  40.473  43.774  11.991
31610W        W96837  13.738   9.935  13.158
31611W        W96838  22.538  43.257  10.760
31612W        W96839   0.020  32.097  14.907
31613W        W96840  27.206  32.482  12.156
31614W        W96841  24.834  40.587   0.674
31615W        W96842  11.650  29.694  13.949
31616W        W96843  22.705  21.052  12.932
31617W        W96844  40.337   1.409   1.377
31618W        W96845  12.786   7.713  13.512
31619W        W96846  26.501   0.550   0.713
31620W        W96847  11.212  29.887   4.080
31621W        W96848  23.237  44.270  11.340
31622W        W96849  30.603  24.998  11.955
31623W        W96850  12.576   6.179   0.679
31624W        W96851  19.258  29.915   2.769
31625W        W96852  38.027  29.791   3.314
31626W        W96853  44.908  18.080  13.770
31627W        W96854  34.009  36.345   2.895
31628W        W96855  34.872  12.109   0.961
31629W        W96856   3.284  32.541  13.579
31630W        W96857  18.830  39.121  13.088
31631W        W96858  36.835   4.274   0.281
31632W        W96859  25.497  14.912  13.522
31633W        W96860  37.892   4.924   0.697
31634W        W96861  23.773  38.264   3.941
31635W        W96862  19.694  29.231   3.047
31636W        W96863  35.790  27.135  12.915
31637W        W96864  14.634  17.285  12.976
31638W        W96865  12.101   8.243   0.317
31639W        W96866  18.111   7.893   2.858
31640W        W96867  20.816  37.799  13.470
31641W        W96868  36.506  12.620   0.815
31642W        W96869   0.231  40.043   0.699
31643W        W96870   6.249  41.075  13.814
31644W        W96871  43.849   0.968  14.012
31645W        W96872  14.374  40.822  11.997
31646W        W96873  20.682  22.305   2.941
31647W        W96874   0.807   2.898   0.226
31648W        W96875  41.615  18.614  14.343
31649W        W96876   6.447   7.369  13.456
31650W        W96877  19.541  18.642  13.472
31651W        W96878   4.635  12.205   2.222
31652W        W96879  20.695  14.286  12.904
31653W        W96880  24.138   2.204  11.684
31654W        W96881  13.780   4.702   2.806
31655W        W96882  10.225  24.176   0.521
31656W        W96883   6.341  30.595  13.399
31657W        W96884  37.278  31.549   4.117
31658W        W96885  28.631  25.494   0.666
31659W        W96886   2.435  30.050   1.275
31660W        W96887   4.410  10.002   2.210
31661W        W96888   9.708  31.539   0.471
31662W        W96889  33.150  27.932   2.310
31663W        W96890   8.381  28.055   4.628
31664W        W96891  14.159   4.160   4.059
31665W        W96892  40.570  24.233   0.412
31666W        W96893  43.401  39.762  11.673
31667W        W96894  17.013  34.588  12.637
31668W        W96895  31.788   2.368  14.614
31669W        W96896  14.345  12.327   3.609
31670W        W96897  19.700  22.557   4.733
31671W        W96898  16.568  18.355   2.957
31672W        W96899  35.989  18.107   1.328
31673W        W96900  11.639  18.666   0.710
31674W        W96901   1.291  15.649  10.717
31675W        W96902  42.747   2.065   4.054
31676W        W96903   2.935  42.354   0.971
31677W        W96904  35.591  12.452  12.379
31678W        W96905  23.944  17.655   0.222
31679W        W96906  37.319  14.575  14.424
31680W        W96907  16.170  30.207   3.204
31681W        W96908  28.755  34.574  14.254
31682W        W96909  17.913  29.483  11.506
31683W        W96910  37.003   2.906   3.311
31684W        W96911  29.900  31.018  13.342
31685W        W96912  19.316   6.743   3.308
31686W        W96913  12.351  25.022  11.766
31687W        W96914   8.346  34.881  10.615
31688W        W96915  39.946  40.350   1.280
31689W        W96916  28.471  23.717   1.956
31690W        W96917  42.697  24.192   1.860
31691W        W96918  19.976  37.584  13.576
31692W        W96919   2.791  28.044   0.528
31693W        W96920  43.672  18.160   0.314
31694W        W96921  27.935  37.803  13.386
31695W        W96922  31.875  23.996  11.576
31696W        W96923  18.229  26.022   2.005
31697W        W96924  38.259   7.262   3.761
31698W        W96925  37.554  37.344   1.441
31699W        W96926  18.992  39.583   0.860
31700W        W96927  11.962  43.309   1.617
31701W        W96928  35.053  39.335  10.683
31702W        W96929   6.994  30.107  13.108
31703W        W96930   3.528  31.641   3.115
31704W        W96931  13.641  12.556   5.235
31705W        W96932  15.191   3.478  13.391
31706W        W96933  21.868  36.024  11.147
31707W        W96934  37.822  36.375  12.456
31708W        W96935  20.057  31.510   1.202
31709W        W96936   2.971  22.999  11.989
31710W        W96937  12.251  11.166   4.508
31711W        W96938  13.042  25.505   2.574
31712W        W96939   6.926   0.611  12.785
31713W        W96940   4.098   2.973   4.630
31714W        W96941   9.693  15.757   0.663
31715W        W96942  33.173  43.545  13.478
31716W        W96943   3.292  41.724   3.722
31717W        W96944  30.061  36.351   4.167
31718W        W96945  29.829   5.992  13.376
31719W        W96946   8.210  31.908   3.596
31720W        W96947   8.935  14.880  14.634
31721W        W96948  17.607  23.186  12.629
31722W        W96949  24.650  12.167   3.526
31723W        W96950   8.564  33.496  10.277
31724W        W96951  26.883  14.183   4.053
31725W        W96952  39.297  25.152  12.091
31726W        W96953  13.103  41.785   4.123
31727W        W96954  21.512  30.466  11.451
31728W        W96955  34.922  44.241  10.807
31729W        W96956  15.226  26.632   0.784
31730W        W96957  41.421  12.100  12.975
31731W        W96958  34.376  28.140   0.778
31732W        W96959  10.138   8.012   4.075
31733W        W96960   0.549  15.497  10.007
31734W        W96961   8.891  22.994   0.968
31735W        W96962  14.704  38.689   4.158
31736W        W96963  34.458  16.329   4.740
31737W        W96964  33.020  10.460  12.116
31738W        W96965  21.180  17.485  11.514
31739W        W96966  28.129   6.987  12.379
31740W        W96967  16.082  26.738  14.560
31741W        W96968  40.415  11.734   2.722
31742W        W96969  15.550  20.046  11.546
31743W        W96970  25.036   9.354  11.938
31744W        W96971  23.773  15.359  14.936
31745W        W96972   8.326  25.828   2.209
31746W        W96973  30.877  40.397   3.383
31747W        W96974   0.454  20.615  11.698
31748W        W96975  41.317  28.744   3.333
31749W        W96976  44.863  39.282   2.329
31750W        W96977  44.047  27.911   4.157
31751W        W96978  26.309  30.935  14.880
31752W        W96979  15.694   9.571  12.095
31753W        W96980   9.409   0.506   4.219
31754W        W96981  27.706  25.736   1.771
31755W        W96982  35.817  33.566   0.004
31756W        W96983  19.450  36.513   0.294
31757W        W96984  41.847   5.501   2.336
31758W        W96985  36.826  29.905   2.682
31759W        W96986  30.122  11.076   5.097
31760W        W96987  43.938   4.195   0.374
31761W        W96988  43.975  10.592   2.845
31762W        W96989   5.168   5.787  10.797
31763W        W96990  35.970   3.289   4.712
31764W        W96991  28.164  30.537  13.303
31765W        W96992  20.334  20.704   4.722
31766W        W96993   3.923   6.725   3.616
31767W        W96994   2.188  10.146  11.203
31768W        W96995  40.485  14.517  13.079
31769W        W96996  42.979   7.387  10.677
31770W        W96997  33.666  23.669   2.447
31771W        W96998  21.503  23.569  10.945
31772W        W96999  24.276  31.737   1.324
31773W        W97000  18.818   2.298  14.403
31774W        W97001   4.740   0.405  13.543
31775W        W97002  16.562  36.465   0.354
31776W        W97003  15.335  24.841   2.876
31777W        W97004  18.346   3.520  10.746
31778W        W97005   5.843  10.062  12.612
31779W        W97006   0.252  13.084  11.226
31780W        W97007  30.494  10.758   4.955
31781W        W97008  42.609  17.897  12.067
31782W        W97009   2.187   0.559  11.469
31783W        W97010  20.911  17.139   3.558
31784W        W97011  17.791  21.197   1.882
31785W        W97012  13.562  28.129   2.258
31786W        W97013  35.373  19.526   3.842
31787W        W97014   4.128   8.433   4.189
31788W        W97015  29.649  42.731   4.860
31789W        W97016  33.342  28.265   0.936
31790W        W97017  40.799  41.024   2.797
31791W        W97018  11.819  28.524  11.658
31792W        W97019   0.096  40.784  12.532
31793W        W97020   8.702   8.867   0.859
31794W        W97021  17.677  37.553   5.077
31795W        W97022   5.074  31.890  10.957
31796W        W97023  35.563  35.909  14.945
31797W        W97024  21.258  25.985   2.795
31798W        W97025   8.687   3.974   2.202
31799W        W97026  39.990  36.608   4.605
31800W        W97027  43.366  21.674   4.246
31801W        W97028   4.781   5.750  13.938
31802W        W97029  30.533   2.943  12.445
31803W        W97030  20.185  13.104  13.285
31804W        W97031   3.273  22.500  11.429
31805W        W97032  30.155  38.541  14.858
31806W        W97033  41.431  33.166   4.026
31807W        W97034  42.628   9.723   1.210
31808W        W97035  25.239  27.095  12.443
31809W        W97036  15.089  40.595  13.635
31810W        W97037  38.482  11.158  10.661
31811W        W97038  18.878   5.203  12.647
31812W        W97039  30.564  15.892   2.164
31813W        W97040  12.379   6.454   3.755
31814W        W97041  20.774  43.038   9.868
31815W        W97042  35.157  43.714  12.812
31816W        W97043  20.180  26.500  11.156
31817W        W97044  42.911  36.229  14.282
31818W        W97045   7.438  19.197   2.516
31819W        W97046   6.245   8.758  12.353
31820W        W97047  39.489  13.328  12.447
31821W        W97048  11.601   1.312   4.502
31822W        W97049   4.708  25.676  10.239
31823W        W97050  18.163  29.401  13.294
31824W        W97051  41.879  13.903   4.996
31825W        W97052  17.655  19.043  11.556
31826W        W97053  21.078  13.048   2.209
31827W        W97054  25.674   3.377   1.616
31828W        W97055   6.006  35.073  12.478
31829W        W97056  11.363  26.256   0.347
31830W        W97057  20.827   8.751  13.574
31831W        W97058  40.027   6.391  14.058
31832W        W97059  32.425  17.533  11.766
31833W        W97060  11.397   5.346  12.866
31834W        W97061   0.941  11.901   4.096
31835W        W97062  15.517   0.932  13.530
31836W        W97063  44.542  21.271   2.880
31837W        W97064  13.294   3.836  10.589
31838W        W97065  38.834  19.648  12.765
31839W        W97066  11.269  26.008  12.534
31840W        W97067  30.389  41.064   3.173
31841W        W97068  30.469  22.773   2.244
31842W        W97069  19.290  44.339   3.022
31843W        W97070  20.484   8.756   2.693
31844W        W97071   0.856   6.749   4.114
31845W        W97072  29.628  31.045  12.446
31846W        W97073   7.710  31.516   2.874
31847W        W97074  28.920   5.892  12.410
31848W        W97075  28.165   6.582   2.420
31849W        W97076  36.977  17.174  13.855
31850W        W97077  39.330   3.157  13.635
31851W        W97078  11.320   8.660  13.362
31852W        W97079  20.746  18.227   0.012
31853W        W97080  32.897  29.602  14.799
31854W        W97081  13.774  14.171   2.741
31855W        W97082  24.184   3.783   3.450
31856W        W97083  34.775  43.231  12.018
31857W        W97084  44.039  30.680  12.638
31858W        W97085  18.479  40.579  11.127
31859W        W97086  27.229  21.588   4.835
31860W        W97087  25.765  17.441  10.799
31861W        W97088  25.087  15.518   3.041
31862W        W97089  43.323   3.476  10.474
31863W        W97090  18.485   9.719  11.181
31864W        W97091   4.625  21.690   3.325
31865W        W97092   3.908  17.538  14.417
31866W        W97093  22.528  39.644   2.165
31867W        W97094  26.574  22.015  11.577
31868W        W97095   7.387   5.415  10.815
31869W        W97096  12.990  22.795   1.176
31870W        W97097   3.447   2.450  10.654
31871W        W97098  30.992  37.573  12.145
31872W        W97099   3.450  17.267  14.457
31873W        W97100   7.815  18.339  13.133
31874W        W97101  24.137  17.606   1.657
31875W        W97102  16.383  38.016   2.796
31876W        W97103  40.824  40.906   1.368
31877W        W97104  32.915  17.349  11.900
31878W        W97105  14.723  23.335   1.149
31879W        W97106  44.273  21.770  10.161
31880W        W97107  21.130  37.783  10.905
31881W        W97108  23.724  20.752   4.167
31882W        W97109  39.597   3.690   3.713
31883W        W97110  15.892  43.886  14.855
31884W        W97111  17.790   9.881  13.457
31885W        W97112  41.410   0.513   3.959
31886W        W97113  34.542   6.236  11.541
31887W        W97114  13.666  42.000   1.065
31888W        W97115  32.464  44.996  14.322
31889W        W97116  26.675   2.778   2.014
31890W        W97117  40.861  18.045  12.181
31891W        W97118  23.115   7.184  14.790
31892W        W97119  36.919  26.904  11.054
31893W        W97120  25.392  41.438  12.124
31894W        W97121  34.370  30.983   1.693
31895W        W97122  44.851   1.285  13.867
31896W        W97123  17.147   4.711  10.483
31897W        W97124  39.713  25.643  14.040
31898W        W97125   7.939  15.051   1.808
31899W        W97126  25.732  17.220  13.936
31900W        W97127  13.996   8.546  13.694
31901W        W97128  34.360  17.494   1.438
31902W        W97129  40.448  17.916   1.789
31903W        W97130  30.324  15.996  14.746
31904W        W97131  44.034  22.376  13.959
31905W        W97132  44.867  21.113  14.013
31906W        W97133  38.033  41.956  14.280
31907W        W97134  33.837   6.929  12.577
31908W        W97135   6.156  11.498  13.326
31909W        W97136  32.386  29.573  14.909
31910W        W97137  16.662  32.432  14.816
31911W        W97138  44.593   4.953  12.240
31912W        W97139   0.778  23.772  10.134
31913W        W97140  23.946   1.279   3.151
31914W        W97141   4.069  25.096   4.276
31915W        W97142  43.187  26.674   1.823
31916W        W97143  36.195   1.220   1.918
31917W        W97144  24.978   8.810  13.329
31918W        W97145   9.212  37.131   0.669
31919W        W97146   7.850  16.569  12.411
31920W        W97147  41.059  44.812   2.856
31921W        W97148  17.363  15.232   1.237
31922W        W97149  32.116  11.344   2.256
31923W        W97150  40.680   4.266   3.247
31924W        W97151  14.776   6.284  10.594
31925W        W97152  27.053  34.877   2.747
31926W        W97153  13.679   6.875   4.845
31927W        W97154   8.726  16.313   2.764
31928W        W97155  23.228  32.124   2.824
31929W        W97156  29.608  42.766  10.289
31930W        W97157  43.201  15.261  10.315
31931W        W97158  40.303  13.245  14.841
31932W        W97159   5.789   7.882  13.147
31933W        W97160  23.084  22.348  13.521
31934W        W97161   7.708  26.868   3.754
31935W        W97162  25.931   9.818  10.784
31936W        W97163  22.065  27.389   1.163
31937W        W97164  26.009   1.883  12.591
31938W        W97165  38.312   5.629   0.169
31939W        W97166  32.975   0.442  12.191
31940W        W97167  33.429  26.170  12.852
31941W        W97168  40.741  27.453   1.429
31942W        W97169   9.873  18.652  12.198
31943W        W97170  14.926  22.188  10.282
31944W        W97171  31.597  24.102  12.009
31945W        W97172  42.774  39.038  11.952
31946W        W97173  40.636  29.104   2.688
31947W        W97174  42.017  29.741   0.955
31948W        W97175  28.423  40.217   3.644
31949W        W97176  20.935  38.031  14.530
31950W        W97177  19.826  33.592  11.527
31951W        W97178  33.546   7.838   4.572
31952W        W97179  18.375  39.348  12.897
31953W        W97180  24.549  15.054  14.608
31954W        W97181  19.334  19.086  12.812
31955W        W97182   3.466  44.646  12.181
31956W        W97183  26.604  33.547  13.355
31957W        W97184   0.250  36.897   2.773
31958W        W97185   6.779   1.029   3.516
31959W        W97186  37.341  38.548   2.300
31960W        W97187   1.020  37.115  11.452
31961W        W97188   9.593  12.884  11.450
31962W        W97189  11.130  39.035   2.416
31963W        W97190  44.295  31.125   2.346
31964W        W97191  38.361   5.210  13.609
31965W        W97192  34.569  34.760  14.875
31966W        W97193  32.235   2.202   3.548
31967W        W97194  29.545  17.959  11.132
31968W        W97195  17.635  21.752  13.856
31969W        W97196   7.159   4.212  12.205
31970W        W97197   0.907  15.268   1.281
31971W        W97198  12.998   2.335  12.381
31972W        W97199  40.174  38.017  11.241
31973W        W97200  37.425   9.590  14.578
31974W        W97201  20.733   2.458  14.940
31975W        W97202  14.467  12.126   2.803
31976W        W97203  13.644  44.080   4.630
31977W        W97204  14.542  35.351  14.866
31978W        W97205  36.361   3.421   0.248
31979W        W97206  33.152  28.068   1.410
31980W        W97207  31.311  35.811  12.032
31981W        W97208  29.221   8.652  14.099
31982W        W97209  25.442  22.742   0.741
31983W        W97210  17.062  22.361  12.294
31984W        W97211  24.203  33.806  10.646
31985W        W97212  44.365   8.125   0.442
31986W        W97213  44.499   3.416   4.545
31987W        W97214  22.783  39.693   4.111
31988W        W97215  38.538  35.666  12.945
31989W        W97216  14.890  10.241  11.588
31990W        W97217   3.790  16.076  14.337
31991W        W97218  42.646  40.758   2.782
31992W        W97219  20.649   9.628   0.899
31993W        W97220  35.517  11.758   3.042
31994W        W97221   7.449  12.569   4.194
31995W        W97222  14.141  43.950   1.381
31996W        W97223  36.889   2.757  10.752
31997W        W97224   9.196  13.776  10.760
31998W        W97225  44.276  19.015   3.710
31999W        W97226  11.352  23.785   3.837
32000W        W97227  44.012  31.088   0.196
32001W        W97228  36.728   3.863   2.661
32002W        W97229   3.814  24.542   1.483
32003W        W97230   7.406  39.246   4.556
32004W        W97231  16.410  21.011  14.448
32005W        W97232  24.088  22.967   2.270
32006W        W97233  33.465  28.901  14.774
32007W        W97234  28.060  28.729   0.779
32008W        W97235   3.287  36.417   2.375
32009W        W97236  37.364   3.785   3.319
32010W        W97237  21.087  37.130   3.628
32011W        W97238  32.490  13.170   3.206
32012W        W97239   9.051   4.493   0.253
32013W        W97240  28.154  39.147  13.423
32014W        W97241  41.946   6.836   0.235
32015W        W97242  24.193  27.204  11.560
32016W        W97243   5.814  30.026   3.193
32017W        W97244  30.498  13.622  14.311
32018W        W97245  42.937  38.811  10.633
32019W        W97246  22.773  26.683   2.294
32020W        W97247  11.668   6.749   3.690
32021W        W97248  18.315  10.252  12.012
32022W        W97249  31.613   0.952   4.585
32023W        W97250  38.538   5.442  14.633
32024W        W97251   4.220  34.447  12.944
32025W        W97252  31.389  29.343  14.897
32026W        W97253  22.116   7.105   3.467
32027W        W97254  12.961  32.902  11.567
32028W        W97255  19.516  10.234   1.331
32029W        W97256   0.311  12.436  14.611
32030W        W97257  26.496   1.400   0.295
32031W        W97258  36.062   6.742  11.996
32032W        W97259   1.873  42.809  12.026
32033W        W97260   5.489  13.026  12.845
32034W        W97261   1.051  31.629   1.839
32035W        W97262  32.527  30.437   0.320
32036W        W97263   9.923  18.863   2.622
32037W        W97264  42.784  37.122   1.772
32038W        W97265  42.852   0.342  11.451
32039W        W97266  41.297  28.412   1.326
32040W        W97267  38.081  22.720  12.788
32041W        W97268  32.819  42.336   2.424
32042W        W97269  16.475  30.116   0.491
32043W        W97270  35.031  21.696   3.798
32044W        W97271  33.365   3.355  13.031
32045W        W97272  26.851   8.776   1.754
32046W        W97273   8.988  36.716  10.958
32047W        W97274  39.842  28.020   2.249
32048W        W97275   7.343  31.720   0.812
32049W        W97276  41.618  42.055   4.121
32050W        W97277  39.141  37.154  10.910
32051W        W97278  41.322  40.865  14.240
32052W        W97279   5.522  31.934   2.338
32053W        W97280  18.082   5.298   0.709
32054W        W97281   9.420  11.818   4.598
32055W        W97282  42.464   6.714   0.272
32056W        W97283  43.923  23.183   4.190
32057W        W97284   7.683  33.326  12.503
32058W        W97285  16.133  44.647   2.692
32059W        W97286   0.818  10.751  14.771
32060W        W97287  26.142  25.168  13.932
32061W        W97288  25.376  25.485   1.016
32062W        W97289  10.649  31.022  10.954
32063W        W97290  11.062  44.832   1.398
32064W        W97291   2.300  36.070  12.134
32065W        W97292  23.218   3.448   0.826
32066W        W97293   8.913  17.033   2.187
32067W        W97294  17.178  14.864   2.844
32068W        W97295  20.186  40.743  13.464
32069W        W97296   0.741  22.246  14.015
32070W        W97297  37.997  42.989   4.200
32071W        W97298  44.410  30.001   3.593
32072W        W97299  37.069  36.778   1.001
32073W        W97300  38.804  31.396   4.137
32074W        W97301  25.410  41.242  14.088
32075W        W97302  42.776  37.064   0.863
32076W        W97303  21.174   8.799   3.686
32077W        W97304  20.728  16.356   4.074
32078W        W97305  10.836  39.091  11.071
32079W        W97306  28.639   2.832  11.093
32080W        W97307   8.853  17.816  14.021
32081W        W97308  15.579  38.569   2.314
32082W        W97309  31.510  15.503   2.731
32083W        W97310  12.801   1.779   1.863
32084W        W97311  10.123  42.259  11.228
32085W        W97312   7.766   3.577  10.730
32086W        W97313   7.028   0.904  12.363
32087W        W97314   3.010  17.938  12.565
32088W        W97315  27.504   0.082   4.772
32089W        W97316  20.342   8.897  10.611
32090W        W97317  26.919  33.406  12.474
32091W        W97318  11.319   9.835   4.186
32092W        W97319  32.042  26.052   3.345
32093W        W97320  15.211  30.459  12.805
32094W        W97321  18.690  16.131  13.431
32095W        W97322  16.702  12.189   2.196
32096W        W97323  21.462   7.804  12.522
32097W        W97324  39.889   7.569  12.902
32098W        W97325   6.861  37.048  13.628
32099W        W97326  24.649  22.374   2.764
32100W        W97327   0.774   6.296  14.715
32101W        W97328  12.164  33.881   3.215
32102W        W97329   7.585  18.002  14.435
32103W        W97330  34.200  33.988   0.263
32104W        W97331  36.132  33.650   1.447
32105W        W97332  43.482  24.960  11.174
32106W        W97333  31.506   4.936   0.367
32107W        W97334   6.267   3.885   1.839
32108W        W97335  38.521  18.315  14.286
32109W        W97336   2.969   2.322   4.987
32110W        W97337   5.322  35.214   1.824
32111W        W97338  38.450  25.539  11.580
32112W        W97339  21.275   0.454   2.621
32113W        W97340   4.429  17.641   2.922
32114W        W97341  39.343   9.779   2.232
32115W        W97342  19.181  41.039   3.244
32116W        W97343  17.268  44.349   1.854
32117W        W97344  26.697  29.602   0.535
32118W        W97345  31.018  31.896   1.131
32119W        W97346  23.171  43.435   3.721
32120W        W97347  20.283  10.869  11.644
32121W        W97348   6.221  31.906   4.558
32122W        W97349  43.494   7.449   1.787
32123W        W97350  31.925  40.237   2.275
32124W        W97351   8.384  22.090   1.845
32125W        W97352  40.408  30.016  10.368
32126W        W97353   4.129  34.716  13.386
32127W        W97354  17.284  10.338  12.066
32128W        W97355  39.119  30.936   2.721
32129W        W97356  42.903  13.826  13.399
32130W        W97357   3.285  31.819   4.921
32131W        W97358  35.791  40.764  12.409
32132W        W97359  42.763   5.207   1.793
32133W        W97360  17.014  43.290   2.775
32134W        W97361  13.645  10.884  13.791
32135W        W97362   3.623  12.816   3.863
32136W        W97363  21.657  34.087   3.635
32137W        W97364   2.419   4.491   3.212
32138W        W97365  23.976  32.859   4.288
32139W        W97366   7.725  40.312  12.890
32140W        W97367  18.185  37.325   4.010
32141W        W97368  20.331   3.136   1.071
32142W        W97369  27.737  18.642   3.119
32143W        W97370   0.968  15.202  13.079
32144W        W97371  31.640  11.870   4.411
32145W        W97372  34.950  14.052  12.110
32146W        W97373  42.397   9.793   0.754
32147W        W97374  20.514  23.404  14.878
32148W        W97375   7.817  23.695   4.645
32149W        W97376  40.483  39.318  13.486
32150W        W97377  29.595  44.012   0.890
32151W        W97378  38.862  26.556   4.554
32152W        W97379  30.591  17.093  12.305
32153W        W97380   7.222  37.884  14.448
32154W        W97381  44.503  11.196  12.945
32155W        W97382  32.142  27.656  13.632
32156W        W97383   0.816  25.149   0.117
32157W        W97384  12.392  35.484   0.980
32158W        W97385   0.731  28.960   2.874
32159W        W97386   6.021   8.911  10.710
32160W        W97387   5.907   7.784   1.761
32161W        W97388  27.531  10.163   4.603
32162W        W97389   5.412  44.077  11.160
32163W        W97390   2.173  24.967   3.661
32164W        W97391  39.856   0.228  11.597
32165W        W97392   3.730  42.181  11.071
32166W        W97393   4.870  14.855  13.404
32167W        W97394  41.949  20.640   0.649
32168W        W97395   2.915  21.042   3.170
32169W        W97396  14.881  29.936   3.793
32170W        W97397   2.414  25.451   2.327
32171W        W97398  12.622  25.229   1.884
32172W        W97399  13.225   2.034   0.947
32173W        W97400  32.576  26.749   2.281
32174W        W97401  23.727   1.286  13.786
32175W        W97402   9.075  20.408   1.805
32176W        W97403  24.306  26.487  14.447
32177W        W97404  11.309  41.062  13.976
32178W        W97405  15.265   4.598  11.944
32179W        W97406   2.810  38.032  13.784
32180W        W97407  43.335   1.726   4.108
32181W        W97408  40.424   2.773   3.152
32182W        W97409  44.923  35.110   3.726
32183W        W97410  19.013  36.926   0.753
32184W        W97411  44.067  32.143  11.110
32185W        W97412  42.362  12.199  11.636
32186W        W97413  44.028   2.759  14.391
32187W        W97414  19.240  32.150   1.245
32188W        W97415  21.680  15.222  12.638
32189W        W97416  35.762   9.833   3.884
32190W        W97417  27.998   4.263   0.456
32191W        W97418  21.221  19.889  11.923
32192W        W97419   5.439  42.534   4.083
32193W        W97420  38.751  39.581   2.323
32194W        W97421   0.986  36.175   3.170
32195W        W97422   8.892  21.177   3.250
32196W        W97423   0.904  42.192   2.679
32197W        W97424  19.343  33.509   1.543
32198W        W97425   9.312  38.911   0.235
32199W        W97426  43.063   9.095  14.814
32200W        W97427  35.354  10.416   3.168
32201W        W97428  37.436  14.624   0.898
32202W        W97429   1.180  31.040   0.797
32203W        W97430   8.093  35.248   2.808
32204W        W97431  23.918   2.631   0.301
32205W        W97432  32.419   2.061  11.566
32206W        W97433  36.900  39.857   1.802
32207W        W97434   5.387  31.207  12.167
32208W        W97435  15.574  15.097   0.364
32209W        W97436   8.635  43.447  14.901
32210W        W97437   1.487  41.739  13.544
32211W        W97438  16.627  22.109  11.270
32212W        W97439   8.352  22.790  13.904
32213W        W97440  16.295  18.686  13.855
32214W        W97441  20.769  28.951  13.930
32215W        W97442  26.077  23.708  13.117
32216W        W97443   0.984   3.853  10.925
32217W        W97444  44.153   5.743  13.071
32218W        W97445  29.846  21.970  14.539
32219W        W97446  17.627  11.124   1.217
32220W        W97447  33.032  13.137  13.376
32221W        W97448  18.720  26.153  14.942
32222W        W97449  11.279  25.456   4.084
32223W        W97450  41.576  10.155  11.964
32224W        W97451   5.255  41.970  11.522
32225W        W97452  28.147  24.717  14.056
32226W        W97453  28.145  15.118   0.288
32227W        W97454  12.295  26.051   2.792
32228W        W97455   2.937   2.237  12.633
32229W        W97456  34.331  17.965  10.823
32230W        W97457  36.178  23.458  14.941
32231W        W97458  40.916  25.483  10.729
32232W        W97459   4.331  19.795  14.430
32233W        W97460  19.626  35.867  13.565
32234W        W97461  39.853   2.421  13.552
32235W        W97462  32.637  19.266   2.388
32236W        W97463  10.386  28.349  12.544
32237W        W97464  12.899   1.371   0.502
32238W        W97465  43.647  42.034   0.781
32239W        W97466  41.005   4.643  12.456
32240W        W97467  21.605  29.276   2.836
32241W        W97468   9.907  14.789  14.461
32242W        W97469  21.231  16.665   0.020
32243W        W97470  28.255  33.152   3.291
32244W        W97471  44.584   0.027  12.482
32245W        W97472  20.325   9.702  13.349
32246W        W97473  14.298   1.692   4.159
32247W        W97474   6.166  28.464  11.035
32248W        W97475  22.735  40.041   1.849
32249W        W97476   8.934  37.217  11.141
32250W        W97477  32.073  38.660   3.559
32251W        W97478  42.333  29.270  12.538
32252W        W97479  29.185  42.890  13.052
32253W        W97480  36.529  19.225  12.599
32254W        W97481  21.612   2.608   0.933
32255W        W97482   9.999  10.841  12.034
32256W        W97483   8.446   4.642   4.533
32257W        W97484  13.614  14.878  14.604
32258W        W97485  38.071  36.552   4.326
32259W        W97486  21.004   0.878  14.852
32260W        W97487  25.123  11.888  13.075
32261W        W97488   0.904  10.997  13.851
32262W        W97489   7.862  28.822  14.355
32263W        W97490  24.131  14.517  13.803
32264W        W97491  10.802  19.575   1.846
32265W        W97492  29.726   8.180  12.068
32266W        W97493  21.313   0.719  13.287
32267W        W97494  17.644  13.326  14.563
32268W        W97495  30.018  44.517   2.715
32269W        W97496   9.856  29.866   3.663
32270W        W97497   1.453   8.843   4.671
32271W        W97498  16.854  25.375   0.695
32272W        W97499  36.747  22.742   4.678
32273W        W97500   9.284   5.220   3.335
32274W        W97501  33.144  19.723   4.593
32275W        W97502  17.609  34.298  14.237
32276W        W97503   7.854  26.682  13.822
32277W        W97504   3.241   3.923   1.263
32278W        W97505  17.409  42.025   5.410
32279W        W97506  17.757   4.392   3.126
32280W        W97507   3.026  40.843   4.245
32281W        W97508   9.902   1.434  12.025
32282W        W97509  18.283  21.653   1.164
32283W        W97510  39.517  14.608  11.323
32284W        W97511  40.866  38.256   1.868
32285W        W97512  39.806  25.867  12.642
32286W        W97513  17.069  15.207   0.805
32287W        W97514   5.953   3.657  12.529
32288W        W97515   8.196  31.180   0.491
32289W        W97516  26.583  18.055  14.454
32290W        W97517   8.947  33.643   0.144
32291W        W97518  29.544  19.123   3.237
32292W        W97519  23.973  35.028  12.989
32293W        W97520  42.348  26.518  14.918
32294W        W97521  33.136  21.138   4.142
32295W        W97522  28.163  24.595   3.635
32296W        W97523  34.849  44.468  12.543
32297W        W97524  29.849  36.828   2.738
32298W        W97525   6.864  27.215   4.546
32299W        W97526  36.620   8.775   2.220
32300W        W97527  26.587  29.715  12.003
32301W        W97528  20.326  22.341   0.488
32302W        W97529  17.799  34.991   2.266
32303W        W97530   5.588  19.571  14.051
32304W        W97531  36.844  22.295   4.992
32305W        W97532  37.527  39.369  10.746
32306W        W97533  22.072  13.186   2.147
32307W        W97534  39.024   8.161   5.260
32308W        W97535  19.239   9.234   1.398
32309W        W97536  21.416  29.955   1.263
32310W        W97537  29.005  30.478   0.081
32311W        W97538  13.784  10.579   3.591
32312W        W97539   1.013  13.698  14.952
32313W        W97540  14.327  43.505  14.872
32314W        W97541  26.495  35.069  14.560
32315W        W97542   6.633   2.778  12.432
32316W        W97543  28.433  20.343  11.146
32317W        W97544  33.870  33.423   4.365
32318W        W97545  18.606  19.961  13.501
32319W        W97546   9.117   6.402   1.512
32320W        W97547  23.594  13.537   1.241
32321W        W97548  14.805  36.296  12.356
32322W        W97549  43.081  21.006  11.224
32323W        W97550  20.163  44.532  14.842
32324W        W97551  43.679  30.882  14.707
32325W        W97552  14.424  27.495  11.977
32326W        W97553  41.852  32.420  12.730
32327W        W97554  23.474  13.628   2.613
32328W        W97555  36.560   1.062   2.696
32329W        W97556  33.020  27.195  12.607
32330W        W97557  13.060  13.623   1.809
32331W        W97558   6.325  26.483  12.847
32332W        W97559  24.741  42.871   0.812
32333W        W97560  33.107  26.702   3.568
32334W        W97561  33.674  31.541  13.390
32335W        W97562  16.040   8.775   4.209
32336W        W97563   8.230  39.580   0.314
32337W        W97564  38.385  28.248  12.636
32338W        W97565  14.175  18.746   1.386
32339W        W97566  41.496   3.949  12.973
32340W        W97567  25.017  44.710   4.232
32341W        W97568   9.544  34.511   4.145
32342W        W97569  15.357  39.314  14.019
32343W        W97570  44.656  36.802   1.928
32344W        W97571  19.629   1.211   4.251
32345W        W97572   3.249  13.849   2.289
32346W        W97573  20.178  43.778   3.132
32347W        W97574  38.070  25.507   2.278
32348W        W97575  39.997  34.035   0.541
32349W        W97576   4.851  13.786  12.417
32350W        W97577  34.337   1.778  11.983
32351W        W97578  12.434  32.691  11.625
32352W        W97579  34.682  19.106   0.821
32353W        W97580  37.612  41.594   4.528
32354W        W97581  25.224  13.082  14.780
32355W        W97582  19.421  25.123   1.599
32356W        W97583  15.869  39.840  11.141
32357W        W97584  16.307   0.894  14.528
32358W        W97585   6.365  34.161   1.257
32359W        W97586   4.750  18.960   5.157
32360W        W97587  29.534  31.446  11.482
32361W        W97588  21.474  44.785  12.546
32362W        W97589  25.802  11.415   3.382
32363W        W97590  14.860  38.005   1.064
32364W        W97591  12.528  27.480   1.843
32365W        W97592   9.687  16.806   0.829
32366W        W97593  25.647   2.782  11.079
32367W        W97594  36.418  10.425   2.219
32368W        W97595  39.265  33.495  13.379
32369W        W97596   9.479  20.655   0.712
32370W        W97597  37.118   0.286  11.179
32371W        W97598  31.000  38.597  11.822
32372W        W97599   2.955  33.493  11.597
32373W        W97600  38.291  26.680   0.132
32374W        W97601  18.600  36.793   0.485
32375W        W97602  13.490   8.317   4.437
32376W        W97603  25.601   9.910   3.389
32377W        W97604  39.455  38.477  11.638
32378W        W97605   1.613  40.105   1.789
32379W        W97606  22.167  20.805  13.562
32380W        W97607  17.680   7.919  14.397
32381W        W97608   1.870  40.876  12.555
32382W        W97609  44.757  30.135  14.785
32383W        W97610  15.657  44.348   4.619
32384W        W97611  12.096  19.803   1.399
32385W        W97612  37.025  25.203  12.551
32386W        W97613  20.956  27.520   1.272
32387W        W97614   1.318  44.423  13.139
32388W        W97615  43.903  18.675   3.043
32389W        W97616  21.515  26.627  12.810
32390W        W97617  12.674  11.547  13.352
32391W        W97618   0.917  38.934   0.179
32392W        W97619  34.437  40.174   4.607
32393W        W97620  21.950  18.751   4.144
32394W        W97621  44.408  18.766   1.845
32395W        W97622  29.607  23.905   5.001
32396W        W97623  11.394  37.642   5.092
32397W        W97624  19.515  23.617  12.049
32398W        W97625  34.450  42.872  13.126
32399W        W97626   2.757  24.349   0.381
32400W        W97627  19.641  39.071   2.263
32401W        W97628  21.556  36.112  12.071
32402W        W97629   9.615  42.784  11.634
32403W        W97630   2.194   8.681   2.455
32404W        W97631  38.971  27.162   3.859
32405W        W97632   7.742  38.256  10.789
32406W        W97633  29.096  38.408   0.342
32407W        W97634  10.675  22.206  10.433
32408W        W97635  24.683  27.439  14.945
32409W        W97636  38.117  24.221  11.141
32410W        W97637  44.711  27.948  14.429
32411W        W97638  43.560  28.583   2.503
32412W        W97639  35.898   6.337   2.364
32413W        W97640  12.143   5.651  12.182
32414W        W97641  18.566  19.871   3.134
32415W        W97642  27.278  14.184  13.421
32416W        W97643   5.213  23.169   0.586
32417W        W97644  35.947  22.182  13.615
32418W        W97645  34.002  32.755  13.269
32419W        W97646  29.502  10.641   3.090
32420W        W97647   1.360  13.299  13.568
32421W        W97648  41.797   9.202  12.619
32422W        W97649  14.130  39.008  13.883
32423W        W97650   1.924  18.452   3.416
32424W        W97651  27.026  31.234  13.570
32425W        W97652  43.774   4.616   3.740
32426W        W97653  24.206   4.458   1.120
32427W        W97654  36.393  17.586   1.934
32428W        W97655  21.224  22.531   4.468
32429W        W97656  23.467  13.641  13.504
32430W        W97657  36.344  13.574   1.345
32431W        W97658  38.288   3.599  10.640
32432W        W97659  40.746  37.604   1.023
32433W        W97660  33.823   0.071  12.016
32434W        W97661   3.907  36.796  12.391
32435W        W97662  26.032  43.859   0.489
32436W        W97663  42.258  28.885  12.883
32437W        W97664  38.789  44.272   4.876
32438W        W97665  19.336  20.372   1.882
32439W        W97666  14.820  32.358   3.183
32440W        W97667  31.196  26.586  13.510
32441W        W97668   1.867   9.730  11.898
32442W        W97669   4.367  13.813  13.496
32443W        W97670   2.998  32.523   2.624
32444W        W97671  28.008  41.351  14.397
32445W        W97672  28.345  25.690  11.147
32446W        W97673  18.581  17.332  13.992
32447W        W97674  22.233  11.247   1.971
32448W        W97675  41.047  29.533  13.869
32449W        W97676  40.477  32.137   2.843
32450W        W97677  21.838  39.997  12.596
32451W        W97678  41.847  11.872  10.987
32452W        W97679   4.036  36.993  13.637
32453W        W97680  40.737  36.638  10.775
32454W        W97681  27.742  31.647  12.537
32455W        W97682  41.377  12.837   3.298
32456W        W97683  14.234  43.597   5.195
32457W        W97684  11.940  27.639   3.318
32458W        W97685  12.752  40.249   4.579
32459W        W97686  26.047  18.730   2.318
32460W        W97687  25.098   2.504  11.910
32461W        W97688  11.326  13.359   2.219
32462W        W97689  23.594  40.196  14.491
32463W        W97690  24.073  16.280   4.241
32464W        W97691  23.631  14.848  11.929
32465W        W97692  34.448  20.845   2.630
32466W        W97693  13.213  39.095   2.306
32467W        W97694   3.290  12.396   3.880
32468W        W97695  15.094  32.378  12.010
32469W        W97696  18.088  38.747   0.269
32470W        W97697   0.965  29.637   0.821
32471W        W97698  26.867  23.581   0.704
32472W        W97699  22.004   2.199  11.160
32473W        W97700  44.050  26.190  11.270
32474W        W97701  16.167  26.988  11.938
32475W        W97702  23.782  23.987  12.878
32476W        W97703  33.318   7.742   4.108
32477W        W97704  39.259  36.452  10.729
32478W        W97705  36.315  41.779  10.811
32479W        W97706  11.833  24.593   3.596
32480W        W97707  39.454  18.694   4.128
32481W        W97708  23.086  10.956  13.993
32482W        W97709  16.802   7.112   3.703
32483W        W97710  36.815  13.841   2.196
32484W        W97711   8.760  11.235   4.081
32485W        W97712   8.968  40.043   0.291
32486W        W97713  33.900  42.576   0.261
32487W        W97714  24.228  20.008   3.680
32488W        W97715  15.752   2.498  12.711
32489W        W97716   1.506   8.428  11.550
32490W        W97717   5.188  14.160   4.754
32491W        W97718  40.050  34.658   0.768
32492W        W97719  12.331   7.210   4.264
32493W        W97720   0.793   3.949   0.441
32494W        W97721  29.441   5.927  12.515
32495W        W97722  17.028   0.985  10.390
32496W        W97723  18.693  30.502   1.127
32497W        W97724   6.657  40.305  11.927
32498W        W97725  18.791  29.631   2.689
32499W        W97726  19.800  15.658   3.243
32500W        W97727  32.320  37.913  14.008
32501W        W97728   3.323  28.433  10.308
32502W        W97729  27.561  33.245  14.782
32503W        W97730  17.772  18.801  13.755
32504W        W97731  27.891  17.818  14.143
32505W        W97732  27.703  29.963   4.149
32506W        W97733  39.403  39.513  11.600
32507W        W97734   9.805  29.241  13.318
32508W        W97735  39.836  10.883   2.705
32509W        W97736  32.996   8.670  12.265
32510W        W97737  37.005   6.134   2.424
32511W        W97738  36.115   8.317  12.986
32512W        W97739  34.413  34.397  13.576
32513W        W97740   0.867  13.416  11.943
32514W        W97741  30.017  24.155  10.355
32515W        W97742  16.292   0.586   2.791
32516W        W97743  15.079  30.865  14.338
32517W        W97744  39.768  12.830   2.681
32518W        W97745  43.850  36.647  14.424
32519W        W97746  12.369  42.264  13.390
32520W        W97747  12.862  36.841  11.064
32521W        W97748  10.310  36.622   0.889
32522W        W97749  31.112  33.344  12.656
32523W        W97750   7.316  42.651  11.079
32524W        W97751  21.765   4.300  13.956
32525W        W97752  44.365  32.490   2.664
32526W        W97753  22.978   2.558  12.013
32527W        W97754  34.192   8.248   3.852
32528W        W97755   0.028  44.573   3.304
32529W        W97756  37.346  21.042   1.765
32530W        W97757  18.557  32.986  10.660
32531W        W97758  12.354  12.107  14.528
32532W        W97759  13.803  11.294   2.684
32533W        W97760  21.331  33.989   1.298
32534W        W97761  16.067   0.743  11.231
32535W        W97762   3.491   4.384  12.898
32536W        W97763  30.964  39.313   2.850
32537W        W97764  37.328  16.308  11.480
32538W        W97765  21.077  10.321  10.570
32539W        W97766   5.846  33.118  14.048
32540W        W97767  43.417   5.185   5.403
32541W        W97768  24.677  20.536   0.302
32542W        W97769  12.478  36.479   4.374
32543W        W97770   3.784  12.695  13.317
32544W        W97771  16.892  42.532  13.836
32545W        W97772  15.503  42.893  14.474
32546W        W97773  44.487  42.583   0.611
32547W        W97774  30.982  38.454  12.346
32548W        W97775   1.307   8.202  13.316
32549W        W97776  19.249  18.980   3.590
32550W        W97777  35.497  36.633  11.157
32551W        W97778  11.757  40.793  12.894
32552W        W97779   1.687  20.685  11.184
32553W        W97780  30.499  26.019   2.832
32554W        W97781  29.183  24.084  12.466
32555W        W97782  37.076  16.755   1.711
32556W        W97783  13.677  41.489   3.796
32557W        W97784   2.974   0.395  14.346
32558W        W97785  14.447  18.684   1.802
32559W        W97786  23.157  31.047  11.014
32560W        W97787  32.170  29.654   1.692
32561W        W97788   4.567  22.610  10.647
32562W        W97789   5.597  43.256   0.474
32563W        W97790  26.091   4.812  12.329
32564W        W97791  42.604  38.282  14.882
32565W        W97792  16.832  31.698  13.022
32566W        W97793  31.820  16.255  11.098
32567W        W97794   6.243  22.522  11.980
32568W        W97795  30.650  28.727  12.580
32569W        W97796  41.877  29.597  11.143
32570W        W97797   5.091   8.091   4.119
32571W        W97798  33.556  34.046   4.955
32572W        W97799  44.330  18.381   4.050
32573W        W97800  28.923  30.047  14.807
32574W        W97801  21.460  13.125   3.174
32575W        W97802  21.381  15.213   2.351
32576W        W97803  23.278  42.434   2.891
32577W        W97804  34.778  35.888  12.854
32578W        W97805  24.766  30.614  14.956
32579W        W97806  27.978  33.384  13.170
32580W        W97807  41.811  12.784  13.715
32581W        W97808   3.556  26.547   2.296
32582W        W97809  42.470  23.190   2.181
32583W        W97810  13.782  37.362   4.588
32584W        W97811  42.296  12.110   3.315
32585W        W97812   3.917  14.309   2.180
32586W        W97813  25.825   4.403   0.602
32587W        W97814  18.377  20.114  11.779
32588W        W97815   7.870  39.147  11.949
32589W        W97816  17.633  39.585   2.895
32590W        W97817  18.247  29.917  12.577
32591W        W97818  21.989  20.255   3.151
32592W        W97819  39.034  33.083  11.080
32593W        W97820  40.527  23.041   2.975
32594W        W97821   4.489  21.660   0.548
32595W        W97822  27.563  28.669  11.961
32596W        W97823  34.588  21.215  12.840
32597W        W97824  10.933   0.313  11.015
32598W        W97825  33.363  43.627  12.106
32599W        W97826  25.014  22.193   3.711
32600W        W97827  13.445  26.693  10.693
32601W        W97828  28.223  44.361  12.965
32602W        W97829  17.402   5.917   4.041
32603W        W97830  15.460  20.497   2.846
32604W        W97831  21.684  23.509   2.121
32605W        W97832  30.956  10.769  12.099
32606W        W97833  19.570  10.314   4.112
32607W        W97834  32.334  23.092  11.537
32608W        W97835  35.587  41.364  11.540
32609W        W97836  22.701  25.080  13.902
32610W        W97837  30.734  33.134   3.178
32611W        W97838  32.099   9.372  12.915
32612W        W97839  25.908  11.092  12.087
32613W        W97840  19.032   5.757  13.884
32614W        W97841  34.547  39.291  14.312
32615W        W97842  30.154  30.275   0.368
32616W        W97843  30.459  31.529  14.955
32617W        W97844   8.782   6.198  13.981
32618W        W97845  33.870  42.199   4.595
32619W        W97846  15.203  17.985  12.986
32620W        W97847   0.289  32.129  10.594
32621W        W97848  19.948   1.948   1.719
32622W        W97849  30.149  25.180  12.687
32623W        W97850  15.455  35.858   1.343
32624W        W97851  36.781  43.442  12.977
32625W        W97852  39.753   0.327  13.580
32626W        W97853  16.433   5.879  11.353
32627W        W97854  35.388  41.965   2.228
32628W        W97855   4.328  32.363  12.534
32629W        W97856  27.060  11.705   3.661
32630W        W97857  18.684  22.336   2.197
32631W        W97858  13.190  17.596   4.106
32632W        W97859  13.349   1.002   1.804
32633W        W97860  24.190  25.646   3.407
32634W        W97861   0.082   5.162   4.615
32635W        W97862  22.672  18.512   3.230
32636W        W97863  24.751  42.384  13.461
32637W        W97864  30.567  13.426  11.731
32638W        W97865  21.823  12.028  13.496
32639W        W97866   0.525   9.073   2.329
32640W        W97867  16.025   1.725   5.100
32641W        W97868  20.072   7.310   3.702
32642W        W97869  22.018  19.449  14.941
32643W        W97870  38.355  16.281  12.376
32644W        W97871  27.641  27.696   1.704
32645W        W97872   9.375  15.462   0.238
32646W        W97873  31.293   2.498   5.043
32647W        W97874  23.457   8.867   2.846
32648W        W97875  27.743  16.414  14.843
32649W        W97876   6.078  12.608  13.940
32650W        W97877  24.471  14.821   1.673
32651W        W97878  11.779   4.466   3.774
32652W        W97879  43.842  35.088   4.449
32653W        W97880   8.105   1.350   1.333
32654W        W97881  42.293  11.261  14.534
32655W        W97882   8.862   2.287  11.959
32656W        W97883  11.764  22.191  14.948
32657W        W97884  30.638   8.714  12.520
32658W        W97885  27.956  27.011  14.883
32659W        W97886   6.890   6.616   1.002
32660W        W97887   7.137  24.093   1.743
32661W        W97888  22.667  30.988   1.696
32662W        W97889  31.547   5.196  11.277
32663W        W97890  23.244  26.800  14.392
32664W        W97891  16.645  22.643  10.499
32665W        W97892  20.752   9.679  12.434
32666W        W97893  41.391  42.119   0.485
32667W        W97894   5.343   2.860   2.221
32668W        W97895  14.241  21.144  11.939
32669W        W97896   5.176  28.088  11.051
32670W        W97897   3.771  21.504   4.625
32671W        W97898  35.841  13.267  13.325
32672W        W97899  42.460  34.850   3.842
32673W        W97900  22.729  39.668  12.524
32674W        W97901  17.825  10.237   0.889
32675W        W97902   8.449  21.144  12.502
32676W        W97903  18.388   9.083  14.766
32677W        W97904  18.225  24.072   1.576
32678W        W97905  35.361  30.497  13.524
32679W        W97906  42.652  13.173  13.971
32680W        W97907  42.799  29.664  13.267
32681W        W97908  14.165  18.122  12.074
32682W        W97909  17.824  14.014  13.790
32683W        W97910  40.394  25.096   0.370
32684W        W97911  31.465  20.495   4.393
32685W        W97912  38.138  29.573  11.410
32686W        W97913  43.237   2.401   2.224
32687W        W97914  34.094  15.949   1.162
32688W        W97915   4.600  10.326   4.710
32689W        W97916  17.397  19.398   4.605
32690W        W97917  33.358  11.591  12.065
32691W        W97918   8.694  35.358   1.394
32692W        W97919   0.827   1.883  11.127
32693W        W97920  10.573   7.248   0.510
32694W        W97921  23.070  27.022  11.186
32695W        W97922  34.434   7.712   2.138
32696W        W97923   2.917   4.994   4.035
32697W        W97924   8.306  32.370  13.950
32698W        W97925   3.627  19.603   2.537
32699W        W97926  27.357  25.453   3.270
32700W        W97927  22.127  16.689   1.686
32701W        W97928  26.051  10.249   1.690
32702W        W97929  10.686  14.342   2.354
32703W        W97930  24.044  20.702   2.451
32704W        W97931   2.232  35.721  10.417
32705W        W97932  28.012  17.782  11.607
32706W        W97933   0.059  39.565  13.975
32707W        W97934  21.594  39.264  12.825
32708W        W97935   8.074  15.740  12.800
32709W        W97936  16.899  13.558  13.855
32710W        W97937   6.390  21.876   1.385
32711W        W97938  19.889  35.497  14.257
32712W        W97939   9.104  40.650   0.826
32713W        W97940  11.194  22.741   2.233
32714W        W97941  36.019  12.678  14.549
32715W        W97942   3.847  42.663  14.108
32716W        W97943  20.454  18.390   4.996
32717W        W97944  23.135   9.024   4.088
32718W        W97945   6.860  41.248  12.562
32719W        W97946   2.519  39.860  13.650
32720W        W97947  36.570   5.430  12.483
32721W        W97948  28.986  26.657   2.328
32722W        W97949  20.763  28.112  11.167
32723W        W97950  20.227  38.427  13.570
32724W        W97951  15.098   6.687  10.632
32725W        W97952  38.299  23.049   0.799
32726W        W97953   5.221   0.949   0.419
32727W        W97954  16.120   4.670   4.572
32728W        W97955   0.231  10.465  13.790
32729W        W97956  33.102  20.016  14.979
32730W        W97957  41.559  13.649  13.366
32731W        W97958  14.926  20.458  12.086
32732W        W97959  44.434  13.388   1.419
32733W        W97960   4.673   7.668  13.956
32734W        W97961  31.983  26.495  14.882
32735W        W97962   2.006  31.051  11.863
32736W        W97963  28.031   3.370  14.627
32737W        W97964   6.963  20.267  11.276
32738W        W97965  21.373  12.082   3.348
32739W        W97966   0.845  39.026  14.680
32740W        W97967   7.164  25.694  11.595
32741W        W97968  24.215  28.042   1.400
32742W        W97969  29.218  19.261   0.406
32743W        W97970  22.981  20.509   4.560
32744W        W97971  42.601   4.424  12.921
32745W        W97972  43.278   0.554  11.670
32746W        W97973  30.639  25.852  11.123
32747W        W97974  17.559  25.636  11.741
32748W        W97975  39.910  19.057   3.226
32749W        W97976  18.698  40.416  10.686
32750W        W97977  12.965  20.295  11.043
32751W        W97978  42.873  21.988  12.515
32752W        W97979  35.088   1.905   0.747
32753W        W97980   7.340  10.851  12.009
32754W        W97981  26.317  43.911   0.924
32755W        W97982  44.886  30.631  12.117
32756W        W97983  38.077  18.048  14.413
32757W        W97984  21.077  15.109   4.831
32758W        W97985   5.660  13.157  10.370
32759W        W97986   3.524  31.705   0.947
32760W        W97987  38.570  12.930  14.959
32761W        W97988  16.688  35.310  11.989
32762W        W97989  22.807   9.720   4.740
32763W        W97990  32.191  25.056   1.197
32764W        W97991   2.156  42.315  11.146
32765W        W97992  10.348  37.468   2.577
32766W        W97993  19.303  29.775   3.783
32767W        W97994  37.526  39.018   1.003
32768W        W97995  22.778  34.053   0.755
32769W        W97996  11.240  25.647  11.601
32770W        W97997  12.610  22.098   0.270
32771W        W97998  29.040   9.283   0.977
32772W        W97999  17.376  39.937   3.296
32773W        W98000  41.347  43.373   0.855
32774W        W98001  30.663   1.282   3.771
32775W        W98002  24.792  37.994  14.891
32776W        W98003  40.935  31.452   1.072
32777W        W98004  34.453   0.855   2.457
32778W        W98005   3.345  41.114   2.870
32779W        W98006  41.248  13.823  11.077
32780W        W98007  21.564  44.729   2.131
32781W        W98008  42.986  34.944   0.416
32782W        W98009   5.826  44.278  12.899
32783W        W98010  12.351  21.414  12.006
32784W        W98011   5.336  40.100  10.698
32785W        W98012  17.607   6.584   3.692
32786W        W98013  33.122  22.487   4.794
32787W        W98014  18.493  11.109  14.289
32788W        W98015   7.744   7.321  11.395
32789W        W98016  20.932  21.802  13.288
32790W        W98017  14.622   4.333  11.579
32791W        W98018  27.688  35.089  11.242
32792W        W98019  11.112  28.685   4.552
32793W        W98020   7.442  17.641  12.170
32794W        W98021  25.233  35.799   3.618
32795W        W98022  40.451   0.972   4.087
32796W        W98023   5.594   9.822   4.091
32797W        W98024  25.421  40.491   4.062
32798W        W98025  34.836  23.557   5.293
32799W        W98026  11.799  19.123  14.886
32800W        W98027  21.576  10.343  13.257
32801W        W98028   9.839  13.801  12.999
32802W        W98029  16.670  18.983   0.233
32803W        W98030  36.974  35.152  14.714
32804W        W98031  32.759  27.561  10.071
32805W        W98032   3.357  14.058  13.730
32806W        W98033  35.602   5.228  10.627
32807W        W98034   2.570  25.971  12.657
32808W        W98035  22.508   5.866   3.291
32809W        W98036  16.669  23.744   2.244
32810W        W98037  37.584  22.652   2.419
32811W        W98038  24.920   6.818  14.933
32812W        W98039  25.096  22.694  14.282
32813W        W98040  33.969  30.702   1.040
32814W        W98041  11.175  32.898   1.034
32815W        W98042  11.058   3.500  12.915
32816W        W98043  24.292   1.921  14.546
32817W        W98044   7.811  10.889  13.087
32818W        W98045  29.603   0.323   1.244
32819W        W98046  44.543  34.475  11.325
32820W        W98047  12.532   3.391  13.073
32821W        W98048  11.632  22.585   3.676
32822W        W98049  29.451  16.445   0.570
32823W        W98050  20.276  20.685   0.006
32824W        W98051  43.432   7.736  14.903
32825W        W98052  20.087   5.519   0.923
32826W        W98053  30.073  33.123   4.466
32827W        W98054  34.370   2.401   1.370
32828W        W98055  26.748   8.392  12.443
32829W        W98056  29.252   3.753  13.838
32830W        W98057  15.349  15.849  11.636
32831W        W98058  33.195  27.101  14.625
32832W        W98059  26.492   7.157   2.386
32833W        W98060  27.876  26.051   2.507
32834W        W98061   4.452  42.770   3.790
32835W        W98062   3.404  43.480   0.552
32836W        W98063  21.658  11.543  13.523
32837W        W98064   6.406  30.144  14.369
32838W        W98065  15.583  19.200  11.520
32839W        W98066  42.323  41.077   3.027
32840W        W98067  39.755  43.901   2.598
32841W        W98068   5.666   2.856  10.626
32842W        W98069  28.934  42.254  14.486
32843W        W98070  13.590  35.534   0.044
32844W        W98071  31.922  29.675   1.201
32845W        W98072  18.736   2.306  11.495
32846W        W98073   0.376  25.845  13.919
32847W        W98074  20.882   1.886  12.480
32848W        W98075  25.542  18.592  10.768
32849W        W98076  28.145  31.523   4.924
32850W        W98077  30.720  18.987   0.353
32851W        W98078  20.766  41.434   4.967
32852W        W98079   1.557   8.261  12.033
32853W        W98080  22.151   0.163   1.127
32854W        W98081  30.546  43.949  12.046
32855W        W98082  10.841  26.116   2.197
32856W        W98083  24.490  41.882  11.964
32857W        W98084  34.654  14.680   3.135
32858W        W98085  43.196  32.267  14.531
32859W        W98086  19.643   7.303   4.002
32860W        W98087  25.202   6.197   1.904
32861W        W98088   8.289  32.691   4.913
32862W        W98089  16.263  15.596   2.868
32863W        W98090  30.882  19.200   3.812
32864W        W98091  28.539  18.610  13.086
32865W        W98092  25.542  17.091   0.255
32866W        W98093  44.668  21.230   1.778
32867W        W98094  37.695  21.883  10.532
32868W        W98095  34.999  22.740  14.643
32869W        W98096  31.664  30.651  11.078
32870W        W98097  10.069  22.664   1.257
32871W        W98098  11.765  43.816   3.640
32872W        W98099  26.251  26.341  10.452
32873W        W98100   0.506  15.829  14.133
32874W        W98101   7.699  18.346   4.663
32875W        W98102  29.053  41.368   2.890
32876W        W98103   5.331  19.993  12.633
32877W        W98104  44.041  23.614   2.886
32878W        W98105   3.953  11.332  14.997
32879W        W98106  17.022  14.266   1.847
32880W        W98107  44.066  37.435   3.122
32881W        W98108   8.883  21.962   1.737
32882W        W98109  14.321   7.890   0.041
32883W        W98110  13.514  31.568  10.323
32884W        W98111   1.178  40.452  10.727
32885W        W98112  13.031  12.695   1.963
32886W        W98113  20.457  11.837   1.480
32887W        W98114  31.670   7.253   4.265
32888W        W98115  23.445  29.130  11.176
32889W        W98116  11.765  13.048   2.220
32890W        W98117   8.328  20.308  12.140
32891W        W98118  20.804   4.219   0.408
32892W        W98119  15.607  12.819   4.554
32893W        W98120  16.819  14.028  10.519
32894W        W98121  43.221  17.252   3.633
32895W        W98122  15.789  40.535  12.860
32896W        W98123  31.979  21.633  14.872
32897W        W98124  22.299  41.433   1.294
32898W        W98125  13.735  10.895   1.693
32899W        W98126   9.739  44.529   1.233
32900W        W98127  33.659  21.399   5.084
32901W        W98128  24.138  35.593  13.749
32902W        W98129  30.465  32.969   2.778
32903W        W98130  16.903  24.157   2.432
32904W        W98131  18.018  44.338   9.965
32905W        W98132  36.774  43.498   3.318
32906W        W98133   6.956  10.816  11.631
32907W        W98134  34.688  36.821   3.916
32908W        W98135  33.531  42.702   2.056
32909W        W98136  15.253   1.642  12.968
32910W        W98137  41.382  32.050  14.529
32911W        W98138  42.184  36.355   3.814
32912W        W98139  43.781   7.226   1.402
32913W        W98140  16.250  27.393   2.219
32914W        W98141  33.125  23.087   0.337
32915W        W98142  17.288  13.830   1.765
32916W        W98143  20.550   5.850   2.786
32917W        W98144   5.274  20.849   4.153
32918W        W98145  12.402  20.666   1.184
32919W        W98146  20.406  27.487   4.336
32920W        W98147  39.477  43.767  14.945
32921W        W98148  37.031  32.642  14.380
32922W        W98149  22.491  40.455   1.267
32923W        W98150  24.480  39.064   1.402
32924W        W98151  41.185  35.518  10.872
32925W        W98152  22.668  35.675  13.486
32926W        W98153  17.156   2.240   4.401
32927W        W98154  38.968   0.243  12.502
32928W        W98155  42.227  14.717   0.771
32929W        W98156  28.327  14.592  12.588
32930W        W98157  17.703  25.853  11.204
32931W        W98158  35.320  25.087  14.875
32932W        W98159  43.837  11.348   1.257
32933W        W98160  19.858  25.216   2.074
32934W        W98161  18.264   7.710   3.338
32935W        W98162  37.845   6.611   1.390
32936W        W98163  29.092  19.740  11.479
32937W        W98164  20.640  29.788  10.784
32938W        W98165  23.796  43.299  10.231
32939W        W98166  27.601  38.377   1.889
32940W        W98167  30.692   6.258  12.495
32941W        W98168  28.204  27.418  13.294
32942W        W98169  20.825  15.156  13.045
32943W        W98170  22.224  17.340   0.277
32944W        W98171  29.234  37.551  14.880
32945W        W98172  38.815   1.686   4.188
32946W        W98173  42.814   9.276   2.287
32947W        W98174   6.402  10.249   4.025
32948W        W98175  38.054  32.382  13.033
32949W        W98176  13.033  42.861   0.210
32950W        W98177  14.001   7.694   4.102
32951W        W98178  37.926  21.998  14.988
32952W        W98179  32.492  12.944  14.889
32953W        W98180  16.606  25.837  12.157
32954W        W98181  14.996   8.731  13.341
32955W        W98182  35.737  28.427  11.908
32956W        W98183  40.877  27.245   3.678
32957W        W98184  34.700  11.887  11.620
32958W        W98185  40.470  18.101  13.070
32959W        W98186   4.293   6.733   2.261
32960W        W98187  21.979   5.810   3.301
32961W        W98188  15.399  17.095  12.702
32962W        W98189  36.557  37.093   3.216
32963W        W98190  24.539  30.635  14.485
32964W        W98191  28.131   9.748  13.404
32965W        W98192  27.696  41.321   0.804
32966W        W98193   0.467  35.662   4.051
32967W        W98194   7.194  39.897  12.513
32968W        W98195  27.266  17.149  12.436
32969W        W98196  32.393  31.917  13.371
32970W        W98197  15.659   3.878   2.196
32971W        W98198   4.739  16.544   1.351
32972W        W98199   7.266  42.482   3.620
32973W        W98200   5.896  32.683   4.750
32974W        W98201   8.215  21.347  12.950
32975W        W98202   1.985  37.955   2.320
32976W        W98203  44.832  19.741   0.622
32977W        W98204  19.294  29.166   1.403
32978W        W98205  37.061  25.118  11.245
32979W        W98206  21.561  37.088  14.002
32980W        W98207  21.808  32.523   4.249
32981W        W98208  39.878   2.444  11.210
32982W        W98209   3.196  12.758  11.137
32983W        W98210   7.607  30.713  13.019
32984W        W98211   2.890  41.338   9.818
32985W        W98212  31.698  11.039  13.407
32986W        W98213  23.203  29.959  11.196
32987W        W98214   9.692  41.352   4.115
32988W        W98215  34.157  16.849  10.026
32989W        W98216  24.612  42.752   1.949
32990W        W98217  18.065  28.558  13.820
32991W        W98218  23.041   7.646   2.318
32992W        W98219   4.011  28.501   0.327
32993W        W98220  26.959  30.227  13.484
32994W        W98221  29.860   0.334   3.272
32995W        W98222  34.191  27.491   2.109
32996W        W98223  22.554  18.115   4.492
32997W        W98224  14.297  36.789   0.035
32998W        W98225  41.478  22.581   3.696
32999W        W98226   2.797  12.658   0.274
33000W        W98227  26.316  32.086   1.249
33001W        W98228  41.047  19.995  11.641
33002W        W98229  28.020  24.148   0.784
33003W        W98230   2.282  10.227   3.246
33004W        W98231  10.827  41.860  10.845
33005W        W98232  24.538   0.860  14.539
33006W        W98233  26.136  34.666   3.842
33007W        W98234   4.983  19.512   1.214
33008W        W98235  10.956  33.429  14.810
33009W        W98236  15.257   2.344   1.701
33010W        W98237  26.880  28.176   1.426
33011W        W98238  34.824  42.317   0.522
33012W        W98239  17.477  30.002  14.441
33013W        W98240  14.331  16.323  11.614
33014W        W98241  39.750  16.630  10.934
33015W        W98242  33.606  17.747   4.980
33016W        W98243  23.687   1.802  13.745
33017W        W98244  29.664   0.425   0.721
33018W        W98245  33.562  40.048   2.627
33019W        W98246  37.160  26.005   4.276
33020W        W98247  27.119   3.723   2.814
33021W        W98248   5.784  42.724  13.786
33022W        W98249  36.282  26.030  10.780
33023W        W98250  38.736  44.168   2.677
33024W        W98251  33.505   5.727  12.998
33025W        W98252  40.329  38.818  13.558
33026W        W98253  23.528  41.033  10.531
33027W        W98254  14.667  42.646   3.365
33028W        W98255  44.284  34.540   1.893
33029W        W98256  44.410  41.302  13.886
33030W        W98257  44.812  27.415  13.523
33031W        W98258   8.783  42.381  11.486
33032W        W98259  30.144  10.461  12.815
33033W        W98260  35.981  25.681   1.999
33034W        W98261  29.650  20.649  11.978
33035W        W98262  31.196  35.453  11.636
33036W        W98263  32.056  14.059  14.710
33037W        W98264  39.900  24.753   3.228
33038W        W98265  31.549  33.512  14.874
33039W        W98266   6.837  41.050   0.728
33040W        W98267  11.796  16.434   4.598
33041W        W98268   7.152  18.613  10.724
33042W        W98269  23.315   1.870   3.417
33043W        W98270   9.004  40.501  11.554
33044W        W98271   0.820  34.421   3.702
33045W        W98272  17.790  17.399   1.578
33046W        W98273   9.720  33.052   3.811
33047W        W98274   5.844   9.627   0.096
33048W        W98275   7.171  43.635  11.187
33049W        W98276  34.379  12.425   3.139
33050W        W98277   2.316  24.280   5.474
33051W        W98278   5.631  34.644  11.030
33052W        W98279  42.858  43.702   4.569
33053W        W98280  10.290  36.078   4.583
33054W        W98281  15.356  12.552  14.718
33055W        W98282  13.197  11.819  10.748
33056W        W98283  43.500  43.863   2.817
33057W        W98284  34.456  10.891  11.134
33058W        W98285  21.958  19.146  14.512
33059W        W98286   7.172  25.417   3.726
33060W        W98287   2.226   1.859   1.882
33061W        W98288  16.106  40.255  11.374
33062W        W98289  18.754  15.186  14.437
33063W        W98290  23.593  38.019  13.589
33064W        W98291  21.665  34.519   4.636
33065W        W98292  16.531  22.209  14.214
33066W        W98293  42.239  26.603   4.155
33067W        W98294  29.451  40.170   4.431
33068W        W98295   3.521   1.194  13.497
33069W        W98296  29.167  25.739  14.820
33070W        W98297   1.335  33.042  12.248
33071W        W98298  17.653  28.318   2.535
33072W        W98299  27.417  44.965   0.888
33073W        W98300  21.441   5.252   1.701
33074W        W98301  11.392   5.780   0.915
33075W        W98302  32.552  27.766  13.909
33076W        W98303   4.739  34.476  12.778
33077W        W98304  18.181  42.966   2.219
33078W        W98305  42.052  32.611  11.722
33079W        W98306   0.633  43.802   3.203
33080W        W98307  24.508  44.687   5.064
33081W        W98308   8.722   4.498   2.199
33082W        W98309  39.818  16.106   2.264
33083W        W98310  15.643  22.303  14.388
33084W        W98311  12.878  31.387   3.621
33085W        W98312  13.621  10.317  14.983
33086W        W98313   0.920  34.188   3.248
33087W        W98314  38.513  20.659   1.409
33088W        W98315  27.131  44.220   1.290
33089W        W98316  19.060  29.130  11.947
33090W        W98317  25.727  36.587  10.654
33091W        W98318   8.536  31.709  14.325
33092W        W98319  20.132  21.864   1.332
33093W        W98320   8.494   0.296  11.184
33094W        W98321  34.904  33.045  14.484
33095W        W98322  37.853  38.979   4.256
33096W        W98323  36.939  29.293  14.883
33097W        W98324  21.779  19.604   0.463
33098W        W98325  28.920  29.102   2.445
33099W        W98326  17.474  41.916   4.511
33100W        W98327  42.036  13.353  11.486
33101W        W98328   8.913  41.281   2.732
33102W        W98329  10.415  31.024   2.818
33103W        W98330  40.520   3.218   0.485
33104W        W98331   7.851  16.199   0.060
33105W        W98332   8.927  18.473   4.123
33106W        W98333  32.235  24.856   2.560
33107W        W98334  19.294  14.634  11.741
33108W        W98335  29.566   1.771   1.295
33109W        W98336   5.248  28.579   0.959
33110W        W98337   4.953  23.937   4.050
33111W        W98338  33.236   0.321   1.279
33112W        W98339  24.158   8.279  13.099
33113W        W98340   2.170  34.391  14.046
33114W        W98341   1.689  18.561  12.473
33115W        W98342  11.835  42.165   2.614
33116W        W98343  39.039  43.373  12.123
33117W        W98344  40.854  28.372  13.125
33118W        W98345  39.088  16.064   2.830
33119W        W98346   2.938   5.970   3.606
33120W        W98347  37.666   0.045  10.293
33121W        W98348  29.129  39.474   4.298
33122W        W98349  42.933  17.025  11.855
33123W        W98350  25.261  16.345   2.661
33124W        W98351  18.687  28.389   0.276
33125W        W98352  32.654  27.059   1.872
33126W        W98353  36.151  43.768  11.162
33127W        W98354  20.353   6.329   2.879
33128W        W98355  22.186   3.955  14.305
33129W        W98356   9.636  35.979  11.101
33130W        W98357  28.190   0.353  13.789
33131W        W98358  40.930  21.634  13.991
33132W        W98359  42.757   1.257   0.116
33133W        W98360  31.374  11.194   2.755
33134W        W98361  39.489  43.646   3.888
33135W        W98362  38.817  36.513  14.350
33136W        W98363  23.534  10.806   3.652
33137W        W98364   6.649  32.412  11.067
33138W        W98365  24.715  39.399  13.300
33139W        W98366   2.899  31.593  14.968
33140W        W98367  23.523  35.751   3.974
33141W        W98368   1.461  28.826   4.438
33142W        W98369   9.190  23.665  14.895
33143W        W98370  23.118  42.519   5.446
33144W        W98371  13.313  38.328   2.780
33145W        W98372  29.320  15.211   3.751
33146W        W98373   4.313  30.613   3.418
33147W        W98374  16.616   1.691  11.993
33148W        W98375  23.178  29.094   2.815
33149W        W98376  24.674  10.914   0.418
33150W        W98377  30.542  10.843   4.034
33151W        W98378  30.549   7.624   3.601
33152W        W98379  43.444  29.480   1.620
33153W        W98380  17.036  31.982   3.634
33154W        W98381   4.364  30.458  12.570
33155W        W98382  25.238  13.742  13.200
33156W        W98383  18.002  44.513   2.766
33157W        W98384  41.841  43.276   2.380
33158W        W98385  32.001  20.709   0.368
33159W        W98386  10.311  23.520   4.670
33160W        W98387  10.295  29.600   3.802
33161W        W98388   1.681  41.798  12.967
33162W        W98389  15.328  43.797  13.727
33163W        W98390  44.822  31.533   4.056
33164W        W98391  17.563   5.016  13.947
33165W        W98392  41.142  29.371   1.084
33166W        W98393   1.506  43.518  14.477
33167W        W98394   8.872  43.110   2.338
33168W        W98395  44.711  41.855   4.936
33169W        W98396  22.037  10.621  14.779
33170W        W98397   7.243   2.529  13.390
33171W        W98398  44.803  11.811   2.606
33172W        W98399  28.164  43.962  11.552
33173W        W98400   4.446  30.157   2.313
33174W        W98401  34.057   6.017  10.740
33175W        W98402   0.299   9.954  13.135
33176W        W98403  30.749  27.183  12.567
33177W        W98404   6.817  39.482   4.414
33178W        W98405  35.050   6.148  14.360
33179W        W98406   7.880  30.103  13.916
33180W        W98407  11.226  40.248  10.904
33181W        W98408  41.762  36.144   3.619
33182W        W98409  38.628   9.080  11.459
33183W        W98410  12.499  44.056  12.822
33184W        W98411   6.090  14.776   5.483
33185W        W98412  23.813  21.007   1.824
33186W        W98413  38.939  34.886   3.759
33187W        W98414  43.204  22.564  14.390
33188W        W98415  25.856   6.581  14.943
33189W        W98416  10.245   6.076   2.682
33190W        W98417  14.046  28.373   2.691
33191W        W98418  32.386  40.684  11.174
33192W        W98419   6.871  38.420  10.686
33193W        W98420  13.214  27.099  12.615
33194W        W98421  22.198  16.347   0.001
33195W        W98422  21.625  28.938   3.815
33196W        W98423  38.953  37.420   2.351
33197W        W98424   8.722  10.300   3.889
33198W        W98425  14.938  29.131  13.425
33199W        W98426  24.507  18.367  10.692
33200W        W98427  42.139  16.658  10.781
33201W        W98428   7.726  35.415  14.689
33202W        W98429  15.668   5.663   0.512
33203W        W98430  16.831  23.281  13.265
33204W        W98431  33.494  19.945  12.519
33205W        W98432  16.149  21.280  10.697
33206W        W98433  22.557  14.357  10.630
33207W        W98434   4.916  26.150  10.148
33208W        W98435  14.546  42.919   4.254
33209W        W98436  21.572  16.709  12.978
33210W        W98437   0.731  25.660  12.643
33211W        W98438  39.936  26.083   3.861
33212W        W98439  28.164  21.557  13.119
33213W        W98440  33.548  24.740   3.795
33214W        W98441  13.983  15.609  14.548
33215W        W98442  13.690  10.568   3.050
33216W        W98443   7.799  33.495   0.892
33217W        W98444  36.376  32.579  10.748
33218W        W98445  11.801  43.770  11.561
33219W        W98446  10.000  12.715  11.724
33220W        W98447   1.970  18.376   4.745
33221W        W98448   7.474   0.513  14.136
33222W        W98449  26.629  27.857  11.651
33223W        W98450  40.086  19.994  13.013
33224W        W98451  40.906   6.990  14.342
33225W        W98452  18.030  42.082   0.384
33226W        W98453  16.228  20.463  11.900
33227W        W98454  16.194  23.791  12.045
33228W        W98455   0.550  32.527   1.364
33229W        W98456   1.074  12.594   3.254
33230W        W98457  22.947   5.803   1.261
33231W        W98458  16.629  30.690  10.566
33232W        W98459  20.161  15.040  11.829
33233W        W98460   4.002  27.521   3.153
33234W        W98461  24.561   6.671   2.348
33235W        W98462  25.532  16.105   3.868
33236W        W98463  37.341  32.100   4.758
33237W        W98464  31.171  24.295  11.735
33238W        W98465  30.058   9.739  11.646
33239W        W98466  32.539  42.450  12.480
33240W        W98467  18.761  18.051   0.308
33241W        W98468  19.529   2.201   4.134
33242W        W98469  35.103  23.600  10.478
33243W        W98470   6.302  38.855  11.963
33244W        W98471  17.526   0.663   1.574
33245W        W98472  10.563   0.785  11.740
33246W        W98473  21.170  37.847   1.431
33247W        W98474   1.888  35.699   1.898
33248W        W98475   0.482  30.640  14.909
33249W        W98476  11.417  35.764  11.477
33250W        W98477  21.360  28.586   4.771
33251W        W98478   3.270  20.486   3.945
33252W        W98479  15.357  15.595   0.490
33253W        W98480  16.996  17.109  11.559
33254W        W98481  29.652  41.865   4.541
33255W        W98482  38.061  35.328  10.827
33256W        W98483   4.357  16.853   1.851
33257W        W98484  36.377  33.173  13.208
33258W        W98485  23.045  25.327   4.838
33259W        W98486  35.095   8.895   4.553
33260W        W98487  15.312  40.339   2.243
33261W        W98488  18.243  14.879   1.736
33262W        W98489  15.287  37.616   4.662
33263W        W98490  19.559  42.293  13.466
33264W        W98491  33.054  16.791   2.189
33265W        W98492  15.490  22.227   1.401
33266W        W98493  11.647  15.637  11.188
33267W        W98494   7.835   2.444   3.153
33268W        W98495  32.835  35.347   4.034
33269W        W98496  15.531  16.139   4.447
33270W        W98497  14.194   7.939   0.544
33271W        W98498   2.034  16.784   0.945
33272W        W98499  30.483  30.073  11.249
33273W        W98500  25.961  18.133   0.715
33274W        W98501   4.471   4.894   3.656
33275W        W98502  17.785  43.950  14.356
33276W        W98503  34.038  39.208   1.117
33277W        W98504  27.201  27.149  14.416
33278W        W98505  15.528  16.631  13.436
33279W        W98506  33.346  19.114   1.601
33280W        W98507  31.959   2.489   4.092
33281W        W98508   9.529   7.484   1.834
33282W        W98509  39.283  27.917  11.557
33283W        W98510  20.045  35.147   4.798
33284W        W98511  22.204  24.428  13.029
33285W        W98512  28.950  12.898  14.024
33286W        W98513   7.218  15.720   2.739
33287W        W98514  43.754  27.720   4.587
33288W        W98515  23.690  19.131   0.393
33289W        W98516  43.257   2.500  14.982
33290W        W98517  31.141   8.271   4.499
33291W        W98518  33.850   8.768  13.322
33292W        W98519  35.027  25.703  10.987
33293W        W98520  38.121  36.884  12.963
33294W        W98521   1.969  20.309  12.972
33295W        W98522   6.468  27.562   0.296
33296W        W98523  40.346  29.595  14.335
33297W        W98524  26.592  20.688  11.973
33298W        W98525   8.636  36.066   0.634
33299W        W98526  22.780  23.588   2.729
33300W        W98527   0.785   2.768  13.413
33301W        W98528   8.299  44.613   0.815
33302W        W98529   3.701   7.076  11.456
33303W        W98530  18.063  11.714  13.770
33304W        W98531  32.525   7.149   4.216
33305W        W98532  39.774  32.828   2.304
33306W        W98533  16.504  42.801  11.482
33307W        W98534  15.737  25.077   4.982
33308W        W98535  22.039   6.384   0.806
33309W        W98536   1.239  40.499   0.469
33310W        W98537  37.345  13.812   1.027
33311W        W98538  21.494  44.096   0.820
33312W        W98539  13.072   2.973   1.199
33313W        W98540  25.119  37.434  10.740
33314W        W98541   3.219  43.005   0.432
33315W        W98542  11.154  13.306   3.729
33316W        W98543  24.504  42.437   3.549
33317W        W98544  33.581   9.953  14.985
33318W        W98545   5.779  35.621  14.033
33319W        W98546  31.164  11.383  13.433
33320W        W98547  39.254   6.284  13.303
33321W        W98548   4.848   7.410  14.889
33322W        W98549  26.741  12.996   0.763
33323W        W98550  34.020  17.465  14.630
33324W        W98551  14.582  18.539  11.066
33325W        W98552  13.276  13.575  12.026
33326W        W98553  33.000  26.688   1.239
33327W        W98554  16.422  28.589  14.836
33328W        W98555  16.336  13.184   4.317
33329W        W98556  41.202  33.491   1.211
33330W        W98557  27.975  28.561  11.544
33331W        W98558  31.014  19.941  11.254
33332W        W98559  44.729  36.123   0.588
33333W        W98560   0.662  35.201   4.243
33334W        W98561  41.049  44.276   1.638
33335W        W98562  34.996  27.332  12.442
33336W        W98563  43.391  27.192   0.233
33337W        W98564  40.804  44.373  11.698
33338W        W98565  42.527  22.020  11.717
33339W        W98566   2.760  29.427   4.463
33340W        W98567  10.759  36.076   2.141
33341W        W98568  43.945   3.408   3.213
33342W        W98569   9.604  37.462   4.711
33343W        W98570  39.099   7.787   0.366
33344W        W98571  35.054  44.517  11.720
33345W        W98572  20.348  36.892  13.470
33346W        W98573  36.514   9.620  14.897
33347W        W98574  10.117   5.669  14.462
33348W        W98575  29.430  33.020   0.511
33349W        W98576  44.472  28.917   2.247
33350W        W98577   0.767  29.393   3.708
33351W        W98578  14.528  41.242   5.049
33352W        W98579  22.297  16.296   1.960
33353W        W98580  10.327  43.461   0.730
33354W        W98581  27.696  18.777  13.960
33355W        W98582   0.095  43.311  12.669
33356W        W98583  22.900  41.540  14.494
33357W        W98584  38.580  30.226   2.116
33358W        W98585  12.135  25.551  10.722
33359W        W98586  13.918  32.593  14.059
33360W        W98587   9.808  35.093  14.452
33361W        W98588  15.508  27.014   3.153
33362W        W98589  10.653   2.215   4.168
33363W        W98590   7.171  27.866  13.522
33364W        W98591  25.805  13.614   2.650
33365W        W98592  22.234  44.529   3.258
33366W        W98593  30.878   0.273  13.076
33367W        W98594  32.011  18.769  12.987
33368W        W98595   2.524  43.796  12.554
33369W        W98596   6.699  18.042  12.064
33370W        W98597  38.713  36.739  13.861
33371W        W98598   4.949  11.263  12.893
33372W        W98599  20.409  29.821   4.161
33373W        W98600  25.120  15.658   0.670
33374W        W98601   7.184  28.654  13.935
33375W        W98602  40.394  21.676   1.288
33376W        W98603  39.123  35.095  12.911
33377W        W98604  26.685   6.927  10.724
33378W        W98605  14.272   3.943   2.783
33379W        W98606  37.986   7.850   0.849
33380W        W98607  38.109  39.942   4.426
33381W        W98608   3.975  18.207  12.616
33382W        W98609  29.200   3.248  12.655
33383W        W98610   7.303   3.510  11.563
33384W        W98611  15.126  44.487  14.520
33385W        W98612  31.314  35.447   1.861
33386W        W98613  17.847  40.890   1.369
33387W        W98614  40.376  41.424  10.210
33388W        W98615   2.396  12.558  10.670
33389W        W98616  24.645  26.675  12.676
33390W        W98617  39.357  19.841  14.105
33391W        W98618   3.254   9.279  11.112
33392W        W98619  35.926  29.558   3.619
33393W        W98620  28.914  41.296   1.866
33394W        W98621  22.712   3.362   9.479
33395W        W98622  37.641  37.150  12.964
33396W        W98623  14.591   7.816  13.068
33397W        W98624  30.631  33.512   5.054
33398W        W98625  14.755   7.056   9.974
33399W        W98626  21.768  38.068   2.812
33400W        W98627  42.966   8.198  12.642
33401W        W98628  40.250  24.601  10.740
33402W        W98629  24.445  11.058  12.050
33403W        W98630  34.047   1.791  13.404
33404W        W98631   9.462  29.572  11.898
33405W        W98632  13.208  19.421  11.477
33406W        W98633  16.611  42.410  10.760
33407W        W98634  36.990  37.863  12.277
33408W        W98635  17.358   9.062  11.955
33409W        W98636   8.588  11.720  14.435
33410W        W98637  36.945   5.013   1.259
33411W        W98638   0.879  24.147   5.016
33412W        W98639  37.372  35.986   3.854
33413W        W98640  18.592  31.463   2.244
33414W        W98641  41.263   8.861   0.787
33415W        W98642  39.829  42.738   3.328
33416W        W98643  37.540  28.519   3.753
33417W        W98644   4.594   4.838  14.939
33418W        W98645  28.723  37.565  14.743
33419W        W98646  11.633  26.918  14.794
33420W        W98647  38.608  43.978   3.119
33421W        W98648  44.791  25.384   0.120
33422W        W98649  23.553  19.028   1.847
33423W        W98650  22.576  18.490  12.475
33424W        W98651  10.090  35.430   1.206
33425W        W98652  25.559  16.387   0.791
33426W        W98653   8.939   7.351   0.870
33427W        W98654  41.883  19.764  12.070
33428W        W98655  28.275  33.945   2.254
33429W        W98656  25.196  16.725   0.923
33430W        W98657  18.202   1.889  12.669
33431W        W98658  15.327   6.376   4.236
33432W        W98659  20.720  37.424   3.806
33433W        W98660   0.314   5.980   1.858
33434W        W98661  33.407  24.358  12.477
33435W        W98662  24.654  33.824   3.679
33436W        W98663  11.834  25.920  13.457
33437W        W98664  17.369  30.879  14.442
33438W        W98665  13.696  41.003   1.278
33439W        W98666  33.532  39.094  14.489
33440W        W98667  33.934   1.811   4.438
33441W        W98668  34.420  42.841  11.105
33442W        W98669  25.487  11.184   0.280
33443W        W98670  24.014  19.066   3.310
33444W        W98671  13.023  27.996  13.889
33445W        W98672  30.179  18.122   0.944
33446W        W98673   0.473  13.654   2.308
33447W        W98674  12.462  17.184  14.844
33448W        W98675   5.306  38.968  13.239
33449W        W98676  24.649  43.038  12.829
33450W        W98677  15.304  36.994  14.920
33451W        W98678   5.448  42.939  14.799
33452W        W98679   0.532  34.119   4.341
33453W        W98680  36.407  10.128  13.945
33454W        W98681  26.639   1.078   0.712
33455W        W98682  38.427   0.246   2.538
33456W        W98683  12.844  35.888   4.822
33457W        W98684  32.362  33.921  12.074
33458W        W98685  14.922  17.873   3.157
33459W        W98686   1.350  33.856   1.068
33460W        W98687  23.256   5.577   0.351
33461W        W98688   5.790  16.600  11.113
33462W        W98689  28.897  44.378   0.496
33463W        W98690  33.448  17.018  12.528
33464W        W98691  29.023  10.606   2.304
33465W        W98692  13.627  14.233   1.336
33466W        W98693  36.744  32.111   2.982
33467W        W98694  15.178  43.567  13.027
33468W        W98695  44.164   5.298  10.828
33469W        W98696  19.574  36.742  13.008
33470W        W98697  38.333   0.460  13.510
33471W        W98698  36.206   1.665  12.596
33472W        W98699  33.961  34.108  13.610
33473W        W98700  21.811   8.373   3.391
33474W        W98701  31.658   0.742   5.070
33475W        W98702   5.811  41.176   4.065
33476W        W98703  34.865  20.717  12.961
33477W        W98704  16.842   8.729   1.913
33478W        W98705  40.586  19.304  13.458
33479W        W98706   2.524  36.886   0.609
33480W        W98707  24.688  34.267  12.357
33481W        W98708   5.893   6.424  12.937
33482W        W98709  15.096  35.888  11.473
33483W        W98710  18.092  27.201  11.726
33484W        W98711   8.278  21.753   4.560
33485W        W98712  37.195  29.851   4.102
33486W        W98713  10.823  28.018   2.189
33487W        W98714  22.161  27.928   1.249
33488W        W98715  31.626  43.999  14.027
33489W        W98716  32.259  32.823  11.511
33490W        W98717   8.363  28.159  10.781
33491W        W98718  31.568  40.556  14.131
33492W        W98719  16.300  37.434   2.740
33493W        W98720  30.492   9.384   2.730
33494W        W98721  36.544  16.913  12.989
33495W        W98722  27.545  44.129  12.636
33496W        W98723   3.373  37.445   0.332
33497W        W98724  26.961  33.520   4.062
33498W        W98725  12.900  30.422   0.514
33499W        W98726  14.302  39.969  13.461
33500W        W98727  28.364  24.125  14.724
33501W        W98728   1.762  31.114   1.697
33502W        W98729  10.761  15.806  14.934
33503W        W98730  16.848  28.940  14.834
33504W        W98731  11.270  43.471   0.428
33505W        W98732  39.474  22.284  13.831
33506W        W98733  28.045  43.261   0.952
33507W        W98734   6.364  29.541   5.032
33508W        W98735  29.566  15.129   2.736
33509W        W98736   6.155  29.766  13.201
33510W        W98737  18.650  27.406   4.143
33511W        W98738  33.464  18.587   4.139
33512W        W98739  32.408  41.276   4.401
33513W        W98740  29.923  34.214  10.609
33514W        W98741  27.166  27.404  12.071
33515W        W98742   3.424  13.886   3.205
33516W        W98743  25.215   3.681  11.225
33517W        W98744   9.861  17.655   3.149
33518W        W98745  28.040  18.779  11.861
33519W        W98746   0.862  22.817  14.413
33520W        W98747   0.713  21.074   0.761
33521W        W98748  16.782   7.687  11.898
33522W        W98749  31.081  31.635   3.754
33523W        W98750  26.891  32.588   4.072
33524W        W98751  30.683  25.198  14.384
33525W        W98752  14.052  37.892   2.422
33526W        W98753  44.941   8.799   0.678
33527W        W98754  28.402  12.186   0.555
33528W        W98755  38.397  19.513   0.674
33529W        W98756  40.533   2.431  10.594
33530W        W98757  10.143  13.466  13.899
33531W        W98758  36.798  42.076   3.573
33532W        W98759  20.737  24.869  13.578
33533W        W98760   7.500  42.843   4.335
33534W        W98761  25.907  36.080   4.138
33535W        W98762  33.448   7.416   0.453
33536W        W98763   0.799  23.440   1.129
33537W        W98764  30.666  38.808   1.833
33538W        W98765  21.244  39.827  13.516
33539W        W98766  34.423  31.617   3.448
33540W        W98767  37.572  35.901  11.554
33541W        W98768   1.068  20.594   2.298
33542W        W98769  20.221  24.746  14.837
33543W        W98770  18.488  17.208   3.650
33544W        W98771  23.946  20.044   0.269
33545W        W98772  40.297  44.218  10.742
33546W        W98773  34.149  29.448  13.548
33547W        W98774  43.579  31.975  11.164
33548W        W98775  31.035  39.952  13.019
33549W        W98776  37.483  37.349  13.454
33550W        W98777  35.048  13.263  11.368
33551W        W98778  44.592  18.570   2.663
33552W        W98779   9.898  28.557   0.856
33553W        W98780  13.176  27.389  13.064
33554W        W98781   7.665   0.802  12.856
33555W        W98782  11.781  16.558   9.772
33556W        W98783  21.585   1.263   3.689
33557W        W98784  43.722  27.659  14.569
33558W        W98785  11.544  25.595  12.348
33559W        W98786  14.733   9.559  13.984
33560W        W98787  24.142  14.591  11.102
33561W        W98788  35.112  22.454   3.316
33562W        W98789  41.741   0.266  12.298
33563W        W98790   0.269  25.073   3.566
33564W        W98791  28.448  35.049  13.101
33565W        W98792  24.564  13.183  14.443
33566W        W98793  20.812  39.416   0.320
33567W        W98794  18.733  16.026  14.674
33568W        W98795  32.310  10.403  14.793
33569W        W98796  37.487   8.553   4.006
33570W        W98797  13.125  14.198   1.559
33571W        W98798  36.540  13.197  12.106
33572W        W98799  23.753   0.722  11.217
33573W        W98800  17.164  10.296  13.896
33574W        W98801   3.212  22.063  13.235
33575W        W98802  16.608   3.996  11.596
33576W        W98803  15.582  35.868  12.982
33577W        W98804  29.909  19.168  12.452
33578W        W98805  13.145   4.642   2.073
33579W        W98806   0.174  24.601   3.749
33580W        W98807  39.382  34.656  12.070
33581W        W98808  37.816  11.761  13.917
33582W        W98809  12.324  14.854  14.431
33583W        W98810  41.577  32.505  11.972
33584W        W98811  32.390  25.071  11.409
33585W        W98812  20.150  40.546  12.545
33586W        W98813  31.504  17.099   0.238
33587W        W98814  39.868  33.886  12.771
33588W        W98815  38.945   4.803  11.675
33589W        W98816   7.325  28.400  13.506
33590W        W98817   8.684   9.681  13.524
33591W        W98818  38.403  31.491  11.558
33592W        W98819  40.390  27.282  12.695
33593W        W98820  10.351  33.665  11.235
33594W        W98821   6.353  28.143  10.630
33595W        W98822  13.639  16.174  11.020
33596W        W98823  16.840  41.980   4.055
33597W        W98824  10.082  25.682  10.713
33598W        W98825  35.053  43.368   0.263
33599W        W98826  12.108  41.870  14.558
33600W        W98827   1.078  12.176  12.444
33601W        W98828  43.523   6.751  10.740
33602W        W98829  18.592  32.979  13.481
33603W        W98830  17.099  39.812  14.527
33604W        W98831  26.867  14.111   2.928
33605W        W98832  16.916  15.042  14.965
33606W        W98833  14.227  39.959   0.746
33607W        W98834  26.875   0.813   4.420
33608W        W98835  23.491  26.925  10.916
33609W        W98836  41.693  41.287   1.302
33610W        W98837  24.749  20.293  14.857
33611W        W98838  41.001  32.140  12.352
33612W        W98839  39.001  10.753   2.792
33613W        W98840   5.529  44.171  11.682
33614W        W98841  34.986   0.459  14.752
33615W        W98842  39.816  30.579   4.161
33616W        W98843   4.046   1.387  12.689
33617W        W98844  14.965  40.037   3.994
33618W        W98845  13.896  29.650  10.747
33619W        W98846  39.015  26.162  14.927
33620W        W98847  15.260  42.543   4.570
33621W        W98848   1.531  12.855  14.361
33622W        W98849  33.243   6.164  12.271
33623W        W98850   6.599  26.003   1.140
33624W        W98851  31.415  25.047   4.107
33625W        W98852  38.868   5.904   3.215
33626W        W98853  44.923   3.299   0.306
33627W        W98854   4.745  44.519   1.251
33628W        W98855  38.509  12.455   3.970
33629W        W98856  22.061  37.133   4.584
33630W        W98857   8.789  28.866   4.412
33631W        W98858  11.545  29.591   2.751
33632W        W98859   9.832  18.528  14.466
33633W        W98860  44.207  43.778  11.860
33634W        W98861  33.436  27.249  13.821
33635W        W98862   3.655   2.270   2.229
33636W        W98863   8.434  34.244  11.714
33637W        W98864   6.707  26.256  11.299
33638W        W98865  35.119  12.639   1.725
33639W        W98866   9.700  22.127  13.111
33640W        W98867  37.568   6.714   3.151
33641W        W98868   6.324  34.470   3.242
33642W        W98869   1.154  42.080   3.150
33643W        W98870   0.463   1.388   3.653
33644W        W98871  39.249  44.765  14.867
33645W        W98872  11.273   8.223   4.151
33646W        W98873  36.078  17.604   2.736
33647W        W98874  32.755  12.114  12.394
33648W        W98875  17.662   8.893  13.139
33649W        W98876   3.399  22.468  12.309
33650W        W98877  24.963  34.586  11.482
33651W        W98878  11.096  27.436   1.600
33652W        W98879  34.586  41.029   0.806
33653W        W98880  27.406   6.410  13.327
33654W        W98881  18.125  26.739   3.688
33655W        W98882  27.643  18.287   2.742
33656W        W98883  25.158  25.973  12.606
33657W        W98884   6.212  11.512   1.971
33658W        W98885  39.890  32.057  14.804
33659W        W98886  15.948  34.899  12.355
33660W        W98887   3.214  25.996  10.575
33661W        W98888  19.960  25.279  11.051
33662W        W98889  25.046  37.891   1.838
33663W        W98890  11.251   4.990   3.671
33664W        W98891  21.511  20.808  13.038
33665W        W98892  44.071  12.985  14.962
33666W        W98893  41.913  11.536  13.827
33667W        W98894  39.380  30.981  10.538
33668W        W98895  20.056  42.636  12.633
33669W        W98896  12.778  41.425   3.945
33670W        W98897  12.145  26.220   4.664
33671W        W98898   1.155  25.131  10.994
33672W        W98899   6.300  12.451  12.956
33673W        W98900  37.522   2.540  12.371
33674W        W98901  31.409  42.472   2.208
33675W        W98902  28.907  13.605   0.283
33676W        W98903  19.783   5.439   2.798
33677W        W98904  37.997  38.006  14.459
33678W        W98905   9.333  31.449  13.469
33679W        W98906  19.580  41.574   0.469
33680W        W98907  41.576  43.823   0.998
33681W        W98908  35.520  25.792  13.216
33682W        W98909  13.956  34.390  11.078
33683W        W98910  18.992  29.206  11.061
33684W        W98911  13.250  28.714  11.424
33685W        W98912  17.236  44.219  11.661
33686W        W98913   0.270  21.356   0.864
33687W        W98914  15.405  18.700   0.754
33688W        W98915  31.554  38.341  13.581
33689W        W98916  17.116  27.054   1.248
33690W        W98917  30.636  44.283  14.862
33691W        W98918  38.627  11.109   1.968
33692W        W98919  31.329   3.177  11.889
33693W        W98920  37.389  22.978   3.401
33694W        W98921  11.369  19.676   3.864
33695W        W98922   9.750  27.017   3.840
33696W        W98923  39.985  39.393   3.923
33697W        W98924  41.147  25.905   1.197
33698W        W98925   6.895  44.527   3.994
33699W        W98926  29.461  30.574  14.030
33700W        W98927   6.006  38.491  14.033
33701W        W98928   4.656  35.311   2.857
33702W        W98929   6.931  40.634  11.644
33703W        W98930  26.062  39.434  10.417
33704W        W98931  10.106  13.106  13.078
33705W        W98932   3.797  37.257   0.121
33706W        W98933  28.473  26.939  14.905
33707W        W98934  27.660  13.399   2.116
33708W        W98935  36.670  16.863   3.739
33709W        W98936   4.969   7.271   1.868
33710W        W98937  41.303  43.957  12.427
33711W        W98938   3.404   6.761  14.871
33712W        W98939  39.079   3.477  10.904
33713W        W98940   2.738  34.887  13.201
33714W        W98941  25.503  20.764   0.873
33715W        W98942  26.920  21.947  14.337
33716W        W98943  30.958  27.425  12.985
33717W        W98944  42.252  34.368  10.860
33718W        W98945  29.221  34.547   3.316
33719W        W98946  42.127   9.417  13.002
33720W        W98947   2.322  30.404   3.215
33721W        W98948  32.420  18.054  11.848
33722W        W98949  13.081  23.013  14.445
33723W        W98950  34.571  38.807   4.668
33724W        W98951  39.366   3.798  12.980
33725W        W98952   2.324  34.351  11.694
33726W        W98953  29.726  17.318  12.916
33727W        W98954  17.252  11.672  10.720
33728W        W98955  16.530  31.176   3.176
33729W        W98956  36.039   2.930   1.445
33730W        W98957  12.393  36.604   1.880
33731W        W98958  32.975   0.280   3.190
33732W        W98959  30.496  10.080  10.298
33733W        W98960   8.222  23.653   0.794
33734W        W98961  12.685  11.374   4.166
33735W        W98962  10.209  24.118  12.027
33736W        W98963  10.068  24.074  12.556
33737W        W98964  12.770  10.660  14.326
33738W        W98965   5.010   4.620   2.840
33739W        W98966   8.505  38.835   1.757
33740W        W98967   0.341  27.986  11.577
33741W        W98968  14.594  20.177   0.374
33742W        W98969  10.389  33.634   3.066
33743W        W98970  35.978  39.812  10.603
33744W        W98971  32.412  36.105   3.840
33745W        W98972  28.138  26.137  12.892
33746W        W98973  35.783  20.023   3.781
33747W        W98974  34.649   8.187   4.085
33748W        W98975  43.550  19.682   0.622
33749W        W98976  17.833  37.399  12.609
33750W        W98977  20.048  40.403   1.286
33751W        W98978  19.616  10.759  13.825
33752W        W98979  31.185   9.808  12.151
33753W        W98980  17.954   2.211  11.910
33754W        W98981  39.801  22.790   4.131
33755W        W98982   7.661  38.016   2.345
33756W        W98983  25.197  24.515   1.267
33757W        W98984  13.355  15.107  13.762
33758W        W98985   7.548  16.134   0.977
33759W        W98986  23.172  32.115   0.887
33760W        W98987  28.041  40.348   0.753
33761W        W98988  32.366  12.910  12.001
33762W        W98989  13.093  40.777  10.664
33763W        W98990  28.117  26.821   4.102
33764W        W98991  28.203  39.971   1.957
33765W        W98992  31.513   4.789   4.080
33766W        W98993  20.764  43.783   0.336
33767W        W98994  15.836  38.927  10.940
33768W        W98995  24.130  17.137   2.676
33769W        W98996  14.713  42.781  13.994
33770W        W98997   2.434  33.397   4.693
33771W        W98998  19.577  44.230  13.950
33772W        W98999  23.707  28.576  13.936
33773W        W99000  29.898  23.233   4.386
33774W        W99001  32.866  21.485  14.776
33775W        W99002  32.449  35.804  12.167
33776W        W99003  41.388  22.093  11.281
33777W        W99004  24.079   2.065  14.065
33778W        W99005  38.456  23.495   1.709
33779W        W99006  32.103  37.453  10.690
33780W        W99007   3.760   5.434  11.649
33781W        W99008  16.723   9.836  14.815
33782W        W99009   4.729  30.250  13.010
33783W        W99010   1.721   6.434   3.208
33784W        W99011  25.830  43.416  11.509
33785W        W99012  41.068  32.937   2.006
33786W        W99013  13.126  15.445   0.840
33787W        W99014  33.846  29.866   3.655
33788W        W99015  35.150  26.197   4.104
33789W        W99016   0.339   4.665   0.396
33790W        W99017  36.024  19.745   1.207
33791W        W99018  44.381  26.407   2.359
33792W        W99019  41.399  26.068   3.694
33793W        W99020  34.526  30.112   3.133
33794W        W99021  23.722  25.987  13.342
33795W        W99022  35.092  32.290  11.187
33796W        W99023  40.936  41.828   1.246
33797W        W99024  33.911  12.338  14.338
33798W        W99025  12.577  25.503   4.583
33799W        W99026  41.031  23.173   1.212
33800W        W99027  37.087   9.850  10.605
33801W        W99028  16.905  33.525   0.366
33802W        W99029  14.715  41.865  14.096
33803W        W99030  10.813  19.203   4.317
33804W        W99031  29.482   4.536  14.799
33805W        W99032   6.303   6.876  14.030
33806W        W99033  23.443   6.037  13.004
33807W        W99034  12.911  44.205   0.485
33808W        W99035  32.892  17.565  11.005
33809W        W99036   9.410  37.905  11.102
33810W        W99037  40.118  35.506  12.364
33811W        W99038   9.386  12.439   1.161
33812W        W99039  31.329  35.961  14.532
33813W        W99040  41.455  32.175   2.549
33814W        W99041  35.548   6.452   0.952
33815W        W99042  23.648  29.885   1.284
33816W        W99043  26.527  11.742   1.252
33817W        W99044   3.328  32.971   9.948
33818W        W99045   1.880  23.939   4.673
33819W        W99046  25.665   2.890  14.917
33820W        W99047  39.475  21.949  12.865
33821W        W99048  35.775  44.554  12.028
33822W        W99049  29.351   7.855   2.698
33823W        W99050  28.535  19.337  14.831
33824W        W99051  41.743   2.423  11.200
33825W        W99052  33.437  25.069   1.801
33826W        W99053  44.325  38.916  14.833
33827W        W99054   8.555   2.770  14.996
33828W        W99055   7.025  20.112  12.415
33829W        W99056   3.695   8.306   1.877
33830W        W99057  44.047  22.633  10.072
33831W        W99058  43.327   5.929  10.618
33832W        W99059  36.213  22.582   4.656
33833W        W99060  37.445  19.944   1.353
33834W        W99061  12.091   6.175  12.084
33835W        W99062   7.818  25.559  12.553
33836W        W99063  15.653  32.086   3.742
33837W        W99064  28.135   8.011   3.364
33838W        W99065   8.832  26.243  12.237
33839W        W99066  25.733  44.800   3.967
33840W        W99067  42.584  40.913   3.476
33841W        W99068  23.642   9.924  12.391
33842W        W99069  39.797  40.198  13.532
33843W        W99070  18.702  32.834   2.504
33844W        W99071   0.850  43.551  11.773
33845W        W99072  23.526  38.115  12.574
33846W        W99073  19.583  17.100  11.151
33847W        W99074  20.138  30.199  13.890
33848W        W99075  36.497  40.009  14.666
33849W        W99076  30.089  40.091  14.468
33850W        W99077  11.805   6.337  14.027
33851W        W99078   3.333  14.697   5.405
33852W        W99079  19.529  39.056  13.506
33853W        W99080  36.317  44.340   3.305
33854W        W99081  40.349  28.200  10.750
33855W        W99082  31.903   8.924   1.417
33856W        W99083  35.841  18.661  13.081
33857W        W99084   6.380  32.838   0.760
33858W        W99085  43.453  37.306  11.520
33859W        W99086  10.367  44.865  12.211
33860W        W99087  15.224  13.145  12.439
33861W        W99088  13.756  14.246  12.452
33862W        W99089   0.931  25.495  11.803
33863W        W99090   9.297   8.174   4.252
33864W        W99091  11.669   5.157  11.154
33865W        W99092  44.129   2.718   3.744
33866W        W99093  23.123  24.686  11.605
33867W        W99094  24.983  34.187  13.755
33868W        W99095   8.688  25.238  14.039
33869W        W99096  25.662  21.940   0.349
33870W        W99097   5.051  11.686  11.647
33871W        W99098  19.796  19.721   5.042
33872W        W99099  44.176  21.922  13.018
33873W        W99100   4.324  28.259   3.739
33874W        W99101  32.707  43.707  11.854
33875W        W99102   3.882  29.516  12.951
33876W        W99103  16.299   3.411   1.335
33877W        W99104  44.504  22.015   4.990
33878W        W99105  39.811  28.522   4.188
33879W        W99106  24.950   4.445   4.738
33880W        W99107  32.262   7.575   5.040
33881W        W99108  19.653  26.660  13.496
33882W        W99109  15.559  29.009   1.015
33883W        W99110  13.699  37.364   3.245
33884W        W99111  20.120   1.477   1.886
33885W        W99112  15.506  14.771   2.855
33886W        W99113  21.354  30.609  14.262
33887W        W99114  28.051  25.398  10.275
33888W        W99115  41.316  23.852   3.185
33889W        W99116  42.402   2.975  11.385
33890W        W99117  36.906   0.995  13.002
33891W        W99118  23.998  35.530   0.238
33892W        W99119  37.150  38.069   3.473
33893W        W99120   2.705  18.743  10.515
33894W        W99121   4.605  20.994  11.550
33895W        W99122   4.788  32.983   3.191
33896W        W99123  41.900  34.112   4.065
33897W        W99124  14.250  16.223  13.034
33898W        W99125  16.773  33.570  11.595
33899W        W99126  35.137  21.379  11.450
33900W        W99127  25.579   3.207   2.093
33901W        W99128  35.063  33.748  10.226
33902W        W99129  21.973  12.132  13.001
33903W        W99130  17.580  41.940   3.617
33904W        W99131  30.649  38.051   0.275
33905W        W99132  26.486  31.047  12.587
33906W        W99133  34.823   9.191  11.934
33907W        W99134  41.353  11.854   5.018
33908W        W99135  44.061  17.447  11.624
33909W        W99136  33.419  28.701  13.297
33910W        W99137  11.197  28.093   0.743
33911W        W99138  30.523  14.102   3.051
33912W        W99139  31.828  23.522   1.260
33913W        W99140  26.088  13.712   0.455
33914W        W99141  26.744  22.193   1.763
33915W        W99142  28.641  16.338  12.414
33916W        W99143  17.210  42.400   4.461
33917W        W99144  12.032  31.123   3.279
33918W        W99145  40.113  13.538  11.976
33919W        W99146  15.849   5.990  12.602
33920W        W99147  21.825  28.020  11.961
33921W        W99148   0.720   5.339  11.449
33922W        W99149  22.088  41.543   4.124
33923W        W99150  11.380  20.026   4.607
33924W        W99151   3.155  43.767  13.826
33925W        W99152   6.250   2.326   2.404
33926W        W99153  36.801  22.878   1.365
33927W        W99154  44.084  33.460   5.222
33928W        W99155  26.110  21.276   3.888
33929W        W99156  36.117  25.215  12.347
33930W        W99157  13.330  17.249  12.194
33931W        W99158   4.348  20.714   1.168
33932W        W99159  27.029  15.781   3.753
33933W        W99160  43.745  28.663   1.735
33934W        W99161  44.643  11.716  11.675
33935W        W99162  26.018  40.131  12.900
33936W        W99163  10.072  19.420  12.505
33937W        W99164  37.343  29.159  12.400
33938W        W99165  21.602  34.642   0.732
33939W        W99166   2.744  40.014  14.105
33940W        W99167  30.640  41.818  13.825
33941W        W99168  31.031  29.848  13.906
33942W        W99169   3.590  16.350  13.064
33943W        W99170  14.026  15.312  10.711
33944W        W99171  22.760  10.166   1.038
33945W        W99172   3.861  10.882  12.154
33946W        W99173   9.951  34.441  11.738
33947W        W99174  18.338  17.104  13.598
33948W        W99175   3.741   2.090  14.005
33949W        W99176  36.616  18.515  11.199
33950W        W99177  30.312  36.623  14.881
33951W        W99178  37.401  13.709   3.767
33952W        W99179   7.414  21.751   4.062
33953W        W99180   9.381  25.094   0.699
33954W        W99181  12.849  43.607   1.788
33955W        W99182  16.295   7.919   1.384
33956W        W99183   3.642   3.473  14.531
33957W        W99184   7.126  19.739  13.007
33958W        W99185  42.797  30.385   1.137
33959W        W99186  35.376  18.720  14.780
33960W        W99187  33.401  23.668   2.884
33961W        W99188  13.104   2.880  13.032
33962W        W99189  26.075  22.598   4.716
33963W        W99190  10.939  39.946  12.356
33964W        W99191  16.776  30.404  14.736
33965W        W99192  33.002  42.801   0.362
33966W        W99193   1.903  35.082  11.454
33967W        W99194  24.198  27.507  11.162
33968W        W99195  19.785  34.343   0.110
33969W        W99196  13.074  13.336   2.549
33970W        W99197   9.106   9.304   1.774
33971W        W99198  28.172  32.617  14.001
33972W        W99199  28.155  15.608  11.627
33973W        W99200  37.393  33.476  13.668
33974W        W99201  35.099   4.972   5.432
33975W        W99202  33.814  31.293  12.096
33976W        W99203  30.125  30.394  11.102
33977W        W99204  15.337   7.647  12.046
33978W        W99205  32.487  31.884  11.539
33979W        W99206  27.178  20.802   0.810
33980W        W99207  24.255  37.048   1.853
33981W        W99208  41.429  12.773  12.385
33982W        W99209  23.648   4.058  14.903
33983W        W99210  21.940   1.293   2.124
33984W        W99211  28.732  15.601   2.630
33985W        W99212  24.772  37.455  13.404
33986W        W99213  44.286  14.780  13.499
33987W        W99214   9.308  34.468   1.035
33988W        W99215   8.634  25.420  14.869
33989W        W99216  34.717   2.666  13.629
33990W        W99217   9.240  13.880   0.796
33991W        W99218  24.581   6.405   4.859
33992W        W99219  31.666   9.750   5.056
33993W        W99220  38.469  38.438  14.457
33994W        W99221  37.993   1.192  13.067
33995W        W99222   8.303  17.268   3.944
33996W        W99223   5.673   2.510   3.174
33997W        W99224   2.140  10.636  14.789
33998W        W99225   2.011   2.767  10.674
33999W        W99226  20.472  25.440   4.569
34000W        W99227  44.312  12.741   1.746
34001W        W99228  38.386   2.229   3.281
34002W        W99229  19.059  17.191  14.148
34003W        W99230   4.101   1.102   4.624
34004W        W99231  11.544  40.980   2.301
34005W        W99232  27.090  22.600  14.487
34006W        W99233   2.768  17.815   0.573
34007W        W99234  34.841  25.776  13.072
34008W        W99235  16.837  14.074   2.279
34009W        W99236  13.149   3.182  13.488
34010W        W99237   4.230  15.345  13.377
34011W        W99238  28.908  22.220  13.703
34012W        W99239  40.967  32.778   2.937
34013W        W99240  17.439   3.763  13.647
34014W        W99241  23.627   5.788   3.295
34015W        W99242  22.825  22.205   2.427
34016W        W99243  38.984  23.621   0.013
34017W        W99244  24.491  25.945   3.091
34018W        W99245  23.762  31.634   1.206
34019W        W99246  20.489   1.494   4.292
34020W        W99247  29.493  15.636  14.999
34021W        W99248  33.154   5.848  14.166
34022W        W99249   7.376  44.390   4.100
34023W        W99250  17.647   5.753   0.076
34024W        W99251  41.930   1.587  10.102
34025W        W99252  20.544   9.519  11.413
34026W        W99253   4.286  19.837   0.837
34027W        W99254   2.244  29.368   0.729
34028W        W99255   6.877  19.586   0.950
34029W        W99256  17.038  33.393   0.863
34030W        W99257   2.756  20.233   4.554
34031W        W99258  27.940  29.441   0.397
34032W        W99259  29.727  17.282   1.284
34033W        W99260   4.687  17.104   2.173
34034W        W99261  32.628  35.405  13.939
34035W        W99262  41.523  42.573   1.905
34036W        W99263  29.605  29.790   0.917
34037W        W99264   4.046  14.999  11.007
34038W        W99265  41.026  28.511   0.858
34039W        W99266   4.181  34.753   1.471
34040W        W99267  26.879  29.877  14.206
34041W        W99268  38.274  22.578  11.965
34042W        W99269  37.983  23.240  14.502
34043W        W99270  11.114  43.945   4.059
34044W        W99271  41.561  44.984  13.928
34045W        W99272   8.027  11.205  12.206
34046W        W99273  42.223  17.610  12.285
34047W        W99274  35.051  17.672  10.595
34048W        W99275  25.680  36.158   4.712
34049W        W99276  18.036  35.621  13.916
34050W        W99277  19.499  27.988   4.153
34051W        W99278  11.551  44.465   1.923
34052W        W99279  44.417  32.926  10.322
34053W        W99280  10.266  26.208   9.897
34054W        W99281   2.593  11.707   1.006
34055W        W99282  18.647  14.559   1.814
34056W        W99283  29.589  29.500  14.200
34057W        W99284  34.634  43.369  13.928
34058W        W99285  27.212   5.663   2.388
34059W        W99286  32.593   2.845   2.171
34060W        W99287  12.608  27.074   3.144
34061W        W99288  22.692  24.735   3.121
34062W        W99289  24.233  30.756   4.952
34063W        W99290  18.278  43.031   3.630
34064W        W99291  32.673   6.671   1.976
34065W        W99292  14.599  40.541  12.805
34066W        W99293  41.936  39.026  11.592
34067W        W99294  25.236  36.144   2.504
34068W        W99295   8.037  29.329  12.945
34069W        W99296  32.566  36.754  14.980
34070W        W99297  16.220  24.873   0.891
34071W        W99298  33.897  28.011  13.463
34072W        W99299  33.863  30.011   2.366
34073W        W99300  36.781   9.589  10.975
34074W        W99301  18.219  34.106   4.652
34075W        W99302   8.226  37.024   2.857
34076W        W99303  16.606  42.315  13.423
34077W        W99304  36.808  19.654  10.631
34078W        W99305  12.355  11.280  14.112
34079W        W99306  24.597  15.319   2.915
34080W        W99307  14.570  36.079  11.569
34081W        W99308  15.719   6.416  10.475
34082W        W99309  27.900   3.082   0.371
34083W        W99310  37.951  36.532   0.429
34084W        W99311  38.951   3.290  12.436
34085W        W99312   9.174  42.686  14.020
34086W        W99313   4.240  19.368  13.007
34087W        W99314  30.271   1.892   1.798
34088W        W99315  12.922  15.768  12.917
34089W        W99316  42.570   3.823   0.374
34090W        W99317   1.012  14.989   3.597
34091W        W99318  38.079  10.356   1.140
34092W        W99319   5.315  42.242   3.670
34093W        W99320  17.355  36.419   0.754
34094W        W99321   1.495  13.782   0.799
34095W        W99322  44.841  15.116  14.757
34096W        W99323   7.735  14.291   3.163
34097W        W99324   6.006  36.651  11.653
34098W        W99325  19.680   1.970  13.900
34099W        W99326  15.301  27.795  14.466
34100W        W99327   8.918   3.426  13.512
34101W        W99328  18.936  41.270  12.538
34102W        W99329  39.429  31.562  11.738
34103W        W99330   3.157  13.775   3.983
34104W        W99331  19.726  37.074   2.925
34105W        W99332  41.450  24.791  12.585
34106W        W99333  29.500  26.561   0.082
34107W        W99334  29.085  42.348  10.626
34108W        W99335  14.425   5.730  14.242
34109W        W99336  37.154   6.622  10.107
34110W        W99337  33.197  40.347  14.012
34111W        W99338  16.245  16.504   3.676
34112W        W99339  31.390  35.358   4.511
34113W        W99340  33.636  34.365  11.175
34114W        W99341  25.736   8.720  11.106
34115W        W99342  40.489  39.451   0.694
34116W        W99343  40.421  43.628  14.847
34117W        W99344  19.621  31.561  13.569
34118W        W99345  28.632   0.480  12.433
34119W        W99346  43.320  26.683  12.054
34120W        W99347   5.483  32.429   4.554
34121W        W99348   1.846  39.591  14.965
34122W        W99349  34.493  40.874   1.681
34123W        W99350  36.358  12.120   3.756
34124W        W99351  28.885  10.693  13.322
34125W        W99352  21.208   8.383   0.230
34126W        W99353  33.318  16.726  12.080
34127W        W99354  41.666  31.870  14.913
34128W        W99355   9.001  27.722   3.124
34129W        W99356  10.884  17.077  13.297
34130W        W99357  35.674  17.639   4.518
34131W        W99358  32.223  33.603   0.359
34132W        W99359  43.921  38.969  11.174
34133W        W99360  43.774  28.444   5.619
34134W        W99361  35.578  34.224  12.037
34135W        W99362  34.628  31.551  14.502
34136W        W99363   5.079  40.584  11.586
34137W        W99364   7.728  40.901  11.522
34138W        W99365  19.444  30.788   3.671
34139W        W99366  40.505   1.510  14.000
34140W        W99367   5.371  18.731  13.805
34141W        W99368  25.531  11.928   2.377
34142W        W99369   6.449  19.633   4.109
34143W        W99370   7.848   1.491  12.233
34144W        W99371  43.741  44.458  13.598
34145W        W99372  19.882   0.611   1.540
34146W        W99373  31.199  41.980   2.680
34147W        W99374   4.803  29.512  11.679
34148W        W99375  26.489   9.401  11.514
34149W        W99376  18.768  15.237  12.832
34150W        W99377  32.836  31.491  13.038
34151W        W99378  30.512  44.216  10.698
34152W        W99379  44.415  26.658  13.780
34153W        W99380  21.454  11.582   1.653
34154W        W99381   3.159  14.143   0.799
34155W        W99382  27.119  33.721  11.605
34156W        W99383  13.115  24.491   4.328
34157W        W99384  44.497  25.381   3.286
34158W        W99385  20.319  31.688  11.852
34159W        W99386  13.712  20.307  10.642
34160W        W99387  12.711  19.112   3.754
34161W        W99388  35.432   2.200  11.596
34162W        W99389  14.290  18.384  13.992
34163W        W99390  41.581  11.933  13.787
34164W        W99391  40.799   2.920  14.413
34165W        W99392  31.035  25.880   3.646
34166W        W99393  27.687  22.623   4.077
34167W        W99394  27.975  14.860  10.901
34168W        W99395  19.326  43.338   4.088
34169W        W99396  38.814   0.792  12.540
34170W        W99397  12.261  14.909  11.108
34171W        W99398  35.072  27.874   0.239
34172W        W99399  24.817  38.463  11.224
34173W        W99400   2.323  39.161  10.969
34174W        W99401  37.956  30.473   0.726
34175W        W99402  34.573  37.595  10.578
34176W        W99403  36.054  44.807   0.215
34177W        W99404  25.726  22.278   2.949
34178W        W99405  36.651  40.918   5.265
34179W        W99406  10.892   0.489   2.410
34180W        W99407  20.014  21.639   3.148
34181W        W99408   2.027   6.270   2.794
34182W        W99409  23.692  43.612  10.618
34183W        W99410   8.240  31.584  13.014
34184W        W99411  26.165  27.937  14.398
34185W        W99412  42.979   3.209   2.760
34186W        W99413  25.579  14.053   4.124
34187W        W99414  40.747  13.626  11.086
34188W        W99415  16.643  35.553  11.517
34189W        W99416   0.904  21.268  12.936
34190W        W99417   9.663  25.201  11.084
34191W        W99418  25.105  39.157  10.825
34192W        W99419  20.199   1.431  12.053
34193W        W99420  21.057  32.590   1.966
34194W        W99421   8.109  36.185   1.516
34195W        W99422  21.444  32.425  11.205
34196W        W99423  42.455  32.250  12.441
34197W        W99424  28.194  23.310  13.779
34198W        W99425  40.149  42.695  14.873
34199W        W99426   3.380  40.014  10.515
34200W        W99427  22.065  32.774   1.935
34201W        W99428  26.353  43.837   3.406
34202W        W99429  37.762  39.991  13.902
34203W        W99430  12.333  37.715   0.825
34204W        W99431  20.564  20.053  14.014
34205W        W99432  32.470   8.012  13.898
34206W        W99433  40.878  33.766   0.925
34207W        W99434  30.705   4.784   0.820
34208W        W99435  19.715  36.541   1.290
34209W        W99436  24.941   5.370   2.750
34210W        W99437  24.602  18.008   4.041
34211W        W99438   5.531  19.066  12.071
34212W        W99439  14.899  35.229   2.036
34213W        W99440  29.159  11.496  12.111
34214W        W99441  44.764  14.247  11.967
34215W        W99442   8.681  34.946  14.334
34216W        W99443  29.631  38.409   1.188
34217W        W99444  31.518  16.595   2.703
34218W        W99445  28.951  24.736   4.101
34219W        W99446  27.114  33.845  12.644
34220W        W99447  30.444  41.476   0.724
34221W        W99448  29.555  15.601  14.486
34222W        W99449  32.576   1.388  13.434
34223W        W99450  24.934  40.429   4.963
34224W        W99451   8.869   7.972  13.608
34225W        W99452  22.299   8.321   2.635
34226W        W99453  17.211  11.904   2.763
34227W        W99454  23.780  22.654   0.580
34228W        W99455  20.772  17.061  12.867
34229W        W99456  14.887  33.296   4.076
34230W        W99457   4.901  25.684  14.810
34231W        W99458   8.363   0.990  10.744
34232W        W99459  17.097  43.889   3.107
34233W        W99460  42.769  42.109   2.792
34234W        W99461  19.234  38.112   0.710
34235W        W99462  25.137  13.902   0.700
34236W        W99463   9.050  38.591  10.801
34237W        W99464  37.920   5.889   0.498
34238W        W99465  16.550  22.377  13.413
34239W        W99466   4.003  37.533   3.778
34240W        W99467  39.397  27.735   3.344
34241W        W99468  14.506   2.350   1.353
34242W        W99469   8.626  18.395   4.548
34243W        W99470  33.164  21.655  14.400
34244W        W99471  25.229   1.789   2.231
34245W        W99472  37.928  29.177   0.505
34246W        W99473  21.546  19.019   3.469
34247W        W99474  32.902  11.418  11.866
34248W        W99475   6.589   3.552   3.171
34249W        W99476  28.285  34.190   4.896
34250W        W99477  22.908  17.713  14.021
34251W        W99478  27.251   4.747   0.385
34252W        W99479  20.357   1.374   0.523
34253W        W99480  43.472   1.175  10.521
34254W        W99481  28.086  38.063  14.208
34255W        W99482   9.388  28.290   5.019
34256W        W99483  30.932  37.098  12.325
34257W        W99484  30.223  43.338   3.361
34258W        W99485  37.580  28.575  13.596
34259W        W99486  33.958  16.079  13.214
34260W        W99487   1.421  44.021  11.918
34261W        W99488   2.356   7.155  13.875
34262W        W99489  39.093  10.150   4.100
34263W        W99490  13.615  43.731   3.169
34264W        W99491  15.736  25.486   2.772
34265W        W99492  39.862  22.291   0.822
34266W        W99493  23.663  13.070  13.975
34267W        W99494  12.243  13.321   4.771
34268W        W99495  18.650  29.192  13.522
34269W        W99496  32.677  20.162   4.361
34270W        W99497  24.136  17.795  13.323
34271W        W99498  15.686   1.982  12.852
34272W        W99499   9.901  22.500   3.317
34273W        W99500   4.700  32.531   4.115
34274W        W99501   2.904   0.635  13.090
34275W        W99502  38.940  10.331   3.653
34276W        W99503  31.483  20.972   4.593
34277W        W99504  19.799  20.139   1.879
34278W        W99505  11.717  41.862  10.992
34279W        W99506   6.664  32.111  12.595
34280W        W99507  43.399  19.585  13.320
34281W        W99508  32.342  41.153  12.523
34282W        W99509  28.009  25.020  14.501
34283W        W99510  44.737   6.267  11.152
34284W        W99511  24.344  26.711  13.106
34285W        W99512  14.676  29.408  12.118
34286W        W99513  22.910  40.576   4.218
34287W        W99514   2.126  35.754  14.379
34288W        W99515  44.302  12.185   1.150
34289W        W99516  44.454  18.627  14.854
34290W        W99517  15.680  24.642   1.324
34291W        W99518  27.954  29.663  11.484
34292W        W99519  17.595  19.126   0.988
34293W        W99520  35.798  18.527   3.678
34294W        W99521  12.124  13.190   1.668
34295W        W99522   3.953   5.610  11.220
34296W        W99523  30.042   7.225  14.594
34297W        W99524   5.934   2.079   3.253
34298W        W99525  21.001  22.281  12.064
34299W        W99526  20.166  29.603   3.779
34300W        W99527  15.251   5.844   4.157
34301W        W99528  27.972   5.049   3.314
34302W        W99529  32.718  34.134  14.474
34303W        W99530  42.855  17.428   4.080
34304W        W99531  10.510  27.158  14.097
34305W        W99532   2.016   2.146  12.395
34306W        W99533  40.328  17.340  11.384
34307W        W99534  36.422  43.337  11.120
34308W        W99535  42.197  31.624   0.950
34309W        W99536  18.258   3.195   1.366
34310W        W99537  39.274   5.158   9.823
34311W        W99538   3.902  32.084   1.741
34312W        W99539  28.490  22.182   4.400
34313W        W99540  16.808  32.467  13.458
34314W        W99541  37.587   4.441  14.910
34315W        W99542  21.407  37.518   2.810
34316W        W99543  35.136  20.032  11.599
34317W        W99544  20.184  18.685  13.108
34318W        W99545   0.444  25.975   3.712
34319W        W99546  36.588  22.528  11.682
34320W        W99547  20.120  23.509   0.730
34321W        W99548   7.669   1.550   1.151
34322W        W99549  43.485   8.291   4.289
34323W        W99550  31.884  10.689  14.010
34324W        W99551   8.908  33.096   0.822
34325W        W99552  42.440  27.353  14.024
34326W        W99553  16.415  39.179  14.793
34327W        W99554  35.841   6.674   4.581
34328W        W99555  19.678   3.853   2.835
34329W        W99556   9.218  34.190   1.476
34330W        W99557  37.783  15.271  13.895
34331W        W99558  44.828  42.790   0.966
34332W        W99559  31.323  37.362  11.398
34333W        W99560  29.707  10.427   1.274
34334W        W99561  12.646  40.727  13.183
34335W        W99562  15.197  19.791  12.544
34336W        W99563  30.336  17.800   2.750
34337W        W99564  27.543   1.839  10.241
34338W        W99565  43.561   1.561  12.545
34339W        W99566  36.455  30.613   4.107
34340W        W99567  38.466  25.450   1.961
34341W        W99568   2.939  19.816   0.384
34342W        W99569   6.764  41.751  12.552
34343W        W99570  30.427  24.162   4.147
34344W        W99571  17.090  36.859  12.503
34345W        W99572  40.212  33.348   1.325
34346W        W99573  37.764  41.000   2.897
34347W        W99574   0.230  24.162  12.813
34348W        W99575   6.415  39.124   1.766
34349W        W99576  41.354  36.960   3.614
34350W        W99577  16.423  26.173   1.212
34351W        W99578  33.084  21.534  13.531
34352W        W99579   0.374  24.775  10.015
34353W        W99580  19.887   3.922  12.135
34354W        W99581  44.570  25.683  11.635
34355W        W99582   8.751  40.535  11.105
34356W        W99583  13.674   3.502   2.289
34357W        W99584  23.118   6.709   4.041
34358W        W99585  43.946  33.664   2.439
34359W        W99586  23.036  28.196   4.911
34360W        W99587  37.587  14.214   3.771
34361W        W99588  39.545   4.189  14.238
34362W        W99589  23.746  31.891   1.702
34363W        W99590  14.865  16.272  12.492
34364W        W99591  25.286  26.179   1.237
34365W        W99592  33.162  14.039   0.415
34366W        W99593  15.992  10.767   3.325
34367W        W99594  31.664  26.834   1.221
34368W        W99595  15.129  22.148   2.744
34369W        W99596  36.190  22.772   0.296
34370W        W99597  33.670   6.894   2.191
34371W        W99598  33.770   8.683   5.017
34372W        W99599   5.348   1.217  14.994
34373W        W99600  33.097  25.715   3.960
34374W        W99601  44.516  33.066   0.986
34375W        W99602  19.013  21.191  14.936
34376W        W99603  17.812   9.914   0.495
34377W        W99604  31.447   4.270   4.092
34378W        W99605   3.378  20.016   3.782
34379W        W99606  20.838   6.685  13.469
34380W        W99607  26.893  42.868   4.107
34381W        W99608  40.245  17.059  13.939
34382W        W99609   8.269  19.811   0.949
34383W        W99610  34.734  26.209   2.462
34384W        W99611  38.370  18.275  14.782
34385W        W99612  29.343  17.234   4.604
34386W        W99613  39.072  29.703   4.663
34387W        W99614   4.527  27.179   1.625
34388W        W99615   2.183  31.011  12.344
34389W        W99616  27.981  13.672  12.240
34390W        W99617  15.162  30.004  11.546
34391W        W99618  33.091  33.379   0.131
34392W        W99619   6.730  19.179  14.290
34393W        W99620  18.451   6.762   0.335
34394W        W99621  12.747  10.675  11.208
34395W        W99622  36.450  37.206  12.518
34396W        W99623   2.683  38.043   3.563
34397W        W99624  21.734   1.678   2.747
34398W        W99625   9.821  40.537  12.908
34399W        W99626  44.703  29.944   3.165
34400W        W99627   8.427  35.095  11.499
34401W        W99628  11.421  26.150   3.746
34402W        W99629  30.700  17.642   0.435
34403W        W99630  40.828  17.584   0.224
34404W        W99631  35.044   4.183  13.236
34405W        W99632  44.440   6.805   2.268
34406W        W99633  26.404  21.945  14.409
34407W        W99634  33.615  22.044   1.929
34408W        W99635  19.330   4.494  13.620
34409W        W99636  42.561  39.303  12.390
34410W        W99637  11.942  25.750   1.477
34411W        W99638  20.123  43.897   2.133
34412W        W99639  19.299  29.650  11.444
34413W        W99640  40.530   4.879   4.790
34414W        W99641  22.508  38.033   0.726
34415W        W99642  29.027  26.008  12.063
34416W        W99643  35.506  26.611  10.923
34417W        W99644  28.654  11.110   2.767
34418W        W99645   1.292  23.202  13.512
34419W        W99646  23.778  33.330  14.816
34420W        W99647  17.658  14.585  14.511
34421W        W99648  39.836  26.979   4.579
34422W        W99649  44.256   4.867   2.316
34423W        W99650  39.313  41.561   5.132
34424W        W99651  30.626   4.558  13.255
34425W        W99652  34.596  41.422   4.639
34426W        W99653  16.533   3.830   1.086
34427W        W99654  31.023  32.078  13.027
34428W        W99655  17.044  43.170  12.034
34429W        W99656  20.583  36.481   3.859
34430W        W99657  44.830  35.017  13.988
34431W        W99658  17.607  16.374  13.763
34432W        W99659  26.481  15.942   0.806
34433W        W99660  20.154  29.945   1.939
34434W        W99661  33.495   5.227   3.339
34435W        W99662  19.648  35.909  12.472
34436W        W99663  39.279   0.018   2.750
34437W        W99664  29.918  42.488   3.817
34438W        W99665  41.761  34.488   2.221
34439W        W99666  13.350   3.309  14.390
34440W        W99667  24.304  31.705  12.325
34441W        W99668  30.598  15.151  12.533
34442W        W99669  20.563  15.860  13.365
34443W        W99670  14.246   6.924  14.693
34444W        W99671  26.654  23.485  11.225
34445W        W99672   4.759   2.228   3.748
34446W        W99673   3.736   9.263   1.811
34447W        W99674  29.004  43.368   4.820
34448W        W99675   4.316  21.657  14.510
34449W        W99676  22.332  29.405  13.448
34450W        W99677   2.079  23.411  12.241
34451W        W99678   3.266  44.262  13.018
34452W        W99679   6.344  32.408  14.843
34453W        W99680  29.023  27.902   1.768
34454W        W99681  32.048  17.221  12.819
34455W        W99682  18.225  19.039  13.670
34456W        W99683  14.376  15.670  11.240
34457W        W99684  23.575   9.684   4.352
34458W        W99685   5.405   1.433  10.305
34459W        W99686  42.322  43.506   3.711
34460W        W99687  10.807  42.499  13.425
34461W        W99688   3.425  43.692  11.598
34462W        W99689  25.924  25.034   1.724
34463W        W99690  26.013  41.047  14.850
34464W        W99691   4.908  15.090  11.155
34465W        W99692  37.278  30.048  13.849
34466W        W99693  35.580  33.151   0.771
34467W        W99694   9.790  11.871  10.567
34468W        W99695  39.628  43.703   1.774
34469W        W99696  19.319  22.152   2.846
34470W        W99697   8.011  34.423   3.889
34471W        W99698  44.010  20.697   4.483
34472W        W99699  30.874  40.385  14.606
34473W        W99700  37.612  11.875  10.409
34474W        W99701  35.060   5.977   3.799
34475W        W99702  30.515  18.604   1.347
34476W        W99703  39.689   7.893  14.218
34477W        W99704  31.857  42.616   4.905
34478W        W99705  32.876  22.276   0.654
34479W        W99706   9.060  37.025   1.165
34480W        W99707  16.879  28.551   1.898
34481W        W99708  32.078  28.301   1.714
34482W        W99709  32.600   3.794   1.196
34483W        W99710   7.648   7.126  14.766
34484W        W99711  13.858  34.566   4.135
34485W        W99712  12.316  19.538  12.924
34486W        W99713  13.343  38.366  11.545
34487W        W99714  42.031  39.006  13.463
34488W        W99715  39.435  12.455   3.795
34489W        W99716   7.721  37.440   1.183
34490W        W99717  31.671  11.105  12.017
34491W        W99718  33.414  15.004   2.393
34492W        W99719  38.277   1.964  14.191
34493W        W99720  27.554  23.738   2.226
34494W        W99721  13.083  43.485   2.263
34495W        W99722   9.639  11.760  13.497
34496W        W99723  38.573  12.094   3.605
34497W        W99724   3.810  37.895   1.419
34498W        W99725  38.018  25.304   1.740
34499W        W99726  31.090  16.824  11.285
34500W        W99727  27.179  44.134  10.232
34501W        W99728  39.535   6.501  10.586
34502W        W99729  13.843  44.730  14.297
34503W        W99730   8.763  10.139   4.889
34504W        W99731  42.807  17.977   2.314
34505W        W99732  31.029  16.734  10.790
34506W        W99733   6.468  14.122   1.798
34507W        W99734  31.061   7.556  12.195
34508W        W99735  44.971  30.404   4.481
34509W        W99736   7.729   3.697   0.798
34510W        W99737  21.496   9.765   2.218
34511W        W99738  21.177  41.968  10.949
34512W        W99739  41.129  41.952  10.642
34513W        W99740  39.928   7.953   5.281
34514W        W99741  17.205  27.562   1.297
34515W        W99742  24.057  28.130   2.882
34516W        W99743   8.565   2.418   4.270
34517W        W99744  38.858  43.031   1.994
34518W        W99745  34.514  11.270  11.500
34519W        W99746  35.012  20.583   2.780
34520W        W99747  11.600  24.409   0.929
34521W        W99748  33.015  17.346   2.147
34522W        W99749  25.713  41.908   3.465
34523W        W99750  35.807   3.722  12.001
34524W        W99751  21.734   9.122  10.574
34525W        W99752   4.139  23.908  11.600
34526W        W99753  36.495   9.871  13.496
34527W        W99754  17.703  16.091  12.829
34528W        W99755  35.557  35.716  12.025
34529W        W99756  26.861  23.866   4.009
34530W        W99757  18.628  33.746   0.156
34531W        W99758  33.702  27.530   5.033
34532W        W99759  44.250  30.377   3.995
34533W        W99760  23.264  18.212   0.382
34534W        W99761  28.791  16.714  12.055
34535W        W99762  34.581  33.274  14.829
34536W        W99763   2.931  28.977  14.284
34537W        W99764   0.463  44.532   3.579
34538W        W99765  16.250  15.403  11.637
34539W        W99766  44.583  14.797  13.919
34540W        W99767   6.990   4.338   3.487
34541W        W99768  11.496  29.219   3.569
34542W        W99769  12.338  29.568  11.469
34543W        W99770  25.210   8.839  12.875
34544W        W99771  10.695  36.591   2.254
34545W        W99772  31.134  21.050   3.063
34546W        W99773  38.405  22.795  10.702
34547W        W99774  13.010   8.696  14.150
34548W        W99775  20.585  28.741   3.614
34549W        W99776   0.020  29.368  13.460
34550W        W99777  29.008   5.836   4.867
34551W        W99778   7.121   7.113  12.864
34552W        W99779  11.342  16.512   1.352
34553W        W99780  20.130  21.741   4.633
34554W        W99781  12.149  29.582  13.842
34555W        W99782  32.407  10.291  10.701
34556W        W99783  33.946   1.361   0.282
34557W        W99784  22.166  40.510  14.036
34558W        W99785  34.520  15.996  14.491
34559W        W99786   5.915  19.618  14.434
34560W        W99787  37.102  31.873   0.736
34561W        W99788   7.365  16.905  12.996
34562W        W99789  34.047  21.510  10.540
34563W        W99790  36.852  32.126  14.285
34564W        W99791   6.357  30.136  11.613
34565W        W99792  20.359  41.017   1.324
34566W        W99793  20.583  22.682  13.449
34567W        W99794   5.848  31.969   1.358
34568W        W99795   2.235   5.651  13.533
34569W        W99796   2.306  30.681   4.461
34570W        W99797   0.431  35.337   1.660
34571W        W99798  13.158   1.111  11.661
34572W        W99799  16.669  29.677  10.698
34573W        W99800  20.565  27.632  12.061
34574W        W99801  17.990   6.295   2.354
34575W        W99802  18.795  22.346  12.036
34576W        W99803  32.486   5.299  10.727
34577W        W99804   6.110   5.222  14.013
34578W        W99805  33.889  21.488   2.356
34579W        W99806  31.613   6.098   1.455
34580W        W99807  28.706  30.033   4.227
34581W        W99808   5.929  25.064   0.302
34582W        W99809  25.257  33.668  12.408
34583W        W99810  11.200  20.956   3.250
34584W        W99811  43.236  19.238   0.484
34585W        W99812  39.206  29.564  14.496
34586W        W99813  39.618   0.018  10.778
34587W        W99814  23.203  11.864   4.061
34588W        W99815  32.179  43.981  13.034
34589W        W99816  20.249  33.327  12.199
34590W        W99817  37.327  30.729   2.831
34591W        W99818   1.090   6.884  12.504
34592W        W99819  16.462  11.947   3.196
34593W        W99820  23.535   5.191  10.691
34594W        W99821  16.640  10.249   1.435
34595W        W99822   4.492  31.079  11.921
34596W        W99823  42.524  16.787   0.438
34597W        W99824  39.243   2.136  14.799
34598W        W99825   1.278  40.877  14.639
34599W        W99826  44.290   5.912   1.413
34600W        W99827  42.124   8.726  14.742
34601W        W99828  15.127  29.873  14.304
34602W        W99829  21.490  43.515   4.603
34603W        W99830   6.996   2.469  12.929
34604W        W99831  14.599   2.812  11.098
34605W        W99832  33.503   9.228   4.146
34606W        W99833  26.173  15.653  12.141
34607W        W99834  42.864  13.369   3.189
34608W        W99835  44.330  40.323  11.649
34609W        W99836   1.501  42.229   4.452
34610W        W99837  20.125  20.774  10.744
34611W        W99838  19.443  17.611   0.489
34612W        W99839  20.181  25.224  11.511
34613W        W99840  34.554  40.507  10.492
34614W        W99841   6.424  41.717   2.826
34615W        W99842  35.821   4.918   0.818
34616W        W99843  14.876   2.758  14.441
34617W        W99844  20.143  18.263   0.318
34618W        W99845  25.582   2.876  11.967
34619W        W99846   6.414  25.655  12.191
34620W        W99847   7.815  20.045   0.667
34621W        W99848  25.564  33.351   9.937
34622W        W99849  43.518   9.336  10.540
34623W        W99850  32.176  27.268   2.615
34624W        W99851  15.053  18.041  11.670
34625W        W99852  36.030  42.049   2.729
34626W        W99853  29.955  11.302  13.812
34627W        W99854  14.994  14.712   2.867
34628W        W99855  28.762  32.109   0.486
34629W        W99856  39.988  19.615   2.348
34630W        W99857  19.563  19.180   1.464
34631W        W99858  43.040   1.829  10.268
34632W        W99859  33.948  37.963   3.093
34633W        W99860   9.331  33.829   5.326
34634W        W99861  38.512  27.803  14.288
34635W        W99862   8.851   7.251  14.312
34636W        W99863   0.426   2.605   4.153
34637W        W99864   5.805  15.188  10.365
34638W        W99865  18.294   4.209   2.255
34639W        W99866  19.620  13.867  11.095
34640W        W99867  43.243  12.104   3.239
34641W        W99868  22.005   9.055   2.212
34642W        W99869  34.367  40.462  12.928
34643W        W99870   2.486  41.817   9.837
34644W        W99871  23.214  15.435   1.188
34645W        W99872  29.739  24.518  10.732
34646W        W99873  43.099  44.430   5.029
34647W        W99874  14.169  20.897   1.927
34648W        W99875  37.067  42.040  12.061
34649W        W99876  30.661  13.039   2.343
34650W        W99877  10.202  12.867   0.422
34651W        W99878  41.576  29.989  11.582
34652W        W99879  10.595  23.030  13.519
34653W        W99880  28.499  20.080   2.452
34654W        W99881  41.882  10.811   2.156
34655W        W99882  32.055  28.573   0.732
34656W        W99883  23.532  13.263  12.893
34657W        W99884  24.201  18.302   5.336
34658W        W99885  11.646   2.922  14.490
34659W        W99886   3.676  12.418  14.911
34660W        W99887  38.953  17.561  10.456
34661W        W99888  36.224   2.362  11.282
34662W        W99889  39.536  10.490   1.671
34663W        W99890   2.441  32.604   0.786
34664W        W99891  41.540   5.910   1.998
34665W        W99892  12.241  27.117   2.708
34666W        W99893  44.282  23.646   3.629
34667W        W99894  21.015  19.760   1.917
34668W        W99895  16.764  22.280   2.685
34669W        W99896  29.166  27.309   3.130
34670W        W99897  17.784   2.365   0.340
34671W        W99898  11.775  27.973  13.428
34672W        W99899  34.046  27.950  11.139
34673W        W99900  31.400  35.527  10.696
34674W        W99901  35.863   0.294   3.206
34675W        W99902  12.239  26.382  13.112
34676W        W99903  39.761   7.351  13.892
34677W        W99904  14.011  39.401   2.761
34678W        W99905  33.748  40.423   1.769
34679W        W99906   6.796   3.297   2.170
34680W        W99907  27.206  39.844   1.875
34681W        W99908  37.378  18.830  11.614
34682W        W99909  12.672  43.423  11.203
34683W        W99910  26.488  15.557  14.377
34684W        W99911   9.784  37.069  12.458
34685W        W99912  28.440   3.662  12.605
34686W        W99913  28.119  17.592   3.647
34687W        W99914  22.586  44.804   4.101
34688W        W99915  12.431  32.026  14.840
34689W        W99916  10.328   8.795  13.212
34690W        W99917  21.572  33.331  14.436
34691W        W99918   2.855  29.054   4.144
34692W        W99919  24.799   1.710  14.544
34693W        W99920  31.531  26.195  12.055
34694W        W99921   8.488   9.835   1.332
34695W        W99922  29.888  18.314  11.034
34696W        W99923  36.648  27.141   2.372
34697W        W99924  26.605  13.894   0.409
34698W        W99925   1.117  42.735   3.872
34699W        W99926  16.074   9.375  11.782
34700W        W99927  39.230  42.305  10.716
34701W        W99928   8.846  12.441   0.390
34702W        W99929  15.054  14.307   1.230
34703W        W99930  28.965  17.824  12.553
34704W        W99931  11.587  43.767   4.150
34705W        W99932  37.028   1.778  12.534
34706W        W99933  43.021  22.455  13.469
34707W        W99934  31.230   8.727  13.845
34708W        W99935   5.681  20.740   2.875
34709W        W99936  33.309  41.042  11.570
34710W        W99937  13.815  29.397  11.192
34711W        W99938  41.507   1.999  13.083
34712W        W99939  10.161  39.760  14.470
34713W        W99940  10.615   1.096  13.419
34714W        W99941  24.324  24.962   4.739
34715W        W99942  27.608  12.104  10.621
34716W        W99943  11.807  35.343  11.973
34717W        W99944  11.854  14.091   2.315
34718W        W99945   5.463  33.525  11.933
34719W        W99946  29.388  40.037  11.927
34720W        W99947  23.587  16.149  11.492
34721W        W99948  30.568  35.431  12.387
34722W        W99949   8.762   9.861  12.560
34723W        W99950  43.886  32.050   1.255
34724W        W99951  19.113  16.158   3.397
34725W        W99952  15.295  30.050   0.918
34726W        W99953   1.144  22.134  11.046
34727W        W99954   9.573  29.677  13.129
34728W        W99955  43.649  34.956   3.976
34729W        W99956  15.256  32.907  13.877
34730W        W99957  38.549   2.357   1.341
34731W        W99958   7.972  29.769  14.753
34732W        W99959  42.294  44.586   2.356
34733W        W99960  41.611  22.117   0.772
34734W        W99961   6.966  14.956   1.656
34735W        W99962  16.247  35.909  14.039
34736W        W99963  12.383  17.213  13.411
34737W        W99964  29.226  20.226  13.910
34738W        W99965  18.288  18.531  11.184
34739W        W99966  31.203  12.140   3.596
34740W        W99967  29.495  14.223  13.104
34741W        W99968   2.734  30.988   3.405
34742W        W99969  26.549   1.789  12.575
34743W        W99970  26.593   8.809   4.198
34744W        W99971  13.639  25.694   0.704
34745W        W99972  35.886  24.192   0.370
34746W        W99973  10.752  34.456  12.137
34747W        W99974  24.082   7.596   0.701
34748W        W99975  21.683  28.000   2.094
34749W        W99976  15.371  26.594  10.650
34750W        W99977  35.230  16.605   3.634
34751W        W99978  29.537  27.630  14.046
34752W        W99979   7.938  44.756  14.789
34753W        W99980   9.815   7.301  10.569
34754W        W99981  10.935  38.518   2.291
34755W        W99982  37.410  29.630  13.574
34756W        W99983  39.274  19.770  13.001
34757W        W99984  17.681  27.696  14.950
34758W        W99985  44.807  17.003  12.432
34759W        W99986  24.395  38.948  12.471
34760W        W99987  40.924  15.755  12.155
34761W        W99988   7.210   9.587  14.919
34762W        W99989   5.914  19.778   1.298
34763W        W99990  33.710  37.425  11.984
34764W        W99991  32.053   7.652  12.596
34765W        W99992  17.537  23.431  13.073
34766W        W99993  40.734  29.618  10.534
34767W        W99994   4.397  24.137   3.222
34768W        W99995  21.378  24.925  13.008
34769W        W99996  43.357  26.157   1.696
34770W        W99997  36.273  29.267   4.906
34771W        W99998  33.411  43.459  12.610
34772W        W99999  11.188  40.423   3.653
34773W        W    0  35.670  37.903  13.920
34774W        W    1  18.680  34.294  12.143
34775W        W    2  28.810   3.944   0.329
34776W        W    3  17.061   3.448  12.549
34777W        W    4  21.053  41.813   4.341
34778W        W    5  21.539   8.395  13.068
34779W        W    6  21.005  27.048   3.708
34780W        W    7  32.104  11.644   4.353
34781W        W    8  16.790  10.523   4.209
34782W        W    9   6.054  43.893   0.039
34783W        W   10  13.210  13.038   4.563
34784W        W   11  41.334   2.254   1.900
34785W        W   12  38.877  34.173  12.866
34786W        W   13  44.467  21.175  13.513
34787W        W   14  15.661  30.557   3.802
34788W        W   15  20.049  38.044   2.318
34789W        W   16  26.498  27.623  12.568
34790W        W   17  34.590  12.332  11.385
34791W        W   18  21.450  25.059   1.507
34792W        W   19   5.404  25.541   0.066
34793W        W   20  20.200  11.367  11.647
34794W        W   21   8.769  34.053   3.172
34795W        W   22  43.875  31.354  10.776
34796W        W   23  11.294  30.935  13.783
34797W        W   24  41.027  30.003   2.417
34798W        W   25  39.346  36.106  11.706
34799W        W   26  28.891  28.677  11.922
34800W        W   27  13.255  14.065  13.878
34801W        W   28  44.077  11.178   3.632
34802W        W   29   2.457   6.679   1.218
34803W        W   30   7.640  34.021  12.882
34804W        W   31  29.928  15.836   1.784
34805W        W   32  23.342  41.705   3.407
34806W        W   33  43.094  27.023   4.059
34807W        W   34   9.828  33.546  13.416
34808W        W   35  28.871   6.466   0.255
34809W        W   36   9.254  24.150  10.706
34810W        W   37  34.564  37.430  14.452
34811W        W   38  25.581  43.478  11.069
34812W        W   39   2.526  40.296   4.218
34813W        W   40  17.083   7.209   4.177
34814W        W   41  43.013  14.886  13.040
34815W        W   42  29.908  36.423   4.673
34816W        W   43  21.744  39.966   1.482
34817W        W   44  41.632  13.098  14.552
34818W        W   45  20.998  43.878   2.118
34819W        W   46  21.670  32.400   2.720
34820W        W   47   1.817   2.445   1.256
34821W        W   48  27.406  12.236  13.523
34822W        W   49  15.857  30.577  11.009
34823W        W   50  30.120  39.361   2.655
34824W        W   51  35.124   2.878   1.294
34825W        W   52  38.051  16.640  12.133
34826W        W   53  27.889  37.329   2.780
34827W        W   54  10.706   7.147  11.678
34828W        W   55  15.693  42.516  13.337
34829W        W   56  20.927  30.299  12.023
34830W        W   57  22.746  29.020  12.152
34831W        W   58  44.405  32.162  10.717
34832W        W   59  43.973  14.842  13.097
34833W        W   60  17.298  41.765   4.048
34834W        W   61  18.470  22.624   3.180
34835W        W   62  19.082  24.511   3.919
34836W        W   63  15.065   0.218  14.040
34837W        W   64   7.260  15.169   0.200
34838W        W   65  35.442  25.051   1.807
34839W        W   66   8.775   0.868  13.267
34840W        W   67  13.455  42.546  13.409
34841W        W   68  17.823  39.393   0.053
34842W        W   69   6.896   2.842  11.999
34843W        W   70  26.260   5.182   2.754
34844W        W   71  23.885  37.984   1.905
34845W        W   72  17.144  30.385   3.407
34846W        W   73   3.458  10.240   2.468
34847W        W   74  13.846  25.473   4.542
34848W        W   75  34.884  33.673  13.324
34849W        W   76  22.652  11.104  10.971
34850W        W   77  21.772  32.101  12.072
34851W        W   78  10.323  40.670  11.201
34852W        W   79  19.685  28.837  11.463
34853W        W   80  10.166   2.813  11.442
34854W        W   81  12.695   4.481  11.031
34855W        W   82  24.020  16.728   2.988
34856W        W   83  19.096  17.657   0.107
34857W        W   84   2.922  30.739   2.169
34858W        W   85   1.365  27.384   2.284
34859W        W   86  39.445   4.220  14.734
34860W        W   87   6.363  38.612   1.828
34861W        W   88  14.540  17.778   0.453
34862W        W   89  39.425  25.456  13.057
34863W        W   90  17.404  35.400   3.117
34864W        W   91  12.126  19.514  10.684
34865W        W   92  22.555  27.664  12.503
34866W        W   93  33.166  28.370  11.209
34867W        W   94  26.924   4.209  10.313
34868W        W   95  20.252  17.239   4.155
34869W        W   96  26.701  41.771   2.412
34870W        W   97  32.297  18.569  14.807
34871W        W   98  43.253   2.423  12.346
34872W        W   99  33.991  19.507   2.417
34873W        W  100  25.621  30.178   1.013
34874W        W  101  19.629  12.957  12.994
34875W        W  102   6.877   4.811   3.684
34876W        W  103   5.679  41.790  13.959
34877W        W  104   1.495   6.204   0.896
34878W        W  105   2.750  40.028   3.834
34879W        W  106  31.790  34.949   4.538
34880W        W  107  10.894  44.540  12.544
34881W        W  108  18.682  37.516  14.886
34882W        W  109  25.648  34.228  10.668
34883W        W  110  27.684  36.461   1.207
34884W        W  111  18.406  25.203   4.254
34885W        W  112  28.349  32.541  13.314
34886W        W  113  34.702  36.674  11.806
34887W        W  114  31.113   3.842  11.233
34888W        W  115  44.270  35.543  14.758
34889W        W  116   1.447  12.286  13.509
34890W        W  117   3.166  44.845   1.896
34891W        W  118  35.020  26.308  12.654
34892W        W  119   5.381  42.078   2.420
34893W        W  120   4.302  37.586   1.272
34894W        W  121  37.381  26.625   3.168
34895W        W  122  13.663  42.492   0.787
34896W        W  123  17.302  13.319   0.480
34897W        W  124  27.966  18.730   0.924
34898W        W  125   7.226  36.580  13.547
34899W        W  126  33.649   2.443  12.908
34900W        W  127  32.974  28.908  14.302
34901W        W  128  43.997  40.197   0.377
34902W        W  129  19.218  17.657   0.959
34903W        W  130   5.706  32.169  12.555
34904W        W  131  41.304  33.016   1.033
34905W        W  132  35.174  13.531   3.381
34906W        W  133  19.804  21.361  14.924
34907W        W  134   1.318   1.577   4.390
34908W        W  135  34.588  36.378   3.186
34909W        W  136  15.302  26.019  11.572
34910W        W  137  40.801  18.707   3.297
34911W        W  138  43.392  17.488   4.553
34912W        W  139   4.812  37.245  13.123
34913W        W  140  39.655   7.708   0.403
34914W        W  141  22.198  13.112  10.772
34915W        W  142   1.862  35.307   0.107
34916W        W  143  37.543  21.508  14.778
34917W        W  144  28.830  29.909  13.485
34918W        W  145   9.176  12.186  11.434
34919W        W  146  27.751  19.106  14.419
34920W        W  147  39.448   8.681   5.106
34921W        W  148  22.634   7.294  13.535
34922W        W  149  15.718  40.056  11.646
34923W        W  150  42.004  38.920   0.445
34924W        W  151  44.448   1.334   1.554
34925W        W  152  32.392  24.714   0.346
34926W        W  153  43.509  18.271  11.547
34927W        W  154   6.713  31.972   3.724
34928W        W  155  28.970  22.492   3.153
34929W        W  156  19.618  40.753   4.766
34930W        W  157  42.322  21.070   2.770
34931W        W  158   2.845  18.660   0.353
34932W        W  159  32.930  26.494  14.785
34933W        W  160   1.463   1.979  14.061
34934W        W  161  11.405   1.461  12.732
34935W        W  162  25.703  17.291  14.814
34936W        W  163  18.323  21.103   2.775
34937W        W  164  39.523  23.282  11.444
34938W        W  165  29.411  10.974  12.650
34939W        W  166  19.069  13.657   1.467
34940W        W  167   0.092  37.233   0.041
34941W        W  168  23.174  38.107  13.899
34942W        W  169   2.162  10.241  14.046
34943W        W  170  14.097   1.536   0.892
34944W        W  171  10.359  35.697  14.721
34945W        W  172  17.383  41.444  10.409
34946W        W  173  10.669  36.585  14.752
34947W        W  174  25.721  15.066   0.369
34948W        W  175   5.844   0.263   4.571
34949W        W  176  19.000  21.723   2.926
34950W        W  177  33.969  38.823  10.940
34951W        W  178  20.282  17.581   0.697
34952W        W  179  12.143   8.596   4.717
34953W        W  180   8.055  44.272   0.006
34954W        W  181   6.179  11.881   2.343
34955W        W  182  10.934  37.625  13.390
34956W        W  183  19.992  24.542   4.432
34957W        W  184  21.971  13.163   4.246
34958W        W  185   5.437  18.241   1.430
34959W        W  186  41.316  15.367   2.724
34960W        W  187  41.831  22.187  13.128
34961W        W  188   4.375  26.949  13.421
34962W        W  189  15.157  20.429  11.484
34963W        W  190  36.580  18.699   4.328
34964W        W  191  23.980  32.097  12.204
34965W        W  192  18.473  29.001  13.082
34966W        W  193  43.550  30.644  11.870
34967W        W  194  41.773  25.135  12.092
34968W        W  195   4.684  33.643   1.935
34969W        W  196   4.476  14.058  13.047
34970W        W  197  21.366  36.443   2.236
34971W        W  198  38.873  24.726  12.957
34972W        W  199   4.952  30.440   9.808
34973W        W  200  11.562  36.054   0.793
34974W        W  201  17.006  35.928  13.112
34975W        W  202  16.451  16.303  14.524
34976W        W  203  25.231   5.345  11.659
34977W        W  204  16.824  14.380   4.972
34978W        W  205  23.895  40.315  13.975
34979W        W  206  21.185  37.953   0.000
34980W        W  207  41.098   3.302  14.638
34981W        W  208  39.286  30.692   4.370
34982W        W  209  38.848  28.104   3.775
34983W        W  210  23.937   8.643  13.403
34984W        W  211  43.966  15.728  13.225
34985W        W  212  28.429  12.786  11.519
34986W        W  213   1.411  33.158   2.859
34987W        W  214  35.069   5.674   1.409
34988W        W  215  28.482   2.369  13.462
34989W        W  216  16.482  28.886   3.671
34990W        W  217  34.323  42.225   4.269
34991W        W  218  30.389  29.463  11.046
34992W        W  219  43.560  18.857  12.170
34993W        W  220  39.411  13.089   0.123
34994W        W  221  12.945  31.003  13.714
34995W        W  222  41.033  15.768  11.047
34996W        W  223  29.389  21.298   0.260
34997W        W  224  39.840  38.509   3.300
34998W        W  225  32.474  37.785  13.533
34999W        W  226  37.468  26.313  14.854
35000W        W  227  21.613  13.604   3.311
35001W        W  228   5.712   1.399   3.242
35002W        W  229  28.075  23.518  10.350
35003W        W  230  26.950  44.492   4.478
35004W        W  231  30.945   2.206  14.459
35005W        W  232  40.375  20.200   1.324
35006W        W  233  12.273   2.931  14.754
35007W        W  234  27.721   2.367  12.896
35008W        W  235   9.146   7.663   0.346
35009W        W  236  30.068  32.054   1.086
35010W        W  237   5.283  11.815  14.518
35011W        W  238  28.618  24.467   0.840
35012W        W  239  10.099  29.024   2.356
35013W        W  240  30.085   7.864   2.959
35014W        W  241  12.015   3.262   1.335
35015W        W  242  21.569  23.785   0.652
35016W        W  243  14.157  24.122   3.612
35017W        W  244  38.048  15.001   0.410
35018W        W  245   0.255  11.979   1.357
35019W        W  246  29.226  41.041  14.872
35020W        W  247  29.690  10.734   1.714
35021W        W  248  27.239  10.734  14.453
35022W        W  249  36.635  15.713   2.782
35023W        W  250   4.030   9.412  14.360
35024W        W  251  30.035  32.894  12.020
35025W        W  252   5.245  21.650   4.165
35026W        W  253  44.408   1.400  11.457
35027W        W  254  22.518  33.538  12.991
35028W        W  255  29.196  34.598  10.286
35029W        W  256  23.408  43.028  10.473
35030W        W  257   0.770  44.092  12.902
35031W        W  258  16.851  15.808   4.169
35032W        W  259  18.025  14.936  14.499
35033W        W  260  21.876  21.880  11.700
35034W        W  261  12.069   1.785  14.899
35035W        W  262  30.317   7.231   3.824
35036W        W  263  12.742  30.699   1.777
35037W        W  264  22.063  43.815   1.200
35038W        W  265  21.635  23.076  10.727
35039W        W  266  34.902  22.213   4.702
35040W        W  267  10.145  33.816   1.716
35041W        W  268  27.243  33.980   2.326
35042W        W  269  28.992   0.283   2.888
35043W        W  270  14.812  29.424  14.958
35044W        W  271  34.253  35.346  14.763
35045W        W  272  25.627  29.439   4.777
35046W        W  273  26.283   7.424   2.800
35047W        W  274  23.066   0.724  14.359
35048W        W  275  20.101  34.744  11.299
35049W        W  276  21.370  29.747   4.354
35050W        W  277   8.757  10.403   2.683
35051W        W  278   3.625   5.398  12.128
35052W        W  279  22.698   4.486   1.543
35053W        W  280  17.520  29.602   3.769
35054W        W  281  24.489  13.489   4.837
35055W        W  282   5.384   7.729  14.923
35056W        W  283  23.722  26.050   2.596
35057W        W  284  42.846  44.045   1.817
35058W        W  285  20.588  40.468  12.059
35059W        W  286  14.709  35.154   4.195
35060W        W  287  43.781  39.051   1.235
35061W        W  288  35.556  42.179  12.933
35062W        W  289  41.785  32.821   3.849
35063W        W  290  26.472  15.261   3.281
35064W        W  291  25.322  23.854   3.723
35065W        W  292  10.293  20.406  13.272
35066W        W  293  43.352   2.959   0.574
35067W        W  294  33.208   0.745  10.795
35068W        W  295  35.256  40.473   0.643
35069W        W  296  36.951  38.333   2.032
35070W        W  297  24.277  39.358   0.813
35071W        W  298  22.939  25.736   2.031
35072W        W  299  44.360  17.917   2.667
35073W        W  300  31.989  31.627   3.700
35074W        W  301  38.130  12.814  10.817
35075W        W  302   3.293  38.483   1.515
35076W        W  303  37.582   1.973   3.742
35077W        W  304   0.192  17.237   3.349
35078W        W  305   8.472  14.090  13.090
35079W        W  306   6.797  15.264   1.291
35080W        W  307   1.492  34.970  11.159
35081W        W  308   9.686  33.809   0.789
35082W        W  309  31.688  25.429  11.654
35083W        W  310  25.054   7.960   2.322
35084W        W  311  36.013  35.455  11.128
35085W        W  312  15.313   8.186   4.086
35086W        W  313  33.608   3.435   3.276
35087W        W  314  27.786  27.107  10.971
35088W        W  315   7.259  19.006  11.024
35089W        W  316   2.157  24.826   0.944
35090W        W  317  27.073  26.646  10.641
35091W        W  318   7.120   9.156  14.059
35092W        W  319  15.076  30.570   1.239
35093W        W  320   7.098  35.246   4.180
35094W        W  321  12.370  29.009  13.061
35095W        W  322  14.797  10.876  12.483
35096W        W  323  44.903   5.677  13.486
35097W        W  324  41.905  15.103  13.902
35098W        W  325   5.133  33.597  11.553
35099W        W  326  41.568  39.847   0.135
35100W        W  327  41.147   4.486  11.163
35101W        W  328  11.563  34.582  13.100
35102W        W  329  39.187   7.231   0.899
35103W        W  330  10.701  23.477   3.256
35104W        W  331  31.128   3.656  14.411
35105W        W  332  34.045  23.944   0.891
35106W        W  333  19.290  10.340  13.314
35107W        W  334  13.640  29.094   1.262
35108W        W  335  11.076  12.642  10.378
35109W        W  336   6.413  41.403  13.448
35110W        W  337  13.303   6.828   3.443
35111W        W  338  44.835  25.557   4.103
35112W        W  339   5.902  13.230   0.119
35113W        W  340   2.259  25.164  10.786
35114W        W  341  16.297  41.890   2.593
35115W        W  342  31.825  43.779  12.690
35116W        W  343  27.296  15.358  10.320
35117W        W  344  16.840   7.247   2.524
35118W        W  345  21.245  19.635  14.492
35119W        W  346  10.317  21.795   3.325
35120W        W  347  18.096  29.525   4.595
35121W        W  348   4.450  19.075  13.424
35122W        W  349  19.855  33.772   2.016
35123W        W  350  10.755   4.095  14.547
35124W        W  351  20.319   2.200   4.834
35125W        W  352  37.573   3.099  10.647
35126W        W  353  29.165  16.826  14.054
35127W        W  354  23.279  34.110   0.071
35128W        W  355   2.884   4.470   4.110
35129W        W  356  17.035  28.178   0.416
35130W        W  357  44.039  33.094   0.697
35131W        W  358  29.966   1.361  13.136
35132W        W  359   0.458  33.861   1.038
35133W        W  360  28.642  15.358  14.013
35134W        W  361   6.259   9.706  11.109
35135W        W  362   9.047  30.627   4.130
35136W        W  363   6.291  39.198   0.530
35137W        W  364  30.209   7.700   2.110
35138W        W  365   2.281   9.673  11.548
35139W        W  366  31.936   0.467  12.890
35140W        W  367  17.741  33.371  13.742
35141W        W  368  40.637  41.321   4.512
35142W        W  369  23.740  17.732  12.427
35143W        W  370  13.289  43.304  12.374
35144W        W  371  22.647  40.700  12.613
35145W        W  372   0.444  40.667   1.445
35146W        W  373  28.731   4.400   2.410
35147W        W  374  36.592   1.001  12.498
35148W        W  375   5.913   6.877   0.776
35149W        W  376  38.263  25.750   1.607
35150W        W  377   3.507  15.828  11.115
35151W        W  378  18.754   4.409   3.309
35152W        W  379  38.962  33.858   3.564
35153W        W  380  10.670   5.831   2.831
35154W        W  381  30.379  23.205  13.111
35155W        W  382  38.234  30.925   0.641
35156W        W  383  22.499  33.536   3.717
35157W        W  384  19.084  13.492   3.388
35158W        W  385  23.715  38.546   1.034
35159W        W  386  31.046  32.078   4.028
35160W        W  387  39.335  23.497   1.017
35161W        W  388  43.859  18.547  10.299
35162W        W  389   2.131  11.807   2.930
35163W        W  390  29.398  36.420  13.712
35164W        W  391  24.942  26.167   3.117
35165W        W  392  11.308  34.028  13.836
35166W        W  393  41.610  20.839  13.927
35167W        W  394  21.490   2.986   3.083
35168W        W  395  18.499  28.686   3.907
35169W        W  396  38.852  22.221  12.489
35170W        W  397  12.172   6.672  12.957
35171W        W  398  31.362  37.941  12.937
35172W        W  399   1.804  18.504   0.839
35173W        W  400   3.218   3.204  14.466
35174W        W  401  23.703  15.915   3.369
35175W        W  402   6.767  19.782   2.323
35176W        W  403   3.940  43.494   2.704
35177W        W  404   5.709  16.652   2.792
35178W        W  405  19.577   2.721   2.741
35179W        W  406  22.561  17.898   4.032
35180W        W  407  18.043   2.244   0.786
35181W        W  408  12.357  24.941   1.321
35182W        W  409  33.153  39.477  13.365
35183W        W  410  31.124   8.291   0.474
35184W        W  411  42.337   2.000  13.415
35185W        W  412  34.206  32.105   4.032
35186W        W  413  22.531  22.408  12.093
35187W        W  414  21.086  44.298  11.748
35188W        W  415   9.081  22.121  11.589
35189W        W  416  31.722  31.889  11.098
35190W        W  417  33.937  32.347   2.170
35191W        W  418  38.297  19.304   0.241
35192W        W  419  17.840   9.769  12.559
35193W        W  420  38.842  41.859   3.674
35194W        W  421  41.460   3.836   4.290
35195W        W  422   2.250  11.920  14.332
35196W        W  423  13.697  20.394  13.459
35197W        W  424  26.956   5.519   4.184
35198W        W  425   4.812  34.234   1.972
35199W        W  426  37.306  24.672  11.186
35200W        W  427   5.968  12.964   2.421
35201W        W  428  15.660  28.574   1.265
35202W        W  429  42.686  32.214  14.464
35203W        W  430  41.609  27.449   0.977
35204W        W  431  31.500  10.645  12.154
35205W        W  432   8.927  12.314   3.233
35206W        W  433  44.261  27.658   3.192
35207W        W  434  44.950  38.903   1.896
35208W        W  435  23.054  38.212   3.155
35209W        W  436  36.059  42.060  12.997
35210W        W  437  12.542  33.918   1.768
35211W        W  438   9.928   7.632   3.674
35212W        W  439   8.886   0.189   0.459
35213W        W  440  33.647  38.989  13.962
35214W        W  441  20.065  13.523  13.598
35215W        W  442   2.725  23.003  14.960
35216W        W  443  20.868  35.002  11.030
35217W        W  444  15.733  37.859   4.637
35218W        W  445   8.382   3.861  14.340
35219W        W  446  18.038  26.339  13.435
35220W        W  447  29.575   9.782   0.459
35221W        W  448  13.681  14.588   4.712
35222W        W  449  12.564  26.938   4.359
35223W        W  450  38.707  43.252   3.828
35224W        W  451  25.294  36.620   2.335
35225W        W  452  13.176  10.668  13.046
35226W        W  453  38.321   0.547  10.782
35227W        W  454  42.299  27.001   3.624
35228W        W  455  38.276  20.620   3.185
35229W        W  456  23.581  11.680  14.318
35230W        W  457  41.207   5.503  11.175
35231W        W  458  13.663  22.674  14.156
35232W        W  459  25.181  12.944   0.752
35233W        W  460   8.888  17.653   4.155
35234W        W  461   7.558  29.168   3.297
35235W        W  462   5.766   8.673  12.496
35236W        W  463   8.879  21.434   1.738
35237W        W  464  42.210   2.007   4.798
35238W        W  465   8.906  20.698   0.443
35239W        W  466  28.863  11.206   1.884
35240W        W  467   0.859  40.638  14.845
35241W        W  468  17.250  11.117   2.169
35242W        W  469  15.764  10.835  10.699
35243W        W  470  24.151  44.379  11.017
35244W        W  471  32.968  30.428  14.353
35245W        W  472  28.048  11.899  13.057
35246W        W  473  25.171  21.229   2.836
35247W        W  474  13.193  40.787  12.413
35248W        W  475  24.311  23.271  12.829
35249W        W  476  21.243  38.457   3.140
35250W        W  477  11.922  42.037   0.013
35251W        W  478  34.521  41.603   2.322
35252W        W  479   2.357   9.852   4.627
35253W        W  480   4.437   1.476  13.592
35254W        W  481  23.755   7.385  11.942
35255W        W  482  23.517  28.713  10.581
35256W        W  483  28.702  20.517   4.271
35257W        W  484  38.563  26.485  14.155
35258W        W  485  25.562   2.389  12.141
35259W        W  486  39.056  34.466   3.413
35260W        W  487  32.351   3.265   4.472
35261W        W  488  22.615  41.448   4.630
35262W        W  489  18.350  28.714   1.009
35263W        W  490  33.065   1.803   2.223
35264W        W  491  31.480  10.289   2.928
35265W        W  492  18.337   2.166   3.154
35266W        W  493  34.550  16.233  10.528
35267W        W  494  44.832  20.502   0.122
35268W        W  495   3.608   2.928   4.745
35269W        W  496  32.868  11.141   0.981
35270W        W  497   3.317   1.115  11.000
35271W        W  498   7.265  28.142  13.966
35272W        W  499  38.806  29.156   1.451
35273W        W  500   0.423   8.678  11.565
35274W        W  501  21.690  28.116   2.599
35275W        W  502   2.821  19.501   0.795
35276W        W  503   6.149  11.346  14.774
35277W        W  504   0.777   4.477   4.571
35278W        W  505  24.699  15.631   3.342
35279W        W  506  10.654  37.393   4.662
35280W        W  507  36.630  17.716   4.251
35281W        W  508  38.347  30.864  13.825
35282W        W  509  13.150  39.386  13.298
35283W        W  510  11.864  35.526   4.012
35284W        W  511  27.524  40.324   3.545
35285W        W  512  19.164  37.501  11.947
35286W        W  513  32.938   1.498  13.008
35287W        W  514  43.230  10.163  14.754
35288W        W  515  30.022  25.550  11.232
35289W        W  516  38.419  14.246  10.922
35290W        W  517   6.711  24.528  13.436
35291W        W  518  42.754   2.758   2.972
35292W        W  519  24.061  40.066  14.742
35293W        W  520  21.392  25.751  12.011
35294W        W  521  25.794   4.240   4.017
35295W        W  522  31.288  16.403   1.885
35296W        W  523  11.723  10.773  14.321
35297W        W  524  34.684  18.027  12.701
35298W        W  525  15.989  36.043  10.767
35299W        W  526  21.111  12.676  11.131
35300W        W  527   6.801  23.185   0.968
35301W        W  528  27.126  32.836  11.745
35302W        W  529  42.817  44.504  10.447
35303W        W  530   3.592  34.902   2.202
35304W        W  531  14.029  36.366   0.186
35305W        W  532  41.898  34.200   1.294
35306W        W  533   0.807  40.132  14.848
35307W        W  534   8.196  13.517  14.849
35308W        W  535  36.191  16.519  12.901
35309W        W  536  25.279  14.683  13.956
35310W        W  537  24.651   5.401   0.915
35311W        W  538  15.384  30.289   1.961
35312W        W  539   0.995  27.483  13.589
35313W        W  540  20.110   4.777  14.968
35314W        W  541  15.167  12.693   1.743
35315W        W  542   4.157  33.109  14.474
35316W        W  543  26.933   0.317  12.923
35317W        W  544  25.608  43.279   1.243
35318W        W  545  14.677  11.216   4.507
35319W        W  546  32.455   5.196  11.734
35320W        W  547  30.424  42.969  11.219
35321W        W  548   4.424  44.249   2.610
35322W        W  549  37.994  15.501   0.391
35323W        W  550  26.429  17.557   0.327
35324W        W  551  44.078  19.041  11.552
35325W        W  552  43.020  43.321  12.294
35326W        W  553  10.998   9.209  11.674
35327W        W  554  30.714  30.223   5.062
35328W        W  555  32.900  20.074  11.243
35329W        W  556  31.665  23.678   2.130
35330W        W  557  10.383   1.936  14.401
35331W        W  558   4.331  17.481  12.804
35332W        W  559  29.436  29.062  13.104
35333W        W  560  15.282  22.238  14.780
35334W        W  561  21.250  14.782  11.211
35335W        W  562  21.482  24.254  13.405
35336W        W  563  10.146   7.334  13.493
35337W        W  564   2.937  34.050  10.648
35338W        W  565  19.594  36.732  13.551
35339W        W  566  25.626  18.631   1.430
35340W        W  567  23.779  14.134   0.344
35341W        W  568  20.879  34.598   4.047
35342W        W  569  10.015  14.517   3.680
35343W        W  570  31.508  14.708  12.570
35344W        W  571   0.325  38.936   1.417
35345W        W  572  10.549  24.182   0.125
35346W        W  573  21.266   4.523   2.185
35347W        W  574  30.080  17.587  10.728
35348W        W  575  31.507  35.277   9.820
35349W        W  576  27.330   8.099   2.201
35350W        W  577   6.443  37.972  12.112
35351W        W  578  40.821  31.885   0.226
35352W        W  579  43.609  28.117   0.259
35353W        W  580  22.480  32.681  14.509
35354W        W  581  15.707  35.514  13.431
35355W        W  582  26.085   8.061  13.867
35356W        W  583   2.702   0.850   0.521
35357W        W  584  38.939  21.717   3.712
35358W        W  585   5.302  29.539   0.024
35359W        W  586  29.879   1.339   2.851
35360W        W  587  12.597  12.064   1.267
35361W        W  588  15.543  13.630   1.469
35362W        W  589  23.054  17.627   3.251
35363W        W  590  14.943   1.317   3.293
35364W        W  591  30.654   7.908   0.269
35365W        W  592  44.425   2.229  13.801
35366W        W  593  40.965   1.232  14.991
35367W        W  594  31.611  25.787  12.421
35368W        W  595  37.528  27.019  13.425
35369W        W  596  35.402  11.559   0.373
35370W        W  597   7.330  26.449   4.638
35371W        W  598   5.762   2.933   4.357
35372W        W  599   5.007  16.165  13.064
35373W        W  600  43.058  30.695   2.119
35374W        W  601  31.140  10.387   0.343
35375W        W  602  32.088  38.576  14.856
35376W        W  603  42.498  21.392  13.051
35377W        W  604   2.511  41.565  12.613
35378W        W  605  37.504  42.182   4.101
35379W        W  606  40.942   4.619   2.390
35380W        W  607  13.645  19.072   2.123
35381W        W  608  28.772  19.023   4.558
35382W        W  609  39.048  32.495  13.532
35383W        W  610  19.153  28.473  11.723
35384W        W  611  40.554  11.115  14.880
35385W        W  612   8.389  31.419   2.875
35386W        W  613   3.722   3.777   3.080
35387W        W  614  16.035   8.773  13.471
35388W        W  615  16.881   8.233  13.380
35389W        W  616  41.734  14.301  13.441
35390W        W  617  16.298  14.893  11.580
35391W        W  618   8.123  32.560  14.402
35392W        W  619  34.124  32.069  12.606
35393W        W  620  32.157   5.769   2.029
35394W        W  621  31.109  42.646  14.764
35395W        W  622   5.987  17.305  13.507
35396W        W  623  39.776  22.178  12.501
35397W        W  624  23.679  34.542   0.768
35398W        W  625  28.159   8.806   3.264
35399W        W  626   4.718   6.402   4.222
35400W        W  627   1.036  42.695  12.038
35401W        W  628  42.345   7.405   4.352
35402W        W  629   6.183  26.914  10.153
35403W        W  630  11.213   4.635   4.044
35404W        W  631  19.900   8.105  14.058
35405W        W  632  44.486  39.032  14.356
35406W        W  633  34.505  21.265  14.044
35407W        W  634   7.765  38.774  13.339
35408W        W  635  36.467  31.617  11.535
35409W        W  636  17.355  37.193  10.272
35410W        W  637  31.763   7.315  10.784
35411W        W  638   7.257  12.073  12.923
35412W        W  639  28.405  31.936   0.028
35413W        W  640  38.616  13.413  10.917
35414W        W  641  17.436   7.248   4.559
35415W        W  642   9.357  17.984  14.027
35416W        W  643  33.061  39.685   3.886
35417W        W  644  11.913  24.650   1.305
35418W        W  645   9.817   7.649   3.098
35419W        W  646  25.537  12.911   3.035
35420W        W  647  22.943  11.281   0.916
35421W        W  648  21.028  15.200  12.022
35422W        W  649  12.657   8.378   4.909
35423W        W  650   6.848  12.322   1.894
35424W        W  651  26.815  39.014   3.158
35425W        W  652  26.487  44.927  12.697
35426W        W  653  20.989  24.157  11.529
35427W        W  654  35.174  37.756  11.587
35428W        W  655  28.211  34.364  14.312
35429W        W  656   6.791  30.909  11.122
35430W        W  657   7.216  19.823   3.322
35431W        W  658  35.611  36.555   0.535
35432W        W  659   3.990  30.877  11.608
35433W        W  660   8.142  18.612   4.581
35434W        W  661  35.893  26.784  11.206
35435W        W  662  21.831   5.329   0.358
35436W        W  663  33.844  27.413   0.752
35437W        W  664   7.891  19.197  12.988
35438W        W  665   0.945  14.178   0.460
35439W        W  666  21.861  11.723   0.741
35440W        W  667  14.613  11.332   1.960
35441W        W  668   7.894   1.947   3.357
35442W        W  669   7.200  33.703  14.508
35443W        W  670  14.682   1.935   3.670
35444W        W  671  33.510   2.603   0.207
35445W        W  672  25.464  39.803   2.340
35446W        W  673  28.163  37.084   4.139
35447W        W  674  35.808  33.516  13.679
35448W        W  675  11.429  32.938  13.083
35449W        W  676  43.830   2.257   0.781
35450W        W  677  25.371  26.020  14.270
35451W        W  678  39.561  40.498   0.300
35452W        W  679  36.120  38.983   3.858
35453W        W  680  12.239   3.735  13.374
35454W        W  681  17.330  37.059  14.512
35455W        W  682  44.110  34.622  11.981
35456W        W  683  42.715  24.836   0.293
35457W        W  684   2.883  35.564   3.688
35458W        W  685  43.904  19.023  13.324
35459W        W  686  27.680  37.532   3.236
35460W        W  687   5.880  39.489   4.027
35461W        W  688   1.967  41.096   1.770
35462W        W  689   4.917  39.381   2.227
35463W        W  690  32.843  10.580  12.569
35464W        W  691  31.887  30.969  14.920
35465W        W  692  26.207  35.571   4.806
35466W        W  693  31.482  37.445  11.886
35467W        W  694   6.801   0.204   5.554
35468W        W  695   9.887   0.034   3.456
35469W        W  696  26.457  20.532   3.275
35470W        W  697  44.944   6.268  14.122
35471W        W  698  12.126  44.479  13.156
35472W        W  699  33.172  27.989   4.160
35473W        W  700   0.554  16.971  11.640
35474W        W  701  26.626   8.367  13.842
35475W        W  702  32.646  17.232  14.464
35476W        W  703  23.084  42.994   2.278
35477W        W  704  32.643  19.675   4.718
35478W        W  705  28.714   8.899   0.173
35479W        W  706   5.464   7.524  13.494
35480W        W  707  35.653  34.910   0.014
35481W        W  708  34.357  43.576   2.302
35482W        W  709  36.500  35.091  13.920
35483W        W  710  33.628  12.073  11.722
35484W        W  711  22.729  28.617   4.058
35485W        W  712  12.216  19.050  10.417
35486W        W  713   4.753  17.150  14.759
35487W        W  714  10.090  32.559  12.145
35488W        W  715  11.294  35.257  13.067
35489W        W  716  18.123  37.356  13.035
35490W        W  717  36.121  23.663  13.726
35491W        W  718  21.293  18.959   1.536
35492W        W  719  23.570  43.491   4.069
35493W        W  720  44.591  43.424  12.607
35494W        W  721   6.624  13.753  14.731
35495W        W  722  21.749  20.027  13.430
35496W        W  723  41.310  20.761   2.950
35497W        W  724   5.416  17.730   4.092
35498W        W  725  15.948  39.147   3.700
35499W        W  726   0.193   3.244  13.528
35500W        W  727  42.907  20.613   1.590
35501W        W  728  44.848  41.356   4.807
35502W        W  729  33.397  19.581   1.404
35503W        W  730   7.200  37.537  14.841
35504W        W  731  23.745   2.647  13.541
35505W        W  732   2.564  31.511   1.782
35506W        W  733   7.704  28.581  13.908
35507W        W  734   0.944   6.657  10.748
35508W        W  735  36.864  40.693  13.552
35509W        W  736  32.420   9.776  12.192
35510W        W  737  35.293  37.356   0.838
35511W        W  738  18.601  30.588  14.254
35512W        W  739  12.365  17.213   2.639
35513W        W  740  29.656  32.498   0.816
35514W        W  741  44.534  15.028   0.291
35515W        W  742  38.632  12.070   1.615
35516W        W  743  38.310  35.365  12.572
35517W        W  744  25.676  30.766  10.444
35518W        W  745   1.272  30.450  11.986
35519W        W  746  37.651  32.624   0.391
35520W        W  747   3.368   6.678   2.336
35521W        W  748   5.712  20.084   3.313
35522W        W  749   9.799  42.401   4.018
35523W        W  750   3.901  16.567   0.099
35524W        W  751  17.892  31.568   0.931
35525W        W  752  44.355  36.024   3.243
35526W        W  753  38.030  39.632  10.804
35527W        W  754  12.930  12.153  11.648
35528W        W  755  12.237  31.429  10.659
35529W        W  756  12.574   6.364   1.779
35530W        W  757   6.205  42.472  13.617
35531W        W  758  29.617  23.572  13.803
35532W        W  759  28.238   8.140   0.680
35533W        W  760   4.704   2.019   1.113
35534W        W  761  15.595  18.377  14.563
35535W        W  762   6.227   4.847   4.502
35536W        W  763  17.042   9.039   1.525
35537W        W  764   8.359   9.408  14.447
35538W        W  765  24.388  33.590   3.298
35539W        W  766  39.457  19.684  12.510
35540W        W  767  37.589  37.428   2.802
35541W        W  768  27.707  44.043   4.035
35542W        W  769  35.523  28.047  12.171
35543W        W  770   3.879  15.878   3.914
35544W        W  771  20.656  31.955   1.750
35545W        W  772  13.680  43.588   0.397
35546W        W  773  37.399  42.192  10.820
35547W        W  774  28.180  24.529  14.971
35548W        W  775  11.234  18.318  14.449
35549W        W  776  11.530  10.779   4.070
35550W        W  777  43.796  38.290   1.835
35551W        W  778  26.499  10.122   1.424
35552W        W  779  20.596  22.155  13.463
35553W        W  780   3.839  33.956  10.923
35554W        W  781  31.759   9.817   0.927
35555W        W  782  35.619   5.784   9.869
35556W        W  783   4.291   1.698  10.502
35557W        W  784  11.155  41.101  11.148
35558W        W  785   6.865  20.456  13.406
35559W        W  786  40.618   0.977   0.333
35560W        W  787  22.427  11.075  12.440
35561W        W  788  20.575  19.952  13.085
35562W        W  789   0.315  25.074   5.176
35563W        W  790  28.935  23.376   4.447
35564W        W  791  21.474  41.972   1.753
35565W        W  792  31.336  15.401  13.933
35566W        W  793  38.116  28.099   2.742
35567W        W  794  20.639  41.276  10.617
35568W        W  795  42.583  26.570   3.764
35569W        W  796  44.983  13.811   4.956
35570W        W  797   9.384  40.179   2.401
35571W        W  798  19.674  32.940   2.366
35572W        W  799  18.286  24.958   3.814
35573W        W  800   7.363  21.631  13.154
35574W        W  801   1.737  13.710   0.277
35575W        W  802   7.227   0.355   1.083
35576W        W  803  21.339  18.324   4.187
35577W        W  804  43.215  10.266   3.202
35578W        W  805  30.842  43.672  14.993
35579W        W  806  16.872   0.568  13.882
35580W        W  807   0.926   4.014   3.208
35581W        W  808  13.922   5.241   0.541
35582W        W  809  23.548   1.492  12.053
35583W        W  810  12.465  35.208   9.833
35584W        W  811  34.611  23.616  10.620
35585W        W  812  18.176  41.290   0.058
35586W        W  813   4.368   6.137  14.710
35587W        W  814  38.085  23.429  14.044
35588W        W  815  11.891   4.580  11.764
35589W        W  816  39.978  24.603  11.188
35590W        W  817  43.770   5.803  12.373
35591W        W  818  13.188  29.979   3.088
35592W        W  819   8.483   0.273   3.362
35593W        W  820  12.084   2.565  10.979
35594W        W  821  23.071  25.212  11.618
35595W        W  822  38.129  21.260  11.767
35596W        W  823  18.586  36.842  11.610
35597W        W  824   7.395  21.064  12.541
35598W        W  825  27.432  29.985  13.334
35599W        W  826  17.699  29.131  11.820
35600W        W  827  38.036  12.347   3.769
35601W        W  828   0.187  36.860   0.986
35602W        W  829  39.102  37.612   2.840
35603W        W  830  43.358  27.001   2.225
35604W        W  831  21.270  17.067  10.565
35605W        W  832  30.601  31.189  14.357
35606W        W  833  25.043   5.367   2.208
35607W        W  834  34.951   9.125   2.257
35608W        W  835  36.802   9.323  14.043
35609W        W  836  17.561  26.365   0.378
35610W        W  837  22.396  39.400  12.887
35611W        W  838   0.149  28.159   3.230
35612W        W  839  15.192  29.397  14.496
35613W        W  840   6.769  35.984  11.666
35614W        W  841   4.716   3.631  12.962
35615W        W  842  10.302   9.310  12.953
35616W        W  843  30.043   2.763   0.775
35617W        W  844   2.174  30.009  11.025
35618W        W  845  19.499  41.291  11.613
35619W        W  846  24.755  26.786  14.119
35620W        W  847  30.632  10.336   0.295
35621W        W  848  38.556  27.057  14.867
35622W        W  849  23.728  39.874   4.541
35623W        W  850  13.579  11.406   3.161
35624W        W  851  18.102  24.702  12.960
35625W        W  852  38.565  43.465   2.317
35626W        W  853  20.560  18.251  11.564
35627W        W  854  19.240  29.983   4.638
35628W        W  855  41.947  37.522   4.993
35629W        W  856   9.216  38.128   4.860
35630W        W  857   0.973  14.656  12.507
35631W        W  858  10.622  30.395   1.654
35632W        W  859  15.835   0.180  10.752
35633W        W  860  43.876  32.408   1.769
35634W        W  861  20.569  18.344   2.299
35635W        W  862   8.281  37.059   1.005
35636W        W  863   7.308  41.915   0.902
35637W        W  864  37.984  20.137   2.575
35638W        W  865  28.274   2.522  12.050
35639W        W  866  43.361  18.296   0.953
35640W        W  867  43.731  24.740   3.141
35641W        W  868  39.242   0.790   0.746
35642W        W  869  35.329  44.325  14.942
35643W        W  870  21.634  38.140   3.303
35644W        W  871  30.961  11.678   3.689
35645W        W  872  28.440  12.197  13.150
35646W        W  873  17.666  32.910   1.183
35647W        W  874  42.366   5.835  10.301
35648W        W  875  40.274  32.245   2.371
35649W        W  876   2.710  42.941  12.180
35650W        W  877   0.420  25.679   2.435
35651W        W  878  41.181  39.232  11.447
35652W        W  879  43.833  23.384   0.688
35653W        W  880  32.573  17.310   1.391
35654W        W  881  29.978  39.863   4.293
35655W        W  882  40.274  36.321   3.808
35656W        W  883  12.184  15.693   0.508
35657W        W  884  39.489  20.693   4.545
35658W        W  885  22.698  15.349   1.764
35659W        W  886  39.562  10.381   0.765
35660W        W  887  14.832   1.509   2.278
35661W        W  888  17.238   5.962   3.342
35662W        W  889  12.111  36.873   0.951
35663W        W  890  12.632  40.571  11.944
35664W        W  891  12.307  35.484  12.048
35665W        W  892  25.305  15.099  10.750
35666W        W  893  26.235  16.605   4.111
35667W        W  894  29.464  16.699  10.261
35668W        W  895  38.162  25.104   3.737
35669W        W  896  40.462  19.679   1.651
35670W        W  897  30.599  16.717   0.025
35671W        W  898  24.149   0.182   2.123
35672W        W  899  13.122  24.887   3.600
35673W        W  900   0.963  12.153   2.319
35674W        W  901  44.796  33.961  12.333
35675W        W  902  36.902  32.332   4.904
35676W        W  903  16.176  38.235   1.702
35677W        W  904  18.018  21.584   0.728
35678W        W  905  21.296   9.798  13.910
35679W        W  906  44.879  28.967   3.486
35680W        W  907  19.724  11.943  10.529
35681W        W  908  20.547  35.985   3.172
35682W        W  909  31.174  26.731   3.225
35683W        W  910  35.091  31.616   0.369
35684W        W  911   1.416  27.695   0.365
35685W        W  912  36.797  41.935   5.197
35686W        W  913  42.254   5.287   3.091
35687W        W  914  13.088  41.539   1.550
35688W        W  915  30.882   4.198  13.019
35689W        W  916   1.642  38.058  12.442
35690W        W  917  16.595   2.602   0.678
35691W        W  918   3.833  22.664   3.755
35692W        W  919   2.184  36.548   0.851
35693W        W  920  32.799  14.702  11.622
35694W        W  921  28.274  33.281   3.797
35695W        W  922  44.489   2.306   1.828
35696W        W  923  19.086  14.054  11.723
35697W        W  924  33.998   2.500  10.749
35698W        W  925  29.213  25.664   3.951
35699W        W  926   2.908  14.925  14.795
35700W        W  927  32.077   4.305  12.468
35701W        W  928  11.869  42.937  13.079
35702W        W  929   4.679  32.593   1.855
35703W        W  930  20.521  19.501   1.256
35704W        W  931  19.762  11.127   1.236
35705W        W  932   7.201  14.424   2.311
35706W        W  933  11.117  19.161  14.090
35707W        W  934  17.431  39.072  12.864
35708W        W  935  18.558  39.351  11.476
35709W        W  936  15.004   6.470   2.118
35710W        W  937   7.163  14.744  12.097
35711W        W  938   9.828  26.535   2.774
35712W        W  939  21.915  39.555   1.208
35713W        W  940  10.506  13.869  10.734
35714W        W  941   7.434  22.029  11.522
35715W        W  942  39.813  40.863   4.521
35716W        W  943  37.057  27.918  12.130
35717W        W  944   1.584  12.216  14.019
35718W        W  945  11.439   0.986   3.357
35719W        W  946  29.684   7.980   0.246
35720W        W  947   3.994   7.250  14.436
35721W        W  948  18.304  32.175  13.391
35722W        W  949  32.614  42.552  11.453
35723W        W  950  10.147   4.687  11.955
35724W        W  951   2.459   5.920  13.138
35725W        W  952   9.474  36.283  12.006
35726W        W  953   3.419  12.552  10.726
35727W        W  954   9.869   0.750  14.403
35728W        W  955  40.772  15.141   3.904
35729W        W  956  10.562  40.989   3.272
35730W        W  957  41.352  22.979  10.678
35731W        W  958   0.021  39.233   0.361
35732W        W  959  27.779  12.009   1.912
35733W        W  960  43.475  23.103  13.910
35734W        W  961  29.682  42.933  12.841
35735W        W  962  29.715  43.936  14.323
35736W        W  963  12.582  10.894  11.667
35737W        W  964  24.608   4.763   4.175
35738W        W  965   2.177  28.094   3.249
35739W        W  966  40.355   1.455   4.820
35740W        W  967  40.656  31.333  11.181
35741W        W  968  17.132  37.533   4.335
35742W        W  969  18.253   3.503   0.399
35743W        W  970  40.980  14.657   1.359
35744W        W  971   1.341  38.592   1.853
35745W        W  972  37.587  39.010  11.785
35746W        W  973   0.358   1.613   4.920
35747W        W  974  25.130  41.057  12.952
35748W        W  975  11.583  39.634  11.433
35749W        W  976  12.262  12.796  11.339
35750W        W  977   5.393  13.831  13.288
35751W        W  978  16.438  20.635  10.393
35752W        W  979  36.984  41.695   1.581
35753W        W  980  18.344  41.961   2.751
35754W        W  981  40.483  32.100  12.435
35755W        W  982  14.846  12.805  13.459
35756W        W  983  25.489  34.735   4.781
35757W        W  984   6.179  38.514   3.286
35758W        W  985   1.315   7.275   0.373
35759W        W  986  35.620  11.702   1.536
35760W        W  987  15.855  17.814   3.212
35761W        W  988  21.139  33.813   0.252
35762W        W  989   3.768  38.414   1.339
35763W        W  990  33.716  30.087  14.893
35764W        W  991  22.578  29.546  10.773
35765W        W  992  32.599  38.594  14.518
35766W        W  993  34.062  34.443  12.017
35767W        W  994  41.214  14.228  13.465
35768W        W  995  13.325  44.730  14.302
35769W        W  996  16.706  24.956   0.986
35770W        W  997  40.606  35.037   2.290
35771W        W  998  17.089  34.250   0.855
35772W        W  999  40.317  20.885   4.918
35773W        W 1000  44.355  10.319  10.735
35774W        W 1001  42.204  15.767  12.637
35775W        W 1002  39.907  23.696   4.120
35776W        W 1003  28.975  14.644   2.434
35777W        W 1004  29.074   3.290   5.184
35778W        W 1005  18.628  32.021   1.940
35779W        W 1006  41.300   8.251  11.962
35780W        W 1007  21.499  13.247  14.446
35781W        W 1008  31.404  25.813   3.040
35782W        W 1009  12.791  22.346   4.123
35783W        W 1010  17.350   0.603   2.063
35784W        W 1011  18.707  26.104   0.746
35785W        W 1012  38.025  42.778   3.232
35786W        W 1013  22.190  32.525  12.827
35787W        W 1014  32.490  42.896   0.501
35788W        W 1015  20.495  16.808  11.601
35789W        W 1016  29.689   8.406  14.815
35790W        W 1017  11.907   2.321  13.813
35791W        W 1018   5.228   8.894   0.276
35792W        W 1019   7.780  10.281   4.460
35793W        W 1020  16.159  17.563  14.513
35794W        W 1021   1.243  33.866  14.279
35795W        W 1022  19.092  33.102  12.931
35796W        W 1023   9.198  22.681  10.362
35797W        W 1024   6.697  10.516   4.691
35798W        W 1025  31.522   2.181  12.068
35799W        W 1026  17.196   0.608   3.086
35800W        W 1027  26.554  32.526   1.131
35801W        W 1028  37.707  20.392   1.318
35802W        W 1029   1.970  25.605   2.667
35803W        W 1030  40.930  16.199  14.648
35804W        W 1031   8.671   4.269   0.840
35805W        W 1032  39.511   4.210   1.969
35806W        W 1033   8.630  17.330   0.305
35807W        W 1034  28.561   9.231   3.692
35808W        W 1035  16.598  27.139  10.813
35809W        W 1036  39.786  35.121   0.732
35810W        W 1037  30.967  39.465  14.796
35811W        W 1038  33.018  37.947  14.252
35812W        W 1039  23.218  38.956   9.608
35813W        W 1040  39.575  34.839  10.611
35814W        W 1041  35.067   4.805   0.329
35815W        W 1042  36.369  41.648  13.035
35816W        W 1043   6.185  10.270  13.025
35817W        W 1044   6.014  20.464  13.714
35818W        W 1045  37.525  10.711   0.361
35819W        W 1046  36.529   9.923   0.868
35820W        W 1047  24.430  21.011   0.283
35821W        W 1048  17.207   0.948  11.232
35822W        W 1049   4.839  31.581  13.916
35823W        W 1050  30.076  17.114   2.412
35824W        W 1051  27.761  37.993  12.024
35825W        W 1052  24.098  41.990  11.593
35826W        W 1053  28.676  29.401  13.471
35827W        W 1054  14.171  21.168   2.934
35828W        W 1055  43.946  25.630   4.672
35829W        W 1056  24.635  34.933   4.661
35830W        W 1057  26.980  32.670  11.274
35831W        W 1058   4.473   2.740   2.451
35832W        W 1059  28.176   5.250   0.476
35833W        W 1060  35.391   9.276   0.921
35834W        W 1061  41.000  35.521   2.869
35835W        W 1062  13.412  17.721  12.953
35836W        W 1063  32.864  39.574  14.690
35837W        W 1064  28.062  22.745  13.322
35838W        W 1065  31.496  25.337   0.741
35839W        W 1066   1.773   3.119   4.963
35840W        W 1067   8.808  19.269   2.991
35841W        W 1068  23.448  36.039   3.168
35842W        W 1069  38.602  14.825  13.956
35843W        W 1070  38.117  12.358  14.883
35844W        W 1071   0.309  42.516   0.542
35845W        W 1072  35.469  25.687  11.895
35846W        W 1073  17.823  44.218  13.502
35847W        W 1074  21.094  41.989  13.579
35848W        W 1075  25.658  19.544  13.841
35849W        W 1076  11.762  41.713   0.796
35850W        W 1077  12.150  38.835   4.192
35851W        W 1078  38.063  33.455  11.526
35852W        W 1079   3.182   0.613  11.124
35853W        W 1080  10.823  36.854   2.910
35854W        W 1081  15.805  21.698   0.343
35855W        W 1082  40.050  38.895   3.610
35856W        W 1083  14.810   5.241   2.491
35857W        W 1084  25.572  42.434   1.886
35858W        W 1085  37.906  15.200   3.893
35859W        W 1086  22.669   4.814  10.412
35860W        W 1087  36.886  30.789   4.787
35861W        W 1088  40.735  29.989  11.324
35862W        W 1089  10.860   2.960  13.134
35863W        W 1090  23.172  41.962  14.614
35864W        W 1091   5.156   0.341   0.847
35865W        W 1092  22.444  39.591   2.688
35866W        W 1093  11.095  34.944   0.491
35867W        W 1094  14.400  39.643   4.715
35868W        W 1095  19.105  33.442   4.364
35869W        W 1096   4.300  34.164  11.087
35870W        W 1097   5.964  27.163  11.119
35871W        W 1098  29.736  35.514   4.086
35872W        W 1099   2.013   2.874   2.181
35873W        W 1100  37.013  34.563  11.637
35874W        W 1101  33.175  10.832   1.774
35875W        W 1102  12.612   2.702   1.332
35876W        W 1103  33.297   4.664   3.648
35877W        W 1104  22.185   5.878   1.764
35878W        W 1105  40.273  17.372   1.936
35879W        W 1106  40.368   8.780   4.627
35880W        W 1107  26.467  27.225   0.786
35881W        W 1108   8.349  11.254   2.822
35882W        W 1109  11.177   8.353  11.253
35883W        W 1110  26.168   2.998  13.356
35884W        W 1111  34.080   1.767   0.564
35885W        W 1112  23.219  33.616   4.733
35886W        W 1113  32.769  13.333  14.055
35887W        W 1114  41.766  33.366  12.367
35888W        W 1115  23.573  15.164   2.664
35889W        W 1116  23.893  44.204   0.001
35890W        W 1117  44.467  13.235  11.694
35891W        W 1118  39.001  11.912   2.210
35892W        W 1119  24.011  24.943   4.325
35893W        W 1120   8.271  22.995   2.706
35894W        W 1121  16.527  40.835   0.256
35895W        W 1122   3.038  30.868  11.242
35896W        W 1123  33.602  17.723   1.465
35897W        W 1124  33.826  42.945   0.771
35898W        W 1125  10.948  44.303   2.761
35899W        W 1126  44.047  33.428   3.734
35900W        W 1127  23.977  16.871  10.724
35901W        W 1128  31.516  38.405  13.071
35902W        W 1129   6.070  29.009  10.732
35903W        W 1130  17.930  43.728   0.228
35904W        W 1131   8.117  35.029  11.091
35905W        W 1132  42.601  16.575   2.212
35906W        W 1133  41.317  24.649   0.406
35907W        W 1134   9.260   7.877   1.683
35908W        W 1135  33.183  18.605  10.665
35909W        W 1136  44.036   5.304  14.458
35910W        W 1137   5.379  32.124   1.619
35911W        W 1138  16.229   9.573  14.537
35912W        W 1139   9.823  30.034  14.566
35913W        W 1140   7.121  40.462  11.203
35914W        W 1141  32.836   4.565   2.254
35915W        W 1142  38.336  22.010  14.329
35916W        W 1143  19.308  44.704  12.345
35917W        W 1144  23.774  20.073  13.637
35918W        W 1145  39.621  43.790  14.011
35919W        W 1146  30.053  17.121  14.542
35920W        W 1147  20.136   9.484  14.020
35921W        W 1148  16.031  22.465   1.917
35922W        W 1149  26.105  14.905   3.209
35923W        W 1150  25.071  22.154   4.611
35924W        W 1151   6.821   9.297   3.743
35925W        W 1152  30.187  19.644   2.678
35926W        W 1153   0.534  11.368  13.823
35927W        W 1154   2.319  33.597  14.979
35928W        W 1155  10.687  21.598   3.640
35929W        W 1156  27.133  32.475  13.981
35930W        W 1157  39.571  36.059   3.328
35931W        W 1158   7.856   7.194  12.372
35932W        W 1159   2.283  40.317  13.926
35933W        W 1160  43.754  19.190   0.465
35934W        W 1161  29.102  22.818  11.973
35935W        W 1162  38.813  38.530   3.267
35936W        W 1163  31.405  43.077  14.797
35937W        W 1164  24.732  23.668   1.382
35938W        W 1165   1.590  16.354   1.386
35939W        W 1166  32.579  16.084  12.122
35940W        W 1167  12.180  43.236  11.929
35941W        W 1168  36.129  25.478   4.565
35942W        W 1169  33.735  38.438  11.212
35943W        W 1170  25.019  15.017   2.887
35944W        W 1171  13.542  11.723  14.266
35945W        W 1172  43.821  42.114  12.354
35946W        W 1173  23.643  20.976  14.707
35947W        W 1174  12.854   7.888   0.262
35948W        W 1175  12.215  27.193  13.349
35949W        W 1176   6.651  33.851   2.848
35950W        W 1177  34.855  27.176  13.318
35951W        W 1178  19.987   8.854   2.848
35952W        W 1179  38.377  20.295  11.080
35953W        W 1180  25.215   5.836   1.474
35954W        W 1181  12.511  41.385  12.453
35955W        W 1182   8.800   9.345   0.710
35956W        W 1183  38.450   2.380   4.187
35957W        W 1184  31.867  10.619   3.230
35958W        W 1185  37.571  30.531  12.997
35959W        W 1186  40.691  37.144   2.385
35960W        W 1187  12.974  32.765   2.760
35961W        W 1188  31.376  19.681   4.082
35962W        W 1189  19.863  26.036   2.548
35963W        W 1190  39.870   9.191   2.160
35964W        W 1191  13.421  34.600   0.034
35965W        W 1192  27.656  44.345   2.766
35966W        W 1193  31.640  35.606   2.795
35967W        W 1194  19.083  20.048  13.262
35968W        W 1195   8.891  33.173  14.442
35969W        W 1196  24.484  37.867   1.207
35970W        W 1197  18.993  23.000   1.285
35971W        W 1198   4.437  13.163   2.190
35972W        W 1199  27.121  12.710   0.502
35973W        W 1200  38.954  11.800   2.706
35974W        W 1201  11.157   1.331   2.165
35975W        W 1202  15.580  44.956  11.129
35976W        W 1203  35.806   4.353  14.276
35977W        W 1204  34.114  20.043   1.324
35978W        W 1205  43.377  23.681   1.256
35979W        W 1206  44.056  42.292   0.354
35980W        W 1207  19.817   0.129   1.294
35981W        W 1208   3.708  43.933  10.300
35982W        W 1209   3.071   9.356  14.111
35983W        W 1210  15.737  43.303   4.645
35984W        W 1211  12.686  36.317   0.313
35985W        W 1212  32.538  17.484   0.397
35986W        W 1213  14.239   0.709  11.839
35987W        W 1214  11.292  21.118  12.563
35988W        W 1215  21.490  13.465  11.209
35989W        W 1216  12.176  15.054  14.889
35990W        W 1217   3.884  37.287  10.703
35991W        W 1218  23.717   3.021   2.837
35992W        W 1219  38.959  26.656   3.707
35993W        W 1220  21.801  43.342   2.756
35994W        W 1221   8.322  25.192   2.819
35995W        W 1222  42.209  35.568  13.652
35996W        W 1223   7.247  17.747   2.704
35997W        W 1224  10.452  42.271   4.658
35998W        W 1225  27.288   2.238  11.826
35999W        W 1226  23.972  35.445   3.584
36000W        W 1227  12.080  29.120  11.319
36001W        W 1228  38.324   9.154   4.410
36002W        W 1229  40.510  20.612   4.521
36003W        W 1230  36.681   5.717  13.488
36004W        W 1231  42.054   9.399   4.157
36005W        W 1232  23.225  38.377  12.949
36006W        W 1233   3.273  26.244  13.055
36007W        W 1234  11.094  29.039   3.269
36008W        W 1235  20.765  31.678   4.892
36009W        W 1236  20.122  22.108  14.627
36010W        W 1237  36.327   8.613   2.683
36011W        W 1238  41.025   1.846  11.329
36012W        W 1239  11.661  27.611   0.208
36013W        W 1240  44.343  29.238   0.773
36014W        W 1241  34.083  17.599  12.650
36015W        W 1242  44.880  15.968  11.084
36016W        W 1243  43.948  19.224  12.104
36017W        W 1244  41.071  17.301  13.064
36018W        W 1245  20.184  26.063  10.895
36019W        W 1246  35.462   9.638  13.903
36020W        W 1247  25.481  23.131  10.655
36021W        W 1248  17.190  19.719  10.567
36022W        W 1249  21.482  29.746   0.752
36023W        W 1250  15.374   9.261  12.605
36024W        W 1251  28.461  13.629  14.524
36025W        W 1252  42.840  44.476   4.132
36026W        W 1253   4.247  13.314   1.711
36027W        W 1254  24.477  43.277   4.774
36028W        W 1255  37.982   6.816  14.975
36029W        W 1256  30.679  18.496  11.612
36030W        W 1257   8.608   0.536  10.739
36031W        W 1258   2.000  40.370   4.201
36032W        W 1259  43.825  16.860  10.828
36033W        W 1260  32.958  42.530   4.119
36034W        W 1261   2.002  24.417  11.221
36035W        W 1262  41.517  21.687  13.008
36036W        W 1263  20.399  10.305  14.392
36037W        W 1264  32.270  34.981  10.985
36038W        W 1265  17.708   1.723  14.099
36039W        W 1266   5.364  33.051   2.911
36040W        W 1267  44.821  29.397  13.947
36041W        W 1268  19.618  36.493   4.289
36042W        W 1269  20.585   8.390   1.748
36043W        W 1270   7.914  35.371   1.445
36044W        W 1271  30.600  32.196  14.051
36045W        W 1272  19.700  44.359  12.398
36046W        W 1273   8.128  30.689  13.147
36047W        W 1274  29.616  24.144   0.305
36048W        W 1275   7.704  22.700  14.314
36049W        W 1276  19.318  44.387  11.044
36050W        W 1277  41.974  34.957   0.066
36051W        W 1278  40.486  39.458  14.381
36052W        W 1279   1.197  26.382  10.561
36053W        W 1280   9.010  26.521   0.271
36054W        W 1281  23.979  19.037  13.016
36055W        W 1282   5.693  42.619  14.461
36056W        W 1283   3.430   0.435   0.259
36057W        W 1284  30.501  30.142  13.087
36058W        W 1285  36.740  30.873   0.785
36059W        W 1286  28.540   2.626   3.112
36060W        W 1287  22.561  41.874   1.395
36061W        W 1288  20.145  15.860   4.581
36062W        W 1289   5.667   9.915  12.134
36063W        W 1290  42.287  42.021   2.676
36064W        W 1291  19.601  12.667   4.133
36065W        W 1292  27.962  40.009  11.128
36066W        W 1293  21.855  12.281  10.671
36067W        W 1294  38.395  39.964  12.941
36068W        W 1295  20.696  30.985  13.945
36069W        W 1296  17.244   2.798   4.953
36070W        W 1297  28.400  12.895  14.811
36071W        W 1298  43.527  22.170  14.282
36072W        W 1299  34.015  13.865   5.447
36073W        W 1300  12.686  30.538  13.536
36074W        W 1301  11.433   9.358  11.152
36075W        W 1302   9.170  32.294   4.677
36076W        W 1303  12.252  16.009   2.271
36077W        W 1304  38.041  25.626   3.562
36078W        W 1305  28.128  21.529   0.253
36079W        W 1306  15.942   1.448   3.151
36080W        W 1307   2.128   4.434  12.158
36081W        W 1308   7.264   3.976   0.019
36082W        W 1309  19.519  35.690   0.895
36083W        W 1310   1.763  22.721   0.484
36084W        W 1311  22.688  19.483   1.330
36085W        W 1312  40.340  21.579  13.842
36086W        W 1313  32.172  26.992   3.049
36087W        W 1314   0.422   1.641   0.395
36088W        W 1315   7.462  19.864  13.384
36089W        W 1316  26.157  11.543  13.422
36090W        W 1317  26.655  14.374  10.819
36091W        W 1318  29.393  31.926   4.902
36092W        W 1319   8.868  31.232  13.500
36093W        W 1320  44.500   3.359   1.172
36094W        W 1321  27.728  10.329  10.653
36095W        W 1322  41.780  39.480  11.398
36096W        W 1323  18.105  18.920  14.155
36097W        W 1324   2.236  40.056   0.662
36098W        W 1325  14.668  34.562   4.247
36099W        W 1326   0.867  30.629   0.762
36100W        W 1327  39.851  26.619   3.257
36101W        W 1328   5.816  18.695  13.553
36102W        W 1329   8.702  25.201   1.692
36103W        W 1330  22.543  31.360   3.424
36104W        W 1331  26.575  27.662  13.078
36105W        W 1332  36.313  26.660   9.993
36106W        W 1333  39.810   5.667   0.650
36107W        W 1334   0.684  43.275   3.242
36108W        W 1335  28.210  42.545  12.878
36109W        W 1336   1.420  21.678   4.041
36110W        W 1337  30.373  31.542  11.056
36111W        W 1338   0.773  25.479   0.715
36112W        W 1339  32.011   7.346  11.260
36113W        W 1340  36.065   5.540   1.231
36114W        W 1341   3.398   8.715   2.802
36115W        W 1342  34.976  37.853   5.076
36116W        W 1343  23.794  37.616   3.587
36117W        W 1344  20.545  35.112   2.155
36118W        W 1345  26.679  35.691   3.244
36119W        W 1346  21.033  36.629   3.654
36120W        W 1347  44.270  35.009  14.813
36121W        W 1348  26.009  21.685  10.757
36122W        W 1349  28.875  26.023  13.516
36123W        W 1350  10.932  39.500  12.597
36124W        W 1351  30.615  11.845  13.828
36125W        W 1352  36.604  15.789   4.070
36126W        W 1353   7.955  11.250  10.620
36127W        W 1354   2.803   1.729   1.810
36128W        W 1355   4.651  16.118   4.935
36129W        W 1356  26.089  40.904   4.089
36130W        W 1357  11.833  17.315  11.092
36131W        W 1358  29.882  16.789   1.395
36132W        W 1359  36.127  30.636   3.699
36133W        W 1360  29.224   9.054   4.159
36134W        W 1361  37.416  37.869  11.573
36135W        W 1362  19.999   9.308   4.595
36136W        W 1363  32.450  33.142  14.462
36137W        W 1364  24.584  34.655  12.031
36138W        W 1365  20.007   3.044   3.349
36139W        W 1366  17.212  15.847  14.808
36140W        W 1367  25.944  39.827  12.023
36141W        W 1368  39.298  41.520  14.889
36142W        W 1369  11.914   9.318  13.464
36143W        W 1370  10.402  22.884  12.342
36144W        W 1371  16.214  39.946  13.278
36145W        W 1372  28.388   8.092   2.923
36146W        W 1373  40.807  23.087  10.832
36147W        W 1374  26.272  14.255  10.490
36148W        W 1375  18.406  41.934  11.164
36149W        W 1376   4.289  29.916   0.801
36150W        W 1377  18.887   7.495   1.769
36151W        W 1378   8.823  42.862  14.360
36152W        W 1379  37.904  36.644   1.676
36153W        W 1380   2.957  44.334   0.920
36154W        W 1381  10.853  42.396  10.909
36155W        W 1382  19.185  31.493   3.590
36156W        W 1383  42.325  40.042   0.816
36157W        W 1384   8.114  14.403   1.254
36158W        W 1385   3.675  14.684   4.955
36159W        W 1386   8.382  14.689   1.853
36160W        W 1387  41.258  41.531   1.647
36161W        W 1388   3.758  14.730   0.800
36162W        W 1389  24.946  38.009  11.532
36163W        W 1390  11.289  42.214   1.258
36164W        W 1391  44.408  37.517   4.915
36165W        W 1392   7.606  41.532   1.185
36166W        W 1393  16.773  35.497  10.479
36167W        W 1394  20.800  21.640  10.927
36168W        W 1395  22.498  37.469   1.933
36169W        W 1396   2.554  16.820   0.816
36170W        W 1397  40.024  31.037  11.660
36171W        W 1398   1.394  10.726  12.609
36172W        W 1399   7.821  37.846   4.666
36173W        W 1400  14.022  24.118  11.469
36174W        W 1401  10.809  11.470   1.238
36175W        W 1402  37.594   1.540   1.029
36176W        W 1403  30.060   5.189   2.579
36177W        W 1404  26.077  29.420   1.804
36178W        W 1405  19.681  12.365   1.705
36179W        W 1406   9.719  16.512   2.676
36180W        W 1407  25.603  22.677   3.258
36181W        W 1408  35.421  17.294  10.701
36182W        W 1409  27.005  30.704  10.608
36183W        W 1410   1.353   4.924  12.091
36184W        W 1411  24.065  33.906   1.693
36185W        W 1412   5.787  36.291  12.957
36186W        W 1413   8.571  21.060  11.555
36187W        W 1414  21.168  40.009   4.589
36188W        W 1415  26.725  26.470  12.114
36189W        W 1416  22.632  17.727  10.416
36190W        W 1417  43.271  26.072   3.177
36191W        W 1418  34.571  21.044   1.618
36192W        W 1419  30.580  42.701  12.480
36193W        W 1420  22.599   2.512   3.664
36194W        W 1421  37.799   8.164  14.479
36195W        W 1422  30.549  10.243  14.496
36196W        W 1423   5.312   9.025   1.206
36197W        W 1424   8.650  31.526   3.451
36198W        W 1425  13.106  14.262  13.397
36199W        W 1426  36.291   2.547  14.447
36200W        W 1427   1.598  24.523   4.099
36201W        W 1428   3.584   6.576  13.987
36202W        W 1429   0.527  35.845   1.714
36203W        W 1430  23.205  13.723   0.362
36204W        W 1431   7.288  32.155   3.727
36205W        W 1432  24.463   7.160   0.783
36206W        W 1433  15.379   0.626   3.638
36207W        W 1434  32.287  17.676   2.735
36208W        W 1435  25.746  27.637   0.340
36209W        W 1436   3.686   2.845   1.289
36210W        W 1437   6.610  33.858   3.840
36211W        W 1438  24.561  24.785  14.007
36212W        W 1439  10.718  13.621   2.984
36213W        W 1440  29.156  13.696  13.427
36214W        W 1441   0.479  11.322  11.413
36215W        W 1442  38.032   5.105   1.211
36216W        W 1443  21.840   5.841  11.206
36217W        W 1444  35.278  22.667  10.237
36218W        W 1445  31.520  29.710   0.841
36219W        W 1446  16.289   9.697  12.457
36220W        W 1447   7.129  18.816   1.872
36221W        W 1448  12.825  28.698   2.480
36222W        W 1449  37.061  36.769   1.867
36223W        W 1450   1.447   8.756  14.716
36224W        W 1451  28.006  26.160  10.903
36225W        W 1452  43.667  32.814   0.935
36226W        W 1453  10.242  38.740  14.268
36227W        W 1454  25.933  35.393   0.917
36228W        W 1455  43.598  16.532  12.576
36229W        W 1456  26.560  29.882  10.771
36230W        W 1457  38.694  15.663   1.961
36231W        W 1458  16.457  24.037  13.754
36232W        W 1459  27.191  23.913   4.919
36233W        W 1460  17.763  18.111   3.360
36234W        W 1461  23.595  15.831  13.059
36235W        W 1462  35.352  26.993  11.415
36236W        W 1463   0.236  39.588   3.986
36237W        W 1464   2.429  33.348   1.931
36238W        W 1465  29.989  12.649  12.952
36239W        W 1466  37.181  26.966   2.460
36240W        W 1467   3.296  21.467   4.869
36241W        W 1468  16.478  30.530   4.079
36242W        W 1469   9.785  11.630  14.008
36243W        W 1470  23.737  19.284  13.932
36244W        W 1471  40.095   2.881   2.205
36245W        W 1472  20.742   2.368   2.044
36246W        W 1473   1.864  23.686  10.742
36247W        W 1474  41.265  38.367  11.047
36248W        W 1475   1.918  42.320   5.265
36249W        W 1476  28.873  11.850  11.377
36250W        W 1477  11.522  33.010   3.299
36251W        W 1478  12.281  39.018   2.795
36252W        W 1479  37.020  21.880   1.490
36253W        W 1480   8.697  42.391  13.361
36254W        W 1481  22.739  38.034   4.100
36255W        W 1482   2.966   9.013  13.063
36256W        W 1483  16.198  11.899  13.765
36257W        W 1484  30.961   3.895  13.466
36258W        W 1485  42.381  31.459  13.529
36259W        W 1486  13.237  14.015   0.130
36260W        W 1487  16.008  33.808  13.519
36261W        W 1488  28.373   1.995  13.839
36262W        W 1489  13.195   6.361   2.412
36263W        W 1490  15.788   8.890   1.888
36264W        W 1491  33.628  42.650  11.576
36265W        W 1492  35.658   9.374   2.739
36266W        W 1493  24.529  26.358   3.420
36267W        W 1494  13.135  35.996  13.028
36268W        W 1495  20.540   9.865  11.028
36269W        W 1496  13.644  27.621   0.683
36270W        W 1497  36.539   5.375  10.742
36271W        W 1498  29.785  41.684   1.389
36272W        W 1499  40.260  38.873   0.858
36273W        W 1500   7.245  19.630  12.532
36274W        W 1501   8.837  24.467  10.708
36275W        W 1502  43.592  15.133  14.494
36276W        W 1503   7.348  33.467  14.007
36277W        W 1504  14.302  42.887  11.402
36278W        W 1505  39.327  25.572   1.839
36279W        W 1506  13.880   8.409  14.782
36280W        W 1507  15.458  34.484   2.488
36281W        W 1508  30.454  25.877   4.347
36282W        W 1509  31.856  21.562   2.959
36283W        W 1510   8.121  28.480  11.164
36284W        W 1511  33.155  24.654  14.988
36285W        W 1512  11.758  33.011   2.364
36286W        W 1513  29.758   3.644   0.409
36287W        W 1514  16.176   3.038   5.116
36288W        W 1515  13.251   0.251  14.309
36289W        W 1516  27.967  16.552  14.149
36290W        W 1517  32.606  28.032  13.432
36291W        W 1518  28.707  44.379   1.802
36292W        W 1519  23.358  21.880  13.481
36293W        W 1520  15.673  21.282  10.460
36294W        W 1521  14.181  31.894  14.388
36295W        W 1522  32.055  12.513  12.090
36296W        W 1523   7.744   1.319  13.592
36297W        W 1524  36.248  24.566  11.148
36298W        W 1525   3.847   6.504  11.475
36299W        W 1526  15.202   5.436  11.539
36300W        W 1527  12.454   4.325  10.605
36301W        W 1528  23.976  25.194  12.520
36302W        W 1529  38.119  35.475  11.320
36303W        W 1530  12.719  34.790  13.542
36304W        W 1531  40.015  18.028   3.213
36305W        W 1532  36.570  28.470  11.514
36306W        W 1533  25.402   4.793   1.850
36307W        W 1534  39.895  37.293   1.950
36308W        W 1535  27.625  13.312   3.152
36309W        W 1536  20.703  21.993   0.460
36310W        W 1537   8.802  27.274   1.417
36311W        W 1538  12.332   0.126  14.537
36312W        W 1539  10.964  16.697  11.233
36313W        W 1540  26.524  25.108   4.595
36314W        W 1541  22.251   3.844  12.422
36315W        W 1542  41.509  24.330   3.594
36316W        W 1543   7.327   8.211  14.504
36317W        W 1544  31.704  13.799  12.583
36318W        W 1545  37.077  34.818  12.058
36319W        W 1546  18.688  37.232  11.991
36320W        W 1547  30.629   9.143   0.729
36321W        W 1548  16.028  39.499   2.324
36322W        W 1549   0.957  15.819  12.452
36323W        W 1550   8.876  39.727  12.724
36324W        W 1551  41.504  19.750   4.253
36325W        W 1552  44.557  34.963   2.782
36326W        W 1553  20.085  20.361  11.127
36327W        W 1554  26.255  22.576   4.215
36328W        W 1555  14.615   4.377  10.741
36329W        W 1556  27.923  27.435  12.868
36330W        W 1557  33.601  22.433   2.745
36331W        W 1558  18.043  17.658  13.282
36332W        W 1559  10.123   6.715   3.884
36333W        W 1560  27.145   8.783  13.140
36334W        W 1561  21.579   2.014   9.716
36335W        W 1562   8.128  34.583   2.947
36336W        W 1563   3.460   4.148   4.080
36337W        W 1564   3.550  22.094  11.563
36338W        W 1565  41.514  36.105   2.251
36339W        W 1566  12.691  31.655  10.650
36340W        W 1567  44.212  21.677  10.685
36341W        W 1568  14.665  26.975   4.287
36342W        W 1569   6.906  43.544   5.643
36343W        W 1570  33.030   1.476  10.553
36344W        W 1571  27.859  32.402   0.234
36345W        W 1572   5.693  20.475  11.516
36346W        W 1573   4.958  21.675   3.726
36347W        W 1574   8.420   7.914  12.460
36348W        W 1575  40.801  16.507   4.055
36349W        W 1576   8.439  40.363   4.906
36350W        W 1577   2.785  37.020  10.630
36351W        W 1578   8.382  20.102   4.145
36352W        W 1579   0.488  12.209  12.424
36353W        W 1580  22.272  23.124  12.811
36354W        W 1581  15.639  23.803  12.930
36355W        W 1582  10.656  30.131   0.203
36356W        W 1583  18.673   9.249  12.953
36357W        W 1584  29.508  20.728  13.886
36358W        W 1585  29.969  42.963   4.054
36359W        W 1586  32.463  19.008  13.033
36360W        W 1587   9.710  24.837   2.143
36361W        W 1588  22.901  10.002   3.818
36362W        W 1589  40.936   2.513   1.102
36363W        W 1590   0.956  31.044   1.292
36364W        W 1591  44.235  41.976  13.382
36365W        W 1592  19.823  33.332  11.074
36366W        W 1593  13.378  23.605   3.789
36367W        W 1594  10.983  23.035   1.857
36368W        W 1595   2.419  30.527  13.543
36369W        W 1596  41.750  42.864   3.705
36370W        W 1597  38.864  28.905   0.992
36371W        W 1598  43.120  33.554  12.194
36372W        W 1599  35.994   7.926  12.007
36373W        W 1600   8.860  10.263  14.269
36374W        W 1601  15.341  18.509   2.660
36375W        W 1602  10.864  34.577   0.168
36376W        W 1603  25.574  15.530  10.400
36377W        W 1604  44.280  13.245   0.942
36378W        W 1605  23.719   9.415  11.605
36379W        W 1606  40.336  35.084   4.167
36380W        W 1607   8.193   5.204   4.534
36381W        W 1608  31.335  24.084   1.960
36382W        W 1609  35.755  30.570  14.263
36383W        W 1610  30.442   6.682   0.799
36384W        W 1611  44.234   3.654  13.310
36385W        W 1612   6.488  35.823  13.343
36386W        W 1613   6.283  26.558  13.345
36387W        W 1614  25.147  38.012  14.471
36388W        W 1615   6.969  28.786   3.851
36389W        W 1616  33.938  32.145   0.937
36390W        W 1617   0.732  35.471  12.124
36391W        W 1618   4.622   3.925   1.262
36392W        W 1619  36.310   3.693   1.398
36393W        W 1620  29.105  32.937  11.860
36394W        W 1621  35.147  38.917   3.789
36395W        W 1622   7.878  24.056  11.492
36396W        W 1623   0.354  14.537   3.345
36397W        W 1624  29.564  39.881   0.274
36398W        W 1625  38.049   9.459   1.316
36399W        W 1626  41.851  23.361   2.796
36400W        W 1627  27.702   6.286   3.843
36401W        W 1628   2.939  28.056  12.687
36402W        W 1629  16.990  30.888  12.865
36403W        W 1630  15.815  30.966  13.791
36404W        W 1631  24.614   7.181   2.225
36405W        W 1632  22.757  32.882  12.301
36406W        W 1633  19.626   1.039   0.188
36407W        W 1634  34.822  31.499   0.802
36408W        W 1635  43.241  25.186  13.471
36409W        W 1636  15.774  27.534   2.369
36410W        W 1637  34.512  36.639  13.545
36411W        W 1638  27.664  24.742  12.044
36412W        W 1639  36.287  16.195  12.474
36413W        W 1640  38.761  18.059   3.653
36414W        W 1641   5.361  37.155   2.293
36415W        W 1642   7.755  24.504  14.277
36416W        W 1643  38.493  36.153  12.203
36417W        W 1644  14.690   2.742   0.319
36418W        W 1645  29.072  10.193  11.560
36419W        W 1646  21.907   1.418  13.714
36420W        W 1647  27.114  26.451   1.866
36421W        W 1648  10.930  21.127   2.818
36422W        W 1649  41.265  19.730  12.047
36423W        W 1650   4.092  29.313   2.507
36424W        W 1651  11.352  22.516   0.783
36425W        W 1652   7.340  17.829  14.877
36426W        W 1653  27.576  39.834   3.705
36427W        W 1654  20.278  12.674   0.017
36428W        W 1655  44.201  23.484   2.415
36429W        W 1656  25.185  12.477   0.986
36430W        W 1657  40.423  21.606  11.851
36431W        W 1658  40.019   4.146   4.921
36432W        W 1659  14.523  23.199   4.574
36433W        W 1660  10.690  27.264  13.324
36434W        W 1661   5.452  25.835  12.639
36435W        W 1662  15.653  42.551  12.839
36436W        W 1663  35.266  16.422   2.776
36437W        W 1664  19.797  17.122  14.819
36438W        W 1665   7.397  11.252   0.566
36439W        W 1666  10.089  14.153  14.815
36440W        W 1667  14.783  25.117   1.271
36441W        W 1668   2.159  18.682   1.988
36442W        W 1669  40.547   9.848   1.278
36443W        W 1670  35.427  21.581   2.717
36444W        W 1671  12.784  13.268  14.854
36445W        W 1672  34.623   6.266  10.676
36446W        W 1673  38.572  28.723   2.346
36447W        W 1674  13.939   8.370   0.759
36448W        W 1675  10.648  26.222   3.260
36449W        W 1676  17.618  44.322   2.386
36450W        W 1677   4.166  33.541   3.755
36451W        W 1678  36.298   6.775   1.834
36452W        W 1679  28.526  40.959   1.671
36453W        W 1680   6.089  37.018   1.709
36454W        W 1681  21.282  34.357  14.321
36455W        W 1682  32.611  34.004   0.391
36456W        W 1683  20.547  40.229   2.432
36457W        W 1684  43.738  16.657  14.415
36458W        W 1685  13.787  12.411   1.784
36459W        W 1686  29.092  23.060   2.396
36460W        W 1687  40.791   9.364  14.571
36461W        W 1688  29.797  11.880  12.534
36462W        W 1689  14.270  22.149  11.716
36463W        W 1690  14.625  31.118  14.273
36464W        W 1691  19.966  16.591   3.043
36465W        W 1692  15.129  43.310  11.530
36466W        W 1693  14.316  19.948   2.340
36467W        W 1694  22.009  35.505   4.564
36468W        W 1695  16.187   7.354   4.359
36469W        W 1696  27.542  26.705   1.442
36470W        W 1697  33.859  19.473  11.557
36471W        W 1698  31.607   5.786  10.663
36472W        W 1699   7.685  13.875   1.051
36473W        W 1700  28.475  40.637   2.458
36474W        W 1701  39.731  37.822  11.024
36475W        W 1702  13.811   3.261  11.177
36476W        W 1703   0.415  27.447  12.504
36477W        W 1704  26.521  32.905   3.695
36478W        W 1705  11.573   8.069  11.101
36479W        W 1706  22.255  15.746  13.799
36480W        W 1707   4.648  39.898   2.816
36481W        W 1708  43.703  44.614  10.166
36482W        W 1709   1.223  40.422   1.922
36483W        W 1710  25.555   5.802   1.863
36484W        W 1711  29.733  36.369   2.514
36485W        W 1712  31.729  35.189   2.452
36486W        W 1713   9.368  35.631   2.886
36487W        W 1714  36.270  34.122   3.844
36488W        W 1715  21.145  22.931  11.450
36489W        W 1716  22.771  24.417   1.870
36490W        W 1717  40.872   0.516   0.461
36491W        W 1718  14.322  14.753  14.685
36492W        W 1719  25.018  31.427  12.761
36493W        W 1720  20.061   8.141   4.014
36494W        W 1721   6.857  36.158  13.515
36495W        W 1722  40.562  17.792   4.202
36496W        W 1723  40.573   8.321   2.723
36497W        W 1724   2.798  44.496  14.370
36498W        W 1725  29.949  20.289  12.906
36499W        W 1726  14.653  39.011   2.154
36500W        W 1727   5.478  29.099   4.565
36501W        W 1728   1.304  40.904  14.137
36502W        W 1729  41.451  43.737  11.074
36503W        W 1730  21.271   6.464   4.178
36504W        W 1731  35.970   3.870  10.681
36505W        W 1732   5.788   1.795  12.689
36506W        W 1733  17.319  36.239  10.932
36507W        W 1734  44.092  16.068   1.905
36508W        W 1735  13.735  29.395  14.815
36509W        W 1736  13.774  21.992  13.081
36510W        W 1737  19.153  34.915   0.239
36511W        W 1738   6.015  22.962   4.284
36512W        W 1739  42.123  21.089  14.131
36513W        W 1740   7.427  43.960  10.860
36514W        W 1741  34.571  25.268   1.930
36515W        W 1742  10.593  32.971  11.735
36516W        W 1743   1.387   8.710   2.071
36517W        W 1744  17.592  12.367  12.491
36518W        W 1745   1.669  41.449   2.699
36519W        W 1746  41.582  28.560  12.380
36520W        W 1747   3.224  30.944   2.528
36521W        W 1748   3.202  13.408  14.953
36522W        W 1749  12.837  17.943   4.876
36523W        W 1750  33.679  30.934   3.730
36524W        W 1751   3.072  13.746   1.791
36525W        W 1752  31.946  29.980  13.910
36526W        W 1753   2.855  31.666   4.121
36527W        W 1754  11.161  16.728   0.904
36528W        W 1755  39.336  12.464  12.059
36529W        W 1756  16.629   3.050   1.538
36530W        W 1757  34.510  16.406   0.431
36531W        W 1758  41.949  33.232   1.828
36532W        W 1759  23.142   5.800  12.118
36533W        W 1760  44.288  24.605   4.869
36534W        W 1761  27.875  22.261  13.324
36535W        W 1762   1.214  42.400   1.424
36536W        W 1763  31.084  35.828   0.560
36537W        W 1764  33.556  14.780  13.355
36538W        W 1765  11.841  18.658   2.779
36539W        W 1766   6.923   1.601   3.799
36540W        W 1767  23.471   5.757   1.420
36541W        W 1768   6.219  26.538   1.443
36542W        W 1769  13.963  15.263  12.536
36543W        W 1770  42.351  40.547   2.389
36544W        W 1771   4.433   0.494   2.981
36545W        W 1772  21.112   5.419  11.485
36546W        W 1773  37.925  28.198  10.102
36547W        W 1774  35.370   7.798  11.398
36548W        W 1775  14.119  32.941   1.231
36549W        W 1776  34.080   2.928  12.406
36550W        W 1777  43.442  35.496   1.761
36551W        W 1778  26.123  34.975   4.236
36552W        W 1779  44.282  10.123  14.927
36553W        W 1780  26.620   3.188   3.324
36554W        W 1781  19.630   5.910   2.944
36555W        W 1782  28.606  12.360   2.182
36556W        W 1783   6.267  29.447   1.838
36557W        W 1784   9.855  33.593   1.223
36558W        W 1785   8.259  25.192   0.705
36559W        W 1786  38.542  25.144  11.235
36560W        W 1787   0.392  21.238  12.774
36561W        W 1788   3.881  24.354   4.983
36562W        W 1789  25.303  10.693   0.411
36563W        W 1790  39.846  29.021   0.560
36564W        W 1791  26.535  37.603   0.996
36565W        W 1792  33.043  25.118   3.163
36566W        W 1793  28.113   1.504  12.108
36567W        W 1794  30.673  25.401   1.779
36568W        W 1795  13.073  44.499   0.902
36569W        W 1796  29.865  12.317   2.814
36570W        W 1797  32.631   7.028   2.339
36571W        W 1798  16.693  30.054   4.040
36572W        W 1799  11.735  20.618   1.864
36573W        W 1800  25.173   7.891   4.188
36574W        W 1801  30.318  41.477  10.829
36575W        W 1802  11.640  21.424   3.819
36576W        W 1803  30.007  36.623  13.206
36577W        W 1804  25.221  38.280   0.268
36578W        W 1805  43.570  43.912   0.990
36579W        W 1806  23.153  33.159   0.019
36580W        W 1807  17.848  26.346  14.012
36581W        W 1808  19.575  30.907  14.956
36582W        W 1809  34.998  22.560  13.884
36583W        W 1810  31.098  41.976  10.761
36584W        W 1811  18.277  26.685  13.945
36585W        W 1812   8.393   4.195   3.130
36586W        W 1813  25.902  33.987   4.193
36587W        W 1814  43.493  35.888   4.470
36588W        W 1815  26.684   2.585   4.204
36589W        W 1816  22.110  11.820  10.771
36590W        W 1817   6.443   4.767   0.175
36591W        W 1818  43.458  44.005  13.521
36592W        W 1819   7.648  27.165  13.074
36593W        W 1820   7.354  22.236  11.989
36594W        W 1821   3.075  44.055  11.734
36595W        W 1822  42.245  42.001  14.838
36596W        W 1823  11.300  17.637   3.128
36597W        W 1824   9.840  27.008   2.605
36598W        W 1825  39.902  29.946  13.163
36599W        W 1826   8.135  29.981  11.245
36600W        W 1827   2.921  19.123   2.887
36601W        W 1828   2.269  31.063   1.760
36602W        W 1829  17.156   8.158  14.868
36603W        W 1830  31.153   3.257  10.730
36604W        W 1831   0.008  14.736   0.351
36605W        W 1832  19.484   4.381  11.480
36606W        W 1833  30.662   1.469   2.378
36607W        W 1834  32.101  41.755  14.402
36608W        W 1835  31.318  36.942  14.047
36609W        W 1836   0.987  20.775   3.813
36610W        W 1837  20.538  30.322   4.218
36611W        W 1838  23.978  37.124  11.175
36612W        W 1839  16.894  33.071   1.596
36613W        W 1840   2.305  22.663   3.886
36614W        W 1841  14.123   7.823  12.819
36615W        W 1842  16.628  22.182   4.690
36616W        W 1843  24.101  24.761   1.848
36617W        W 1844   8.138   6.531   4.100
36618W        W 1845  34.586  39.803  13.642
36619W        W 1846   8.261  33.856   2.759
36620W        W 1847  43.868  12.054   3.542
36621W        W 1848  37.982  32.825   0.901
36622W        W 1849  39.432   0.216   1.334
36623W        W 1850  18.505  23.313   2.547
36624W        W 1851  33.209  34.381  12.468
36625W        W 1852   8.383   7.935  13.419
36626W        W 1853  34.067  31.444  14.402
36627W        W 1854  39.273  36.790   2.835
36628W        W 1855  40.098   1.473  14.321
36629W        W 1856   4.966   9.760   1.320
36630W        W 1857   1.867   8.789   4.294
36631W        W 1858  27.025  36.015  14.717
36632W        W 1859  19.877  37.027   4.318
36633W        W 1860  24.653  39.869   1.847
36634W        W 1861   5.037  17.648   2.762
36635W        W 1862  27.725  36.529   3.150
36636W        W 1863  26.052  18.803   3.218
36637W        W 1864  40.536   6.178  14.833
36638W        W 1865   9.299  22.633  11.669
36639W        W 1866  20.644  19.727  14.892
36640W        W 1867   0.695  25.295   2.643
36641W        W 1868  44.759  36.360   3.185
36642W        W 1869  28.737  14.090  12.599
36643W        W 1870   0.491  11.664  14.884
36644W        W 1871  43.564  39.913   1.584
36645W        W 1872  34.409   2.478   4.656
36646W        W 1873  31.918   2.671  11.165
36647W        W 1874  29.582  35.041  14.688
36648W        W 1875  42.198  27.617   4.158
36649W        W 1876  25.517  10.127  10.678
36650W        W 1877  28.593   0.903  10.082
36651W        W 1878  26.629  19.957  12.580
36652W        W 1879   0.662  40.377  10.650
36653W        W 1880   2.414   8.849   3.387
36654W        W 1881  34.113  27.932   9.793
36655W        W 1882  20.091  41.523   0.219
36656W        W 1883  14.321  38.491  11.755
36657W        W 1884  15.358  11.614  14.813
36658W        W 1885  25.153  38.555  14.447
36659W        W 1886  43.936  22.636  13.510
36660W        W 1887   0.300  43.990   5.055
36661W        W 1888  10.860  38.953   3.689
36662W        W 1889  34.056  25.949   3.636
36663W        W 1890  44.044  25.457  10.744
36664W        W 1891  25.565   3.325   4.254
36665W        W 1892  36.892   2.184   0.207
36666W        W 1893  30.293   3.611  10.713
36667W        W 1894  37.691  43.145  10.909
36668W        W 1895  17.772  24.687  12.511
36669W        W 1896  41.464   5.372  12.081
36670W        W 1897  41.829  11.623   4.536
36671W        W 1898  26.086  15.225   2.217
36672W        W 1899  44.890  28.023   3.650
36673W        W 1900  28.718  37.411  13.905
36674W        W 1901  37.276  20.037   3.732
36675W        W 1902  24.487  44.390  14.068
36676W        W 1903  43.118  10.279   1.136
36677W        W 1904  10.157  30.384  14.714
36678W        W 1905  42.924  10.860  11.023
36679W        W 1906  29.322  33.344  13.999
36680W        W 1907  12.302   3.833  12.841
36681W        W 1908  25.153   6.637  13.544
36682W        W 1909  21.604  40.456   4.649
36683W        W 1910  24.115  30.383  14.241
36684W        W 1911  18.064  14.886   2.652
36685W        W 1912  10.689  44.808  11.364
36686W        W 1913   3.208   4.444   1.242
36687W        W 1914  14.251  17.770   4.640
36688W        W 1915  36.092  31.657  12.340
36689W        W 1916  14.867  43.808  13.984
36690W        W 1917   9.611  14.093   0.049
36691W        W 1918   5.360  32.851  14.013
36692W        W 1919   3.222  11.374   3.223
36693W        W 1920  30.501  35.294   4.678
36694W        W 1921  20.368  43.080  12.530
36695W        W 1922   5.291  25.254   3.700
36696W        W 1923  35.404  37.386  12.816
36697W        W 1924  34.586  30.370   4.474
36698W        W 1925  16.760  38.970   2.699
36699W        W 1926  27.701   5.807  13.710
36700W        W 1927  38.562  10.322   3.232
36701W        W 1928  44.949   2.824   0.568
36702W        W 1929  39.876  30.075   4.328
36703W        W 1930  27.555  37.543  13.628
36704W        W 1931  12.712  38.302   0.291
36705W        W 1932  26.806  24.707   3.800
36706W        W 1933  23.298  33.336   1.917
36707W        W 1934  37.948   4.412   3.634
36708W        W 1935  25.494  35.190  14.485
36709W        W 1936  36.446  19.601  14.893
36710W        W 1937  30.495  28.530   2.378
36711W        W 1938   3.507  36.517   1.924
36712W        W 1939  35.532   2.714   2.155
36713W        W 1940  34.096  40.287  12.031
36714W        W 1941   4.853   5.955   3.127
36715W        W 1942  39.282  20.991  13.152
36716W        W 1943  36.058  31.024  11.571
36717W        W 1944   8.206  44.705   2.155
36718W        W 1945  16.547   4.580  11.067
36719W        W 1946  43.706  29.100  14.417
36720W        W 1947   1.252  36.284   4.095
36721W        W 1948  30.818  35.815  14.699
36722W        W 1949   3.020  31.501   0.858
36723W        W 1950  30.107  38.676  12.158
36724W        W 1951  33.477   1.242  13.584
36725W        W 1952  12.725  33.230   2.768
36726W        W 1953  38.033  39.614   3.824
36727W        W 1954  18.518  38.258  11.624
36728W        W 1955  26.420  16.661  10.543
36729W        W 1956  34.838  21.928  12.072
36730W        W 1957  35.930  39.992  14.433
36731W        W 1958  22.271  32.335   4.347
36732W        W 1959  35.815   5.691   4.684
36733W        W 1960  29.555  29.293   0.962
36734W        W 1961  11.338  21.087   1.011
36735W        W 1962  42.336  33.851   4.017
36736W        W 1963  11.222  39.892   3.687
36737W        W 1964  20.281  36.448  11.675
36738W        W 1965  22.714  31.639  14.338
36739W        W 1966  12.546  16.143  12.120
36740W        W 1967  26.861  33.479  10.502
36741W        W 1968   2.572   6.271  13.729
36742W        W 1969  37.321  15.124   0.848
36743W        W 1970  12.177  42.453   0.217
36744W        W 1971  31.454  37.907   2.105
36745W        W 1972  43.520  19.174   0.914
36746W        W 1973  10.161  29.829   2.400
36747W        W 1974  29.420  32.423  12.504
36748W        W 1975  16.907  16.531  11.084
36749W        W 1976   0.850   7.557  10.542
36750W        W 1977   2.566  33.856   2.141
36751W        W 1978  17.064   8.727  12.495
36752W        W 1979   8.638   9.983   1.795
36753W        W 1980   4.275  11.900  12.456
36754W        W 1981  28.737  18.661   1.587
36755W        W 1982  20.152  35.259   3.449
36756W        W 1983  44.878  40.658   3.100
36757W        W 1984  26.219  31.644   3.229
36758W        W 1985   4.695  12.575   4.499
36759W        W 1986  12.119  37.837   1.307
36760W        W 1987   3.485   1.830  11.503
36761W        W 1988  31.642  16.084   0.446
36762W        W 1989   1.966  13.157  14.400
36763W        W 1990  34.148   5.486   2.712
36764W        W 1991  23.509   5.435   2.506
36765W        W 1992  35.659  41.223  12.620
36766W        W 1993  12.787  12.579  10.545
36767W        W 1994  44.955  15.698  10.623
36768W        W 1995  36.955  30.700   1.636
36769W        W 1996  11.189  40.598   2.358
36770W        W 1997  22.143   9.359   1.815
36771W        W 1998  41.099  30.012  14.770
36772W        W 1999  34.874  12.581  10.836
36773W        W 2000   1.393  33.182   4.918
36774W        W 2001  28.519  43.483  13.433
36775W        W 2002   6.389  35.917  10.372
36776W        W 2003  18.651  44.245   4.515
36777W        W 2004  33.329  37.847  11.963
36778W        W 2005  37.363   8.991   4.976
36779W        W 2006  30.443   6.893   0.325
36780W        W 2007  11.935  28.231  13.002
36781W        W 2008   4.635  23.952   1.673
36782W        W 2009  28.270  35.534  12.970
36783W        W 2010  30.047  44.277   4.724
36784W        W 2011  15.413  26.172   4.167
36785W        W 2012  29.000  24.514   4.586
36786W        W 2013  42.403  12.885  14.348
36787W        W 2014   1.648  13.696   4.645
36788W        W 2015  20.695  13.740  12.975
36789W        W 2016  39.594  42.476  11.421
36790W        W 2017  20.884   4.866   2.912
36791W        W 2018  22.236  26.139   3.653
36792W        W 2019  29.660   0.699  12.588
36793W        W 2020  19.241  11.412  13.603
36794W        W 2021  39.490   3.261  14.261
36795W        W 2022  21.263  22.875  10.423
36796W        W 2023   4.837  20.610   4.326
36797W        W 2024  43.095  43.575   2.617
36798W        W 2025  29.030   3.238  12.099
36799W        W 2026  28.543   8.890  12.390
36800W        W 2027  41.086  43.477  13.531
36801W        W 2028  13.112  10.198  12.437
36802W        W 2029  26.677   3.756   1.695
36803W        W 2030   6.130  43.441  13.967
36804W        W 2031  13.576  15.285  10.935
36805W        W 2032  39.025   1.259   0.860
36806W        W 2033  16.361  44.240   1.327
36807W        W 2034  30.408  34.596  14.020
36808W        W 2035  15.507  22.119  13.904
36809W        W 2036  17.652  34.139  11.230
36810W        W 2037  29.802  19.875   1.335
36811W        W 2038  34.648  26.039   4.089
36812W        W 2039   8.419  43.257   4.146
36813W        W 2040   5.929  27.107   4.774
36814W        W 2041  24.233  40.548  14.966
36815W        W 2042   8.843  16.334   3.303
36816W        W 2043  31.521  28.389   2.384
36817W        W 2044   7.456  28.926   3.729
36818W        W 2045   2.911  20.486   3.193
36819W        W 2046  12.453  12.316   2.529
36820W        W 2047   9.442  32.578   2.433
36821W        W 2048  20.647  36.464   3.346
36822W        W 2049  36.340  32.670   1.441
36823W        W 2050  27.148  12.301   4.125
36824W        W 2051   3.709   3.885   4.446
36825W        W 2052  42.056  32.203  14.769
36826W        W 2053   7.650  13.127  11.124
36827W        W 2054  38.349   9.789  11.000
36828W        W 2055   7.105  18.900  13.144
36829W        W 2056   6.703   1.419  12.915
36830W        W 2057   5.405  36.094   0.467
36831W        W 2058  20.495   0.739   3.127
36832W        W 2059  41.954  41.880   4.466
36833W        W 2060  34.155  23.283  14.409
36834W        W 2061   8.399   8.875   4.027
36835W        W 2062   6.465   0.921   3.112
36836W        W 2063  29.665  34.559  14.508
36837W        W 2064  28.521  37.969  13.970
36838W        W 2065  17.598  44.047  14.891
36839W        W 2066   8.706  28.440  12.094
36840W        W 2067  27.529  41.583   1.282
36841W        W 2068   9.208  12.415  10.990
36842W        W 2069  22.289  40.735   3.698
36843W        W 2070  37.328  10.712  12.472
36844W        W 2071  26.627   7.598  14.390
36845W        W 2072  33.026  41.210   1.023
36846W        W 2073  43.245  26.592  12.990
36847W        W 2074   7.076  18.942  11.975
36848W        W 2075  26.233   0.278  14.376
36849W        W 2076  41.229   7.936  12.426
36850W        W 2077  14.064  11.867   3.682
36851W        W 2078  22.507  35.618  10.735
36852W        W 2079  29.086  35.111   2.299
36853W        W 2080  18.802  42.070   4.041
36854W        W 2081  21.612  40.064   4.296
36855W        W 2082  37.448  12.365   0.904
36856W        W 2083  30.358  26.169  12.595
36857W        W 2084   5.819  11.954  11.051
36858W        W 2085   4.819  34.986  13.634
36859W        W 2086   8.423  22.266  14.371
36860W        W 2087   9.155  21.229  10.430
36861W        W 2088   4.750   7.043   2.288
36862W        W 2089  41.974  35.336  14.635
36863W        W 2090   4.852  16.063  11.221
36864W        W 2091  13.285  33.556  11.854
36865W        W 2092  43.320   8.610  12.629
36866W        W 2093  11.363  27.833   1.196
36867W        W 2094  42.237  24.100  11.202
36868W        W 2095   5.772  20.335  11.997
36869W        W 2096  27.860  14.872  10.367
36870W        W 2097  13.152  25.929  12.097
36871W        W 2098  24.965   0.968   1.899
36872W        W 2099  33.716  22.444   0.311
36873W        W 2100  31.808  38.141  14.052
36874W        W 2101  20.098  42.489   2.348
36875W        W 2102  13.735  21.479   1.880
36876W        W 2103   7.371  23.059  12.262
36877W        W 2104  37.530  35.353   4.472
36878W        W 2105  17.248  27.984  14.965
36879W        W 2106   2.205  35.108   2.281
36880W        W 2107  32.439  29.047   2.072
36881W        W 2108  22.251   4.754  12.559
36882W        W 2109  17.507  29.593  10.751
36883W        W 2110  44.974   8.634  11.813
36884W        W 2111  26.409  40.073   4.076
36885W        W 2112  20.025  43.314   0.452
36886W        W 2113  35.344  11.716  12.382
36887W        W 2114  18.976  21.253  11.197
36888W        W 2115  34.950   8.585  13.631
36889W        W 2116  19.120  16.706   0.890
36890W        W 2117  12.760  12.044  12.609
36891W        W 2118  19.556  24.650   4.105
36892W        W 2119  11.043   0.007   2.282
36893W        W 2120  31.531  23.769   4.662
36894W        W 2121  27.738  41.556  10.699
36895W        W 2122   3.818  15.714  13.356
36896W        W 2123  43.583  17.734   4.950
36897W        W 2124  36.501   8.551   3.170
36898W        W 2125   6.927  39.634   1.920
36899W        W 2126  23.860  29.058  10.295
36900W        W 2127   0.681  30.979  12.305
36901W        W 2128  34.843  29.252  11.670
36902W        W 2129  22.181  33.955  14.846
36903W        W 2130  23.597  12.067  13.957
36904W        W 2131  30.083  11.396  10.858
36905W        W 2132  36.041  30.931   4.144
36906W        W 2133  37.600  23.173  13.523
36907W        W 2134  29.599  35.608   3.590
36908W        W 2135  22.021  43.417  11.670
36909W        W 2136  10.962  11.386  14.735
36910W        W 2137  40.508  31.584   3.651
36911W        W 2138   8.673  40.119  13.995
36912W        W 2139  23.278  14.862  14.077
36913W        W 2140  23.201   6.208   2.850
36914W        W 2141  17.241   1.886   2.683
36915W        W 2142  19.314  14.767   2.448
36916W        W 2143  38.558  11.215  14.524
36917W        W 2144  41.387  38.485   0.266
36918W        W 2145  32.894  33.722  11.151
36919W        W 2146   1.686  13.234   0.765
36920W        W 2147  19.615  32.356   3.269
36921W        W 2148  40.699   9.623  11.076
36922W        W 2149  27.978   8.211   2.605
36923W        W 2150  20.721  44.465   2.703
36924W        W 2151  14.316  32.267  11.207
36925W        W 2152   6.250   7.174  14.946
36926W        W 2153  41.406  34.112   1.811
36927W        W 2154  37.305  44.315  10.913
36928W        W 2155  37.963  27.898  14.264
36929W        W 2156  28.640  13.719   2.449
36930W        W 2157   5.658  22.569   4.348
36931W        W 2158  31.785  10.142  11.132
36932W        W 2159  18.465   8.615   2.667
36933W        W 2160  25.629  30.370  14.116
36934W        W 2161   7.582  21.226  14.501
36935W        W 2162  16.593  24.627   3.306
36936W        W 2163   4.399  16.828  10.166
36937W        W 2164  25.663  26.442   0.021
36938W        W 2165  10.300  43.380   0.204
36939W        W 2166  22.239   4.376  12.164
36940W        W 2167  26.526  20.874  13.556
36941W        W 2168  19.753  44.068   3.048
36942W        W 2169   4.703   8.759   2.164
36943W        W 2170  18.468  37.336  13.427
36944W        W 2171  36.014  32.878  11.894
36945W        W 2172   1.778  18.258   4.259
36946W        W 2173   5.719  33.947   0.406
36947W        W 2174   7.481  15.661   2.283
36948W        W 2175  37.830  38.059  10.726
36949W        W 2176  43.653  17.319   2.901
36950W        W 2177  38.972  10.940   2.315
36951W        W 2178   2.837  16.005  14.520
36952W        W 2179   8.133  19.368  11.162
36953W        W 2180   6.150   0.207   1.945
36954W        W 2181  13.711  39.892   1.517
36955W        W 2182  38.159  32.502   0.533
36956W        W 2183   7.731  18.517  14.502
36957W        W 2184  39.271  28.534  11.557
36958W        W 2185  25.573  44.993   0.750
36959W        W 2186  44.360  20.143   1.548
36960W        W 2187   9.378  31.547  12.411
36961W        W 2188  25.226  19.311  13.777
36962W        W 2189  14.020  10.158  11.504
36963W        W 2190   3.210  31.190  12.458
36964W        W 2191   0.211  37.520   3.605
36965W        W 2192  43.889  41.451   4.773
36966W        W 2193  33.329  17.592  11.668
36967W        W 2194  10.054  25.229  13.992
36968W        W 2195  16.520  42.216  12.078
36969W        W 2196  10.383  20.937   2.173
36970W        W 2197  19.168  25.885  14.826
36971W        W 2198   6.829  19.243  11.157
36972W        W 2199  21.642  33.033   4.294
36973W        W 2200  13.777  43.409  13.062
36974W        W 2201   6.417  14.859   2.803
36975W        W 2202  16.259  36.971   1.909
36976W        W 2203  28.058  19.751   0.815
36977W        W 2204  26.505  24.222  13.828
36978W        W 2205   5.303  24.638   3.133
36979W        W 2206   1.711  38.716   0.115
36980W        W 2207  21.386  16.149   0.862
36981W        W 2208  32.554  34.096  11.282
36982W        W 2209  26.029  16.179   0.746
36983W        W 2210  26.565  22.445  14.492
36984W        W 2211   2.838  41.419   1.680
36985W        W 2212  32.169  40.161  14.906
36986W        W 2213  34.751  31.589  12.033
36987W        W 2214   5.389  13.584   0.756
36988W        W 2215  19.104  18.265   1.798
36989W        W 2216   7.611  36.993   3.318
36990W        W 2217  33.669  12.878   2.574
36991W        W 2218  20.168  25.417  13.055
36992W        W 2219  39.566  10.900  12.083
36993W        W 2220  15.840  33.135  14.914
36994W        W 2221  40.868  40.771   0.358
36995W        W 2222  23.248   6.307  10.467
36996W        W 2223   2.760  35.393  11.178
36997W        W 2224   0.730   7.865  14.039
36998W        W 2225  12.840  42.935  11.276
36999W        W 2226  38.019  32.559   1.338
37000W        W 2227  39.208  34.417   2.310
37001W        W 2228  36.803  38.756   2.337
37002W        W 2229  23.571   7.589   4.595
37003W        W 2230  43.168   2.891  14.495
37004W        W 2231  32.854   8.904   1.268
37005W        W 2232  27.474   1.086  14.513
37006W        W 2233  21.153  13.067   4.555
37007W        W 2234  17.927  41.108   2.709
37008W        W 2235  38.572  43.587  12.093
37009W        W 2236  38.975  43.681   3.671
37010W        W 2237  12.844  33.444  13.207
37011W        W 2238  14.990   3.947  13.344
37012W        W 2239   3.385  14.589  13.686
37013W        W 2240  21.023  21.780  14.293
37014W        W 2241  38.910  15.635   1.480
37015W        W 2242  16.718  31.050  13.287
37016W        W 2243  16.576  43.494  13.107
37017W        W 2244  39.582  18.447   1.908
37018W        W 2245  20.202  39.335   2.693
37019W        W 2246  39.238  17.003   5.394
37020W        W 2247  29.882  43.344   3.729
37021W        W 2248  22.222  32.884  11.039
37022W        W 2249   4.710  11.793  10.812
37023W        W 2250  42.281  12.064   2.406
37024W        W 2251  17.823  41.434   0.399
37025W        W 2252  13.528  39.811   4.542
37026W        W 2253  43.833  44.737  14.602
37027W        W 2254  16.022  35.967   1.448
37028W        W 2255   1.407   3.116   4.274
37029W        W 2256  25.925  10.236   4.485
37030W        W 2257  27.605  18.202  12.641
37031W        W 2258  33.304  16.245  11.126
37032W        W 2259   2.457  11.272   9.640
37033W        W 2260  29.910   5.721  11.464
37034W        W 2261  12.140  11.983   3.871
37035W        W 2262   6.224  28.529   3.708
37036W        W 2263  30.468  39.289  14.898
37037W        W 2264  36.883  35.270   1.497
37038W        W 2265   0.695  15.094   0.746
37039W        W 2266  15.191   7.114  14.943
37040W        W 2267  23.212  29.983   1.855
37041W        W 2268  16.084  32.621   4.142
37042W        W 2269  11.428   9.888  11.177
37043W        W 2270  15.621  19.604  10.345
37044W        W 2271  11.955  30.107  12.594
37045W        W 2272  26.591  15.621   4.641
37046W        W 2273   6.683   8.830  12.604
37047W        W 2274  30.660  32.711   1.040
37048W        W 2275   9.149  42.058  14.532
37049W        W 2276   8.479   0.540   1.260
37050W        W 2277  36.147  41.418   2.049
37051W        W 2278  35.509  34.366   2.941
37052W        W 2279   5.405  23.664   4.110
37053W        W 2280  28.224  32.623  11.485
37054W        W 2281   4.761  42.356   2.625
37055W        W 2282  22.631  21.342  14.208
37056W        W 2283  24.877  19.125  13.473
37057W        W 2284   1.825  24.973  13.292
37058W        W 2285  27.222  18.199  11.187
37059W        W 2286  13.570   5.019   2.264
37060W        W 2287   9.736   1.239  12.508
37061W        W 2288  40.012  27.671  11.538
37062W        W 2289  22.527   0.398  13.916
37063W        W 2290  17.571  36.938   3.792
37064W        W 2291   9.353  24.170  13.469
37065W        W 2292   3.314  42.385  14.200
37066W        W 2293   5.947   0.732   1.839
37067W        W 2294  39.933  24.028  12.852
37068W        W 2295  27.102  29.924  11.895
37069W        W 2296  37.294   3.958  10.456
37070W        W 2297  20.043   2.663  13.458
37071W        W 2298  43.424  37.792   4.182
37072W        W 2299   0.687   2.623  14.194
37073W        W 2300  24.905  39.393   3.312
37074W        W 2301   7.096  26.627   1.907
37075W        W 2302  19.055  26.365   4.359
37076W        W 2303  35.301  44.895  11.394
37077W        W 2304  44.107  33.655  11.078
37078W        W 2305  16.638  27.642  11.582
37079W        W 2306  13.316  11.211   3.648
37080W        W 2307  21.176  23.371  10.602
37081W        W 2308   3.746  36.297  12.507
37082W        W 2309   0.950  31.532   2.836
37083W        W 2310  11.518  37.976   2.899
37084W        W 2311  26.708  41.827  12.018
37085W        W 2312  35.525   4.964  13.032
37086W        W 2313  26.894  18.308   4.951
37087W        W 2314  11.767  25.050   2.145
37088W        W 2315  38.519   0.294   2.009
37089W        W 2316  42.597  11.367   3.738
37090W        W 2317  18.318   5.468  11.195
37091W        W 2318  40.883  19.200   3.167
37092W        W 2319  25.148  37.390   3.163
37093W        W 2320  27.479   5.783  11.593
37094W        W 2321  18.161  30.982   2.348
37095W        W 2322  17.110  28.441  10.861
37096W        W 2323  43.822  10.798  13.615
37097W        W 2324  24.073   1.532  14.092
37098W        W 2325  44.289  13.684   3.745
37099W        W 2326   2.951  44.461  12.195
37100W        W 2327   2.990  34.374   3.702
37101W        W 2328  33.801  18.677   0.445
37102W        W 2329  11.848  13.031   4.615
37103W        W 2330  18.629  13.772  11.497
37104W        W 2331   3.806  38.019   3.013
37105W        W 2332  10.439  25.219   2.335
37106W        W 2333   3.619   2.233  14.816
37107W        W 2334  26.468  29.202  12.064
37108W        W 2335  35.688  19.740   4.801
37109W        W 2336  25.125  44.233   2.239
37110W        W 2337  40.973  18.291   3.546
37111W        W 2338  40.743  25.027   1.702
37112W        W 2339  27.015  43.852   3.167
37113W        W 2340  18.185  14.317  13.589
37114W        W 2341  11.476   7.384  13.059
37115W        W 2342  43.899  27.425   0.900
37116W        W 2343   6.882  14.959  13.838
37117W        W 2344  44.478  35.875   4.176
37118W        W 2345   0.879   5.776  11.229
37119W        W 2346   8.424   0.705   2.213
37120W        W 2347  24.640  38.821  10.702
37121W        W 2348   2.300  36.307   3.248
37122W        W 2349  11.888  44.557   4.468
37123W        W 2350  28.805  42.771  11.444
37124W        W 2351  26.049  19.129  14.775
37125W        W 2352  38.422  34.326   0.377
37126W        W 2353   8.279  40.860  12.478
37127W        W 2354  24.414  16.748   1.858
37128W        W 2355  26.445  16.236  10.835
37129W        W 2356  28.987  44.629  11.478
37130W        W 2357   2.884  14.051  14.401
37131W        W 2358   0.916  40.412  12.000
37132W        W 2359  29.157  43.300   4.324
37133W        W 2360  24.104  14.363  10.645
37134W        W 2361   1.223  39.192  12.133
37135W        W 2362   2.505  15.490  11.130
37136W        W 2363  13.227  44.407  12.439
37137W        W 2364  35.057  25.747   1.489
37138W        W 2365  27.637  36.277   2.347
37139W        W 2366  16.978  41.509  13.179
37140W        W 2367  35.984  25.576  13.461
37141W        W 2368   9.240  43.914   4.411
37142W        W 2369  44.002  10.427   0.308
37143W        W 2370  17.721  39.873  12.421
37144W        W 2371   0.036  38.974  12.549
37145W        W 2372  11.173  18.780  11.924
37146W        W 2373  34.394   5.353   3.611
37147W        W 2374  10.781  19.934   1.477
37148W        W 2375   1.358  28.684  12.685
37149W        W 2376  36.216   1.600  12.076
37150W        W 2377  12.305  18.786   3.708
37151W        W 2378  13.331  33.016  12.008
37152W        W 2379  40.079   2.927  13.003
37153W        W 2380  25.966  18.033  11.561
37154W        W 2381  15.376  28.555   0.785
37155W        W 2382  11.347  10.915  12.049
37156W        W 2383  19.080  42.747  12.416
37157W        W 2384  26.629  28.228   0.302
37158W        W 2385  36.038   4.326   3.249
37159W        W 2386  17.975  21.326   1.382
37160W        W 2387  12.885  17.667  13.032
37161W        W 2388  12.823   9.818   1.828
37162W        W 2389  24.801  13.370  14.872
37163W        W 2390   0.567  23.923  12.524
37164W        W 2391  20.400  15.654   4.054
37165W        W 2392  15.302  42.461   1.476
37166W        W 2393   6.610   3.353   3.681
37167W        W 2394   7.798  26.691   2.333
37168W        W 2395   8.381  35.539  11.750
37169W        W 2396  13.058   6.358  13.469
37170W        W 2397  40.620   8.479  13.037
37171W        W 2398   4.813  23.659  14.511
37172W        W 2399  39.252  33.024  10.588
37173W        W 2400  37.454   9.062   4.062
37174W        W 2401   5.459   7.943   3.716
37175W        W 2402   6.429  23.048   3.887
37176W        W 2403   9.761  37.151  14.294
37177W        W 2404  30.190   8.386  12.074
37178W        W 2405   7.679  29.559  11.924
37179W        W 2406  31.865  32.643   1.657
37180W        W 2407  24.477  37.881  13.405
37181W        W 2408  19.351  27.800   4.669
37182W        W 2409  43.428  22.028  10.428
37183W        W 2410  12.746   4.186   2.694
37184W        W 2411  42.857   4.883  12.946
37185W        W 2412  40.788  14.161  11.951
37186W        W 2413  19.693  11.979   0.842
37187W        W 2414  42.617   5.358  12.862
37188W        W 2415   0.319  43.902  13.880
37189W        W 2416  10.635  39.327   0.256
37190W        W 2417  39.625   6.459  14.356
37191W        W 2418  14.328  42.208  11.984
37192W        W 2419  17.545   1.207  12.506
37193W        W 2420   3.850  34.020  14.328
37194W        W 2421  40.509   5.028  11.601
37195W        W 2422  33.064  24.510  13.658
37196W        W 2423  20.331  23.396   3.704
37197W        W 2424  44.177  12.324  11.864
37198W        W 2425  42.143  29.027  14.408
37199W        W 2426   1.895  12.719   2.309
37200W        W 2427  33.523  31.215   3.326
37201W        W 2428  14.816  10.158   0.528
37202W        W 2429  34.699  12.729   2.807
37203W        W 2430  20.069  44.489  10.588
37204W        W 2431   7.754  24.999  14.388
37205W        W 2432  35.248  28.088   2.663
37206W        W 2433   9.116  38.304   1.601
37207W        W 2434   9.396  13.335  11.547
37208W        W 2435   6.405  43.771   3.662
37209W        W 2436  35.996  43.273  11.716
37210W        W 2437  30.616  30.898  10.731
37211W        W 2438  40.305  10.627  13.387
37212W        W 2439  44.273   4.815  10.543
37213W        W 2440  18.283  33.807  10.575
37214W        W 2441  36.840  33.897   4.370
37215W        W 2442  37.900  16.243   2.257
37216W        W 2443  20.658  40.937   1.750
37217W        W 2444  22.068  18.569  12.538
37218W        W 2445  33.468  34.567  11.603
37219W        W 2446  34.880  18.569  14.032
37220W        W 2447  17.166  34.045   3.837
37221W        W 2448  20.770  37.727   1.733
37222W        W 2449  17.085  12.998   3.058
37223W        W 2450  10.390  36.968   4.596
37224W        W 2451  28.066   3.923  12.338
37225W        W 2452  44.199  25.807   3.205
37226W        W 2453   8.795  20.293   3.326
37227W        W 2454  37.473  16.148   4.213
37228W        W 2455   1.887  11.133  13.339
37229W        W 2456  26.561  31.469  12.875
37230W        W 2457  10.893  13.922   2.098
37231W        W 2458  21.274  25.882   4.165
37232W        W 2459  21.685  41.035  12.224
37233W        W 2460  10.150  26.445  10.778
37234W        W 2461  10.832   2.213  14.488
37235W        W 2462  23.578  12.011   2.832
37236W        W 2463  23.508  27.238  12.650
37237W        W 2464   4.009  38.324   2.665
37238W        W 2465  15.224  26.105   2.834
37239W        W 2466  23.038  42.685  10.311
37240W        W 2467  23.707  33.806  14.996
37241W        W 2468  25.706   2.329   0.723
37242W        W 2469   6.947  12.235  12.538
37243W        W 2470  12.707  38.582  10.723
37244W        W 2471   8.987  10.575   0.952
37245W        W 2472  26.242  37.974   1.724
37246W        W 2473  34.841   0.152  10.695
37247W        W 2474  24.162  17.028  11.850
37248W        W 2475  38.369  24.615   2.944
37249W        W 2476  21.994  13.435   2.619
37250W        W 2477  34.660  22.595   4.307
37251W        W 2478  30.249  19.258  12.875
37252W        W 2479  14.025  13.841  12.595
37253W        W 2480  15.760  39.210   0.394
37254W        W 2481  36.483  37.488  13.980
37255W        W 2482  36.969  34.979   4.913
37256W        W 2483  20.925  36.952  12.358
37257W        W 2484  23.796   0.367  13.312
37258W        W 2485  38.629  20.997   3.093
37259W        W 2486  36.042  22.566   3.785
37260W        W 2487  27.218  13.137  11.877
37261W        W 2488  33.584   1.925  14.804
37262W        W 2489  22.424  11.215   2.450
37263W        W 2490  10.839   8.247  14.722
37264W        W 2491   9.306   3.532   3.653
37265W        W 2492  11.840  28.496  13.435
37266W        W 2493  21.660   1.454   0.297
37267W        W 2494   5.706   5.131  12.300
37268W        W 2495  27.720   0.488   1.161
37269W        W 2496   7.951  32.389   3.699
37270W        W 2497  28.216  34.043   1.245
37271W        W 2498   7.717  23.560  11.574
37272W        W 2499  12.733  44.996   2.664
37273W        W 2500  35.635   4.324  13.780
37274W        W 2501  16.658  44.004  13.019
37275W        W 2502  44.563  34.168  10.522
37276W        W 2503  27.470  22.080   4.916
37277W        W 2504  16.870   6.257  11.602
37278W        W 2505  31.385  44.797   1.280
37279W        W 2506   0.804  22.504   3.207
37280W        W 2507  22.197  22.586   1.332
37281W        W 2508   1.876  18.764  12.020
37282W        W 2509  30.647   6.667   4.598
37283W        W 2510  28.627  22.131   0.753
37284W        W 2511  43.173   1.906  12.586
37285W        W 2512  25.705  29.100  11.700
37286W        W 2513   3.895   4.518   1.823
37287W        W 2514   8.993  12.155   1.334
37288W        W 2515   4.973  21.745   0.759
37289W        W 2516  26.333  19.584   1.356
37290W        W 2517  17.012  16.329   4.193
37291W        W 2518   4.310  39.079   3.221
37292W        W 2519  16.305  24.940  12.865
37293W        W 2520  40.178   8.450   3.699
37294W        W 2521  11.844   3.446  14.515
37295W        W 2522  30.901  19.873   5.023
37296W        W 2523  31.008  21.636  12.430
37297W        W 2524  38.513  35.739   2.778
37298W        W 2525  15.150   4.366   4.581
37299W        W 2526   1.099   5.182  11.744
37300W        W 2527  23.205  11.980   1.369
37301W        W 2528  16.341  37.397   0.307
37302W        W 2529  22.639  43.343   4.190
37303W        W 2530  29.423  10.877  14.000
37304W        W 2531  16.170  22.551   2.394
37305W        W 2532   4.260  23.085  12.196
37306W        W 2533  41.807  29.667   3.125
37307W        W 2534   8.416  19.220   2.121
37308W        W 2535  25.048   3.533  14.461
37309W        W 2536  20.248  31.971   3.348
37310W        W 2537  44.012  25.056   0.759
37311W        W 2538  40.831   0.762   3.339
37312W        W 2539   7.341  38.371  14.302
37313W        W 2540  35.881  28.973  12.888
37314W        W 2541  24.365  37.063  13.884
37315W        W 2542  28.178   4.173  13.410
37316W        W 2543  18.753   8.572  14.370
37317W        W 2544  15.085  43.975  13.319
37318W        W 2545  15.845   1.747   4.231
37319W        W 2546  40.368  23.090  13.356
37320W        W 2547  13.573  22.060   1.358
37321W        W 2548  43.434  25.945  12.401
37322W        W 2549  24.444   8.810  10.617
37323W        W 2550  10.820  38.300   1.351
37324W        W 2551   0.719  11.223  11.934
37325W        W 2552   4.180  35.014  12.232
37326W        W 2553  26.175  15.291   0.295
37327W        W 2554  38.039  12.133  14.417
37328W        W 2555   4.301  33.267   0.985
37329W        W 2556  18.164  15.920  12.605
37330W        W 2557   2.494  10.743  10.358
37331W        W 2558  28.961   7.791  13.962
37332W        W 2559   5.665   7.723   2.706
37333W        W 2560  33.680  27.296   1.738
37334W        W 2561  19.944  30.438  13.389
37335W        W 2562  41.979  17.851  11.397
37336W        W 2563   7.890  20.854   4.060
37337W        W 2564  36.785  44.460   0.800
37338W        W 2565  16.172  28.128  13.374
37339W        W 2566   4.331   1.898   3.752
37340W        W 2567   7.707  11.331  12.608
37341W        W 2568  30.670  26.936  13.001
37342W        W 2569  14.144  22.966  13.338
37343W        W 2570   6.007   2.540   3.575
37344W        W 2571  16.330  42.355  13.862
37345W        W 2572  17.154  25.478   4.608
37346W        W 2573  36.377   6.845  11.547
37347W        W 2574  31.398  31.925   1.996
37348W        W 2575  25.426  25.975   3.070
37349W        W 2576  15.731  29.321   1.921
37350W        W 2577  38.974  16.556  12.613
37351W        W 2578  12.781  39.881   1.385
37352W        W 2579  31.210  11.348  14.297
37353W        W 2580  14.856  29.084   2.797
37354W        W 2581  23.135  35.375   1.934
37355W        W 2582   9.320  32.976   2.139
37356W        W 2583   5.324  14.132   3.159
37357W        W 2584  35.821  22.087   3.666
37358W        W 2585  13.098  19.464  10.977
37359W        W 2586  17.798   8.438   0.360
37360W        W 2587  30.123  35.133  13.999
37361W        W 2588   4.885   3.193   1.887
37362W        W 2589  37.214  43.988   4.429
37363W        W 2590  21.799   1.175   2.798
37364W        W 2591   5.307   9.555  13.381
37365W        W 2592  11.143   1.416   1.670
37366W        W 2593  41.766  38.756  14.142
37367W        W 2594  33.806   5.450   3.751
37368W        W 2595  21.301  11.639   3.067
37369W        W 2596  40.893  32.627  12.370
37370W        W 2597  14.625   6.172  11.142
37371W        W 2598  18.517  25.369  11.106
37372W        W 2599  29.097  16.087   1.454
37373W        W 2600  38.249  31.597  12.568
37374W        W 2601  22.638  23.415   0.272
37375W        W 2602  34.448  12.363   3.656
37376W        W 2603  34.891  19.377   0.419
37377W        W 2604  13.269  35.511  13.289
37378W        W 2605  37.986  17.847   4.930
37379W        W 2606  42.931  25.802  12.363
37380W        W 2607   1.229   9.556   3.951
37381W        W 2608   4.132  21.664   4.200
37382W        W 2609  40.132  20.005  10.503
37383W        W 2610   0.375  43.378  13.932
37384W        W 2611  17.189  18.334  12.596
37385W        W 2612  21.250   8.884  11.547
37386W        W 2613  18.623  19.509   0.228
37387W        W 2614   7.434  43.714   1.395
37388W        W 2615   6.975  39.412  13.502
37389W        W 2616  17.268  33.066   2.003
37390W        W 2617  13.801  20.497   2.884
37391W        W 2618  21.955  32.105  13.273
37392W        W 2619   4.748  33.673  10.489
37393W        W 2620  26.512  39.771   2.356
37394W        W 2621  20.768  32.030   3.601
37395W        W 2622  10.715  23.639  12.708
37396W        W 2623  21.079  36.979  13.830
37397W        W 2624  15.640   7.957   1.697
37398W        W 2625  11.320  40.677   0.192
37399W        W 2626  15.104  20.835   2.582
37400W        W 2627   0.450   5.851   2.342
37401W        W 2628  14.327  31.125  11.071
37402W        W 2629  16.865  32.613  14.354
37403W        W 2630  41.561  41.335  14.300
37404W        W 2631   3.069   6.919   0.314
37405W        W 2632  18.271  43.548   0.570
37406W        W 2633   4.224  24.145  10.741
37407W        W 2634  15.836  29.188  12.206
37408W        W 2635  41.349  41.230  11.087
37409W        W 2636  21.334  30.185   3.584
37410W        W 2637  19.611  13.712  14.979
37411W        W 2638   5.601   5.912   0.152
37412W        W 2639   7.792  34.134   4.274
37413W        W 2640  44.469   9.773  14.246
37414W        W 2641  28.108  30.400   2.788
37415W        W 2642   9.709  40.368   4.511
37416W        W 2643  24.449  41.548   2.274
37417W        W 2644  25.514   3.750   1.951
37418W        W 2645  26.773  36.989  11.718
37419W        W 2646   7.539  32.645   2.684
37420W        W 2647  42.732  44.745   3.692
37421W        W 2648  34.518  36.822   2.879
37422W        W 2649  41.905  13.794  14.344
37423W        W 2650  41.951  32.729  14.737
37424W        W 2651  36.573  34.853   4.589
37425W        W 2652  14.908  32.382   4.993
37426W        W 2653   9.385  34.626  13.929
37427W        W 2654  31.438  13.665   4.155
37428W        W 2655  19.432  38.811   1.679
37429W        W 2656  35.374  37.788  13.332
37430W        W 2657  33.484  31.915   0.823
37431W        W 2658  22.172  25.840  14.257
37432W        W 2659  15.269   8.373  12.540
37433W        W 2660  26.741   0.370  14.358
37434W        W 2661  28.927  28.961   3.265
37435W        W 2662  27.720   8.286   1.926
37436W        W 2663  11.906  38.342  14.921
37437W        W 2664  11.633   9.971  11.635
37438W        W 2665   7.719   6.727   0.440
37439W        W 2666  29.732   4.772  11.145
37440W        W 2667  20.898  19.164  13.407
37441W        W 2668  35.557  41.905   0.246
37442W        W 2669  33.877   9.912  12.312
37443W        W 2670  10.829  29.655  14.941
37444W        W 2671  20.048   7.191  13.621
37445W        W 2672  13.197  10.221  10.684
37446W        W 2673   7.294  23.854   2.598
37447W        W 2674  26.476  40.590   1.891
37448W        W 2675  39.320  33.301   4.639
37449W        W 2676  14.094  19.558  13.443
37450W        W 2677   7.844   9.841   2.687
37451W        W 2678   2.189  41.876  12.908
37452W        W 2679   0.963  11.187  11.510
37453W        W 2680  17.655  31.994   0.730
37454W        W 2681  19.137  28.628  10.629
37455W        W 2682  36.805  16.111  12.587
37456W        W 2683  34.904  24.870   1.269
37457W        W 2684  30.468  37.012   1.200
37458W        W 2685  28.231  38.912   3.578
37459W        W 2686   8.686  27.481  10.566
37460W        W 2687  25.741  19.788  11.859
37461W        W 2688   9.075  15.944  11.303
37462W        W 2689  27.025  18.527  13.058
37463W        W 2690  30.379  18.593   0.379
37464W        W 2691   9.327   8.622  11.383
37465W        W 2692  22.701  37.168   0.739
37466W        W 2693  14.231  17.099   2.669
37467W        W 2694   3.040  23.770   4.768
37468W        W 2695  39.763  41.068   2.832
37469W        W 2696  24.825   8.788  12.014
37470W        W 2697  41.937  22.737  14.010
37471W        W 2698   8.222  32.550  12.098
37472W        W 2699  39.982  36.519   0.543
37473W        W 2700  18.799  17.990  11.703
37474W        W 2701  36.848  17.503   2.683
37475W        W 2702   9.135  10.831  11.135
37476W        W 2703  10.137  27.754  14.008
37477W        W 2704  15.743  12.321   4.466
37478W        W 2705  32.166  36.368  14.911
37479W        W 2706  24.021  29.318   4.264
37480W        W 2707  19.642  16.728   0.922
37481W        W 2708   6.275  23.771  13.243
37482W        W 2709  28.253  37.067  13.053
37483W        W 2710  27.410  38.926  13.930
37484W        W 2711  29.070  13.368   1.279
37485W        W 2712   1.228  10.563   2.618
37486W        W 2713  37.008   0.730  13.435
37487W        W 2714  23.084   7.336   1.914
37488W        W 2715  30.981  16.785  14.598
37489W        W 2716  18.125  34.049   3.383
37490W        W 2717  27.640  36.037   3.442
37491W        W 2718   5.758  15.136   2.339
37492W        W 2719  26.493  30.383  13.754
37493W        W 2720  24.141  43.432   3.936
37494W        W 2721  41.048  29.383  12.980
37495W        W 2722  17.062  42.309   3.146
37496W        W 2723  12.579  14.243  14.865
37497W        W 2724   4.199  38.117   2.162
37498W        W 2725  37.094  33.476  11.863
37499W        W 2726  20.198  15.329   3.708
37500W        W 2727   5.407  40.639  10.659
37501W        W 2728  17.702  30.480   0.215
37502W        W 2729  35.864  16.597   0.464
37503W        W 2730  38.485  26.997  14.355
37504W        W 2731   2.428  16.342   1.712
37505W        W 2732  38.535  23.276  11.217
37506W        W 2733   6.284   3.852  10.362
37507W        W 2734  14.827  15.599   0.354
37508W        W 2735  16.128  14.082   0.138
37509W        W 2736  31.095   4.447  13.987
37510W        W 2737  17.072  35.800   3.261
37511W        W 2738   8.793  42.063  12.990
37512W        W 2739  27.641  36.460  13.760
37513W        W 2740   8.584  32.821   0.058
37514W        W 2741  14.038  17.840  11.655
37515W        W 2742  15.689  33.343   4.547
37516W        W 2743   9.021  18.294  11.310
37517W        W 2744  27.440  33.879   0.876
37518W        W 2745  35.653   1.721  13.414
37519W        W 2746  22.290  24.153   0.304
37520W        W 2747  17.061  22.669  14.718
37521W        W 2748  13.338  40.540   2.371
37522W        W 2749   0.951  14.666  10.676
37523W        W 2750   3.674   3.878  14.103
37524W        W 2751  17.406  41.289   3.161
37525W        W 2752  28.921  28.829  11.178
37526W        W 2753  31.233  35.325  10.252
37527W        W 2754  13.096   1.733  13.845
37528W        W 2755  33.200  32.391   1.444
37529W        W 2756  18.089  42.217  14.213
37530W        W 2757  37.761  18.931  14.714
37531W        W 2758  13.188  30.934  11.575
37532W        W 2759  21.109  19.096  12.112
37533W        W 2760  20.208  21.137   3.501
37534W        W 2761  41.033  34.892  12.050
37535W        W 2762  33.238  28.074  12.037
37536W        W 2763  16.361   3.898  13.795
37537W        W 2764   0.205  36.548   1.383
37538W        W 2765   8.429  34.460   2.137
37539W        W 2766  35.478  15.737   2.219
37540W        W 2767   4.596  37.142   1.269
37541W        W 2768   2.506  26.755   2.231
37542W        W 2769  33.481   0.687  11.615
37543W        W 2770  32.906  11.974  10.705
37544W        W 2771   1.623  10.836  11.012
37545W        W 2772  29.950  25.519   4.936
37546W        W 2773  38.909  29.426   0.806
37547W        W 2774  37.363  14.262  12.437
37548W        W 2775  43.357  29.990  13.752
37549W        W 2776  24.654  39.614   3.939
37550W        W 2777  25.706   5.075  10.659
37551W        W 2778  40.276   3.641   0.000
37552W        W 2779  17.525  12.145  14.403
37553W        W 2780  35.506  10.211   3.613
37554W        W 2781  12.286  44.990   3.018
37555W        W 2782  44.769  39.065  13.919
37556W        W 2783  26.728   8.920   0.380
37557W        W 2784  36.547   9.096  10.535
37558W        W 2785  41.060  33.013  13.137
37559W        W 2786  20.727  33.857  14.949
37560W        W 2787   6.965   2.380  12.429
37561W        W 2788  15.389  12.245   1.803
37562W        W 2789   4.185  43.478  14.221
37563W        W 2790  14.615  32.815   4.100
37564W        W 2791   6.040  33.591   3.204
37565W        W 2792   3.419  28.209   0.677
37566W        W 2793  40.316   4.662  10.293
37567W        W 2794  22.674  43.991   3.831
37568W        W 2795   7.865  29.601  12.559
37569W        W 2796  27.142  27.746  11.572
37570W        W 2797  38.491  31.431   3.721
37571W        W 2798  14.307  13.401  14.385
37572W        W 2799  43.573  18.529   3.859
37573W        W 2800   7.898  16.608  14.754
37574W        W 2801   6.690  12.089   3.839
37575W        W 2802  13.551  17.620  11.661
37576W        W 2803  29.513  42.230   0.045
37577W        W 2804   1.272  43.519  14.004
37578W        W 2805  16.757  31.602   3.385
37579W        W 2806  31.135   0.798   4.764
37580W        W 2807  40.493  40.790   2.430
37581W        W 2808   3.762   0.575  12.998
37582W        W 2809  20.060  30.352   1.627
37583W        W 2810  38.557  44.004  14.901
37584W        W 2811  20.767  27.981   1.959
37585W        W 2812  11.371  35.496   1.885
37586W        W 2813  17.084   7.413  10.597
37587W        W 2814  44.705  26.729  10.220
37588W        W 2815  42.898  22.987   0.048
37589W        W 2816  24.344  35.584  11.124
37590W        W 2817  30.030  19.260   4.133
37591W        W 2818   6.292  16.199   2.239
37592W        W 2819  34.328   9.015  12.082
37593W        W 2820  23.068  24.049  11.631
37594W        W 2821   8.735  19.328   4.316
37595W        W 2822  21.080  43.570   3.336
37596W        W 2823   0.805  40.884  14.370
37597W        W 2824   5.203  43.336   0.008
37598W        W 2825   1.988  21.600  11.280
37599W        W 2826  14.617  25.103   4.150
37600W        W 2827  33.323  21.558  11.067
37601W        W 2828  27.182   5.285  13.815
37602W        W 2829  29.690  12.385  12.634
37603W        W 2830  30.222  29.777   0.402
37604W        W 2831  38.611  34.411  12.424
37605W        W 2832  13.987  34.120  13.691
37606W        W 2833  23.882   7.747  12.398
37607W        W 2834  28.595   5.281   2.656
37608W        W 2835  15.174   7.175   1.745
37609W        W 2836  11.405   5.372   4.511
37610W        W 2837  37.666  40.043   1.324
37611W        W 2838  35.893  41.314  10.753
37612W        W 2839  11.737  15.945   3.179
37613W        W 2840   0.798  35.811  13.418
37614W        W 2841   7.780  12.207   2.308
37615W        W 2842  23.651  44.641   1.398
37616W        W 2843   2.131  14.114   0.668
37617W        W 2844  43.964  26.962   4.437
37618W        W 2845  38.529   4.692   4.648
37619W        W 2846  16.679  32.053  12.646
37620W        W 2847  25.443  10.345   4.275
37621W        W 2848  28.550  16.403   0.457
37622W        W 2849  13.104  40.992   3.299
37623W        W 2850  29.939  15.741   0.814
37624W        W 2851  44.352  28.346   2.308
37625W        W 2852  36.496  35.384  12.067
37626W        W 2853  28.558   2.992   3.460
37627W        W 2854  28.103  11.141  12.474
37628W        W 2855  24.063  25.520   1.488
37629W        W 2856  27.350  39.287  12.524
37630W        W 2857   5.366  23.548  12.997
37631W        W 2858  19.139   8.182  13.369
37632W        W 2859   6.704  25.320  12.996
37633W        W 2860  16.840  41.277  14.336
37634W        W 2861  21.317  35.914  11.206
37635W        W 2862   3.646   0.142   4.588
37636W        W 2863  27.208  32.893   3.119
37637W        W 2864  32.479  44.555  13.915
37638W        W 2865  17.208  17.406   0.900
37639W        W 2866  14.853  19.167  12.140
37640W        W 2867  26.443  39.586  14.432
37641W        W 2868  32.419  26.419  12.108
37642W        W 2869  33.091   8.986   1.705
37643W        W 2870  23.048   9.870  11.033
37644W        W 2871  28.909   4.187  12.985
37645W        W 2872  25.168  31.733   0.430
37646W        W 2873   8.620   1.949   2.160
37647W        W 2874   5.765  37.394  10.431
37648W        W 2875  25.009   4.480   1.655
37649W        W 2876  23.974   4.833   0.858
37650W        W 2877  25.750  23.222   2.673
37651W        W 2878  24.585  24.557  11.094
37652W        W 2879  31.951  18.716   0.527
37653W        W 2880  14.596  32.210   0.859
37654W        W 2881   9.142  33.898  11.350
37655W        W 2882  16.850  17.104   4.878
37656W        W 2883  31.399  15.208   2.312
37657W        W 2884  35.869   4.102  11.141
37658W        W 2885   7.812  20.243  13.499
37659W        W 2886  16.146  14.691  14.809
37660W        W 2887   4.880  14.622   1.432
37661W        W 2888   0.830  13.309   2.915
37662W        W 2889  12.996  24.711  10.593
37663W        W 2890  12.198  39.424   3.716
37664W        W 2891  18.345   2.383   3.645
37665W        W 2892   8.176  33.193   0.258
37666W        W 2893  25.760  33.007  12.616
37667W        W 2894   4.801   9.602  10.708
37668W        W 2895  15.114  42.271   1.933
37669W        W 2896  39.842  25.216  12.009
37670W        W 2897  16.147   1.453   2.681
37671W        W 2898  43.728  20.586  12.498
37672W        W 2899  12.146   4.927  14.753
37673W        W 2900  40.349  17.993  13.932
37674W        W 2901  12.305  31.602   5.442
37675W        W 2902  20.866   2.310   4.810
37676W        W 2903  28.985  18.153   3.806
37677W        W 2904  31.006  32.011  14.501
37678W        W 2905  15.199   1.906  11.654
37679W        W 2906  44.013  24.455  10.686
37680W        W 2907  10.560  17.320   3.152
37681W        W 2908  17.619  36.502   1.174
37682W        W 2909  22.137   1.212  14.540
37683W        W 2910  23.584  31.295   3.037
37684W        W 2911  13.096  17.009   3.233
37685W        W 2912  17.849  34.222   0.943
37686W        W 2913  42.152  21.472  13.529
37687W        W 2914  42.053  29.017  12.161
37688W        W 2915  24.269  41.135  12.815
37689W        W 2916  22.199  37.451  11.071
37690W        W 2917  22.000  31.524   1.155
37691W        W 2918  25.973   4.335  11.628
37692W        W 2919  23.037  14.579   4.578
37693W        W 2920   0.159  24.972   1.813
37694W        W 2921  35.551  13.108   2.141
37695W        W 2922  10.759  14.479  11.641
37696W        W 2923  41.318  29.680   3.358
37697W        W 2924  13.596  25.904  11.087
37698W        W 2925  21.736   4.113   2.225
37699W        W 2926  34.319  23.019   4.593
37700W        W 2927  19.944  42.020   3.767
37701W        W 2928  39.579  27.062   3.223
37702W        W 2929  36.880  24.842  13.929
37703W        W 2930   4.827  33.514   3.609
37704W        W 2931  34.564  34.825  11.807
37705W        W 2932  26.829   3.201   4.173
37706W        W 2933  38.093  29.574  12.810
37707W        W 2934   1.918  29.245   1.138
37708W        W 2935   2.233  41.921   4.573
37709W        W 2936  31.973   0.775  11.150
37710W        W 2937  29.860  41.340   0.330
37711W        W 2938  37.334  36.921   4.539
37712W        W 2939  18.577   8.304   1.950
37713W        W 2940  40.544  10.392  12.091
37714W        W 2941  41.356  43.046   2.148
37715W        W 2942   6.185  28.414   1.798
37716W        W 2943  13.876   1.184  13.880
37717W        W 2944  38.384   1.717   3.936
37718W        W 2945  25.827  35.275  13.496
37719W        W 2946   3.755  18.691  13.959
37720W        W 2947  41.675   1.475   3.228
37721W        W 2948  14.293  30.537   0.308
37722W        W 2949  37.061  11.244  13.117
37723W        W 2950   9.185  21.758  12.883
37724W        W 2951  27.620  17.481  12.075
37725W        W 2952  19.858  26.197   4.153
37726W        W 2953  15.606  37.897  10.176
37727W        W 2954   7.680  23.460   4.191
37728W        W 2955  19.468  29.635  14.432
37729W        W 2956   4.022  29.534  13.927
37730W        W 2957  23.048  27.899   2.040
37731W        W 2958  15.750  40.036  10.668
37732W        W 2959  32.673   8.730   4.083
37733W        W 2960  24.967  41.722  13.576
37734W        W 2961  14.771  29.120  14.493
37735W        W 2962  30.893   0.364   4.214
37736W        W 2963  23.933  24.767  11.824
37737W        W 2964  35.089  17.019   2.138
37738W        W 2965   3.434  11.333   4.484
37739W        W 2966   1.234   0.948   3.730
37740W        W 2967  30.231   9.212  11.571
37741W        W 2968   4.315  29.015   3.214
37742W        W 2969  27.033  13.366  11.448
37743W        W 2970  34.070   8.738   0.749
37744W        W 2971  15.809  18.102   0.881
37745W        W 2972   7.702   0.914  11.147
37746W        W 2973  11.399   7.901  14.822
37747W        W 2974   7.043  24.978  11.665
37748W        W 2975  35.442   3.761   1.193
37749W        W 2976  11.049  25.801   3.700
37750W        W 2977  25.357  41.383  13.614
37751W        W 2978  22.277  28.514   0.961
37752W        W 2979  33.126  32.888  14.885
37753W        W 2980  18.340   0.519  11.619
37754W        W 2981   8.741  25.289  11.178
37755W        W 2982  25.317   3.744   3.195
37756W        W 2983  39.716  28.756  11.697
37757W        W 2984  11.558   4.664  13.411
37758W        W 2985  40.997  33.308   0.738
37759W        W 2986  17.697  24.864   0.222
37760W        W 2987  41.084  14.717  12.864
37761W        W 2988  36.759  43.879   1.522
37762W        W 2989  26.550  29.431  14.142
37763W        W 2990  24.550  41.992  14.492
37764W        W 2991  29.596  10.448  12.655
37765W        W 2992   6.975   0.900   3.025
37766W        W 2993  37.569  16.046  11.853
37767W        W 2994  25.932  18.751  12.112
37768W        W 2995  26.777  37.824   2.338
37769W        W 2996  41.745  33.606   4.165
37770W        W 2997   1.805   5.830   0.724
37771W        W 2998   9.297   2.841  11.339
37772W        W 2999  44.795  39.706  10.635
37773W        W 3000   2.696  10.896   0.395
37774W        W 3001  38.872  28.496   5.048
37775W        W 3002  16.497   5.688   0.297
37776W        W 3003  35.812  38.023  13.413
37777W        W 3004   9.505  10.720  12.047
37778W        W 3005   6.083  22.503   0.746
37779W        W 3006  20.261  20.216  11.615
37780W        W 3007   5.220   3.497   0.130
37781W        W 3008   8.471  23.955  13.070
37782W        W 3009   2.705  21.277   1.308
37783W        W 3010  10.509  24.431  10.465
37784W        W 3011  13.039  10.601  11.619
37785W        W 3012   3.753  11.719  13.391
37786W        W 3013  39.577  25.534  13.550
37787W        W 3014  29.808  42.990  10.708
37788W        W 3015  38.405  15.532  12.839
37789W        W 3016  19.641  25.703  10.439
37790W        W 3017   2.372  19.030   2.981
37791W        W 3018  32.114  27.080   1.271
37792W        W 3019  20.624   3.599  10.702
37793W        W 3020  44.466  31.684   3.384
37794W        W 3021  22.267   4.949  13.484
37795W        W 3022  11.687   3.937   0.430
37796W        W 3023  38.992  17.105   3.055
37797W        W 3024  23.074  12.164   2.726
37798W        W 3025  43.708  29.454  12.970
37799W        W 3026  36.011   8.754   3.098
37800W        W 3027  43.403  10.649  12.826
37801W        W 3028  12.250  21.516   4.343
37802W        W 3029  27.014  18.704   2.265
37803W        W 3030  17.030  28.865  11.216
37804W        W 3031  11.284  39.286  11.689
37805W        W 3032  43.327  35.541  10.521
37806W        W 3033  19.073   1.809  14.143
37807W        W 3034  15.243  24.891   1.196
37808W        W 3035  40.686  27.480  10.736
37809W        W 3036  31.425   9.129   1.386
37810W        W 3037   7.662  12.813   4.580
37811W        W 3038  40.007  31.864  12.476
37812W        W 3039  25.014   8.732  14.210
37813W        W 3040   2.682  36.771   1.599
37814W        W 3041   6.142  37.592  11.881
37815W        W 3042  23.608  39.961  13.653
37816W        W 3043   2.895   6.822   2.157
37817W        W 3044  20.584  39.482   1.267
37818W        W 3045  16.653  29.858  12.304
37819W        W 3046  42.548  36.471   2.944
37820W        W 3047  14.130  32.703  11.466
37821W        W 3048  41.955  36.125  14.783
37822W        W 3049  18.487  21.214   4.576
37823W        W 3050  34.962   5.654  11.111
37824W        W 3051   0.865  27.036  14.286
37825W        W 3052  42.740   5.298   5.040
37826W        W 3053   4.678   4.917  12.522
37827W        W 3054  33.871  15.060   1.359
37828W        W 3055  11.328   6.457  11.540
37829W        W 3056  17.042   8.242   1.844
37830W        W 3057  42.966  19.557   2.473
37831W        W 3058   1.051  34.889  10.890
37832W        W 3059  29.365  13.856  12.010
37833W        W 3060   9.411  25.740  10.733
37834W        W 3061  12.111  36.300   4.705
37835W        W 3062  12.690  23.951   2.147
37836W        W 3063   1.921   6.411   3.676
37837W        W 3064  11.905   5.397  12.987
37838W        W 3065   5.738  11.346   4.497
37839W        W 3066  21.425  32.583  13.961
37840W        W 3067  29.808  24.966  14.169
37841W        W 3068  22.284  34.963   4.515
37842W        W 3069   7.863  33.994   3.623
37843W        W 3070  28.396  20.862  11.161
37844W        W 3071   7.219  14.956   1.158
37845W        W 3072  43.433   9.855  10.477
37846W        W 3073   4.333  36.101   3.262
37847W        W 3074  17.637  10.598   2.807
37848W        W 3075   3.297  22.153   2.787
37849W        W 3076  14.370  18.287   3.748
37850W        W 3077  29.137  24.221   4.179
37851W        W 3078  32.227   4.586  11.085
37852W        W 3079  24.954  28.568  11.539
37853W        W 3080  12.592  35.479   4.584
37854W        W 3081  12.576  16.215  13.092
37855W        W 3082  26.907  12.715  12.576
37856W        W 3083  35.219  35.149  10.687
37857W        W 3084  32.422  39.356  12.328
37858W        W 3085   2.156  38.797  14.772
37859W        W 3086  19.218  19.617  12.015
37860W        W 3087  11.164  31.496   9.832
37861W        W 3088  14.358  16.501   1.855
37862W        W 3089  37.737  25.059  10.602
37863W        W 3090  40.965  33.517  14.851
37864W        W 3091  32.507  36.826  13.871
37865W        W 3092   9.187  27.673  12.181
37866W        W 3093  21.541  33.584   3.511
37867W        W 3094   6.945  15.759   1.476
37868W        W 3095   6.432   6.789   2.874
37869W        W 3096  37.304  27.437  12.501
37870W        W 3097   8.106  21.265   4.358
37871W        W 3098  39.478  23.621   1.479
37872W        W 3099  35.134  23.608   0.699
37873W        W 3100  12.224  25.942  11.077
37874W        W 3101  16.957  28.157  12.037
37875W        W 3102   9.891  43.030   0.025
37876W        W 3103   2.227  27.168  14.115
37877W        W 3104  39.964  22.129  12.989
37878W        W 3105  37.082  42.052  11.183
37879W        W 3106  42.085  23.673  10.499
37880W        W 3107  11.080  18.279   1.789
37881W        W 3108   5.234  15.844   2.321
37882W        W 3109  18.605  42.350  14.077
37883W        W 3110  39.763  26.723   0.744
37884W        W 3111  13.388  22.955  14.934
37885W        W 3112  28.041  41.462   3.753
37886W        W 3113  38.398  22.328   4.638
37887W        W 3114  34.439   6.207   0.945
37888W        W 3115  40.026  43.476  13.695
37889W        W 3116  29.711   8.836  10.876
37890W        W 3117  17.060  43.896   4.138
37891W        W 3118  14.093  43.115   0.845
37892W        W 3119   7.254  31.397   2.648
37893W        W 3120  35.925  31.463  14.933
37894W        W 3121  32.560  13.166  13.131
37895W        W 3122  36.283  21.527   2.405
37896W        W 3123  23.950  27.572   1.585
37897W        W 3124  40.611  33.157   0.391
37898W        W 3125  38.683   0.699   4.205
37899W        W 3126  43.473  16.749   2.753
37900W        W 3127  42.826  41.873  12.129
37901W        W 3128   1.723  35.786  14.761
37902W        W 3129  36.925  19.018  11.455
37903W        W 3130  14.738  18.257   0.523
37904W        W 3131  32.104  12.325  11.604
37905W        W 3132  30.388  10.817  12.409
37906W        W 3133  22.272  12.188   3.648
37907W        W 3134  19.889  37.089  13.325
37908W        W 3135  11.342  30.946   4.108
37909W        W 3136   2.312  17.851   3.583
37910W        W 3137   6.068  41.029   4.989
37911W        W 3138  18.174  16.733  10.789
37912W        W 3139  42.492  15.124  11.663
37913W        W 3140  30.935  40.928  12.216
37914W        W 3141  26.889  18.736  10.475
37915W        W 3142  34.269  43.971  14.483
37916W        W 3143   5.196  20.777   0.870
37917W        W 3144  21.720  10.711   1.528
37918W        W 3145   7.992  16.795   2.151
37919W        W 3146  43.499  44.979  12.403
37920W        W 3147   9.367  10.090  11.986
37921W        W 3148   0.163  39.329  13.488
37922W        W 3149  20.224  39.792  13.385
37923W        W 3150  38.327  39.302   2.338
37924W        W 3151  35.203  19.832   0.433
37925W        W 3152   1.941  26.802   1.579
37926W        W 3153   4.507  39.662   2.367
37927W        W 3154   0.871  27.834  13.203
37928W        W 3155  30.597   7.664   1.286
37929W        W 3156  16.215  15.661   1.429
37930W        W 3157  24.105  31.343  13.765
37931W        W 3158  15.289  12.735  10.766
37932W        W 3159   3.913  27.955   1.227
37933W        W 3160  31.926  32.900  13.394
37934W        W 3161   6.572   1.925   4.636
37935W        W 3162  16.933   1.844  12.639
37936W        W 3163  12.082   5.947  14.713
37937W        W 3164  25.565  20.031   4.199
37938W        W 3165  22.258  30.000   0.896
37939W        W 3166  22.791  23.535   4.518
37940W        W 3167  32.595  34.699  10.178
37941W        W 3168  36.589  16.617  12.559
37942W        W 3169   1.349  13.318   2.047
37943W        W 3170   2.042   7.702  11.750
37944W        W 3171  35.976   0.478   4.125
37945W        W 3172  27.071  29.401  14.089
37946W        W 3173  35.296  37.036  10.936
37947W        W 3174  13.843  11.392  13.087
37948W        W 3175   1.733  15.577   3.531
37949W        W 3176   7.233  22.517   1.371
37950W        W 3177  13.121  27.097   0.077
37951W        W 3178   3.335  33.806  11.114
37952W        W 3179  31.124  11.416  12.644
37953W        W 3180   1.371   1.595  12.060
37954W        W 3181   5.654  39.832   0.461
37955W        W 3182  18.999   4.863   3.294
37956W        W 3183  24.729  23.941   0.943
37957W        W 3184  29.228  30.395  13.195
37958W        W 3185  28.119  24.163   2.726
37959W        W 3186   8.840  40.423   1.218
37960W        W 3187  30.052  32.921   2.233
37961W        W 3188  26.921  15.145  11.718
37962W        W 3189  13.239  22.267  13.117
37963W        W 3190   1.870  22.192  14.404
37964W        W 3191  43.604  28.605  13.186
37965W        W 3192  39.504  18.183   3.222
37966W        W 3193  43.603  18.140   1.871
37967W        W 3194  32.845  23.451  12.377
37968W        W 3195  21.708  33.637   3.014
37969W        W 3196  29.988  35.632   1.475
37970W        W 3197  30.663   1.484  10.764
37971W        W 3198  20.318   7.241  10.114
37972W        W 3199  29.240   7.039  11.048
37973W        W 3200  40.510  37.636  11.432
37974W        W 3201  37.989  31.703   4.515
37975W        W 3202  24.589   1.465   0.801
37976W        W 3203  34.774   1.208   0.890
37977W        W 3204   3.926   3.535   4.084
37978W        W 3205  32.596   3.728   2.134
37979W        W 3206  44.389  17.661   4.541
37980W        W 3207  12.298   3.538   2.444
37981W        W 3208  39.935  31.174   1.345
37982W        W 3209   0.493  11.255  10.879
37983W        W 3210  35.496   3.585   4.359
37984W        W 3211  25.240  44.904   3.416
37985W        W 3212  12.583   6.773  14.501
37986W        W 3213  39.018   6.401   1.332
37987W        W 3214  16.577   6.144  14.453
37988W        W 3215  42.546   5.875  14.979
37989W        W 3216   1.101   5.703  10.323
37990W        W 3217  34.036  27.658   3.835
37991W        W 3218   7.649  39.469  12.817
37992W        W 3219  28.210   7.512   3.255
37993W        W 3220  13.363  37.091  11.172
37994W        W 3221  32.913   3.737   2.805
37995W        W 3222  10.513  28.196   2.910
37996W        W 3223  30.909  43.895   0.475
37997W        W 3224   1.219  42.434   0.898
37998W        W 3225  17.868  13.810  12.959
37999W        W 3226  29.824  24.992   4.134
38000W        W 3227  19.568  32.953   0.019
38001W        W 3228  37.549  16.553   1.906
38002W        W 3229  28.822  20.662   3.258
38003W        W 3230  30.003  37.642   3.151
38004W        W 3231  36.087   4.477  13.562
38005W        W 3232   6.248  30.301   3.577
38006W        W 3233  43.778  31.861   2.846
38007W        W 3234  23.960  31.952  14.758
38008W        W 3235  23.058  19.824  11.994
38009W        W 3236  22.136  41.373   0.280
38010W        W 3237  26.248  28.952  13.411
38011W        W 3238  11.808  34.680   0.819
38012W        W 3239  28.137   1.250  12.575
38013W        W 3240  10.644  18.776  14.056
38014W        W 3241  34.877   7.355  13.375
38015W        W 3242   2.354  23.281   4.323
38016W        W 3243  27.416   7.599  11.042
38017W        W 3244  26.994   9.563   3.294
38018W        W 3245  16.341  14.129  14.255
38019W        W 3246   4.849  21.302  10.273
38020W        W 3247  10.223  10.340  14.977
38021W        W 3248  40.496  24.042   0.951
38022W        W 3249  25.446  17.063  14.356
38023W        W 3250  36.578  22.294   2.186
38024W        W 3251  14.042  41.345  13.569
38025W        W 3252  21.262  10.583   0.358
38026W        W 3253  37.016  27.759  11.204
38027W        W 3254  11.823  40.348  12.623
38028W        W 3255  30.603  11.493  11.546
38029W        W 3256  18.991  16.741  13.330
38030W        W 3257  21.951  24.720   4.697
38031W        W 3258  19.184  22.566   1.039
38032W        W 3259  18.613  26.192   2.752
38033W        W 3260  40.092  13.839   2.697
38034W        W 3261  16.935  23.098  14.451
38035W        W 3262   1.176  31.319  10.054
38036W        W 3263  39.979  14.497   4.666
38037W        W 3264  16.329  17.013   3.684
38038W        W 3265  26.929   6.923   4.848
38039W        W 3266  42.018  20.996  13.632
38040W        W 3267  35.437  24.012  14.413
38041W        W 3268  40.455  43.394  11.614
38042W        W 3269   3.684  35.389   2.861
38043W        W 3270  11.499  26.034  12.058
38044W        W 3271   7.327   3.336   1.482
38045W        W 3272  36.522  30.442   1.833
38046W        W 3273   1.020  33.373  12.483
38047W        W 3274   8.349  16.853  14.898
38048W        W 3275   9.375  24.925  11.996
38049W        W 3276  34.929   8.370   1.709
38050W        W 3277  24.325   5.119  11.955
38051W        W 3278  42.105   6.035  12.058
38052W        W 3279  10.319  32.278   3.077
38053W        W 3280  13.540   8.715  10.467
38054W        W 3281  22.463   4.607  10.845
38055W        W 3282   8.339  40.581   1.290
38056W        W 3283  11.354  13.227  11.655
38057W        W 3284  32.692  34.502   9.614
38058W        W 3285  41.941  43.466  11.584
38059W        W 3286  37.534  25.303  12.493
38060W        W 3287  44.221  35.537   1.279
38061W        W 3288  20.429  26.485   0.444
38062W        W 3289  35.019  39.053   0.819
38063W        W 3290   7.800  24.141  14.634
38064W        W 3291  27.163  31.163   0.773
38065W        W 3292   6.252  34.988   4.126
38066W        W 3293  44.827  14.080  10.456
38067W        W 3294  32.878  43.073   4.724
38068W        W 3295  11.350   2.476   0.864
38069W        W 3296  25.005  44.225   4.105
38070W        W 3297  40.998  38.552  12.450
38071W        W 3298  35.887  33.938  12.563
38072W        W 3299   6.164  33.957  12.495
38073W        W 3300  21.095   5.196  14.293
38074W        W 3301  38.232  32.321  12.114
38075W        W 3302   3.949  32.519  11.472
38076W        W 3303  24.301  14.613   4.061
38077W        W 3304  42.745  26.533  13.025
38078W        W 3305   1.443   7.067  13.815
38079W        W 3306  30.015  43.213   4.850
38080W        W 3307  22.494  38.837  11.576
38081W        W 3308  13.197  34.997   3.657
38082W        W 3309  44.451  33.076  14.979
38083W        W 3310  13.871  10.373  11.951
38084W        W 3311   1.155   8.944  13.327
38085W        W 3312  39.577  40.646   2.108
38086W        W 3313  44.035  14.654   4.367
38087W        W 3314  38.230   9.762  12.932
38088W        W 3315  26.088   9.178   3.569
38089W        W 3316  29.146  40.244  10.599
38090W        W 3317  19.860  12.781  11.537
38091W        W 3318  26.471  29.200  12.970
38092W        W 3319  14.516   9.343  13.299
38093W        W 3320   8.222   3.322  10.608
38094W        W 3321  13.608  31.699   2.135
38095W        W 3322  15.080  43.896   2.751
38096W        W 3323  32.339   8.594  14.612
38097W        W 3324   9.772   3.991   1.299
38098W        W 3325  26.014  33.442  14.114
38099W        W 3326  11.675   2.329   3.736
38100W        W 3327  17.544  33.867  10.220
38101W        W 3328  36.819  23.059  11.943
38102W        W 3329  15.304  31.178   4.318
38103W        W 3330  38.354  23.011  11.637
38104W        W 3331  44.631  36.064   3.713
38105W        W 3332  44.616  30.286   2.798
38106W        W 3333  25.853  30.506  13.672
38107W        W 3334   2.733  34.302   1.413
38108W        W 3335  20.529  13.346   5.036
38109W        W 3336  15.231  11.150  12.519
38110W        W 3337  25.081   4.485   2.159
38111W        W 3338  43.268  31.863   3.629
38112W        W 3339  41.255  32.541   0.877
38113W        W 3340   1.358  12.904  11.926
38114W        W 3341  41.809  36.094   3.090
38115W        W 3342  23.528  26.586  13.937
38116W        W 3343  36.550  26.434   4.884
38117W        W 3344  26.974  42.487  13.629
38118W        W 3345  21.508  32.212   3.964
38119W        W 3346   9.610  43.789   0.388
38120W        W 3347  37.005  17.236   0.797
38121W        W 3348  19.151   5.653  11.436
38122W        W 3349  20.717  29.864   0.685
38123W        W 3350  17.148   7.612  11.081
38124W        W 3351  26.705  27.592   0.044
38125W        W 3352  44.207   1.618  14.702
38126W        W 3353  20.773  38.945   4.954
38127W        W 3354  38.385  41.273  12.611
38128W        W 3355  14.904  25.710   1.849
38129W        W 3356  44.086  41.996   2.264
38130W        W 3357  20.109  25.052   2.703
38131W        W 3358   1.022  16.643  11.700
38132W        W 3359   3.829  37.132  14.618
38133W        W 3360  21.071  13.182  14.796
38134W        W 3361  13.493   9.198  10.632
38135W        W 3362  20.969  18.672  13.689
38136W        W 3363  26.581  41.570  14.402
38137W        W 3364  27.896  27.690   4.164
38138W        W 3365  35.764  40.333   0.773
38139W        W 3366  31.397  23.037   3.145
38140W        W 3367   9.011  32.998  11.004
38141W        W 3368  20.689  20.779  13.450
38142W        W 3369  10.874  38.498  11.696
38143W        W 3370  17.740  35.558   3.866
38144W        W 3371   4.814  32.879  10.190
38145W        W 3372  14.606  33.134   0.331
38146W        W 3373  37.432  30.110  11.294
38147W        W 3374   9.519  19.326  11.976
38148W        W 3375  10.181  32.081   1.408
38149W        W 3376  43.402  36.109  13.873
38150W        W 3377  22.486  13.854  12.820
38151W        W 3378  32.512  16.729  14.422
38152W        W 3379  31.461   3.947   2.664
38153W        W 3380  16.741  21.844  13.364
38154W        W 3381   0.612  38.353  13.969
38155W        W 3382  38.848  43.538   1.876
38156W        W 3383  39.860  27.530   3.176
38157W        W 3384  40.248  40.997   3.663
38158W        W 3385  11.145  24.299   2.222
38159W        W 3386  23.120  29.543   0.007
38160W        W 3387  32.988  29.911  14.316
38161W        W 3388  11.768   8.175  13.453
38162W        W 3389  25.157  30.354  10.775
38163W        W 3390  39.755  31.660  11.025
38164W        W 3391   9.274   1.365  10.765
38165W        W 3392  40.606  30.129   4.465
38166W        W 3393  13.865  34.536  10.588
38167W        W 3394  30.041  34.969  14.481
38168W        W 3395  36.798  14.165   2.840
38169W        W 3396  20.016   2.741   0.920
38170W        W 3397  18.899  21.518   0.339
38171W        W 3398   9.424  30.062   3.071
38172W        W 3399   8.432  44.860  10.864
38173W        W 3400  22.697  27.328  12.880
38174W        W 3401  15.410  27.784  11.952
38175W        W 3402  14.691   1.976   5.116
38176W        W 3403  17.128   1.646   1.291
38177W        W 3404  32.865  35.495   2.242
38178W        W 3405  18.021  16.188   4.138
38179W        W 3406  44.948  26.196   0.389
38180W        W 3407   0.971  44.788   2.412
38181W        W 3408  32.080  29.420   5.555
38182W        W 3409  11.309  15.173  12.484
38183W        W 3410  23.232   6.227   1.309
38184W        W 3411  39.508  14.732   4.669
38185W        W 3412  41.987   8.496   3.693
38186W        W 3413   1.739  32.955  13.735
38187W        W 3414  13.808  12.303   3.819
38188W        W 3415  33.900   2.640  13.322
38189W        W 3416  15.544  28.533   2.615
38190W        W 3417  44.310  19.814  14.229
38191W        W 3418  17.603  26.544  13.597
38192W        W 3419   1.371  41.117   2.381
38193W        W 3420   5.831   8.909   1.222
38194W        W 3421  13.080  43.957   1.451
38195W        W 3422  42.316   9.171   0.414
38196W        W 3423  22.989  21.176   4.316
38197W        W 3424  21.246   6.883   4.496
38198W        W 3425   2.840   4.502   0.727
38199W        W 3426  14.803  32.981  14.885
38200W        W 3427  35.337  13.661  12.087
38201W        W 3428  25.285   2.305   1.587
38202W        W 3429  23.752  36.466  11.233
38203W        W 3430  17.164  43.537  13.344
38204W        W 3431  44.087  23.611   0.251
38205W        W 3432  36.629   8.854  11.506
38206W        W 3433  11.753  26.716   0.278
38207W        W 3434  16.212  16.905  11.283
38208W        W 3435  25.918  37.043  10.789
38209W        W 3436  39.095  38.798   3.639
38210W        W 3437  31.397   6.516   3.687
38211W        W 3438  12.334  20.689  10.380
38212W        W 3439  40.127  26.451   1.165
38213W        W 3440   8.643  18.008  14.460
38214W        W 3441  23.475  27.461   4.901
38215W        W 3442  34.063  15.517  13.390
38216W        W 3443  43.489  23.483  14.435
38217W        W 3444  12.217  23.120  14.811
38218W        W 3445  29.901  29.758  14.997
38219W        W 3446   3.059   4.394  14.814
38220W        W 3447   5.335   9.820  11.463
38221W        W 3448   6.943  38.024  14.886
38222W        W 3449  18.895  19.605   4.070
38223W        W 3450  22.093  10.586   0.750
38224W        W 3451  15.225  32.323   0.444
38225W        W 3452  28.737  33.459   1.699
38226W        W 3453  24.765  33.048   4.510
38227W        W 3454  16.829  18.237  12.097
38228W        W 3455  35.197  42.302   0.939
38229W        W 3456  13.681  18.809  13.536
38230W        W 3457  20.137  16.391   4.603
38231W        W 3458  37.036   2.835  11.683
38232W        W 3459   3.466   3.724   5.157
38233W        W 3460  16.367  24.061  12.448
38234W        W 3461  29.421  42.574  14.099
38235W        W 3462  30.434  16.689  10.671
38236W        W 3463  35.868  18.294   1.810
38237W        W 3464   6.414   4.849  14.643
38238W        W 3465  37.322   2.695   1.763
38239W        W 3466   0.042  13.887   1.350
38240W        W 3467   0.225  29.631  13.041
38241W        W 3468  10.869  25.400  13.910
38242W        W 3469   1.860   3.937  12.118
38243W        W 3470  31.528  44.133  11.168
38244W        W 3471  24.917  29.028   2.362
38245W        W 3472  27.693  11.266  11.013
38246W        W 3473  25.037  33.774   1.201
38247W        W 3474  34.273  10.498  14.424
38248W        W 3475  19.374  40.197  12.597
38249W        W 3476   4.656  30.425  11.992
38250W        W 3477  27.780  13.880   4.870
38251W        W 3478  20.187   3.838  12.552
38252W        W 3479  43.073  41.297   4.073
38253W        W 3480  24.187  33.938  11.563
38254W        W 3481  24.492  23.969  12.542
38255W        W 3482   8.894  35.064  10.110
38256W        W 3483   5.146  37.741  14.880
38257W        W 3484  38.433   2.107   2.363
38258W        W 3485  33.825  41.489  13.028
38259W        W 3486  26.281  44.004   4.260
38260W        W 3487   7.234   4.436  14.718
38261W        W 3488   2.422  42.565   2.755
38262W        W 3489  37.532  40.374   2.421
38263W        W 3490  37.664  37.379   1.948
38264W        W 3491   3.243  15.505  13.206
38265W        W 3492  37.237   7.772  10.779
38266W        W 3493  25.468   9.134   2.712
38267W        W 3494  43.449  17.850  10.887
38268W        W 3495   5.443  28.221  13.401
38269W        W 3496  23.691  38.423   3.401
38270W        W 3497  34.188   5.098   2.347
38271W        W 3498   1.829  33.009  14.739
38272W        W 3499  15.811  16.925  11.998
38273W        W 3500  13.941   9.636  14.414
38274W        W 3501  14.789   5.573  12.529
38275W        W 3502  13.050  12.250   4.546
38276W        W 3503  37.328  25.523  11.023
38277W        W 3504  39.438  26.793  12.626
38278W        W 3505   4.825  40.347   4.783
38279W        W 3506  36.494  10.035  10.781
38280W        W 3507  21.690  35.414  14.691
38281W        W 3508  15.074  23.120   2.669
38282W        W 3509  11.535  25.512  13.331
38283W        W 3510  21.282  19.341  11.245
38284W        W 3511   9.688  11.707  12.430
38285W        W 3512  15.603  35.001   2.845
38286W        W 3513   5.085  22.347  12.906
38287W        W 3514  36.755  29.139   1.685
38288W        W 3515  29.057  21.757   4.426
38289W        W 3516  40.915  12.061   3.287
38290W        W 3517  19.738  16.728   1.430
38291W        W 3518  12.370  42.780  12.060
38292W        W 3519  42.318  39.937  13.600
38293W        W 3520  17.580  13.777  13.421
38294W        W 3521  33.385  39.048  12.618
38295W        W 3522   3.601  31.599  11.201
38296W        W 3523  44.075  39.872  14.540
38297W        W 3524  20.162   0.213   5.455
38298W        W 3525  34.096   9.350   1.501
38299W        W 3526  33.937  37.057   2.650
38300W        W 3527  36.080  18.657  11.086
38301W        W 3528   0.855  25.174  10.339
38302W        W 3529  14.439   2.585  12.926
38303W        W 3530  20.840  41.500  13.545
38304W        W 3531  13.612   0.141   2.820
38305W        W 3532  19.767  26.338  13.896
38306W        W 3533  11.872  18.901  14.380
38307W        W 3534  30.916  27.805  10.776
38308W        W 3535  19.008  11.169   0.357
38309W        W 3536  34.148  38.822  13.022
38310W        W 3537  27.428  30.917   1.369
38311W        W 3538   9.898  19.117  12.909
38312W        W 3539  38.366  20.077  13.921
38313W        W 3540  23.639  14.076   1.277
38314W        W 3541  38.316  38.452   3.255
38315W        W 3542  35.074   4.386   3.597
38316W        W 3543  20.204  25.065   1.700
38317W        W 3544  26.131  27.880  12.906
38318W        W 3545  17.202  31.391  12.181
38319W        W 3546  14.566  13.178  12.334
38320W        W 3547  44.293  39.791  11.492
38321W        W 3548  16.103  12.451   1.356
38322W        W 3549  38.817  29.836  10.880
38323W        W 3550  14.068  31.012  12.000
38324W        W 3551  26.699  35.389  11.201
38325W        W 3552  35.256  34.140   3.872
38326W        W 3553   8.149  31.414   3.422
38327W        W 3554  31.950  20.272  12.084
38328W        W 3555  38.440  35.984   1.380
38329W        W 3556  36.384  36.631   3.384
38330W        W 3557  26.418  34.337   1.261
38331W        W 3558   6.437   7.848  12.385
38332W        W 3559  39.140  39.447  12.586
38333W        W 3560  16.611  33.924   2.585
38334W        W 3561  41.105  23.039  12.172
38335W        W 3562  25.507  43.908  13.423
38336W        W 3563  34.148   2.455  12.896
38337W        W 3564  30.799  36.793  14.891
38338W        W 3565  39.943  16.666   4.579
38339W        W 3566  44.871  37.825   0.977
38340W        W 3567  39.789   7.939   1.108
38341W        W 3568  28.125  31.620  12.882
38342W        W 3569  12.012  26.739   3.471
38343W        W 3570  28.809  12.663   5.398
38344W        W 3571   6.024  13.748   4.661
38345W        W 3572  41.030  38.818   3.094
38346W        W 3573  22.291  42.628   2.597
38347W        W 3574  24.454  17.558  11.634
38348W        W 3575   8.661  20.513   2.548
38349W        W 3576   1.364  37.887   3.129
38350W        W 3577  12.600  26.044  13.856
38351W        W 3578  40.807  11.579  12.503
38352W        W 3579  36.816  27.082  14.620
38353W        W 3580  39.032  41.074  10.788
38354W        W 3581  11.876  31.378   2.760
38355W        W 3582  28.139   7.602   2.351
38356W        W 3583  41.096  39.430  14.908
38357W        W 3584  29.046  37.472  11.264
38358W        W 3585  18.611  18.424   4.511
38359W        W 3586   8.821  22.986   1.755
38360W        W 3587  36.343  44.447  14.871
38361W        W 3588  23.094  25.418  14.502
38362W        W 3589  23.012  44.119   2.961
38363W        W 3590  13.298  17.515  14.355
38364W        W 3591  42.024   1.750   1.658
38365W        W 3592  28.295  43.651   0.730
38366W        W 3593   3.405  40.130   1.931
38367W        W 3594  27.232  35.347   2.640
38368W        W 3595  40.046  33.528  10.609
38369W        W 3596  36.709  24.647  14.906
38370W        W 3597  20.536  25.524   2.735
38371W        W 3598   4.849   6.749   4.694
38372W        W 3599  30.518   5.677  13.956
38373W        W 3600   3.360  24.643  14.430
38374W        W 3601   1.367   8.422   1.225
38375W        W 3602  37.430  39.711  12.553
38376W        W 3603   0.922  18.586   4.074
38377W        W 3604  15.191  40.936  11.546
38378W        W 3605  28.545  40.317  12.663
38379W        W 3606  26.726  37.895  12.058
38380W        W 3607  28.635  19.227   2.770
38381W        W 3608  43.903  29.252  13.936
38382W        W 3609  11.911  36.866   3.668
38383W        W 3610  22.759  42.883  12.120
38384W        W 3611  11.820  19.989   4.879
38385W        W 3612  18.242  43.528  14.510
38386W        W 3613  23.566   3.329  12.678
38387W        W 3614  43.835  16.552   4.100
38388W        W 3615  43.366  37.624   2.327
38389W        W 3616  17.624  44.924   0.187
38390W        W 3617  36.058  43.401  10.742
38391W        W 3618  19.040   2.466  12.558
38392W        W 3619  13.528  36.804  11.586
38393W        W 3620  28.663   3.183  11.462
38394W        W 3621  21.802  32.881  14.273
38395W        W 3622  35.971  35.531   0.036
38396W        W 3623  41.041  12.353  11.574
38397W        W 3624  21.697   8.743   3.730
38398W        W 3625  10.285  12.682  13.315
38399W        W 3626  14.373  35.104  11.609
38400W        W 3627  27.961  16.544   3.718
38401W        W 3628  14.505  37.082  13.477
38402W        W 3629   0.305  23.803  11.122
38403W        W 3630  26.430  32.811   5.140
38404W        W 3631  22.425  44.903   0.596
38405W        W 3632   3.687  37.748  14.941
38406W        W 3633   6.340  44.565   3.252
38407W        W 3634  17.310  24.876   1.860
38408W        W 3635  28.931  34.077   4.723
38409W        W 3636  16.958  23.766   4.173
38410W        W 3637  37.204   6.145   9.881
38411W        W 3638  37.825  18.636   0.432
38412W        W 3639   9.263  24.482   0.324
38413W        W 3640  27.138  11.865  13.037
38414W        W 3641  17.571  40.915  13.961
38415W        W 3642   2.229  35.595  14.835
38416W        W 3643  10.636  44.847   4.014
38417W        W 3644   6.205   1.995  10.598
38418W        W 3645  33.610  11.680   2.180
38419W        W 3646  38.980  12.814   3.202
38420W        W 3647  10.065  24.616   3.699
38421W        W 3648  30.502   1.684  12.892
38422W        W 3649  11.643  30.182  14.859
38423W        W 3650  35.605   6.760  12.901
38424W        W 3651  25.096  35.744  12.127
38425W        W 3652  36.011  31.628   4.538
38426W        W 3653   9.946  38.650  11.153
38427W        W 3654  12.700   5.679   3.705
38428W        W 3655  39.922  18.583  11.582
38429W        W 3656  11.350   4.348  14.744
38430W        W 3657   4.782  28.649  13.048
38431W        W 3658  43.919   3.287  12.544
38432W        W 3659   6.853  35.981   0.058
38433W        W 3660  40.531   1.445  10.751
38434W        W 3661  29.981   9.947  13.489
38435W        W 3662  31.539  14.726   1.464
38436W        W 3663  35.298  42.141   1.424
38437W        W 3664  38.049  43.887  14.900
38438W        W 3665   0.222  24.771   1.312
38439W        W 3666  38.370   8.295   0.318
38440W        W 3667   8.779  43.176   5.059
38441W        W 3668  28.674   0.532  11.022
38442W        W 3669  12.557  44.944  13.930
38443W        W 3670  38.686  15.828   3.379
38444W        W 3671  25.549  12.819  14.459
38445W        W 3672   3.821  39.921  14.957
38446W        W 3673  33.881  25.583  13.957
38447W        W 3674  44.410  20.289   3.811
38448W        W 3675  23.847   9.158   3.629
38449W        W 3676  11.471  42.014  13.926
38450W        W 3677  12.791  17.584  14.807
38451W        W 3678  14.059  32.899  14.452
38452W        W 3679  17.476  31.036  13.018
38453W        W 3680  32.990  11.430  12.934
38454W        W 3681  17.051  32.247   5.002
38455W        W 3682   6.521  44.985  14.329
38456W        W 3683  30.059  25.279   4.486
38457W        W 3684  15.349   7.811   2.991
38458W        W 3685   2.667  36.554  13.987
38459W        W 3686  31.416  34.434  14.895
38460W        W 3687   4.161  21.045   2.785
38461W        W 3688  37.326  27.566   3.422
38462W        W 3689  24.107  38.310  11.925
38463W        W 3690  34.980  13.620   1.642
38464W        W 3691   7.887   1.742   0.396
38465W        W 3692   8.326  32.633   9.780
38466W        W 3693   2.186  42.953   3.701
38467W        W 3694  43.927  38.341  13.438
38468W        W 3695   3.343  40.079  11.025
38469W        W 3696  16.245   0.575   0.953
38470W        W 3697  19.735  11.359   4.441
38471W        W 3698   5.978  33.247   4.060
38472W        W 3699   7.948  20.644   4.746
38473W        W 3700  17.074   4.789   3.099
38474W        W 3701  40.468  35.500   0.385
38475W        W 3702  30.061  29.841  12.134
38476W        W 3703  31.480  22.106   0.490
38477W        W 3704   9.868  35.611  14.562
38478W        W 3705  17.765  44.709  12.502
38479W        W 3706  21.685  11.237   4.300
38480W        W 3707  42.095  23.966   0.152
38481W        W 3708  19.971  20.286  14.752
38482W        W 3709  15.584  15.843   0.879
38483W        W 3710   8.738  20.790   3.564
38484W        W 3711   8.237  38.401   3.147
38485W        W 3712  18.743   3.437   3.317
38486W        W 3713  41.765   9.817   4.233
38487W        W 3714  36.517  19.313   3.267
38488W        W 3715  26.674  37.558  10.612
38489W        W 3716  13.631  24.889   2.401
38490W        W 3717  10.152  33.172  13.631
38491W        W 3718  24.569   4.247   0.328
38492W        W 3719  40.270  29.041  12.983
38493W        W 3720  35.442   1.947  13.852
38494W        W 3721  16.330  36.580  14.485
38495W        W 3722  19.201  37.849   1.149
38496W        W 3723  14.748  30.570   4.491
38497W        W 3724   7.438  19.565  14.208
38498W        W 3725  44.763  26.172   2.701
38499W        W 3726   8.806  23.128  14.109
38500W        W 3727  41.041  11.725  12.954
38501W        W 3728  37.429  22.609   0.919
38502W        W 3729  17.675   5.697  12.319
38503W        W 3730  19.554   3.657   4.279
38504W        W 3731  26.611  33.723  14.791
38505W        W 3732  16.758   0.287  10.804
38506W        W 3733  28.448  34.933  11.257
38507W        W 3734  26.133   4.461  13.117
38508W        W 3735  18.513  22.983   1.442
38509W        W 3736  28.064  22.021   1.559
38510W        W 3737  37.840  33.598  12.697
38511W        W 3738  22.093  21.556  12.045
38512W        W 3739  35.821  26.975   0.006
38513W        W 3740   9.208  27.360  13.084
38514W        W 3741  15.479  39.581  14.957
38515W        W 3742  29.298   2.089   2.600
38516W        W 3743  26.748   0.152   2.254
38517W        W 3744   2.919  37.532  13.891
38518W        W 3745  42.541  42.279   1.780
38519W        W 3746  27.706  24.525  13.358
38520W        W 3747   9.668  33.051   9.622
38521W        W 3748  14.248  34.003   0.286
38522W        W 3749  33.403   6.250  13.309
38523W        W 3750  22.227   9.107  12.562
38524W        W 3751  28.117  30.187  10.269
38525W        W 3752  30.263  22.163   1.274
38526W        W 3753  24.415  15.587   3.782
38527W        W 3754  26.013  28.493   3.981
38528W        W 3755  27.211  41.612   4.380
38529W        W 3756   0.226   0.550  11.300
38530W        W 3757   5.328  27.775   2.941
38531W        W 3758   3.534  35.232   4.207
38532W        W 3759  26.060  36.934   1.693
38533W        W 3760  32.061  41.952   2.111
38534W        W 3761  20.818  17.726   0.033
38535W        W 3762  42.314  42.935   1.624
38536W        W 3763  34.227  10.937  12.036
38537W        W 3764   4.736  38.754   0.028
38538W        W 3765  19.547  26.042   1.041
38539W        W 3766  31.120   6.386   0.039
38540W        W 3767  32.399   8.918  13.079
38541W        W 3768   8.567  17.673   3.768
38542W        W 3769  39.331  30.152   1.717
38543W        W 3770   8.630  29.515   1.804
38544W        W 3771   1.395  25.695   3.361
38545W        W 3772  25.978  14.657  13.322
38546W        W 3773  28.679  24.609   2.375
38547W        W 3774  18.592  25.239  12.332
38548W        W 3775  19.032  39.042  14.753
38549W        W 3776  18.294  23.789   2.633
38550W        W 3777  39.981  36.493   2.354
38551W        W 3778  29.963  30.014  12.999
38552W        W 3779  31.871  37.126  13.114
38553W        W 3780  31.550   4.436   0.225
38554W        W 3781   1.687  17.087   0.726
38555W        W 3782  17.318  33.532  14.509
38556W        W 3783  11.498   5.237  14.234
38557W        W 3784   8.281  41.800   3.188
38558W        W 3785   4.549  33.424   1.467
38559W        W 3786  37.366   7.634   3.431
38560W        W 3787  38.252  18.910   3.675
38561W        W 3788  42.433  35.617   3.228
38562W        W 3789   5.747  10.925  12.182
38563W        W 3790  21.298  28.644   0.903
38564W        W 3791  18.643  22.641  12.478
38565W        W 3792  23.106  43.792   4.103
38566W        W 3793  33.525  11.602  14.006
38567W        W 3794  41.795  15.567  14.546
38568W        W 3795  13.584  44.396   0.893
38569W        W 3796  39.301  14.656  10.502
38570W        W 3797  10.710  37.283  13.982
38571W        W 3798  37.180  21.133   0.205
38572W        W 3799  10.768   0.083  13.431
38573W        W 3800  25.186  24.920   0.368
38574W        W 3801  14.242  38.871  13.396
38575W        W 3802  20.094  35.684   4.771
38576W        W 3803  36.923  21.633  10.773
38577W        W 3804  40.106  12.825  13.246
38578W        W 3805  24.680  24.472  14.531
38579W        W 3806   7.724  12.302   4.568
38580W        W 3807  13.363  29.241  14.481
38581W        W 3808  21.356  38.806   4.992
38582W        W 3809   9.073  27.678  10.280
38583W        W 3810  32.256   9.670   4.322
38584W        W 3811  43.907  10.017  12.080
38585W        W 3812   8.182  38.107  11.529
38586W        W 3813  35.523   6.303  11.599
38587W        W 3814  12.667  18.247   2.923
38588W        W 3815  34.173  37.615   3.518
38589W        W 3816  34.522   0.994  14.401
38590W        W 3817  43.838  22.040   2.402
38591W        W 3818  27.090  13.846  10.597
38592W        W 3819  11.728  14.855   1.866
38593W        W 3820  36.458  13.991   4.934
38594W        W 3821  36.077  40.285  14.843
38595W        W 3822   6.166  44.245  10.622
38596W        W 3823   4.191  18.281   4.217
38597W        W 3824  26.901  38.692   4.096
38598W        W 3825   6.742   3.179  14.665
38599W        W 3826  16.366  32.618   2.174
38600W        W 3827  11.686   2.439  12.805
38601W        W 3828  19.644  19.014   3.260
38602W        W 3829  23.523  20.585  14.376
38603W        W 3830  14.610  44.279   2.171
38604W        W 3831  21.103  31.098   5.301
38605W        W 3832  14.247  20.665   3.102
38606W        W 3833   7.848  34.146  13.861
38607W        W 3834  10.838  26.174   4.021
38608W        W 3835  27.470  35.152   4.595
38609W        W 3836   6.623  16.088  11.655
38610W        W 3837   5.225  35.780   3.620
38611W        W 3838  17.113  22.198   0.513
38612W        W 3839  40.973  14.620  11.116
38613W        W 3840   3.275  25.681   2.254
38614W        W 3841  10.345  10.992   4.591
38615W        W 3842   8.240  42.917  13.978
38616W        W 3843  11.283  31.227  12.442
38617W        W 3844   8.843  26.267  13.854
38618W        W 3845  36.795  26.088   2.101
38619W        W 3846  26.481  21.058   4.186
38620W        W 3847  36.653  39.520  11.077
38621W        W 3848  15.558  44.026  14.464
38622W        W 3849   9.209  33.291   0.430
38623W        W 3850  25.010  22.519   0.956
38624W        W 3851  21.779   4.237   1.591
38625W        W 3852  13.918  12.708  13.809
38626W        W 3853  39.368   1.908   3.337
38627W        W 3854   8.924  12.380   4.127
38628W        W 3855  44.743  13.080   0.787
38629W        W 3856   7.814  26.730   1.343
38630W        W 3857   6.713  39.142   2.912
38631W        W 3858  11.338  28.384  13.444
38632W        W 3859   6.270  10.372   0.241
38633W        W 3860   0.860   6.365  13.973
38634W        W 3861  11.812  19.138  11.686
38635W        W 3862  20.250   2.344   0.201
38636W        W 3863   9.613  16.011   2.543
38637W        W 3864  34.429  40.927   4.724
38638W        W 3865  29.398  41.476   1.101
38639W        W 3866  41.103  41.571   0.618
38640W        W 3867  24.341   3.205  10.252
38641W        W 3868   2.328  35.937   3.971
38642W        W 3869   0.048  19.096   2.386
38643W        W 3870   1.217  37.032  14.253
38644W        W 3871  25.646  19.701  10.835
38645W        W 3872  14.295  10.266  10.900
38646W        W 3873  30.459  38.579   3.486
38647W        W 3874  40.538  11.943  12.978
38648W        W 3875  18.806   1.785   2.456
38649W        W 3876   1.496   4.684  12.954
38650W        W 3877  33.179  34.416   3.707
38651W        W 3878  18.479   1.151  10.394
38652W        W 3879  43.038  30.857   1.175
38653W        W 3880  19.231  13.984   4.091
38654W        W 3881  17.375  12.807   1.183
38655W        W 3882  38.747  18.804   3.680
38656W        W 3883  29.992   7.832  11.114
38657W        W 3884  30.887  11.833  12.463
38658W        W 3885  14.769   3.314   3.519
38659W        W 3886  19.759  31.577  12.511
38660W        W 3887   2.998  28.485  13.056
38661W        W 3888  19.825  36.130   4.591
38662W        W 3889  14.136  42.727   2.235
38663W        W 3890  27.636   2.256   3.644
38664W        W 3891  40.990   2.645   3.807
38665W        W 3892  22.439   5.719   1.304
38666W        W 3893  34.292   0.453   0.283
38667W        W 3894  41.952   4.910  13.205
38668W        W 3895  29.425   6.132  11.104
38669W        W 3896  21.970  21.775   1.367
38670W        W 3897   9.415  14.488  13.099
38671W        W 3898   1.299  24.024   3.253
38672W        W 3899  42.359   5.719   3.320
38673W        W 3900  14.437   0.293   1.216
38674W        W 3901  30.359  32.689  14.064
38675W        W 3902  40.002  37.964  13.448
38676W        W 3903  32.199  44.071   0.049
38677W        W 3904  13.773  32.279   2.311
38678W        W 3905   5.457   0.862   1.838
38679W        W 3906  12.260  38.426   1.874
38680W        W 3907   9.573  17.727  11.947
38681W        W 3908  29.178  12.600   0.353
38682W        W 3909   5.840  15.255   0.368
38683W        W 3910  17.760  21.821   1.350
38684W        W 3911  28.443   9.152  14.603
38685W        W 3912  16.435  32.938   4.435
38686W        W 3913  39.216  15.351  11.034
38687W        W 3914   3.885  20.832  14.715
38688W        W 3915  15.972  18.403  13.393
38689W        W 3916   0.364   3.621   0.425
38690W        W 3917  24.387  17.857  10.757
38691W        W 3918  17.342  23.487   9.974
38692W        W 3919  12.753  15.568   4.697
38693W        W 3920  39.583   6.592  11.100
38694W        W 3921  36.344  25.733   4.171
38695W        W 3922   6.529  29.006   3.641
38696W        W 3923  18.243  24.581   1.449
38697W        W 3924   1.221  31.176  14.906
38698W        W 3925   2.700  22.995  12.846
38699W        W 3926   2.885   9.882   0.500
38700W        W 3927  43.432  34.695   3.102
38701W        W 3928  22.706  24.919   0.366
38702W        W 3929  42.347   7.488   0.778
38703W        W 3930  17.103  11.240   4.566
38704W        W 3931  18.589  20.299   2.443
38705W        W 3932  28.028  37.936   2.257
38706W        W 3933   8.193  36.068  13.574
38707W        W 3934  16.812  22.776  13.079
38708W        W 3935  15.047  14.111   5.027
38709W        W 3936   0.753  40.294   1.769
38710W        W 3937  15.909  24.188   1.292
38711W        W 3938  18.134  30.696  11.556
38712W        W 3939   5.629  32.027   3.176
38713W        W 3940  11.825  30.305   5.182
38714W        W 3941  26.054  11.393  12.934
38715W        W 3942  24.532  14.772   3.614
38716W        W 3943   2.633  23.870   5.384
38717W        W 3944   5.322  22.642   2.626
38718W        W 3945   2.702  27.569   0.764
38719W        W 3946   9.356   3.954  12.646
38720W        W 3947  18.627   9.652   1.720
38721W        W 3948  41.366  44.373  12.088
38722W        W 3949  11.951  12.719  13.843
38723W        W 3950  42.949  35.633   1.907
38724W        W 3951   9.375  27.055   3.442
38725W        W 3952  37.979   8.254   3.135
38726W        W 3953  39.484  12.308  10.670
38727W        W 3954  39.987  27.040  12.507
38728W        W 3955  11.336   7.461   3.056
38729W        W 3956  27.096  19.764   3.218
38730W        W 3957  32.195  38.070   4.595
38731W        W 3958  26.156  11.661   3.096
38732W        W 3959  14.591  37.130   4.156
38733W        W 3960  23.572  13.828   3.571
38734W        W 3961  22.552  33.293  13.807
38735W        W 3962  11.425  14.208   2.616
38736W        W 3963  26.138   0.079  13.893
38737W        W 3964  39.570  18.796  11.920
38738W        W 3965  19.040   3.437   1.095
38739W        W 3966  38.847   5.228  13.432
38740W        W 3967  25.050  29.159   0.299
38741W        W 3968  37.642  13.692  13.500
38742W        W 3969   3.198  41.550  13.142
38743W        W 3970   4.821  41.374   3.257
38744W        W 3971   6.245  25.444   0.466
38745W        W 3972  13.526   3.925   3.113
38746W        W 3973   7.591  42.920   0.251
38747W        W 3974  29.524  27.661   2.637
38748W        W 3975  40.697  15.647   4.929
38749W        W 3976  37.987  42.243   2.381
38750W        W 3977  35.319   8.268   4.753
38751W        W 3978  15.092  19.822   3.999
38752W        W 3979  27.006  36.596  12.443
38753W        W 3980  36.379  43.754  12.979
38754W        W 3981  28.599  22.024   2.189
38755W        W 3982   4.263   4.980   0.707
38756W        W 3983   1.135  39.113  11.609
38757W        W 3984  11.433  39.895   1.736
38758W        W 3985   2.589   8.443   0.991
38759W        W 3986  21.241   5.467  13.829
38760W        W 3987  31.443  39.330  14.402
38761W        W 3988  32.425  42.027   3.758
38762W        W 3989  28.960  44.014  14.010
38763W        W 3990  23.470  35.035  13.520
38764W        W 3991   4.831  17.027   3.998
38765W        W 3992  30.035  21.255  10.739
38766W        W 3993  19.695   7.369   4.512
38767W        W 3994  31.217  36.347   3.416
38768W        W 3995   9.339  26.177   3.943
38769W        W 3996   0.505   2.994  13.879
38770W        W 3997  26.291  27.258  11.590
38771W        W 3998   3.036  38.554  14.992
38772W        W 3999  24.168  26.257   2.843
38773W        W 4000  12.133   4.262  11.023
38774W        W 4001  14.175  14.468  13.423
38775W        W 4002  27.094  21.824  11.563
38776W        W 4003   5.042  36.834  14.034
38777W        W 4004  31.364  40.870   3.698
38778W        W 4005  41.818  18.878   1.592
38779W        W 4006  30.402  37.830  14.363
38780W        W 4007  28.649  32.695   2.281
38781W        W 4008  42.790  10.136   1.516
38782W        W 4009  25.541  33.825  14.958
38783W        W 4010  18.264  18.516  12.082
38784W        W 4011   9.411   1.501   3.719
38785W        W 4012  14.797  33.161  10.149
38786W        W 4013  11.285   6.512   2.087
38787W        W 4014  21.903  39.657   3.354
38788W        W 4015   5.280   0.254  14.987
38789W        W 4016  21.564  31.717   0.959
38790W        W 4017  17.593  28.072  10.577
38791W        W 4018   1.395  18.132  12.396
38792W        W 4019  36.004   4.139   2.306
38793W        W 4020  17.067  26.628  13.095
38794W        W 4021  31.494  31.441  14.426
38795W        W 4022  37.468   0.943  13.543
38796W        W 4023  38.562  16.006  12.964
38797W        W 4024  16.855  24.171  13.322
38798W        W 4025  26.062  10.861  10.745
38799W        W 4026   2.144  24.192   2.627
38800W        W 4027  28.192  23.421  11.990
38801W        W 4028   1.379  35.255  11.562
38802W        W 4029  16.672   2.668  13.830
38803W        W 4030  25.004  38.975   1.400
38804W        W 4031  33.563  25.914  10.608
38805W        W 4032  33.985  12.318  12.069
38806W        W 4033  40.930  38.531  13.604
38807W        W 4034  32.065  33.322  11.575
38808W        W 4035  22.067  25.206   3.474
38809W        W 4036  18.956   1.771   1.536
38810W        W 4037   5.107   9.077  13.383
38811W        W 4038  35.604  31.475   1.495
38812W        W 4039  29.668  34.458   1.358
38813W        W 4040  12.348  39.148   0.245
38814W        W 4041   6.409  44.576   0.431
38815W        W 4042  25.440  43.488  14.383
38816W        W 4043   2.966  30.376  14.421
38817W        W 4044   3.450  37.116   2.802
38818W        W 4045  13.541  41.571   4.298
38819W        W 4046  17.551  32.831  11.113
38820W        W 4047  15.202  23.240   4.115
38821W        W 4048   7.093  23.081  11.706
38822W        W 4049  14.725  27.289  13.223
38823W        W 4050  44.897  21.761   4.747
38824W        W 4051  27.045  29.854  14.934
38825W        W 4052  20.050  19.441  11.681
38826W        W 4053  19.509  20.620  11.539
38827W        W 4054  31.912  34.317  10.750
38828W        W 4055  28.744  34.412   4.173
38829W        W 4056   5.731  29.454  10.681
38830W        W 4057  10.851  39.323   1.143
38831W        W 4058  42.704  17.656  14.373
38832W        W 4059  41.494  18.725  11.078
38833W        W 4060  32.489  34.039   1.851
38834W        W 4061  30.560  25.389   4.536
38835W        W 4062   5.936  43.038   9.640
38836W        W 4063   2.426  20.577  12.272
38837W        W 4064  13.325  43.781  11.076
38838W        W 4065  38.257  40.346   0.671
38839W        W 4066  23.559  21.448  11.998
38840W        W 4067  24.632  38.277   0.356
38841W        W 4068  19.635   4.270  13.978
38842W        W 4069  30.565  32.174   4.577
38843W        W 4070  12.219  29.286   0.812
38844W        W 4071   3.316  25.456  12.385
38845W        W 4072   2.468   7.112  13.381
38846W        W 4073  43.577   9.586   1.287
38847W        W 4074   7.261  40.789  12.370
38848W        W 4075  22.708  13.029  10.337
38849W        W 4076  37.469   0.480  12.586
38850W        W 4077  24.742  11.818   0.372
38851W        W 4078  26.664   0.846   3.140
38852W        W 4079  22.132  11.633  12.925
38853W        W 4080  13.194  26.134  13.546
38854W        W 4081  17.598  15.139   0.748
38855W        W 4082  42.600  29.473  10.513
38856W        W 4083   4.121   8.092  11.100
38857W        W 4084  40.865  27.156  12.853
38858W        W 4085  39.522   8.645  11.601
38859W        W 4086  19.290  33.911  10.791
38860W        W 4087   9.635  18.670   2.215
38861W        W 4088  41.987  29.932  14.069
38862W        W 4089  20.193  23.955  14.238
38863W        W 4090  28.577  24.798  10.836
38864W        W 4091   1.832  37.066   3.271
38865W        W 4092  29.145  29.410   2.110
38866W        W 4093  36.404   6.813  12.432
38867W        W 4094  32.339  27.568  14.364
38868W        W 4095   6.054   3.669  11.222
38869W        W 4096   6.014  28.455   0.463
38870W        W 4097  37.151  33.605   1.248
38871W        W 4098  16.029  32.437  11.108
38872W        W 4099  30.489  34.618   3.245
38873W        W 4100  25.271  18.216  12.844
38874W        W 4101   2.280  16.210   3.545
38875W        W 4102   4.949  41.633  14.402
38876W        W 4103   2.655   4.936   5.232
38877W        W 4104   1.152  42.898   2.614
38878W        W 4105  42.345  43.007  11.620
38879W        W 4106  32.066  30.954  10.898
38880W        W 4107   1.178  28.220  12.852
38881W        W 4108  39.962   0.522  10.744
38882W        W 4109  22.946  34.842  13.037
38883W        W 4110  22.508  41.456  12.170
38884W        W 4111  34.673  22.229   2.252
38885W        W 4112  31.621   2.389   4.572
38886W        W 4113  41.489  37.608  12.891
38887W        W 4114  36.061  18.541  11.742
38888W        W 4115  16.497  28.505   3.000
38889W        W 4116  31.388  11.335  10.752
38890W        W 4117   3.208  14.875  14.068
38891W        W 4118  28.235  44.434   4.251
38892W        W 4119  11.336  30.624   4.650
38893W        W 4120  15.044  22.733  13.405
38894W        W 4121  23.271  41.563   1.277
38895W        W 4122  32.053  31.208   1.615
38896W        W 4123  24.695   3.475  14.876
38897W        W 4124   9.333  28.017   0.486
38898W        W 4125   3.423  22.543   0.247
38899W        W 4126  13.218  23.339  13.582
38900W        W 4127  18.189  22.007  10.744
38901W        W 4128  26.046  15.202  12.482
38902W        W 4129  23.564  13.247  14.453
38903W        W 4130   3.624  16.277   1.344
38904W        W 4131  19.720  20.148   4.073
38905W        W 4132  26.906  27.119  14.864
38906W        W 4133   3.092  27.499  13.264
38907W        W 4134  37.891  17.104   1.274
38908W        W 4135   2.500  17.662  14.010
38909W        W 4136  34.862  30.943   0.880
38910W        W 4137  39.391   6.803   0.183
38911W        W 4138  32.847  13.337  14.885
38912W        W 4139   6.823  32.604   0.515
38913W        W 4140  20.074  34.256  11.179
38914W        W 4141   2.328  11.681  12.535
38915W        W 4142   8.678  24.186  11.128
38916W        W 4143  30.046  36.232  12.888
38917W        W 4144   8.506  12.725   0.666
38918W        W 4145  12.896  21.538  14.532
38919W        W 4146  34.899   7.959  11.536
38920W        W 4147  18.110  43.419   1.902
38921W        W 4148   1.318  23.245  10.702
38922W        W 4149   3.377  23.958  11.504
38923W        W 4150  15.952  32.926  14.461
38924W        W 4151  26.945  26.888   2.795
38925W        W 4152   8.226  31.853   1.151
38926W        W 4153   2.297  27.716  14.816
38927W        W 4154  39.087  40.048  14.728
38928W        W 4155  15.832  39.890   1.691
38929W        W 4156  27.461  25.206   4.502
38930W        W 4157  40.217  26.195  13.510
38931W        W 4158  31.450  16.624  14.364
38932W        W 4159   3.720   5.791  14.043
38933W        W 4160  16.269  36.079  14.516
38934W        W 4161  17.107  34.557  10.755
38935W        W 4162  44.196   7.862  10.347
38936W        W 4163  35.530  15.513   4.629
38937W        W 4164   8.745   9.784  14.978
38938W        W 4165  20.240  28.490   4.547
38939W        W 4166  17.043  41.261   1.317
38940W        W 4167   9.529  10.631   1.808
38941W        W 4168  42.770  16.912  12.964
38942W        W 4169  39.812  31.521  14.799
38943W        W 4170  29.173  24.498  10.936
38944W        W 4171  30.112  22.168   3.730
38945W        W 4172  23.474  26.782  14.860
38946W        W 4173   9.279  18.647  12.877
38947W        W 4174  29.330  15.080   4.754
38948W        W 4175  26.594  13.736   4.152
38949W        W 4176   3.080   1.882  13.010
38950W        W 4177  14.410  44.424   1.364
38951W        W 4178  18.268   3.187   4.517
38952W        W 4179  41.035  30.353   4.691
38953W        W 4180   8.350  17.551  14.374
38954W        W 4181  21.895  34.092  11.199
38955W        W 4182  18.999  21.282  13.379
38956W        W 4183   5.284  15.612  12.438
38957W        W 4184   0.751   4.029  14.028
38958W        W 4185  10.766   3.648   2.729
38959W        W 4186  13.061  41.033  14.501
38960W        W 4187  34.062  21.222  13.234
38961W        W 4188  36.642  42.382   0.856
38962W        W 4189  33.460  29.484  12.528
38963W        W 4190  20.605  12.165  10.594
38964W        W 4191   9.926  39.615   0.623
38965W        W 4192  17.008   1.842  13.508
38966W        W 4193   5.382  10.319  11.463
38967W        W 4194  37.372  19.279   0.472
38968W        W 4195  22.737  44.310  12.089
38969W        W 4196  14.335  43.110   1.712
38970W        W 4197   0.700   7.067  10.517
38971W        W 4198  34.445   6.756  14.359
38972W        W 4199  23.499  39.389   2.892
38973W        W 4200  39.620  41.309  12.149
38974W        W 4201  24.188  30.462  10.403
38975W        W 4202  11.334  43.844  13.347
38976W        W 4203  24.553   2.511  11.566
38977W        W 4204  20.306  43.400   4.203
38978W        W 4205   0.836  24.261  10.575
38979W        W 4206  43.057  32.351   3.596
38980W        W 4207  31.593  42.451   3.278
38981W        W 4208  34.969  21.597  12.873
38982W        W 4209  39.265  39.554   2.253
38983W        W 4210   1.874  41.766  14.351
38984W        W 4211  34.858  31.932   2.282
38985W        W 4212  34.405  10.717  11.616
38986W        W 4213  22.770  42.349   1.457
38987W        W 4214   4.127   4.207  14.459
38988W        W 4215  27.520  31.701   0.852
38989W        W 4216  33.193   6.253  10.331
38990W        W 4217  31.107   0.253  11.075
38991W        W 4218  26.263  20.298  12.746
38992W        W 4219  15.239  28.190   3.756
38993W        W 4220  24.922  17.603  12.937
38994W        W 4221  12.609  26.501  11.605
38995W        W 4222  21.572  22.955  14.553
38996W        W 4223  21.365  36.427   4.977
38997W        W 4224   2.221  16.767   0.418
38998W        W 4225  17.201  32.981  12.202
38999W        W 4226  26.430  38.577   0.952
39000W        W 4227  25.778  38.088  12.062
39001W        W 4228   2.991   0.947   0.964
39002W        W 4229  15.988  14.294   1.906
39003W        W 4230  21.471   5.841  12.971
39004W        W 4231  27.501  13.820  12.101
39005W        W 4232  15.298  24.271  14.817
39006W        W 4233  10.691  44.769   3.129
39007W        W 4234  18.903  18.989  13.537
39008W        W 4235  43.884  43.969   4.131
39009W        W 4236  41.504  30.890  14.464
39010W        W 4237  27.124  39.346  10.494
39011W        W 4238  35.666   1.111   3.689
39012W        W 4239   9.331  35.530   1.109
39013W        W 4240  12.220   8.217  13.763
39014W        W 4241  34.088  33.887  10.678
39015W        W 4242  21.202  39.138   4.598
39016W        W 4243  32.021  24.539   0.055
39017W        W 4244  30.600   0.974   1.722
39018W        W 4245  41.348  21.519  12.038
39019W        W 4246  23.819   4.427   4.046
39020W        W 4247   6.894  44.439  11.197
39021W        W 4248  21.515  36.456  14.742
39022W        W 4249  27.531  22.656  13.349
39023W        W 4250  41.647  18.634   4.068
39024W        W 4251  22.330  24.496  14.333
39025W        W 4252  13.220   9.782  13.118
39026W        W 4253  38.344   8.248  11.957
39027W        W 4254  39.014  15.648  14.968
39028W        W 4255  27.106  26.940   0.346
39029W        W 4256  36.552  17.174   4.547
39030W        W 4257  28.266  10.062   3.589
39031W        W 4258   3.371  27.266   0.789
39032W        W 4259  25.279  11.746   0.597
39033W        W 4260  43.405  38.304   4.217
39034W        W 4261  12.626   7.397   3.250
39035W        W 4262  24.582  35.801  11.529
39036W        W 4263  35.373  23.554  11.184
39037W        W 4264  30.880  16.083  10.973
39038W        W 4265  32.013  24.601  10.736
39039W        W 4266  40.412  43.491  14.051
39040W        W 4267   8.693   8.761   3.101
39041W        W 4268  42.925   6.583   9.704
39042W        W 4269  33.095   8.233   2.637
39043W        W 4270   0.130  20.270  10.673
39044W        W 4271   0.219  18.294   3.279
39045W        W 4272  41.033  33.058   2.518
39046W        W 4273  20.621   7.573  10.393
39047W        W 4274  14.630  23.751   1.925
39048W        W 4275  43.052  22.466  12.594
39049W        W 4276  40.362   8.587  14.829
39050W        W 4277  24.245   8.094  12.140
39051W        W 4278   5.096  39.714  10.975
39052W        W 4279  31.795  35.362   3.245
39053W        W 4280  15.578  13.178  10.681
39054W        W 4281   6.002  23.730   0.580
39055W        W 4282  44.815  34.420   2.165
39056W        W 4283   1.364   1.429  14.388
39057W        W 4284  10.763   7.857   4.703
39058W        W 4285  17.046   9.832   0.753
39059W        W 4286   0.322  24.747  11.506
39060W        W 4287  14.526  21.957  12.532
39061W        W 4288  26.698  35.320  13.871
39062W        W 4289  40.547   5.634   3.332
39063W        W 4290  24.538   7.818  10.770
39064W        W 4291  21.901  32.057  12.740
39065W        W 4292  21.257  28.234   2.328
39066W        W 4293   9.524  31.770   5.117
39067W        W 4294  33.474  36.192  11.431
39068W        W 4295  27.540   0.074   4.247
39069W        W 4296  32.707  21.379  13.877
39070W        W 4297  39.934  11.109   4.270
39071W        W 4298  26.362  14.220   4.147
39072W        W 4299  20.148  43.755   4.545
39073W        W 4300  18.042  37.065   3.569
39074W        W 4301  37.817  39.452   0.895
39075W        W 4302   2.974  41.311   4.471
39076W        W 4303  19.731   5.545   4.769
39077W        W 4304  14.225  33.609  14.940
39078W        W 4305  25.224   8.366  13.409
39079W        W 4306   2.182   0.571  14.845
39080W        W 4307  35.046  42.237  12.938
39081W        W 4308  33.762  18.948  14.926
39082W        W 4309  23.179  34.123  11.359
39083W        W 4310   4.054  32.186  14.361
39084W        W 4311  36.474  10.306  11.243
39085W        W 4312  17.063  35.547   2.079
39086W        W 4313  40.444  40.941   0.591
39087W        W 4314   5.644  34.451  14.342
39088W        W 4315  44.927  18.824   0.755
39089W        W 4316  38.099  28.406  14.401
39090W        W 4317  24.273  20.172  14.264
39091W        W 4318   4.101  13.752   3.814
39092W        W 4319   7.174  18.950  14.158
39093W        W 4320  29.232   0.716   0.796
39094W        W 4321  11.397  20.238   4.131
39095W        W 4322  15.920  25.575   1.634
39096W        W 4323  33.799  29.165   2.676
39097W        W 4324  29.186  29.583   0.647
39098W        W 4325  38.274   3.344   1.351
39099W        W 4326  27.265  40.390  12.876
39100W        W 4327  12.307  34.727   9.923
39101W        W 4328  18.636   4.682   2.868
39102W        W 4329   2.210  36.782  14.105
39103W        W 4330   8.165   8.628   2.395
39104W        W 4331  24.320  35.294  10.377
39105W        W 4332  16.380   8.340   4.236
39106W        W 4333  38.066  15.820  14.047
39107W        W 4334  12.030  10.603   1.720
39108W        W 4335  12.614  36.971   4.126
39109W        W 4336  38.511  29.871  12.904
39110W        W 4337  18.024  27.815   3.650
39111W        W 4338  38.763   6.299   0.344
39112W        W 4339  29.383  43.833  12.386
39113W        W 4340  40.817  15.827   0.389
39114W        W 4341  23.515   8.923  13.548
39115W        W 4342  12.402  13.302   0.285
39116W        W 4343  44.955  33.115  14.878
39117W        W 4344   5.165  16.827   0.517
39118W        W 4345  29.504   5.160   4.860
39119W        W 4346  38.874   8.439  13.959
39120W        W 4347  17.126   8.641  11.154
39121W        W 4348   3.229  38.932  11.711
39122W        W 4349  16.580  12.732  12.960
39123W        W 4350  44.400   7.438  14.669
39124W        W 4351  24.860  28.688   2.775
39125W        W 4352  37.650  38.707   1.908
39126W        W 4353   1.168  19.648   1.444
39127W        W 4354  26.306  27.152  10.616
39128W        W 4355  35.831  33.823   4.247
39129W        W 4356  26.799  44.013   4.238
39130W        W 4357  44.270  23.287   1.944
39131W        W 4358  16.750  43.037  12.897
39132W        W 4359   5.901  22.772   4.746
39133W        W 4360   3.104  24.567   0.698
39134W        W 4361  40.415  11.592  11.109
39135W        W 4362  41.187  14.688  11.999
39136W        W 4363   2.866  16.010  12.376
39137W        W 4364  15.413   4.968  11.592
39138W        W 4365  11.010  14.822   5.606
39139W        W 4366  25.754  43.439   0.378
39140W        W 4367  30.004  16.621   0.921
39141W        W 4368  36.691  35.650   1.798
39142W        W 4369  34.138  16.831  13.884
39143W        W 4370  13.414  20.549  12.157
39144W        W 4371  37.266  33.766   4.660
39145W        W 4372  30.941  33.028  13.517
39146W        W 4373  26.975   1.303   3.006
39147W        W 4374  36.582  15.262   4.108
39148W        W 4375  37.723  34.540  12.803
39149W        W 4376  42.697  25.121   5.251
39150W        W 4377   0.461   6.763   1.360
39151W        W 4378  43.845  28.462   0.822
39152W        W 4379  32.320  25.812  14.550
39153W        W 4380  31.924  11.763  12.445
39154W        W 4381  19.157  30.448   0.323
39155W        W 4382   4.296  31.886  11.610
39156W        W 4383  28.180  41.538  13.930
39157W        W 4384  25.700  39.409   1.340
39158W        W 4385  19.415  10.631  11.570
39159W        W 4386  18.016  23.217  12.927
39160W        W 4387   0.877  13.824   3.530
39161W        W 4388  20.463   3.621   1.290
39162W        W 4389   7.602  20.188  10.770
39163W        W 4390  21.554  12.568   1.776
39164W        W 4391   1.857  37.873  14.796
39165W        W 4392  33.187  29.537   0.236
39166W        W 4393  29.309   3.868   0.289
39167W        W 4394  31.859   8.515  12.387
39168W        W 4395  38.958  25.734  13.070
39169W        W 4396   6.998  25.882   1.817
39170W        W 4397  18.164  13.154  14.324
39171W        W 4398  26.450  24.600  12.366
39172W        W 4399  24.904   8.627   1.266
39173W        W 4400   8.356  20.116   1.872
39174W        W 4401   7.458  44.438   3.269
39175W        W 4402  35.618   0.859  11.132
39176W        W 4403  25.958  18.294  10.645
39177W        W 4404  11.789  38.616  11.578
39178W        W 4405   1.943   4.991  12.909
39179W        W 4406   4.823  44.243   2.277
39180W        W 4407  26.060  32.161  12.015
39181W        W 4408  22.310  15.720   1.169
39182W        W 4409  10.180  39.774   2.772
39183W        W 4410  13.286  28.775  14.261
39184W        W 4411  27.647  12.371  11.105
39185W        W 4412  33.841  23.054   4.393
39186W        W 4413  15.698  36.738   2.610
39187W        W 4414   4.492  27.381  11.178
39188W        W 4415  20.477  28.169   3.282
39189W        W 4416  41.935   7.747  14.367
39190W        W 4417  32.187  20.746  13.383
39191W        W 4418   4.971  30.007  12.102
39192W        W 4419  26.807  12.115   2.248
39193W        W 4420   0.863  21.855   0.225
39194W        W 4421  19.963   8.700   3.361
39195W        W 4422  19.130   2.824   0.248
39196W        W 4423  38.433  20.718  14.998
39197W        W 4424  12.399  31.029   1.981
39198W        W 4425  41.437  14.674  12.453
39199W        W 4426  12.615  32.626  14.919
39200W        W 4427  19.666   9.147   0.149
39201W        W 4428   2.742  19.815  12.537
39202W        W 4429  33.359   7.498  13.972
39203W        W 4430  24.285  14.995  14.068
39204W        W 4431  34.394  29.280  13.983
39205W        W 4432  34.636   1.364  11.957
39206W        W 4433  38.872  34.920   3.247
39207W        W 4434  35.580  32.185   0.890
39208W        W 4435  20.228  19.537   5.241
39209W        W 4436   2.219  17.367   3.366
39210W        W 4437   6.455  31.878   2.099
39211W        W 4438   7.380   1.687  13.524
39212W        W 4439  16.482   8.385  10.735
39213W        W 4440   5.106  23.286  11.745
39214W        W 4441   4.997  42.758  12.582
39215W        W 4442  27.679   6.900   0.250
39216W        W 4443   9.642  14.209  14.540
39217W        W 4444  39.971   5.255   0.939
39218W        W 4445  10.502  40.499   4.915
39219W        W 4446  43.478   3.339   3.467
39220W        W 4447  29.431  19.742  13.898
39221W        W 4448  44.650   0.365   4.195
39222W        W 4449   2.275  34.591  12.126
39223W        W 4450  30.092  38.162   3.163
39224W        W 4451   9.717  21.500   2.202
39225W        W 4452  35.508   1.180   2.016
39226W        W 4453   7.400  10.338  13.523
39227W        W 4454  30.508   7.837  12.836
39228W        W 4455  31.014  35.910  10.900
39229W        W 4456  31.510  23.715   1.625
39230W        W 4457   1.726  32.935  10.641
39231W        W 4458  18.278  27.392  12.572
39232W        W 4459  30.132  41.334   4.549
39233W        W 4460  11.228  37.490  11.203
39234W        W 4461  14.144   6.848   1.216
39235W        W 4462   3.907   8.797  12.065
39236W        W 4463  22.653   3.504  11.122
39237W        W 4464   1.209   7.107  10.640
39238W        W 4465  10.354  19.601  13.932
39239W        W 4466  36.360  24.125   2.465
39240W        W 4467   5.279  36.036   3.146
39241W        W 4468   4.813   4.445   4.163
39242W        W 4469  17.198  24.233   1.206
39243W        W 4470  39.934  37.857   1.842
39244W        W 4471  33.091  14.895  11.176
39245W        W 4472  35.372  10.960  11.456
39246W        W 4473  32.415  44.878   2.141
39247W        W 4474  21.109  19.396   2.801
39248W        W 4475  13.743  44.264   2.679
39249W        W 4476  26.291  17.778   4.534
39250W        W 4477  25.216  30.175  13.827
39251W        W 4478  41.689  16.546  14.253
39252W        W 4479  11.190  17.259   0.853
39253W        W 4480  41.011  37.486  12.717
39254W        W 4481   8.673  31.130   0.745
39255W        W 4482  16.350   2.500  10.669
39256W        W 4483  37.988  24.586   0.420
39257W        W 4484   3.242  21.551  13.157
39258W        W 4485  29.335   5.232  14.385
39259W        W 4486   7.937  40.834  10.418
39260W        W 4487  42.709   6.862   5.344
39261W        W 4488  41.312  11.082   1.340
39262W        W 4489   0.356   1.940  14.456
39263W        W 4490  31.473  43.298  12.383
39264W        W 4491  34.690  28.444  14.043
39265W        W 4492  44.818  41.972  14.462
39266W        W 4493  21.335  35.765   2.791
39267W        W 4494  42.363  40.899   3.950
39268W        W 4495  32.909  25.192  10.166
39269W        W 4496  13.720  20.799  10.422
39270W        W 4497   0.767   3.956   4.661
39271W        W 4498  31.360   4.078   0.569
39272W        W 4499  31.600   8.171   2.349
39273W        W 4500  28.653  17.302   3.690
39274W        W 4501  34.220  33.595  11.369
39275W        W 4502  13.624  27.141  12.957
39276W        W 4503  36.295  12.163   0.181
39277W        W 4504  35.353  26.685   4.222
39278W        W 4505  26.752  14.244   0.749
39279W        W 4506   9.550  19.151  10.106
39280W        W 4507  13.822   1.620   2.753
39281W        W 4508  22.004  33.509   3.919
39282W        W 4509   3.724  37.974  13.797
39283W        W 4510  18.564  13.677   1.340
39284W        W 4511   3.436  37.347  10.433
39285W        W 4512  44.382  23.941  13.265
39286W        W 4513  18.251  36.130  12.539
39287W        W 4514  39.768   5.900   2.742
39288W        W 4515  44.804  14.681  13.448
39289W        W 4516  15.184   1.689  11.190
39290W        W 4517  26.024   5.979   4.135
39291W        W 4518  31.507  12.136   3.183
39292W        W 4519  20.818   0.729   0.764
39293W        W 4520  28.004  26.477   1.339
39294W        W 4521  13.330   9.920  14.445
39295W        W 4522   3.399  44.824  13.900
39296W        W 4523   5.794  13.016  14.093
39297W        W 4524   0.937   8.626   1.001
39298W        W 4525  40.115  40.560  14.066
39299W        W 4526  14.231  16.895   3.602
39300W        W 4527   7.765  22.569  10.355
39301W        W 4528  15.730  27.471   2.881
39302W        W 4529  23.995   3.983  10.416
39303W        W 4530  42.328  32.013  13.316
39304W        W 4531  40.433   5.204  14.281
39305W        W 4532   6.611   7.885  11.884
39306W        W 4533  28.964  32.027  11.927
39307W        W 4534  31.542  13.656  10.306
39308W        W 4535   2.708  24.184  14.893
39309W        W 4536   6.957  14.176  13.001
39310W        W 4537  22.203  27.520   4.099
39311W        W 4538  19.234  19.196   0.775
39312W        W 4539   5.204  30.017  13.076
39313W        W 4540  16.235  33.931  10.576
39314W        W 4541  28.575  26.596  10.505
39315W        W 4542  36.180  35.602   1.840
39316W        W 4543   2.706   0.341  12.231
39317W        W 4544  15.796  14.972   1.227
39318W        W 4545   2.603  26.522  14.819
39319W        W 4546  37.646  38.336   4.214
39320W        W 4547  42.691  31.706   4.267
39321W        W 4548   9.878  38.446  14.524
39322W        W 4549   9.901  23.778   0.460
39323W        W 4550  37.919   1.738   2.164
39324W        W 4551   1.536  25.763   5.403
39325W        W 4552   2.514   9.172   2.340
39326W        W 4553   2.259  36.507   2.386
39327W        W 4554   5.088   5.800   2.254
39328W        W 4555  38.512  40.283   4.320
39329W        W 4556  37.097   5.606  11.971
39330W        W 4557  36.401   3.753   3.158
39331W        W 4558  15.877  18.653   0.175
39332W        W 4559  22.063   0.066  13.353
39333W        W 4560  31.281  22.282  10.353
39334W        W 4561  40.713  15.804   2.218
39335W        W 4562  34.414  42.637   0.404
39336W        W 4563   9.596  44.806   3.847
39337W        W 4564  44.884  16.701   3.141
39338W        W 4565  33.099  40.463   3.287
39339W        W 4566  38.771  15.207  14.842
39340W        W 4567  15.667  18.685   3.388
39341W        W 4568  26.509  18.449  10.746
39342W        W 4569  32.025   9.715  10.922
39343W        W 4570  16.563  41.177   1.166
39344W        W 4571  23.923   4.472   3.149
39345W        W 4572  30.539  29.553  13.622
39346W        W 4573  44.707  10.247   4.318
39347W        W 4574  21.921  24.607   2.676
39348W        W 4575  30.081   0.881   3.138
39349W        W 4576   0.357   6.986   0.062
39350W        W 4577  10.928   4.715   9.970
39351W        W 4578   6.981   8.485   2.808
39352W        W 4579  13.639  31.007  14.357
39353W        W 4580  13.253  13.373  10.631
39354W        W 4581  25.532  23.277   0.748
39355W        W 4582  27.738  16.729  13.727
39356W        W 4583   5.766  29.528  14.230
39357W        W 4584  43.983  16.223  12.425
39358W        W 4585  27.610   2.132   2.273
39359W        W 4586  39.368   8.380   4.034
39360W        W 4587  12.498  18.498   1.901
39361W        W 4588   4.766  12.406   4.001
39362W        W 4589  38.021  28.981   2.958
39363W        W 4590   6.588  22.506   0.046
39364W        W 4591  32.092  15.803   2.339
39365W        W 4592   3.382  44.115  10.656
39366W        W 4593  33.485  36.382  14.454
39367W        W 4594  28.926  21.396   4.040
39368W        W 4595  18.267  34.551   1.685
39369W        W 4596  23.466  21.404   0.967
39370W        W 4597  39.430  39.630  12.981
39371W        W 4598   6.278   3.416  11.593
39372W        W 4599  37.819  19.631  11.473
39373W        W 4600  37.884   1.255   3.335
39374W        W 4601   4.973  44.911  10.712
39375W        W 4602   1.845   7.613   0.754
39376W        W 4603  18.576  37.877   0.285
39377W        W 4604  16.770   1.301  10.743
39378W        W 4605  12.220   1.576   2.284
39379W        W 4606   0.957  28.432   3.064
39380W        W 4607  20.642  13.649   1.028
39381W        W 4608  10.220  12.502   4.668
39382W        W 4609  20.231   1.339  13.534
39383W        W 4610   9.724  18.849   0.823
39384W        W 4611  30.374  11.458  14.071
39385W        W 4612  17.269  40.421   4.076
39386W        W 4613  13.780  30.567  12.035
39387W        W 4614   0.960   6.930   2.281
39388W        W 4615  39.834   9.688  14.319
39389W        W 4616  35.153  35.693   3.332
39390W        W 4617  14.206  29.407  11.506
39391W        W 4618  28.350  37.287  12.599
39392W        W 4619  43.978  34.961   3.590
39393W        W 4620  10.406  23.980   1.802
39394W        W 4621  18.741  23.678  10.524
39395W        W 4622  37.964  42.392  14.581
39396W        W 4623  23.533  21.233   1.456
39397W        W 4624   9.703  37.490   0.793
39398W        W 4625   3.144  43.976   1.257
39399W        W 4626  41.507  36.321  11.388
39400W        W 4627  34.111  44.257   2.763
39401W        W 4628   4.219  37.334   0.425
39402W        W 4629   5.808  32.520  13.342
39403W        W 4630  22.312  14.326   2.635
39404W        W 4631  40.919  35.946   3.807
39405W        W 4632  26.310  12.277   2.307
39406W        W 4633  10.226  13.863  11.933
39407W        W 4634   1.243  32.150  10.678
39408W        W 4635  15.504   1.471  14.718
39409W        W 4636  14.744   7.917   1.781
39410W        W 4637  30.133  41.553   3.683
39411W        W 4638  37.751   6.381   3.508
39412W        W 4639  19.690  37.306   0.918
39413W        W 4640   9.326  28.449  12.510
39414W        W 4641  21.481  24.684   0.343
39415W        W 4642   0.065  14.360  12.379
39416W        W 4643  36.323  24.235  13.543
39417W        W 4644  25.541  24.437  13.117
39418W        W 4645  27.846   9.433  10.787
39419W        W 4646  15.104  26.483   3.162
39420W        W 4647  38.986  41.790  12.972
39421W        W 4648  28.273   3.526  11.437
39422W        W 4649  13.494  35.124   3.256
39423W        W 4650  36.484   1.035   0.750
39424W        W 4651  32.601  40.224  12.365
39425W        W 4652  22.838  22.927   3.841
39426W        W 4653   2.234  28.550  12.389
39427W        W 4654  44.459  38.036  11.120
39428W        W 4655  36.195  40.821   4.049
39429W        W 4656   6.933  42.707   5.178
39430W        W 4657   9.851  19.054   3.099
39431W        W 4658  17.137  29.899   4.701
39432W        W 4659  15.268   0.362  12.483
39433W        W 4660   7.917  20.125   1.154
39434W        W 4661  15.607  10.798   2.781
39435W        W 4662  42.155  38.436   4.533
39436W        W 4663  15.377  17.688  11.507
39437W        W 4664  33.516  32.352  13.850
39438W        W 4665   6.202  26.278  12.400
39439W        W 4666  38.291   6.138   0.209
39440W        W 4667  28.610  11.394   2.315
39441W        W 4668  25.518   6.384  13.264
39442W        W 4669  29.769  21.212   3.717
39443W        W 4670  38.329  24.218   0.222
39444W        W 4671   2.859  28.123  14.073
39445W        W 4672  17.276   6.186   2.816
39446W        W 4673   5.461  23.417  13.479
39447W        W 4674  30.541  20.125  11.196
39448W        W 4675  16.756  21.026  11.982
39449W        W 4676  41.571  26.996  11.908
39450W        W 4677  36.458  13.053   0.348
39451W        W 4678  15.620   5.447   4.461
39452W        W 4679  42.456  13.024  13.303
39453W        W 4680  41.000  44.881  12.437
39454W        W 4681   5.570  30.584  13.317
39455W        W 4682  39.644   8.379   3.600
39456W        W 4683   7.397  41.379  13.754
39457W        W 4684  40.454  15.645   2.649
39458W        W 4685  24.742   7.344   0.340
39459W        W 4686  29.129  40.044   1.090
39460W        W 4687  37.585  37.125   3.219
39461W        W 4688  30.925  34.839   4.031
39462W        W 4689  15.880  27.601   4.250
39463W        W 4690  18.543   0.704  12.916
39464W        W 4691  43.667  30.080   1.546
39465W        W 4692   9.634   9.343  11.664
39466W        W 4693   9.337  34.412  11.199
39467W        W 4694  40.051  20.533  11.168
39468W        W 4695  12.421  16.304   2.656
39469W        W 4696   4.767  20.831  14.964
39470W        W 4697  19.342  28.077  14.026
39471W        W 4698   5.975  31.659   2.318
39472W        W 4699   1.092  18.831   4.504
39473W        W 4700  17.612  26.841   3.564
39474W        W 4701  25.695   9.877   0.304
39475W        W 4702   2.821  38.751  11.402
39476W        W 4703  16.618   1.436   3.276
39477W        W 4704  20.210  11.732   2.825
39478W        W 4705  43.860   9.346  12.608
39479W        W 4706  12.720  42.269  10.745
39480W        W 4707  18.814  26.487   1.330
39481W        W 4708  27.925  37.976   3.291
39482W        W 4709  16.188  21.090   1.635
39483W        W 4710  13.533  42.863   1.516
39484W        W 4711  40.339  27.639  14.544
39485W        W 4712   7.758   3.705  14.874
39486W        W 4713  31.716   6.353   2.758
39487W        W 4714  23.724  17.095   2.268
39488W        W 4715  21.090  36.551   4.544
39489W        W 4716  25.596  21.570   4.084
39490W        W 4717  36.623  30.368   3.693
39491W        W 4718   5.413  13.083   2.384
39492W        W 4719  27.143  39.736  12.330
39493W        W 4720  30.952  18.720  14.047
39494W        W 4721   4.880   1.872   4.130
39495W        W 4722  39.797  20.360   3.690
39496W        W 4723  28.145  40.764  10.650
39497W        W 4724  27.143   7.438  10.488
39498W        W 4725   8.587  15.682  14.021
39499W        W 4726  37.423  32.077  11.578
39500W        W 4727   9.956  38.430   9.875
39501W        W 4728  31.507  19.262   2.707
39502W        W 4729  21.473   0.469  12.836
39503W        W 4730   6.257  43.738   1.981
39504W        W 4731   4.241  32.565   0.374
39505W        W 4732  22.582  37.574  10.125
39506W        W 4733   2.374  33.076   1.029
39507W        W 4734   9.149  23.405  11.241
39508W        W 4735   6.380  31.947  10.293
39509W        W 4736  18.101  12.221   2.899
39510W        W 4737  42.997   8.215   3.101
39511W        W 4738  25.456  32.401  12.020
39512W        W 4739  23.622   8.064   1.819
39513W        W 4740  15.685  23.037  11.226
39514W        W 4741  16.553  27.065   4.169
39515W        W 4742  40.365   2.708   0.358
39516W        W 4743  44.371   6.359   1.700
39517W        W 4744  30.732  20.682   2.376
39518W        W 4745  15.283  14.671   2.391
39519W        W 4746   5.055  40.146   1.389
39520W        W 4747   6.977   0.280  12.389
39521W        W 4748  11.840  42.123   3.125
39522W        W 4749  18.537   8.234  10.744
39523W        W 4750  15.347  33.074   0.825
39524W        W 4751   0.445   6.830   2.220
39525W        W 4752  29.522  37.638  11.274
39526W        W 4753  30.065  20.103   4.426
39527W        W 4754   5.937  41.375   0.826
39528W        W 4755   7.735   9.390   1.813
39529W        W 4756  33.875  28.031  13.983
39530W        W 4757  14.477   8.343   2.759
39531W        W 4758   8.430  13.967   1.237
39532W        W 4759  36.596  28.094  12.631
39533W        W 4760  35.996  30.896   1.189
39534W        W 4761   5.869  31.008   1.501
39535W        W 4762  37.741  14.639   1.318
39536W        W 4763   0.694  10.271   1.775
39537W        W 4764  25.347  20.758   4.851
39538W        W 4765  31.979  40.342  12.735
39539W        W 4766  13.652  10.269   2.631
39540W        W 4767  27.740  26.524  12.022
39541W        W 4768  22.770   7.344  11.092
39542W        W 4769  31.419  17.119   2.121
39543W        W 4770   9.143  10.865   4.429
39544W        W 4771   5.343  34.129   2.599
39545W        W 4772   5.209   3.191   3.373
39546W        W 4773  18.203  30.624  13.419
39547W        W 4774  42.387  31.932   2.705
39548W        W 4775   8.110  23.730  13.981
39549W        W 4776   3.439  35.412  13.691
39550W        W 4777  12.150   2.604   0.528
39551W        W 4778  24.445  11.009   2.831
39552W        W 4779  36.960   1.577   2.252
39553W        W 4780  27.616  22.133   3.347
39554W        W 4781  13.929  33.459  11.159
39555W        W 4782  17.517  20.799   1.262
39556W        W 4783   0.025  15.480  11.097
39557W        W 4784   3.743  12.158  14.080
39558W        W 4785  12.203  26.063  11.701
39559W        W 4786  33.493  24.623  12.017
39560W        W 4787  19.515  33.265   1.985
39561W        W 4788   4.716  12.292  10.944
39562W        W 4789   2.243   6.232   1.396
39563W        W 4790  13.160  21.486  11.238
39564W        W 4791  23.789   4.778  13.430
39565W        W 4792  17.243  20.087   0.703
39566W        W 4793  32.175   0.209  13.307
39567W        W 4794  44.979  40.370   1.412
39568W        W 4795   6.727  13.630   3.793
39569W        W 4796  44.207   3.863   2.804
39570W        W 4797  32.029   4.974   4.228
39571W        W 4798  26.553  20.280   4.538
39572W        W 4799   6.008  32.165   2.223
39573W        W 4800  31.616   9.332  11.565
39574W        W 4801  14.867  19.598  10.791
39575W        W 4802  29.020  17.935   1.497
39576W        W 4803  15.269  39.024  12.977
39577W        W 4804  38.785  17.861  13.163
39578W        W 4805  14.035   5.440   1.423
39579W        W 4806   5.263  13.429  12.041
39580W        W 4807  42.318  42.296   0.311
39581W        W 4808   8.694   5.356   4.511
39582W        W 4809  36.108  15.763  11.668
39583W        W 4810   7.605   5.288   5.036
39584W        W 4811  34.933  12.249  12.053
39585W        W 4812   5.907  28.527   2.853
39586W        W 4813  26.340  36.889   4.098
39587W        W 4814  32.796  37.587  11.754
39588W        W 4815   8.723  39.402   1.850
39589W        W 4816  19.094  27.023  10.720
39590W        W 4817  15.946  17.302   4.196
39591W        W 4818  26.361   2.750   3.365
39592W        W 4819   6.251  26.097   3.310
39593W        W 4820  21.698  22.798   1.365
39594W        W 4821  13.710  17.711   4.553
39595W        W 4822  19.251  24.434   2.631
39596W        W 4823   9.212  13.417  12.987
39597W        W 4824  10.344   4.938  11.511
39598W        W 4825  31.949  43.809  11.510
39599W        W 4826   9.945  19.019  13.428
39600W        W 4827  16.823  11.631  14.125
39601W        W 4828  25.571  16.159   3.340
39602W        W 4829  36.147  21.564  14.853
39603W        W 4830  38.804  35.412   3.090
39604W        W 4831  39.337  40.991  13.634
39605W        W 4832  40.079  37.649   3.696
39606W        W 4833  12.623   1.380  12.547
39607W        W 4834  41.523  19.297  12.763
39608W        W 4835  10.627  43.978   3.880
39609W        W 4836   8.662  30.163   4.044
39610W        W 4837  33.153  40.707  12.842
39611W        W 4838  38.341   4.849  12.045
39612W        W 4839  26.181  13.331  12.907
39613W        W 4840  39.790  44.325  10.660
39614W        W 4841  40.519  44.867   4.704
39615W        W 4842   5.244  17.122   2.145
39616W        W 4843  28.075  42.090   4.685
39617W        W 4844  30.728  43.888  14.514
39618W        W 4845  41.993  14.423   2.206
39619W        W 4846  40.778  24.724   4.095
39620W        W 4847  38.949   6.260  14.280
39621W        W 4848  31.639   7.675   2.322
39622W        W 4849  29.525  10.637   4.441
39623W        W 4850  40.078  39.016  12.593
39624W        W 4851   1.980  27.638   3.097
39625W        W 4852  26.590  12.508  12.936
39626W        W 4853  41.730  26.056  13.982
39627W        W 4854  29.296  14.427  10.669
39628W        W 4855  29.141   4.555   4.482
39629W        W 4856   9.016  22.802   3.743
39630W        W 4857  37.585  30.994  12.577
39631W        W 4858  14.026  40.707   1.836
39632W        W 4859   2.652  44.700   1.881
39633W        W 4860  37.710  35.683  11.085
39634W        W 4861  30.391  22.172  11.561
39635W        W 4862  20.379  22.591  10.324
39636W        W 4863  14.263   6.407  12.375
39637W        W 4864  12.139  30.909   2.433
39638W        W 4865  16.638  37.001  10.574
39639W        W 4866  10.623  24.935   1.756
39640W        W 4867  16.601  38.895   4.106
39641W        W 4868  26.779  15.837  14.055
39642W        W 4869  11.758  31.072  13.206
39643W        W 4870  39.919   7.052   4.198
39644W        W 4871  34.753  16.164  10.022
39645W        W 4872   4.815   5.360   2.316
39646W        W 4873  11.631  28.913  12.521
39647W        W 4874   6.145   4.768  10.488
39648W        W 4875  19.854  33.060  12.939
39649W        W 4876  33.844  21.995   0.512
39650W        W 4877  27.933  42.029   0.457
39651W        W 4878  27.166  16.918   1.493
39652W        W 4879  20.196  20.493   2.815
39653W        W 4880  40.749  22.958  12.546
39654W        W 4881   8.618  36.387   4.545
39655W        W 4882  29.525  31.053   4.310
39656W        W 4883  42.220  25.044   1.683
39657W        W 4884  24.105  13.418  10.840
39658W        W 4885   0.429  18.239  12.497
39659W        W 4886  17.550   7.846  12.546
39660W        W 4887  11.227  33.014  14.965
39661W        W 4888   0.475   7.666   0.352
39662W        W 4889  42.235  22.828   3.123
39663W        W 4890  42.334  11.196   0.154
39664W        W 4891  24.149  37.910   3.810
39665W        W 4892  28.175  39.711  11.513
39666W        W 4893  18.052  23.766  14.819
39667W        W 4894  39.271  43.807   1.311
39668W        W 4895  43.539  30.900  14.180
39669W        W 4896  26.116  18.245  14.265
39670W        W 4897  38.849  24.708   4.064
39671W        W 4898  44.916  41.743  11.170
39672W        W 4899   6.302  10.872   0.012
39673W        W 4900  32.447   6.654  11.286
39674W        W 4901  41.633  17.007  11.853
39675W        W 4902  15.870  25.167  12.518
39676W        W 4903  37.576  18.242   0.958
39677W        W 4904  39.947  34.298   2.304
39678W        W 4905  40.458  22.473  14.784
39679W        W 4906  28.073   9.059  11.674
39680W        W 4907  26.378  17.602  12.387
39681W        W 4908   5.648  24.098  14.890
39682W        W 4909  28.952  10.812  10.642
39683W        W 4910   4.230  25.987  13.089
39684W        W 4911  25.960  32.009   4.451
39685W        W 4912  37.056  17.783  12.858
39686W        W 4913  42.295   5.354   4.109
39687W        W 4914  20.799  10.120   3.078
39688W        W 4915  10.215  39.899   1.340
39689W        W 4916  44.709  12.535  13.961
39690W        W 4917  33.857  16.724   3.627
39691W        W 4918  30.894  38.908   0.964
39692W        W 4919  31.342  10.494   4.993
39693W        W 4920  43.438  24.199  12.282
39694W        W 4921  33.450  15.722  11.251
39695W        W 4922   9.510  20.309  14.374
39696W        W 4923  34.632  23.537   0.839
39697W        W 4924  33.581  13.533   5.431
39698W        W 4925  12.553  44.552   1.985
39699W        W 4926  29.483  38.647   2.662
39700W        W 4927  11.399  37.498   1.662
39701W        W 4928   7.826  34.419  12.528
39702W        W 4929  25.860  25.439  12.928
39703W        W 4930  43.091  15.510   0.287
39704W        W 4931  22.385  16.528   0.483
39705W        W 4932  27.892   3.572   0.145
39706W        W 4933  10.635  27.777   0.348
39707W        W 4934   8.663  33.392   4.706
39708W        W 4935  12.291  34.109   0.240
39709W        W 4936  17.993  14.598   0.041
39710W        W 4937  36.312  16.608   2.815
39711W        W 4938   2.352   0.557   4.562
39712W        W 4939  14.721  30.052   4.274
39713W        W 4940  18.895  11.458  10.722
39714W        W 4941   0.745  23.794   3.679
39715W        W 4942  13.958  11.268  14.934
39716W        W 4943   7.902  34.124  10.634
39717W        W 4944  30.831  18.828   4.193
39718W        W 4945  39.047  10.711   1.868
39719W        W 4946  38.121  10.751  14.874
39720W        W 4947  18.658  44.664   0.299
39721W        W 4948  35.618   5.268   1.158
39722W        W 4949  28.121  25.649   0.684
39723W        W 4950  15.341  44.944  14.421
39724W        W 4951  22.662  36.674  10.607
39725W        W 4952  42.015  11.010  11.718
39726W        W 4953  12.000  17.567  11.529
39727W        W 4954  33.808  25.650   1.286
39728W        W 4955  40.268  34.991  13.594
39729W        W 4956  27.120  16.270  13.378
39730W        W 4957  19.341  18.754  14.530
39731W        W 4958  15.858  26.750   0.552
39732W        W 4959  26.009  18.244  12.357
39733W        W 4960   4.513   4.307   2.951
39734W        W 4961  32.775   3.805  11.020
39735W        W 4962  36.296   5.828  10.812
39736W        W 4963  29.579  16.994  14.320
39737W        W 4964  18.946   1.002  11.206
39738W        W 4965  29.812  24.045  14.812
39739W        W 4966  37.972   9.386  12.639
39740W        W 4967   1.361  11.624  14.905
39741W        W 4968  13.214  20.142   1.388
39742W        W 4969  23.156   9.351  10.724
39743W        W 4970  13.568   6.061  11.201
39744W        W 4971  15.795  15.515   2.115
39745W        W 4972  41.877  26.857  11.515
39746W        W 4973  36.630  14.366   9.855
39747W        W 4974  23.111   4.472  14.470
39748W        W 4975   4.274  33.845  14.072
39749W        W 4976  17.551  29.033   3.680
39750W        W 4977  44.028  22.043  14.374
39751W        W 4978  31.208   0.478   3.773
39752W        W 4979  32.687  11.263  13.326
39753W        W 4980  39.969  29.944  13.656
39754W        W 4981  39.474  43.480   2.801
39755W        W 4982  36.936  37.601  10.901
39756W        W 4983  29.167  36.753   4.081
39757W        W 4984  25.315  20.767   1.801
39758W        W 4985   2.918  44.821  13.439
39759W        W 4986  38.427   6.892   0.699
39760W        W 4987   0.066  11.177  13.979
39761W        W 4988  28.459  12.668   4.991
39762W        W 4989  26.602  10.457   1.845
39763W        W 4990  10.884  22.941  13.961
39764W        W 4991  10.862  14.130   0.384
39765W        W 4992  35.251   3.101   5.023
39766W        W 4993  12.302   8.964   3.805
39767W        W 4994  14.615  35.172  12.071
39768W        W 4995  25.447  17.716  12.952
39769W        W 4996  33.373  40.894  13.805
39770W        W 4997  33.539   7.836  10.683
39771W        W 4998  16.525  42.184   4.399
39772W        W 4999  24.023  44.898   9.850
39773W        W 5000  34.860  42.948   1.857
39774W        W 5001  28.118  31.172   2.415
39775W        W 5002   8.688  38.352   1.868
39776W        W 5003  16.775  17.305  12.896
39777W        W 5004  28.175  32.847  11.947
39778W        W 5005  41.826  22.087   4.200
39779W        W 5006   8.886  36.048  12.885
39780W        W 5007  22.835  17.707   4.658
39781W        W 5008  35.718  26.723  14.572
39782W        W 5009  22.249  41.483  11.150
39783W        W 5010  43.177  37.756  11.541
39784W        W 5011  19.345  10.149  10.586
39785W        W 5012  23.095  44.504  13.717
39786W        W 5013  16.803  13.139   4.046
39787W        W 5014   6.403   0.996   0.869
39788W        W 5015  16.873   4.508   1.194
39789W        W 5016  22.997  15.219  11.491
39790W        W 5017  32.494  44.422  13.028
39791W        W 5018  31.151   8.856  10.669
39792W        W 5019  15.881  13.267  12.971
39793W        W 5020  21.552  11.653   4.599
39794W        W 5021  11.070  27.152   3.209
39795W        W 5022  18.239   9.618  13.914
39796W        W 5023  38.807   4.474   5.475
39797W        W 5024  29.555   9.598   4.587
39798W        W 5025   8.093  26.897  11.741
39799W        W 5026  15.644  36.884  14.477
39800W        W 5027   1.885  35.881   0.745
39801W        W 5028  10.155  40.813  12.497
39802W        W 5029  44.637   9.779  14.728
39803W        W 5030  16.424  35.146   4.121
39804W        W 5031  12.233  15.359  13.607
39805W        W 5032  40.841  33.334  14.035
39806W        W 5033  18.721  39.264   0.482
39807W        W 5034  29.173   7.932  11.061
39808W        W 5035  39.574  29.179   3.660
39809W        W 5036   8.753   4.235  10.582
39810W        W 5037  21.042  14.604  12.013
39811W        W 5038  19.468  34.965  13.436
39812W        W 5039   8.398  25.988   1.701
39813W        W 5040  13.770  19.923   4.203
39814W        W 5041  29.148  42.868   3.580
39815W        W 5042   1.927  30.601   2.315
39816W        W 5043  23.607  11.158  11.718
39817W        W 5044  18.460   1.515   2.731
39818W        W 5045  31.272  14.864   4.928
39819W        W 5046  21.905  31.935   2.587
39820W        W 5047  38.326  34.811   4.609
39821W        W 5048  13.843  30.423   0.060
39822W        W 5049  41.624  16.473   3.737
39823W        W 5050  37.810  41.504   2.880
39824W        W 5051  38.345  26.573   4.543
39825W        W 5052   7.169  40.096   0.771
39826W        W 5053  11.165  25.782  12.991
39827W        W 5054  11.177  30.488  13.524
39828W        W 5055  30.533  13.849   1.505
39829W        W 5056   1.293  26.433  11.064
39830W        W 5057  25.096  30.715   0.377
39831W        W 5058   0.468  42.571   1.824
39832W        W 5059  44.253  34.785   4.562
39833W        W 5060  28.838  22.194  13.107
39834W        W 5061  19.736  42.688  11.040
39835W        W 5062  39.333  26.355   1.296
39836W        W 5063  18.243  36.135   4.594
39837W        W 5064  31.147  22.660   4.028
39838W        W 5065  43.407  40.649   0.695
39839W        W 5066  30.622  42.890   0.360
39840W        W 5067  17.816  24.191  14.719
39841W        W 5068  10.076   0.409   1.918
39842W        W 5069  31.003  25.607  10.138
39843W        W 5070  19.761  39.542  14.240
39844W        W 5071  25.029   4.519  14.197
39845W        W 5072   0.380  44.195  11.167
39846W        W 5073   5.152  15.134  11.611
39847W        W 5074  33.166   8.623  10.498
39848W        W 5075  19.602   1.368   1.904
39849W        W 5076   3.505  36.758   0.879
39850W        W 5077  15.946   5.383   1.158
39851W        W 5078   6.950  21.549  13.897
39852W        W 5079  42.452   3.305  14.860
39853W        W 5080   4.059   3.116  10.737
39854W        W 5081  27.649   1.756   3.800
39855W        W 5082   2.628  35.960  13.543
39856W        W 5083  11.842  19.450  13.118
39857W        W 5084  10.336  20.578   1.800
39858W        W 5085  26.956  33.561   2.189
39859W        W 5086  20.249  29.875  12.583
39860W        W 5087  25.150   6.999   4.109
39861W        W 5088  34.743  36.250  10.052
39862W        W 5089  25.447  38.017  11.633
39863W        W 5090  28.550  19.666   0.664
39864W        W 5091  12.124  43.557   3.886
39865W        W 5092   3.653  33.293  11.694
39866W        W 5093   5.863  35.517  11.106
39867W        W 5094  12.654   5.199  11.489
39868W        W 5095  13.243  13.356  14.550
39869W        W 5096   3.753  29.525  11.610
39870W        W 5097  37.995   8.292   2.187
39871W        W 5098  11.628  13.298  12.322
39872W        W 5099   8.779   5.927   0.338
39873W        W 5100   4.894  43.845   9.892
39874W        W 5101  39.039  20.570  10.932
39875W        W 5102  24.596  11.155   0.914
39876W        W 5103  25.636  17.763   4.586
39877W        W 5104  16.225  21.508   3.108
39878W        W 5105   7.377   0.498   4.023
39879W        W 5106  39.571  27.944  13.477
39880W        W 5107   1.772   6.280   0.439
39881W        W 5108   4.390   7.270   4.649
39882W        W 5109  34.592   0.358   1.131
39883W        W 5110  13.589  14.331   4.066
39884W        W 5111   6.938   8.997   2.892
39885W        W 5112  29.402  33.173   0.023
39886W        W 5113   3.254  43.413  14.527
39887W        W 5114  42.815  18.104  11.127
39888W        W 5115   1.468  28.316   4.368
39889W        W 5116  29.885  22.183  14.077
39890W        W 5117  35.040  24.289  14.611
39891W        W 5118  33.426  10.649   3.240
39892W        W 5119  21.690  13.739  14.392
39893W        W 5120  16.032   9.454  13.280
39894W        W 5121   6.746  32.878  13.394
39895W        W 5122  39.022  31.642   4.554
39896W        W 5123  40.864  37.369   4.976
39897W        W 5124  29.957  19.563   0.019
39898W        W 5125  20.306  23.654  13.826
39899W        W 5126  31.327  39.000  13.455
39900W        W 5127  25.949   0.392   2.800
39901W        W 5128  10.992   2.200  11.255
39902W        W 5129  16.021  12.900   0.757
39903W        W 5130   0.419   3.042   3.905
39904W        W 5131  33.423  14.226   0.003
39905W        W 5132   9.525  30.569  12.315
39906W        W 5133   6.573  18.375   4.066
39907W        W 5134  40.552  30.400   0.841
39908W        W 5135   2.342  11.376  13.449
39909W        W 5136  16.196  22.922  11.176
39910W        W 5137  40.431  33.845  12.560
39911W        W 5138   8.858  33.472  11.221
39912W        W 5139  21.427  32.091  12.568
39913W        W 5140  33.239  21.664   4.330
39914W        W 5141   5.307  11.996   1.806
39915W        W 5142  35.430  28.956  13.148
39916W        W 5143  12.115  35.554   1.411
39917W        W 5144  19.324   0.751  12.475
39918W        W 5145  27.020   3.684   4.520
39919W        W 5146  30.040  30.765   0.296
39920W        W 5147  44.015  21.535   1.198
39921W        W 5148   3.164   3.678  12.328
39922W        W 5149  39.550  28.569   2.039
39923W        W 5150  19.594   1.410   4.734
39924W        W 5151  30.128  33.947   2.248
39925W        W 5152  36.267  25.210  14.533
39926W        W 5153   4.172  24.119   1.442
39927W        W 5154  32.030  27.004  14.929
39928W        W 5155  11.326  17.235  13.935
39929W        W 5156   6.360  32.079   1.138
39930W        W 5157  33.589  20.656  10.995
39931W        W 5158  13.649   3.168  12.646
39932W        W 5159  40.811  10.827   3.069
39933W        W 5160  42.967   6.902   2.342
39934W        W 5161   6.440  25.916  12.667
39935W        W 5162  37.291  12.418   2.359
39936W        W 5163  21.590  22.311  12.879
39937W        W 5164  38.268  41.277   0.667
39938W        W 5165  41.777   7.665  10.676
39939W        W 5166   2.409  18.335   3.766
39940W        W 5167   9.793  22.639  11.520
39941W        W 5168  25.564  42.768  13.643
39942W        W 5169  29.819  14.651  12.186
39943W        W 5170  13.193  44.263   4.809
39944W        W 5171   5.289   5.968   3.478
39945W        W 5172  23.942  38.445   4.445
39946W        W 5173  10.697   2.495   1.278
39947W        W 5174   3.046  22.655   1.715
39948W        W 5175   6.905  26.918   1.482
39949W        W 5176  19.675  24.138  14.280
39950W        W 5177   8.361  29.138   0.338
39951W        W 5178  10.111  15.592   0.886
39952W        W 5179   5.037  35.856   1.815
39953W        W 5180  26.617  39.312  12.025
39954W        W 5181  11.973  30.811   1.395
39955W        W 5182  22.246  43.527  13.435
39956W        W 5183  20.237  35.410  13.376
39957W        W 5184   0.475  41.537  14.779
39958W        W 5185  35.686  10.652  11.148
39959W        W 5186   3.031  24.365  13.071
39960W        W 5187  32.408  44.824   1.285
39961W        W 5188  18.858  17.529  11.507
39962W        W 5189  15.222  41.669  11.993
39963W        W 5190  29.659  28.933   0.367
39964W        W 5191  39.098  41.676   0.721
39965W        W 5192  37.590  12.646   2.007
39966W        W 5193   7.163  21.739   0.308
39967W        W 5194  11.730  12.357  11.943
39968W        W 5195  17.646  41.848   1.387
39969W        W 5196  24.187  17.161   3.749
39970W        W 5197  10.700  14.367  14.922
39971W        W 5198   1.932   0.718   3.569
39972W        W 5199  27.440  17.709   0.843
39973W        W 5200   3.254   8.418  14.997
39974W        W 5201  36.779   1.282  11.259
39975W        W 5202  25.756  22.600   4.296
39976W        W 5203  35.952  16.565   2.257
39977W        W 5204  43.435  42.569  12.174
39978W        W 5205  15.640  16.385   0.825
39979W        W 5206   1.975  18.325   0.390
39980W        W 5207   4.988   5.709   1.674
39981W        W 5208   1.910  13.438  10.680
39982W        W 5209  25.966   6.780  11.967
39983W        W 5210  27.144  32.228   3.742
39984W        W 5211  32.832  11.229   1.863
39985W        W 5212   0.994  38.689  13.881
39986W        W 5213  12.464  11.777   0.843
39987W        W 5214   8.604  37.442  13.113
39988W        W 5215  33.065  16.158   1.306
39989W        W 5216  14.713   1.114   2.656
39990W        W 5217   4.841  19.816  13.411
39991W        W 5218  14.420  29.629   4.211
39992W        W 5219  38.460  35.953  11.722
39993W        W 5220  10.975  32.121   0.183
39994W        W 5221  11.263  24.763  12.910
39995W        W 5222   5.115  12.984   0.288
39996W        W 5223  26.984  20.871  12.941
39997W        W 5224  25.216  30.134   0.296
39998W        W 5225   5.932   3.779   0.846
39999W        W 5226  41.241   1.987   3.295
40000W        W 5227  30.669   7.359   4.169
40001W        W 5228  15.739  31.229  11.607
40002W        W 5229  15.566  41.536  13.798
40003W        W 5230  11.831  24.533   2.204
40004W        W 5231  38.050   9.850  12.451
40005W        W 5232  15.790   6.255  11.461
40006W        W 5233  14.673  35.392   3.750
40007W        W 5234  11.135   5.192  11.852
40008W        W 5235  23.492  28.022   4.174
40009W        W 5236  40.098  20.039   0.868
40010W        W 5237   0.512   3.823   1.799
40011W        W 5238  24.462   2.825   1.822
40012W        W 5239  33.066  30.399   4.132
40013W        W 5240  28.610  25.995  11.560
40014W        W 5241  41.297  40.801  14.781
40015W        W 5242  11.755  43.590  13.541
40016W        W 5243   2.467  33.468   1.394
40017W        W 5244  10.088   1.389  12.907
40018W        W 5245  27.108  21.288   2.601
40019W        W 5246  31.688   5.778   2.329
40020W        W 5247  40.154  30.881  13.362
40021W        W 5248   0.764  30.882  11.465
40022W        W 5249  23.964  38.958   0.876
40023W        W 5250  23.215  10.151   1.279
40024W        W 5251   4.513  21.497  10.609
40025W        W 5252  17.312  10.280   0.819
40026W        W 5253   4.299   6.419  14.251
40027W        W 5254   7.135  30.437   3.147
40028W        W 5255  24.943  42.914   4.198
40029W        W 5256   1.481   3.621   1.695
40030W        W 5257  42.265  36.029  11.060
40031W        W 5258  12.804  19.897  14.447
40032W        W 5259  26.436  30.614   4.099
40033W        W 5260  41.810  43.847   1.472
40034W        W 5261  34.084  42.983  11.553
40035W        W 5262  34.792  11.417   3.933
40036W        W 5263  20.735   0.580  13.260
40037W        W 5264  41.809  32.175   0.312
40038W        W 5265  15.153  12.613   2.368
40039W        W 5266  33.841  39.464   0.203
40040W        W 5267  14.510   6.209  14.382
40041W        W 5268  29.455  39.394   3.304
40042W        W 5269  18.208  44.214  10.742
40043W        W 5270   7.325  17.796   1.945
40044W        W 5271   0.451  11.205   3.639
40045W        W 5272  41.540  41.505   2.762
40046W        W 5273  22.154   4.865   0.945
40047W        W 5274   9.633  36.590   3.754
40048W        W 5275  31.628  13.826   2.426
40049W        W 5276  33.411  15.576  14.522
40050W        W 5277   8.849  28.506  10.767
40051W        W 5278  31.885  16.674   4.031
40052W        W 5279  11.715   0.349   3.224
40053W        W 5280   9.548  16.498   1.722
40054W        W 5281  25.225  37.541  13.744
40055W        W 5282  15.851  32.895   1.932
40056W        W 5283  39.008   6.296   0.807
40057W        W 5284  34.325  13.539  11.077
40058W        W 5285  31.133  42.882  11.666
40059W        W 5286  11.323  41.937   4.201
40060W        W 5287  14.940   9.144   2.940
40061W        W 5288  34.304   5.392  14.041
40062W        W 5289   0.026  12.549  12.951
40063W        W 5290  12.102   5.877  12.644
40064W        W 5291  17.731  44.394  10.950
40065W        W 5292  24.039  27.993  14.859
40066W        W 5293  29.482  44.308  10.566
40067W        W 5294   9.640  27.552   4.624
40068W        W 5295   5.656  13.779  12.859
40069W        W 5296  29.906  28.880  13.753
40070W        W 5297  16.552  25.355  11.960
40071W        W 5298  27.651  12.845  11.967
40072W        W 5299  17.038  14.081  14.922
40073W        W 5300  30.147  29.962   2.455
40074W        W 5301   6.835   4.257   0.538
40075W        W 5302  12.564  21.304  12.910
40076W        W 5303  18.203  35.599   4.645
40077W        W 5304   9.748  27.263   1.152
40078W        W 5305  29.617  23.645   0.106
40079W        W 5306  40.513   3.900  13.982
40080W        W 5307  20.580   5.738  14.058
40081W        W 5308  32.353  28.836  11.446
40082W        W 5309   5.849  19.799  12.104
40083W        W 5310   9.053   1.339  13.053
40084W        W 5311  15.606  42.744   2.787
40085W        W 5312  14.396  23.719   4.639
40086W        W 5313   2.688   2.945  13.677
40087W        W 5314  27.444   4.025  14.553
40088W        W 5315  37.098  40.215  13.535
40089W        W 5316  39.826  26.263  12.963
40090W        W 5317  37.097  12.760  13.633
40091W        W 5318  28.781  18.138  14.216
40092W        W 5319   7.925   2.948   2.169
40093W        W 5320  31.560   9.190  12.054
40094W        W 5321  41.863   8.631  13.310
40095W        W 5322  19.564  20.606  13.493
40096W        W 5323  40.341  17.578   0.587
40097W        W 5324  14.531   0.622  14.944
40098W        W 5325  21.753  21.312  11.700
40099W        W 5326  31.072  15.864   4.514
40100W        W 5327  32.950  26.318   2.069
40101W        W 5328  14.605  33.082   2.207
40102W        W 5329   5.100  13.548  11.058
40103W        W 5330   7.209  41.684   4.703
40104W        W 5331  40.279  21.697  13.338
40105W        W 5332  25.000  18.495  13.675
40106W        W 5333   9.191   0.728   2.242
40107W        W 5334   5.750  42.488   2.414
40108W        W 5335  31.846  24.606   1.147
40109W        W 5336   7.678   1.233  11.809
40110W        W 5337  10.283  38.332  12.574
40111W        W 5338  43.262  25.024   2.590
40112W        W 5339  33.516  23.980  10.963
40113W        W 5340   1.291   6.101  11.576
40114W        W 5341  43.101  18.128   2.727
40115W        W 5342  41.195  44.416  12.610
40116W        W 5343   4.981   6.916  11.967
40117W        W 5344  34.442  12.288   2.654
40118W        W 5345  40.051  10.614   5.206
40119W        W 5346  19.552  43.913  11.951
40120W        W 5347  39.679  13.279   4.259
40121W        W 5348  19.278   8.280   4.818
40122W        W 5349  33.681   8.848  12.813
40123W        W 5350  17.493  30.186   0.743
40124W        W 5351  28.030  21.146   3.202
40125W        W 5352   4.641   0.932   3.879
40126W        W 5353  25.966  38.902  14.058
40127W        W 5354  35.109  37.849  10.681
40128W        W 5355  39.371  34.970  13.906
40129W        W 5356  20.158  38.686   3.873
40130W        W 5357  30.565   5.121  14.863
40131W        W 5358   9.608   2.298   4.218
40132W        W 5359  35.909  11.446   3.221
40133W        W 5360  38.819  44.662   0.709
40134W        W 5361  33.011  15.624   0.492
40135W        W 5362  23.282   6.309   3.339
40136W        W 5363  43.829  23.611   2.019
40137W        W 5364  10.989  12.652   3.745
40138W        W 5365  12.201  31.625  12.944
40139W        W 5366  26.002  33.482   0.084
40140W        W 5367   3.006  12.844  13.849
40141W        W 5368  20.695   4.326   0.896
40142W        W 5369  42.660  35.328  14.019
40143W        W 5370   7.655  22.009  14.034
40144W        W 5371  39.118  28.941   2.880
40145W        W 5372  23.114   2.535   0.757
40146W        W 5373   2.627   9.214   0.987
40147W        W 5374   6.017   2.052   3.750
40148W        W 5375   0.271   9.494  12.591
40149W        W 5376   4.485   5.314  14.007
40150W        W 5377  42.023   0.227   0.540
40151W        W 5378  35.164   9.640  11.607
40152W        W 5379  15.664  30.702   9.974
40153W        W 5380  23.083  28.605   3.636
40154W        W 5381  24.336   4.045  10.834
40155W        W 5382  28.259  24.743  11.224
40156W        W 5383  44.863  18.247   4.615
40157W        W 5384  41.442  38.103   0.657
40158W        W 5385  19.135  36.124  11.585
40159W        W 5386  35.124  23.061   2.910
40160W        W 5387  37.723   3.595  12.052
40161W        W 5388  13.180  18.345   3.634
40162W        W 5389  37.216  35.311  12.893
40163W        W 5390  18.300  30.425  11.103
40164W        W 5391  26.529  19.277   1.752
40165W        W 5392  11.335   7.955   2.336
40166W        W 5393  25.630  39.292   4.750
40167W        W 5394  18.001   4.149   3.522
40168W        W 5395  37.479  42.225   0.447
40169W        W 5396  13.637   9.808  11.322
40170W        W 5397  39.991  25.708  11.908
40171W        W 5398  29.018  15.808  13.752
40172W        W 5399  40.934  18.902  13.799
40173W        W 5400  11.750   8.511   4.194
40174W        W 5401  43.828  19.794   4.131
40175W        W 5402  36.070  20.702   0.854
40176W        W 5403  38.622   1.330  14.747
40177W        W 5404   3.324  20.209  13.441
40178W        W 5405  15.799   4.082  10.888
40179W        W 5406  40.243  31.387   0.086
40180W        W 5407  13.532  42.727   4.147
40181W        W 5408   5.312  43.686  11.602
40182W        W 5409  35.528  43.748  11.415
40183W        W 5410  42.453  33.051   1.785
40184W        W 5411   6.185  13.367  13.275
40185W        W 5412  30.875  28.354  14.874
40186W        W 5413  23.744   9.246   3.109
40187W        W 5414  16.610  23.745  13.369
40188W        W 5415  29.881  31.067   2.199
40189W        W 5416  20.187  35.542  10.851
40190W        W 5417  25.249  39.166   3.647
40191W        W 5418  28.056   2.533  11.536
40192W        W 5419  27.692  19.664  14.764
40193W        W 5420  11.717  12.402   0.224
40194W        W 5421  35.148  13.328  12.409
40195W        W 5422  33.991  23.907   2.787
40196W        W 5423  11.865  41.060   2.706
40197W        W 5424  20.712   6.163  11.456
40198W        W 5425  30.608  25.514  11.554
40199W        W 5426  34.632   1.713   2.294
40200W        W 5427  11.402  25.969   2.838
40201W        W 5428  39.552  37.777   2.672
40202W        W 5429  34.046  33.135  12.363
40203W        W 5430  13.220   2.995  11.041
40204W        W 5431  17.458  24.538   3.157
40205W        W 5432  12.742  14.405   4.897
40206W        W 5433  43.092  20.431   5.026
40207W        W 5434  31.650  41.459  13.771
40208W        W 5435  15.195   5.770   3.102
40209W        W 5436  32.297  33.445   5.067
40210W        W 5437  24.229  41.474  10.900
40211W        W 5438  26.982  34.208  11.771
40212W        W 5439  41.329  11.653   4.424
40213W        W 5440  12.855  27.148   3.957
40214W        W 5441  24.612  27.565   2.857
40215W        W 5442  10.552   5.796  11.458
40216W        W 5443  10.773  23.620   3.747
40217W        W 5444  25.087   1.160   0.265
40218W        W 5445  26.598   8.908  12.427
40219W        W 5446  22.984  14.674   0.373
40220W        W 5447   9.155  14.419  14.995
40221W        W 5448  16.111  19.354  12.617
40222W        W 5449  32.642  40.243   4.480
40223W        W 5450  25.022  41.028   4.725
40224W        W 5451  15.767  14.783   1.812
40225W        W 5452  36.854   9.837  13.875
40226W        W 5453  19.551   6.802   3.811
40227W        W 5454  10.782  21.686   3.074
40228W        W 5455   8.361  43.397  10.530
40229W        W 5456  29.446  21.558   3.123
40230W        W 5457  28.965  25.511   1.059
40231W        W 5458   8.890  40.190  12.439
40232W        W 5459  29.571   0.751   2.404
40233W        W 5460  29.520  15.639  12.987
40234W        W 5461  38.223  18.689  12.239
40235W        W 5462  34.099   2.826  14.804
40236W        W 5463  38.386   7.180   0.238
40237W        W 5464  18.676  18.840   3.424
40238W        W 5465   5.452  36.134  11.037
40239W        W 5466  36.543  19.913   5.170
40240W        W 5467  41.549  24.081   1.368
40241W        W 5468  18.718  40.799  12.490
40242W        W 5469  42.255  38.906  12.496
40243W        W 5470  44.205  10.051   4.305
40244W        W 5471  18.178  25.494   0.388
40245W        W 5472  25.912  10.098   2.355
40246W        W 5473  30.321  14.917  12.897
40247W        W 5474   4.955  13.273  11.662
40248W        W 5475  30.825  26.217  10.755
40249W        W 5476  29.200  32.565  14.884
40250W        W 5477  24.030  15.085  14.562
40251W        W 5478  16.331  32.538  13.318
40252W        W 5479   6.271  13.347   3.907
40253W        W 5480  40.799  43.422  13.099
40254W        W 5481  31.177   3.840   4.207
40255W        W 5482  20.191  21.644   3.643
40256W        W 5483  12.233   8.679  12.846
40257W        W 5484  40.199  35.445  14.795
40258W        W 5485   9.221  40.522  12.657
40259W        W 5486  38.962  31.385  14.169
40260W        W 5487  15.053  17.161   3.235
40261W        W 5488  40.713  14.103  14.749
40262W        W 5489  16.126   8.177   0.781
40263W        W 5490  23.701  11.128  12.573
40264W        W 5491  12.400  39.581  12.378
40265W        W 5492  32.708  21.123   0.986
40266W        W 5493  42.151  40.832   0.383
40267W        W 5494  23.326  21.050   1.916
40268W        W 5495  38.882  30.086  10.038
40269W        W 5496  36.613  36.596   1.753
40270W        W 5497  43.185  38.836  14.030
40271W        W 5498  35.841  29.687  12.505
40272W        W 5499  44.042  32.106   3.855
40273W        W 5500  12.365  25.053  13.961
40274W        W 5501   6.104  15.288  14.792
40275W        W 5502   8.335   9.296  10.976
40276W        W 5503  29.377  44.674   1.061
40277W        W 5504   7.339  30.424   2.272
40278W        W 5505  19.133  28.647   0.270
40279W        W 5506  39.024   7.236  14.387
40280W        W 5507  26.878  15.061  12.215
40281W        W 5508  15.242  35.475   1.740
40282W        W 5509  12.606  23.708  12.587
40283W        W 5510   2.795  38.186   0.295
40284W        W 5511  43.308  17.683   1.687
40285W        W 5512   0.734   0.958   3.659
40286W        W 5513   6.961  37.861  10.793
40287W        W 5514   7.946  25.461   1.076
40288W        W 5515  34.909  23.659  12.573
40289W        W 5516  36.879  25.133   4.630
40290W        W 5517   2.182  41.553   0.122
40291W        W 5518  19.617  22.564  11.596
40292W        W 5519  31.847   4.017  11.976
40293W        W 5520  29.722  17.135   3.769
40294W        W 5521  18.063  31.589  14.283
40295W        W 5522   3.106  36.902  12.897
40296W        W 5523  19.295  16.695   0.410
40297W        W 5524   1.726  13.901  10.889
40298W        W 5525   8.302  19.865   4.916
40299W        W 5526  39.332  10.351   4.674
40300W        W 5527  37.006  26.206   2.543
40301W        W 5528   7.879   3.162  12.077
40302W        W 5529  10.825   6.270  13.872
40303W        W 5530  32.323  21.045   4.557
40304W        W 5531  17.311  30.470   4.705
40305W        W 5532  33.601  36.040   2.108
40306W        W 5533   0.797   9.809   1.999
40307W        W 5534  43.685  27.385   2.749
40308W        W 5535  29.050   0.259  13.417
40309W        W 5536  34.349   6.871   4.616
40310W        W 5537  44.176  26.177   4.186
40311W        W 5538  23.576  11.118  13.957
40312W        W 5539  40.474  40.085   3.724
40313W        W 5540  15.662  28.404   3.252
40314W        W 5541   1.449  34.228   4.831
40315W        W 5542  27.690  24.682   2.685
40316W        W 5543  22.686  36.632  11.141
40317W        W 5544  23.067  41.943   1.605
40318W        W 5545  12.685  39.775  13.096
40319W        W 5546   2.306  19.205   0.732
40320W        W 5547  32.524  34.067  13.565
40321W        W 5548  21.489  25.200  13.418
40322W        W 5549  44.322   5.901   2.940
40323W        W 5550   9.831  30.392   3.732
40324W        W 5551  42.113   7.225  11.540
40325W        W 5552  22.937  26.551   1.737
40326W        W 5553  33.029   6.541  13.080
40327W        W 5554   7.945  19.180   9.779
40328W        W 5555  14.108   1.265   3.401
40329W        W 5556  16.247  31.841   4.460
40330W        W 5557  14.285   6.420  11.551
40331W        W 5558   9.773   7.267  12.508
40332W        W 5559  37.027  42.868  13.673
40333W        W 5560  26.471  12.492  10.348
40334W        W 5561   0.850  29.137  12.375
40335W        W 5562  36.365   1.392  13.740
40336W        W 5563  11.842  27.319   0.617
40337W        W 5564  23.287  10.693  12.346
40338W        W 5565  34.351   6.100   3.057
40339W        W 5566   9.824  21.552  12.023
40340W        W 5567   2.090  16.335   0.701
40341W        W 5568  13.391  13.688   0.517
40342W        W 5569  25.331  41.375   4.190
40343W        W 5570   0.895  16.828  13.435
40344W        W 5571  24.983  31.833   3.299
40345W        W 5572   6.288  41.940  12.358
40346W        W 5573  35.839  14.638  14.867
40347W        W 5574  14.161  31.361  14.459
40348W        W 5575   4.874  13.853   0.913
40349W        W 5576  44.824   2.255   3.619
40350W        W 5577  24.086  40.018   0.257
40351W        W 5578  41.443  32.585   2.839
40352W        W 5579  43.824  23.565   3.861
40353W        W 5580  42.892  36.668   3.755
40354W        W 5581  26.693  18.544  11.634
40355W        W 5582  33.473   0.471   4.837
40356W        W 5583   1.280   0.392  14.550
40357W        W 5584   9.417   4.056  11.144
40358W        W 5585  25.310  33.373  13.336
40359W        W 5586  40.291  33.699   1.715
40360W        W 5587  30.919  32.876   0.250
40361W        W 5588  17.996  11.655   0.945
40362W        W 5589   9.872  41.042  14.197
40363W        W 5590  39.413  15.662  11.640
40364W        W 5591  38.959  41.032  14.065
40365W        W 5592  44.024  30.041   0.722
40366W        W 5593  19.562  42.035   4.585
40367W        W 5594  21.271   1.454   2.874
40368W        W 5595  29.993  11.735  12.041
40369W        W 5596   0.865  16.279   0.239
40370W        W 5597  21.170  38.165   3.569
40371W        W 5598  39.709  30.370  12.561
40372W        W 5599  32.448  43.330   4.909
40373W        W 5600  13.829   7.832   4.588
40374W        W 5601  36.288  14.191   2.875
40375W        W 5602  16.526  15.337  12.159
40376W        W 5603  42.791  43.164   4.547
40377W        W 5604  22.489  20.531   0.315
40378W        W 5605  14.798  23.624   4.317
40379W        W 5606  27.582  11.444   0.793
40380W        W 5607  40.792  31.343   4.022
40381W        W 5608  42.373  27.993   2.135
40382W        W 5609  44.511  22.664  10.574
40383W        W 5610  39.283  30.077   0.786
40384W        W 5611  30.114  14.656   3.149
40385W        W 5612  36.728   0.081   2.753
40386W        W 5613  39.306  37.386   1.253
40387W        W 5614   8.134  21.475   1.169
40388W        W 5615   0.111  40.725  12.003
40389W        W 5616  36.244  17.626   3.802
40390W        W 5617   1.379  31.532  12.505
40391W        W 5618  30.270   3.662   1.411
40392W        W 5619  34.091  43.925  10.535
40393W        W 5620   1.421  41.781  11.625
40394W        W 5621  19.764  30.893  11.954
40395W        W 5622   1.983  41.294   3.162
40396W        W 5623  11.878   9.196  14.827
40397W        W 5624  18.779  16.164   4.773
40398W        W 5625   9.796  18.228  14.032
40399W        W 5626  35.400  18.071  11.156
40400W        W 5627   6.212  44.245  14.471
40401W        W 5628  41.973  44.315   2.694
40402W        W 5629  25.517  36.448   2.839
40403W        W 5630  27.427  28.968  10.215
40404W        W 5631  39.464  13.706  13.970
40405W        W 5632  33.877  29.408  14.525
40406W        W 5633  43.913  40.700  14.486
40407W        W 5634  25.064   1.176  12.978
40408W        W 5635  10.197  20.919   4.597
40409W        W 5636  41.206   4.013  14.943
40410W        W 5637  42.081  13.325   3.775
40411W        W 5638  14.638   2.449  10.737
40412W        W 5639   6.714  27.619  13.490
40413W        W 5640  19.136   9.516   4.627
40414W        W 5641  28.467  30.849   2.636
40415W        W 5642  36.416  41.282  14.314
40416W        W 5643  17.373  13.557   3.692
40417W        W 5644  42.808  19.708  14.074
40418W        W 5645  39.352  15.148  13.091
40419W        W 5646  35.728   4.665   9.828
40420W        W 5647   7.778  28.824  12.694
40421W        W 5648  44.857  32.163   0.855
40422W        W 5649   3.726   6.895  12.916
40423W        W 5650  27.072  34.818   0.918
40424W        W 5651  15.822  26.626  10.334
40425W        W 5652  26.200  38.256   0.203
40426W        W 5653  42.952  31.257   0.261
40427W        W 5654   7.764  34.470   0.930
40428W        W 5655  13.782  31.495  13.559
40429W        W 5656   6.233  25.970  14.062
40430W        W 5657   2.146  11.753   3.697
40431W        W 5658   0.850  34.491  12.500
40432W        W 5659  10.788  17.666  13.951
40433W        W 5660  24.766   3.348   2.528
40434W        W 5661  15.567   2.412   2.179
40435W        W 5662   0.471  38.693   0.977
40436W        W 5663  21.218   3.210  13.806
40437W        W 5664  21.185  22.396   4.971
40438W        W 5665  42.901  41.786  13.142
40439W        W 5666   7.927  20.705  14.312
40440W        W 5667  29.377  24.596  12.460
40441W        W 5668  38.437  42.419  13.493
40442W        W 5669  16.266  15.721   2.363
40443W        W 5670  24.418   4.179  11.379
40444W        W 5671  21.224  41.383   4.637
40445W        W 5672   6.217  41.649  11.392
40446W        W 5673   4.379  24.477  14.735
40447W        W 5674  14.798  42.922   0.413
40448W        W 5675  20.262  33.451   1.790
40449W        W 5676   9.451   9.737   1.712
40450W        W 5677  40.832  12.665  11.943
40451W        W 5678  26.641   4.814   3.013
40452W        W 5679  27.587  36.978   0.434
40453W        W 5680  17.164  25.654   1.146
40454W        W 5681  12.325  15.038   3.235
40455W        W 5682  44.746  22.161  11.244
40456W        W 5683  34.391  25.006   3.438
40457W        W 5684  29.502  32.704  10.995
40458W        W 5685  29.432  37.817   3.972
40459W        W 5686  12.947  32.065   1.914
40460W        W 5687  14.824  17.296   0.176
40461W        W 5688  25.590  11.321   4.692
40462W        W 5689  16.812  40.801   1.452
40463W        W 5690  31.625  38.888  10.747
40464W        W 5691   9.931   8.307   4.906
40465W        W 5692  40.711  16.891  12.993
40466W        W 5693  16.726  31.938  14.943
40467W        W 5694   5.170  32.337   5.002
40468W        W 5695  41.026   9.846  12.413
40469W        W 5696  39.169  31.887  12.094
40470W        W 5697  28.563   9.229   4.674
40471W        W 5698  24.576  21.857   2.696
40472W        W 5699  28.745  17.613  12.972
40473W        W 5700  19.596  20.142  12.394
40474W        W 5701   8.403  27.604  13.350
40475W        W 5702   3.548  28.730   1.627
40476W        W 5703   8.424  23.423  13.054
40477W        W 5704  44.527  38.918  12.587
40478W        W 5705  13.198   3.657   3.398
40479W        W 5706  22.317   0.886  13.848
40480W        W 5707  28.552  23.000   2.257
40481W        W 5708  31.849  25.775  11.971
40482W        W 5709  11.716  34.032  11.722
40483W        W 5710  27.689  35.004   3.723
40484W        W 5711  24.352  44.335   5.408
40485W        W 5712   6.041  12.670   4.214
40486W        W 5713   6.263  20.642   0.978
40487W        W 5714  22.471  13.747   0.764
40488W        W 5715  25.955  43.975   1.866
40489W        W 5716  19.194  26.385   1.933
40490W        W 5717  24.622   5.631  14.024
40491W        W 5718  25.990  27.444  14.302
40492W        W 5719  11.275  44.111  10.416
40493W        W 5720  30.707  21.328   2.936
40494W        W 5721  12.820  21.608   0.078
40495W        W 5722   0.935  19.396   1.053
40496W        W 5723  26.992  35.342  12.526
40497W        W 5724   1.009  25.833   5.416
40498W        W 5725  15.285   8.268   3.210
40499W        W 5726   9.168  24.948  14.308
40500W        W 5727   0.406  21.864   0.932
40501W        W 5728  44.808   2.028  14.463
40502W        W 5729  35.661  38.943   9.664
40503W        W 5730  22.959  33.321   0.488
40504W        W 5731  34.114   4.256   1.708
40505W        W 5732  12.267   8.399   2.927
40506W        W 5733   8.816  25.215  12.082
40507W        W 5734   0.891   2.115  12.869
40508W        W 5735  17.771   7.934   0.219
40509W        W 5736  42.433  27.192  14.695
40510W        W 5737  33.657  43.999   1.870
40511W        W 5738  11.719  13.847   4.136
40512W        W 5739  36.952   5.642   0.302
40513W        W 5740  16.153  38.075   1.175
40514W        W 5741  25.889  18.587   4.643
40515W        W 5742  23.099   8.625   0.455
40516W        W 5743   6.672  35.067  13.912
40517W        W 5744  42.797  19.571  13.189
40518W        W 5745  34.983  44.052   3.605
40519W        W 5746   7.121  24.549   0.315
40520W        W 5747  23.083  41.472   2.354
40521W        W 5748  36.524  35.527  14.215
40522W        W 5749  29.577  32.587   3.215
40523W        W 5750   2.905  28.210  12.192
40524W        W 5751  36.502  15.669  13.873
40525W        W 5752  34.617  15.078   2.740
40526W        W 5753  11.150  37.168   2.619
40527W        W 5754  14.088  13.366   4.084
40528W        W 5755  11.955  27.185   0.129
40529W        W 5756  41.641  38.987  13.107
40530W        W 5757   0.078   9.924   2.588
40531W        W 5758  37.692  13.617   4.172
40532W        W 5759  41.583   0.995  11.040
40533W        W 5760   7.680  11.674   0.397
40534W        W 5761  17.806  33.677  11.463
40535W        W 5762  35.050  39.951   1.785
40536W        W 5763  28.340  29.378   0.002
40537W        W 5764   6.401  14.741  11.774
40538W        W 5765  13.244   4.922  10.515
40539W        W 5766  24.005  43.447   1.938
40540W        W 5767  42.224   1.915   0.833
40541W        W 5768  42.325  41.990   0.782
40542W        W 5769  40.884  26.742   0.881
40543W        W 5770   9.286   3.475  10.114
40544W        W 5771   5.505  34.472   0.273
40545W        W 5772   8.939  31.166   4.319
40546W        W 5773  16.679  37.016   0.952
40547W        W 5774  14.856   3.644   3.908
40548W        W 5775  14.961  30.110   2.188
40549W        W 5776   7.665  40.457  11.164
40550W        W 5777  10.826  18.618   0.339
40551W        W 5778  39.540  27.294  12.586
40552W        W 5779  40.300   8.117  12.296
40553W        W 5780   4.636  18.295  14.082
40554W        W 5781  34.533  43.074  12.647
40555W        W 5782  29.442   8.205   1.669
40556W        W 5783  11.695  35.256  11.419
40557W        W 5784  32.448   7.064  11.633
40558W        W 5785  26.104  21.241  12.477
40559W        W 5786  17.269  20.721   2.241
40560W        W 5787   0.740   5.427   2.363
40561W        W 5788  28.073  26.156   4.547
40562W        W 5789  23.160  18.341   3.187
40563W        W 5790  20.736   2.097  14.558
40564W        W 5791  11.661  24.595   2.708
40565W        W 5792   4.919  18.259   1.764
40566W        W 5793  17.851   0.020   2.751
40567W        W 5794  22.148  15.651   0.693
40568W        W 5795  42.894  26.205   2.430
40569W        W 5796  20.299  43.366   2.843
40570W        W 5797  34.068   6.202   4.862
40571W        W 5798   7.395  27.909   0.419
40572W        W 5799  44.276  40.915  12.143
40573W        W 5800  14.263  17.361   1.322
40574W        W 5801  30.894  19.054   4.674
40575W        W 5802  20.748  16.256  12.447
40576W        W 5803  29.611  10.197   4.991
40577W        W 5804  23.752  20.222   3.731
40578W        W 5805  30.995   0.846   3.439
40579W        W 5806   2.876   6.736  14.859
40580W        W 5807   8.241  25.898   4.702
40581W        W 5808  25.429  28.927   4.679
40582W        W 5809  21.395  21.589   0.818
40583W        W 5810   2.992  20.335   0.332
40584W        W 5811  17.002   0.002  13.943
40585W        W 5812  15.360  30.105   2.527
40586W        W 5813  33.023  43.743  10.911
40587W        W 5814  40.534  23.117   4.544
40588W        W 5815  34.106  17.298   2.589
40589W        W 5816  32.811  26.048  12.062
40590W        W 5817   4.558  11.914  11.707
40591W        W 5818  16.054  18.099   2.151
40592W        W 5819  33.344   4.342   2.321
40593W        W 5820   7.886   0.545   4.144
40594W        W 5821  42.906   5.701  11.964
40595W        W 5822  40.817  26.869   2.482
40596W        W 5823  38.286  12.304   2.524
40597W        W 5824  33.913  36.089  14.323
40598W        W 5825  21.544  31.637  11.954
40599W        W 5826  33.645  21.596  11.492
40600W        W 5827  40.231  20.657   3.984
40601W        W 5828  18.091   6.714  14.925
40602W        W 5829  36.920   7.444  13.088
40603W        W 5830  42.726  35.605  13.551
40604W        W 5831  15.134  39.437  12.693
40605W        W 5832  42.607  26.915  14.247
40606W        W 5833  34.398  15.620  14.943
40607W        W 5834  35.202  37.243   4.136
40608W        W 5835  13.699   8.444  12.143
40609W        W 5836  22.126  13.631   0.305
40610W        W 5837  40.340  26.251  10.566
40611W        W 5838   6.013  34.008  12.988
40612W        W 5839  23.214  15.792   3.448
40613W        W 5840  42.073  11.318  13.363
40614W        W 5841  14.573  44.745  13.908
40615W        W 5842   8.638  37.644   0.217
40616W        W 5843   5.998  12.273  14.877
40617W        W 5844  44.553  36.172  13.839
40618W        W 5845  15.294  37.926  14.757
40619W        W 5846   7.321  32.628  12.842
40620W        W 5847  29.168  38.047  12.639
40621W        W 5848  23.990  19.337  11.512
40622W        W 5849  22.077  35.190  13.513
40623W        W 5850  21.144  44.741   1.820
40624W        W 5851  15.185  31.042   3.318
40625W        W 5852  20.455  15.505  11.032
40626W        W 5853  27.648  39.636  14.112
40627W        W 5854  40.548  10.067  11.269
40628W        W 5855   7.656  26.232   1.237
40629W        W 5856  13.810  41.923   4.588
40630W        W 5857  13.650  20.978   1.788
40631W        W 5858  43.244  13.725   3.901
40632W        W 5859  36.251  42.705  13.442
40633W        W 5860   9.412  42.797   0.037
40634W        W 5861  18.789  14.876   3.233
40635W        W 5862   5.685  43.567   2.824
40636W        W 5863  26.751  30.164   1.369
40637W        W 5864  26.480  36.554  12.521
40638W        W 5865  42.010  43.802   4.135
40639W        W 5866   9.789   9.210   2.397
40640W        W 5867  38.837  23.999   2.365
40641W        W 5868   2.214  34.570   2.311
40642W        W 5869   6.784   4.380   2.451
40643W        W 5870  42.689  12.570  13.080
40644W        W 5871  24.671  30.799  14.020
40645W        W 5872  38.589  15.493   2.453
40646W        W 5873  15.306  44.352   2.907
40647W        W 5874  19.092  18.545   2.216
40648W        W 5875  12.080  12.098  14.991
40649W        W 5876   4.857   4.660  12.105
40650W        W 5877   1.350  27.948   1.372
40651W        W 5878  13.601  12.721  10.616
40652W        W 5879  18.659   3.582  11.199
40653W        W 5880  42.359  38.576   0.670
40654W        W 5881  27.955  17.174  11.076
40655W        W 5882  32.751  30.212  13.595
40656W        W 5883  31.299   6.052   2.756
40657W        W 5884   5.446  19.197  10.718
40658W        W 5885  28.299  29.173   0.911
40659W        W 5886   7.019   5.780   2.255
40660W        W 5887  20.225  31.321   0.218
40661W        W 5888  22.587  16.373  12.064
40662W        W 5889  33.543  35.782   0.250
40663W        W 5890  28.929  13.314   2.676
40664W        W 5891  25.635  38.944   5.173
40665W        W 5892  40.597  19.660   3.147
40666W        W 5893  20.012  15.611  11.253
40667W        W 5894  28.552   7.827  10.604
40668W        W 5895  44.054  41.655  12.543
40669W        W 5896  37.599   5.180   9.951
40670W        W 5897  41.276  12.076   0.446
40671W        W 5898  12.223  37.344   4.854
40672W        W 5899  31.674  15.925  12.951
40673W        W 5900   9.520   5.915   3.639
40674W        W 5901  19.872  34.986   4.348
40675W        W 5902  10.650  16.620  10.299
40676W        W 5903  35.011  14.313   4.697
40677W        W 5904  40.404  40.801  14.812
40678W        W 5905   4.368   8.613  12.074
40679W        W 5906  10.287  13.164   0.849
40680W        W 5907  13.928  42.401   4.407
40681W        W 5908  20.824  18.269  12.472
40682W        W 5909  16.669   4.874   3.408
40683W        W 5910  26.074   9.438   0.769
40684W        W 5911  10.076   3.257  12.889
40685W        W 5912   7.501  43.128  13.225
40686W        W 5913  12.574  30.487   1.333
40687W        W 5914  20.259   0.753   4.602
40688W        W 5915  26.896  29.975   5.145
40689W        W 5916  18.789  13.191   2.120
40690W        W 5917  14.841  42.417   1.196
40691W        W 5918   1.968  40.870   4.135
40692W        W 5919  37.464  32.542   4.128
40693W        W 5920  25.096  15.350  11.159
40694W        W 5921  40.371   9.090  14.761
40695W        W 5922  31.053  24.155   3.333
40696W        W 5923  22.055  34.874   0.160
40697W        W 5924  23.207  26.855  12.464
40698W        W 5925  37.386  33.063  14.492
40699W        W 5926   7.430  33.923  10.702
40700W        W 5927   5.427  40.128   2.259
40701W        W 5928  27.694  36.469  10.260
40702W        W 5929   9.344  19.203   3.056
40703W        W 5930  32.676   5.002  12.806
40704W        W 5931  38.803  30.521  11.503
40705W        W 5932  36.973  21.094  12.910
40706W        W 5933  20.240   4.983   2.203
40707W        W 5934  12.231  22.207  11.641
40708W        W 5935  32.465   5.491   0.328
40709W        W 5936  31.399   1.995  11.603
40710W        W 5937  19.174  32.195   1.801
40711W        W 5938  38.229  20.252   1.364
40712W        W 5939   4.868  24.978   0.230
40713W        W 5940  37.020  14.621  12.245
40714W        W 5941  18.832   2.920  12.612
40715W        W 5942   4.206   7.863  13.796
40716W        W 5943  31.599  16.206  12.474
40717W        W 5944  30.513  16.203   4.274
40718W        W 5945  40.828  28.673   1.329
40719W        W 5946   5.941  22.144  12.622
40720W        W 5947  25.440  35.595  13.586
40721W        W 5948  44.189  41.641  11.574
40722W        W 5949   6.272   5.620   0.291
40723W        W 5950  16.659  14.218   0.318
40724W        W 5951   5.638  18.473   0.064
40725W        W 5952  10.071  38.823  11.692
40726W        W 5953  37.437  33.313  12.688
40727W        W 5954  22.256   9.327  11.653
40728W        W 5955   9.124  17.072  14.396
40729W        W 5956  37.961   5.272   5.221
40730W        W 5957   9.487  34.086  12.553
40731W        W 5958   9.557   5.376  13.241
40732W        W 5959  27.949   2.638  13.318
40733W        W 5960  27.688  20.771   0.420
40734W        W 5961  35.945   1.906  14.800
40735W        W 5962   7.331  41.009   1.984
40736W        W 5963  33.208   7.043  13.041
40737W        W 5964  11.273   4.350   4.502
40738W        W 5965   5.567  22.119  12.999
40739W        W 5966  14.719  32.272   5.474
40740W        W 5967  39.371  23.644  13.355
40741W        W 5968  35.014  10.468  13.547
40742W        W 5969   5.451   3.528   0.950
40743W        W 5970  14.448  27.055   3.215
40744W        W 5971  17.902  10.439  13.322
40745W        W 5972   5.799  43.345   4.346
40746W        W 5973  42.033  28.205   3.303
40747W        W 5974  30.613   1.131   0.772
40748W        W 5975  20.939  39.738  11.244
40749W        W 5976  40.125  32.840   4.717
40750W        W 5977  34.533   9.628   4.100
40751W        W 5978  42.319   8.877  13.378
40752W        W 5979   3.700  11.550   4.853
40753W        W 5980  11.365  39.889  13.418
40754W        W 5981   3.799  31.528   0.501
40755W        W 5982  22.977  26.998   0.948
40756W        W 5983  17.760  14.271  12.784
40757W        W 5984  26.624  42.630   0.343
40758W        W 5985   0.179  43.887   2.873
40759W        W 5986  34.945  28.467   4.284
40760W        W 5987  34.821  39.674   2.160
40761W        W 5988  20.192  22.321   2.792
40762W        W 5989  27.377  29.029   4.264
40763W        W 5990   8.252   0.424  14.482
40764W        W 5991  18.229  34.540  13.503
40765W        W 5992  44.437  41.868   3.697
40766W        W 5993  18.690  25.487   3.894
40767W        W 5994  28.291  16.537   2.758
40768W        W 5995  35.915   5.665  14.750
40769W        W 5996   1.708   7.766   4.127
40770W        W 5997  17.262  31.816   2.627
40771W        W 5998   9.130  38.804  12.913
40772W        W 5999   0.024  33.265  14.376
40773W        W 6000  30.380  23.538   4.645
40774W        W 6001  41.267  18.628  10.634
40775W        W 6002  22.764   6.307   3.162
40776W        W 6003   0.741  42.439  13.817
40777W        W 6004   2.605  37.258   1.831
40778W        W 6005   5.752  21.959  14.029
40779W        W 6006  18.702   5.395  11.527
40780W        W 6007  37.416   6.170  14.723
40781W        W 6008  23.919  13.430  13.674
40782W        W 6009  22.193  13.005   2.871
40783W        W 6010   4.683   5.901  11.671
40784W        W 6011  11.779  44.428   0.924
40785W        W 6012  21.181  11.821   3.791
40786W        W 6013   3.362  18.610   3.463
40787W        W 6014  19.178   4.862  12.348
40788W        W 6015  17.579  20.160  11.533
40789W        W 6016   7.620  20.311  14.459
40790W        W 6017   6.287   6.972  12.162
40791W        W 6018  22.140  43.815  11.363
40792W        W 6019  37.848  15.689   2.044
40793W        W 6020   4.667  35.127  12.288
40794W        W 6021  13.594  26.130   4.121
40795W        W 6022  38.535  22.632  14.957
40796W        W 6023  26.477  41.091   2.801
40797W        W 6024   0.817  26.014  10.583
40798W        W 6025  17.543  29.153  14.286
40799W        W 6026   3.796   8.072   4.969
40800W        W 6027  22.676  13.841   3.274
40801W        W 6028  40.106  43.378  12.000
40802W        W 6029  31.561  23.974  10.342
40803W        W 6030  11.444  42.986  14.980
40804W        W 6031  26.769  42.345  12.112
40805W        W 6032  17.288   9.867   3.944
40806W        W 6033   2.437  42.192   0.911
40807W        W 6034  15.705  24.488   4.343
40808W        W 6035  23.986  40.556   2.956
40809W        W 6036  27.457  29.017  11.026
40810W        W 6037  13.774  42.334  10.588
40811W        W 6038  14.812  40.854   0.005
40812W        W 6039  30.660  23.592  11.088
40813W        W 6040   8.091  17.518  11.637
40814W        W 6041  26.487  40.874  12.903
40815W        W 6042  42.777  42.527   0.219
40816W        W 6043  38.567  34.913   2.805
40817W        W 6044  13.848  36.630  13.767
40818W        W 6045  33.390   1.441  14.572
40819W        W 6046   2.918  20.815  10.288
40820W        W 6047  17.810  38.303   2.541
40821W        W 6048   6.463  18.011   3.139
40822W        W 6049   0.001  38.931   3.619
40823W        W 6050  44.482   5.311  12.846
40824W        W 6051   8.918  38.401   3.891
40825W        W 6052   5.961  13.059  11.839
40826W        W 6053  38.459  39.887   0.819
40827W        W 6054  14.206   3.484  11.557
40828W        W 6055  16.180   9.782  10.745
40829W        W 6056  23.000  35.510  10.720
40830W        W 6057  30.631   3.206  10.682
40831W        W 6058  36.907  36.133  14.340
40832W        W 6059  38.349  14.713  13.492
40833W        W 6060  14.311  11.418   2.365
40834W        W 6061  39.658  42.461  14.850
40835W        W 6062  11.214  14.627  14.803
40836W        W 6063  20.668   2.254   1.017
40837W        W 6064  26.149  21.445  11.179
40838W        W 6065  43.795  23.136  13.488
40839W        W 6066  22.543  16.116  14.013
40840W        W 6067  11.926  40.215  10.179
40841W        W 6068  43.490  43.267  10.462
40842W        W 6069  43.749  14.392  13.020
40843W        W 6070  38.151  30.133  12.494
40844W        W 6071   5.484   3.395  13.967
40845W        W 6072  25.259   1.481  12.104
40846W        W 6073  23.971   1.310  10.811
40847W        W 6074  13.924  37.613  11.542
40848W        W 6075  28.073  20.095   3.226
40849W        W 6076   5.374   1.694   4.023
40850W        W 6077  20.044  39.583   0.893
40851W        W 6078   7.775  10.754  12.264
40852W        W 6079  18.609  38.852   0.141
40853W        W 6080   1.851  30.902   4.618
40854W        W 6081   7.906  25.053   4.569
40855W        W 6082  12.147   7.777   1.821
40856W        W 6083  26.083  18.673  13.415
40857W        W 6084  11.225  43.094  11.516
40858W        W 6085  15.974  14.631   0.852
40859W        W 6086  31.897  30.453   4.411
40860W        W 6087  17.046   1.358  12.521
40861W        W 6088  10.277   3.546   2.324
40862W        W 6089   6.749  22.021   0.127
40863W        W 6090  32.462  31.503   3.525
40864W        W 6091  24.542   2.009   5.057
40865W        W 6092  31.003  44.054  12.422
40866W        W 6093  27.640  42.728  14.273
40867W        W 6094  18.225  26.349   0.774
40868W        W 6095   8.678  11.308   2.427
40869W        W 6096  20.335  21.975   0.867
40870W        W 6097  13.820  30.586   0.555
40871W        W 6098  23.405  11.772  11.097
40872W        W 6099  43.984  33.544  11.904
40873W        W 6100   6.870  27.686  14.823
40874W        W 6101  13.885  14.650  14.972
40875W        W 6102  12.605   0.390  13.057
40876W        W 6103  17.686  40.500  14.848
40877W        W 6104  38.937  11.426  10.746
40878W        W 6105  42.062  24.335  13.315
40879W        W 6106   8.851  15.210  13.911
40880W        W 6107   2.321  21.843   4.069
40881W        W 6108  37.896   0.200  14.571
40882W        W 6109  41.712   8.664   4.390
40883W        W 6110  32.450  11.585   0.064
40884W        W 6111  10.252   2.396  12.999
40885W        W 6112   8.764   7.841  11.224
40886W        W 6113   0.496   1.426  14.613
40887W        W 6114  38.273  20.023  10.644
40888W        W 6115  34.434  38.357   3.959
40889W        W 6116  24.506  17.086   4.316
40890W        W 6117   4.301  30.087  13.258
40891W        W 6118   2.138   5.851   4.485
40892W        W 6119  29.420  10.625   0.868
40893W        W 6120  22.106  16.007  10.771
40894W        W 6121  25.954  39.020   2.861
40895W        W 6122  22.077  27.657   2.158
40896W        W 6123  30.680  32.399   1.455
40897W        W 6124  17.486  43.031  11.653
40898W        W 6125  37.768  33.569  10.318
40899W        W 6126  23.142  32.632  14.992
40900W        W 6127  12.651  14.810   4.580
40901W        W 6128  26.984  16.779  11.978
40902W        W 6129  15.883  28.510  14.868
40903W        W 6130  36.470  34.558  10.462
40904W        W 6131  15.367  17.155  13.230
40905W        W 6132   3.855  11.643  14.294
40906W        W 6133  13.601   6.835  13.046
40907W        W 6134  21.715  16.938   3.605
40908W        W 6135   0.798  23.669  14.475
40909W        W 6136  37.376   3.924  14.884
40910W        W 6137  14.405  34.351  14.519
40911W        W 6138  18.660   8.267  13.016
40912W        W 6139   6.280  17.784   0.618
40913W        W 6140   0.454  17.499   3.745
40914W        W 6141   6.881  27.706  13.015
40915W        W 6142  39.803  12.336   1.706
40916W        W 6143  40.097  37.887  14.337
40917W        W 6144  12.775  38.826  13.566
40918W        W 6145  11.571   5.268   0.812
40919W        W 6146   5.207  26.447  14.068
40920W        W 6147  41.697  21.710  13.493
40921W        W 6148  23.059  28.147   1.033
40922W        W 6149  10.279  37.043  13.766
40923W        W 6150  15.623   8.071  11.242
40924W        W 6151  19.685  27.562   2.349
40925W        W 6152  42.438   7.470  11.186
40926W        W 6153  30.973  34.949   0.184
40927W        W 6154  34.742  44.545  13.479
40928W        W 6155  41.359   9.337  13.436
40929W        W 6156   5.979  19.314   1.916
40930W        W 6157  44.545  29.748   0.057
40931W        W 6158  15.164  28.644  11.382
40932W        W 6159  41.180  41.373   1.136
40933W        W 6160  30.285  11.785   4.236
40934W        W 6161   0.382  36.531  11.188
40935W        W 6162  11.294  29.590   0.724
40936W        W 6163  28.555   4.258   1.308
40937W        W 6164  18.472   7.802  14.895
40938W        W 6165  28.928   7.645  13.071
40939W        W 6166  32.454   4.474  12.892
40940W        W 6167  24.032  22.564  13.283
40941W        W 6168  43.542  21.699  11.525
40942W        W 6169  11.311   8.886  11.933
40943W        W 6170  35.600  23.042   4.510
40944W        W 6171   9.891   0.729  11.107
40945W        W 6172  13.658  34.532  12.080
40946W        W 6173   1.444  14.419   1.318
40947W        W 6174   5.681  19.578  10.415
40948W        W 6175  40.857  41.854   3.830
40949W        W 6176  15.219  38.892  14.390
40950W        W 6177  28.432  28.198   2.167
40951W        W 6178  19.277   3.920  11.603
40952W        W 6179  14.357  42.396  11.460
40953W        W 6180   8.358   2.321   1.454
40954W        W 6181   7.390   2.700  11.247
40955W        W 6182   5.547  31.582  13.888
40956W        W 6183  21.221  36.636  12.617
40957W        W 6184  28.176  34.070  13.867
40958W        W 6185   4.718   6.325   3.437
40959W        W 6186  36.811   3.297  14.370
40960W        W 6187  21.043  44.042   3.108
40961W        W 6188  23.780  18.745  12.646
40962W        W 6189  35.985   9.636  14.366
40963W        W 6190  43.805  11.004  12.788
40964W        W 6191   0.762  30.457  11.152
40965W        W 6192  37.107   0.732  14.495
40966W        W 6193  41.888  44.411   3.207
40967W        W 6194  34.137  39.002   1.568
40968W        W 6195   4.162  40.458   1.265
40969W        W 6196  21.547  36.638  13.762
40970W        W 6197   0.979  15.860   1.869
40971W        W 6198  25.089  17.277   0.073
40972W        W 6199  19.149  18.736  13.162
40973W        W 6200  23.020  16.449  10.742
40974W        W 6201   1.610  33.254  11.441
40975W        W 6202  33.841  44.313  12.540
40976W        W 6203  42.595   5.587   2.792
40977W        W 6204  10.300   7.368  10.736
40978W        W 6205  35.937  27.182  14.482
40979W        W 6206  21.947  42.210  13.477
40980W        W 6207  27.168  24.384  11.206
40981W        W 6208  24.448  19.073  14.937
40982W        W 6209  28.310  33.493   2.011
40983W        W 6210  18.686  13.791   3.314
40984W        W 6211   7.865  20.190  12.983
40985W        W 6212   3.165  35.056  14.541
40986W        W 6213  21.827  34.611  14.295
40987W        W 6214   9.579  18.681   5.697
40988W        W 6215   0.438  30.673   4.587
40989W        W 6216   2.824  40.395  14.472
40990W        W 6217   9.562  36.473   1.381
40991W        W 6218  19.295  17.827  11.592
40992W        W 6219  38.780   1.557  12.921
40993W        W 6220   3.373  17.363   1.950
40994W        W 6221   9.764  31.379  12.707
40995W        W 6222   5.939  12.135  12.814
40996W        W 6223  14.747  44.815  12.923
40997W        W 6224  27.632  11.252  13.073
40998W        W 6225  31.679  10.903  10.676
40999W        W 6226  20.980  25.248   0.233
41000W        W 6227   4.059   7.419  11.622
41001W        W 6228  39.063   0.280  14.815
41002W        W 6229   3.934  11.413  13.014
41003W        W 6230  35.771  10.322   4.050
41004W        W 6231  32.847  17.561  13.049
41005W        W 6232  17.305   4.922  12.082
41006W        W 6233  26.348  21.265   0.906
41007W        W 6234  14.016  21.049   0.186
41008W        W 6235  37.413  43.284   2.771
41009W        W 6236  44.406   5.421  14.904
41010W        W 6237  36.688  33.354  11.105
41011W        W 6238  12.031  23.332   2.274
41012W        W 6239  40.760  14.387  10.679
41013W        W 6240  17.834  32.647  11.483
41014W        W 6241  30.503  40.487  12.884
41015W        W 6242  31.720  42.576   2.629
41016W        W 6243  35.921  28.658  12.423
41017W        W 6244  25.091  14.170  13.877
41018W        W 6245   5.620  28.526  12.096
41019W        W 6246  28.480  13.522   2.886
41020W        W 6247   4.209  13.275  14.745
41021W        W 6248  44.908  23.157  11.082
41022W        W 6249   1.835  39.927   2.247
41023W        W 6250  23.002  36.698   0.519
41024W        W 6251  13.780  41.971  12.559
41025W        W 6252  38.505  11.110  12.423
41026W        W 6253  42.567   7.761   2.803
41027W        W 6254   0.680  20.105   0.328
41028W        W 6255  16.115  28.141  12.490
41029W        W 6256  34.843  17.592  12.925
41030W        W 6257  18.126  21.576   2.148
41031W        W 6258  11.123  21.006  11.635
41032W        W 6259  20.413  14.343  12.197
41033W        W 6260   8.199  21.641   0.315
41034W        W 6261  38.832  37.315   1.439
41035W        W 6262   1.702  27.165   1.225
41036W        W 6263  42.773  38.000   2.138
41037W        W 6264  24.562   6.235  12.057
41038W        W 6265  24.610  36.821   0.443
41039W        W 6266   6.198  40.316  14.150
41040W        W 6267  20.092   5.635  11.227
41041W        W 6268  15.893  24.087  13.586
41042W        W 6269  29.689   7.864  11.526
41043W        W 6270   0.676  20.186   3.164
41044W        W 6271   2.752   5.856  10.948
41045W        W 6272   6.135  27.523   0.683
41046W        W 6273  27.621  41.363   4.554
41047W        W 6274  40.814  39.796   0.347
41048W        W 6275   2.291  30.370   4.051
41049W        W 6276  42.037   3.218   4.539
41050W        W 6277   1.458  32.460   1.233
41051W        W 6278  14.208  32.487  13.081
41052W        W 6279   8.140  23.300   4.426
41053W        W 6280  19.598  15.552  13.428
41054W        W 6281  43.904  40.081  13.539
41055W        W 6282   0.716  18.871   1.836
41056W        W 6283  28.260   4.019   1.695
41057W        W 6284  10.334  36.901  11.027
41058W        W 6285  20.978  25.660   4.534
41059W        W 6286  37.783  14.680  10.697
41060W        W 6287  34.065  32.873  10.974
41061W        W 6288  44.346  26.151  14.868
41062W        W 6289  40.759   0.979  10.739
41063W        W 6290  17.573  27.029  10.665
41064W        W 6291  11.569  38.784   2.306
41065W        W 6292   2.936  36.400  13.581
41066W        W 6293   6.279  35.859   4.294
41067W        W 6294   0.908  40.132  13.935
41068W        W 6295  43.310  43.449   4.618
41069W        W 6296  27.678   3.810  11.993
41070W        W 6297  35.556  37.031   3.816
41071W        W 6298  13.343   0.108   4.574
41072W        W 6299   4.953  22.488   2.301
41073W        W 6300  30.430  18.529  12.068
41074W        W 6301  24.811   3.356  11.236
41075W        W 6302  11.240  43.880   2.648
41076W        W 6303  36.061  20.070   4.653
41077W        W 6304   3.750  36.663  14.367
41078W        W 6305   6.392  36.087  12.016
41079W        W 6306   5.591  40.807   4.872
41080W        W 6307  19.515  18.535   3.395
41081W        W 6308  26.082  14.754   0.111
41082W        W 6309  19.145   3.759   4.613
41083W        W 6310   8.381  27.550   0.573
41084W        W 6311  26.123  26.675  14.976
41085W        W 6312  31.887  43.351  10.742
41086W        W 6313  24.717  42.992   3.348
41087W        W 6314  41.081  35.501   0.304
41088W        W 6315  29.126  42.261   0.822
41089W        W 6316   3.960  26.563  12.729
41090W        W 6317   4.694  41.368   1.508
41091W        W 6318  35.324  24.133   4.631
41092W        W 6319  23.910  34.897   3.706
41093W        W 6320  43.918   9.060  12.177
41094W        W 6321   7.121  42.023  12.338
41095W        W 6322  23.615  26.446  12.079
41096W        W 6323   4.837  14.152   3.383
41097W        W 6324  36.528  24.116   1.689
41098W        W 6325  40.400   6.543   9.952
41099W        W 6326  10.853  10.136  11.183
41100W        W 6327  32.617   9.875  13.645
41101W        W 6328  18.237  30.202   1.876
41102W        W 6329   2.028  34.384  14.554
41103W        W 6330  20.913  26.750   4.117
41104W        W 6331  23.707  27.059  14.127
41105W        W 6332   4.459  10.379  12.583
41106W        W 6333  22.475  13.307   2.505
41107W        W 6334  28.214  29.559  11.062
41108W        W 6335  33.606  13.547   9.890
41109W        W 6336  35.476  43.885  13.616
41110W        W 6337  35.669  19.047  11.117
41111W        W 6338  21.703  28.381   1.727
41112W        W 6339  15.675  14.824  11.977
41113W        W 6340  17.537  17.989  11.576
41114W        W 6341  24.429  13.383  13.175
41115W        W 6342  17.737  37.634  13.963
41116W        W 6343   3.715  34.645  13.054
41117W        W 6344  35.338  11.208  14.757
41118W        W 6345  22.219  42.195  11.798
41119W        W 6346  21.554   8.988   1.185
41120W        W 6347   5.606  15.844   2.717
41121W        W 6348  34.539   7.469  12.076
41122W        W 6349  26.683  19.312   3.734
41123W        W 6350   7.767  20.603   2.088
41124W        W 6351   5.160  15.121  12.479
41125W        W 6352  16.820  19.251  14.815
41126W        W 6353  37.751  11.405  11.970
41127W        W 6354  12.657  12.567  11.565
41128W        W 6355  26.210  38.720   0.471
41129W        W 6356  26.832  43.388   4.891
41130W        W 6357  38.065  23.048   1.408
41131W        W 6358  38.455  17.153   4.504
41132W        W 6359  37.397  31.843   2.347
41133W        W 6360  40.390  19.253  11.599
41134W        W 6361  23.779   7.220   0.464
41135W        W 6362  38.984  31.532  10.323
41136W        W 6363  31.042  16.990   0.929
41137W        W 6364  30.947  43.994   1.537
41138W        W 6365  13.871  38.472  11.483
41139W        W 6366  23.369   4.220   4.136
41140W        W 6367  32.346   3.285  13.072
41141W        W 6368   4.739   3.453  13.467
41142W        W 6369  17.691  19.097  14.402
41143W        W 6370  39.561  26.580  13.895
41144W        W 6371  22.674   6.171  14.812
41145W        W 6372  36.352  30.412  12.972
41146W        W 6373  10.253  27.835   0.700
41147W        W 6374  11.214  22.425   2.783
41148W        W 6375   7.450  14.474   3.567
41149W        W 6376  18.350  28.393   1.452
41150W        W 6377  22.222  29.589   3.992
41151W        W 6378   9.138  35.411   0.021
41152W        W 6379  32.746  29.853  12.094
41153W        W 6380  41.730  37.074   0.844
41154W        W 6381  31.149  19.239   0.513
41155W        W 6382  39.328  37.329  10.045
41156W        W 6383  19.911  29.621  10.043
41157W        W 6384  25.111  15.569  13.011
41158W        W 6385  37.932   6.308   0.973
41159W        W 6386   6.473   8.703   4.238
41160W        W 6387  28.202  38.044   3.756
41161W        W 6388  41.554  10.076   0.487
41162W        W 6389  26.784  25.637   1.606
41163W        W 6390  30.817  26.862   3.573
41164W        W 6391  15.814  18.665  11.286
41165W        W 6392  41.993  19.356   1.522
41166W        W 6393  19.793  19.853   3.619
41167W        W 6394   4.817  33.551  11.027
41168W        W 6395  26.091  11.542   4.535
41169W        W 6396  30.160  30.129  10.633
41170W        W 6397  22.284  38.049   2.730
41171W        W 6398  22.082  18.504   3.687
41172W        W 6399   1.902  42.043  13.388
41173W        W 6400  32.788  13.584  13.533
41174W        W 6401  14.762  44.415   3.123
41175W        W 6402  40.644  34.643   4.112
41176W        W 6403  27.770  16.661  11.028
41177W        W 6404  30.236   5.682   3.205
41178W        W 6405   9.339  43.060  12.013
41179W        W 6406  14.778  10.383  10.710
41180W        W 6407  29.556  32.996   2.906
41181W        W 6408   8.773  20.067  13.952
41182W        W 6409  38.879   9.309  12.467
41183W        W 6410   0.312   9.341  13.071
41184W        W 6411  35.993  25.582  10.759
41185W        W 6412   5.097  22.164   3.549
41186W        W 6413  37.012  17.066   1.285
41187W        W 6414  14.401   8.871  11.594
41188W        W 6415  39.209  41.477   1.181
41189W        W 6416  35.335  30.733   0.753
41190W        W 6417  33.626  27.193  10.883
41191W        W 6418  31.841  39.597   3.195
41192W        W 6419  16.609  36.521   1.391
41193W        W 6420  20.688  32.793   2.353
41194W        W 6421  37.232  41.990   4.537
41195W        W 6422  18.539  19.389   4.399
41196W        W 6423  12.664  34.087   3.084
41197W        W 6424  43.268  37.676  14.305
41198W        W 6425  18.169   5.761  14.987
41199W        W 6426  40.336   1.935  10.627
41200W        W 6427  42.997   6.846  10.620
41201W        W 6428   4.397   4.173   4.398
41202W        W 6429  44.180   5.865  14.027
41203W        W 6430  41.336   0.619  12.923
41204W        W 6431   2.492   6.756   3.031
41205W        W 6432   4.468  27.955   2.652
41206W        W 6433  44.120  25.105   4.893
41207W        W 6434  32.798  17.742   2.785
41208W        W 6435   8.793  12.592  14.456
41209W        W 6436  26.487  42.355  13.660
41210W        W 6437   8.674  42.289  14.715
41211W        W 6438  42.228  12.622  12.876
41212W        W 6439  10.706  43.451   2.064
41213W        W 6440  13.223  22.573   3.909
41214W        W 6441  15.424  17.506  11.035
41215W        W 6442   1.571  28.516  13.553
41216W        W 6443   5.161   2.915  10.484
41217W        W 6444  10.659  18.701  12.161
41218W        W 6445  10.187  36.744  11.486
41219W        W 6446  21.152  28.451  11.124
41220W        W 6447   6.466  37.841   3.179
41221W        W 6448  20.866  43.014  12.622
41222W        W 6449  29.866  39.860   0.797
41223W        W 6450  20.589  44.870   1.806
41224W        W 6451  42.413  21.243   1.201
41225W        W 6452  32.178  43.741  14.652
41226W        W 6453  44.963  13.818  11.788
41227W        W 6454  37.312  12.701  12.076
41228W        W 6455  44.968  28.011  10.378
41229W        W 6456   6.739  26.478   1.288
41230W        W 6457  29.506  10.487   2.161
41231W        W 6458  43.589  34.560  13.813
41232W        W 6459  34.579  30.124  13.075
41233W        W 6460  19.619  44.216  14.967
41234W        W 6461  14.747  40.620  12.315
41235W        W 6462   2.750  26.991  14.120
41236W        W 6463   4.834   8.265   2.286
41237W        W 6464  24.561   0.147   1.823
41238W        W 6465   2.762  20.742   4.628
41239W        W 6466   4.633  34.284  13.283
41240W        W 6467  27.896   5.524  13.336
41241W        W 6468  22.162  40.939   1.493
41242W        W 6469   5.356  37.571   1.331
41243W        W 6470   2.994   5.899   2.182
41244W        W 6471   3.378   7.318   3.698
41245W        W 6472  42.724  15.349   3.258
41246W        W 6473  36.269  23.707   3.264
41247W        W 6474  29.235  28.924  11.581
41248W        W 6475   6.392   7.350   3.693
41249W        W 6476  35.234  32.520   4.548
41250W        W 6477   8.310  10.634   2.828
41251W        W 6478  42.334  32.917   4.524
41252W        W 6479  24.728  15.587  11.524
41253W        W 6480  33.967  23.060  10.734
41254W        W 6481  25.239   7.670  11.294
41255W        W 6482  13.081  34.833  12.058
41256W        W 6483  25.544  36.553  13.462
41257W        W 6484  26.011  39.525   0.738
41258W        W 6485   4.897  22.038   0.311
41259W        W 6486  11.177  26.766   2.406
41260W        W 6487  42.922   8.545  14.471
41261W        W 6488   3.434  17.211   2.794
41262W        W 6489  27.538   9.130   0.346
41263W        W 6490  10.108   4.523   2.052
41264W        W 6491  31.430   6.917   1.773
41265W        W 6492  22.969  41.073  10.470
41266W        W 6493  22.061  10.185  13.400
41267W        W 6494  14.292  26.978  11.972
41268W        W 6495  28.221   6.728  13.385
41269W        W 6496  28.947   5.941   0.189
41270W        W 6497  35.874   1.253  13.556
41271W        W 6498   2.343  41.762  13.412
41272W        W 6499   4.525  40.873  12.439
41273W        W 6500  22.108  10.366   2.302
41274W        W 6501  30.753   9.681  14.861
41275W        W 6502  28.002  24.103  10.745
41276W        W 6503   6.249  35.119   2.148
41277W        W 6504  20.474  11.079   2.228
41278W        W 6505  40.518  41.542  11.977
41279W        W 6506  10.230  11.035  12.902
41280W        W 6507  42.873  37.426   3.084
41281W        W 6508  22.466  24.175   4.544
41282W        W 6509  37.136   5.702   2.110
41283W        W 6510  23.561  41.872  14.938
41284W        W 6511  15.226  15.926  10.723
41285W        W 6512  44.343  18.355  10.289
41286W        W 6513  37.309  15.671  14.235
41287W        W 6514   7.285  34.262   4.262
41288W        W 6515  15.295  21.471  14.381
41289W        W 6516  33.145  22.751   1.957
41290W        W 6517  15.667  40.386   2.627
41291W        W 6518  21.551   5.072   5.024
41292W        W 6519  15.197  19.245  12.518
41293W        W 6520  41.383  16.870   4.554
41294W        W 6521  21.933  33.956   1.273
41295W        W 6522   8.197  14.216   4.098
41296W        W 6523  17.677  22.690   3.948
41297W        W 6524  13.845  37.833  14.345
41298W        W 6525  40.074  25.835  14.400
41299W        W 6526  42.908  18.732  12.849
41300W        W 6527  42.879  44.274   3.193
41301W        W 6528  10.092  37.372  12.757
41302W        W 6529   6.796   4.799  13.812
41303W        W 6530  41.300  18.177   0.207
41304W        W 6531  40.850  32.218  14.261
41305W        W 6532  21.262  31.120  13.348
41306W        W 6533  29.668  24.509  13.012
41307W        W 6534  35.474  30.356  12.106
41308W        W 6535  27.043  13.676  12.448
41309W        W 6536  40.694  42.247  10.708
41310W        W 6537  13.582  13.262   4.159
41311W        W 6538  24.520  41.245  12.385
41312W        W 6539   4.986   4.372   0.347
41313W        W 6540  15.544  12.116  13.422
41314W        W 6541  37.847  14.460  12.601
41315W        W 6542   3.160  10.314  14.450
41316W        W 6543  34.639  39.542  12.450
41317W        W 6544   9.711   9.129  11.145
41318W        W 6545   4.216   7.080   0.711
41319W        W 6546  22.554  31.959   3.130
41320W        W 6547   9.803  40.416  10.507
41321W        W 6548  21.480  43.308  13.007
41322W        W 6549  16.527   2.108   0.875
41323W        W 6550  31.904  11.281   0.020
41324W        W 6551   9.527  32.421  13.473
41325W        W 6552  41.230  26.061  13.323
41326W        W 6553  37.223  16.502   2.731
41327W        W 6554   8.726  40.297   4.109
41328W        W 6555   4.303  11.307   4.368
41329W        W 6556  13.270  22.569  14.630
41330W        W 6557  41.740  14.035  14.794
41331W        W 6558  20.141  44.234   3.377
41332W        W 6559   7.540   2.328   0.451
41333W        W 6560  12.735  26.111  14.399
41334W        W 6561  17.726  20.929  13.063
41335W        W 6562  16.941   1.048   3.184
41336W        W 6563   1.943  29.865  14.033
41337W        W 6564   2.263  17.067  11.157
41338W        W 6565  44.931  41.127   3.295
41339W        W 6566  17.102  12.129   0.278
41340W        W 6567   9.754  21.056  14.759
41341W        W 6568   6.683  36.180   2.267
41342W        W 6569  27.089   4.812  13.977
41343W        W 6570  31.591  30.396  12.592
41344W        W 6571  19.253  23.339   1.602
41345W        W 6572  17.515  19.264  11.093
41346W        W 6573   3.413  33.731  11.617
41347W        W 6574  36.394   1.329   4.644
41348W        W 6575  41.977  27.700   1.264
41349W        W 6576  41.743  19.613  13.135
41350W        W 6577  18.048  18.861  12.431
41351W        W 6578  29.624   7.984  14.517
41352W        W 6579   0.824  16.477  10.363
41353W        W 6580  15.662  30.643  12.114
41354W        W 6581  20.711  28.930  11.700
41355W        W 6582  17.726   9.394  12.228
41356W        W 6583  33.973  19.816   4.238
41357W        W 6584   8.689   0.763   3.770
41358W        W 6585   8.831   5.703  13.881
41359W        W 6586  33.435   3.184   2.288
41360W        W 6587  32.880  34.917  12.833
41361W        W 6588   7.850   9.372  14.367
41362W        W 6589  34.870  26.742  11.476
41363W        W 6590   1.428  18.627   4.117
41364W        W 6591  17.187  41.705  11.209
41365W        W 6592  40.972   6.523   1.129
41366W        W 6593   1.184  25.162   4.660
41367W        W 6594  10.061  32.219  11.553
41368W        W 6595  23.012  10.613   1.173
41369W        W 6596  24.702  30.777   2.660
41370W        W 6597  14.726  31.437  11.198
41371W        W 6598  28.238   1.892   4.206
41372W        W 6599  16.470  14.977   0.281
41373W        W 6600  22.360  37.188   1.163
41374W        W 6601  43.326  11.579   0.349
41375W        W 6602   6.814  16.042  14.306
41376W        W 6603  27.382  28.086   1.442
41377W        W 6604  31.564  19.768   2.652
41378W        W 6605  17.974  25.505  14.916
41379W        W 6606  42.513   8.304  10.541
41380W        W 6607  10.292  26.667  11.624
41381W        W 6608  37.342  16.606  13.852
41382W        W 6609  18.344   3.972   1.783
41383W        W 6610  16.516   0.727  13.534
41384W        W 6611  30.836   5.847  13.607
41385W        W 6612  32.002  19.473   2.783
41386W        W 6613   1.186  43.216   1.378
41387W        W 6614  37.790  39.346   3.403
41388W        W 6615  27.478  44.511  10.768
41389W        W 6616  31.450  28.615   5.645
41390W        W 6617  40.838  31.672  11.507
41391W        W 6618  22.279   5.666  12.489
41392W        W 6619  23.658  39.960  13.120
41393W        W 6620   2.297  39.307  11.992
41394W        W 6621  41.857   7.898  13.863
41395W        W 6622   2.605  24.307   5.039
41396W        W 6623   9.622   2.157  12.448
41397W        W 6624  30.390   8.278  12.581
41398W        W 6625  31.857   5.589  11.076
41399W        W 6626  41.395  28.467  11.110
41400W        W 6627   8.785   0.769   4.650
41401W        W 6628  15.395  13.054  11.168
41402W        W 6629  35.236   6.646   1.368
41403W        W 6630   5.460  18.634   4.995
41404W        W 6631  23.993  38.435  13.887
41405W        W 6632   0.284  32.067  11.625
41406W        W 6633  28.051  20.273   0.776
41407W        W 6634  30.400  22.199  12.078
41408W        W 6635   3.001  27.305  14.448
41409W        W 6636  26.487  25.080  12.132
41410W        W 6637  28.005  33.981  10.863
41411W        W 6638  21.248  28.133   1.812
41412W        W 6639  20.482  22.164   1.901
41413W        W 6640  39.435   5.084  10.416
41414W        W 6641   8.199  10.232   1.870
41415W        W 6642  40.403   7.880   2.444
41416W        W 6643   9.175   6.882  10.522
41417W        W 6644   1.902  33.134  13.293
41418W        W 6645  34.016  40.351  14.322
41419W        W 6646   2.311   4.198  13.300
41420W        W 6647  15.736   8.604  12.935
41421W        W 6648  25.603  23.729   3.307
41422W        W 6649  34.522  29.716  10.802
41423W        W 6650   2.177  13.619  11.071
41424W        W 6651   9.981  14.595   1.204
41425W        W 6652   6.343  40.734  11.930
41426W        W 6653  12.807   7.871   3.192
41427W        W 6654  24.742  43.117  11.125
41428W        W 6655   8.561  21.594  12.220
41429W        W 6656   2.898  36.622   3.768
41430W        W 6657   4.949  15.727   5.082
41431W        W 6658  27.952  34.956  12.106
41432W        W 6659   6.512   5.361  12.702
41433W        W 6660   2.387  39.136   4.860
41434W        W 6661  27.141  44.342   2.854
41435W        W 6662   1.834  33.465   0.001
41436W        W 6663  37.530   7.835  13.735
41437W        W 6664   5.212  12.841  11.889
41438W        W 6665  18.649  37.024   4.889
41439W        W 6666  27.024  18.707   0.803
41440W        W 6667  16.751  31.079   0.295
41441W        W 6668  21.595  37.917   4.694
41442W        W 6669  30.947   9.479   2.495
41443W        W 6670  21.187  19.653  13.172
41444W        W 6671  22.314  24.205  10.536
41445W        W 6672   4.483  33.099  12.086
41446W        W 6673  17.316  28.981  10.250
41447W        W 6674  39.844  16.766   1.964
41448W        W 6675   2.536   9.341  12.956
41449W        W 6676  16.777  27.167   0.045
41450W        W 6677  44.450  17.296  10.289
41451W        W 6678  21.929   3.891  12.857
41452W        W 6679  33.540   2.398   3.601
41453W        W 6680  30.573  37.458   1.485
41454W        W 6681  20.647  25.726   2.251
41455W        W 6682  21.783  10.776  12.553
41456W        W 6683  13.319  27.961   0.270
41457W        W 6684   1.767  14.197  13.879
41458W        W 6685   6.545  20.546  13.009
41459W        W 6686   1.873  35.323   2.843
41460W        W 6687  33.534  17.045  11.593
41461W        W 6688  12.069  23.467  11.891
41462W        W 6689  35.766  25.460   3.717
41463W        W 6690  29.834  16.838   1.912
41464W        W 6691  23.111  27.540  14.720
41465W        W 6692  34.550  25.537   3.249
41466W        W 6693  18.067  20.344  11.459
41467W        W 6694  29.391   0.048  11.207
41468W        W 6695  25.681  25.468  11.487
41469W        W 6696  23.540  11.147   0.437
41470W        W 6697  39.843  15.387  11.593
41471W        W 6698  42.446  28.481   4.911
41472W        W 6699  25.092  15.358   2.531
41473W        W 6700   4.208  27.664   2.304
41474W        W 6701  15.815  15.689   2.619
41475W        W 6702  41.963   0.019  13.264
41476W        W 6703  30.463  42.793  13.934
41477W        W 6704  36.326   3.844   0.886
41478W        W 6705  28.019  38.565   1.611
41479W        W 6706  23.726  23.125  11.458
41480W        W 6707  38.309  13.132  13.401
41481W        W 6708  29.581   0.184  13.358
41482W        W 6709   4.940   0.920   1.737
41483W        W 6710   2.711  22.058  11.120
41484W        W 6711  43.114  38.306   2.766
41485W        W 6712   9.142  38.935   4.887
41486W        W 6713  28.263  21.259   1.651
41487W        W 6714  27.494  21.299  11.094
41488W        W 6715  34.985  29.073  10.369
41489W        W 6716  42.902  35.975  13.849
41490W        W 6717  27.958  41.915   1.375
41491W        W 6718   7.699  44.102   2.350
41492W        W 6719  16.343  42.010   1.157
41493W        W 6720   6.719  44.174  10.774
41494W        W 6721  33.979   3.839  11.946
41495W        W 6722  30.154  34.143   0.983
41496W        W 6723  30.604  31.411  10.626
41497W        W 6724  28.428   6.186   2.233
41498W        W 6725   9.287   3.211   0.333
41499W        W 6726   8.035  12.817  11.447
41500W        W 6727  14.880  43.701   4.800
41501W        W 6728  27.524  29.258   3.820
41502W        W 6729  24.641  38.356  11.696
41503W        W 6730   3.822   8.806  13.452
41504W        W 6731  40.372  29.785   0.081
41505W        W 6732  13.733   5.008  13.839
41506W        W 6733   4.227   5.903  14.213
41507W        W 6734  33.090   4.785  11.884
41508W        W 6735   9.178  25.669   0.897
41509W        W 6736  22.269  21.068  11.970
41510W        W 6737  32.836  21.744  11.154
41511W        W 6738   9.138  29.471   1.840
41512W        W 6739  44.076  34.884   2.688
41513W        W 6740   5.345  31.879  14.255
41514W        W 6741  15.101  37.537  14.503
41515W        W 6742  17.613   8.341   0.832
41516W        W 6743  16.045   1.945   3.773
41517W        W 6744  25.104   4.665  12.430
41518W        W 6745  22.152  38.620   3.595
41519W        W 6746  19.196  21.827   3.803
41520W        W 6747  32.032  35.781   3.066
41521W        W 6748  36.576  34.294  13.783
41522W        W 6749  33.601   6.919  14.818
41523W        W 6750  21.260  32.579   0.547
41524W        W 6751  34.106  26.703  12.457
41525W        W 6752  15.201  26.425  13.068
41526W        W 6753  35.948  38.516   3.710
41527W        W 6754  11.333  20.034   2.205
41528W        W 6755   8.992  40.727   4.108
41529W        W 6756  14.704  36.201   1.795
41530W        W 6757   1.390   0.185   0.424
41531W        W 6758  16.567  21.891  14.853
41532W        W 6759  25.141   8.375   4.440
41533W        W 6760  41.428  43.509  10.619
41534W        W 6761  26.117  17.115   2.371
41535W        W 6762  35.820   3.738  14.899
41536W        W 6763  10.965   3.299   4.309
41537W        W 6764   2.421  13.096   4.063
41538W        W 6765   8.450  32.376   3.609
41539W        W 6766  18.852  37.553  10.989
41540W        W 6767  19.045  24.983  12.221
41541W        W 6768  42.247  39.813   4.664
41542W        W 6769  31.114  10.721   1.190
41543W        W 6770  36.684   2.066   2.986
41544W        W 6771  32.246  25.178  10.850
41545W        W 6772  34.566  36.681  10.281
41546W        W 6773  38.568   2.090  11.989
41547W        W 6774  16.774  33.879   1.594
41548W        W 6775   1.217  44.805  13.941
41549W        W 6776   1.469  44.773   2.333
41550W        W 6777  39.879  25.056   0.410
41551W        W 6778  20.695  41.857   1.197
41552W        W 6779   3.314  34.874   4.552
41553W        W 6780  40.215  14.757  12.265
41554W        W 6781  31.011  11.208  14.849
41555W        W 6782  44.734  44.412   2.304
41556W        W 6783  21.108  39.380   1.323
41557W        W 6784  26.165  33.533   1.805
41558W        W 6785  19.757  11.039   0.019
41559W        W 6786   5.398   7.365   3.615
41560W        W 6787  21.032  40.386   1.341
41561W        W 6788  20.834  24.045   1.328
41562W        W 6789  27.618  31.760   2.141
41563W        W 6790  16.301  33.401  14.899
41564W        W 6791  33.368   1.048  12.999
41565W        W 6792  25.546  11.071  12.975
41566W        W 6793  21.165  31.138  14.911
41567W        W 6794  32.502  40.202  11.068
41568W        W 6795  18.293  26.146  13.849
41569W        W 6796  43.514  32.708  13.036
41570W        W 6797  35.969  13.660   2.681
41571W        W 6798  24.994  37.994  13.945
41572W        W 6799  17.979  32.273   2.037
41573W        W 6800  18.216  26.417  14.894
41574W        W 6801   8.978  19.198  12.881
41575W        W 6802  44.929  36.899   2.355
41576W        W 6803  23.417  18.825   0.064
41577W        W 6804  11.689  41.988   4.571
41578W        W 6805  29.396   8.795   1.445
41579W        W 6806  12.063  34.964  14.839
41580W        W 6807  27.857  15.009   3.966
41581W        W 6808   1.226  17.098  12.396
41582W        W 6809  41.919  35.747   5.210
41583W        W 6810  40.841   0.652   0.975
41584W        W 6811  10.406  37.606   2.071
41585W        W 6812  26.109   7.841   0.345
41586W        W 6813  20.488  23.029   4.859
41587W        W 6814  16.920  40.419   2.643
41588W        W 6815  19.624  31.012  10.993
41589W        W 6816  22.078  31.811  14.908
41590W        W 6817  30.617  43.302   2.745
41591W        W 6818  23.207  33.026   2.800
41592W        W 6819  26.664  18.566   3.994
41593W        W 6820   9.755  38.093   3.669
41594W        W 6821  16.662  26.379   3.644
41595W        W 6822  37.867  44.094   2.167
41596W        W 6823  12.181  20.191   2.998
41597W        W 6824  27.439  28.210  12.916
41598W        W 6825  27.023  37.109   2.228
41599W        W 6826  14.324  27.758   2.420
41600W        W 6827   6.847  17.577  13.373
41601W        W 6828   0.942  33.667   3.235
41602W        W 6829  30.923   8.829  12.078
41603W        W 6830  34.436  11.892  13.477
41604W        W 6831   1.666  18.658   1.847
41605W        W 6832   8.687  41.967   0.117
41606W        W 6833  23.988  32.174   1.335
41607W        W 6834  19.330  20.504   3.293
41608W        W 6835   0.641  34.095  11.377
41609W        W 6836  41.086  29.900   4.404
41610W        W 6837   2.845  21.567  11.533
41611W        W 6838  44.736   3.637  11.614
41612W        W 6839  40.000  21.650   3.169
41613W        W 6840  12.234   6.224  11.190
41614W        W 6841   1.349  18.795  13.101
41615W        W 6842  21.545  19.665   0.922
41616W        W 6843  18.475   0.542   0.490
41617W        W 6844  23.733   9.075   1.661
41618W        W 6845  42.835  32.454  11.046
41619W        W 6846  28.095   6.535   4.068
41620W        W 6847  35.313   2.707  12.287
41621W        W 6848  13.383  38.517  13.831
41622W        W 6849  36.008  10.756   3.849
41623W        W 6850  11.939  12.472   3.779
41624W        W 6851  40.844  22.681   0.865
41625W        W 6852  16.359  19.072   4.651
41626W        W 6853  11.799   2.844   3.807
41627W        W 6854  11.540  15.639  12.533
41628W        W 6855   9.104  31.500   2.211
41629W        W 6856  18.587   0.160   0.144
41630W        W 6857   4.807  15.818  10.547
41631W        W 6858  31.714  27.699  10.275
41632W        W 6859   6.125  23.418  11.475
41633W        W 6860  16.306  20.130   4.545
41634W        W 6861  33.808   1.175  11.145
41635W        W 6862  30.028   2.862  14.892
41636W        W 6863   7.864   1.146   1.907
41637W        W 6864   7.994  27.847   1.746
41638W        W 6865  38.456   2.754  14.828
41639W        W 6866  11.053  38.106   4.215
41640W        W 6867  23.477  17.742   2.727
41641W        W 6868   4.742   9.004   0.404
41642W        W 6869  26.746  37.825  11.101
41643W        W 6870  39.390  39.899   3.900
41644W        W 6871  32.492  41.736   3.358
41645W        W 6872  25.941  10.068   4.999
41646W        W 6873  35.013  36.797  12.901
41647W        W 6874  18.906  15.019  11.750
41648W        W 6875  18.724   8.436  13.516
41649W        W 6876  21.030  32.080   2.775
41650W        W 6877  34.668  43.456   1.896
41651W        W 6878  37.761  31.542  12.776
41652W        W 6879  43.681  27.812  12.258
41653W        W 6880  41.229  32.544  14.394
41654W        W 6881  21.569   1.164  13.407
41655W        W 6882  31.951  39.545  13.897
41656W        W 6883  35.020  28.777  11.621
41657W        W 6884  39.183  21.940  11.430
41658W        W 6885   7.859   4.082  10.699
41659W        W 6886  28.566  10.547   2.710
41660W        W 6887  24.068  11.753   3.448
41661W        W 6888   1.260  29.674   2.787
41662W        W 6889  42.290  13.733  11.211
41663W        W 6890  40.902  31.484  10.752
41664W        W 6891  28.843  40.998   0.370
41665W        W 6892   3.446  14.370   4.606
41666W        W 6893  32.716   7.614   0.564
41667W        W 6894   4.224  30.994   4.223
41668W        W 6895   9.385  44.857  14.810
41669W        W 6896   3.684   5.663  12.561
41670W        W 6897   4.894  38.650  14.520
41671W        W 6898  15.105  19.072  11.673
41672W        W 6899   2.226  36.643  12.941
41673W        W 6900   4.422  25.039   1.814
41674W        W 6901   9.730  33.599  11.010
41675W        W 6902  27.909  25.134  13.922
41676W        W 6903  43.380  17.623  14.715
41677W        W 6904  26.626  43.238  13.172
41678W        W 6905  12.673   3.924   4.209
41679W        W 6906  16.154   6.237  11.092
41680W        W 6907   2.945  26.226  10.948
41681W        W 6908  25.908  40.739   3.638
41682W        W 6909  21.671   2.055  11.526
41683W        W 6910  33.968  39.360   2.668
41684W        W 6911  10.990  14.859  10.110
41685W        W 6912  33.420   8.249   0.553
41686W        W 6913  19.288   2.399   0.674
41687W        W 6914  25.230  25.542  12.139
41688W        W 6915  27.395   9.929  14.932
41689W        W 6916  25.948  32.831   0.764
41690W        W 6917  10.216   6.935  11.639
41691W        W 6918   4.678   9.431   2.956
41692W        W 6919   4.942  31.571   4.376
41693W        W 6920  42.351  44.423  10.716
41694W        W 6921  27.134  28.397   1.867
41695W        W 6922  35.994   9.387   4.174
41696W        W 6923  35.404   3.844  10.519
41697W        W 6924  12.546  44.426   3.707
41698W        W 6925  41.047  35.022  10.769
41699W        W 6926  28.225  43.073  14.993
41700W        W 6927  32.385  38.425   2.753
41701W        W 6928  14.971   2.753  11.666
41702W        W 6929  25.975  16.096   2.387
41703W        W 6930  31.757   1.306   2.306
41704W        W 6931  11.228  41.026  14.815
41705W        W 6932  12.912  31.076  12.442
41706W        W 6933  36.043  37.865  14.675
41707W        W 6934  27.670  17.968  11.949
41708W        W 6935  37.491  41.336  11.156
41709W        W 6936   4.846  37.242  14.919
41710W        W 6937   8.689  19.810   3.109
41711W        W 6938  36.764   5.183  11.141
41712W        W 6939  44.404  12.248  12.338
41713W        W 6940  19.684  28.131   3.693
41714W        W 6941  44.574  24.654  13.999
41715W        W 6942   1.748   5.886  13.589
41716W        W 6943  34.428  44.236  12.188
41717W        W 6944  34.517  35.057   3.725
41718W        W 6945  35.723  26.192   1.191
41719W        W 6946  22.108  14.080   1.725
41720W        W 6947  17.155  30.186   4.267
41721W        W 6948  44.424  41.056  13.430
41722W        W 6949  19.095  22.595   0.480
41723W        W 6950  24.651  24.988   3.502
41724W        W 6951   3.472  33.638   0.535
41725W        W 6952  30.424  18.268  14.933
41726W        W 6953  33.955  15.145  12.995
41727W        W 6954  26.563  44.315   3.311
41728W        W 6955  11.272  27.883  13.844
41729W        W 6956  42.465  21.454   4.266
41730W        W 6957   8.453   9.717  11.231
41731W        W 6958  18.650  23.159  12.354
41732W        W 6959   9.285  23.049  13.901
41733W        W 6960   8.817  25.806   3.367
41734W        W 6961  10.907  18.187   0.761
41735W        W 6962  26.063  17.331   4.572
41736W        W 6963  11.591  20.823  14.407
41737W        W 6964  13.302   6.359  13.913
41738W        W 6965  21.286  11.910   1.247
41739W        W 6966  36.516   3.325  12.896
41740W        W 6967  30.619  22.585  12.361
41741W        W 6968   5.631  23.150  14.215
41742W        W 6969  40.451  10.112  12.513
41743W        W 6970   1.950  16.242   4.716
41744W        W 6971   7.889  43.598   3.136
41745W        W 6972   9.925  20.378   0.845
41746W        W 6973   5.218   4.423   1.848
41747W        W 6974  23.618   5.323   1.667
41748W        W 6975  41.562  26.461   2.215
41749W        W 6976   7.727  41.490  14.318
41750W        W 6977  19.405  29.623  10.413
41751W        W 6978  19.451  22.619  12.058
41752W        W 6979   0.390  23.225   4.118
41753W        W 6980  37.618  30.989   2.385
41754W        W 6981   1.422  14.914  11.423
41755W        W 6982   8.417  18.864  12.504
41756W        W 6983   2.402  17.036   2.961
41757W        W 6984   5.177  15.084   3.077
41758W        W 6985  20.004   4.867   4.197
41759W        W 6986  10.153  25.092   1.858
41760W        W 6987  18.680  29.557   0.170
41761W        W 6988  20.570  33.852   0.864
41762W        W 6989  12.237  21.069  13.899
41763W        W 6990  37.305   1.011  14.879
41764W        W 6991  22.476   9.493   3.030
41765W        W 6992  13.784   6.992  14.462
41766W        W 6993  16.868  21.795   0.263
41767W        W 6994  37.015  27.889  13.470
41768W        W 6995  25.565  11.894   3.331
41769W        W 6996  36.024   6.459  11.573
41770W        W 6997  34.917  30.431   0.747
41771W        W 6998   0.035   0.433   0.496
41772W        W 6999   3.430  15.326   2.722
41773W        W 7000  42.123   6.501  14.864
41774W        W 7001   6.365  13.253  14.906
41775W        W 7002  38.785   1.432   3.268
41776W        W 7003  19.721  10.962  10.641
41777W        W 7004   2.958   5.440   1.940
41778W        W 7005  14.870  25.700   1.331
41779W        W 7006  17.104   7.165   4.931
41780W        W 7007  40.867  10.719  12.924
41781W        W 7008  19.805   0.048   3.373
41782W        W 7009  26.594  40.368   1.438
41783W        W 7010   7.567  30.471   4.163
41784W        W 7011  28.254   4.240  14.452
41785W        W 7012  38.766  26.109  13.363
41786W        W 7013   9.376  42.257   3.197
41787W        W 7014   3.014   7.414  12.606
41788W        W 7015  32.335  23.126  14.892
41789W        W 7016  24.665  39.873   4.383
41790W        W 7017  43.450  17.861   0.698
41791W        W 7018  12.042  36.221   1.973
41792W        W 7019  27.640   6.839  11.536
41793W        W 7020  42.422  26.246   0.763
41794W        W 7021   8.726   1.797  13.695
41795W        W 7022  21.376  35.145   4.622
41796W        W 7023   6.712  18.062  13.357
41797W        W 7024  36.188  11.585  10.566
41798W        W 7025  28.375   2.134   3.069
41799W        W 7026  10.834  42.096   4.273
41800W        W 7027  35.987  22.806  12.408
41801W        W 7028   0.478  25.884   5.433
41802W        W 7029  22.529   6.760   3.870
41803W        W 7030  25.900  14.108   2.815
41804W        W 7031  25.739  13.566   4.177
41805W        W 7032   8.299  11.312  10.989
41806W        W 7033  12.782  27.067  12.339
41807W        W 7034  25.397  43.582   4.731
41808W        W 7035  34.516  15.503   3.670
41809W        W 7036  24.911   3.182  12.892
41810W        W 7037  12.621  37.616  14.435
41811W        W 7038  24.305  25.143  13.029
41812W        W 7039   5.766  37.061   4.693
41813W        W 7040  35.595  12.147  13.866
41814W        W 7041  13.396  29.480   3.278
41815W        W 7042  19.045  36.287   2.319
41816W        W 7043  11.292   3.695   4.930
41817W        W 7044  15.276  43.047   3.729
41818W        W 7045  26.046   9.174  14.019
41819W        W 7046  39.213  40.374   3.795
41820W        W 7047  22.758  19.791  14.335
41821W        W 7048  39.865   3.635  10.505
41822W        W 7049  45.000   4.741  14.999
41823W        W 7050  41.720  32.883  12.535
41824W        W 7051   3.554   7.472  14.351
41825W        W 7052  23.579  20.746  12.937
41826W        W 7053  38.893  20.596  11.858
41827W        W 7054  31.243  29.364  13.998
41828W        W 7055   6.153   1.336   1.206
41829W        W 7056  44.441   2.840   1.402
41830W        W 7057  42.790   9.475   0.535
41831W        W 7058  13.314   2.058  10.804
41832W        W 7059   1.624  16.616   4.624
41833W        W 7060   8.647   2.955   1.342
41834W        W 7061  27.258  34.118   3.343
41835W        W 7062  19.038  14.383  13.430
41836W        W 7063  35.036  40.276  10.360
41837W        W 7064  28.551  38.508   2.286
41838W        W 7065  42.372  11.081   3.255
41839W        W 7066  15.800   7.789   3.762
41840W        W 7067  35.564   9.811  13.399
41841W        W 7068  28.463  10.087  14.928
41842W        W 7069  34.066  44.080   0.456
41843W        W 7070  17.101  21.043   1.446
41844W        W 7071  16.071  25.123  13.511
41845W        W 7072   3.237  22.189   1.696
41846W        W 7073  36.898  23.551  12.639
41847W        W 7074  34.993  42.779  10.474
41848W        W 7075   8.249  31.004  12.325
41849W        W 7076  19.288  26.363  14.095
41850W        W 7077  12.827  24.064   4.102
41851W        W 7078  24.991  34.536   4.730
41852W        W 7079  38.069  33.776  13.123
41853W        W 7080  38.986  30.628   3.130
41854W        W 7081  37.204  17.300  13.388
41855W        W 7082  14.391  40.570   9.926
41856W        W 7083  35.195   9.141  12.339
41857W        W 7084  43.976  26.500   2.710
41858W        W 7085  20.137  14.372   2.659
41859W        W 7086  21.139  38.973  14.065
41860W        W 7087  16.063  43.232   4.183
41861W        W 7088  22.668  19.047   0.465
41862W        W 7089   9.242  32.883  11.446
41863W        W 7090  21.681  14.338  10.656
41864W        W 7091  44.614  17.334   0.248
41865W        W 7092  14.248  30.950   1.930
41866W        W 7093  22.541  26.825  14.961
41867W        W 7094  27.192  16.737   4.216
41868W        W 7095  33.100   6.573  13.882
41869W        W 7096  37.992  37.607  10.423
41870W        W 7097  28.992  40.032   3.651
41871W        W 7098  40.167  30.444   4.550
41872W        W 7099  20.566  36.401  11.250
41873W        W 7100  12.410  33.852  11.175
41874W        W 7101  40.580  20.120  12.931
41875W        W 7102  43.007  24.194   2.808
41876W        W 7103  35.898   9.386   0.186
41877W        W 7104  11.113  37.374   3.611
41878W        W 7105  17.103  25.936   4.885
41879W        W 7106  36.384  27.357  10.645
41880W        W 7107  30.390  30.525   1.750
41881W        W 7108  21.137  31.330   3.294
41882W        W 7109  21.203   2.751   3.447
41883W        W 7110  28.454  19.728  13.826
41884W        W 7111  36.405  10.127  14.978
41885W        W 7112   0.281  30.688   0.830
41886W        W 7113  42.098  25.205  13.053
41887W        W 7114  20.244  12.335  13.960
41888W        W 7115  38.090   9.206  13.600
41889W        W 7116  25.288   4.535   5.151
41890W        W 7117   5.709   8.268   1.831
41891W        W 7118   5.759  20.288   4.342
41892W        W 7119  25.233  17.340   0.587
41893W        W 7120  20.638  26.733   1.384
41894W        W 7121  25.782   6.722   1.298
41895W        W 7122  20.158  15.177  12.725
41896W        W 7123  44.454  30.864   3.816
41897W        W 7124  37.922  13.540  14.395
41898W        W 7125  10.606  12.126   3.803
41899W        W 7126  14.869  17.329   1.806
41900W        W 7127  39.626  33.003  14.049
41901W        W 7128  30.650  44.596   2.167
41902W        W 7129  33.540  27.461  10.353
41903W        W 7130  43.276  34.617  11.610
41904W        W 7131   5.895  24.809  12.281
41905W        W 7132  30.638  35.337  10.934
41906W        W 7133  20.012   0.755   5.055
41907W        W 7134  15.108  33.036   2.155
41908W        W 7135  36.975  38.500  10.682
41909W        W 7136  39.823  32.603   0.810
41910W        W 7137  42.407  31.400  13.008
41911W        W 7138   2.361  16.259  10.604
41912W        W 7139  31.422  22.711  13.948
41913W        W 7140  17.537   5.429   4.287
41914W        W 7141  18.980  11.435  14.402
41915W        W 7142  22.371  10.990   0.546
41916W        W 7143   3.924  21.133   1.034
41917W        W 7144  13.655   9.822  14.839
41918W        W 7145   4.974   4.766   4.600
41919W        W 7146  44.085  26.002   0.536
41920W        W 7147  14.979   5.086   1.542
41921W        W 7148  43.836  16.730  12.116
41922W        W 7149   2.487  37.569   3.666
41923W        W 7150   6.223  13.745   3.569
41924W        W 7151  44.121  34.037   0.285
41925W        W 7152  13.300  23.244  10.893
41926W        W 7153  25.682  10.666   4.627
41927W        W 7154   3.389  25.961   2.700
41928W        W 7155  20.994  32.133   0.377
41929W        W 7156  39.875  35.592  11.312
41930W        W 7157   9.663  21.301  13.702
41931W        W 7158  12.210  20.641  13.599
41932W        W 7159   5.595  38.926   0.332
41933W        W 7160  13.661  42.736   1.987
41934W        W 7161  41.615  14.416  10.321
41935W        W 7162  29.743  40.302   2.562
41936W        W 7163  42.305  11.072   2.323
41937W        W 7164  15.929  19.544   0.448
41938W        W 7165  30.533   6.597  10.783
41939W        W 7166  14.294   1.516   1.403
41940W        W 7167   7.402  13.602  14.376
41941W        W 7168  20.042  44.701   0.325
41942W        W 7169  20.684  23.107  14.492
41943W        W 7170  30.443  18.781  14.897
41944W        W 7171   8.322   7.747   4.581
41945W        W 7172   8.699  11.593   0.658
41946W        W 7173  14.551  23.158   2.652
41947W        W 7174  28.249   6.376   4.542
41948W        W 7175  21.010  10.215   1.737
41949W        W 7176  38.327  14.754  12.629
41950W        W 7177   9.419  28.856  13.402
41951W        W 7178  13.538  23.847   1.150
41952W        W 7179  36.978  18.618   3.430
41953W        W 7180   8.443  37.804  14.009
41954W        W 7181  21.707  22.670   0.008
41955W        W 7182   5.284   6.173  14.871
41956W        W 7183  29.813   3.672  12.599
41957W        W 7184  26.942  25.133   3.145
41958W        W 7185  41.469  15.826   2.569
41959W        W 7186  28.484  20.616  10.711
41960W        W 7187  42.759  42.989   3.626
41961W        W 7188  29.624  12.173   4.099
41962W        W 7189  10.455   2.944   0.960
41963W        W 7190   0.732  24.127  12.041
41964W        W 7191   4.069  39.057   0.504
41965W        W 7192  37.552  26.528  10.759
41966W        W 7193  25.129  23.169   4.054
41967W        W 7194  37.354  40.448  11.171
41968W        W 7195  28.466  40.236   0.485
41969W        W 7196   1.178  19.143   1.905
41970W        W 7197  21.633  36.458   1.233
41971W        W 7198  31.669  40.889  14.524
41972W        W 7199  44.386  23.273  14.049
41973W        W 7200  39.865   9.213   3.485
41974W        W 7201  19.238  41.327   1.803
41975W        W 7202   0.525  27.256  12.966
41976W        W 7203  35.149  38.104   5.516
41977W        W 7204  43.274  36.074   2.545
41978W        W 7205  39.008  29.517  13.011
41979W        W 7206  13.868  30.780  12.948
41980W        W 7207  24.569  22.629  11.091
41981W        W 7208   2.345  40.357  12.060
41982W        W 7209  44.765  36.651  13.859
41983W        W 7210   0.299  17.715   2.237
41984W        W 7211  28.035  37.127  10.695
41985W        W 7212  18.683  26.982  13.085
41986W        W 7213  22.440  42.114   4.616
41987W        W 7214  10.637   6.485   1.770
41988W        W 7215  18.425   5.443   0.364
41989W        W 7216  30.337  16.587   4.910
41990W        W 7217  32.343  28.606   2.821
41991W        W 7218  20.039   3.563   4.543
41992W        W 7219  21.142   5.267   3.198
41993W        W 7220   6.945  39.454  14.990
41994W        W 7221  28.928  37.712   4.212
41995W        W 7222  27.501  33.438  12.987
41996W        W 7223   0.292  22.987   1.921
41997W        W 7224  40.786  31.460  11.962
41998W        W 7225  12.415   4.953   0.699
41999W        W 7226  41.620   7.650   4.088
42000W        W 7227  44.617  24.157  14.435
42001W        W 7228  33.403  16.545   3.115
42002W        W 7229  42.859  42.642   4.533
42003W        W 7230   0.198  20.138   9.781
42004W        W 7231  19.800  44.743  12.063
42005W        W 7232  26.119  41.051  12.595
42006W        W 7233   1.513  26.094  13.145
42007W        W 7234  42.069   9.248   4.959
42008W        W 7235  30.482  32.366  13.459
42009W        W 7236  20.638  39.300  14.808
42010W        W 7237  32.503  30.035  14.022
42011W        W 7238  41.893  40.975   4.403
42012W        W 7239   9.208  31.915  12.873
42013W        W 7240  12.847  36.653  11.979
42014W        W 7241  18.797  32.434  10.733
42015W        W 7242  16.225   8.126  14.833
42016W        W 7243  27.293  39.941   3.222
42017W        W 7244  39.311  29.254  13.335
42018W        W 7245  35.882  34.039  14.823
42019W        W 7246   9.627  11.174   2.902
42020W        W 7247  16.641   6.774   2.608
42021W        W 7248   3.826  37.530   4.286
42022W        W 7249  20.695   8.871  13.087
42023W        W 7250  12.273  40.508  12.383
42024W        W 7251  43.689  32.175  14.521
42025W        W 7252  13.292  28.100   3.005
42026W        W 7253  42.853  11.814   3.026
42027W        W 7254   9.839   5.900   3.192
42028W        W 7255  32.739  42.450  10.969
42029W        W 7256  36.967  38.554   4.673
42030W        W 7257  30.066  43.568  14.393
42031W        W 7258   8.393  11.742   2.609
42032W        W 7259  22.699  25.943   0.286
42033W        W 7260  39.254  41.435  13.944
42034W        W 7261  36.106   4.771   3.570
42035W        W 7262  38.978   2.341   0.646
42036W        W 7263   6.240  29.970   1.807
42037W        W 7264  17.986  44.327  14.000
42038W        W 7265   4.181  10.907  13.764
42039W        W 7266  42.171  15.753   3.751
42040W        W 7267  15.615  29.319  11.188
42041W        W 7268  44.606  41.615  13.399
42042W        W 7269   6.293  30.157   4.621
42043W        W 7270  38.929  38.827   0.254
42044W        W 7271  12.681  21.044   1.411
42045W        W 7272  13.119   9.112   3.303
42046W        W 7273  23.998  10.584   3.682
42047W        W 7274  13.983  25.690  13.023
42048W        W 7275  19.923   2.294   4.484
42049W        W 7276  32.581  15.821  11.203
42050W        W 7277   9.113   4.863  14.895
42051W        W 7278  23.178  36.526   3.889
42052W        W 7279  36.492   0.504   4.270
42053W        W 7280  11.382  37.426   0.753
42054W        W 7281  14.771  37.199   2.734
42055W        W 7282  30.598   6.522  12.062
42056W        W 7283  43.113  11.358   3.713
42057W        W 7284  23.747  35.963   0.448
42058W        W 7285  35.980  38.058  12.142
42059W        W 7286  16.011  36.325   3.450
42060W        W 7287   2.852  19.350   5.142
42061W        W 7288  29.897   6.451  11.147
42062W        W 7289  30.191  27.996   0.863
42063W        W 7290   6.765  13.251   1.185
42064W        W 7291   0.798  41.943  12.795
42065W        W 7292  38.812  39.872  12.444
42066W        W 7293  18.455  16.991   1.020
42067W        W 7294  18.886  38.428   4.592
42068W        W 7295  22.512   2.343   0.466
42069W        W 7296  15.350  36.504   0.969
42070W        W 7297  41.946  29.414   3.549
42071W        W 7298  41.898  22.057  11.156
42072W        W 7299   4.828  18.081  14.727
42073W        W 7300  23.771  10.082   4.090
42074W        W 7301  43.476  16.312   3.737
42075W        W 7302  14.144   5.319  10.798
42076W        W 7303  22.000  40.762  14.913
42077W        W 7304  10.602  41.392  10.712
42078W        W 7305  23.153  42.444   1.816
42079W        W 7306  42.380   2.907   0.178
42080W        W 7307   2.213   7.890   1.018
42081W        W 7308  36.632  33.389  12.084
42082W        W 7309  17.339   8.917  13.848
42083W        W 7310  24.008  41.576   4.234
42084W        W 7311  11.458   3.243   3.917
42085W        W 7312   9.273  19.432  12.441
42086W        W 7313  42.323   8.376  11.996
42087W        W 7314  20.959  42.468  13.486
42088W        W 7315  28.458  12.251   3.158
42089W        W 7316   4.372   2.763  11.900
42090W        W 7317  23.603  34.110   4.280
42091W        W 7318  39.302  43.285  14.883
42092W        W 7319  34.094  15.371  10.489
42093W        W 7320  10.104  28.755  10.344
42094W        W 7321  14.150  12.760   1.810
42095W        W 7322  21.174  13.244   2.673
42096W        W 7323  10.228  38.097   1.937
42097W        W 7324  19.592  26.558   0.804
42098W        W 7325  15.137  31.343  10.418
42099W        W 7326  16.724  37.905  13.035
42100W        W 7327  28.187   5.685   0.169
42101W        W 7328  25.946  12.695   1.790
42102W        W 7329  36.153  24.488   0.785
42103W        W 7330  22.458  44.007   1.896
42104W        W 7331  13.752   2.007   0.274
42105W        W 7332  44.343  26.402   5.053
42106W        W 7333   9.802   6.489  11.994
42107W        W 7334   2.483  37.572  14.509
42108W        W 7335  15.201   1.733  13.872
42109W        W 7336  12.453  11.829   1.686
42110W        W 7337  43.533  25.277  10.760
42111W        W 7338  18.707  24.553   3.086
42112W        W 7339  12.080  14.250   4.093
42113W        W 7340  23.718  26.525  11.144
42114W        W 7341  42.293  19.800   1.412
42115W        W 7342  31.031  17.381   1.882
42116W        W 7343  18.033  39.522  11.953
42117W        W 7344   4.246  22.530  14.171
42118W        W 7345  18.146  39.747  12.658
42119W        W 7346  24.097  44.942   1.224
42120W        W 7347   4.612  14.523   1.888
42121W        W 7348   2.980   6.707   1.237
42122W        W 7349  12.113  32.053  12.038
42123W        W 7350  26.423  14.840   1.894
42124W        W 7351   9.328  23.881   1.533
42125W        W 7352  31.056  10.401  14.443
42126W        W 7353  35.871  22.647  11.075
42127W        W 7354   0.493  22.742   2.350
42128W        W 7355  17.185  32.441  12.047
42129W        W 7356  22.783  13.588  12.506
42130W        W 7357  37.700  38.835  12.242
42131W        W 7358   5.326   7.810  11.193
42132W        W 7359  15.127  21.159  12.009
42133W        W 7360  32.982   1.730  12.203
42134W        W 7361  23.026   1.460  12.583
42135W        W 7362  30.430  33.340   2.413
42136W        W 7363  38.796  37.804  14.817
42137W        W 7364  39.300  17.530   2.373
42138W        W 7365  41.264  44.125  11.626
42139W        W 7366  17.486   5.125   3.143
42140W        W 7367  12.200   2.691  11.454
42141W        W 7368  13.717  41.090  11.562
42142W        W 7369  20.395   0.220   4.524
42143W        W 7370  44.336   4.508  12.334
42144W        W 7371  12.871   5.334  13.829
42145W        W 7372  21.510   2.110   0.887
42146W        W 7373  20.823   8.322   2.633
42147W        W 7374  10.230   0.504  11.453
42148W        W 7375  41.820  21.293   4.558
42149W        W 7376  27.107  27.932   4.140
42150W        W 7377  33.600  30.519   1.700
42151W        W 7378  21.040  18.436   0.732
42152W        W 7379  17.619  13.114   3.649
42153W        W 7380  30.895  22.173   4.557
42154W        W 7381  31.934  25.513  14.740
42155W        W 7382  23.240  39.619   3.289
42156W        W 7383  28.099  36.302  11.055
42157W        W 7384  10.420  39.183   4.937
42158W        W 7385  21.803  38.330   2.347
42159W        W 7386   8.837   0.711  10.273
42160W        W 7387  13.746  26.392  13.557
42161W        W 7388  41.235  39.823   2.349
42162W        W 7389   6.621  26.927   4.166
42163W        W 7390   7.279  13.093  14.499
42164W        W 7391   6.709  17.089   1.083
42165W        W 7392  38.486  35.848   4.500
42166W        W 7393  30.057   8.478  13.857
42167W        W 7394  36.586  21.141  11.293
42168W        W 7395  43.326  16.336  14.052
42169W        W 7396  27.945   5.534   3.466
42170W        W 7397   0.675   1.763   0.827
42171W        W 7398  21.657   3.247   2.677
42172W        W 7399  32.500  42.283   4.245
42173W        W 7400  19.474  31.335   5.022
42174W        W 7401  28.954   4.221   3.572
42175W        W 7402   9.743   5.771  10.724
42176W        W 7403   0.339  41.027  10.891
42177W        W 7404  43.216  22.127   4.010
42178W        W 7405  35.027  35.448  12.043
42179W        W 7406  24.588  44.068   1.953
42180W        W 7407   1.745   1.347   4.214
42181W        W 7408  40.759  43.222  12.608
42182W        W 7409   4.316  19.575  14.979
42183W        W 7410  28.165  25.526  13.717
42184W        W 7411  30.873   8.427  10.521
42185W        W 7412  20.987  10.304   3.640
42186W        W 7413  10.139  15.065  11.125
42187W        W 7414   8.381  37.019  12.868
42188W        W 7415  25.780  19.145  14.334
42189W        W 7416  30.946  31.402   0.010
42190W        W 7417  26.599  35.120   4.150
42191W        W 7418  13.585  18.628  11.146
42192W        W 7419  21.774  19.636  14.512
42193W        W 7420   4.907  10.588  13.342
42194W        W 7421  39.611  10.644  14.778
42195W        W 7422  37.508   5.123  12.406
42196W        W 7423  14.631  22.187   1.872
42197W        W 7424  39.534  38.022  13.253
42198W        W 7425   0.019  44.201   1.894
42199W        W 7426  11.131  27.028  12.443
42200W        W 7427  30.612  38.113  12.550
42201W        W 7428  23.514  18.079  10.671
42202W        W 7429   2.840  35.400  13.464
42203W        W 7430  33.478   2.338   4.111
42204W        W 7431   8.188  42.076   3.772
42205W        W 7432   0.835   0.793   4.137
42206W        W 7433   3.894   4.332   2.305
42207W        W 7434   6.515  34.538   4.451
42208W        W 7435  27.390  20.111  10.687
42209W        W 7436  19.785  16.235   2.613
42210W        W 7437   9.186  15.837  10.691
42211W        W 7438  41.904  30.408   3.578
42212W        W 7439   5.774  17.089   3.048
42213W        W 7440  17.601   2.805   3.921
42214W        W 7441  27.052  42.125  11.688
42215W        W 7442   6.701  36.373   1.359
42216W        W 7443  44.948  24.490  10.667
42217W        W 7444  33.658   9.752   2.873
42218W        W 7445  11.634  11.670  14.503
42219W        W 7446  33.778  35.030  11.515
42220W        W 7447  43.235  32.027   1.263
42221W        W 7448   5.907  18.319  14.410
42222W        W 7449  19.210  20.047  14.155
42223W        W 7450  35.835  32.099  14.469
42224W        W 7451  26.993  35.298   1.709
42225W        W 7452   9.621  27.945  14.719
42226W        W 7453  30.812  41.790  12.784
42227W        W 7454  29.148  33.307   2.999
42228W        W 7455   9.395  43.833  10.905
42229W        W 7456  11.268  27.894  13.325
42230W        W 7457  37.035  16.726   0.734
42231W        W 7458  27.968  12.840  10.487
42232W        W 7459  43.205  11.079   1.329
42233W        W 7460   7.889   5.714  12.025
42234W        W 7461  10.892  16.207  10.547
42235W        W 7462   1.927  34.558   0.974
42236W        W 7463  29.546  36.385   4.096
42237W        W 7464  43.846  30.411   1.187
42238W        W 7465  14.814  36.845  11.073
42239W        W 7466  29.064  31.297  10.809
42240W        W 7467  38.867  17.999   4.179
42241W        W 7468  24.958  15.443   4.947
42242W        W 7469  27.992  22.703   4.497
42243W        W 7470  31.075  29.976   4.361
42244W        W 7471  32.868   7.299  13.365
42245W        W 7472   6.136  27.491   3.663
42246W        W 7473  35.934   2.369   2.081
42247W        W 7474  13.860  15.470  13.018
42248W        W 7475  41.805   4.278  12.437
42249W        W 7476  34.661   8.319   3.575
42250W        W 7477   3.395  17.647   1.354
42251W        W 7478  10.301   6.281  13.984
42252W        W 7479   0.830  38.336   0.830
42253W        W 7480  17.183   0.304  12.458
42254W        W 7481  22.560   3.065   1.198
42255W        W 7482   5.883   0.975  13.380
42256W        W 7483  13.163  43.634   2.920
42257W        W 7484  33.026  35.430  11.148
42258W        W 7485  15.080   6.881  11.609
42259W        W 7486  27.012  34.833  13.879
42260W        W 7487  14.218  14.586  11.211
42261W        W 7488   5.256   4.517   3.348
42262W        W 7489  25.059  23.516  12.065
42263W        W 7490  18.078  35.922  14.663
42264W        W 7491  21.555  29.187  11.424
42265W        W 7492  22.177   3.292   2.828
42266W        W 7493  41.015  15.318  14.546
42267W        W 7494  25.789  39.965   0.494
42268W        W 7495  31.330  23.310   2.328
42269W        W 7496  13.051  17.586  10.753
42270W        W 7497  17.168  15.098   2.247
42271W        W 7498  14.125   6.605  14.279
42272W        W 7499  11.203  28.246  14.799
42273W        W 7500  15.927  34.572   2.787
42274W        W 7501  14.599  19.581  14.355
42275W        W 7502  24.022  11.283  14.305
42276W        W 7503  12.734  37.549  13.023
42277W        W 7504  19.505  22.985   1.306
42278W        W 7505  24.025  41.622  13.534
42279W        W 7506  26.883   6.831  14.820
42280W        W 7507  29.460  29.372  12.412
42281W        W 7508  35.144  38.301   0.603
42282W        W 7509   3.383  30.721  12.619
42283W        W 7510   4.832  39.559  14.396
42284W        W 7511  42.367  26.101   3.708
42285W        W 7512  25.943  31.686   1.892
42286W        W 7513  30.499  36.369   2.228
42287W        W 7514   9.112  41.842   0.400
42288W        W 7515   4.931  29.952   9.991
42289W        W 7516  12.093  18.216   1.705
42290W        W 7517  42.694  16.140  14.357
42291W        W 7518   3.347  28.659   4.601
42292W        W 7519  20.578  10.150   0.857
42293W        W 7520  35.162  37.865  12.867
42294W        W 7521  14.193  23.136  10.634
42295W        W 7522  32.433  16.664   3.160
42296W        W 7523   8.480  14.515  12.395
42297W        W 7524  37.496   9.758   0.884
42298W        W 7525  35.476   7.526  10.423
42299W        W 7526  11.897  33.106   3.673
42300W        W 7527  20.754  28.379  10.745
42301W        W 7528  19.571  21.161   4.256
42302W        W 7529  14.024   1.044   0.752
42303W        W 7530   2.630   0.378  11.728
42304W        W 7531  16.772  12.591  11.909
42305W        W 7532   5.130  15.717  11.962
42306W        W 7533  26.485  37.396  14.521
42307W        W 7534   8.690  33.086  13.950
42308W        W 7535   8.376   6.320  11.842
42309W        W 7536   4.652  25.807   2.141
42310W        W 7537  16.981   3.022  10.408
42311W        W 7538  36.052  20.318  12.067
42312W        W 7539  42.746  35.991  10.936
42313W        W 7540   2.355  19.576   4.348
42314W        W 7541  15.721  41.616  12.857
42315W        W 7542   6.181  30.387  12.806
42316W        W 7543  32.600  39.666   2.333
42317W        W 7544  32.857  21.089   4.577
42318W        W 7545  40.052  24.085   0.234
42319W        W 7546  35.941  23.764  14.588
42320W        W 7547  39.781  32.589   4.138
42321W        W 7548  20.604  24.902   1.971
42322W        W 7549  24.683  23.596  10.783
42323W        W 7550  35.143  35.939  11.853
42324W        W 7551   2.857  37.610   2.186
42325W        W 7552  20.457  34.958  12.488
42326W        W 7553  25.766  39.107   3.595
42327W        W 7554  23.927  11.569  11.130
42328W        W 7555  38.033  22.491  14.933
42329W        W 7556  20.709   0.392  10.204
42330W        W 7557  32.129  28.781   1.189
42331W        W 7558  40.034  10.825  13.821
42332W        W 7559   3.711  14.592   4.021
42333W        W 7560  21.881  14.195  14.200
42334W        W 7561  18.942  18.736  11.531
42335W        W 7562   4.162  25.899   2.333
42336W        W 7563  10.818  30.881  13.553
42337W        W 7564  30.079   1.719  14.015
42338W        W 7565  44.730  16.668   0.825
42339W        W 7566  24.532  30.186  13.351
42340W        W 7567  16.261  26.949  13.792
42341W        W 7568  31.357  33.961   1.800
42342W        W 7569  22.537  18.261   2.811
42343W        W 7570  30.503  10.980   0.895
42344W        W 7571  34.113   1.249   2.654
42345W        W 7572   0.389  32.417   3.711
42346W        W 7573  30.199  12.114   0.840
42347W        W 7574  34.051  37.054  11.580
42348W        W 7575  11.256  16.047  11.820
42349W        W 7576   5.193  20.597   3.114
42350W        W 7577   6.015  14.158   2.119
42351W        W 7578  29.352  31.892   4.244
42352W        W 7579  36.793  10.681  14.222
42353W        W 7580  32.645  35.692  14.350
42354W        W 7581   9.970  33.552   4.755
42355W        W 7582  12.642   8.555   1.382
42356W        W 7583  11.345   1.798   2.867
42357W        W 7584  33.634  14.010   3.313
42358W        W 7585  20.114  13.160  11.939
42359W        W 7586  10.241  31.126   1.187
42360W        W 7587   3.016  26.621  13.328
42361W        W 7588  21.568   6.157  10.268
42362W        W 7589   0.050   1.500   2.684
42363W        W 7590  33.700  19.671   2.787
42364W        W 7591  38.438  10.595   3.647
42365W        W 7592  38.938  10.219   1.807
42366W        W 7593  44.010  14.197   4.104
42367W        W 7594  31.108  13.353  11.640
42368W        W 7595  44.893  15.066   3.688
42369W        W 7596  10.213  26.062  12.263
42370W        W 7597   8.082  24.104  13.383
42371W        W 7598  26.136  19.229   2.241
42372W        W 7599   5.816   9.633   3.657
42373W        W 7600  32.379  16.625  14.942
42374W        W 7601  36.335  12.171   2.824
42375W        W 7602   9.367  43.348  10.670
42376W        W 7603  19.699  22.025   4.704
42377W        W 7604  33.610  28.109   4.529
42378W        W 7605   8.646   3.021   3.191
42379W        W 7606  28.172  33.148  12.355
42380W        W 7607  37.664   0.785   5.137
42381W        W 7608   1.981  30.413   1.842
42382W        W 7609  25.353  25.332  13.103
42383W        W 7610   7.418  19.128  10.526
42384W        W 7611  10.345  29.492  14.870
42385W        W 7612  11.699  14.405   3.247
42386W        W 7613   2.181  21.546  12.546
42387W        W 7614  11.880  13.082   0.130
42388W        W 7615   8.328   5.722   4.507
42389W        W 7616   8.454  11.447  11.452
42390W        W 7617  28.117  21.029   0.323
42391W        W 7618  10.846  28.191  13.693
42392W        W 7619  41.578   5.491  12.834
42393W        W 7620  26.745  34.061   3.255
42394W        W 7621  21.717  30.049   4.589
42395W        W 7622  39.872  23.800  14.797
42396W        W 7623  27.639   4.863   4.536
42397W        W 7624  38.070  42.824   1.522
42398W        W 7625  17.414   0.260   4.824
42399W        W 7626   9.998  41.527  14.033
42400W        W 7627   0.361  30.748  14.074
42401W        W 7628  31.943  43.270  12.618
42402W        W 7629  11.156  10.082  12.465
42403W        W 7630  21.590  16.139   1.379
42404W        W 7631  12.095   6.685   3.399
42405W        W 7632  17.135  31.389  10.775
42406W        W 7633  19.283  11.295  12.157
42407W        W 7634   0.119   8.793   4.319
42408W        W 7635  15.571   1.803   9.929
42409W        W 7636  21.574  44.025  14.838
42410W        W 7637  33.868  34.782   1.197
42411W        W 7638  29.673   6.175   3.843
42412W        W 7639  12.690  38.250   2.102
42413W        W 7640   1.213  16.916  14.088
42414W        W 7641  10.762  11.837   4.823
42415W        W 7642  13.554  33.452  14.440
42416W        W 7643  13.975   2.310  12.929
42417W        W 7644  33.328  10.741  12.467
42418W        W 7645  29.249  44.422  11.949
42419W        W 7646  42.049  23.281   1.322
42420W        W 7647   7.342   6.426  11.655
42421W        W 7648  41.289  12.224  13.475
42422W        W 7649  38.248  20.714   4.266
42423W        W 7650  19.729  41.748   4.186
42424W        W 7651  39.620  31.038  12.577
42425W        W 7652  41.779  18.790  14.811
42426W        W 7653   0.207  30.129  12.514
42427W        W 7654  16.710  18.836   3.029
42428W        W 7655  11.316  31.533  11.169
42429W        W 7656  14.630  34.874  11.221
42430W        W 7657   2.002  35.628   2.399
42431W        W 7658   9.761  12.217   0.398
42432W        W 7659  32.447  11.711  12.579
42433W        W 7660  37.758  18.296   5.092
42434W        W 7661  20.565   5.390   4.723
42435W        W 7662  14.083  35.806  13.892
42436W        W 7663   4.404  29.474   1.871
42437W        W 7664  43.936  38.081   4.862
42438W        W 7665  11.670  41.242  12.608
42439W        W 7666  13.717  42.067  11.557
42440W        W 7667  26.164  35.784   1.190
42441W        W 7668  19.725   6.995   0.791
42442W        W 7669   7.722   9.791   0.494
42443W        W 7670  30.802   9.645   0.876
42444W        W 7671   7.522  31.021   0.018
42445W        W 7672  43.809  26.260  14.790
42446W        W 7673  20.688  11.609   3.755
42447W        W 7674  25.635  10.093   2.860
42448W        W 7675  26.583  43.605   2.598
42449W        W 7676  19.513  28.989   4.047
42450W        W 7677  34.777  17.724   2.610
42451W        W 7678  30.027  23.953   2.785
42452W        W 7679  24.725  39.610  13.777
42453W        W 7680   0.447   6.262  14.317
42454W        W 7681  39.449  23.455   3.974
42455W        W 7682  40.404  22.985   0.740
42456W        W 7683  28.400  27.260   1.281
42457W        W 7684   7.626  13.027  10.253
42458W        W 7685  44.005  37.046   4.420
42459W        W 7686  30.888   9.154  12.557
42460W        W 7687  35.295  40.947   0.352
42461W        W 7688   1.850  22.658   4.138
42462W        W 7689  41.490  12.719   2.242
42463W        W 7690  30.237   3.134   1.416
42464W        W 7691  37.784  35.466  12.646
42465W        W 7692   2.231  30.536   1.400
42466W        W 7693  15.034  33.486  13.237
42467W        W 7694   3.945  13.973   3.259
42468W        W 7695  33.395   5.793   2.104
42469W        W 7696  12.204   2.425  12.926
42470W        W 7697   9.260  30.393  13.554
42471W        W 7698  21.166   2.106  14.838
42472W        W 7699  20.108  15.782  10.780
42473W        W 7700   0.021  42.056  11.587
42474W        W 7701  33.957  18.693  14.063
42475W        W 7702  20.039  20.806   3.872
42476W        W 7703  25.744  13.633  13.094
42477W        W 7704  24.347   5.398  14.428
42478W        W 7705  37.115  15.197  12.785
42479W        W 7706   6.746  11.147   4.179
42480W        W 7707  40.808  40.427   2.208
42481W        W 7708  17.631  20.742   0.771
42482W        W 7709  34.146  37.643  11.722
42483W        W 7710  41.062   5.380   0.704
42484W        W 7711  40.912  34.487   0.932
42485W        W 7712  25.714  35.763   1.903
42486W        W 7713  10.261  42.720   3.185
42487W        W 7714  13.981  23.771  12.061
42488W        W 7715  40.883  17.172   4.611
42489W        W 7716  29.069  34.119  12.518
42490W        W 7717  28.645   9.189   1.850
42491W        W 7718  16.611   4.299   1.754
42492W        W 7719  17.922   6.709  13.569
42493W        W 7720  31.770  12.757   1.436
42494W        W 7721  19.055   1.135   3.105
42495W        W 7722   3.451  15.268   2.203
42496W        W 7723  24.178  43.029  13.541
42497W        W 7724  15.580  27.210  13.096
42498W        W 7725   7.942   6.633  13.538
42499W        W 7726  42.596  13.324   3.636
42500W        W 7727  24.006  14.084   1.697
42501W        W 7728  36.331  18.599  14.348
42502W        W 7729  31.766  36.148   2.725
42503W        W 7730  31.562  26.713  11.939
42504W        W 7731  42.699   4.207  13.557
42505W        W 7732  11.736  31.217  10.606
42506W        W 7733  41.586  32.631  13.944
42507W        W 7734  23.692  15.641   1.318
42508W        W 7735  42.429   0.159  11.155
42509W        W 7736  12.264  14.493  11.992
42510W        W 7737  12.458  37.535  14.940
42511W        W 7738  44.109  18.055   1.752
42512W        W 7739  32.606  22.707   0.056
42513W        W 7740  26.559  34.780   1.031
42514W        W 7741  34.077  40.073  13.887
42515W        W 7742  38.668   2.749  10.820
42516W        W 7743  16.594   7.828   1.844
42517W        W 7744  16.145  14.129  13.768
42518W        W 7745  19.926   8.202   2.165
42519W        W 7746   8.507  16.607  11.695
42520W        W 7747  40.085  44.398  11.159
42521W        W 7748  10.107  26.192   3.804
42522W        W 7749  12.364  42.894  11.119
42523W        W 7750  31.217  43.899  14.354
42524W        W 7751  17.641  31.571  13.963
42525W        W 7752  22.734  10.905   3.863
42526W        W 7753  44.984   6.984  11.649
42527W        W 7754  15.373  28.249   2.207
42528W        W 7755  34.455  41.810  11.236
42529W        W 7756  39.361  28.158  13.929
42530W        W 7757  34.533  17.086  12.617
42531W        W 7758   8.328  22.337  13.588
42532W        W 7759  20.923  42.827  13.856
42533W        W 7760  15.887  44.794   0.644
42534W        W 7761  10.960  29.936  12.397
42535W        W 7762  29.574  12.884  12.762
42536W        W 7763  23.789  23.719   2.563
42537W        W 7764  34.493  39.976   3.375
42538W        W 7765  36.566  38.864   4.605
42539W        W 7766  40.261   7.684   3.451
42540W        W 7767  38.304  28.576   2.793
42541W        W 7768  32.378  35.568  13.483
42542W        W 7769  39.308  36.973  10.473
42543W        W 7770  31.384   2.576  14.273
42544W        W 7771   3.487  27.939  10.193
42545W        W 7772  35.177  19.212  10.995
42546W        W 7773  17.629   8.168   3.706
42547W        W 7774   0.839   3.047   1.232
42548W        W 7775   4.488  10.079  14.908
42549W        W 7776  11.596  35.515   1.397
42550W        W 7777   0.795   3.800  14.906
42551W        W 7778  43.218  15.220   1.411
42552W        W 7779  11.349  24.160  13.892
42553W        W 7780  44.315  26.817   1.350
42554W        W 7781  20.715  39.033  12.602
42555W        W 7782  25.474  32.967   2.700
42556W        W 7783  27.966  20.268   4.654
42557W        W 7784   3.456  11.838   3.252
42558W        W 7785  20.156  16.469   2.296
42559W        W 7786  11.193   5.343   1.150
42560W        W 7787  12.028  29.050  13.915
42561W        W 7788  33.960  28.978   4.103
42562W        W 7789   6.193  23.649   4.617
42563W        W 7790  21.244  25.084  11.601
42564W        W 7791  15.780   7.691   4.276
42565W        W 7792  34.578  11.985  12.902
42566W        W 7793  39.605  11.566  14.853
42567W        W 7794  15.296  34.514  14.035
42568W        W 7795   5.871   4.455   1.276
42569W        W 7796  36.813  24.439   2.742
42570W        W 7797  33.855   1.938   2.554
42571W        W 7798  34.613  11.557  14.438
42572W        W 7799  43.454   2.647  13.910
42573W        W 7800  18.058  19.025   3.308
42574W        W 7801  44.568  17.722  13.951
42575W        W 7802  31.709  20.574  14.559
42576W        W 7803  27.920  11.381   2.905
42577W        W 7804   6.827   2.106   3.677
42578W        W 7805  41.448  22.740  14.828
42579W        W 7806  13.570  26.818  13.357
42580W        W 7807  14.875  36.175  14.346
42581W        W 7808  25.195  21.720  12.465
42582W        W 7809  14.266  42.017  14.852
42583W        W 7810   0.523  22.579  13.219
42584W        W 7811  25.517  27.169   0.400
42585W        W 7812   4.717  17.634  14.976
42586W        W 7813  22.794  44.542   0.815
42587W        W 7814  14.656   6.679  14.490
42588W        W 7815  41.574  42.567   4.160
42589W        W 7816  21.701  23.516  10.473
42590W        W 7817   6.510   9.236   2.329
42591W        W 7818  38.362  22.149   2.972
42592W        W 7819   5.193  42.263  12.654
42593W        W 7820  11.072  28.441   4.064
42594W        W 7821  35.621  11.650   2.029
42595W        W 7822  17.653  20.769   2.570
42596W        W 7823  13.739  38.791  13.520
42597W        W 7824  22.514  16.806   3.100
42598W        W 7825  26.953  32.367  13.064
42599W        W 7826  17.089  29.407  10.505
42600W        W 7827   7.854  31.917   0.802
42601W        W 7828   3.987  32.491  14.817
42602W        W 7829  39.017  28.553  12.874
42603W        W 7830  32.355   7.884  11.243
42604W        W 7831   5.688  26.135  11.731
42605W        W 7832  27.570  32.110  13.871
42606W        W 7833  39.798  10.694  13.365
42607W        W 7834  38.718  27.104  10.527
42608W        W 7835  43.844  12.866   4.044
42609W        W 7836  30.065   3.904   4.624
42610W        W 7837   0.761   2.784  14.689
42611W        W 7838  34.046   4.874  11.481
42612W        W 7839  22.519  22.899   0.184
42613W        W 7840  26.122   7.883  10.998
42614W        W 7841  27.687  21.116   0.006
42615W        W 7842   4.268  37.843   0.269
42616W        W 7843  36.972  31.263   4.450
42617W        W 7844   5.880  43.752   4.824
42618W        W 7845   9.951  26.318  14.979
42619W        W 7846   8.861  23.698  12.844
42620W        W 7847  16.663  39.919   1.471
42621W        W 7848  10.920  11.207  12.039
42622W        W 7849  32.079   0.263   2.172
42623W        W 7850  37.139  33.284   4.548
42624W        W 7851  13.316   7.853   3.275
42625W        W 7852  30.183  23.638   3.167
42626W        W 7853   1.448  15.604   1.883
42627W        W 7854  20.642   3.266  12.214
42628W        W 7855  38.561  23.486   3.130
42629W        W 7856  42.382  29.635  11.137
42630W        W 7857   7.572  17.336  10.708
42631W        W 7858  25.793   9.195  13.106
42632W        W 7859  19.821  44.368  11.039
42633W        W 7860  38.809   1.233  13.986
42634W        W 7861  30.547  26.892  13.903
42635W        W 7862   2.789  41.151  11.385
42636W        W 7863  37.459  24.434   0.508
42637W        W 7864   0.981  36.355   3.656
42638W        W 7865  29.433  12.311   2.054
42639W        W 7866  38.566   3.536   0.938
42640W        W 7867  44.181  23.142   3.725
42641W        W 7868  24.288   6.229  11.640
42642W        W 7869  29.009  26.682   0.335
42643W        W 7870  15.307  11.931  12.924
42644W        W 7871  33.575   1.345   3.757
42645W        W 7872  34.476  29.414   1.321
42646W        W 7873   6.449  42.035   3.239
42647W        W 7874  25.472  18.332  14.746
42648W        W 7875  42.776  30.663   0.702
42649W        W 7876  30.531  44.350   4.500
42650W        W 7877  22.839  12.784   1.926
42651W        W 7878   1.384  24.672  10.885
42652W        W 7879  40.353  27.237  13.559
42653W        W 7880  16.958  10.205  10.362
42654W        W 7881  41.576  35.980  12.158
42655W        W 7882  12.436   8.797   5.095
42656W        W 7883  32.078  42.094   0.648
42657W        W 7884  21.832  20.950  12.651
42658W        W 7885  44.572  33.122   1.921
42659W        W 7886   6.520  35.183   1.173
42660W        W 7887  10.161  39.023   3.264
42661W        W 7888  31.055  30.436   4.694
42662W        W 7889   9.621   0.329   3.777
42663W        W 7890   1.906   3.916  13.081
42664W        W 7891  11.139  20.716  12.262
42665W        W 7892  39.943  24.434  13.983
42666W        W 7893  17.711   6.469   2.794
42667W        W 7894   6.664  22.114  10.535
42668W        W 7895  11.143  29.075  11.896
42669W        W 7896  18.315  29.267   3.087
42670W        W 7897  32.348  10.762   3.068
42671W        W 7898  17.710  34.152   1.806
42672W        W 7899  25.278  33.932  11.459
42673W        W 7900  29.928   6.832   4.011
42674W        W 7901  15.321   7.660   4.529
42675W        W 7902   5.744  26.412  14.778
42676W        W 7903  33.023   3.405   1.081
42677W        W 7904  42.253  22.299  11.416
42678W        W 7905   5.294  37.357  11.436
42679W        W 7906  20.316  33.856  12.854
42680W        W 7907  30.830   3.957  14.797
42681W        W 7908  20.629  40.358  12.635
42682W        W 7909  36.383  26.006   0.592
42683W        W 7910  33.288  15.561  13.667
42684W        W 7911  43.797  27.584  14.056
42685W        W 7912  37.455  39.533  13.804
42686W        W 7913  11.771  36.661   3.234
42687W        W 7914  34.882  32.507  11.715
42688W        W 7915  12.224  28.191   2.056
42689W        W 7916  22.644  15.893   4.691
42690W        W 7917  43.256  35.693  11.694
42691W        W 7918  11.894   6.462   0.469
42692W        W 7919  19.044  11.116   5.073
42693W        W 7920  25.487  13.593   0.361
42694W        W 7921  21.808  20.065  12.529
42695W        W 7922  35.902  20.743   3.259
42696W        W 7923   1.780  32.254  12.690
42697W        W 7924  27.341  16.244   2.689
42698W        W 7925   8.459   1.574  14.371
42699W        W 7926  23.784  44.950  14.110
42700W        W 7927  12.216  37.910  14.586
42701W        W 7928   4.368  44.388   0.892
42702W        W 7929  21.045   5.514   0.713
42703W        W 7930   5.369   4.215  10.715
42704W        W 7931  22.209   2.905  12.810
42705W        W 7932  10.852  29.839   1.270
42706W        W 7933  11.812  16.335   1.511
42707W        W 7934   2.729   3.751   4.631
42708W        W 7935   6.345  32.800  10.503
42709W        W 7936  10.755  44.449   4.573
42710W        W 7937   3.783   4.897  12.049
42711W        W 7938  12.501  43.554  14.076
42712W        W 7939   2.819  44.859   4.982
42713W        W 7940   9.792  38.181   3.155
42714W        W 7941   0.772  11.789  12.570
42715W        W 7942  23.111  35.547   3.736
42716W        W 7943  21.033   5.056   0.928
42717W        W 7944   9.338   5.391  11.704
42718W        W 7945  26.198  41.201  12.091
42719W        W 7946  41.506   4.095   1.952
42720W        W 7947  44.360  10.302   2.245
42721W        W 7948  39.396  12.175   1.988
42722W        W 7949   7.925   8.341   2.741
42723W        W 7950  29.471  32.190  11.999
42724W        W 7951  32.057   5.829   1.501
42725W        W 7952  21.592   6.754  10.872
42726W        W 7953  15.054  28.506   4.120
42727W        W 7954   7.929   3.459  12.665
42728W        W 7955   7.238  18.711   4.619
42729W        W 7956   0.341  25.016   4.116
42730W        W 7957  14.820  28.526   0.842
42731W        W 7958   7.103   2.249   1.688
42732W        W 7959   4.385  40.049  12.182
42733W        W 7960  13.713  13.300  11.949
42734W        W 7961  16.049   2.894  11.427
42735W        W 7962   9.223  40.616  12.179
42736W        W 7963  11.216  44.759   2.721
42737W        W 7964  17.378   5.386  13.491
42738W        W 7965  16.197   9.878  14.962
42739W        W 7966  41.092  40.805  12.071
42740W        W 7967  22.368  39.915  12.825
42741W        W 7968  18.767  22.680   1.806
42742W        W 7969  23.154   6.665   2.597
42743W        W 7970   6.290  36.586  12.966
42744W        W 7971  26.590  14.938  12.699
42745W        W 7972  33.665  15.067  10.545
42746W        W 7973  37.307  37.050   5.095
42747W        W 7974  27.567  44.034  10.581
42748W        W 7975   1.210  24.165   1.836
42749W        W 7976  42.906   3.999  11.894
42750W        W 7977  18.728  33.300   3.604
42751W        W 7978  31.409   9.225  13.956
42752W        W 7979  41.011  41.389  13.324
42753W        W 7980  15.773  14.677  14.448
42754W        W 7981  21.070   2.795  14.463
42755W        W 7982  18.884  17.624   0.574
42756W        W 7983  26.249  33.846  11.605
42757W        W 7984  15.534  25.394  13.941
42758W        W 7985  10.450   7.914  14.820
42759W        W 7986   4.018   0.654  14.832
42760W        W 7987   4.995  29.259   3.888
42761W        W 7988  26.994  14.085  13.881
42762W        W 7989  31.084   3.370  12.849
42763W        W 7990   4.921   1.292  14.065
42764W        W 7991  16.342  32.864   0.698
42765W        W 7992  13.301  42.522   1.154
42766W        W 7993  17.786  18.703  12.025
42767W        W 7994  23.564  43.930   0.769
42768W        W 7995  37.152  26.467  11.918
42769W        W 7996  19.276  19.048   2.281
42770W        W 7997  32.367  44.538   1.739
42771W        W 7998  11.317  25.948  10.738
42772W        W 7999  24.524  12.001   2.728
42773W        W 8000  11.093  43.852   1.276
42774W        W 8001   7.509  19.801   3.739
42775W        W 8002  37.454  14.861   3.143
42776W        W 8003  41.289  18.812   1.473
42777W        W 8004  38.884   2.560   5.059
42778W        W 8005   1.296  29.173   1.922
42779W        W 8006  16.165  24.023   4.666
42780W        W 8007  10.135  42.780  11.659
42781W        W 8008  22.763  25.623  14.860
42782W        W 8009  36.106  34.960  12.467
42783W        W 8010  20.208  14.671   0.390
42784W        W 8011  21.476  16.836   4.832
42785W        W 8012  35.359   5.167   0.662
42786W        W 8013  15.829  14.228  12.147
42787W        W 8014   2.611   4.564   2.730
42788W        W 8015  27.316  23.765   1.763
42789W        W 8016  37.102  37.013  11.567
42790W        W 8017   0.471  21.537   1.321
42791W        W 8018   7.279   3.437  14.019
42792W        W 8019   8.642  20.529   2.038
42793W        W 8020   4.660  24.716  10.603
42794W        W 8021  30.646  21.428   3.813
42795W        W 8022  15.746  11.896  12.518
42796W        W 8023  20.800  15.099  14.890
42797W        W 8024  29.130  16.293   3.631
42798W        W 8025  17.987  40.491   2.379
42799W        W 8026  27.282  34.974   3.425
42800W        W 8027  43.870  39.566  12.566
42801W        W 8028  21.729  17.311  10.433
42802W        W 8029  19.285   6.424   1.406
42803W        W 8030   2.267   1.442   3.247
42804W        W 8031  31.524  36.407  14.356
42805W        W 8032  34.368  39.527   3.574
42806W        W 8033  15.808  37.635   3.541
42807W        W 8034  43.267  14.121   0.456
42808W        W 8035  29.586  23.901  10.182
42809W        W 8036  14.251  12.256   4.614
42810W        W 8037  11.237  22.527  14.246
42811W        W 8038  34.551  32.052  13.165
42812W        W 8039  11.334   1.267  10.651
42813W        W 8040  37.498  18.057  12.891
42814W        W 8041   2.989  36.129  13.149
42815W        W 8042   6.721  27.300   2.914
42816W        W 8043  42.632   6.565   4.931
42817W        W 8044  40.488  39.780  12.625
42818W        W 8045   2.643  11.604  14.236
42819W        W 8046  24.166  10.897   4.071
42820W        W 8047   8.784  31.981   1.523
42821W        W 8048  26.971   3.994   3.621
42822W        W 8049  18.441  39.582   0.808
42823W        W 8050  44.916  14.310  14.370
42824W        W 8051  19.383   3.059   3.666
42825W        W 8052  20.367   7.621  14.525
42826W        W 8053   4.679  16.213  12.232
42827W        W 8054  27.180  21.486   0.244
42828W        W 8055  27.213  24.555   1.922
42829W        W 8056  22.558  33.015  11.839
42830W        W 8057  24.894   7.442   3.922
42831W        W 8058   1.477   6.818  14.283
42832W        W 8059  18.707  25.015  12.832
42833W        W 8060  38.228  35.634  13.429
42834W        W 8061  11.169  40.032  12.972
42835W        W 8062  20.876  25.759  11.902
42836W        W 8063  25.019  30.435  14.540
42837W        W 8064   3.733   8.726   2.232
42838W        W 8065  25.960  21.536   3.242
42839W        W 8066   4.728  13.737  14.591
42840W        W 8067  20.280  15.171   4.205
42841W        W 8068  23.059  41.435   0.729
42842W        W 8069  35.347  34.008  11.108
42843W        W 8070  39.712  15.774   3.314
42844W        W 8071  18.604   5.033  10.220
42845W        W 8072  29.975  14.825   0.419
42846W        W 8073   0.703  16.680   0.563
42847W        W 8074  20.817  40.941  11.966
42848W        W 8075   1.993   6.691   2.189
42849W        W 8076  40.763  35.066   0.423
42850W        W 8077  36.142  37.792  13.724
42851W        W 8078  15.161  38.019  13.766
42852W        W 8079   9.275  25.616  13.531
42853W        W 8080  22.496  18.839  14.651
42854W        W 8081  31.148   8.460  13.097
42855W        W 8082  21.434  39.699   3.982
42856W        W 8083  15.864  13.788  14.304
42857W        W 8084  17.093   2.892   3.861
42858W        W 8085  24.651   4.629   1.330
42859W        W 8086   6.274  17.115   2.270
42860W        W 8087  27.081  23.197   0.432
42861W        W 8088  30.099  42.436   3.332
42862W        W 8089  22.362  10.662  12.118
42863W        W 8090  23.477  16.467   1.572
42864W        W 8091  40.559  13.094  13.189
42865W        W 8092  35.039   1.614   3.273
42866W        W 8093  25.541  22.999  12.597
42867W        W 8094  30.694   7.283   2.687
42868W        W 8095   0.845  23.345   5.334
42869W        W 8096  10.081  22.357  13.869
42870W        W 8097  26.545   0.750   5.629
42871W        W 8098  43.097  13.376  14.702
42872W        W 8099   5.341   5.268  10.780
42873W        W 8100  13.671  19.190   1.125
42874W        W 8101  27.886  25.950   0.333
42875W        W 8102  19.503  28.802   4.545
42876W        W 8103  38.172  13.225  11.117
42877W        W 8104  30.682  43.111   3.461
42878W        W 8105  16.708  16.095  13.642
42879W        W 8106   0.806  34.760   3.323
42880W        W 8107  15.735  27.903   3.155
42881W        W 8108  22.431  40.711   4.175
42882W        W 8109  44.935  16.106  14.851
42883W        W 8110  40.265  15.154  11.401
42884W        W 8111  32.544   4.223   1.981
42885W        W 8112   6.347  43.292   1.711
42886W        W 8113   6.760  18.634   1.039
42887W        W 8114  40.379   2.133   0.814
42888W        W 8115  37.124  35.956  13.891
42889W        W 8116  18.877  30.002   0.390
42890W        W 8117  11.351  11.559   2.834
42891W        W 8118  26.674   6.693   0.366
42892W        W 8119   3.296  26.452   3.281
42893W        W 8120  25.064  36.553  11.757
42894W        W 8121  23.201  10.827  11.822
42895W        W 8122  18.545  37.348  11.489
42896W        W 8123   1.695  10.617   3.599
42897W        W 8124  31.843   2.860   3.041
42898W        W 8125  33.561  19.531  13.922
42899W        W 8126  42.047   5.782   1.913
42900W        W 8127  26.644  21.515  11.345
42901W        W 8128  35.914  13.584  14.870
42902W        W 8129  18.073  12.567   4.094
42903W        W 8130  44.225  44.502   4.248
42904W        W 8131  14.696  29.310   0.915
42905W        W 8132  16.315  20.000  14.819
42906W        W 8133  44.208  16.113  13.516
42907W        W 8134  43.190   7.201   1.300
42908W        W 8135   5.407  40.975   1.131
42909W        W 8136   7.440  28.443   2.747
42910W        W 8137  37.883  14.969   2.861
42911W        W 8138   6.187   2.234  11.111
42912W        W 8139  16.712  15.620  10.996
42913W        W 8140  42.738   1.947   2.835
42914W        W 8141  39.973  18.243  13.058
42915W        W 8142   6.773   8.444  12.925
42916W        W 8143   9.898  38.084  14.916
42917W        W 8144  23.918  37.010   1.457
42918W        W 8145   8.410  18.293  14.837
42919W        W 8146  41.984  33.084  10.877
42920W        W 8147  43.847   2.971   1.869
42921W        W 8148  33.935  23.800   1.640
42922W        W 8149  32.196  20.597  14.411
42923W        W 8150  12.215  40.155   3.293
42924W        W 8151  34.498  34.976   1.947
42925W        W 8152  32.865  18.987   1.447
42926W        W 8153   8.626  33.685   2.227
42927W        W 8154   9.920  11.327  13.614
42928W        W 8155   6.379   4.232   0.276
42929W        W 8156   3.198  39.596  13.529
42930W        W 8157  23.968  35.587   0.759
42931W        W 8158   7.783  34.145   0.114
42932W        W 8159  21.514  42.006   2.329
42933W        W 8160  17.946  17.970   0.252
42934W        W 8161   0.877  33.481  13.599
42935W        W 8162  31.562  43.986   3.859
42936W        W 8163  42.923  21.682  12.920
42937W        W 8164  12.881  39.506  10.661
42938W        W 8165   5.726   4.476   2.200
42939W        W 8166  28.829  40.848   0.940
42940W        W 8167  14.806  23.544  14.059
42941W        W 8168  16.307  27.147   3.594
42942W        W 8169  12.682  41.386   2.435
42943W        W 8170  12.645  32.380  11.258
42944W        W 8171  27.947   2.943   2.357
42945W        W 8172  24.941  21.658   0.807
42946W        W 8173  42.306  19.520   0.380
42947W        W 8174  24.723  16.353  13.383
42948W        W 8175  27.557   2.641   2.162
42949W        W 8176  39.486  18.025  14.316
42950W        W 8177  21.002   9.963  10.179
42951W        W 8178   8.354   2.942  11.995
42952W        W 8179  10.708  28.155  10.737
42953W        W 8180  17.775  36.523   1.651
42954W        W 8181  31.230  37.022  13.060
42955W        W 8182  29.028  36.572   9.869
42956W        W 8183  15.215  10.081  10.605
42957W        W 8184  16.190   2.878   1.299
42958W        W 8185  19.065  30.792  14.884
42959W        W 8186  20.090   8.939   0.383
42960W        W 8187  38.005   1.957   0.308
42961W        W 8188   9.485  41.034   0.951
42962W        W 8189  40.089  44.740   4.089
42963W        W 8190   8.951  35.794   2.632
42964W        W 8191  37.529  37.468   3.746
42965W        W 8192  31.389  35.089  12.566
42966W        W 8193  21.228   6.329  13.013
42967W        W 8194  37.754   9.764   2.364
42968W        W 8195  28.914   8.312   4.527
42969W        W 8196  11.436  14.427   4.949
42970W        W 8197  42.038  28.507  12.158
42971W        W 8198  13.127   6.799   2.660
42972W        W 8199  41.027  12.764  13.300
42973W        W 8200  13.369  17.834   2.698
42974W        W 8201  27.444  24.145   1.452
42975W        W 8202  29.443  31.713  14.980
42976W        W 8203  11.757  39.056   0.881
42977W        W 8204  20.970   9.138   4.062
42978W        W 8205  12.760  36.814   0.246
42979W        W 8206  27.564  36.026  13.134
42980W        W 8207  15.605  16.784  10.576
42981W        W 8208  10.216  38.491   0.135
42982W        W 8209  36.614   1.238  11.939
42983W        W 8210  20.782  26.099  13.084
42984W        W 8211   7.418   3.826   1.299
42985W        W 8212  33.478  35.492  11.366
42986W        W 8213  32.364  19.855  11.950
42987W        W 8214  28.495  44.318   2.278
42988W        W 8215  12.565   6.427  13.177
42989W        W 8216  11.154  12.297   1.174
42990W        W 8217  31.585  22.416   0.895
42991W        W 8218   6.129  15.590  13.890
42992W        W 8219  39.344  39.083   0.449
42993W        W 8220  28.451  44.075  14.186
42994W        W 8221   7.351  44.476  10.961
42995W        W 8222  32.652  20.204  11.674
42996W        W 8223   5.418  43.054   4.112
42997W        W 8224   7.262  29.518  14.369
42998W        W 8225   6.630  16.612  11.076
42999W        W 8226  16.840  26.137   2.463
43000W        W 8227  14.704   8.360  12.439
43001W        W 8228  12.606  42.336   4.147
43002W        W 8229  37.447  13.075   4.102
43003W        W 8230   0.689  29.149  11.129
43004W        W 8231  44.842  44.077  10.154
43005W        W 8232   9.141  31.627   1.360
43006W        W 8233  25.984  10.515   0.791
43007W        W 8234  24.347  28.721   1.769
43008W        W 8235  24.265  21.898   3.350
43009W        W 8236  10.683  10.352   1.965
43010W        W 8237  34.887   3.526   0.210
43011W        W 8238   2.902   6.794  11.477
43012W        W 8239  31.417  11.409   0.816
43013W        W 8240  30.637  23.023  12.672
43014W        W 8241  26.673  31.649  14.453
43015W        W 8242   4.671  12.496  14.607
43016W        W 8243  15.315  31.473  12.397
43017W        W 8244  23.949  11.114   3.620
43018W        W 8245   4.030  28.597  13.890
43019W        W 8246   1.339  11.161  10.708
43020W        W 8247  35.066   8.828  11.627
43021W        W 8248  39.150  17.125   4.171
43022W        W 8249  25.789  23.822  12.302
43023W        W 8250  41.850  10.720  13.016
43024W        W 8251   4.008  16.510  14.582
43025W        W 8252  16.681  15.854   0.304
43026W        W 8253   9.647  40.759  12.472
43027W        W 8254   4.266   8.464   3.662
43028W        W 8255  27.997  27.315  14.070
43029W        W 8256  36.763  15.223  13.815
43030W        W 8257  42.451  28.122  13.531
43031W        W 8258  17.665  31.425  14.967
43032W        W 8259  15.593   8.226  13.836
43033W        W 8260  38.473  21.003  10.462
43034W        W 8261  29.475  33.117  14.493
43035W        W 8262  18.715   9.821   3.752
43036W        W 8263  27.397  36.869   4.855
43037W        W 8264  18.920  19.295  14.259
43038W        W 8265  28.245   0.390  14.307
43039W        W 8266  21.988  42.945   4.522
43040W        W 8267  12.708  18.658  11.298
43041W        W 8268   4.407  13.204  11.928
43042W        W 8269  26.699  38.005  12.968
43043W        W 8270  22.440   6.848  14.465
43044W        W 8271  14.916  10.713   2.214
43045W        W 8272  32.549  27.634   3.596
43046W        W 8273  43.210  28.352  12.889
43047W        W 8274   2.075   9.141  13.924
43048W        W 8275  14.643  37.179  11.948
43049W        W 8276  22.989  38.111   1.424
43050W        W 8277  23.620  31.590   2.101
43051W        W 8278  18.396  33.907  12.362
43052W        W 8279  42.800   5.969  13.520
43053W        W 8280  20.021  20.642  11.546
43054W        W 8281  13.598  42.977   1.016
43055W        W 8282  31.022  38.422   1.778
43056W        W 8283  32.403  30.202  13.000
43057W        W 8284  27.393  30.827  13.593
43058W        W 8285  14.246  14.316  10.773
43059W        W 8286  22.010   7.560   1.178
43060W        W 8287   7.050  34.722   4.257
43061W        W 8288  39.614  23.563   2.974
43062W        W 8289  38.384   5.922  14.739
43063W        W 8290  12.138  19.288   1.263
43064W        W 8291   5.939   4.942  14.431
43065W        W 8292   4.778   6.531   2.270
43066W        W 8293  33.954  32.569   3.914
43067W        W 8294  19.720  10.828   1.675
43068W        W 8295  25.985  15.142  11.965
43069W        W 8296  35.158  20.147   1.811
43070W        W 8297  44.680   2.417  11.588
43071W        W 8298  39.251   3.715  13.482
43072W        W 8299  24.024   2.027   5.012
43073W        W 8300  38.442  41.052  13.956
43074W        W 8301  21.307  23.884  10.590
43075W        W 8302  36.441  31.155   1.101
43076W        W 8303  19.593  36.018  11.949
43077W        W 8304  36.180  33.505  14.597
43078W        W 8305  20.043  21.286  12.088
43079W        W 8306  10.431  11.484   3.813
43080W        W 8307  41.250  22.511  14.353
43081W        W 8308  19.376  12.080   2.497
43082W        W 8309  35.560  23.658   4.482
43083W        W 8310   8.898  18.319   0.453
43084W        W 8311   6.503  29.267  14.421
43085W        W 8312  12.942  12.604   3.767
43086W        W 8313   7.643   4.773  11.150
43087W        W 8314   8.696  22.153  12.105
43088W        W 8315  33.015  11.856   3.259
43089W        W 8316  28.946  39.842   2.289
43090W        W 8317  12.663   8.247  13.522
43091W        W 8318  19.112  28.169   0.030
43092W        W 8319  27.172  31.342   3.502
43093W        W 8320  23.521  18.079  13.170
43094W        W 8321  19.055   5.718  10.635
43095W        W 8322   3.028   2.772   2.248
43096W        W 8323  34.882  19.840  10.501
43097W        W 8324  39.552   0.787   4.593
43098W        W 8325   5.868  22.165   4.669
43099W        W 8326  18.287  20.671  14.030
43100W        W 8327  17.598   5.562   1.821
43101W        W 8328  14.346   4.333   1.108
43102W        W 8329  15.153  20.261  13.389
43103W        W 8330  24.300   8.301   2.603
43104W        W 8331   8.684  16.500   0.795
43105W        W 8332  28.471  44.879   4.469
43106W        W 8333  33.685  36.413  10.426
43107W        W 8334  30.236  30.841  13.685
43108W        W 8335  40.961   4.736  11.593
43109W        W 8336  23.715  14.053  11.563
43110W        W 8337   7.214  33.109  12.624
43111W        W 8338  44.023  25.183  13.930
43112W        W 8339   6.761  36.597   3.779
43113W        W 8340   2.367   0.838   5.001
43114W        W 8341  30.553  24.030  12.876
43115W        W 8342  33.399  24.046   1.679
43116W        W 8343  18.063  21.208  11.721
43117W        W 8344  29.563  32.104   1.203
43118W        W 8345   6.889  12.412   1.082
43119W        W 8346  14.917  42.971  13.537
43120W        W 8347  21.015  37.879  12.654
43121W        W 8348  27.401  14.178  11.429
43122W        W 8349  22.580  35.112   4.100
43123W        W 8350   8.271  37.962   2.841
43124W        W 8351  35.399   9.415   2.304
43125W        W 8352   0.634  15.879  14.622
43126W        W 8353  33.405  16.005  12.553
43127W        W 8354  29.010  42.261  11.516
43128W        W 8355   7.466  21.649  10.692
43129W        W 8356  32.361  13.697   0.357
43130W        W 8357  19.182  27.403  12.491
43131W        W 8358  25.123  13.225   3.088
43132W        W 8359  20.522  17.832   3.191
43133W        W 8360  22.268  11.993   3.154
43134W        W 8361  24.511  10.742  13.822
43135W        W 8362  18.850  40.301   0.309
43136W        W 8363  40.613  32.341   0.094
43137W        W 8364  36.122  22.973  12.997
43138W        W 8365  11.910  14.353   2.763
43139W        W 8366  16.933   2.654  14.505
43140W        W 8367  22.116  42.848   0.795
43141W        W 8368  14.709  23.398  11.732
43142W        W 8369   2.386  34.067  14.809
43143W        W 8370  11.946  20.748   1.411
43144W        W 8371  42.565  37.303   3.813
43145W        W 8372  17.723  16.753  11.020
43146W        W 8373   9.888  19.609  13.717
43147W        W 8374  37.651  29.017   1.977
43148W        W 8375  20.655   1.915   4.548
43149W        W 8376   2.418  26.026  10.955
43150W        W 8377   3.204  24.083   0.522
43151W        W 8378  40.509  17.189   0.953
43152W        W 8379   4.887  32.812   3.680
43153W        W 8380  14.918  14.824  12.368
43154W        W 8381  23.548  25.798   0.828
43155W        W 8382  12.472  25.650  12.980
43156W        W 8383   7.171  13.272  13.452
43157W        W 8384  27.603  43.102  12.487
43158W        W 8385  39.580  39.505   3.617
43159W        W 8386  17.389  37.983   1.748
43160W        W 8387  30.091  34.613  10.904
43161W        W 8388  16.753  34.775   1.765
43162W        W 8389  27.520  22.979  12.429
43163W        W 8390  37.526  41.121  11.919
43164W        W 8391   3.876  23.672  12.650
43165W        W 8392  31.520  39.746   5.463
43166W        W 8393  41.237  41.968  13.328
43167W        W 8394   8.456  38.760  14.853
43168W        W 8395  40.013  14.526   2.237
43169W        W 8396  15.649  20.034  10.653
43170W        W 8397  31.927  17.720  14.784
43171W        W 8398  42.543  44.499  13.076
43172W        W 8399  17.422  40.388   2.574
43173W        W 8400   6.819   2.819  13.322
43174W        W 8401   9.714  38.645   3.384
43175W        W 8402  29.949  12.813  14.747
43176W        W 8403  42.321  18.683   0.765
43177W        W 8404   5.035  33.104   4.076
43178W        W 8405  28.967  11.679  10.895
43179W        W 8406   5.785  31.359   0.226
43180W        W 8407  40.479   6.318  10.992
43181W        W 8408  40.884   2.655   4.365
43182W        W 8409  23.990  23.476   2.172
43183W        W 8410  29.058  15.296  10.801
43184W        W 8411  35.968  25.673  12.098
43185W        W 8412  42.019  22.045  14.409
43186W        W 8413  27.373   9.821  11.729
43187W        W 8414  28.190  24.287   4.059
43188W        W 8415  17.718  31.997  14.247
43189W        W 8416  38.307  35.100  13.478
43190W        W 8417  23.624  37.584   4.549
43191W        W 8418  18.654   7.459  11.047
43192W        W 8419  41.219  14.195   1.320
43193W        W 8420  35.974  38.906  11.575
43194W        W 8421   3.703  31.325  11.617
43195W        W 8422   3.191   2.900  13.816
43196W        W 8423  28.001  29.066  11.136
43197W        W 8424   7.642  28.900   2.862
43198W        W 8425  15.235  35.310  13.569
43199W        W 8426   5.415  17.474  14.920
43200W        W 8427   4.365  43.829  11.554
43201W        W 8428   4.893  30.366   0.450
43202W        W 8429   1.751  11.087  14.334
43203W        W 8430  41.791  28.154  14.872
43204W        W 8431  26.581  14.032  11.223
43205W        W 8432  19.259  20.170   4.314
43206W        W 8433   1.259  37.584   2.562
43207W        W 8434  31.177   1.295   1.509
43208W        W 8435   3.500   1.726  14.284
43209W        W 8436  40.867  33.439  11.972
43210W        W 8437  16.705  39.061   3.619
43211W        W 8438  32.515   1.219  10.694
43212W        W 8439  14.387  21.561  10.692
43213W        W 8440  19.766  36.058   2.924
43214W        W 8441  38.044  22.546  10.989
43215W        W 8442   1.760  15.385   3.033
43216W        W 8443  24.213   1.999   1.422
43217W        W 8444  15.783  16.885   2.682
43218W        W 8445  33.180  19.318   2.393
43219W        W 8446  24.909   3.766  14.027
43220W        W 8447   8.061  30.375  14.928
43221W        W 8448  33.473   5.960  11.870
43222W        W 8449   3.997  27.930   2.852
43223W        W 8450  11.621  34.561  14.444
43224W        W 8451  43.351   6.455  14.082
43225W        W 8452  19.135  28.453   2.069
43226W        W 8453  11.200   8.666  12.357
43227W        W 8454   1.650   4.952   1.735
43228W        W 8455  14.974  25.698  13.847
43229W        W 8456  27.293  44.180   4.269
43230W        W 8457  15.510  14.710  13.934
43231W        W 8458   2.654  25.960   3.810
43232W        W 8459  24.284  12.183   3.167
43233W        W 8460  42.802  33.800   2.430
43234W        W 8461   7.393  19.272   0.881
43235W        W 8462  36.897   4.417   2.887
43236W        W 8463  11.506  35.611  10.656
43237W        W 8464  21.938  20.565  12.327
43238W        W 8465  23.465  13.211   2.311
43239W        W 8466  20.600  36.440   2.828
43240W        W 8467  25.965  10.362  10.807
43241W        W 8468  32.428  32.548   4.528
43242W        W 8469   7.199  12.113  14.382
43243W        W 8470  22.611  25.533   4.626
43244W        W 8471  12.939  26.609  10.772
43245W        W 8472  19.760  39.980   2.201
43246W        W 8473  41.644  29.043  14.351
43247W        W 8474  31.710   0.351   3.885
43248W        W 8475  35.979  35.603  14.498
43249W        W 8476  20.760   3.827   2.226
43250W        W 8477   5.706  21.288   1.364
43251W        W 8478   9.447   7.679   3.442
43252W        W 8479  12.820   9.739   2.364
43253W        W 8480  27.241  37.956  12.069
43254W        W 8481  11.796  16.151   1.998
43255W        W 8482  35.413  20.204  13.772
43256W        W 8483  13.520  40.484   1.358
43257W        W 8484  33.454   1.284   0.055
43258W        W 8485  17.825  28.660  14.693
43259W        W 8486  21.301  20.161  14.459
43260W        W 8487  32.544  17.762  11.321
43261W        W 8488  31.713   1.248  11.761
43262W        W 8489  36.794  14.836   0.167
43263W        W 8490  30.570  25.420   5.479
43264W        W 8491  42.975  44.031   0.311
43265W        W 8492  32.691  44.208  11.770
43266W        W 8493  31.115  11.285   2.327
43267W        W 8494  23.734  35.117   0.842
43268W        W 8495  34.648  12.348  13.306
43269W        W 8496  41.863  20.636   1.660
43270W        W 8497  25.165  32.520  14.818
43271W        W 8498  22.157  25.467  14.623
43272W        W 8499   6.194  40.941   2.477
43273W        W 8500  23.251  33.092   3.865
43274W        W 8501  27.475   6.021  12.034
43275W        W 8502  12.329  35.657   4.168
43276W        W 8503  11.751  32.549   2.083
43277W        W 8504  28.267  15.668  13.111
43278W        W 8505  42.457  31.529   3.842
43279W        W 8506  18.625  14.073  11.938
43280W        W 8507  39.549  17.589  12.078
43281W        W 8508  11.799  44.645   3.947
43282W        W 8509  12.585   1.771  13.039
43283W        W 8510  33.381   9.689  12.415
43284W        W 8511   9.499   9.565  12.140
43285W        W 8512  30.155   7.844   4.513
43286W        W 8513  28.255   6.266   1.352
43287W        W 8514  23.185  27.564  12.953
43288W        W 8515  19.364  43.496  14.371
43289W        W 8516   5.944  44.787   2.676
43290W        W 8517  32.929   7.269   2.951
43291W        W 8518   4.975  29.387   0.429
43292W        W 8519   8.179  15.295  14.961
43293W        W 8520   1.559   9.324  12.033
43294W        W 8521  20.568  39.694   1.751
43295W        W 8522  26.876  26.166   1.486
43296W        W 8523  31.717  44.795  14.583
43297W        W 8524   7.836  33.986   1.154
43298W        W 8525  26.185  44.303   1.229
43299W        W 8526  10.144   7.936  12.861
43300W        W 8527  30.624  30.378  10.682
43301W        W 8528  30.262  33.834   4.547
43302W        W 8529  20.781  42.099  14.797
43303W        W 8530  15.559  29.479  11.690
43304W        W 8531  18.809  33.002  12.450
43305W        W 8532  28.673  23.740   0.373
43306W        W 8533  23.741  37.544  10.911
43307W        W 8534   9.828   9.293  10.667
43308W        W 8535  18.998  32.776   2.934
43309W        W 8536   1.407  14.721  13.229
43310W        W 8537   6.993  30.584  12.390
43311W        W 8538   7.962   7.076   0.171
43312W        W 8539  43.553   4.188   1.708
43313W        W 8540  44.974  15.346  14.288
43314W        W 8541  17.973   9.775   3.022
43315W        W 8542  32.621  33.168   0.877
43316W        W 8543   8.498  40.922  12.944
43317W        W 8544  24.012  21.435   1.423
43318W        W 8545  10.920  32.961  13.082
43319W        W 8546  18.142  32.406  11.161
43320W        W 8547   1.071  23.207   0.746
43321W        W 8548  14.058  24.542   2.393
43322W        W 8549  15.256  20.355   2.376
43323W        W 8550   3.803  35.098  13.924
43324W        W 8551  24.438  19.565   3.858
43325W        W 8552  11.327  10.906  11.182
43326W        W 8553  29.874  23.093  13.999
43327W        W 8554  12.773  16.647  12.878
43328W        W 8555  41.526  33.409  14.843
43329W        W 8556  10.467  19.655   3.655
43330W        W 8557  19.206  43.607  13.524
43331W        W 8558   2.725  40.952  14.830
43332W        W 8559  24.484  34.387  11.558
43333W        W 8560   4.138  23.922   0.967
43334W        W 8561  22.118  14.622  10.664
43335W        W 8562  43.682  40.430   1.657
43336W        W 8563  33.354  20.778   0.815
43337W        W 8564  31.376   0.364   4.857
43338W        W 8565  36.915  28.846  14.333
43339W        W 8566  39.452  40.343   1.728
43340W        W 8567  14.110   2.985  11.512
43341W        W 8568  42.060  29.736  12.521
43342W        W 8569   2.193   1.994   1.283
43343W        W 8570  15.961  34.191   9.798
43344W        W 8571  34.869  29.982  10.524
43345W        W 8572  38.449  24.164   3.210
43346W        W 8573  34.001   0.936  13.612
43347W        W 8574  30.483  36.901   2.166
43348W        W 8575   7.801   7.353   1.715
43349W        W 8576  24.027  35.548  12.926
43350W        W 8577  43.916   6.225   3.681
43351W        W 8578  31.305  34.705  10.949
43352W        W 8579  43.071  20.390   2.832
43353W        W 8580  38.959  36.406   4.091
43354W        W 8581  31.792  31.561   1.247
43355W        W 8582  39.387   4.310  11.119
43356W        W 8583  41.297   0.196   0.294
43357W        W 8584  25.267   8.367  12.082
43358W        W 8585   0.287  31.275  14.123
43359W        W 8586   2.952  39.930   3.375
43360W        W 8587  35.986  37.256  10.540
43361W        W 8588  42.726  19.092  12.516
43362W        W 8589  25.268  35.274   4.086
43363W        W 8590  27.159  17.729   4.659
43364W        W 8591  37.809  18.392  12.144
43365W        W 8592  11.905  43.459   3.293
43366W        W 8593  41.102   9.311   3.040
43367W        W 8594  30.581  16.249   0.672
43368W        W 8595  37.968  15.701  14.912
43369W        W 8596  36.484  43.523   0.729
43370W        W 8597  21.045  27.608  11.759
43371W        W 8598  34.985   9.605   3.184
43372W        W 8599  24.246   4.551  11.038
43373W        W 8600  42.023  22.304   1.043
43374W        W 8601  29.128  25.779  11.620
43375W        W 8602  12.285  33.178  12.789
43376W        W 8603  32.680  26.378  11.662
43377W        W 8604   9.072  29.173   3.123
43378W        W 8605   4.204  11.328   0.463
43379W        W 8606   9.075  29.631   0.849
43380W        W 8607  22.626  36.381   4.600
43381W        W 8608  30.531   5.829   1.752
43382W        W 8609  30.559  29.870   2.146
43383W        W 8610  34.346  35.243  13.948
43384W        W 8611   4.456  43.934   0.653
43385W        W 8612  38.093  34.813   1.792
43386W        W 8613  12.740  24.053   1.434
43387W        W 8614   3.308  15.680  13.702
43388W        W 8615  33.865   2.737  11.194
43389W        W 8616  33.495  41.349   1.240
43390W        W 8617   3.007   9.106   2.185
43391W        W 8618  18.309  10.843  12.430
43392W        W 8619  19.032  32.904  14.840
43393W        W 8620  39.332  28.751  14.602
43394W        W 8621  33.852  41.175  11.665
43395W        W 8622  41.599  27.620  14.919
43396W        W 8623  13.932  39.329  14.998
43397W        W 8624  25.202  42.576  13.318
43398W        W 8625  17.275  43.394  10.012
43399W        W 8626  36.467  10.779   4.576
43400W        W 8627  12.916  22.181   0.668
43401W        W 8628  44.249   4.779   4.958
43402W        W 8629  16.967   8.547   1.372
43403W        W 8630   2.004  36.593  13.487
43404W        W 8631  40.623  43.188  14.398
43405W        W 8632  41.377  22.836   4.558
43406W        W 8633   6.522  41.377   5.284
43407W        W 8634   8.297  11.080   4.273
43408W        W 8635  30.730  22.664   4.974
43409W        W 8636   7.475  12.331   3.506
43410W        W 8637  35.300  22.189  12.331
43411W        W 8638  13.598  34.358  13.139
43412W        W 8639  30.773  42.405   4.169
43413W        W 8640  24.458   7.808   1.427
43414W        W 8641  23.503  19.504   3.298
43415W        W 8642   4.905  27.168  11.523
43416W        W 8643   9.411  36.475  10.761
43417W        W 8644  28.692  41.921   0.303
43418W        W 8645  15.636  35.090  11.973
43419W        W 8646  12.813  10.716   3.323
43420W        W 8647  10.407   3.761   1.866
43421W        W 8648   0.561  33.513   0.012
43422W        W 8649  14.062  28.987  14.853
43423W        W 8650  36.521  38.027   1.815
43424W        W 8651  42.070  32.438  13.905
43425W        W 8652   3.825  29.876   4.355
43426W        W 8653  44.267  20.087  12.312
43427W        W 8654  15.280  21.490  10.172
43428W        W 8655  26.706   9.330  12.754
43429W        W 8656   5.398   7.878  12.566
43430W        W 8657  33.591  41.843  11.987
43431W        W 8658   2.852  30.407  11.077
43432W        W 8659  20.144  18.682  10.531
43433W        W 8660   0.961   1.941  13.977
43434W        W 8661  28.668  27.000   0.815
43435W        W 8662  18.498  30.928  12.910
43436W        W 8663  13.602  16.647  14.872
43437W        W 8664  39.577  14.427  12.529
43438W        W 8665  35.124  35.176   3.250
43439W        W 8666   6.990  33.776   4.189
43440W        W 8667  30.697  43.250   1.961
43441W        W 8668  20.334   4.076  14.371
43442W        W 8669  22.209  17.971  12.951
43443W        W 8670  35.422  40.271   4.375
43444W        W 8671   4.795  29.660   0.011
43445W        W 8672  33.902  33.926  11.154
43446W        W 8673  30.503  40.484  13.378
43447W        W 8674  44.247  41.138  11.649
43448W        W 8675  22.223  20.400  14.406
43449W        W 8676  28.537  41.259  12.043
43450W        W 8677  10.799  21.768  11.484
43451W        W 8678  37.140  14.827  13.144
43452W        W 8679  31.352   7.914   0.747
43453W        W 8680  36.472  24.518  14.074
43454W        W 8681   2.735   9.177   4.270
43455W        W 8682  28.405  29.188  13.066
43456W        W 8683  20.429  31.966  14.157
43457W        W 8684  19.244   6.831  10.787
43458W        W 8685  25.043   6.907  11.902
43459W        W 8686  34.455  12.787  12.628
43460W        W 8687   0.328  25.956  12.630
43461W        W 8688  20.783  25.656   1.019
43462W        W 8689   7.395  38.761   0.871
43463W        W 8690  35.676   5.854  12.969
43464W        W 8691  25.399  44.771   1.665
43465W        W 8692  43.977   0.873  11.411
43466W        W 8693  32.017  25.465   4.617
43467W        W 8694  12.138  14.928  12.926
43468W        W 8695  24.307  11.714  13.561
43469W        W 8696  14.206  15.147  12.101
43470W        W 8697  19.102   3.359   0.145
43471W        W 8698  31.931  18.873   0.022
43472W        W 8699  14.665  35.041   3.348
43473W        W 8700  18.201  35.426  14.852
43474W        W 8701  33.053   0.382  14.517
43475W        W 8702  35.254  40.551  14.508
43476W        W 8703  26.436  25.400   1.249
43477W        W 8704  26.697  41.313  12.020
43478W        W 8705  35.920  41.274   0.005
43479W        W 8706  29.940  25.103   3.250
43480W        W 8707   9.851  42.274   1.846
43481W        W 8708  21.633  26.606   3.608
43482W        W 8709   6.222   5.411  13.525
43483W        W 8710  23.986  34.785   2.885
43484W        W 8711  17.706  39.463  11.082
43485W        W 8712  43.985  13.665   1.356
43486W        W 8713  38.397   1.404  11.513
43487W        W 8714  17.028  36.181   0.457
43488W        W 8715  24.936  44.242   2.768
43489W        W 8716   9.742   8.562   2.288
43490W        W 8717  27.798  12.850   3.286
43491W        W 8718  33.777  30.405   3.760
43492W        W 8719  42.670  40.758   0.375
43493W        W 8720  11.253  18.503   2.286
43494W        W 8721   0.887  26.008  11.897
43495W        W 8722  18.709  28.432  12.008
43496W        W 8723  32.047   9.369  12.410
43497W        W 8724  35.841   2.023  10.731
43498W        W 8725  14.578  31.199  14.784
43499W        W 8726  10.409  38.767   2.887
43500W        W 8727   8.235  11.185   1.637
43501W        W 8728  41.330   6.183   0.239
43502W        W 8729  27.868  11.652  12.062
43503W        W 8730  18.196  17.661  12.782
43504W        W 8731  24.194  27.953  12.516
43505W        W 8732  41.118  24.139  13.243
43506W        W 8733  32.702  20.732  14.344
43507W        W 8734  20.766  32.039   0.848
43508W        W 8735   4.792  26.203   4.545
43509W        W 8736   0.854  41.318   4.173
43510W        W 8737  16.388  11.778   9.941
43511W        W 8738   2.465  41.037   1.647
43512W        W 8739   3.994  43.706  12.219
43513W        W 8740  15.822  17.268  12.919
43514W        W 8741  14.559  34.183  11.840
43515W        W 8742  10.187   6.796   3.385
43516W        W 8743  35.740  42.834  13.426
43517W        W 8744  19.263  18.129  13.320
43518W        W 8745  16.262  18.455  11.091
43519W        W 8746  13.711  10.164   4.535
43520W        W 8747  20.997   7.940   4.656
43521W        W 8748  33.107  31.091   1.361
43522W        W 8749  22.039  37.667   4.545
43523W        W 8750  35.859  32.321  10.608
43524W        W 8751  37.550   5.205  13.553
43525W        W 8752  42.976   7.565  14.225
43526W        W 8753  12.710  33.121  14.551
43527W        W 8754  19.523   7.750  12.148
43528W        W 8755  41.736   8.213   1.258
43529W        W 8756  37.084   4.730  14.426
43530W        W 8757   0.868   0.843  12.291
43531W        W 8758  16.747  30.962   4.193
43532W        W 8759   2.289  39.040   0.788
43533W        W 8760  12.067  23.997  11.911
43534W        W 8761  42.947  39.178  13.707
43535W        W 8762  23.243   7.242   4.197
43536W        W 8763  12.008  22.855  13.192
43537W        W 8764  10.487  27.027  14.652
43538W        W 8765  11.611  20.818  13.031
43539W        W 8766  42.696   9.185  13.814
43540W        W 8767  44.443   6.279  13.882
43541W        W 8768  23.533   8.673  13.079
43542W        W 8769  29.310  13.495   3.085
43543W        W 8770  38.861   4.443   0.264
43544W        W 8771  24.232  30.323  14.745
43545W        W 8772  21.617  25.885   2.320
43546W        W 8773   2.813   6.788  10.498
43547W        W 8774  42.547  43.757   0.175
43548W        W 8775   2.486  12.014  11.547
43549W        W 8776  21.021  26.078   0.827
43550W        W 8777  36.466   3.837  10.997
43551W        W 8778   6.354  33.006  13.870
43552W        W 8779   4.258  36.420  12.524
43553W        W 8780  11.252  38.851   1.035
43554W        W 8781  27.145  26.084   4.582
43555W        W 8782  41.036  16.291  12.861
43556W        W 8783   0.020   9.666  14.410
43557W        W 8784  25.581  23.257  14.910
43558W        W 8785  39.548  25.018   3.523
43559W        W 8786  27.078   6.294   3.203
43560W        W 8787  31.237   0.813  11.915
43561W        W 8788  33.597  17.812   1.958
43562W        W 8789  22.266  37.427  10.554
43563W        W 8790   4.525  16.555   4.141
43564W        W 8791  43.484  24.432  11.108
43565W        W 8792  26.467  33.355  10.801
43566W        W 8793  44.866   2.330  14.028
43567W        W 8794  42.558   2.504  13.849
43568W        W 8795  26.193   2.412   0.923
43569W        W 8796  13.723  39.009   2.192
43570W        W 8797  43.049  34.038  12.889
43571W        W 8798   3.638  11.721   2.715
43572W        W 8799  22.111   5.750   2.339
43573W        W 8800  17.281   1.691  10.885
43574W        W 8801  26.450  21.725   0.678
43575W        W 8802  40.575   5.243  12.988
43576W        W 8803  40.112  43.174   4.167
43577W        W 8804  27.518  12.885  10.187
43578W        W 8805  10.107  22.435  11.065
43579W        W 8806  22.492  40.918   4.664
43580W        W 8807  30.640  11.528   5.408
43581W        W 8808  19.071  25.929   2.716
43582W        W 8809  20.264  39.030  12.897
43583W        W 8810  38.828  26.248   1.302
43584W        W 8811  43.178  26.096  14.082
43585W        W 8812  11.764   0.877  14.115
43586W        W 8813  43.137   4.147  14.976
43587W        W 8814  15.644  17.336   2.871
43588W        W 8815  41.211  26.498   3.918
43589W        W 8816  32.178  42.818   2.398
43590W        W 8817  25.613  11.931   1.518
43591W        W 8818   9.579  25.126   1.208
43592W        W 8819  19.486  43.803   0.742
43593W        W 8820  33.527  18.154   4.429
43594W        W 8821  23.553  19.856   1.410
43595W        W 8822  29.867   2.269  13.486
43596W        W 8823  15.144  20.978  11.532
43597W        W 8824  21.979   3.975   2.877
43598W        W 8825  25.054  30.456   2.481
43599W        W 8826  17.839   4.283  12.488
43600W        W 8827   2.738  43.374   1.704
43601W        W 8828   9.270  36.361  14.514
43602W        W 8829  17.295  34.111   2.178
43603W        W 8830  29.999  24.060   5.332
43604W        W 8831  41.368  23.437   0.758
43605W        W 8832   9.634  34.793  11.509
43606W        W 8833  36.578  22.814   2.285
43607W        W 8834  11.652  22.750   4.200
43608W        W 8835  23.332  23.719  11.980
43609W        W 8836  14.774  36.698   2.756
43610W        W 8837  29.493  34.057   1.627
43611W        W 8838  23.847  33.469  10.779
43612W        W 8839   7.007   9.915  11.771
43613W        W 8840  24.903  29.143   4.183
43614W        W 8841  22.078  22.195  14.557
43615W        W 8842   4.966   8.291  11.564
43616W        W 8843  22.270  25.295  14.142
43617W        W 8844   7.696  40.015   4.514
43618W        W 8845   3.506  19.476  14.836
43619W        W 8846   7.058   7.533  11.230
43620W        W 8847   2.859  25.091  12.792
43621W        W 8848  42.249  41.408   2.055
43622W        W 8849  28.981   2.492  13.459
43623W        W 8850  41.325   1.712  13.471
43624W        W 8851  24.715   3.314   2.016
43625W        W 8852   5.837  41.722   4.110
43626W        W 8853  31.137  29.178  12.010
43627W        W 8854   3.692  33.458   1.953
43628W        W 8855  19.106  42.238  12.392
43629W        W 8856  39.525   9.151   0.400
43630W        W 8857  17.322  25.774  12.985
43631W        W 8858   8.941  37.849  12.833
43632W        W 8859  31.330  18.230  12.452
43633W        W 8860  11.108   5.804  10.764
43634W        W 8861  34.447  39.930  11.640
43635W        W 8862   5.177  13.052  11.264
43636W        W 8863  21.153   7.351  13.835
43637W        W 8864  42.756  21.752  12.073
43638W        W 8865  36.076   5.453  13.821
43639W        W 8866  32.970  10.171  12.855
43640W        W 8867   6.588   2.254  13.831
43641W        W 8868   6.693  30.184   2.852
43642W        W 8869   2.402  12.615  14.912
43643W        W 8870  43.878  16.025   3.246
43644W        W 8871  35.337  36.010   1.740
43645W        W 8872  12.128  40.646  11.004
43646W        W 8873  23.616  30.889  11.136
43647W        W 8874   4.719   3.689  14.770
43648W        W 8875  14.265  12.202   0.931
43649W        W 8876  40.546  22.540  11.634
43650W        W 8877  25.663  32.621  12.927
43651W        W 8878  32.403  42.111  11.202
43652W        W 8879  35.039  40.985  14.315
43653W        W 8880  25.025  35.418   2.417
43654W        W 8881  27.039  13.874  14.780
43655W        W 8882  11.821  14.903   3.203
43656W        W 8883  25.970  28.541  12.401
43657W        W 8884   1.771  11.617  13.480
43658W        W 8885  33.324   2.140  11.968
43659W        W 8886  21.060  20.173  10.727
43660W        W 8887  22.038   3.443  14.332
43661W        W 8888  12.538  26.118  12.781
43662W        W 8889  26.055  32.585  11.074
43663W        W 8890  15.654   8.426   0.744
43664W        W 8891  24.637  37.492   3.281
43665W        W 8892  23.008  20.529  13.951
43666W        W 8893   9.119  24.701  12.856
43667W        W 8894  36.827  25.556  11.079
43668W        W 8895  40.012  15.398   0.576
43669W        W 8896  43.475  42.509   2.960
43670W        W 8897  43.900   3.708  11.621
43671W        W 8898  30.241  24.526  10.816
43672W        W 8899  33.315   6.669  11.136
43673W        W 8900  18.508  22.966  10.923
43674W        W 8901  34.385  16.707  14.955
43675W        W 8902  17.784  34.993   4.152
43676W        W 8903  23.688  18.680   1.058
43677W        W 8904  22.986  20.198   4.129
43678W        W 8905   1.144  37.305   3.867
43679W        W 8906  19.030   9.427   0.905
43680W        W 8907  41.131  28.242  13.563
43681W        W 8908  34.091  36.440   3.432
43682W        W 8909   1.057  23.728  12.843
43683W        W 8910   0.770  21.133  12.458
43684W        W 8911  24.579  38.843   0.846
43685W        W 8912  20.080  29.034   3.786
43686W        W 8913  11.806  32.129  14.373
43687W        W 8914  35.655  14.787   4.131
43688W        W 8915  14.946  38.606  10.612
43689W        W 8916  29.210  13.036   2.182
43690W        W 8917  15.569   7.390  14.049
43691W        W 8918  10.310  27.986   5.176
43692W        W 8919  36.145  20.302  12.566
43693W        W 8920   7.797   4.037   2.105
43694W        W 8921   6.347   0.472   0.015
43695W        W 8922   6.561  33.473   3.213
43696W        W 8923  17.627  23.616  10.517
43697W        W 8924  11.503   3.887   4.489
43698W        W 8925   4.267  33.878   4.274
43699W        W 8926  41.215  17.236   1.677
43700W        W 8927  30.628  27.683  12.587
43701W        W 8928  10.848  25.924  14.024
43702W        W 8929  39.932  29.888  12.677
43703W        W 8930  26.882  33.933  13.106
43704W        W 8931  32.020  41.079   1.895
43705W        W 8932  35.607  12.054  12.725
43706W        W 8933   2.612  24.159  14.381
43707W        W 8934  33.339  14.331   0.858
43708W        W 8935   3.954  10.798  10.847
43709W        W 8936  27.355  17.650   3.199
43710W        W 8937  16.690  39.626   3.887
43711W        W 8938  25.422   8.648   1.304
43712W        W 8939  21.682  44.547  14.907
43713W        W 8940  23.183   8.235   3.205
43714W        W 8941  36.577   8.273   2.341
43715W        W 8942  39.996   1.331   4.410
43716W        W 8943  37.364  32.985   2.254
43717W        W 8944   5.740  16.147   2.255
43718W        W 8945   5.826  21.000   2.227
43719W        W 8946  21.632  12.125   3.788
43720W        W 8947  25.563  30.863  12.134
43721W        W 8948  35.660  14.839  13.369
43722W        W 8949  12.275  38.456  13.140
43723W        W 8950  27.104  30.962  14.000
43724W        W 8951  18.554  42.400   3.539
43725W        W 8952  17.501  26.038   3.704
43726W        W 8953  38.767  42.527   2.779
43727W        W 8954  27.707  25.165   2.831
43728W        W 8955  38.395  12.045  11.003
43729W        W 8956  36.171  22.862   9.679
43730W        W 8957  21.663  13.167   4.697
43731W        W 8958   5.329  27.398  13.483
43732W        W 8959  36.372  18.557  14.870
43733W        W 8960   0.499  42.968  14.208
43734W        W 8961  19.679  29.653   3.402
43735W        W 8962  14.378  19.640   3.631
43736W        W 8963  24.975  43.422   2.067
43737W        W 8964   3.107  20.567   4.975
43738W        W 8965   4.201   0.451  13.555
43739W        W 8966   7.304  43.959   1.880
43740W        W 8967  30.173   9.791  10.632
43741W        W 8968  16.924   9.838   2.040
43742W        W 8969  16.772  16.114  10.785
43743W        W 8970   0.761  10.443  13.816
43744W        W 8971  34.425  33.144  11.174
43745W        W 8972  16.530  40.387   4.321
43746W        W 8973  31.151   9.684  10.415
43747W        W 8974   1.808  44.732  14.553
43748W        W 8975  16.374  16.590  12.232
43749W        W 8976  43.203  26.932  13.562
43750W        W 8977  15.092  42.785   1.976
43751W        W 8978   6.892  28.874   1.413
43752W        W 8979  14.468   6.083  13.388
43753W        W 8980  43.007  36.964   2.410
43754W        W 8981  27.984  12.884   5.027
43755W        W 8982  38.295  31.143   3.349
43756W        W 8983  10.168   8.549   1.003
43757W        W 8984  32.033  11.408   0.518
43758W        W 8985  20.141   3.937   2.101
43759W        W 8986  17.080  35.177   1.725
43760W        W 8987  24.815  14.542   4.025
43761W        W 8988  34.611  33.480   2.656
43762W        W 8989  10.376  32.970   2.274
43763W        W 8990  38.047  37.961  12.172
43764W        W 8991  19.365  17.288  13.063
43765W        W 8992  15.341  28.538  14.867
43766W        W 8993  30.082   1.320  14.971
43767W        W 8994  33.968   6.348   0.132
43768W        W 8995   2.505  32.104   0.592
43769W        W 8996  24.680  32.641  13.072
43770W        W 8997   8.286  38.623   1.204
43771W        W 8998  36.585  42.783  14.357
43772W        W 8999  33.135  39.283   2.394
43773W        W 9000  37.553  23.663   2.670
43774W        W 9001  29.734   8.222   0.716
43775W        W 9002   7.885  38.049  13.965
43776W        W 9003   6.609  19.434   0.533
43777W        W 9004  30.993   5.110   1.831
43778W        W 9005  38.325  17.380   1.353
43779W        W 9006  43.284  31.682   2.879
43780W        W 9007  11.045  29.206   2.353
43781W        W 9008   0.745   0.306  14.781
43782W        W 9009  33.926  17.195  11.881
43783W        W 9010  22.077  35.818   4.103
43784W        W 9011  39.011  18.444   3.955
43785W        W 9012  30.719   0.320   3.703
43786W        W 9013   3.524  22.256   3.665
43787W        W 9014  40.469   6.194  14.293
43788W        W 9015  39.074  33.296  11.587
43789W        W 9016  25.057   4.162   3.607
43790W        W 9017  17.158   0.426   0.761
43791W        W 9018  43.757  19.325   2.335
43792W        W 9019  44.900  11.083  13.295
43793W        W 9020  29.972  38.648   3.301
43794W        W 9021  30.483  22.440  11.096
43795W        W 9022  19.059  22.787  11.583
43796W        W 9023   4.545   0.626  12.693
43797W        W 9024  27.259  11.142  12.335
43798W        W 9025  39.639  35.819   1.829
43799W        W 9026  24.042  12.295   0.275
43800W        W 9027   8.671  18.141   1.271
43801W        W 9028  17.611  42.065  11.518
43802W        W 9029  40.021  41.535  10.788
43803W        W 9030  26.507  40.034   2.816
43804W        W 9031  39.961  21.289  14.248
43805W        W 9032  44.792  15.530  13.019
43806W        W 9033   7.853   1.753  13.325
43807W        W 9034  13.633  43.948   1.218
43808W        W 9035  23.874  17.689  13.800
43809W        W 9036   3.765   3.623  12.608
43810W        W 9037  30.247  17.020  13.181
43811W        W 9038  43.528  40.393   0.259
43812W        W 9039  17.330  32.370  14.286
43813W        W 9040  25.803  43.997   0.977
43814W        W 9041  28.486  37.543  13.035
43815W        W 9042  20.635  18.960  14.415
43816W        W 9043   0.762   3.318  12.148
43817W        W 9044  36.501  42.919   2.881
43818W        W 9045  18.684  17.739  14.804
43819W        W 9046  43.402  37.512   3.751
43820W        W 9047  20.756  40.097  11.578
43821W        W 9048  30.215  42.064   2.403
43822W        W 9049   0.885  19.153  13.488
43823W        W 9050  20.784   1.645   0.431
43824W        W 9051   3.999   3.358   0.814
43825W        W 9052  26.862  17.915   1.629
43826W        W 9053  31.853  31.066   2.664
43827W        W 9054  31.391   6.796   0.365
43828W        W 9055  15.548  41.504  14.759
43829W        W 9056   8.934   2.373  14.477
43830W        W 9057  23.065  12.637   3.649
43831W        W 9058   4.126  20.910  12.384
43832W        W 9059  29.014  38.950   4.258
43833W        W 9060  31.860  32.576  13.798
43834W        W 9061  28.490  38.963   0.988
43835W        W 9062  30.920  10.164  14.900
43836W        W 9063   5.110  34.590  11.488
43837W        W 9064  11.150  13.138   2.688
43838W        W 9065  24.466  24.400   0.917
43839W        W 9066  35.167  20.134   0.014
43840W        W 9067  35.149   7.388   0.826
43841W        W 9068  20.607   3.563   9.854
43842W        W 9069  18.987  22.820  12.114
43843W        W 9070  10.246  22.787   0.367
43844W        W 9071  21.552  37.662  12.109
43845W        W 9072  12.304  18.646  13.600
43846W        W 9073  24.694   8.955   1.623
43847W        W 9074  42.909  18.405  14.950
43848W        W 9075  28.115  19.469  14.478
43849W        W 9076  29.968  17.162  14.037
43850W        W 9077  37.990   2.324   4.436
43851W        W 9078  39.574  24.153   0.025
43852W        W 9079   4.423  19.671   2.117
43853W        W 9080   1.492  38.818  13.098
43854W        W 9081   0.964  22.830   2.841
43855W        W 9082  27.605   3.094  12.472
43856W        W 9083  21.993  36.844   0.411
43857W        W 9084  25.582   0.867   1.235
43858W        W 9085  17.178   9.430   4.193
43859W        W 9086  23.092  13.335   1.275
43860W        W 9087   3.644  13.322   1.159
43861W        W 9088  30.649  14.888  14.411
43862W        W 9089  20.027  30.999   4.589
43863W        W 9090  43.884  14.484   2.287
43864W        W 9091  19.738  37.042   1.462
43865W        W 9092  17.781  10.614   1.223
43866W        W 9093  28.930  25.676   0.273
43867W        W 9094  29.386  11.377  11.642
43868W        W 9095  20.262  31.946   2.833
43869W        W 9096  38.837   4.766  12.181
43870W        W 9097  30.094  42.493   1.489
43871W        W 9098   3.016  23.859  11.065
43872W        W 9099  44.442   5.302  10.402
43873W        W 9100  22.693  15.792   4.169
43874W        W 9101  43.526  36.652  12.518
43875W        W 9102  42.603  35.032  14.451
43876W        W 9103  13.210  14.216   0.605
43877W        W 9104  28.928  27.975  14.902
43878W        W 9105   9.358   3.559   2.710
43879W        W 9106  21.138  12.778   1.446
43880W        W 9107  33.360   3.227   4.545
43881W        W 9108  27.674  12.281   4.112
43882W        W 9109  14.156  44.222   2.391
43883W        W 9110  12.344  23.033   1.441
43884W        W 9111  42.795  43.768   2.250
43885W        W 9112  33.343   5.428  11.209
43886W        W 9113   8.955  21.284  12.432
43887W        W 9114  19.100  39.320   3.666
43888W        W 9115  18.152  38.331  12.907
43889W        W 9116  34.269  31.945  14.583
43890W        W 9117  33.613   1.844   1.332
43891W        W 9118  27.639  23.519  13.858
43892W        W 9119  22.052  32.007   0.388
43893W        W 9120  43.092  37.927   0.781
43894W        W 9121  13.046  20.332   3.877
43895W        W 9122  24.017  42.836   1.349
43896W        W 9123   3.013  32.004   0.719
43897W        W 9124  38.749  15.239   3.640
43898W        W 9125  44.908   9.363   3.733
43899W        W 9126  31.447  31.208   0.871
43900W        W 9127  15.322   7.661  11.179
43901W        W 9128  11.967  21.917  13.457
43902W        W 9129  12.692  24.476  13.017
43903W        W 9130  27.892   6.753   2.841
43904W        W 9131  13.156  29.848   3.587
43905W        W 9132  17.127   1.517  10.413
43906W        W 9133  21.075  27.120  14.509
43907W        W 9134  39.405  12.764  14.150
43908W        W 9135  10.590  35.971   3.298
43909W        W 9136   4.926   6.234   4.660
43910W        W 9137   4.617   1.424  14.476
43911W        W 9138   7.466  41.339   0.704
43912W        W 9139  13.984  22.463   4.954
43913W        W 9140   6.760  17.059   2.059
43914W        W 9141  15.153  34.330   4.294
43915W        W 9142  41.323  16.096  14.290
43916W        W 9143  29.635   9.324  12.957
43917W        W 9144  20.813   5.633  13.535
43918W        W 9145   7.726   0.471   3.623
43919W        W 9146  30.581  11.027   4.513
43920W        W 9147  19.311  34.963  13.936
43921W        W 9148   0.340  24.482   1.792
43922W        W 9149  43.815  22.307  13.040
43923W        W 9150  34.629  35.401   4.570
43924W        W 9151   6.318  37.623  14.312
43925W        W 9152  12.716  31.966   2.376
43926W        W 9153   6.815  17.326   0.599
43927W        W 9154  41.844  29.096  14.857
43928W        W 9155  44.656  11.213   4.035
43929W        W 9156  36.545  13.830  12.328
43930W        W 9157   5.702  27.222   1.871
43931W        W 9158  14.071  26.791  12.406
43932W        W 9159   4.486  12.304  13.460
43933W        W 9160  35.492  21.495   0.887
43934W        W 9161   2.483   7.362   4.727
43935W        W 9162   7.290  18.325  14.787
43936W        W 9163  43.431  24.203   2.471
43937W        W 9164  29.306   5.979   4.148
43938W        W 9165  14.638  14.294  11.120
43939W        W 9166  33.019  27.032  12.115
43940W        W 9167  26.068   9.139  11.528
43941W        W 9168  39.820   3.333   2.191
43942W        W 9169  22.864  29.957   0.893
43943W        W 9170  27.110   4.564   9.700
43944W        W 9171  41.201   0.200  13.567
43945W        W 9172   3.407  23.800  12.836
43946W        W 9173  39.797  12.129   3.380
43947W        W 9174  36.436  12.907  14.384
43948W        W 9175  11.376  18.392   3.794
43949W        W 9176  12.940  20.943  13.257
43950W        W 9177  34.106  32.957  12.825
43951W        W 9178  35.513  27.156   0.461
43952W        W 9179  28.896  24.509  14.422
43953W        W 9180  36.379  35.420  10.758
43954W        W 9181  14.603   1.044  11.598
43955W        W 9182  22.961  14.174  11.972
43956W        W 9183  16.559  19.527   2.282
43957W        W 9184  36.429   5.133   3.246
43958W        W 9185  19.696  23.266   0.902
43959W        W 9186   7.166  40.830  14.432
43960W        W 9187  14.509  12.398  12.493
43961W        W 9188  38.143   1.001   9.840
43962W        W 9189  15.792  26.606   3.267
43963W        W 9190  18.659  17.341   2.126
43964W        W 9191   5.445   8.291   3.231
43965W        W 9192  16.865   7.407   2.018
43966W        W 9193   3.780  27.261  14.994
43967W        W 9194  34.310  14.724  14.269
43968W        W 9195  42.019  19.690  13.611
43969W        W 9196  19.742  26.739  12.985
43970W        W 9197  20.334  42.459   0.642
43971W        W 9198  27.091   6.747   3.445
43972W        W 9199  43.017  27.043  12.266
43973W        W 9200  23.542  27.279   2.255
43974W        W 9201   5.463   2.026   3.079
43975W        W 9202  28.547  42.527  14.231
43976W        W 9203  38.916  25.588  14.448
43977W        W 9204  41.848   6.965  13.943
43978W        W 9205  41.957  17.705   3.834
43979W        W 9206  30.563  29.606   3.153
43980W        W 9207   2.185  30.497  11.048
43981W        W 9208  16.589  24.175   2.840
43982W        W 9209  37.443  31.430  14.143
43983W        W 9210  27.626  44.051   2.350
43984W        W 9211  25.465  41.951   1.245
43985W        W 9212  18.794  17.097  11.806
43986W        W 9213  33.914  40.838   0.739
43987W        W 9214  27.005  30.634   4.945
43988W        W 9215   4.731  11.567  14.594
43989W        W 9216   0.724   0.453  11.043
43990W        W 9217  23.156  14.474   3.019
43991W        W 9218   2.730  18.823  14.865
43992W        W 9219   5.237  17.133  12.835
43993W        W 9220  41.927  36.489   1.771
43994W        W 9221  15.819  30.463  13.894
43995W        W 9222  21.937  21.045   0.847
43996W        W 9223   9.173  30.476   3.226
43997W        W 9224  26.823  42.843   0.794
43998W        W 9225  10.941   4.178   4.133
43999W        W 9226  30.898  12.096   4.940
44000W        W 9227   3.784  35.329  14.815
44001W        W 9228  39.588   3.211   1.760
44002W        W 9229   3.260  27.111   0.174
44003W        W 9230  43.549   1.440   1.390
44004W        W 9231   3.237  41.873  11.466
44005W        W 9232   8.448  27.161  12.611
44006W        W 9233  28.362  22.501   2.181
44007W        W 9234   3.238   4.739  10.731
44008W        W 9235   3.810   6.309  14.859
44009W        W 9236  42.877  20.545   3.287
44010W        W 9237  10.785  31.888  12.067
44011W        W 9238   5.239  19.273   3.071
44012W        W 9239  42.661   9.428   0.010
44013W        W 9240  32.039  15.315  13.458
44014W        W 9241  28.711  35.315  12.332
44015W        W 9242  10.129  38.551  13.023
44016W        W 9243  33.002  18.666  14.363
44017W        W 9244  22.247   6.279   4.049
44018W        W 9245  33.860  23.291  14.856
44019W        W 9246  18.148  10.594  12.879
44020W        W 9247   0.384  21.608   4.550
44021W        W 9248  18.511  16.734  11.576
44022W        W 9249  11.299   0.836   2.357
44023W        W 9250  18.332  32.701  11.563
44024W        W 9251  12.724  26.337   2.803
44025W        W 9252  44.203  29.205  14.434
44026W        W 9253   9.261  24.768   2.433
44027W        W 9254   1.477   2.864  12.500
44028W        W 9255   9.309  39.791   2.765
44029W        W 9256  15.375  14.931   4.148
44030W        W 9257  37.020  28.002  12.941
44031W        W 9258  24.207   0.814  12.823
44032W        W 9259  38.467   9.301   9.992
44033W        W 9260  12.167  33.030  13.749
44034W        W 9261  29.390  12.296  13.020
44035W        W 9262  27.207  30.231   3.620
44036W        W 9263   3.734  24.543   2.897
44037W        W 9264  43.827  15.646   4.180
44038W        W 9265  35.482  36.719  12.152
44039W        W 9266  44.782  20.598   0.907
44040W        W 9267  30.056  26.416  12.270
44041W        W 9268  42.279  34.514   0.307
44042W        W 9269  22.737  20.989   9.942
44043W        W 9270  43.380  10.383  12.371
44044W        W 9271  11.454  15.690   2.845
44045W        W 9272   5.206  39.227  14.477
44046W        W 9273   4.641  18.204  11.943
44047W        W 9274  24.169  37.513  14.007
44048W        W 9275  39.474  29.315   4.663
44049W        W 9276  31.604  16.743   0.837
44050W        W 9277  13.169  42.820  12.548
44051W        W 9278  17.322  39.469  10.556
44052W        W 9279   7.337  42.463   0.233
44053W        W 9280  20.010  23.654   4.985
44054W        W 9281  12.153   1.477  12.154
44055W        W 9282   6.689  34.015   0.023
44056W        W 9283  29.008  38.597   3.892
44057W        W 9284  40.053  44.012   3.331
44058W        W 9285  25.137   4.694   4.316
44059W        W 9286  43.843  29.172   1.740
44060W        W 9287  39.251  24.431   1.319
44061W        W 9288  32.103  13.406  12.505
44062W        W 9289  12.387  29.686   4.982
44063W        W 9290  44.357  26.885   0.385
44064W        W 9291  30.491   7.190  11.463
44065W        W 9292  43.919   6.252  12.619
44066W        W 9293  31.153  34.468   1.735
44067W        W 9294  43.466  39.944   2.157
44068W        W 9295  20.632  41.395  12.577
44069W        W 9296   3.414  25.448   0.803
44070W        W 9297  32.087  21.705  10.528
44071W        W 9298  33.059  20.197   2.504
44072W        W 9299  38.874   4.924  14.110
44073W        W 9300  15.289  35.459  12.609
44074W        W 9301  14.094  12.566  12.216
44075W        W 9302   5.853  10.609  14.771
44076W        W 9303  26.951  36.346  13.389
44077W        W 9304   0.517   1.040  13.456
44078W        W 9305   0.679   8.697   0.554
44079W        W 9306   2.255   5.802   1.692
44080W        W 9307  12.425  34.380  13.390
44081W        W 9308  42.075  11.687  12.297
44082W        W 9309  23.233  20.042   4.604
44083W        W 9310  20.029  27.376   1.454
44084W        W 9311  15.359  16.490  10.931
44085W        W 9312  43.004  31.021  14.305
44086W        W 9313  21.609  39.711  14.500
44087W        W 9314  29.844   0.340  11.517
44088W        W 9315  25.697  22.956  12.112
44089W        W 9316  35.864  15.858   3.897
44090W        W 9317  36.330   2.394   3.290
44091W        W 9318   1.397  11.197  11.757
44092W        W 9319  18.650  18.155  10.747
44093W        W 9320  34.765  20.982  11.704
44094W        W 9321  15.385   0.189   1.356
44095W        W 9322  21.917  18.589   1.391
44096W        W 9323  38.970  27.650   4.696
44097W        W 9324  41.495   8.749   3.644
44098W        W 9325  13.775  21.600  11.057
44099W        W 9326   5.700   1.266  14.576
44100W        W 9327  38.030  43.329   0.006
44101W        W 9328  11.235   2.132  10.806
44102W        W 9329  40.944   0.185  14.899
44103W        W 9330  31.805  25.571   3.254
44104W        W 9331   7.269  32.447  11.870
44105W        W 9332  31.576  14.244  11.649
44106W        W 9333   0.864  28.018   2.707
44107W        W 9334  24.505  42.313  11.573
44108W        W 9335  34.482  43.064   2.208
44109W        W 9336   0.958  34.984  12.293
44110W        W 9337  25.663  19.206   3.712
44111W        W 9338  14.817   9.548  12.029
44112W        W 9339   7.393   9.915  12.155
44113W        W 9340  35.447  19.534  13.992
44114W        W 9341  41.463  11.584  11.179
44115W        W 9342   8.170  44.466   1.705
44116W        W 9343  23.621  42.895   3.583
44117W        W 9344  40.924  28.879  13.035
44118W        W 9345  13.219  10.946  14.516
44119W        W 9346   5.176  18.669  11.509
44120W        W 9347   3.004   6.785   3.656
44121W        W 9348  43.105   8.420  13.086
44122W        W 9349  22.195  13.951   4.870
44123W        W 9350  20.023  23.635   3.341
44124W        W 9351   0.236   6.340   2.284
44125W        W 9352  20.141  26.796  14.863
44126W        W 9353  15.615  24.047   0.846
44127W        W 9354  34.040  14.760  14.734
44128W        W 9355   3.523  40.029  13.575
44129W        W 9356  25.650  44.946   2.597
44130W        W 9357  15.897  36.982  12.321
44131W        W 9358  10.904  33.221   0.305
44132W        W 9359   4.400  26.357   2.526
44133W        W 9360  28.225  18.279   0.982
44134W        W 9361  12.875   0.369  12.583
44135W        W 9362  26.172  17.105  10.727
44136W        W 9363   8.621  21.443  14.403
44137W        W 9364   8.707  32.954   3.413
44138W        W 9365  18.601   4.943   0.933
44139W        W 9366  21.730   8.794   0.736
44140W        W 9367  18.813  27.451  10.854
44141W        W 9368  20.694  13.198   0.756
44142W        W 9369  33.155  31.137  12.179
44143W        W 9370   5.706  21.112   4.799
44144W        W 9371   3.736  41.346   1.141
44145W        W 9372  23.498   1.473   0.854
44146W        W 9373  41.419  31.695  14.143
44147W        W 9374   6.053   6.897  14.500
44148W        W 9375  43.775  11.312  12.368
44149W        W 9376   1.977  36.309   4.652
44150W        W 9377  26.086  20.274   4.165
44151W        W 9378  37.975  40.415   1.116
44152W        W 9379  40.087  11.349  11.440
44153W        W 9380  15.065  25.512   0.387
44154W        W 9381   1.719  34.698   3.153
44155W        W 9382  10.175   0.728  14.968
44156W        W 9383  25.036   0.029   1.946
44157W        W 9384   8.064   0.677   1.858
44158W        W 9385   8.772  29.093  12.838
44159W        W 9386  32.491  28.442   1.412
44160W        W 9387  40.038  30.860   2.779
44161W        W 9388   1.831   1.437   0.250
44162W        W 9389  22.380  31.009  10.654
44163W        W 9390  39.963  22.248  14.860
44164W        W 9391  39.446  42.028  12.874
44165W        W 9392  21.025  43.907  13.662
44166W        W 9393  40.728  26.189  13.202
44167W        W 9394  16.163  19.038  14.330
44168W        W 9395  23.571  37.955  11.188
44169W        W 9396  19.346  33.875  12.660
44170W        W 9397   6.296   1.977   0.615
44171W        W 9398  36.406  43.896   2.446
44172W        W 9399  24.664  17.073  11.660
44173W        W 9400  30.576  33.670  13.794
44174W        W 9401  43.532  38.949   3.795
44175W        W 9402  26.633  31.989  10.863
44176W        W 9403  30.684  43.762  13.046
44177W        W 9404  19.262   8.143   4.305
44178W        W 9405  19.311  25.622   0.262
44179W        W 9406  42.550  11.326  10.583
44180W        W 9407  37.648  23.605  13.813
44181W        W 9408  15.077   4.485  14.775
44182W        W 9409  37.320  11.648  12.069
44183W        W 9410  34.428   7.262   3.743
44184W        W 9411  44.812  39.416   3.624
44185W        W 9412  37.929  39.271  12.125
44186W        W 9413  33.700  11.332  13.505
44187W        W 9414  14.414   9.781   3.666
44188W        W 9415  25.608  31.941  12.175
44189W        W 9416  26.972  16.819   2.795
44190W        W 9417   4.355  21.842   1.881
44191W        W 9418  18.096  37.741  14.368
44192W        W 9419   0.340   2.425  12.284
44193W        W 9420   2.813  34.873  13.706
44194W        W 9421  41.237  24.565   1.319
44195W        W 9422  11.872  13.542  11.149
44196W        W 9423  10.913  30.968   2.734
44197W        W 9424   1.209  18.224  10.855
44198W        W 9425  13.325   6.102  10.436
44199W        W 9426  14.579  21.775  13.871
44200W        W 9427  35.983  41.269  13.033
44201W        W 9428  11.708  11.819   2.587
44202W        W 9429  26.551  30.934   4.931
44203W        W 9430  15.058  13.575   2.253
44204W        W 9431  23.741  25.190  12.066
44205W        W 9432  21.252   3.239  14.842
44206W        W 9433  38.427   7.842  13.083
44207W        W 9434  18.680  32.838   3.416
44208W        W 9435  41.313   9.203  14.466
44209W        W 9436  30.474  21.164   1.268
44210W        W 9437  25.606  23.098   4.214
44211W        W 9438  21.705  14.178  14.701
44212W        W 9439  13.033  24.042   4.582
44213W        W 9440   0.429  33.986  14.758
44214W        W 9441   1.235  26.481   4.073
44215W        W 9442   1.771  13.331  12.852
44216W        W 9443  21.552  19.486   3.261
44217W        W 9444  16.241   0.019   3.635
44218W        W 9445  28.924   8.932   1.345
44219W        W 9446  27.649  10.276   2.245
44220W        W 9447  15.052  17.211   4.529
44221W        W 9448  42.497  17.723   3.668
44222W        W 9449  39.188  13.820   0.735
44223W        W 9450  21.088  38.250   2.678
44224W        W 9451   6.805   1.808   1.848
44225W        W 9452  14.113  44.027   4.914
44226W        W 9453  32.811  35.892   0.944
44227W        W 9454  10.064  20.406   4.705
44228W        W 9455  11.800   6.711  13.301
44229W        W 9456  14.372  25.118   3.158
44230W        W 9457  12.606  16.593  12.393
44231W        W 9458   8.422  22.970   4.102
44232W        W 9459   7.740  40.794   3.443
44233W        W 9460  34.102  16.266  12.192
44234W        W 9461  26.375  11.162   0.342
44235W        W 9462  27.390  15.628   4.103
44236W        W 9463  19.302  24.650   1.769
44237W        W 9464  41.192  33.472  10.236
44238W        W 9465  28.644   1.194   3.180
44239W        W 9466   6.064   2.660   4.688
44240W        W 9467  40.873  36.939  11.926
44241W        W 9468  21.335  43.679   2.865
44242W        W 9469  28.360  15.164  12.986
44243W        W 9470  11.629  26.769   3.844
44244W        W 9471  42.864   4.988  13.443
44245W        W 9472   4.383  15.645  10.271
44246W        W 9473  16.301  23.232   3.211
44247W        W 9474  26.225  20.668   4.494
44248W        W 9475  13.347  41.481   3.281
44249W        W 9476  16.206  34.898  11.585
44250W        W 9477   0.439  18.712   3.040
44251W        W 9478  31.820  24.982   2.835
44252W        W 9479   9.669  20.480   4.390
44253W        W 9480  44.497  44.838  13.351
44254W        W 9481  41.066   3.427   3.418
44255W        W 9482   9.192  13.787   2.379
44256W        W 9483  38.962  21.566   1.316
44257W        W 9484  27.008  40.710  12.170
44258W        W 9485  27.223  33.567   1.721
44259W        W 9486   5.902  27.932   1.395
44260W        W 9487  17.393  19.756   4.241
44261W        W 9488  21.203  31.639  13.252
44262W        W 9489  30.047  11.575   5.087
44263W        W 9490   4.756  28.011  14.468
44264W        W 9491   1.887   5.331  13.327
44265W        W 9492  40.367   4.620   1.798
44266W        W 9493  42.866   1.064   2.896
44267W        W 9494  16.812  15.347   0.373
44268W        W 9495   6.179  31.045  10.743
44269W        W 9496   8.868  44.221  12.413
44270W        W 9497  37.406  29.965  10.791
44271W        W 9498  27.985  35.782  14.358
44272W        W 9499  28.964  11.729  12.556
44273W        W 9500  27.596  28.164   3.417
44274W        W 9501   9.966  11.727   2.262
44275W        W 9502  17.188  40.385  14.712
44276W        W 9503   1.109  26.692   3.633
44277W        W 9504  17.703  38.273   4.126
44278W        W 9505  28.394  27.413   2.716
44279W        W 9506  14.470  32.951   4.940
44280W        W 9507  41.914  38.789  10.234
44281W        W 9508   7.428  44.817  10.580
44282W        W 9509   8.857  41.056  11.045
44283W        W 9510  10.541  36.106   0.802
44284W        W 9511  14.204  18.300   4.723
44285W        W 9512  27.958   2.693   2.851
44286W        W 9513  14.145  40.442  13.724
44287W        W 9514  26.464  31.910   4.538
44288W        W 9515  10.132  36.417   3.286
44289W        W 9516  44.919  20.467  11.634
44290W        W 9517  34.473   3.992  11.330
44291W        W 9518  19.208  42.275  13.853
44292W        W 9519  17.807  36.999  14.785
44293W        W 9520   1.666  40.578   0.961
44294W        W 9521  30.994  43.517   1.368
44295W        W 9522  13.727  41.506  11.232
44296W        W 9523  29.455  41.567   0.594
44297W        W 9524  23.057  10.637   2.573
44298W        W 9525  30.511  22.121   1.732
44299W        W 9526  15.231  43.432   1.665
44300W        W 9527  22.007  18.760  11.400
44301W        W 9528  23.897  29.161   2.116
44302W        W 9529  30.496  42.977   4.849
44303W        W 9530   3.400  34.639  14.774
44304W        W 9531  38.601  42.986  11.096
44305W        W 9532  23.544   4.590  14.977
44306W        W 9533  33.392  42.175   0.695
44307W        W 9534   2.798   3.907   1.518
44308W        W 9535   1.318  35.525   1.429
44309W        W 9536  24.414  24.090  11.259
44310W        W 9537  22.039  39.025  12.950
44311W        W 9538  25.822  42.374  12.824
44312W        W 9539  35.860  39.029   2.415
44313W        W 9540   2.869   4.209   0.286
44314W        W 9541  17.078   9.898   2.943
44315W        W 9542  41.804   5.253   2.797
44316W        W 9543  19.080  33.991  14.687
44317W        W 9544  19.647  17.201  12.154
44318W        W 9545  20.148   8.090  14.509
44319W        W 9546  18.703  41.402   1.859
44320W        W 9547  17.060  40.836  11.611
44321W        W 9548  37.546  20.330   2.306
44322W        W 9549  36.519  38.218  12.440
44323W        W 9550  10.639  40.330   0.795
44324W        W 9551   7.240  31.747  14.492
44325W        W 9552   8.806   7.033   4.678
44326W        W 9553  32.879  26.061   2.778
44327W        W 9554  22.309  28.149  12.972
44328W        W 9555  25.162  42.758   1.781
44329W        W 9556  21.224  17.827   3.769
44330W        W 9557   1.450  39.406   2.698
44331W        W 9558  34.260   9.938  11.957
44332W        W 9559  35.519  28.506   2.109
44333W        W 9560   5.853  17.461   0.744
44334W        W 9561  26.584   8.757  13.464
44335W        W 9562  31.040   0.308   1.256
44336W        W 9563   1.985  10.201   0.071
44337W        W 9564  18.467  19.005  11.155
44338W        W 9565  31.590  26.080  13.129
44339W        W 9566  22.528  26.488   2.735
44340W        W 9567  35.714  25.943  14.828
44341W        W 9568  31.368  28.500  14.836
44342W        W 9569  39.909  22.811   0.796
44343W        W 9570  25.167  24.512  11.841
44344W        W 9571  44.169  17.177   1.106
44345W        W 9572  37.522  33.428  12.213
44346W        W 9573  32.407  18.254   2.127
44347W        W 9574  43.534   6.996   3.606
44348W        W 9575  23.618  27.160   4.205
44349W        W 9576  19.967  15.246  13.989
44350W        W 9577  31.016  37.686  14.347
44351W        W 9578  34.524  14.479  11.427
44352W        W 9579   4.198  31.979  14.805
44353W        W 9580   9.170  21.547   0.257
44354W        W 9581  31.319  31.646  13.008
44355W        W 9582   6.493  29.896  13.597
44356W        W 9583  27.210  21.165  14.791
44357W        W 9584   2.178  16.029  12.962
44358W        W 9585  22.802  36.364  12.443
44359W        W 9586  15.728  33.160   2.808
44360W        W 9587   5.876   1.163   0.086
44361W        W 9588  44.895  29.737   0.851
44362W        W 9589  39.105  25.340  13.505
44363W        W 9590   5.433  10.018  10.995
44364W        W 9591  26.576  17.034  14.419
44365W        W 9592  16.002  14.872   2.739
44366W        W 9593  33.512  29.037  13.787
44367W        W 9594  38.780  31.814  13.799
44368W        W 9595   6.764   8.753   3.756
44369W        W 9596   7.255  38.859   4.906
44370W        W 9597  40.479   2.918  13.934
44371W        W 9598   4.319  40.865   0.419
44372W        W 9599   6.365  42.848  12.904
44373W        W 9600  19.789  10.808   3.047
44374W        W 9601  37.776  41.286  10.732
44375W        W 9602   8.785  22.077  13.566
44376W        W 9603  37.174  38.879  11.514
44377W        W 9604  10.393  26.074  13.844
44378W        W 9605   2.219  22.020   0.384
44379W        W 9606  28.305  15.156  11.206
44380W        W 9607  39.967   4.341   1.072
44381W        W 9608  20.546  24.397  11.657
44382W        W 9609  31.008  31.460   2.868
44383W        W 9610  15.575  23.638  11.239
44384W        W 9611  33.616  40.639  10.400
44385W        W 9612   1.450  15.157   3.349
44386W        W 9613   1.352  20.023  13.795
44387W        W 9614  26.318  22.391   1.980
44388W        W 9615  27.744  35.607  14.791
44389W        W 9616  14.611  36.069   1.265
44390W        W 9617  40.333  37.111   1.191
44391W        W 9618  41.096  16.209  12.347
44392W        W 9619   5.109  27.247   0.777
44393W        W 9620  23.733  42.946   0.910
44394W        W 9621   5.012  38.480  10.666
44395W        W 9622  42.828   9.811  11.152
44396W        W 9623  43.956  13.828  11.547
44397W        W 9624  11.187  42.190  12.163
44398W        W 9625  22.106  17.772   0.553
44399W        W 9626  25.740  24.471   0.437
44400W        W 9627  43.367  23.451  11.706
44401W        W 9628   1.320  31.946  14.271
44402W        W 9629  33.635  23.470  10.841
44403W        W 9630   5.360  30.559   0.307
44404W        W 9631  22.576  20.063  11.139
44405W        W 9632  20.309  37.267  14.767
44406W        W 9633  44.329  42.766  10.194
44407W        W 9634   3.664  13.787  11.988
44408W        W 9635  10.100   1.164  13.363
44409W        W 9636  34.420   8.492   0.411
44410W        W 9637  20.571  13.871  11.551
44411W        W 9638  22.313  41.693  11.641
44412W        W 9639  37.358   3.963   0.749
44413W        W 9640  29.191  44.299  12.444
44414W        W 9641  19.828  34.940  11.998
44415W        W 9642  24.159  10.177  12.528
44416W        W 9643  18.052  11.225   1.853
44417W        W 9644  10.909   0.468  12.017
44418W        W 9645  34.812  42.291  12.463
44419W        W 9646  43.053   8.113   1.790
44420W        W 9647   7.949  37.036   2.417
44421W        W 9648   3.947  42.119   4.886
44422W        W 9649  44.933  23.283   4.533
44423W        W 9650  39.595   9.882   4.633
44424W        W 9651  13.205  44.971  12.415
44425W        W 9652   5.154  22.512   4.286
44426W        W 9653  34.836  44.154   4.531
44427W        W 9654  41.651  11.825  14.696
44428W        W 9655  16.215  20.803   0.372
44429W        W 9656  43.880  43.696   3.700
44430W        W 9657   3.628  13.679  12.887
44431W        W 9658  14.197  20.193   4.301
44432W        W 9659  41.578  18.300  14.769
44433W        W 9660   9.581  38.871   2.154
44434W        W 9661   0.859  33.550  14.108
44435W        W 9662   3.842  19.137  10.796
44436W        W 9663  17.061  43.905  13.895
44437W        W 9664   9.803  24.210  13.886
44438W        W 9665  22.366  37.784  11.440
44439W        W 9666  11.381  30.056   0.973
44440W        W 9667  42.764  12.265   2.269
44441W        W 9668  25.260  14.163  11.528
44442W        W 9669  23.205  14.383   1.349
44443W        W 9670   0.768  35.560  10.759
44444W        W 9671  44.740  35.895   5.047
44445W        W 9672   7.226  20.776   3.229
44446W        W 9673  40.409  29.997  12.530
44447W        W 9674  31.432  41.793  14.582
44448W        W 9675  17.774  30.689   2.174
44449W        W 9676  18.133   8.601  13.903
44450W        W 9677  21.511  26.468   3.099
44451W        W 9678  32.134  38.944  12.179
44452W        W 9679  37.728  43.867  12.952
44453W        W 9680  41.033  28.882   1.747
44454W        W 9681  27.541  15.805   3.615
44455W        W 9682  11.097  24.163  12.023
44456W        W 9683  14.195  38.789   2.307
44457W        W 9684  35.550  34.095  14.415
44458W        W 9685   7.054  22.726   0.917
44459W        W 9686  24.453   1.824   1.848
44460W        W 9687  14.069  27.765  14.095
44461W        W 9688  28.255  15.540   2.839
44462W        W 9689  32.933  17.829  12.596
44463W        W 9690   1.378  28.374  12.254
44464W        W 9691   4.770  38.841  11.399
44465W        W 9692   9.114  20.288   0.672
44466W        W 9693  35.986  21.856   4.092
44467W        W 9694  25.229  12.587   2.290
44468W        W 9695   6.028  42.821   3.368
44469W        W 9696  14.372  25.964   1.313
44470W        W 9697  34.095  43.784   3.464
44471W        W 9698  10.931  35.558  12.132
44472W        W 9699  17.164  35.877   0.046
44473W        W 9700   6.293  27.104  10.652
44474W        W 9701  11.944   7.715   0.340
44475W        W 9702  10.273  15.802   3.177
44476W        W 9703   5.768  17.886  12.922
44477W        W 9704  26.856  22.869   3.761
44478W        W 9705   6.332  37.599   2.401
44479W        W 9706  31.066  38.565  13.318
44480W        W 9707  29.999   1.356  13.643
44481W        W 9708   1.242  32.959  11.255
44482W        W 9709   7.621  43.777  12.907
44483W        W 9710  39.847  38.616  14.914
44484W        W 9711  38.039  16.035  14.519
44485W        W 9712  40.030  36.361  11.951
44486W        W 9713  12.056  39.872  10.562
44487W        W 9714  43.474  43.206   4.166
44488W        W 9715  15.644  38.594  12.899
44489W        W 9716  13.436  38.081   3.212
44490W        W 9717  42.222  17.723  14.209
44491W        W 9718   3.834  28.420  11.543
44492W        W 9719  40.696  10.965   2.482
44493W        W 9720  27.138  37.604  14.834
44494W        W 9721   7.731  37.786  13.527
44495W        W 9722  30.672  33.494   4.537
44496W        W 9723   4.808  16.716   5.468
44497W        W 9724   9.174  40.128  12.001
44498W        W 9725  41.071   7.381   0.706
44499W        W 9726  19.333  25.959  13.754
44500W        W 9727  18.732  36.653  14.989
44501W        W 9728  12.559  30.532  14.054
44502W        W 9729  19.534  13.783   3.264
44503W        W 9730  14.837   0.045  11.574
44504W        W 9731   0.104  37.201   3.183
44505W        W 9732  22.025  20.484  13.940
44506W        W 9733  20.537  14.600   0.923
44507W        W 9734  27.215   6.346   3.721
44508W        W 9735  37.215  19.535   2.889
44509W        W 9736  11.933   7.360  13.921
44510W        W 9737  17.622   3.975   2.161
44511W        W 9738   3.022  22.470  10.268
44512W        W 9739  38.926  32.949   4.065
44513W        W 9740  15.672   3.201  14.574
44514W        W 9741  34.889   0.869   2.173
44515W        W 9742   0.922  37.052   4.299
44516W        W 9743   8.226  40.374  13.988
44517W        W 9744  14.746  38.817   1.669
44518W        W 9745  21.164  35.467  14.942
44519W        W 9746  22.688  44.143   1.158
44520W        W 9747  19.214  42.425  11.065
44521W        W 9748  20.438   1.874  13.437
44522W        W 9749  34.602  20.608  11.124
44523W        W 9750  22.631  42.416  12.026
44524W        W 9751   1.770  43.819  12.741
44525W        W 9752   1.925  33.948   3.604
44526W        W 9753  28.215  22.454   1.290
44527W        W 9754  23.998  19.041  11.097
44528W        W 9755  28.440  37.130   3.585
44529W        W 9756   1.111   9.796   4.936
44530W        W 9757  36.803  37.386   2.352
44531W        W 9758  13.829  20.199   1.445
44532W        W 9759  31.282   9.809   0.753
44533W        W 9760  15.993  10.558  10.264
44534W        W 9761   7.011  25.879   2.379
44535W        W 9762  39.501  42.894   1.614
44536W        W 9763  17.087  37.902   2.210
44537W        W 9764  35.074  18.118   0.984
44538W        W 9765  24.875  12.080  11.076
44539W        W 9766  36.167  35.846  14.017
44540W        W 9767  16.858  35.148   0.458
44541W        W 9768  29.214  28.982   2.834
44542W        W 9769   0.235  22.293  12.444
44543W        W 9770  32.072  16.759  13.661
44544W        W 9771   1.143   0.054   1.052
44545W        W 9772  36.694  40.750   4.078
44546W        W 9773  13.304  32.365   1.402
44547W        W 9774   2.525  22.755  11.877
44548W        W 9775  24.175  15.103   3.885
44549W        W 9776  13.261  38.990  13.598
44550W        W 9777   2.947  18.577  11.236
44551W        W 9778   9.802  35.315  11.643
44552W        W 9779  19.195   3.560   1.681
44553W        W 9780  27.662   0.919   0.822
44554W        W 9781   8.601  12.112   9.827
44555W        W 9782   0.526  41.821   1.473
44556W        W 9783  38.520  16.088   0.826
44557W        W 9784  13.695  27.557  14.403
44558W        W 9785   5.886  27.907   4.192
44559W        W 9786  38.041  28.128   0.266
44560W        W 9787  18.508  16.577   2.949
44561W        W 9788   4.900  27.724   5.251
44562W        W 9789   2.917  17.085  13.319
44563W        W 9790  20.999  31.584  11.956
44564W        W 9791  13.175   9.811   1.439
44565W        W 9792  19.060  30.969   4.379
44566W        W 9793  37.085  13.926  11.611
44567W        W 9794  33.142  30.444  11.129
44568W        W 9795  18.774   2.818   2.378
44569W        W 9796  43.421  19.278  14.075
44570W        W 9797   3.685  20.157   1.969
44571W        W 9798   7.783   1.659   1.894
44572W        W 9799  24.700  27.116   4.070
44573W        W 9800  43.871   7.433   2.690
44574W        W 9801   3.275  26.707   9.923
44575W        W 9802   4.194  28.968   4.104
44576W        W 9803  42.147  26.554   0.433
44577W        W 9804   1.793  12.177   2.363
44578W        W 9805  18.853  21.496  11.638
44579W        W 9806  26.457   2.161   2.164
44580W        W 9807  25.381  23.145  11.167
44581W        W 9808  36.480   5.356   0.894
44582W        W 9809  44.919  18.245   5.149
44583W        W 9810  41.022  27.514   1.872
44584W        W 9811  22.582  44.341  10.710
44585W        W 9812   2.930  15.035   0.374
44586W        W 9813  39.915  13.662  10.473
44587W        W 9814  31.136  42.039   2.146
44588W        W 9815  25.716  22.739  13.298
44589W        W 9816  43.577  32.962   4.253
44590W        W 9817   1.419   9.870  14.284
44591W        W 9818  28.017  40.625   2.698
44592W        W 9819  17.202  30.431   0.361
44593W        W 9820  34.768  12.057  14.360
44594W        W 9821  36.752  35.179  13.458
44595W        W 9822   6.100   8.161   0.121
44596W        W 9823  31.580  25.487   4.300
44597W        W 9824  35.941  41.181  14.031
44598W        W 9825  39.893  39.267   4.426
44599W        W 9826   2.860   0.932  10.859
44600W        W 9827  37.843  27.615   1.369
44601W        W 9828  31.892  39.403   1.859
44602W        W 9829  15.334   4.992   3.712
44603W        W 9830  11.883   9.813   0.565
44604W        W 9831   8.857  14.271   1.161
44605W        W 9832  34.100  14.118   3.588
44606W        W 9833  22.140  20.094  12.126
44607W        W 9834  13.201  17.290   3.678
44608W        W 9835  10.754   9.278   2.845
44609W        W 9836  39.189  36.419   2.461
44610W        W 9837  24.570   3.723   0.321
44611W        W 9838  37.454  35.541  13.844
44612W        W 9839  13.620   3.196   3.623
44613W        W 9840   9.969   0.924   4.920
44614W        W 9841  42.758  30.626   4.321
44615W        W 9842  19.048  13.865  13.500
44616W        W 9843  43.263   7.903  11.462
44617W        W 9844  31.464  30.182  13.915
44618W        W 9845   3.000  17.690   1.037
44619W        W 9846  19.621  38.802   0.836
44620W        W 9847  34.328  35.898   0.946
44621W        W 9848  21.795  34.423   4.134
44622W        W 9849  24.947  14.612  13.027
44623W        W 9850  43.770  37.977   2.344
44624W        W 9851   9.164  25.451   2.693
44625W        W 9852  19.595  12.357   1.208
44626W        W 9853  26.880  43.354  14.162
44627W        W 9854   2.143  30.133   2.268
44628W        W 9855   3.286   0.469   3.602
44629W        W 9856  23.566  39.545   2.135
44630W        W 9857  21.487  28.425   3.832
44631W        W 9858  15.380  13.580  14.689
44632W        W 9859  27.070  36.730  11.368
44633W        W 9860  41.707  14.707   0.822
44634W        W 9861   6.200  33.051  14.408
44635W        W 9862  15.272  13.254  14.258
44636W        W 9863  10.020  17.586  13.396
44637W        W 9864  20.930  12.461  12.608
44638W        W 9865  26.024  30.230  14.484
44639W        W 9866  37.896  26.284   0.683
44640W        W 9867  34.170  40.531  11.551
44641W        W 9868  38.460  44.312   0.867
44642W        W 9869  44.549  34.301  13.015
44643W        W 9870  38.447  14.564   0.796
44644W        W 9871  29.136  24.451   2.162
44645W        W 9872  14.053  15.447   2.120
44646W        W 9873  19.482   6.839  14.459
44647W        W 9874  23.886  40.096  11.979
44648W        W 9875  23.663  10.371  11.612
44649W        W 9876  40.919   7.853  14.772
44650W        W 9877   4.876  25.091  10.889
44651W        W 9878  18.069   7.093  14.484
44652W        W 9879  41.009  30.354   1.869
44653W        W 9880   5.692   1.416  13.620
44654W        W 9881   1.324  33.409   2.431
44655W        W 9882  23.768  42.304  12.959
44656W        W 9883  12.473   5.511   1.878
44657W        W 9884   7.669  43.299  14.851
44658W        W 9885  25.984  43.406  13.965
44659W        W 9886  13.200   9.622  14.003
44660W        W 9887   3.917  21.324  14.557
44661W        W 9888  32.440   9.285  12.073
44662W        W 9889  34.404  16.940   0.415
44663W        W 9890   5.799  30.832   0.210
44664W        W 9891   6.260  21.974   0.266
44665W        W 9892  39.585  14.835   3.322
44666W        W 9893  12.611  25.524  14.024
44667W        W 9894   9.417  27.690   0.972
44668W        W 9895   4.742  16.511  11.456
44669W        W 9896  29.731  36.737  11.607
44670W        W 9897  30.337   6.347   0.230
44671W        W 9898   9.951   5.701   0.775
44672W        W 9899   1.424  22.537  12.981
44673W        W 9900  23.380  16.635  11.611
44674W        W 9901   3.889  27.015   4.972
44675W        W 9902  42.004  20.253   0.305
44676W        W 9903  30.822  13.063  11.986
44677W        W 9904  26.621  25.885   1.153
44678W        W 9905   6.243  39.711   0.356
44679W        W 9906  39.006  29.685   2.349
44680W        W 9907   6.368  22.132  12.304
44681W        W 9908  36.727  35.511  12.944
44682W        W 9909   5.331  21.815  14.336
44683W        W 9910   9.439   0.864  10.774
44684W        W 9911   7.663  24.669  12.950
44685W        W 9912  36.364  41.498  14.798
44686W        W 9913  41.747  34.419  10.848
44687W        W 9914  12.864  10.133  11.992
44688W        W 9915  10.164   9.046   4.205
44689W        W 9916  36.256   5.454  13.316
44690W        W 9917  17.358  38.116  14.732
44691W        W 9918   9.733  31.517   2.777
44692W        W 9919   4.233  43.191   1.401
44693W        W 9920  32.366   0.958  14.380
44694W        W 9921  37.864  29.492   1.849
44695W        W 9922   7.258  24.657   0.845
44696W        W 9923  15.615  39.618   3.118
44697W        W 9924  21.095  19.146   3.265
44698W        W 9925   9.752  37.658  14.134
44699W        W 9926  37.817  13.611  11.206
44700W        W 9927  39.522  37.587   1.681
44701W        W 9928  36.323  26.983  14.795
44702W        W 9929   2.935  35.179   1.335
44703W        W 9930  16.076  22.120  12.632
44704W        W 9931  44.888   7.137   1.346
44705W        W 9932  13.864   0.231   3.319
44706W        W 9933  41.406   7.162   2.830
44707W        W 9934  13.581  27.841   4.928
44708W        W 9935  42.041   3.351  13.528
44709W        W 9936  42.484  31.157  14.368
44710W        W 9937  38.199  29.442   0.133
44711W        W 9938  40.546  23.798   2.267
44712W        W 9939  22.700  34.083  11.661
44713W        W 9940  18.175  31.993  12.064
44714W        W 9941   8.661   4.306  11.458
44715W        W 9942  44.016  13.670   2.821
44716W        W 9943   5.326  41.366  13.473
44717W        W 9944  33.574  32.565   0.265
44718W        W 9945  44.984  21.370   1.379
44719W        W 9946  24.258   6.721   0.981
44720W        W 9947  11.564   3.380   4.561
44721W        W 9948  17.777  15.999   0.826
44722W        W 9949  41.488  32.708   1.406
44723W        W 9950  12.059  43.583   1.186
44724W        W 9951  17.411  39.048   4.517
44725W        W 9952  36.335   5.041  14.064
44726W        W 9953  34.670   3.787   1.315
44727W        W 9954  14.381  43.610   4.692
44728W        W 9955  22.075  24.832  13.970
44729W        W 9956  17.116  20.191   4.184
44730W        W 9957  24.169   4.399   0.623
44731W        W 9958  10.707   3.013   3.934
44732W        W 9959  38.556  19.665  14.969
44733W        W 9960  39.590  18.024  11.620
44734W        W 9961   7.300  24.069   0.251
44735W        W 9962  28.439  25.954  13.767
44736W        W 9963  29.578  19.993   4.574
44737W        W 9964  23.965   0.734   0.721
44738W        W 9965  30.976  36.897   1.233
44739W        W 9966   4.293   6.317   4.691
44740W        W 9967  23.163  32.328   4.200
44741W        W 9968  29.984   1.031   0.383
44742W        W 9969  41.759  10.330   3.232
44743W        W 9970   1.490  32.177  14.743
44744W        W 9971  33.526  34.916  13.595
44745W        W 9972  40.562  12.267   1.376
44746W        W 9973  11.254  20.879   1.894
44747W        W 9974  40.416  26.413   3.713
44748W        W 9975  13.251   3.399   4.750
44749W        W 9976  13.917  31.361   3.644
44750W        W 9977  22.119  13.639  13.120
44751W        W 9978  43.729  20.780   1.885
44752W        W 9979  11.410   6.798  13.624
44753W        W 9980  42.555  19.575  12.726
44754W        W 9981  12.500  37.383   3.575
44755W        W 9982  37.260   2.719  14.432
44756W        W 9983  43.818  40.526   2.161
44757W        W 9984  28.837  29.459  12.958
44758W        W 9985  10.424  10.147   3.428
44759W        W 9986  14.443  24.871   2.690
44760W        W 9987  43.857  43.528  10.764
44761W        W 9988  11.650  22.245  13.731
44762W        W 9989  27.055   7.431   1.200
44763W        W 9990  21.209  25.593  11.552
44764W        W 9991   3.773  26.706   1.806
44765W        W 9992   5.059  10.683  11.622
44766W        W 9993   4.674  22.658   1.400
44767W        W 9994  25.047  32.348  13.381
44768W        W 9995  37.139  25.913   1.276
44769W        W 9996   4.145  38.013  14.796
44770W        W 9997  28.644   1.844  14.685
44771W        W 9998  28.058  26.131   1.764
44772W        W 9999   4.425   2.371   0.365
44773W        W10000  28.930  14.080   3.272
44774W        W10001   9.162  37.429   2.829
44775W        W10002  23.468  12.994   1.212
44776W        W10003  19.661  20.113  14.375
44777W        W10004  13.221  32.512   2.364
44778W        W10005  42.811  20.849   2.881
44779W        W10006  39.588  43.134   0.465
44780W        W10007  33.214  13.372  13.795
44781W        W10008  43.299   1.651   0.698
44782W        W10009   1.256  44.330   5.134
44783W        W10010  32.521  39.902  12.970
44784W        W10011   8.303  42.035  11.933
44785W        W10012   0.451  44.440   0.828
44786W        W10013  28.858  25.182   2.393
44787W        W10014   7.268  28.175   1.352
44788W        W10015   8.414  26.199  13.508
44789W        W10016  28.276  13.180   4.113
44790W        W10017  41.222  19.490   3.906
44791W        W10018  16.603  12.599   1.366
44792W        W10019  10.313   0.354   3.258
44793W        W10020   5.213  44.476  10.540
44794W        W10021  25.193  10.656  13.644
44795W        W10022  37.422  39.852   0.817
44796W        W10023  36.748  24.114  14.983
44797W        W10024  10.365  10.142   0.787
44798W        W10025   8.769  18.536  10.455
44799W        W10026  39.153  42.313  14.983
44800W        W10027  17.672  43.783   2.234
44801W        W10028   2.643  40.506   0.784
44802W        W10029   2.072  20.637  10.337
44803W        W10030   3.944  42.795   1.698
44804W        W10031   1.993   3.283   2.832
44805W        W10032  16.987   0.782   5.122
44806W        W10033  44.456  29.823   1.909
44807W        W10034  35.040   3.904  14.467
44808W        W10035  14.731   9.669  12.951
44809W        W10036  35.478  36.355  14.585
44810W        W10037  42.307  23.232   4.578
44811W        W10038   4.946  11.452  12.087
44812W        W10039  14.280   8.090   1.895
44813W        W10040   2.468   6.723  12.146
44814W        W10041  27.948  36.018  10.196
44815W        W10042  43.603  44.294  14.513
44816W        W10043   5.711  25.636   4.901
44817W        W10044  43.964  26.495   0.665
44818W        W10045  29.227  20.982  10.954
44819W        W10046  30.348  41.864  12.965
44820W        W10047  43.929  10.158  11.578
44821W        W10048  35.096   5.227  14.640
44822W        W10049  35.870  20.299  11.186
44823W        W10050  25.487   6.461  12.476
44824W        W10051  12.531   8.921  14.148
44825W        W10052  19.681  38.109   4.308
44826W        W10053  43.038  10.433  13.156
44827W        W10054  41.819  19.188   2.003
44828W        W10055  15.944  20.673   2.695
44829W        W10056  29.366   1.576   2.734
44830W        W10057  34.046  28.240   1.151
44831W        W10058  31.615  30.999   4.100
44832W        W10059   9.826   9.698  13.570
44833W        W10060  43.826  24.771  14.249
44834W        W10061  14.248  29.117   3.373
44835W        W10062   4.132  22.656   1.501
44836W        W10063   9.088  15.793  12.633
44837W        W10064  44.542  36.457  12.370
44838W        W10065   9.765  10.072   0.022
44839W        W10066  22.767   0.785   2.242
44840W        W10067  32.256  30.557   1.727
44841W        W10068  13.063  41.655   1.042
44842W        W10069  11.244  36.648   3.148
44843W        W10070  17.086   9.718  13.383
44844W        W10071  17.350  25.505   0.684
44845W        W10072  40.606  36.302  13.458
44846W        W10073  10.923  15.750  14.340
44847W        W10074  44.376   3.289   3.489
44848W        W10075  10.810   3.128   2.785
44849W        W10076   6.914  42.849   1.005
44850W        W10077  38.962  12.178   0.202
44851W        W10078  18.528  20.982  14.900
44852W        W10079  20.597  23.923  14.831
44853W        W10080  19.319   6.914  11.281
44854W        W10081  33.305  12.956   0.749
44855W        W10082   4.539  33.424  14.264
44856W        W10083  15.825   4.995   3.549
44857W        W10084  40.274  27.245   4.420
44858W        W10085  15.770   9.196   1.471
44859W        W10086  33.938   6.477   1.883
44860W        W10087  26.676  44.517  10.559
44861W        W10088   1.000  15.285   3.159
44862W        W10089  20.931  22.114   4.617
44863W        W10090   3.853  35.634  13.366
44864W        W10091  32.664  30.009   0.029
44865W        W10092   9.720  11.097  14.038
44866W        W10093  10.132  13.250  14.735
44867W        W10094  17.293  38.371  14.279
44868W        W10095  27.318  25.937  13.896
44869W        W10096  35.358  24.996   4.553
44870W        W10097   1.907  40.409   5.041
44871W        W10098  28.576  18.669   4.924
44872W        W10099  44.557  25.989  11.206
44873W        W10100   5.588   4.974  11.133
44874W        W10101  43.996  38.749  10.711
44875W        W10102  19.142   8.312  12.846
44876W        W10103  42.016  10.722   2.643
44877W        W10104  20.282  23.547   2.452
44878W        W10105   0.728  31.454  10.264
44879W        W10106  15.315   0.297  11.556
44880W        W10107  39.734  38.136   2.281
44881W        W10108  44.729  23.232  11.590
44882W        W10109  32.415  39.095  11.765
44883W        W10110   5.649  10.700   1.925
44884W        W10111   7.650  38.487  14.766
44885W        W10112   7.180   6.966  13.838
44886W        W10113  12.173  34.656  12.537
44887W        W10114   4.430  44.903  10.667
44888W        W10115  16.372  22.639   4.651
44889W        W10116  18.693  31.907  13.039
44890W        W10117   3.387  15.747   2.421
44891W        W10118  31.004   2.622   1.753
44892W        W10119  44.062  33.577  12.427
44893W        W10120  36.590  41.320   1.668
44894W        W10121   0.955  28.230   0.850
44895W        W10122  34.832  30.977   1.918
44896W        W10123  19.065  35.140   3.873
44897W        W10124  14.441   8.671   3.163
44898W        W10125  16.565  38.540   4.505
44899W        W10126  13.156  16.191  11.233
44900W        W10127  41.791  15.100   1.186
44901W        W10128  15.107  15.783   4.458
44902W        W10129  41.433  36.829  12.468
44903W        W10130  33.990  12.114   1.452
44904W        W10131  23.032  27.353  12.498
44905W        W10132   3.386  37.035  14.307
44906W        W10133  14.118   5.838  10.747
44907W        W10134  13.545  33.617   1.825
44908W        W10135  29.992  32.105  14.387
44909W        W10136  24.374  44.822  11.126
44910W        W10137  15.335  31.697   3.574
44911W        W10138  39.442   0.285   2.242
44912W        W10139  43.034  21.613   2.369
44913W        W10140  37.073   3.762  14.473
44914W        W10141   4.968  42.250  11.205
44915W        W10142  44.196   1.459   3.188
44916W        W10143   1.885  44.955   0.456
44917W        W10144   4.162  30.110   3.158
44918W        W10145  41.011  40.277   0.337
44919W        W10146  41.419  25.610  11.565
44920W        W10147  21.732   2.260   3.584
44921W        W10148  13.006  11.099  11.492
44922W        W10149  24.946  39.583  10.568
44923W        W10150  38.517   0.043  12.933
44924W        W10151  28.542   7.759   3.631
44925W        W10152  24.214  27.734   2.563
44926W        W10153  17.535  12.184   4.668
44927W        W10154   7.912   1.771   2.844
44928W        W10155  35.372  27.628   3.418
44929W        W10156  24.488  31.373   3.622
44930W        W10157   3.195   5.543   3.414
44931W        W10158   5.384  23.791   1.319
44932W        W10159  20.730  30.840   2.703
44933W        W10160  11.926  30.127   0.856
44934W        W10161  23.151  34.114  12.584
44935W        W10162  40.847  40.169   3.045
44936W        W10163  34.543  33.951  14.372
44937W        W10164  38.785  25.211  11.959
44938W        W10165   3.596  36.828  12.801
44939W        W10166   6.806   2.108  11.691
44940W        W10167  17.858  15.330  14.812
44941W        W10168  17.468  18.404   2.628
44942W        W10169   1.787  33.688   0.824
44943W        W10170  13.747  36.889  12.358
44944W        W10171  19.259  28.489   2.569
44945W        W10172  16.245  29.333   0.560
44946W        W10173  23.327  43.040  12.781
44947W        W10174  44.798  23.301  14.776
44948W        W10175  19.780   0.627   3.552
44949W        W10176  28.069  36.729  14.926
44950W        W10177  12.383  18.145   2.257
44951W        W10178  26.445  39.381  13.034
44952W        W10179  22.253  35.214  10.480
44953W        W10180  26.923  26.099   3.665
44954W        W10181  28.668   8.874   3.300
44955W        W10182   5.307   3.149  12.652
44956W        W10183  40.616  35.101  14.013
44957W        W10184  33.389  20.786  10.518
44958W        W10185  27.612  26.408   1.014
44959W        W10186  16.799   7.374  13.574
44960W        W10187   9.821  27.531   0.689
44961W        W10188  28.637  28.665   2.306
44962W        W10189  20.559   8.937   4.339
44963W        W10190  11.581  17.717  12.379
44964W        W10191  11.930   7.885  12.473
44965W        W10192   8.679  16.327   1.674
44966W        W10193  37.305  15.866  13.431
44967W        W10194  33.073  10.520   3.629
44968W        W10195  22.592   5.616  10.777
44969W        W10196  10.344  44.976  12.711
44970W        W10197   9.404  24.573  14.033
44971W        W10198   2.331  38.809   1.831
44972W        W10199  31.190  40.064  14.306
44973W        W10200  26.256  28.917   1.863
44974W        W10201  43.436  44.308   0.412
44975W        W10202  37.693  24.275   3.237
44976W        W10203  20.843   8.578  11.561
44977W        W10204   4.242   0.062   0.383
44978W        W10205   4.829   6.399  14.814
44979W        W10206  31.148  44.084  14.860
44980W        W10207  40.618   2.459   4.802
44981W        W10208  15.831   7.678   1.295
44982W        W10209  12.185  18.110  14.498
44983W        W10210  40.111  16.762   1.546
44984W        W10211   6.432  19.229  11.591
44985W        W10212  26.653  28.998  12.512
44986W        W10213   4.101  13.793   1.894
44987W        W10214   6.774  38.234   2.776
44988W        W10215  10.371  16.848   0.390
44989W        W10216   3.719  14.963  11.432
44990W        W10217  43.358  43.543   3.766
44991W        W10218  40.111  26.523   0.320
44992W        W10219  42.257  26.518  14.387
44993W        W10220  44.160  21.089   1.950
44994W        W10221  22.536  10.702  11.283
44995W        W10222  25.781  17.280   3.823
44996W        W10223  23.085   5.956  14.477
44997W        W10224   6.601  38.083   4.659
44998W        W10225  43.141  17.227   1.873
44999W        W10226  18.664  33.211   0.032
45000W        W10227  38.866  37.933  11.137
45001W        W10228  41.619  11.578  10.646
45002W        W10229  33.417  33.047   5.134
45003W        W10230  11.814  11.830  10.679
45004W        W10231  36.937  20.276   4.661
45005W        W10232  14.264  43.613   0.736
45006W        W10233  36.927  21.835  13.479
45007W        W10234  35.438   2.216  12.462
45008W        W10235  43.833   4.040   4.736
45009W        W10236  37.743   7.459  11.948
45010W        W10237  13.168  23.228  11.783
45011W        W10238  29.197  37.378   5.153
45012W        W10239  30.483  40.774   1.900
45013W        W10240  36.926  41.530  11.164
45014W        W10241  19.533  23.470  11.536
45015W        W10242  22.752  39.585  13.576
45016W        W10243   4.387  36.964  12.819
45017W        W10244  11.585  21.655  12.046
45018W        W10245  27.345  44.926  14.959
45019W        W10246  36.017  16.503   4.472
45020W        W10247   4.245  26.057  14.514
45021W        W10248   1.326   2.593   4.250
45022W        W10249  14.233   6.015   4.551
45023W        W10250  40.012   1.757   0.754
45024W        W10251  21.849   6.353   1.711
45025W        W10252  10.809  36.975  12.509
45026W        W10253   7.273   4.560   0.218
45027W        W10254  33.889   9.326  14.962
45028W        W10255  28.450  44.121   1.451
45029W        W10256  37.639  14.650  11.649
45030W        W10257  28.025  28.627  13.522
45031W        W10258   8.881  16.719   1.268
45032W        W10259  18.079   4.341   0.714
45033W        W10260  15.842  17.122  13.955
45034W        W10261  36.870  13.905   0.231
45035W        W10262  12.205   0.456   3.765
45036W        W10263  25.099   7.106  13.317
45037W        W10264  23.307  10.755  14.537
45038W        W10265  25.371   9.263  11.100
45039W        W10266   7.718  27.142   4.213
45040W        W10267  23.120   4.054   3.523
45041W        W10268  43.336  35.240   0.137
45042W        W10269  39.826   6.031  12.759
45043W        W10270   0.202  15.361   2.760
45044W        W10271  20.104   7.627   5.091
45045W        W10272  31.332  15.007   3.627
45046W        W10273  27.699  10.804   2.846
45047W        W10274  18.465  33.241  11.845
45048W        W10275  28.865  16.405  12.924
45049W        W10276  20.793  30.613  14.304
45050W        W10277  14.775  18.726  12.402
45051W        W10278  16.043  36.615   1.580
45052W        W10279  17.190   7.907   3.654
45053W        W10280  11.762  24.448  14.106
45054W        W10281  36.893   8.432   9.797
45055W        W10282  27.420   6.653  12.051
45056W        W10283   3.014  43.358   3.573
45057W        W10284  14.883   8.926   2.191
45058W        W10285  24.589  28.090   1.747
45059W        W10286  39.378   3.477   0.256
45060W        W10287  29.647  17.417   2.380
45061W        W10288  24.986  42.071  11.609
45062W        W10289  25.605  25.337   0.323
45063W        W10290  32.642   1.523   2.057
45064W        W10291   9.805  18.868  11.182
45065W        W10292  34.364  24.030   1.974
45066W        W10293  38.766   4.890   1.230
45067W        W10294  43.782  43.823   2.337
45068W        W10295  21.454   0.304  12.349
45069W        W10296  16.578  12.443   3.149
45070W        W10297  17.218  33.956  11.781
45071W        W10298   5.868  11.696   2.848
45072W        W10299  22.556  30.951  12.435
45073W        W10300  36.548   0.019   4.486
45074W        W10301  20.179  26.950   4.531
45075W        W10302  35.065  24.087  12.859
45076W        W10303  22.992  42.948  10.776
45077W        W10304  28.030  15.063  13.358
45078W        W10305  22.501  27.529   1.413
45079W        W10306   5.682  41.017  13.567
45080W        W10307  44.254  34.782  13.092
45081W        W10308  19.075  34.467   0.485
45082W        W10309  22.202  15.200  13.008
45083W        W10310  33.045   6.834   1.108
45084W        W10311   3.398  35.676  11.175
45085W        W10312  37.803   9.873   3.838
45086W        W10313  23.628  12.834   0.729
45087W        W10314   6.556  36.319  14.424
45088W        W10315  25.043   9.159  13.729
45089W        W10316  16.612  30.105   1.001
45090W        W10317  32.406  43.384  10.680
45091W        W10318  14.410  21.098  12.515
45092W        W10319  15.572  15.347  13.396
45093W        W10320   6.133   7.280   4.145
45094W        W10321   5.185  43.331   1.319
45095W        W10322  35.007  27.674  14.759
45096W        W10323  22.620  18.857  10.124
45097W        W10324  14.685  19.686  12.485
45098W        W10325  22.563  24.061  14.486
45099W        W10326   3.842  26.995  13.376
45100W        W10327  31.133  31.825   9.712
45101W        W10328  26.262   0.321   0.288
45102W        W10329  35.436   8.783  13.603
45103W        W10330  33.008  17.363  13.520
45104W        W10331   9.958  42.311  11.819
45105W        W10332  38.163  35.837  10.934
45106W        W10333   6.359  41.822  14.365
45107W        W10334  24.946  13.719   2.975
45108W        W10335  39.312   2.662  11.373
45109W        W10336  37.467   0.848   1.756
45110W        W10337  15.307   5.967  11.134
45111W        W10338  12.249   2.266  14.763
45112W        W10339  39.491  10.884  12.983
45113W        W10340  14.525  30.381  13.641
45114W        W10341  40.068  41.821  13.848
45115W        W10342   6.378  28.529  13.278
45116W        W10343   1.160  15.357  12.596
45117W        W10344  19.700  28.863  14.891
45118W        W10345  40.037  27.550  12.397
45119W        W10346  23.076   6.771   2.098
45120W        W10347  28.687  28.963  14.329
45121W        W10348  44.328  28.687   4.597
45122W        W10349  33.116  16.146  14.898
45123W        W10350  40.323   1.375   0.503
45124W        W10351  12.134  28.758  12.676
45125W        W10352   9.335   1.538   4.607
45126W        W10353   0.325  21.168   0.366
45127W        W10354  20.723   9.128   2.391
45128W        W10355  39.382   7.674  14.936
45129W        W10356   1.843  33.434   3.630
45130W        W10357  43.683  42.896  14.895
45131W        W10358  42.431  28.764  12.404
45132W        W10359  41.394  12.212   2.359
45133W        W10360   8.918   7.715  14.887
45134W        W10361   4.067  32.178  13.399
45135W        W10362  43.392  37.698  14.822
45136W        W10363  17.963  28.698  10.810
45137W        W10364  36.868  36.046  11.534
45138W        W10365  43.084  18.774   0.282
45139W        W10366  24.529  43.362  13.340
45140W        W10367  19.000  25.561  13.948
45141W        W10368  42.997  38.368  14.002
45142W        W10369   2.414  29.064   4.543
45143W        W10370  29.000  12.602  12.920
45144W        W10371  37.840  23.724  14.447
45145W        W10372  32.535  11.881  11.076
45146W        W10373   3.407  40.556  11.241
45147W        W10374  30.330  33.524   3.591
45148W        W10375  13.693  35.309  12.482
45149W        W10376  29.833  21.195   2.592
45150W        W10377  32.070  42.562  11.255
45151W        W10378  32.943  43.297  12.066
45152W        W10379  12.085  28.521  13.924
45153W        W10380  34.195  38.641   1.216
45154W        W10381   0.024  41.283   3.798
45155W        W10382   8.390  26.502  11.564
45156W        W10383  28.675  25.606   1.479
45157W        W10384  42.956  28.900  10.713
45158W        W10385  35.316  31.238   4.151
45159W        W10386  36.454  37.395   2.801
45160W        W10387  33.389  41.931   3.997
45161W        W10388  40.432  26.677   2.132
45162W        W10389   2.000  16.743   2.536
45163W        W10390   5.760  39.835  10.850
45164W        W10391  35.893  23.166  10.507
45165W        W10392  28.484  36.095   3.882
45166W        W10393   6.355   2.239   2.903
45167W        W10394   6.140   7.933   4.266
45168W        W10395   9.216  10.889   0.637
45169W        W10396   1.846  21.256   1.339
45170W        W10397  16.992   6.665  11.064
45171W        W10398  36.956  38.847  13.805
45172W        W10399  29.623  39.920  12.731
45173W        W10400   2.854  13.697   4.399
45174W        W10401   0.371  35.070   4.634
45175W        W10402   3.277  14.657   3.476
45176W        W10403   3.397   8.349  10.696
45177W        W10404  29.590  12.723  13.271
45178W        W10405  13.365  28.779   0.920
45179W        W10406  42.742  32.966  10.142
45180W        W10407  32.473  14.745  14.339
45181W        W10408  44.015  22.892   0.720
45182W        W10409  34.985  16.290   0.224
45183W        W10410  16.151  18.075   2.846
45184W        W10411  11.633  37.828  11.081
45185W        W10412   4.780  44.464  14.293
45186W        W10413  25.580  12.843  10.675
45187W        W10414   7.157   6.297  12.567
45188W        W10415  34.892  31.372   3.415
45189W        W10416  33.976  28.978   3.123
45190W        W10417  12.330  11.423  12.067
45191W        W10418  29.381  11.414   1.175
45192W        W10419   6.276  15.342  14.310
45193W        W10420  33.851  19.158   1.773
45194W        W10421  40.661  33.915  12.079
45195W        W10422  34.432  26.076   4.541
45196W        W10423   4.750  38.948   1.156
45197W        W10424  37.820   9.369  11.620
45198W        W10425  39.020  12.113   1.250
45199W        W10426  42.571  27.004   4.058
45200W        W10427  41.566   2.881  12.043
45201W        W10428   3.321  11.956  11.652
45202W        W10429  26.851  23.828  11.565
45203W        W10430  11.383  37.333  10.734
45204W        W10431  34.428  23.594   3.906
45205W        W10432  38.982  18.951   3.214
45206W        W10433  32.531  32.030   4.529
45207W        W10434  14.409  17.109  13.667
45208W        W10435  22.103   2.528   3.837
45209W        W10436  19.860  17.333  14.347
45210W        W10437  39.007  25.026  14.405
45211W        W10438  13.337  29.046  13.017
45212W        W10439  16.685  42.684   0.635
45213W        W10440  38.583   2.338   2.813
45214W        W10441  25.533  39.038   1.672
45215W        W10442  19.248  34.182  14.239
45216W        W10443  11.826  10.801   0.309
45217W        W10444  26.070  19.737   2.269
45218W        W10445  18.573  12.918  13.007
45219W        W10446  26.257   6.457  10.683
45220W        W10447  37.218  16.630   3.981
45221W        W10448  44.881   9.155   4.712
45222W        W10449  25.107  23.752  14.309
45223W        W10450  40.301   1.836   3.562
45224W        W10451  28.989  38.801  11.525
45225W        W10452  42.279  10.590  11.603
45226W        W10453  10.573  17.503  13.384
45227W        W10454  28.171  31.032  11.235
45228W        W10455  39.343   2.597  13.545
45229W        W10456  39.424  41.776   0.319
45230W        W10457  23.915  11.603  12.493
45231W        W10458   7.924  39.407  14.611
45232W        W10459  23.900  41.947   4.632
45233W        W10460   2.843  36.086  12.636
45234W        W10461   4.508   4.810   2.817
45235W        W10462  26.970   2.472   3.795
45236W        W10463  31.920  17.280   4.648
45237W        W10464  21.966  25.712   3.009
45238W        W10465  27.343   1.734   5.149
45239W        W10466   1.744   5.359   1.396
45240W        W10467  43.697  22.405   9.746
45241W        W10468  16.089   3.231   3.136
45242W        W10469  43.122  30.629  12.908
45243W        W10470  10.752  23.493   1.488
45244W        W10471  37.320  37.247  14.354
45245W        W10472  44.717  31.407   0.342
45246W        W10473  36.976   6.434  14.792
45247W        W10474  24.492  25.790  11.889
45248W        W10475   9.602   4.139   1.907
45249W        W10476  14.623  44.230  13.800
45250W        W10477  30.707  24.554   1.888
45251W        W10478  11.316  43.598  14.352
45252W        W10479   8.174  36.647   1.715
45253W        W10480  42.061  23.492  14.355
45254W        W10481  12.334  11.269  13.608
45255W        W10482  27.658  41.784  13.010
45256W        W10483  38.959   7.940   4.622
45257W        W10484  23.649  31.080   1.942
45258W        W10485  35.031  10.087   3.386
45259W        W10486  11.118  28.596  10.508
45260W        W10487  32.543  29.033  12.330
45261W        W10488  11.365  22.197   4.865
45262W        W10489  43.242  40.087  10.907
45263W        W10490  30.573  11.437  13.092
45264W        W10491  30.488  11.812   5.003
45265W        W10492  22.499  18.311  14.796
45266W        W10493   2.398  34.549  11.211
45267W        W10494   4.628  43.324  13.792
45268W        W10495  32.927  36.423   1.739
45269W        W10496  36.336  44.123   4.319
45270W        W10497   4.268  11.801  13.357
45271W        W10498  22.577  33.699   1.546
45272W        W10499  38.935   9.222  14.333
45273W        W10500  41.577  20.091  12.910
45274W        W10501  24.057  15.928   5.121
45275W        W10502   6.172  23.590  13.721
45276W        W10503   8.358   1.484   0.879
45277W        W10504  19.098  21.936   1.875
45278W        W10505   7.307  12.420   2.160
45279W        W10506   1.743  29.879   3.648
45280W        W10507  31.623  42.334   0.795
45281W        W10508  21.108  29.897  12.410
45282W        W10509  14.740  43.041  11.198
45283W        W10510  26.504  36.433  13.608
45284W        W10511   5.812   6.755   1.287
45285W        W10512   2.284  40.474  11.522
45286W        W10513  35.922   3.795   4.591
45287W        W10514  43.929  34.161  14.350
45288W        W10515  16.846  17.619   1.233
45289W        W10516  22.967  21.597   0.838
45290W        W10517  24.106  26.443   4.236
45291W        W10518  15.644  42.001  14.935
45292W        W10519   4.150   2.861   0.315
45293W        W10520  15.678  12.740   3.118
45294W        W10521  23.662  15.127   1.251
45295W        W10522  24.450  26.728  10.760
45296W        W10523   9.278  39.866   3.665
45297W        W10524   1.419   7.165  12.789
45298W        W10525   7.201   1.065  12.849
45299W        W10526  17.538   3.586   4.960
45300W        W10527  41.834  15.199  10.962
45301W        W10528   1.505   4.874   4.398
45302W        W10529  35.503  29.814  11.167
45303W        W10530  44.737  39.924   0.775
45304W        W10531  44.304  22.723   3.315
45305W        W10532   7.825  10.365  14.765
45306W        W10533   7.996  16.930   1.269
45307W        W10534  27.416   2.270  10.991
45308W        W10535  33.753   9.639  12.768
45309W        W10536   5.926  37.238  11.568
45310W        W10537  18.780  18.961   2.190
45311W        W10538  20.192  13.801   0.822
45312W        W10539  13.066   1.279   4.023
45313W        W10540  44.298  37.568   3.595
45314W        W10541  41.140  25.620   3.691
45315W        W10542  14.246  38.090   1.671
45316W        W10543  35.885  38.136   1.152
45317W        W10544  12.906  19.651  13.997
45318W        W10545  15.519  15.529  10.593
45319W        W10546   9.795  30.745   0.297
45320W        W10547  28.925  23.517  14.469
45321W        W10548  33.861  23.463   3.005
45322W        W10549  42.537  36.575   4.120
45323W        W10550  30.961   5.253   3.777
45324W        W10551  20.484   5.828   2.265
45325W        W10552  28.824  41.592   4.179
45326W        W10553  36.410  26.949   1.293
45327W        W10554  25.407  18.960   2.715
45328W        W10555  23.031  40.429   2.706
45329W        W10556  32.844   5.769   0.037
45330W        W10557   6.214  43.094   0.370
45331W        W10558  25.569  22.036   4.399
45332W        W10559  44.287  21.089   1.435
45333W        W10560   7.308  41.748  13.406
45334W        W10561  14.471  25.637  14.048
45335W        W10562  13.529  41.017   2.375
45336W        W10563  36.685  32.523  13.940
45337W        W10564  20.233  11.878   4.527
45338W        W10565   3.464  16.589  11.817
45339W        W10566  18.324  10.402   4.861
45340W        W10567   6.727   4.851   4.675
45341W        W10568  12.939  27.693   2.342
45342W        W10569  22.729  36.140  14.109
45343W        W10570  25.220  35.715   2.794
45344W        W10571  40.337  20.618   2.774
45345W        W10572  25.456  40.188   0.079
45346W        W10573  20.814  10.788   4.565
45347W        W10574  12.789  23.677  11.212
45348W        W10575  30.851  24.982  13.944
45349W        W10576  42.235   6.693  13.282
45350W        W10577  34.353  35.050   2.957
45351W        W10578  23.560   1.847   2.519
45352W        W10579  27.268  31.960  13.062
45353W        W10580  15.151  34.827  14.624
45354W        W10581  21.671  17.716  13.168
45355W        W10582  28.404  14.696   4.986
45356W        W10583  44.802  15.595   0.819
45357W        W10584  21.257  24.643   0.822
45358W        W10585  36.623  13.554   1.787
45359W        W10586  40.286  41.015   2.861
45360W        W10587   5.627  28.071   2.659
45361W        W10588  42.783  43.014  12.640
45362W        W10589  20.684  27.507  13.456
45363W        W10590  32.286  35.768   4.612
45364W        W10591  30.589  35.266   0.415
45365W        W10592  29.290  38.017   1.217
45366W        W10593  21.976  29.978  14.981
45367W        W10594  30.523   6.340   1.714
45368W        W10595  17.135  43.794   2.096
45369W        W10596  44.486  44.936   2.782
45370W        W10597  11.369  41.464  11.472
45371W        W10598   4.170   9.639  14.831
45372W        W10599  12.330  32.589  10.889
45373W        W10600   7.178   8.440   3.322
45374W        W10601  28.422   3.315  13.763
45375W        W10602  11.591   5.048   4.074
45376W        W10603   7.484  12.891  14.968
45377W        W10604  17.875  40.087   1.908
45378W        W10605  28.985  28.045   3.724
45379W        W10606  44.247   3.747  12.807
45380W        W10607   5.873  39.232  10.681
45381W        W10608   1.583  20.644  12.853
45382W        W10609  38.698  38.351   4.042
45383W        W10610  29.837   9.903   0.012
45384W        W10611  16.608  38.879  14.385
45385W        W10612  28.257  43.484  11.242
45386W        W10613  35.458  15.615   3.714
45387W        W10614   4.750  14.702   4.169
45388W        W10615  23.012  16.992  14.780
45389W        W10616   8.624  19.754   1.333
45390W        W10617   2.804  11.610  14.738
45391W        W10618  32.016   8.958   2.265
45392W        W10619   4.512  19.624  12.619
45393W        W10620   7.304  43.322  11.581
45394W        W10621  44.447  40.994   2.334
45395W        W10622  37.151   5.624   4.998
45396W        W10623  18.562  37.304   3.612
45397W        W10624  12.684  26.039   1.583
45398W        W10625  30.082  11.319  13.299
45399W        W10626  22.545  14.768  10.940
45400W        W10627  41.319  23.120  13.558
45401W        W10628  10.186   5.212   0.790
45402W        W10629  11.972  44.434   2.896
45403W        W10630   9.197  29.007  12.530
45404W        W10631  10.783  35.885   2.811
45405W        W10632  43.538  34.077  11.634
45406W        W10633  27.182   9.459   2.350
45407W        W10634  11.367  43.019  11.015
45408W        W10635  43.061  10.776  12.436
45409W        W10636  16.264  33.995  12.605
45410W        W10637  31.941  21.739   1.660
45411W        W10638   0.731  29.666  12.984
45412W        W10639  11.185  30.397   3.192
45413W        W10640  39.800  19.426  12.176
45414W        W10641  41.223  15.097   2.255
45415W        W10642  16.356  34.803   2.383
45416W        W10643   6.327  18.323   1.830
45417W        W10644  23.559   3.452   2.564
45418W        W10645  17.767  43.856   3.709
45419W        W10646  40.569  29.953   3.093
45420W        W10647  32.023  32.146   3.691
45421W        W10648   5.959   5.431   1.350
45422W        W10649  11.753   6.196  13.501
45423W        W10650   1.867  41.921   3.721
45424W        W10651  18.730  39.757   3.796
45425W        W10652  33.425  17.257  12.062
45426W        W10653  24.396  32.130   4.514
45427W        W10654  11.857  12.304  14.532
45428W        W10655   4.862   7.787   1.753
45429W        W10656  14.159   6.813   2.087
45430W        W10657  23.111   8.610  12.453
45431W        W10658  22.256  25.278   0.455
45432W        W10659  26.880  19.055  12.362
45433W        W10660   6.962  31.972   1.149
45434W        W10661  41.093  19.992  14.249
45435W        W10662  21.289  25.117   0.615
45436W        W10663   1.295   4.481  13.374
45437W        W10664  42.884  20.683  14.368
45438W        W10665  18.352  25.107   2.506
45439W        W10666   1.311  12.385   3.666
45440W        W10667  20.957  13.598  11.298
45441W        W10668   7.910  14.024  11.125
45442W        W10669  30.596  26.325   4.117
45443W        W10670  33.018  16.687  14.265
45444W        W10671  28.676  42.933   0.423
45445W        W10672  38.077  14.342   2.198
45446W        W10673  20.052   3.282   2.692
45447W        W10674   4.796   3.907   0.226
45448W        W10675  21.107  31.051  10.914
45449W        W10676  30.820  35.415   2.011
45450W        W10677  20.992  40.579  12.358
45451W        W10678  39.418  19.198   4.014
45452W        W10679  19.806   1.966  12.470
45453W        W10680   2.920  22.137  10.656
45454W        W10681  38.917   1.987   2.087
45455W        W10682  29.287  39.644   0.772
45456W        W10683  12.026  21.134  10.488
45457W        W10684  44.606  20.309  10.646
45458W        W10685   0.994  10.251   3.767
45459W        W10686  42.508  23.134  12.501
45460W        W10687   2.746  36.527  12.933
45461W        W10688  43.135  25.629  10.644
45462W        W10689  37.422  22.724   2.926
45463W        W10690   0.849  31.031  10.994
45464W        W10691  21.507   0.086   1.737
45465W        W10692  39.941  22.291  13.537
45466W        W10693  26.113  32.656   0.274
45467W        W10694  22.275   4.762   1.541
45468W        W10695  10.248  25.509  12.660
45469W        W10696  33.974  11.099  11.044
45470W        W10697  20.239  37.867  13.940
45471W        W10698   7.400  18.216   2.244
45472W        W10699  36.812   9.665   3.749
45473W        W10700  15.584  23.748   3.281
45474W        W10701  23.166  35.458   1.390
45475W        W10702  40.162   3.961  10.786
45476W        W10703  27.015  37.922   4.884
45477W        W10704  26.009  11.898   2.148
45478W        W10705   2.223  12.367   0.801
45479W        W10706  33.877  32.362  10.496
45480W        W10707   9.731  27.929  11.842
45481W        W10708  25.075  22.527  10.663
45482W        W10709  26.461   3.850   0.654
45483W        W10710  23.751  29.676  11.607
45484W        W10711  11.336  15.405   0.586
45485W        W10712  44.363  19.475  11.594
45486W        W10713  34.400  11.349  14.875
45487W        W10714  16.716   7.114  13.135
45488W        W10715  27.981  21.188  11.149
45489W        W10716  25.226  41.074  11.740
45490W        W10717  29.681   2.619  11.833
45491W        W10718  37.489  19.577   3.663
45492W        W10719   5.948  10.098  10.918
45493W        W10720  35.580  15.562  11.677
45494W        W10721   0.923  44.041   5.433
45495W        W10722  38.530   7.694   2.569
45496W        W10723  19.680  40.137   0.435
45497W        W10724  37.434  26.066   2.253
45498W        W10725   9.757  19.719   2.241
45499W        W10726  21.076  36.214   2.745
45500W        W10727   8.487  40.459  11.583
45501W        W10728  14.613  31.631  14.421
45502W        W10729   6.886   2.708   2.941
45503W        W10730  43.779  34.806  14.981
45504W        W10731  28.562  21.115  11.821
45505W        W10732   5.968   5.703   1.951
45506W        W10733   5.890   2.226   0.868
45507W        W10734  31.419   0.928  11.457
45508W        W10735  17.077   1.508   3.480
45509W        W10736  34.356  27.558   3.181
45510W        W10737  15.769  42.353   1.209
45511W        W10738   9.260  44.844   2.811
45512W        W10739   6.139  21.610   3.280
45513W        W10740  29.655   4.867   2.559
45514W        W10741   6.280  38.949  11.452
45515W        W10742  20.733   8.801  14.074
45516W        W10743  35.152  29.571  10.428
45517W        W10744  27.236  10.258   0.294
45518W        W10745  15.527  43.051   0.869
45519W        W10746  32.084  15.002  13.035
45520W        W10747  10.381  28.617  14.865
45521W        W10748  22.136   4.354   0.803
45522W        W10749  33.494  15.225  11.245
45523W        W10750  23.936   6.700   4.355
45524W        W10751  20.180  17.600  10.200
45525W        W10752  14.008  35.071  14.851
45526W        W10753  35.020  18.402  11.153
45527W        W10754   2.281  29.074  11.435
45528W        W10755  16.995  39.169   2.269
45529W        W10756   6.439  20.230   2.794
45530W        W10757  37.339  21.992  14.779
45531W        W10758  23.787   2.221   1.238
45532W        W10759  28.445  21.559  12.172
45533W        W10760  40.089  17.533   3.190
45534W        W10761  39.897  38.796  13.023
45535W        W10762  37.129  34.881   3.208
45536W        W10763   5.488  43.418   2.150
45537W        W10764   3.022  43.859   0.676
45538W        W10765   6.220  37.280   4.861
45539W        W10766  16.579  26.071  13.974
45540W        W10767   6.536  37.422   4.443
45541W        W10768  43.505  19.585   3.131
45542W        W10769  18.916  17.681  14.318
45543W        W10770  43.858   2.300  10.608
45544W        W10771   5.110  30.423  11.118
45545W        W10772  15.782  15.608  11.504
45546W        W10773   3.470  27.382  13.652
45547W        W10774  33.527  41.897   1.198
45548W        W10775   8.103  14.498  10.269
45549W        W10776  27.844   1.311  13.377
45550W        W10777  42.702   8.185   0.256
45551W        W10778   6.749  42.278   2.810
45552W        W10779  10.683  12.782   3.329
45553W        W10780  25.411  28.029   3.717
45554W        W10781   2.514  23.300  11.950
45555W        W10782  24.316  17.333   4.742
45556W        W10783  31.504  34.956   5.291
45557W        W10784  38.815  23.564  13.496
45558W        W10785  43.328  28.204   2.839
45559W        W10786  22.822  37.448  14.040
45560W        W10787  33.768   0.524  12.489
45561W        W10788  13.433  35.649  12.797
45562W        W10789  26.242   3.483  13.464
45563W        W10790  16.401  39.253  14.073
45564W        W10791  25.215  11.125  12.546
45565W        W10792  31.577  37.836  13.398
45566W        W10793  37.499  31.055   1.831
45567W        W10794  14.113  21.635   3.140
45568W        W10795   8.049   7.673   0.836
45569W        W10796   4.061  28.438   2.867
45570W        W10797  12.786   9.136   2.370
45571W        W10798  21.015  16.978   4.585
45572W        W10799  42.611  25.032  11.136
45573W        W10800   2.390  42.354  10.596
45574W        W10801  33.570   3.761  12.692
45575W        W10802  22.714  16.922  14.332
45576W        W10803  22.314  29.401   4.471
45577W        W10804  36.960   8.744   4.768
45578W        W10805  30.137  38.853   3.810
45579W        W10806  32.094  34.997   0.270
45580W        W10807  38.086  13.639   4.495
45581W        W10808   8.339  24.722  11.542
45582W        W10809  42.376  30.901  13.493
45583W        W10810  11.408  32.099  13.424
45584W        W10811  39.125  36.611  14.790
45585W        W10812  16.610  19.296  14.349
45586W        W10813  37.078  37.070   3.170
45587W        W10814  12.273  17.280  13.933
45588W        W10815  36.110  21.738   1.940
45589W        W10816  22.128   7.436   3.079
45590W        W10817  10.064   2.051   2.416
45591W        W10818  33.460  23.232   4.700
45592W        W10819  35.779  23.025   3.791
45593W        W10820  13.638  11.814  13.359
45594W        W10821   3.339  31.967   0.033
45595W        W10822   2.668  14.610   4.754
45596W        W10823  20.562  34.078  11.058
45597W        W10824   7.310  30.956  12.535
45598W        W10825  38.503  28.304   3.197
45599W        W10826   7.252  33.600  12.445
45600W        W10827  21.015  18.083   2.386
45601W        W10828  12.224   3.183  13.437
45602W        W10829  43.140   4.505   0.966
45603W        W10830   7.218  10.607   1.890
45604W        W10831  20.488  21.517   4.081
45605W        W10832   0.238  21.993   2.806
45606W        W10833  14.326  33.856   1.698
45607W        W10834   8.444  17.245  13.496
45608W        W10835  35.411  42.698  12.180
45609W        W10836   3.529  24.303  14.814
45610W        W10837  16.073  21.411   1.217
45611W        W10838  42.544  32.048  11.192
45612W        W10839  12.198   8.720  13.815
45613W        W10840  36.773  26.871  11.979
45614W        W10841  17.615  23.105   4.250
45615W        W10842  39.341  37.779  14.858
45616W        W10843  12.313  12.318  12.610
45617W        W10844  15.832  34.884   2.377
45618W        W10845  14.611  26.209   1.704
45619W        W10846  22.969  42.483  11.621
45620W        W10847  36.045  30.174  11.126
45621W        W10848   9.089  27.002  13.982
45622W        W10849   1.274   6.343   2.332
45623W        W10850  14.774  27.082  11.220
45624W        W10851  41.978  13.443   3.145
45625W        W10852  32.331  14.669   1.867
45626W        W10853  35.074  36.583  13.909
45627W        W10854  26.670  13.909  12.151
45628W        W10855  14.249   8.780   3.626
45629W        W10856   4.146   0.793  13.959
45630W        W10857  40.381   5.160  13.452
45631W        W10858   3.122   2.256   2.358
45632W        W10859  19.593  23.990   4.947
45633W        W10860   7.973  43.039   4.236
45634W        W10861  21.585  18.233  13.208
45635W        W10862   4.814  22.108   4.504
45636W        W10863  14.548  20.915   3.758
45637W        W10864  27.912  15.695   1.858
45638W        W10865  32.140   9.994   3.953
45639W        W10866   4.345  26.458   0.835
45640W        W10867  11.783  23.480   4.700
45641W        W10868  26.306   9.865  11.638
45642W        W10869   4.317  27.624   1.797
45643W        W10870  44.163   2.323  12.816
45644W        W10871  13.754  38.585   2.591
45645W        W10872  28.086  33.553   1.040
45646W        W10873  35.365   2.930  10.866
45647W        W10874   9.653   7.938  13.063
45648W        W10875  13.047  16.616  11.513
45649W        W10876  29.436  43.925  11.340
45650W        W10877   9.446  17.389   1.311
45651W        W10878  43.243   9.707   3.877
45652W        W10879  25.694  13.170  12.890
45653W        W10880  11.659  21.197   1.475
45654W        W10881  27.526   3.048   0.765
45655W        W10882  31.426  12.883  13.969
45656W        W10883  10.822  25.034  12.865
45657W        W10884   6.949  22.303  11.547
45658W        W10885  22.424  22.122   0.251
45659W        W10886   3.465  16.342  11.219
45660W        W10887  19.011  16.648   4.073
45661W        W10888  13.767  12.746   2.180
45662W        W10889  33.377   8.345   4.873
45663W        W10890  13.366  13.771   4.435
45664W        W10891  44.442   3.513  12.402
45665W        W10892  18.777  43.479  11.125
45666W        W10893   8.267  22.085  11.012
45667W        W10894  27.401  36.418   1.913
45668W        W10895  10.917   4.819   2.339
45669W        W10896  29.527  12.687   2.909
45670W        W10897   7.916  36.563   0.306
45671W        W10898  37.148  35.034   2.114
45672W        W10899  41.865  19.575  14.102
45673W        W10900   3.716  44.831   5.010
45674W        W10901  29.629  34.388   0.833
45675W        W10902  16.375  42.091  13.003
45676W        W10903  34.442  33.110   3.715
45677W        W10904  37.247   0.094  11.975
45678W        W10905  32.914   8.300  13.912
45679W        W10906  37.249  10.184   1.017
45680W        W10907  33.261  11.151  11.581
45681W        W10908   5.328  11.464   1.759
45682W        W10909  26.087  19.270  13.927
45683W        W10910  18.132  28.610   4.277
45684W        W10911  37.753  12.679   4.993
45685W        W10912  10.572   3.273  13.974
45686W        W10913  21.157  39.582   4.887
45687W        W10914  18.150  36.047  14.157
45688W        W10915  20.369   0.547  12.314
45689W        W10916   9.923  18.556   3.149
45690W        W10917   0.804  31.611   4.232
45691W        W10918   8.878  15.279   0.444
45692W        W10919  29.469  21.999   4.777
45693W        W10920  28.064   3.382  12.353
45694W        W10921  37.301  33.029  13.078
45695W        W10922  43.425  35.017  14.674
45696W        W10923  33.495  30.676   0.352
45697W        W10924  42.823   5.333   4.098
45698W        W10925   5.502  24.018   0.857
45699W        W10926  18.252  13.779   1.884
45700W        W10927  20.064  44.370   2.316
45701W        W10928  42.772   6.865  14.888
45702W        W10929  27.269  35.480   0.434
45703W        W10930  31.553  27.204  12.942
45704W        W10931  25.464  40.351  11.461
45705W        W10932   9.069  33.591   4.407
45706W        W10933  21.386  22.251   0.106
45707W        W10934  18.081  40.422   1.354
45708W        W10935  25.957   3.389  13.059
45709W        W10936  12.820  20.072  13.355
45710W        W10937  13.828  36.951  14.223
45711W        W10938  42.958  15.370  12.861
45712W        W10939   1.778   1.229   3.132
45713W        W10940   4.359  37.863  10.464
45714W        W10941  37.959  20.387  12.027
45715W        W10942  36.425  11.073   2.827
45716W        W10943  42.672  38.629   3.660
45717W        W10944   1.277  15.757   3.734
45718W        W10945  40.667  24.419  14.926
45719W        W10946  34.114   0.097   1.878
45720W        W10947  35.160  19.605   3.329
45721W        W10948  21.900  18.585  13.020
45722W        W10949  13.133  22.464  11.977
45723W        W10950  40.037  17.036   3.280
45724W        W10951  10.253  39.765  11.612
45725W        W10952  22.437  40.381   2.712
45726W        W10953   7.067  28.790   2.762
45727W        W10954  14.675  20.254  11.628
45728W        W10955   6.246  10.430   0.753
45729W        W10956  43.787   8.253   0.331
45730W        W10957  15.798  35.625  11.939
45731W        W10958  31.511  24.162  12.573
45732W        W10959  19.352  16.747  12.974
45733W        W10960  33.344  15.680   0.046
45734W        W10961  10.542  37.041  14.977
45735W        W10962   6.073  15.876   1.899
45736W        W10963  12.634  15.689   0.236
45737W        W10964  22.785  15.698   1.344
45738W        W10965  11.781  36.633  13.028
45739W        W10966  29.100  16.677   2.298
45740W        W10967  32.821   3.953   1.663
45741W        W10968  16.811  40.347   3.876
45742W        W10969  38.305  36.129   3.187
45743W        W10970  44.439   3.009  12.455
45744W        W10971   6.909  38.122   1.876
45745W        W10972  20.159  14.585   2.138
45746W        W10973  17.904  30.071  11.176
45747W        W10974   9.705  40.925  10.600
45748W        W10975  19.964   3.641  14.565
45749W        W10976  42.838  28.034  12.707
45750W        W10977  29.395  42.605  11.529
45751W        W10978  19.210   1.027   4.715
45752W        W10979  25.119   2.870  12.492
45753W        W10980   4.745  13.034   2.639
45754W        W10981  12.589  20.009   3.243
45755W        W10982  21.007  10.477  13.936
45756W        W10983  18.655  22.000   1.213
45757W        W10984  35.003  32.215  13.604
45758W        W10985  18.168  30.740   2.802
45759W        W10986  14.951  26.941  13.581
45760W        W10987  19.561  38.525   1.260
45761W        W10988  31.883   7.368   3.145
45762W        W10989   4.436   3.750   1.895
45763W        W10990   0.731  42.554   0.831
45764W        W10991  25.049  35.126   1.464
45765W        W10992  20.733  37.186  11.951
45766W        W10993  39.467  16.671  11.852
45767W        W10994  28.717  27.550   1.559
45768W        W10995  10.229  17.862  11.639
45769W        W10996   0.903   2.959   4.156
45770W        W10997  27.007  43.537  12.035
45771W        W10998  43.960  43.938   1.321
45772W        W10999   9.618   9.726   3.732
45773W        W11000   1.345  24.555   0.675
45774W        W11001  35.066  34.561   3.569
45775W        W11002  38.785  17.163   1.270
45776W        W11003  31.651  44.352   0.361
45777W        W11004  13.152  11.690  13.253
45778W        W11005  32.688   3.285  10.843
45779W        W11006  40.893  18.153   4.504
45780W        W11007  12.181  40.133  10.990
45781W        W11008  10.510  31.151  13.260
45782W        W11009  23.091  33.816  13.083
45783W        W11010  15.850  41.026   4.062
45784W        W11011  25.879  22.809   1.290
45785W        W11012  25.160  15.997  11.551
45786W        W11013  23.851  39.219  10.449
45787W        W11014   9.141  19.693  13.914
45788W        W11015   2.672   5.746  13.798
45789W        W11016   2.646  13.395   1.750
45790W        W11017  33.403  44.131  10.029
45791W        W11018  19.727  11.325  11.020
45792W        W11019  25.533  27.641  14.472
45793W        W11020  21.692  22.634   1.871
45794W        W11021  15.396   7.195  12.868
45795W        W11022  21.084  12.262  11.806
45796W        W11023   6.486  16.741  12.366
45797W        W11024  38.570   5.189   0.066
45798W        W11025  30.678  13.647  12.510
45799W        W11026   9.425  23.755   1.041
45800W        W11027  38.763  11.828  13.560
45801W        W11028  12.695  33.915  13.967
45802W        W11029  28.296   4.813  10.889
45803W        W11030   7.323   1.821   4.153
45804W        W11031  10.364  42.801  13.593
45805W        W11032  43.542  27.848   4.100
45806W        W11033  37.904  44.884   0.334
45807W        W11034  17.385   5.262  12.444
45808W        W11035  38.363  34.394  12.864
45809W        W11036  40.510  24.491   4.678
45810W        W11037  44.950  22.413   2.659
45811W        W11038  21.474  30.209   2.513
45812W        W11039   7.289  37.482  10.663
45813W        W11040  21.675  34.084  10.709
45814W        W11041  10.184   2.975   4.705
45815W        W11042   3.887   9.025   0.775
45816W        W11043  26.505   2.338  11.217
45817W        W11044  11.368  17.011   4.796
45818W        W11045   1.157  21.242   1.724
45819W        W11046   5.133  39.462  12.159
45820W        W11047  10.854  14.366  14.372
45821W        W11048  35.361  35.032   4.847
45822W        W11049  19.306   4.427  10.562
45823W        W11050  21.178  30.523  10.006
45824W        W11051  15.792   9.787  11.623
45825W        W11052  37.531   6.201  13.725
45826W        W11053  31.964  32.281  10.701
45827W        W11054   5.153  14.629   0.688
45828W        W11055  21.291  23.195  11.855
45829W        W11056  33.261  21.241   1.717
45830W        W11057  19.358   4.921   1.221
45831W        W11058   8.331  43.983   1.650
45832W        W11059  11.703  11.689  13.443
45833W        W11060  17.429  24.122   2.485
45834W        W11061   1.556   3.486   4.670
45835W        W11062  10.750  39.304   2.134
45836W        W11063   8.604  23.167  13.621
45837W        W11064  38.739  14.354  12.091
45838W        W11065   1.844   6.830  10.889
45839W        W11066  42.714  32.601  10.542
45840W        W11067  41.074  43.364   1.308
45841W        W11068  17.310  40.795  12.073
45842W        W11069  44.077  44.981   1.066
45843W        W11070  42.314  19.829  14.022
45844W        W11071  38.508   8.849  13.558
45845W        W11072  37.114   7.212  14.409
45846W        W11073  14.132  14.340   0.326
45847W        W11074   7.782  18.052   4.222
45848W        W11075  24.308   2.535  13.125
45849W        W11076  14.161   7.672  13.303
45850W        W11077  41.954  37.703  13.360
45851W        W11078  42.562   0.231  14.479
45852W        W11079   8.320  42.304   3.332
45853W        W11080  25.169  10.903   3.260
45854W        W11081  18.259  24.814  13.858
45855W        W11082  29.634  14.677   4.876
45856W        W11083  37.513   8.671   0.302
45857W        W11084  10.583  23.505   9.805
45858W        W11085  35.008  38.218  11.437
45859W        W11086   6.548   7.623   4.254
45860W        W11087  12.328  16.554   3.118
45861W        W11088  34.607   3.241   4.236
45862W        W11089  23.446  16.300  11.016
45863W        W11090  24.120  16.468   0.463
45864W        W11091  10.514   7.704  13.803
45865W        W11092  31.589  33.417   1.221
45866W        W11093  24.562  37.601  12.072
45867W        W11094  23.611  30.700  11.603
45868W        W11095  21.701   6.267  11.553
45869W        W11096  23.496  39.821  12.105
45870W        W11097  40.324   8.387   0.331
45871W        W11098   0.886  38.406  14.851
45872W        W11099  26.127  40.094   4.528
45873W        W11100   1.871  25.117   4.127
45874W        W11101  13.233   0.548  12.937
45875W        W11102  22.966  12.175   4.464
45876W        W11103  10.280  31.589  13.099
45877W        W11104  36.414  23.244   0.455
45878W        W11105   9.405  24.192  11.522
45879W        W11106  25.430  17.529  12.471
45880W        W11107  33.089  14.579  13.454
45881W        W11108  24.733  30.284  14.101
45882W        W11109  40.990  24.232   4.099
45883W        W11110  38.060  37.535   3.710
45884W        W11111   8.776   0.209  12.520
45885W        W11112  43.772  25.741  12.001
45886W        W11113   1.445  43.571  11.655
45887W        W11114  38.727  10.211  13.703
45888W        W11115  31.513   3.632  12.007
45889W        W11116  27.950  12.741   4.102
45890W        W11117  20.274  28.936  11.021
45891W        W11118  32.589   9.370   0.830
45892W        W11119  36.360  26.709   0.255
45893W        W11120  15.749   4.830   1.781
45894W        W11121  29.219  40.768  12.667
45895W        W11122  41.474   4.789  11.579
45896W        W11123  20.824  26.384  14.526
45897W        W11124  28.420  26.002   4.121
45898W        W11125   8.629   1.451   1.372
45899W        W11126  25.466   3.700   0.933
45900W        W11127  30.202  34.596  10.377
45901W        W11128  16.189  27.616   2.702
45902W        W11129   1.824  19.356   5.035
45903W        W11130   4.464   0.503   0.305
45904W        W11131  12.169   1.106  12.492
45905W        W11132   9.548   2.753   2.943
45906W        W11133  10.556  42.317  12.974
45907W        W11134   8.700  43.035  10.695
45908W        W11135  39.154   4.839   1.555
45909W        W11136  11.252  41.462   0.626
45910W        W11137   0.852   7.925   4.725
45911W        W11138  23.296  17.302  12.054
45912W        W11139   8.862  17.271  12.047
45913W        W11140  42.509  42.665   4.105
45914W        W11141  13.218  36.244   0.886
45915W        W11142  37.583  25.932  11.175
45916W        W11143  28.758  13.149  14.493
45917W        W11144  36.509   2.795  12.823
45918W        W11145   4.951  20.721  10.318
45919W        W11146  27.533  29.018  14.943
45920W        W11147  14.102   8.161  12.031
45921W        W11148  43.228   7.702   0.850
45922W        W11149  40.917  17.520   3.251
45923W        W11150  29.622  21.772  12.470
45924W        W11151  37.446  21.505   4.954
45925W        W11152   1.781  14.449  12.954
45926W        W11153   1.571  34.213  11.508
45927W        W11154  39.870  23.959   1.528
45928W        W11155  21.668  31.517   4.581
45929W        W11156  18.466  13.349   0.636
45930W        W11157  27.461  13.722  13.493
45931W        W11158  29.880  31.836  12.017
45932W        W11159  34.934  33.552  10.697
45933W        W11160  21.537   1.525   9.848
45934W        W11161  44.799  26.689  12.999
45935W        W11162   4.021  16.673   4.983
45936W        W11163  41.571  29.081   3.621
45937W        W11164  35.618  38.296   4.645
45938W        W11165   4.043  40.887  11.620
45939W        W11166  11.343   0.395  10.701
45940W        W11167  16.695  43.253  11.300
45941W        W11168  19.209  39.246  14.044
45942W        W11169  20.056  33.494   4.459
45943W        W11170  14.345  40.831   0.822
45944W        W11171  34.782  30.627   2.336
45945W        W11172  24.632   3.448   4.986
45946W        W11173  14.668  12.739   2.160
45947W        W11174   0.417  22.053  13.387
45948W        W11175  33.528   4.438  11.625
45949W        W11176   4.654  38.780  11.887
45950W        W11177  19.078  30.544  13.442
45951W        W11178   7.231   8.188  12.939
45952W        W11179  11.219  17.974  13.475
45953W        W11180  17.124  27.892   0.860
45954W        W11181  15.222  19.852   0.936
45955W        W11182  43.659  37.551  11.118
45956W        W11183  21.752  30.192   0.962
45957W        W11184   9.326  39.771   1.231
45958W        W11185  30.480  16.624  13.986
45959W        W11186  29.163  36.093  14.041
45960W        W11187  33.872  22.616   2.205
45961W        W11188  44.150  18.581  10.729
45962W        W11189  22.507  34.549  13.092
45963W        W11190  13.079   1.889  11.984
45964W        W11191  42.830  26.042   0.432
45965W        W11192  23.724  34.412  13.696
45966W        W11193   6.849  27.713   2.570
45967W        W11194  34.024  32.676   2.586
45968W        W11195  27.194  19.645   0.248
45969W        W11196   8.005  17.175   3.103
45970W        W11197  43.827  40.105   3.312
45971W        W11198  31.650  10.759   2.764
45972W        W11199  24.159  18.430  12.462
45973W        W11200  27.257  12.730  11.076
45974W        W11201  44.697  19.849  12.471
45975W        W11202  21.598  19.671  12.223
45976W        W11203  37.930  39.576  12.528
45977W        W11204   1.210  31.643  10.512
45978W        W11205  12.827  40.939   0.003
45979W        W11206  33.630   7.127   3.310
45980W        W11207  27.711  18.444  12.087
45981W        W11208  28.558  41.219   1.193
45982W        W11209  27.177   0.268  11.089
45983W        W11210  39.553  33.940  14.105
45984W        W11211  22.142  18.130   1.511
45985W        W11212  11.745   7.376  12.595
45986W        W11213   4.446  41.870  12.542
45987W        W11214  15.758  26.295  14.490
45988W        W11215  34.223  27.484   0.391
45989W        W11216  37.830   5.142  14.408
45990W        W11217  23.011  38.559  12.035
45991W        W11218   5.457  23.925  11.351
45992W        W11219  17.804  29.518   2.622
45993W        W11220   8.770  17.221   3.660
45994W        W11221   6.747  14.668  13.046
45995W        W11222  34.728  41.021   4.317
45996W        W11223  28.609  22.132  11.694
45997W        W11224  11.221  14.579  11.391
45998W        W11225  13.263   7.985  11.962
45999W        W11226   8.767   6.513  11.529
46000W        W11227  35.338   1.309  13.506
46001W        W11228  37.591   7.115  14.263
46002W        W11229  40.618  22.724   3.663
46003W        W11230  34.992  18.774   3.330
46004W        W11231  16.614   3.918  13.327
46005W        W11232  43.021  35.062  13.365
46006W        W11233  15.852  27.599  11.187
46007W        W11234   3.683  36.273   4.077
46008W        W11235  13.074  35.038   0.077
46009W        W11236  40.561  11.684  13.793
46010W        W11237  27.576  36.826  11.517
46011W        W11238   1.308   1.744   0.356
46012W        W11239  21.460  21.581   2.295
46013W        W11240   0.210  44.575   2.160
46014W        W11241   0.478  35.885  11.536
46015W        W11242  40.786  21.124  14.013
46016W        W11243  34.404  21.163   3.704
46017W        W11244  14.483  14.722   2.845
46018W        W11245   3.759  24.794  12.831
46019W        W11246  14.074  21.801  13.937
46020W        W11247   1.415   0.901  14.367
46021W        W11248  32.607  34.920   4.223
46022W        W11249  36.817  42.030   1.223
46023W        W11250  35.292  23.673  13.135
46024W        W11251  40.733  38.321  12.089
46025W        W11252   7.655  24.301   2.678
46026W        W11253  30.066  23.576  14.827
46027W        W11254  40.831  12.580  11.153
46028W        W11255  29.467  28.763   3.243
46029W        W11256  34.913  16.033   4.654
46030W        W11257  38.462  31.944   3.709
46031W        W11258  11.268   1.831  11.923
46032W        W11259  14.806  32.244  10.682
46033W        W11260  22.184  11.054   0.030
46034W        W11261   5.722   8.618   4.594
46035W        W11262   7.270   9.568   1.959
46036W        W11263  21.518  11.194   3.303
46037W        W11264  12.369  43.420   3.089
46038W        W11265  41.553  42.512  11.554
46039W        W11266   4.692   8.296   1.749
46040W        W11267  19.174  39.209   2.512
46041W        W11268  17.578   3.905   3.164
46042W        W11269  22.277   8.385   3.150
46043W        W11270  27.399  14.807  12.167
46044W        W11271  32.843   5.420   1.836
46045W        W11272  26.761  36.431   1.331
46046W        W11273  12.262   8.661   4.226
46047W        W11274  34.769   6.418   1.290
46048W        W11275  34.288  35.497   3.599
46049W        W11276  20.318  19.512  12.108
46050W        W11277  11.457  21.599   4.266
46051W        W11278  32.703  24.163   4.633
46052W        W11279  44.334  16.566  12.136
46053W        W11280  39.245  37.512  11.906
46054W        W11281  35.327  14.607   1.298
46055W        W11282  24.715  21.879  11.407
46056W        W11283  10.698  32.943  14.927
46057W        W11284   9.350   5.579   1.985
46058W        W11285   4.570  39.970   1.318
46059W        W11286  29.996  29.315   1.288
46060W        W11287  16.828  36.438  13.890
46061W        W11288  21.630  19.143  12.016
46062W        W11289  17.179  17.210  14.220
46063W        W11290  26.867  43.449  11.546
46064W        W11291   1.609  44.192   0.135
46065W        W11292  36.971  10.577   2.309
46066W        W11293   2.339  36.382  11.611
46067W        W11294  41.399   2.812  12.597
46068W        W11295   6.169  41.114  11.141
46069W        W11296  32.377   8.251   1.942
46070W        W11297  11.661   0.677  12.194
46071W        W11298   9.951  19.687   3.705
46072W        W11299  30.328   8.564   4.467
46073W        W11300  23.526   8.342  11.687
46074W        W11301  26.682  25.056  13.061
46075W        W11302  23.008  42.047   3.199
46076W        W11303  39.477  23.147  14.347
46077W        W11304   0.624  36.109   4.897
46078W        W11305  22.432  25.110   1.325
46079W        W11306   3.807  12.844   1.256
46080W        W11307  35.329  13.894   1.359
46081W        W11308  15.499  26.184   3.282
46082W        W11309  39.446   8.846   4.170
46083W        W11310  11.571  19.144   2.842
46084W        W11311  10.122  24.574   1.829
46085W        W11312  18.919  36.104   1.432
46086W        W11313  41.060  36.034   2.932
46087W        W11314  13.524  27.363  14.860
46088W        W11315  39.121  30.560   9.930
46089W        W11316  27.481  44.111   3.193
46090W        W11317  22.358   6.384   1.715
46091W        W11318   1.841  29.318  13.825
46092W        W11319  40.406  38.893  10.972
46093W        W11320  12.179  27.580   0.931
46094W        W11321  31.673   6.977  11.230
46095W        W11322  29.312  20.438  11.116
46096W        W11323  15.720  20.118   0.849
46097W        W11324   5.554  22.146   2.704
46098W        W11325  15.053  22.230  12.099
46099W        W11326  12.370  22.132   3.279
46100W        W11327  18.363  18.112  14.975
46101W        W11328   8.752  34.876   1.179
46102W        W11329   0.753  37.042   4.967
46103W        W11330  24.096  32.993   1.004
46104W        W11331  21.961  28.156   0.757
46105W        W11332  41.112  27.560  14.061
46106W        W11333  26.577   0.309  12.382
46107W        W11334  44.424  40.698  13.048
46108W        W11335   2.295  29.871   4.961
46109W        W11336   5.643  14.606   3.563
46110W        W11337  26.463  44.488   2.824
46111W        W11338  12.649  10.238   2.310
46112W        W11339   9.218  41.658  13.655
46113W        W11340   0.319  27.482  14.844
46114W        W11341  26.116   5.648  11.643
46115W        W11342  15.781  16.275  10.689
46116W        W11343   3.904   9.010   4.501
46117W        W11344  10.708   5.218   0.983
46118W        W11345  31.104  25.403   4.921
46119W        W11346   6.399  44.752   1.792
46120W        W11347  37.478  40.478  13.888
46121W        W11348  39.404   4.210   2.473
46122W        W11349  18.044  11.674  11.168
46123W        W11350  35.328  39.900   2.307
46124W        W11351  19.308  13.062   2.819
46125W        W11352  38.366  15.347  11.510
46126W        W11353  17.199   6.848   3.454
46127W        W11354  12.316  35.197   4.983
46128W        W11355  43.815  37.005  12.822
46129W        W11356  36.844  25.605   4.156
46130W        W11357  26.580  17.346   0.793
46131W        W11358  31.654  43.587  11.128
46132W        W11359  35.167  19.542  11.426
46133W        W11360  11.306  40.995   1.834
46134W        W11361  10.794  21.287   2.347
46135W        W11362  27.172   3.125   1.166
46136W        W11363  35.394  39.083  12.853
46137W        W11364  39.397  32.450  10.490
46138W        W11365  13.090  31.443  12.809
46139W        W11366   7.770   3.437   1.238
46140W        W11367  33.184  18.653   1.732
46141W        W11368  41.551  30.061   2.413
46142W        W11369  37.927  14.631   3.257
46143W        W11370  34.102  30.405   4.169
46144W        W11371  28.482  15.782  13.769
46145W        W11372  24.508  25.522   2.169
46146W        W11373  17.801   0.606   3.906
46147W        W11374  31.550   9.722  13.907
46148W        W11375  37.141  14.750  11.758
46149W        W11376  19.043   0.456   4.460
46150W        W11377  27.421  11.637   1.793
46151W        W11378   3.031  41.730   3.129
46152W        W11379  12.788  14.100  11.418
46153W        W11380  31.113  28.987  12.658
46154W        W11381  32.699  15.680  12.990
46155W        W11382  37.400  28.644  11.144
46156W        W11383  11.347  17.088   4.208
46157W        W11384  15.377   6.219   3.293
46158W        W11385  37.414  31.228  13.016
46159W        W11386   4.470  16.678   3.212
46160W        W11387  33.936  13.135  10.346
46161W        W11388  32.757  23.574  10.864
46162W        W11389  13.192  43.784   0.422
46163W        W11390  22.280  15.332  13.500
46164W        W11391  22.458  35.531   3.173
46165W        W11392   2.954  42.535  12.003
46166W        W11393  24.432  22.149  13.404
46167W        W11394   1.069  12.201  13.886
46168W        W11395   0.735  24.708   1.027
46169W        W11396   0.583  40.444   2.268
46170W        W11397  22.575   9.672   4.263
46171W        W11398  11.238   8.354   0.058
46172W        W11399   7.889  32.838  13.495
46173W        W11400  41.878  13.105  12.430
46174W        W11401  13.097  27.076   2.972
46175W        W11402   0.295  39.519  10.672
46176W        W11403  25.790  37.934   2.193
46177W        W11404  26.964  16.266   3.553
46178W        W11405   9.186  16.870  12.586
46179W        W11406  15.812  16.649  10.118
46180W        W11407  10.239  28.137   3.704
46181W        W11408  38.409  38.455  12.149
46182W        W11409  22.736   5.616  13.795
46183W        W11410  28.821  31.041   0.777
46184W        W11411  37.377  17.730   3.641
46185W        W11412  13.711  36.368  12.413
46186W        W11413   8.102   0.296   1.496
46187W        W11414  39.096  11.253   1.822
46188W        W11415  37.465   9.023  10.668
46189W        W11416  12.972  12.846   2.455
46190W        W11417  21.204  13.669  13.023
46191W        W11418   8.394  36.898   3.781
46192W        W11419  24.404  17.520  12.950
46193W        W11420  15.138  21.302   2.835
46194W        W11421  35.415  15.243  10.781
46195W        W11422  42.257   4.330   2.237
46196W        W11423  10.714  19.658   4.520
46197W        W11424  30.351  38.092   2.719
46198W        W11425   3.860   2.763   3.636
46199W        W11426  22.975   5.380   3.804
46200W        W11427  41.551   3.522   1.207
46201W        W11428   1.318  23.247   4.476
46202W        W11429   5.036  34.766   0.406
46203W        W11430  12.309  36.400   0.968
46204W        W11431  22.221   6.941   2.892
46205W        W11432  20.472  40.070   2.915
46206W        W11433  26.194  38.549   2.739
46207W        W11434  29.990  10.890   0.820
46208W        W11435  19.110  36.968  12.053
46209W        W11436  14.610   7.401  13.369
46210W        W11437   4.189  36.067  11.072
46211W        W11438  38.567  21.315   0.886
46212W        W11439  23.766   7.096  10.975
46213W        W11440   4.076  10.440  12.954
46214W        W11441  14.588  13.228   1.902
46215W        W11442   8.855  29.079  14.991
46216W        W11443  17.345  16.891   1.000
46217W        W11444  34.412   2.433   2.744
46218W        W11445   3.546  33.165   2.384
46219W        W11446  22.230  41.352  14.321
46220W        W11447  37.012  25.099   4.138
46221W        W11448  39.128   9.774   2.871
46222W        W11449   3.330  19.841  12.840
46223W        W11450   6.278  18.524   4.734
46224W        W11451   8.652  42.688  12.335
46225W        W11452  28.321   5.778  12.042
46226W        W11453  31.448  14.384  10.689
46227W        W11454  30.090  31.920  13.430
46228W        W11455   7.927  17.519  13.398
46229W        W11456  39.289  41.453   2.184
46230W        W11457  36.659  29.599   4.918
46231W        W11458  27.498   7.828   1.699
46232W        W11459  16.020  42.849   1.003
46233W        W11460   1.892   0.794  11.857
46234W        W11461  31.015  18.017   0.645
46235W        W11462  20.131  36.210  14.796
46236W        W11463  42.575  42.219  11.146
46237W        W11464  15.117   8.997  10.482
46238W        W11465  42.495  24.609   1.617
46239W        W11466  42.131  24.716  12.137
46240W        W11467  25.378  28.568   1.899
46241W        W11468  10.727  28.085   4.230
46242W        W11469   3.745  22.240   1.540
46243W        W11470  11.228  36.591  13.580
46244W        W11471  13.190  19.630   2.109
46245W        W11472  10.419  16.605  14.395
46246W        W11473   6.401  30.347  13.858
46247W        W11474  41.929  10.004   0.867
46248W        W11475   1.645  20.455  12.050
46249W        W11476  34.446  10.141   1.744
46250W        W11477  40.150  43.713   4.149
46251W        W11478  40.998  24.521   4.542
46252W        W11479   5.938  43.021   0.808
46253W        W11480  18.231  30.661   0.379
46254W        W11481  22.015  13.341  14.377
46255W        W11482  12.655  10.147   0.418
46256W        W11483  39.860  27.354  11.157
46257W        W11484  43.832  33.951   2.858
46258W        W11485  32.043  42.498   3.024
46259W        W11486  25.519  27.417  14.926
46260W        W11487  30.012  31.886  11.145
46261W        W11488   2.087  17.789   1.247
46262W        W11489  35.538  17.100   4.489
46263W        W11490   7.297  18.727   0.937
46264W        W11491   4.937  17.820   3.237
46265W        W11492  16.057   1.622  12.555
46266W        W11493  41.460  13.161  11.447
46267W        W11494  30.320  31.167   2.531
46268W        W11495   9.018  33.336   2.334
46269W        W11496  25.140  42.550   0.791
46270W        W11497   8.436  44.298  12.099
46271W        W11498   3.532  25.469   2.632
46272W        W11499   5.233  10.943  13.510
46273W        W11500  44.554   0.024   0.831
46274W        W11501   3.287  17.501  11.882
46275W        W11502  42.084  44.317  11.662
46276W        W11503   2.934  43.994   4.609
46277W        W11504   9.111   9.947  14.628
46278W        W11505  17.618  16.622  12.625
46279W        W11506  41.619  40.516   0.928
46280W        W11507  29.602  40.598   4.200
46281W        W11508  18.181  32.683   3.293
46282W        W11509   4.858  31.879  11.970
46283W        W11510  18.626  22.107  12.477
46284W        W11511   8.780  18.235   2.761
46285W        W11512  41.549   4.442  12.843
46286W        W11513  32.546  12.344   2.274
46287W        W11514  42.455  32.495   1.264
46288W        W11515  24.658  33.470   4.856
46289W        W11516  12.267  16.403   1.283
46290W        W11517  20.524  32.161  11.155
46291W        W11518   8.396  38.896   3.240
46292W        W11519  25.167  43.650  12.626
46293W        W11520  36.076  26.183   3.299
46294W        W11521  35.064  34.078  10.672
46295W        W11522   6.551   7.382  11.203
46296W        W11523   2.009  37.436  10.727
46297W        W11524  31.201  39.882   5.026
46298W        W11525  15.164  44.489  10.091
46299W        W11526  36.013  23.286  12.566
46300W        W11527  17.803  37.214  12.116
46301W        W11528  25.478   9.874   1.224
46302W        W11529  13.616  32.042  14.726
46303W        W11530   1.197  26.470  12.992
46304W        W11531  20.181  23.167  11.513
46305W        W11532  39.836  13.695  14.511
46306W        W11533   2.053  22.249  13.928
46307W        W11534   4.275  42.979   2.409
46308W        W11535  24.929  43.668   0.208
46309W        W11536  16.963  30.511   2.654
46310W        W11537   1.960   1.262   3.635
46311W        W11538  17.354   8.234  11.604
46312W        W11539   9.196  37.958   4.391
46313W        W11540   1.500  10.614   1.789
46314W        W11541  37.555  40.886  11.462
46315W        W11542  34.852   2.822   4.791
46316W        W11543  29.181  38.740  12.023
46317W        W11544  15.570  22.976   2.775
46318W        W11545   7.960   6.105  13.497
46319W        W11546  25.258   7.443   4.937
46320W        W11547  36.842  15.302   0.912
46321W        W11548   0.802  15.670  11.938
46322W        W11549  33.603   6.119  14.264
46323W        W11550  16.768   5.301   3.771
46324W        W11551  23.755  41.529  10.400
46325W        W11552  39.280  15.279  13.933
46326W        W11553   9.385  18.484  12.405
46327W        W11554  27.598  41.886   0.860
46328W        W11555  26.734  22.153  12.065
46329W        W11556  14.651  15.787  10.005
46330W        W11557  35.178  30.003   1.931
46331W        W11558  40.414  16.409  11.837
46332W        W11559  26.535  38.934   1.353
46333W        W11560  26.743  12.893  12.104
46334W        W11561  43.215  33.526   4.994
46335W        W11562  32.830  10.436   1.733
46336W        W11563  31.510  28.660  13.551
46337W        W11564  19.815  33.042   4.579
46338W        W11565   0.200  14.283  11.572
46339W        W11566  36.943  34.622  10.729
46340W        W11567  43.529   5.321   2.646
46341W        W11568  31.044  16.870   1.846
46342W        W11569  15.740  40.734   1.283
46343W        W11570  33.593  39.938   0.178
46344W        W11571   4.703  14.677  14.338
46345W        W11572  13.391   5.444   2.004
46346W        W11573  41.314   2.811  14.382
46347W        W11574   8.762  36.931  12.385
46348W        W11575  18.007  16.103   1.302
46349W        W11576  25.757  11.950  14.307
46350W        W11577  20.109  25.708   2.218
46351W        W11578  18.632  25.225  10.621
46352W        W11579  42.614  27.655   0.693
46353W        W11580  25.471  43.377   2.227
46354W        W11581   5.208  11.307   4.589
46355W        W11582   5.798  22.487   2.358
46356W        W11583  20.626  29.369  10.432
46357W        W11584  11.802  20.757  13.927
46358W        W11585  13.341   4.362  14.577
46359W        W11586  20.559   3.441   4.076
46360W        W11587  40.967   8.022  13.299
46361W        W11588   3.628  26.582  13.155
46362W        W11589  35.903  21.336   4.090
46363W        W11590  13.366  35.029   4.541
46364W        W11591  40.070  37.460   1.504
46365W        W11592   7.415  44.747   2.859
46366W        W11593  15.972  33.085   3.682
46367W        W11594  34.927  20.729   3.643
46368W        W11595  12.277  29.002   3.827
46369W        W11596  41.433  18.498  11.533
46370W        W11597   2.267   2.801   3.708
46371W        W11598   8.705  16.839  14.011
46372W        W11599  44.792  28.159  13.010
46373W        W11600  43.186  30.896   4.396
46374W        W11601  27.932  12.243  13.914
46375W        W11602  43.751  34.670  12.925
46376W        W11603  29.117  14.864  11.517
46377W        W11604  44.761   4.180   4.460
46378W        W11605  10.045  37.555  10.309
46379W        W11606  42.011   1.223   1.881
46380W        W11607  28.955   5.710  14.293
46381W        W11608  27.727  20.208  14.036
46382W        W11609   6.165  39.072   4.165
46383W        W11610   7.119  33.414   0.434
46384W        W11611   8.822  41.887  14.088
46385W        W11612  31.939   6.717   0.459
46386W        W11613  14.064  37.305   1.372
46387W        W11614  38.151  18.252  13.913
46388W        W11615  24.539  32.513  10.835
46389W        W11616  24.103  22.543  10.910
46390W        W11617   7.740  33.829  13.353
46391W        W11618  10.065   2.456  14.892
46392W        W11619   2.566  20.799  11.106
46393W        W11620  33.845  35.989   3.256
46394W        W11621  32.188  12.867  13.370
46395W        W11622   7.076  27.637   1.710
46396W        W11623  14.134  17.544  13.564
46397W        W11624  22.862  21.539  13.132
46398W        W11625  14.592   2.681  13.433
46399W        W11626  29.011  20.741   0.904
46400W        W11627  10.660  37.847   2.755
46401W        W11628  21.382  39.292   0.326
46402W        W11629  40.833   0.508   4.736
46403W        W11630  12.850  20.781   3.672
46404W        W11631   3.808  29.621   2.860
46405W        W11632  27.694  16.164   0.594
46406W        W11633   9.904   4.276  12.149
46407W        W11634  19.951  14.563  14.328
46408W        W11635   3.590   3.409  10.938
46409W        W11636  28.920  34.674  13.763
46410W        W11637   9.454  11.258  13.394
46411W        W11638  37.049  15.318  13.359
46412W        W11639  25.599   0.443  12.915
46413W        W11640  31.526  23.585   3.131
46414W        W11641  35.991  26.000   4.595
46415W        W11642  20.407   7.959  14.084
46416W        W11643  40.921  29.997   3.495
46417W        W11644  25.181  14.250  13.343
46418W        W11645   3.370  13.316   4.450
46419W        W11646  35.831  16.509  11.624
46420W        W11647   3.956  30.912   2.674
46421W        W11648   6.363  39.168  10.484
46422W        W11649  33.082  37.342  12.639
46423W        W11650  11.179   4.741  12.588
46424W        W11651  12.327   2.357   2.424
46425W        W11652   1.248   3.905   1.339
46426W        W11653  29.543  29.205  13.586
46427W        W11654  11.139  12.084  13.843
46428W        W11655  27.705  26.588  10.207
46429W        W11656  18.799   5.094   0.478
46430W        W11657  41.081   9.221  11.936
46431W        W11658   2.182  30.656  11.543
46432W        W11659  30.382  36.517  13.987
46433W        W11660  15.423  16.594  12.028
46434W        W11661  22.903  19.170  14.504
46435W        W11662  12.218   2.166  14.259
46436W        W11663  27.125   1.196   0.917
46437W        W11664  11.738  32.356   3.089
46438W        W11665  36.607  18.766   3.799
46439W        W11666  29.849  37.347   2.695
46440W        W11667  26.137   7.694   3.781
46441W        W11668  11.051  41.137   3.330
46442W        W11669   5.334  25.516   0.939
46443W        W11670  22.220  17.135  13.221
46444W        W11671  25.528  12.701  11.181
46445W        W11672  36.635   5.189  13.597
46446W        W11673  43.226  30.983  12.065
46447W        W11674  35.999  27.738  13.355
46448W        W11675   3.335  16.729   3.753
46449W        W11676   8.150  17.685   2.524
46450W        W11677   0.704   2.340   3.299
46451W        W11678  37.046  21.674   1.007
46452W        W11679  28.471  21.919   3.516
46453W        W11680  31.610  40.323  11.517
46454W        W11681  16.040  32.686  12.421
46455W        W11682   2.867  44.295  13.352
46456W        W11683  27.631  22.758  11.014
46457W        W11684   9.733   1.048  14.812
46458W        W11685  24.635  15.626  10.508
46459W        W11686  27.005  44.425   0.316
46460W        W11687   8.729   0.275   3.794
46461W        W11688  18.827   4.333  13.662
46462W        W11689  18.080  24.595   4.820
46463W        W11690  41.987  10.086  10.265
46464W        W11691  27.562  21.757  13.290
46465W        W11692   6.908  19.343  11.659
46466W        W11693   0.981  43.011   0.923
46467W        W11694  28.723  10.190   3.860
46468W        W11695  20.691  35.526   1.312
46469W        W11696  18.571  38.196  13.906
46470W        W11697  25.704  43.333  12.405
46471W        W11698  38.230  34.464   2.777
46472W        W11699  14.210  27.210   4.733
46473W        W11700   8.357   0.148   0.514
46474W        W11701  35.932  18.949  12.662
46475W        W11702  26.937  40.821   0.151
46476W        W11703  35.756  25.132   1.267
46477W        W11704  38.299  23.236   4.049
46478W        W11705   4.679  11.098   4.675
46479W        W11706  28.421   2.487  10.720
46480W        W11707  18.003  26.304  11.087
46481W        W11708  28.323   9.770   3.184
46482W        W11709  35.390  31.110   2.614
46483W        W11710  12.747  39.132   0.829
46484W        W11711  31.005  40.294   0.611
46485W        W11712  10.888   9.616  12.007
46486W        W11713   3.822  12.759   0.340
46487W        W11714  10.724  21.216  10.649
46488W        W11715  43.240   4.510  10.354
46489W        W11716  25.235  12.558  13.838
46490W        W11717  27.753   0.207  11.912
46491W        W11718   6.738  14.086   3.261
46492W        W11719  43.414  27.957  11.464
46493W        W11720  25.035  39.033  13.968
46494W        W11721  25.208   0.370   3.201
46495W        W11722  24.003   7.707   1.706
46496W        W11723  27.754  16.989  10.636
46497W        W11724   1.742   7.420  14.090
46498W        W11725  11.965   4.125   1.649
46499W        W11726  23.783  37.499  13.660
46500W        W11727  42.214   9.211  14.008
46501W        W11728  14.311  24.942   1.426
46502W        W11729  19.469  10.742  14.374
46503W        W11730   9.901   4.396   4.304
46504W        W11731  15.269  22.499   0.229
46505W        W11732  43.763  10.290   3.252
46506W        W11733  27.033  37.104  14.872
46507W        W11734   7.805  41.548   3.272
46508W        W11735  40.067  22.779  14.882
46509W        W11736  37.505  34.995   1.040
46510W        W11737  28.447  35.039   2.801
46511W        W11738  18.872  39.571   3.255
46512W        W11739  18.257  35.577   3.720
46513W        W11740  43.528   5.801   2.477
46514W        W11741  29.894   8.059   1.896
46515W        W11742  12.919  10.558   0.296
46516W        W11743  28.032  35.296   1.874
46517W        W11744  29.672  22.244   3.398
46518W        W11745  19.713  23.561  10.677
46519W        W11746   4.248  17.906   3.773
46520W        W11747   2.321   3.973  12.324
46521W        W11748  18.606  11.523  10.305
46522W        W11749  38.391  13.303   4.098
46523W        W11750   9.719   3.973   3.080
46524W        W11751  16.597  27.106   3.165
46525W        W11752   4.322  37.566  11.856
46526W        W11753  42.896  23.175   0.529
46527W        W11754  33.656  43.960  13.117
46528W        W11755  32.621  14.063   3.221
46529W        W11756  26.971  19.421  13.796
46530W        W11757   6.762   4.896   2.835
46531W        W11758  14.353  32.378  10.341
46532W        W11759  32.074   8.470  12.931
46533W        W11760  15.781   6.359  14.092
46534W        W11761  19.619  30.078  11.491
46535W        W11762  33.063  24.444   2.319
46536W        W11763   0.448  28.295   0.889
46537W        W11764  15.190  30.178  13.901
46538W        W11765  39.408  23.820  12.064
46539W        W11766  44.904   7.079  14.068
46540W        W11767  14.843  22.510   4.804
46541W        W11768  37.517  14.725  12.156
46542W        W11769  32.649   5.533  12.517
46543W        W11770  31.512  37.103   3.093
46544W        W11771  36.681  41.776  12.222
46545W        W11772  18.799  43.167  12.344
46546W        W11773  37.808  19.111  13.858
46547W        W11774   9.996  33.197   5.125
46548W        W11775  11.276  38.428   2.728
46549W        W11776  11.176  23.415  12.527
46550W        W11777  26.186  37.483   9.996
46551W        W11778  30.011  21.090  14.470
46552W        W11779  36.313   8.684  11.121
46553W        W11780  28.189  12.505   3.656
46554W        W11781  21.685  17.329   4.131
46555W        W11782  34.943  28.196   1.573
46556W        W11783  44.262  10.409  12.106
46557W        W11784  31.897  15.662   4.982
46558W        W11785   7.633  16.552   0.422
46559W        W11786  24.052  39.934  12.432
46560W        W11787  34.515   5.911   4.885
46561W        W11788   9.215   3.455   4.528
46562W        W11789  28.907  30.328   1.862
46563W        W11790  16.192  11.215   3.615
46564W        W11791  16.916  44.498  14.759
46565W        W11792  31.231  40.787   1.375
46566W        W11793  16.640  31.621  11.532
46567W        W11794  23.388  17.612   1.098
46568W        W11795  19.746   8.272   4.435
46569W        W11796  12.109  34.430   3.911
46570W        W11797  31.504  10.416  10.758
46571W        W11798   6.492  28.898   0.249
46572W        W11799  21.118  18.192  13.406
46573W        W11800  36.690  21.470   4.200
46574W        W11801  24.453  32.071  14.731
46575W        W11802  23.583  37.427   3.137
46576W        W11803  13.760  43.327  14.934
46577W        W11804   9.805  13.696  14.750
46578W        W11805  17.844  12.131   0.779
46579W        W11806  18.301  34.112  11.849
46580W        W11807   6.384  33.671  13.450
46581W        W11808  18.234  40.927   4.583
46582W        W11809   0.402  25.917   1.659
46583W        W11810   1.327  21.887   0.931
46584W        W11811  42.697  30.026   4.525
46585W        W11812  44.160  17.907   4.130
46586W        W11813  31.718  26.448   0.334
46587W        W11814  21.274  19.316   1.938
46588W        W11815  28.888  36.335  14.423
46589W        W11816  20.041  28.942   1.793
46590W        W11817  18.860  43.510  14.516
46591W        W11818  13.102  10.532   4.205
46592W        W11819   1.410  23.211  11.670
46593W        W11820   4.728  27.697  14.019
46594W        W11821  19.030   0.630  11.584
46595W        W11822  44.328  11.686   1.385
46596W        W11823  42.326  38.410   1.811
46597W        W11824  38.830   4.669   4.223
46598W        W11825  23.783  28.119  12.748
46599W        W11826  43.268  18.628  13.690
46600W        W11827  29.586  31.847  12.918
46601W        W11828   8.268  39.124  10.671
46602W        W11829  17.580  21.732   3.669
46603W        W11830   8.120  28.499  12.940
46604W        W11831  10.857   8.682   3.360
46605W        W11832   2.707  40.930   4.679
46606W        W11833  22.877  43.347  13.857
46607W        W11834   5.757  10.357  11.822
46608W        W11835   8.698  15.681   0.754
46609W        W11836   8.824  20.610  13.971
46610W        W11837  43.634  18.873   2.602
46611W        W11838  39.965  37.378   0.228
46612W        W11839  42.757  26.483  14.516
46613W        W11840  10.305  35.703   2.779
46614W        W11841  35.610  30.555   1.381
46615W        W11842  24.440   0.948   1.724
46616W        W11843  25.661  35.878   2.404
46617W        W11844  36.378  42.252   4.084
46618W        W11845   9.788  23.212   2.657
46619W        W11846  38.426  12.893   0.732
46620W        W11847  14.408  33.862  10.383
46621W        W11848   4.748  29.864   0.494
46622W        W11849   2.888  43.417   0.387
46623W        W11850  19.712  29.197  10.307
46624W        W11851  31.909  12.757  14.051
46625W        W11852  27.200  15.183   0.188
46626W        W11853  30.154  13.217  14.307
46627W        W11854   5.822  11.052   0.051
46628W        W11855  26.375  34.111   0.464
46629W        W11856  22.780   5.907  13.366
46630W        W11857  23.093  44.455   9.816
46631W        W11858  40.909  17.085  13.945
46632W        W11859  32.233  31.129   4.642
46633W        W11860   1.951  29.104   0.265
46634W        W11861  18.285   2.304   1.252
46635W        W11862   1.490  22.821  12.519
46636W        W11863   1.771  27.999  13.550
46637W        W11864  14.148  14.298   1.240
46638W        W11865  36.589   1.590   2.775
46639W        W11866  22.667  25.118  14.500
46640W        W11867  23.048  13.111  12.945
46641W        W11868  15.394  31.892   0.686
46642W        W11869  17.331  30.924   0.425
46643W        W11870  22.186  11.828   0.369
46644W        W11871   7.935  20.672  13.765
46645W        W11872  43.608  23.954   4.175
46646W        W11873  22.767  13.784  11.659
46647W        W11874  24.090  36.363   0.266
46648W        W11875  17.802  28.454   3.863
46649W        W11876   1.822  21.944   3.293
46650W        W11877   7.643  42.276  10.749
46651W        W11878  33.657  15.236   3.609
46652W        W11879  18.917  19.756  13.872
46653W        W11880  13.527  26.659   0.769
46654W        W11881   4.966  33.644  14.567
46655W        W11882  36.971  17.574   0.346
46656W        W11883  40.858  14.218   1.760
46657W        W11884  17.472   2.719   1.136
46658W        W11885   2.286  24.313   4.595
46659W        W11886  39.222  32.126   4.435
46660W        W11887   3.467  23.620  11.108
46661W        W11888  11.315  19.812  12.017
46662W        W11889   7.367   9.274   3.064
46663W        W11890  35.577  17.935   3.525
46664W        W11891  39.811  10.245   2.434
46665W        W11892  12.357  42.392   1.229
46666W        W11893   9.414   9.048   1.447
46667W        W11894  31.481  10.179   3.419
46668W        W11895  19.541   0.614   0.511
46669W        W11896   1.008  24.953   3.256
46670W        W11897  22.147  16.507  10.626
46671W        W11898  37.520   2.182  11.129
46672W        W11899   3.149   8.416  11.143
46673W        W11900   2.929  42.751  13.044
46674W        W11901  37.298  18.380   1.379
46675W        W11902  10.750  24.863   2.861
46676W        W11903  16.428  15.142  14.795
46677W        W11904  40.622  18.210  11.770
46678W        W11905   7.842  14.733   3.797
46679W        W11906  42.159   9.253  14.905
46680W        W11907  19.663  39.937   4.123
46681W        W11908  20.608  43.251  10.931
46682W        W11909  17.382  44.366  12.476
46683W        W11910  16.500  23.547  12.934
46684W        W11911  12.429  10.481  12.934
46685W        W11912   0.084  37.956   0.526
46686W        W11913  14.336  35.992   2.121
46687W        W11914  36.829  29.491   4.140
46688W        W11915  34.788  40.960  12.484
46689W        W11916  10.716   2.965   4.630
46690W        W11917  30.614   3.120  14.757
46691W        W11918  23.147  20.822  12.617
46692W        W11919  33.086   7.557  10.665
46693W        W11920   5.478  25.210   5.115
46694W        W11921  43.148  27.082   9.541
46695W        W11922   1.484  31.034   0.364
46696W        W11923  15.250  15.642  12.962
46697W        W11924  30.448  14.406  12.995
46698W        W11925   7.760  18.742   0.516
46699W        W11926  11.229  30.107   1.467
46700W        W11927  10.161  41.849   4.611
46701W        W11928  14.892  33.668  14.086
46702W        W11929  33.110  19.672  14.529
46703W        W11930  37.943  32.636   3.364
46704W        W11931  39.527  34.901  10.088
46705W        W11932  43.321  25.171   1.557
46706W        W11933  29.711   0.850  14.418
46707W        W11934  29.690  23.583   2.910
46708W        W11935  42.511  34.234   4.339
46709W        W11936  17.623  40.467   1.597
46710W        W11937  30.340  19.972  12.941
46711W        W11938  18.748  10.680   1.188
46712W        W11939  18.207  24.967  12.537
46713W        W11940   9.985  16.348  10.919
46714W        W11941  21.223  27.036  12.948
46715W        W11942  35.833  12.307   2.334
46716W        W11943   5.977   7.596  13.536
46717W        W11944   2.470  41.788   1.536
46718W        W11945  41.535  31.565   3.600
46719W        W11946  12.247  20.472   2.123
46720W        W11947   0.705   6.838   0.911
46721W        W11948   7.158  38.496  14.780
46722W        W11949  15.635   2.203  12.300
46723W        W11950   6.420  10.130  12.570
46724W        W11951  38.566   4.351  12.064
46725W        W11952  42.500   1.145  11.147
46726W        W11953  32.278  17.991  13.344
46727W        W11954  34.977  31.153   2.935
46728W        W11955   6.703   8.700  12.121
46729W        W11956  19.221  42.469  12.852
46730W        W11957  13.621   5.471   3.229
46731W        W11958  17.624  13.643   2.872
46732W        W11959  10.423  41.414  11.543
46733W        W11960  20.797   5.426  13.043
46734W        W11961  35.234  26.648  11.863
46735W        W11962  13.558  38.507  11.070
46736W        W11963  29.456  10.114   0.810
46737W        W11964  21.815  16.629  13.966
46738W        W11965  38.517  41.936  13.804
46739W        W11966  36.963  32.840   4.768
46740W        W11967  11.161  20.682  13.268
46741W        W11968   6.925  14.747   2.982
46742W        W11969   1.273   1.112  11.242
46743W        W11970   6.474  27.497   4.941
46744W        W11971  17.784  22.179   1.749
46745W        W11972  17.348   5.680   2.916
46746W        W11973  23.003  42.157  12.819
46747W        W11974   5.585  12.584   2.383
46748W        W11975  23.834  22.113   4.120
46749W        W11976  38.019  27.931   0.742
46750W        W11977  14.392  33.168   3.188
46751W        W11978  17.092  43.453   3.879
46752W        W11979  37.860   5.366   0.311
46753W        W11980  18.743  37.048  11.103
46754W        W11981   7.765  26.266  12.901
46755W        W11982  42.579  27.981   0.309
46756W        W11983  15.388  14.373   0.854
46757W        W11984  33.080  33.198   3.082
46758W        W11985  22.573  37.002   2.666
46759W        W11986  35.282  32.631   2.189
46760W        W11987  32.363  31.685  12.920
46761W        W11988  44.634   9.344   3.240
46762W        W11989  31.607  16.444  12.936
46763W        W11990  23.031  33.844  10.580
46764W        W11991  15.819  15.083  11.555
46765W        W11992  35.738  29.098   3.736
46766W        W11993  30.788   0.668  12.108
46767W        W11994   2.703  42.839   4.580
46768W        W11995  11.981  27.142   1.173
46769W        W11996  12.695  21.773  11.306
46770W        W11997  36.621  34.541   0.829
46771W        W11998   9.730  24.341   2.218
46772W        W11999  22.751   3.925  12.040
46773W        W12000  25.912  19.148   2.728
46774W        W12001  11.765  43.113  12.277
46775W        W12002  42.411   6.272  12.453
46776W        W12003  43.258  16.894  11.040
46777W        W12004  38.638  13.631  13.272
46778W        W12005  44.890  42.018  13.095
46779W        W12006   6.004  44.981   3.165
46780W        W12007   6.469  20.460  11.230
46781W        W12008  27.145   8.235   3.736
46782W        W12009   0.987  40.044  11.016
46783W        W12010  12.431   7.923  12.560
46784W        W12011   7.886   6.708  12.529
46785W        W12012  43.079   6.805   4.955
46786W        W12013  27.149  26.248  13.459
46787W        W12014   1.450  36.214   1.431
46788W        W12015   1.790   5.806   2.638
46789W        W12016  18.959  16.360  14.335
46790W        W12017  42.133  44.533  13.502
46791W        W12018  37.039  25.580   0.167
46792W        W12019  24.030  31.160   2.803
46793W        W12020  34.636  37.958   3.658
46794W        W12021   8.938  17.043   4.947
46795W        W12022  31.645   3.187   0.501
46796W        W12023  25.510  16.766  13.623
46797W        W12024   2.270  27.546   9.823
46798W        W12025   7.802  32.608  10.680
46799W        W12026  38.881  15.238  12.843
46800W        W12027   1.308  29.594   0.402
46801W        W12028   2.531   8.458  12.314
46802W        W12029  41.763  20.527  14.337
46803W        W12030  19.744  25.733   3.325
46804W        W12031  10.356  11.541  12.918
46805W        W12032   5.840   2.698  14.961
46806W        W12033  36.953  37.358  13.791
46807W        W12034  39.600  44.394  13.386
46808W        W12035  13.350  44.842   1.812
46809W        W12036   9.449  22.201   4.496
46810W        W12037  36.720   6.337   9.995
46811W        W12038  27.413  18.507  10.670
46812W        W12039   7.225  10.791  10.660
46813W        W12040  21.749  18.134   1.148
46814W        W12041   9.443   5.265   3.828
46815W        W12042  36.769  21.719   2.205
46816W        W12043  11.353  41.465   2.075
46817W        W12044  15.814  32.341   3.247
46818W        W12045  24.943  40.338   4.236
46819W        W12046  42.929  16.745   2.699
46820W        W12047  26.957  16.257  12.053
46821W        W12048  40.249  18.782   3.571
46822W        W12049  29.945  10.601   5.055
46823W        W12050  36.986  34.541  12.505
46824W        W12051  44.358  40.703   3.616
46825W        W12052  43.633   6.396   0.921
46826W        W12053  42.577  25.631   4.962
46827W        W12054  33.993  32.523  13.716
46828W        W12055  31.158  11.781   4.571
46829W        W12056  36.679  36.455  10.730
46830W        W12057  36.088  11.885  10.980
46831W        W12058  29.152  34.544  11.179
46832W        W12059   0.379  28.491  11.703
46833W        W12060  36.284  40.608  12.471
46834W        W12061   7.183   2.246   4.430
46835W        W12062  33.137  22.055  12.378
46836W        W12063  30.405  18.374  11.144
46837W        W12064  16.794  16.807  11.959
46838W        W12065  43.884  35.122   1.392
46839W        W12066  33.074  44.261  12.759
46840W        W12067  28.692   1.953   3.972
46841W        W12068  38.045   2.760   0.900
46842W        W12069  43.817  18.214  10.861
46843W        W12070  15.478  18.770   1.663
46844W        W12071  17.065  44.039  14.915
46845W        W12072  29.697  27.200  12.884
46846W        W12073  31.463  16.679  11.631
46847W        W12074   3.209  43.267  14.011
46848W        W12075   5.589   7.871  14.454
46849W        W12076  37.849  38.977  13.720
46850W        W12077  19.891  33.747  12.039
46851W        W12078  30.518  28.730   4.651
46852W        W12079  10.369  14.153   0.584
46853W        W12080  32.668  42.849   2.542
46854W        W12081   6.794   9.323   4.249
46855W        W12082  18.404  43.811  11.964
46856W        W12083  35.182  13.854  14.360
46857W        W12084  33.547  22.963   3.752
46858W        W12085  40.140   7.843   0.232
46859W        W12086  34.383   9.182  14.847
46860W        W12087   6.319  19.684   0.881
46861W        W12088  34.549  25.144  12.151
46862W        W12089  27.432   7.747  14.764
46863W        W12090  27.111  44.816   3.625
46864W        W12091  29.544  15.052  14.493
46865W        W12092  42.728  12.708  10.365
46866W        W12093  23.212  42.949   0.928
46867W        W12094   7.963  26.021  13.316
46868W        W12095   1.757   1.968   0.239
46869W        W12096  23.093  40.770  13.441
46870W        W12097   5.222  36.405  11.391
46871W        W12098  10.386  17.159   3.623
46872W        W12099   7.890  14.544   1.723
46873W        W12100  25.288  14.346  14.365
46874W        W12101  21.794  17.006   1.200
46875W        W12102   2.009  10.681   4.499
46876W        W12103   5.193  39.444  13.059
46877W        W12104  42.765  40.235  11.049
46878W        W12105  43.269  30.447   0.967
46879W        W12106  19.290  10.683  10.618
46880W        W12107   9.855   4.952   2.176
46881W        W12108   0.207  19.643   1.206
46882W        W12109   6.672   2.975  10.683
46883W        W12110   0.219  30.467  14.489
46884W        W12111  37.638  20.188  14.408
46885W        W12112  28.831  11.881   0.758
46886W        W12113  32.513  35.466   0.336
46887W        W12114  36.969   1.069  10.792
46888W        W12115  23.990  17.639   1.155
46889W        W12116  33.953  22.101   4.810
46890W        W12117  28.906  26.551  11.169
46891W        W12118  34.838  19.072  13.916
46892W        W12119   2.785  17.066  10.979
46893W        W12120  31.932   6.311   3.233
46894W        W12121  16.788  12.175   2.743
46895W        W12122  24.608  33.057   1.169
46896W        W12123   2.928   4.703  12.919
46897W        W12124  24.272  14.159  14.182
46898W        W12125  23.156  34.572  14.325
46899W        W12126  27.943   1.213   2.653
46900W        W12127  12.164  28.109  14.726
46901W        W12128   4.882  14.701  12.487
46902W        W12129  33.941   4.643  11.035
46903W        W12130  35.026  27.003   3.603
46904W        W12131   0.775  22.023   2.977
46905W        W12132  25.074  24.301   4.647
46906W        W12133  16.125  30.681  13.447
46907W        W12134  28.577  26.499   4.143
46908W        W12135   6.440   6.866  11.162
46909W        W12136   3.712  29.894   3.852
46910W        W12137  42.967  42.093   3.662
46911W        W12138  22.592  10.633   0.867
46912W        W12139   6.187  32.160   1.730
46913W        W12140   9.018  16.100   0.710
46914W        W12141  18.331  19.803   1.954
46915W        W12142  34.019  18.987  10.738
46916W        W12143   7.133  28.411  12.013
46917W        W12144  41.251  20.245  13.542
46918W        W12145  34.666  33.356   1.730
46919W        W12146  12.573  23.556   3.384
46920W        W12147   0.499  41.971  13.848
46921W        W12148   1.885  15.687   1.200
46922W        W12149   2.714  15.367   1.718
46923W        W12150  25.558  27.144  14.334
46924W        W12151  31.530  26.259  12.598
46925W        W12152   5.526  20.595  13.860
46926W        W12153  37.685  37.946   3.606
46927W        W12154  33.634  23.980  14.155
46928W        W12155  22.583  17.703  13.624
46929W        W12156  19.715  43.282  14.672
46930W        W12157  23.478  15.119   4.117
46931W        W12158   4.831  24.675  13.831
46932W        W12159  13.750  44.719  10.686
46933W        W12160  40.478  28.446  11.942
46934W        W12161  40.490  37.950   0.734
46935W        W12162  43.561  24.744  12.038
46936W        W12163  27.526  19.308   1.234
46937W        W12164  17.434   1.721  12.483
46938W        W12165  39.596  24.289  12.226
46939W        W12166  29.983  28.127  10.489
46940W        W12167  29.267  34.340   0.442
46941W        W12168  31.927  21.209  10.541
46942W        W12169   0.379  30.898   1.797
46943W        W12170   3.900  16.988  10.087
46944W        W12171   5.347  26.433  10.212
46945W        W12172  10.810  42.331   1.122
46946W        W12173  13.729  16.787  13.298
46947W        W12174  21.277   3.293   3.445
46948W        W12175  18.674  23.594  11.530
46949W        W12176  13.204  24.470  12.902
46950W        W12177  41.346   6.379   1.829
46951W        W12178   2.466   1.863  14.530
46952W        W12179  33.222  10.576   4.597
46953W        W12180  14.579  37.917   0.218
46954W        W12181   2.775   4.483  14.222
46955W        W12182  23.449  40.340  12.130
46956W        W12183  29.429  36.611   3.639
46957W        W12184  20.996  37.222   2.682
46958W        W12185   9.079  43.528  11.979
46959W        W12186  30.804  15.323  13.979
46960W        W12187  19.955  27.505  12.948
46961W        W12188  42.813   5.840  10.557
46962W        W12189  43.398  27.652   0.546
46963W        W12190   0.738  34.869   4.970
46964W        W12191  37.735  19.641   2.830
46965W        W12192   0.202  42.951   2.111
46966W        W12193  13.946  39.884   4.209
46967W        W12194  12.310  19.141  13.274
46968W        W12195  22.974  36.803   2.968
46969W        W12196  35.660  34.870  14.490
46970W        W12197  35.339  13.737  11.259
46971W        W12198  43.849  40.348  13.084
46972W        W12199  25.070  39.550   4.594
46973W        W12200  18.836   0.456   1.451
46974W        W12201  15.753  26.582   4.507
46975W        W12202  11.870  17.765   3.324
46976W        W12203  30.536  20.541  13.643
46977W        W12204   4.474  14.801  11.235
46978W        W12205  44.878  42.331   1.847
46979W        W12206  35.666  26.427   4.542
46980W        W12207  10.234  39.498   1.726
46981W        W12208   5.507  40.905  11.620
46982W        W12209   1.733  17.540  13.512
46983W        W12210  20.718  16.578   3.613
46984W        W12211  37.090  16.563   1.228
46985W        W12212  28.628  32.529  10.547
46986W        W12213   3.675  19.194  12.513
46987W        W12214  23.600  25.974  10.886
46988W        W12215  21.480  36.990   0.972
46989W        W12216   4.762  27.691   0.834
46990W        W12217   5.349  11.397   2.802
46991W        W12218  40.348  14.974   0.353
46992W        W12219  28.866  14.109   5.467
46993W        W12220   6.564  27.278  11.705
46994W        W12221  15.337  13.877   1.014
46995W        W12222  25.631  22.275   1.766
46996W        W12223  26.229  39.747   0.313
46997W        W12224  12.624  26.087   3.253
46998W        W12225  26.129  39.342  11.913
46999W        W12226  15.802  14.002  11.668
47000W        W12227  44.240  13.747   1.813
47001W        W12228  26.102  32.388  12.757
47002W        W12229  41.799  12.918  11.130
47003W        W12230   9.298  10.331  14.930
47004W        W12231  41.351   4.324  13.749
47005W        W12232   9.273   3.205   1.351
47006W        W12233  35.460  20.063   3.182
47007W        W12234   5.408  15.264  12.045
47008W        W12235  21.286  22.813   2.644
47009W        W12236  22.610  26.448  11.657
47010W        W12237  26.090  14.326  13.816
47011W        W12238  21.083  11.114  12.222
47012W        W12239  39.026   7.362  10.682
47013W        W12240   8.816   2.429  11.422
47014W        W12241  19.537   5.760  11.734
47015W        W12242  41.476   5.465  10.725
47016W        W12243  13.546  26.070  13.910
47017W        W12244  35.036  24.216  11.192
47018W        W12245  23.163  25.211   1.880
47019W        W12246  29.445  33.407  10.180
47020W        W12247  42.673  37.882  13.931
47021W        W12248  15.648  21.048   9.960
47022W        W12249  15.138  24.104   4.513
47023W        W12250  37.741  21.183  12.105
47024W        W12251  12.618  20.456   2.777
47025W        W12252   4.451  31.951  13.124
47026W        W12253  22.069   7.578   3.647
47027W        W12254  31.707  37.885  11.642
47028W        W12255  15.587   2.672  14.817
47029W        W12256  14.037   2.154   4.214
47030W        W12257  20.636  15.292  12.609
47031W        W12258  36.988  11.176   2.344
47032W        W12259  26.075  31.291   2.856
47033W        W12260  15.514  44.248  13.339
47034W        W12261  37.143  14.342  12.930
47035W        W12262  20.539   5.619   0.266
47036W        W12263  10.710   4.972   3.820
47037W        W12264  32.172  37.779   1.458
47038W        W12265  20.809  41.474  12.027
47039W        W12266  37.327  21.706   2.283
47040W        W12267  36.995  26.114   4.762
47041W        W12268  36.171  41.526   4.559
47042W        W12269  39.835   3.076   1.337
47043W        W12270  29.193  44.849   0.472
47044W        W12271  42.995  27.412  13.441
47045W        W12272  12.669   4.430  11.856
47046W        W12273  21.324   8.145  12.161
47047W        W12274  34.812  14.272  12.635
47048W        W12275   4.440  21.229   0.959
47049W        W12276  29.121  37.045  13.437
47050W        W12277  44.715   2.366   3.130
47051W        W12278  38.528  28.691  13.135
47052W        W12279   0.034  34.120   3.381
47053W        W12280  39.527  12.073  14.929
47054W        W12281  25.670  12.762   0.905
47055W        W12282   9.251  32.403   0.415
47056W        W12283  35.919  31.222  12.629
47057W        W12284  16.175  21.643   3.995
47058W        W12285  34.607  19.914   4.168
47059W        W12286  10.161  26.609   2.364
47060W        W12287  12.623  35.818   0.214
47061W        W12288  43.237  21.308   2.728
47062W        W12289  31.918  28.705  12.317
47063W        W12290  16.621  44.005   3.390
47064W        W12291   7.652   2.204   2.749
47065W        W12292   7.593  30.134  14.926
47066W        W12293  16.625  43.689  12.620
47067W        W12294  39.435  27.425  14.422
47068W        W12295  43.833  17.551   0.938
47069W        W12296  22.554  11.330   4.770
47070W        W12297  30.075  31.331   2.951
47071W        W12298  10.533  25.940   3.680
47072W        W12299   1.414  39.521  11.747
47073W        W12300   2.460  35.958   0.127
47074W        W12301  30.284  34.340  12.889
47075W        W12302   8.739  33.764   3.607
47076W        W12303  31.300  11.907   4.044
47077W        W12304  33.663  40.651  11.569
47078W        W12305   1.367   1.877   3.617
47079W        W12306  19.497  20.205   2.340
47080W        W12307  40.020  27.005   4.046
47081W        W12308  37.550  18.673   4.194
47082W        W12309  31.638  17.989   1.402
47083W        W12310  26.929  29.669   1.426
47084W        W12311  26.853  12.065  14.773
47085W        W12312  22.185  37.101  12.048
47086W        W12313   4.004  20.173  12.133
47087W        W12314  25.366   8.623   2.639
47088W        W12315  26.072  19.947  13.134
47089W        W12316  12.881  29.884   4.959
47090W        W12317  34.453   6.901   2.682
47091W        W12318  20.892  40.826  12.812
47092W        W12319  32.895  16.902  13.334
47093W        W12320  33.666  25.850  12.464
47094W        W12321  16.597  34.338  14.921
47095W        W12322  25.755   3.330   0.664
47096W        W12323   1.032  22.560  11.532
47097W        W12324  15.949  25.111  11.989
47098W        W12325   4.873  33.055   1.256
47099W        W12326  10.244  38.456   4.720
47100W        W12327  38.895   7.929  13.978
47101W        W12328   5.904  37.089  12.542
47102W        W12329  34.834  10.478  13.050
47103W        W12330   1.765  26.991  12.346
47104W        W12331   4.626  34.620   5.022
47105W        W12332  12.823  15.384   2.901
47106W        W12333   9.971  34.798   0.018
47107W        W12334  16.851  17.103  13.383
47108W        W12335  12.710  28.695   3.326
47109W        W12336  30.164   8.729   4.012
47110W        W12337  38.411   3.058  12.169
47111W        W12338  33.154  28.306  10.324
47112W        W12339  23.764   4.397   2.652
47113W        W12340  18.230  20.977   3.731
47114W        W12341   5.825   0.818  12.037
47115W        W12342   9.698  39.849   4.607
47116W        W12343   1.701  27.434   2.710
47117W        W12344   1.932  11.958   1.805
47118W        W12345   3.826  25.066  14.286
47119W        W12346  22.510   9.933  13.357
47120W        W12347   7.959   4.952  11.502
47121W        W12348  24.440  18.970  14.426
47122W        W12349  11.763  41.570  14.813
47123W        W12350  26.590  41.055  14.368
47124W        W12351  24.486   2.962   4.882
47125W        W12352  32.115  36.894   1.205
47126W        W12353   0.161  42.977  10.734
47127W        W12354  41.457  13.143  13.556
47128W        W12355  11.168  23.687   3.359
47129W        W12356  22.301  15.843  14.826
47130W        W12357  19.943  16.272   0.710
47131W        W12358   4.243  38.851  11.512
47132W        W12359  24.023  20.786   0.004
47133W        W12360  23.976   1.276   0.022
47134W        W12361  10.778   1.219  11.523
47135W        W12362  35.295  36.886   1.479
47136W        W12363  42.643  29.225  11.497
47137W        W12364  31.648  40.054  14.916
47138W        W12365   2.578  29.442   4.924
47139W        W12366  43.150  37.414  11.132
47140W        W12367  31.622  12.150  11.545
47141W        W12368   9.872  10.312  14.519
47142W        W12369  37.419  43.261  14.364
47143W        W12370  41.541  20.430   3.681
47144W        W12371  17.825  16.319  11.876
47145W        W12372  13.483  22.737   0.907
47146W        W12373  31.081   2.887  14.960
47147W        W12374   5.674   4.305  11.642
47148W        W12375  34.713  28.803  10.758
47149W        W12376   9.675   9.666   3.114
47150W        W12377  25.615  17.754   1.273
47151W        W12378  17.623  14.877   2.365
47152W        W12379  11.914  27.705  12.997
47153W        W12380  12.754  37.461  13.935
47154W        W12381  42.567  23.079  11.957
47155W        W12382  36.580  12.921   3.117
47156W        W12383   1.743  39.364   1.338
47157W        W12384  44.316  25.040  11.031
47158W        W12385  25.989  15.747  13.161
47159W        W12386   8.958  41.124  12.984
47160W        W12387  17.094   3.857   2.946
47161W        W12388  26.717  42.338  13.172
47162W        W12389  24.702   2.765   1.345
47163W        W12390  36.853  13.834   0.759
47164W        W12391   0.026  28.740   2.177
47165W        W12392  23.055  39.730   2.107
47166W        W12393  43.324  40.573  14.344
47167W        W12394   0.427  24.416   0.729
47168W        W12395  26.608  25.084   4.079
47169W        W12396   7.440   0.053  12.423
47170W        W12397  20.899   0.454  12.335
47171W        W12398   7.346  39.329   0.314
47172W        W12399   5.179   5.783  11.643
47173W        W12400  28.821  13.806  11.347
47174W        W12401   9.840  32.187   0.065
47175W        W12402   7.203  42.049   2.277
47176W        W12403  37.530  34.979   2.916
47177W        W12404  41.813  10.258   3.812
47178W        W12405  20.640  18.888   3.251
47179W        W12406   5.463  43.161   1.697
47180W        W12407  29.585  44.840   4.506
47181W        W12408  37.008  36.036   1.662
47182W        W12409  20.493  29.120  12.115
47183W        W12410  28.399  25.416   2.421
47184W        W12411  39.340  26.903  13.535
47185W        W12412   4.249  36.524  13.570
47186W        W12413  32.847   9.619  11.866
47187W        W12414  39.153  25.193  14.869
47188W        W12415  14.737  18.160   4.086
47189W        W12416  41.493  37.589  11.965
47190W        W12417   7.395  20.056  14.077
47191W        W12418  14.673  12.882  11.589
47192W        W12419   6.901  38.883  12.153
47193W        W12420  19.598   4.970  11.057
47194W        W12421  18.195  20.688  13.056
47195W        W12422   5.830  22.753   3.360
47196W        W12423  18.030  15.665  11.152
47197W        W12424  30.115   8.534   2.698
47198W        W12425  35.297  11.267   3.787
47199W        W12426  23.719  19.548   4.117
47200W        W12427  14.206  11.660   4.149
47201W        W12428  26.983  17.299  12.035
47202W        W12429  26.026  33.892  14.759
47203W        W12430  24.932  44.666  13.288
47204W        W12431  15.848   9.329   3.804
47205W        W12432  32.676   5.613  13.367
47206W        W12433   6.731   7.740   2.333
47207W        W12434  27.927   7.549   4.194
47208W        W12435   1.811   0.357  11.204
47209W        W12436  35.941  33.214   1.711
47210W        W12437  36.259  30.044   2.411
47211W        W12438   5.336   0.850  13.311
47212W        W12439   9.105  17.020  11.655
47213W        W12440   5.155  34.484   2.959
47214W        W12441  42.296   5.123   1.540
47215W        W12442  28.586  15.066  10.782
47216W        W12443  21.226   5.302  11.989
47217W        W12444  30.350   0.210   3.355
47218W        W12445   7.783   9.817   3.546
47219W        W12446  34.623  11.417   0.355
47220W        W12447   7.366  11.240  14.519
47221W        W12448  38.475  29.901   0.185
47222W        W12449  10.135  27.649   4.608
47223W        W12450  21.027  14.438  14.133
47224W        W12451   3.283  38.022   4.790
47225W        W12452  13.299  25.136  10.822
47226W        W12453  17.780  39.492  12.926
47227W        W12454  14.546  12.224   1.377
47228W        W12455   1.083  34.626   1.287
47229W        W12456  12.289  34.878   1.836
47230W        W12457   1.839  26.557   0.594
47231W        W12458  40.802  19.261  10.706
47232W        W12459  13.009  15.206  12.142
47233W        W12460  27.383  34.461  13.867
47234W        W12461  38.488  34.259   4.065
47235W        W12462  13.576  41.085  12.589
47236W        W12463   1.969  26.845   3.467
47237W        W12464  20.174  24.429  11.034
47238W        W12465   9.331  32.172  13.887
47239W        W12466  42.803  17.637   1.817
47240W        W12467   5.848  15.279  10.941
47241W        W12468   4.215  16.752   1.366
47242W        W12469  32.980   7.867   2.139
47243W        W12470  32.180   7.002  10.848
47244W        W12471  13.599  24.662   2.885
47245W        W12472   7.739  23.971   0.492
47246W        W12473  10.838  40.314  14.028
47247W        W12474  44.823   2.794  14.281
47248W        W12475  42.222  42.773  13.546
47249W        W12476  31.401  37.915   3.611
47250W        W12477   2.292  36.535  11.080
47251W        W12478  44.920  11.291  11.503
47252W        W12479  31.736  26.599  14.395
47253W        W12480   6.349  31.178   1.395
47254W        W12481  23.457  33.030  11.467
47255W        W12482  14.586  24.326   1.840
47256W        W12483   5.765  39.284   2.115
47257W        W12484   8.289   6.653   1.985
47258W        W12485  39.756  33.467  12.459
47259W        W12486  35.114  24.649  13.027
47260W        W12487   5.434  12.152  13.077
47261W        W12488   2.850  18.248   2.839
47262W        W12489  25.977   4.042   0.240
47263W        W12490  31.063  23.786   2.951
47264W        W12491   8.918  37.562   2.353
47265W        W12492  43.978  40.629  11.002
47266W        W12493  17.752  40.903  13.466
47267W        W12494  17.702   6.089  11.071
47268W        W12495  16.183  20.210   1.886
47269W        W12496  30.906   5.608  12.890
47270W        W12497  10.091  44.378  14.710
47271W        W12498  42.476  30.014   0.971
47272W        W12499  27.609   0.465   3.935
47273W        W12500  44.383  35.387  10.730
47274W        W12501  30.543  24.685   4.993
47275W        W12502  36.223  44.081   9.716
47276W        W12503  30.696  16.253   3.799
47277W        W12504  26.493  39.566   3.204
47278W        W12505  15.294  33.450   2.752
47279W        W12506  40.354  38.538  13.051
47280W        W12507  30.944   2.787  10.720
47281W        W12508  11.518  37.943  14.035
47282W        W12509  14.725   8.185   3.195
47283W        W12510  12.038  21.745  11.770
47284W        W12511   1.079  43.257  12.558
47285W        W12512   5.155   5.670  14.296
47286W        W12513  27.792   8.233  11.487
47287W        W12514  43.241   6.625   1.644
47288W        W12515   7.345   0.382   4.874
47289W        W12516  27.018   6.314   0.241
47290W        W12517  14.084  41.017  14.322
47291W        W12518  18.614  35.801   3.383
47292W        W12519  17.025   0.660  12.941
47293W        W12520  37.929  19.024  10.638
47294W        W12521  25.728  26.758  13.576
47295W        W12522  37.996  30.415   1.688
47296W        W12523  31.860  13.605   0.154
47297W        W12524  35.445   8.597   4.344
47298W        W12525  21.256   3.188   1.474
47299W        W12526  25.126  21.271   0.083
47300W        W12527   9.245   8.220  12.867
47301W        W12528   5.656   2.481   0.456
47302W        W12529  25.220  20.755   4.246
47303W        W12530  44.458  39.484  13.809
47304W        W12531  23.150  19.813   0.215
47305W        W12532  17.311   6.382   4.277
47306W        W12533  12.955  16.089   3.674
47307W        W12534  16.611   9.328   1.381
47308W        W12535  14.992   3.757   1.267
47309W        W12536  35.960  23.308   4.188
47310W        W12537  28.577  31.479  14.430
47311W        W12538   6.418  21.190   3.086
47312W        W12539  42.687  18.131  12.950
47313W        W12540  43.527  41.325   3.659
47314W        W12541  29.020   5.608   2.762
47315W        W12542  15.885  36.323   4.649
47316W        W12543   4.818  16.749  11.029
47317W        W12544  27.094  43.692   1.280
47318W        W12545  22.526  23.761  12.342
47319W        W12546   3.406  21.229  14.489
47320W        W12547  25.291  17.181   4.547
47321W        W12548  27.757   5.571   0.484
47322W        W12549   4.492  34.599   1.056
47323W        W12550   9.342  10.796   0.156
47324W        W12551  35.611   8.122   4.337
47325W        W12552   0.466  15.919   9.715
47326W        W12553  30.594  28.427  13.130
47327W        W12554  16.524  15.629   4.837
47328W        W12555  13.640   4.022   2.222
47329W        W12556  41.015  22.212   1.445
47330W        W12557  33.919   6.259   3.286
47331W        W12558  38.325  40.170  14.816
47332W        W12559   9.261  35.693   1.617
47333W        W12560  14.074  10.624   4.049
47334W        W12561   6.448   9.730   4.483
47335W        W12562  13.701  34.329   3.695
47336W        W12563  32.879  38.634   2.857
47337W        W12564  23.291  19.223   4.060
47338W        W12565  17.890  15.128   0.287
47339W        W12566  24.015  28.905  12.662
47340W        W12567   8.760   5.393  14.306
47341W        W12568  12.861  19.039   3.217
47342W        W12569  31.525  16.207   2.325
47343W        W12570  42.477  31.882  12.841
47344W        W12571  13.365  32.365   0.038
47345W        W12572  37.244   3.253   4.037
47346W        W12573   1.178  44.848   1.917
47347W        W12574  14.270  15.581  10.325
47348W        W12575  16.211  19.017   2.893
47349W        W12576  36.484  36.439  11.950
47350W        W12577  29.443  20.113   1.801
47351W        W12578   8.833  28.888  14.205
47352W        W12579  34.553  34.311  11.693
47353W        W12580  19.123  40.923  14.011
47354W        W12581   2.217   0.704   2.605
47355W        W12582  30.570  15.385   0.497
47356W        W12583  11.276  15.913   0.400
47357W        W12584  14.820  17.853   1.748
47358W        W12585  17.543  32.534   1.960
47359W        W12586  22.895  14.619  12.611
47360W        W12587  10.255  14.643   2.472
47361W        W12588  43.605  34.570  11.218
47362W        W12589   0.557  22.815   9.729
47363W        W12590   5.681  20.222   1.002
47364W        W12591  36.274  39.927  13.173
47365W        W12592  14.317  28.407   0.829
47366W        W12593  21.667  44.360  11.971
47367W        W12594  13.034  15.914  14.298
47368W        W12595  17.933  10.057  10.742
47369W        W12596  18.445  21.088   1.297
47370W        W12597  30.843   6.405  11.615
47371W        W12598  22.867  44.533  11.087
47372W        W12599  16.677  14.228   3.099
47373W        W12600  42.711  41.941  11.625
47374W        W12601  24.300  11.266  12.497
47375W        W12602   5.456  11.339  10.993
47376W        W12603   0.254   9.711   3.893
47377W        W12604  35.972  15.611  13.945
47378W        W12605  36.386  44.829   0.977
47379W        W12606   0.336  12.796   2.457
47380W        W12607  24.314  28.967  13.634
47381W        W12608   7.766  28.055   1.339
47382W        W12609   3.476  44.790   2.333
47383W        W12610  13.048  43.510   3.652
47384W        W12611  18.820  11.225   3.686
47385W        W12612  42.887   3.309   1.701
47386W        W12613  18.453  32.054  12.484
47387W        W12614  10.683   4.845  14.996
47388W        W12615  21.167  25.471   1.393
47389W        W12616  30.017  41.833   0.917
47390W        W12617  32.872   5.538  14.457
47391W        W12618  27.390  12.122   3.688
47392W        W12619   4.718   9.226   1.922
47393W        W12620   7.761  16.202   2.176
47394W        W12621  32.251   1.282   0.576
47395W        W12622  24.234   5.980  13.933
47396W        W12623  33.205  36.858   3.426
47397W        W12624   6.297  23.618  10.974
47398W        W12625  15.510  11.394  11.377
47399W        W12626  26.700  25.216   0.834
47400W        W12627  25.855  41.466  13.915
47401W        W12628  25.966   0.547  13.938
47402W        W12629  14.936  10.575  11.172
47403W        W12630  26.642  42.082   1.465
47404W        W12631   5.279  43.683   0.368
47405W        W12632  21.088  22.175  12.940
47406W        W12633  29.968  27.907  14.921
47407W        W12634   7.377  23.064   4.024
47408W        W12635  20.439  40.843   4.406
47409W        W12636   7.590  21.334   4.341
47410W        W12637  18.868   7.421  14.961
47411W        W12638  16.618   7.081   0.397
47412W        W12639   7.415  20.469  11.164
47413W        W12640  39.195  22.638   4.834
47414W        W12641  17.165  36.592   3.781
47415W        W12642  22.607  28.131  13.411
47416W        W12643  44.196  43.064  13.591
47417W        W12644  35.537  25.681  13.717
47418W        W12645  10.288  39.656   4.062
47419W        W12646  40.919  21.830  13.112
47420W        W12647   7.580  41.612   5.074
47421W        W12648  33.388  39.546   1.814
47422W        W12649   6.400   4.630   3.743
47423W        W12650   9.672   0.493  12.997
47424W        W12651  13.817  42.243   1.987
47425W        W12652  25.483  43.275  12.864
47426W        W12653  35.453  17.198  14.265
47427W        W12654   9.940  36.225   1.767
47428W        W12655  34.514  30.572  12.052
47429W        W12656  11.454  41.460   4.094
47430W        W12657   9.428   0.237   3.265
47431W        W12658  11.577  18.177   2.617
47432W        W12659  30.330  32.019   0.101
47433W        W12660  24.207  16.102   3.740
47434W        W12661   9.657  33.433  13.949
47435W        W12662   8.899  16.178  10.386
47436W        W12663   8.715  13.929   0.670
47437W        W12664  36.544  25.954  11.233
47438W        W12665  27.609   4.879  14.474
47439W        W12666  35.858  18.314  13.517
47440W        W12667  41.764  32.380  14.360
47441W        W12668   3.641   6.952   1.674
47442W        W12669  12.147  16.114   4.395
47443W        W12670  23.466  15.423  11.751
47444W        W12671   7.444  28.981   4.614
47445W        W12672  28.634  30.190   0.340
47446W        W12673  25.265  38.807  12.001
47447W        W12674  38.104  39.894  14.433
47448W        W12675   6.018  14.162  10.323
47449W        W12676  31.388  40.265  13.312
47450W        W12677  26.563  32.487  11.030
47451W        W12678  31.154  15.490   3.661
47452W        W12679   4.677  26.635   3.171
47453W        W12680  21.235  40.398  11.468
47454W        W12681   4.993  22.261  10.613
47455W        W12682   2.996   9.120  10.654
47456W        W12683  25.164  11.644   1.535
47457W        W12684  18.329  16.246  10.712
47458W        W12685  44.230  43.785  14.813
47459W        W12686  38.804  35.608   4.963
47460W        W12687  11.377  22.416  12.423
47461W        W12688  23.676   8.907  11.682
47462W        W12689   6.233  31.575  14.456
47463W        W12690  29.073  36.911   1.345
47464W        W12691  34.958   7.715  14.540
47465W        W12692  13.733  29.196   3.683
47466W        W12693  39.288  13.040  13.336
47467W        W12694  35.144  14.507   3.176
47468W        W12695  21.756  23.333  12.691
47469W        W12696  11.317   9.366  12.089
47470W        W12697  22.994  26.504  14.074
47471W        W12698  18.811  15.756  10.091
47472W        W12699   3.589   3.336  11.574
47473W        W12700  41.475   3.947  14.084
47474W        W12701  28.073   4.495   4.542
47475W        W12702  15.795   8.903   4.662
47476W        W12703  12.343  31.164   2.853
47477W        W12704  17.653  20.242   0.967
47478W        W12705  21.551  13.312  14.968
47479W        W12706  20.483  31.508  13.884
47480W        W12707  42.578  33.041   4.074
47481W        W12708  21.968  30.452   0.250
47482W        W12709  35.550  25.940  12.334
47483W        W12710  31.849  39.089   4.981
47484W        W12711  12.200   0.845  13.844
47485W        W12712  18.297  30.129  13.595
47486W        W12713  32.155  16.043   0.506
47487W        W12714  11.151  19.683   4.915
47488W        W12715  27.409  23.511  13.378
47489W        W12716  35.349  36.384   1.389
47490W        W12717  39.761  34.892   1.726
47491W        W12718   9.178  43.311  12.441
47492W        W12719   5.564  24.105  13.839
47493W        W12720  40.750  21.527  13.537
47494W        W12721  16.304  23.091   0.645
47495W        W12722  35.175  11.755   3.923
47496W        W12723   5.298  43.952  10.628
47497W        W12724  19.239  37.601  14.869
47498W        W12725  12.247  35.376  10.280
47499W        W12726  44.485  10.847  11.911
47500W        W12727  12.908  34.548   0.066
47501W        W12728  13.785  24.971  10.815
47502W        W12729  27.720  29.965  11.109
47503W        W12730  34.381  17.902   0.454
47504W        W12731  44.935  44.727  12.232
47505W        W12732   3.739   4.912  11.547
47506W        W12733  24.110  44.191  12.034
47507W        W12734  38.292  44.136   0.339
47508W        W12735  27.026  30.916  12.165
47509W        W12736  13.117  35.552   3.724
47510W        W12737  42.798   8.651  13.463
47511W        W12738   4.303  31.021   1.677
47512W        W12739  18.225   6.324   3.739
47513W        W12740  26.954   9.648  14.821
47514W        W12741  29.038  10.782  12.340
47515W        W12742  27.717   7.316   3.166
47516W        W12743  34.533  22.672   3.782
47517W        W12744  42.237  38.553   0.137
47518W        W12745  31.598  20.023   3.132
47519W        W12746  17.735  13.149  14.044
47520W        W12747  28.675  12.973  13.051
47521W        W12748  22.252  39.043  10.392
47522W        W12749  23.592  31.906  10.985
47523W        W12750  35.437  35.454  13.381
47524W        W12751   3.988   2.844  13.281
47525W        W12752   3.964  17.173  13.457
47526W        W12753  36.842  43.139   0.725
47527W        W12754  37.074  32.066  10.766
47528W        W12755   4.501   1.459  12.340
47529W        W12756   4.919   4.854  11.654
47530W        W12757  13.976  21.032   4.441
47531W        W12758  27.206  32.090   0.724
47532W        W12759   5.416   8.333   2.328
47533W        W12760  33.962   2.507   3.898
47534W        W12761  15.259  29.403   1.718
47535W        W12762  36.626  12.582   2.757
47536W        W12763  28.762  13.885   3.757
47537W        W12764  17.691   7.623   3.646
47538W        W12765   9.684  29.567   3.069
47539W        W12766   2.942  13.558  14.510
47540W        W12767  28.926  21.754  13.505
47541W        W12768  27.095  28.135   4.607
47542W        W12769  38.549  22.300  10.734
47543W        W12770  43.868  39.957   0.983
47544W        W12771   4.308  38.205   0.645
47545W        W12772  41.747  17.530  14.893
47546W        W12773   9.374  29.982  10.724
47547W        W12774  23.656  31.118  14.347
47548W        W12775  20.387  43.273  14.463
47549W        W12776  25.237   2.948   2.746
47550W        W12777  27.683  21.322   0.478
47551W        W12778  25.064   3.252   1.237
47552W        W12779   5.744   9.789   0.957
47553W        W12780  37.702  11.385  10.224
47554W        W12781  10.416  14.637  12.507
47555W        W12782  14.602  11.349  14.548
47556W        W12783  37.605  12.814  10.828
47557W        W12784  20.579  13.316   3.222
47558W        W12785  27.177   2.131   1.470
47559W        W12786  41.992   1.299  13.905
47560W        W12787  33.641  30.013   4.629
47561W        W12788  17.165  23.074   3.111
47562W        W12789   0.286   2.728  13.512
47563W        W12790  29.619   3.413  14.080
47564W        W12791  17.877  14.120   0.281
47565W        W12792  42.527  20.712   2.437
47566W        W12793  27.134  29.814  13.743
47567W        W12794   3.358  22.933   3.233
47568W        W12795  40.235  17.126  12.931
47569W        W12796  17.023  21.553  14.796
47570W        W12797  29.142   7.073  14.258
47571W        W12798   1.476   2.221   3.246
47572W        W12799  37.050  36.324   0.712
47573W        W12800  10.273  16.578  12.015
47574W        W12801   1.965  25.661   9.670
47575W        W12802  28.651  26.231  12.883
47576W        W12803  38.511   3.308   3.974
47577W        W12804  39.404  14.789  11.811
47578W        W12805  13.170  25.126  10.325
47579W        W12806  29.319   3.180   4.460
47580W        W12807   6.296   6.929   1.358
47581W        W12808   6.793  41.783  13.465
47582W        W12809  10.355  36.150  14.990
47583W        W12810  12.306  19.175   4.533
47584W        W12811   4.645   1.143  12.749
47585W        W12812  21.654  21.106   0.068
47586W        W12813   4.657   6.027   0.154
47587W        W12814   6.403  34.179  10.661
47588W        W12815  18.856  23.705   4.748
47589W        W12816  17.976  38.848   1.399
47590W        W12817  18.279  15.060  14.944
47591W        W12818  19.501  13.203  14.850
47592W        W12819   3.183  34.602   2.094
47593W        W12820  21.199   9.939  12.364
47594W        W12821  12.746  34.384   1.865
47595W        W12822  32.547   2.739  12.418
47596W        W12823  29.641   6.589   4.607
47597W        W12824  27.157  29.100  12.578
47598W        W12825   9.822  22.100   2.956
47599W        W12826   5.883   1.979   2.310
47600W        W12827  31.003  34.974   1.753
47601W        W12828  34.519  21.942  14.362
47602W        W12829  12.724  31.439  13.544
47603W        W12830  41.353  32.179  14.032
47604W        W12831  30.123  11.484  14.746
47605W        W12832  23.059  39.523  14.350
47606W        W12833  25.967  34.519  11.641
47607W        W12834  34.453  31.360  12.482
47608W        W12835   5.443  14.130   1.491
47609W        W12836  43.533   6.619   5.102
47610W        W12837   7.376  30.004   4.799
47611W        W12838  30.666  25.497   4.054
47612W        W12839  22.246   6.524  11.539
47613W        W12840  44.775  24.737   4.714
47614W        W12841  24.924  14.500   4.559
47615W        W12842  40.607  27.083   3.261
47616W        W12843  33.882  18.774  11.207
47617W        W12844   7.857   8.803  13.125
47618W        W12845  13.284  10.993  11.081
47619W        W12846  35.460  33.861   4.720
47620W        W12847  16.932   0.683  12.115
47621W        W12848  22.989  42.479   0.901
47622W        W12849  42.095   9.780  10.710
47623W        W12850  31.159   0.274   2.658
47624W        W12851  27.906  13.817  11.759
47625W        W12852   2.545  43.227   4.221
47626W        W12853  13.694  12.977  12.348
47627W        W12854  35.154  15.114   2.918
47628W        W12855  44.349   3.959  11.520
47629W        W12856  25.655  36.431  14.842
47630W        W12857  13.601  33.085  12.643
47631W        W12858  42.261  15.558  14.804
47632W        W12859  34.279  26.415   4.932
47633W        W12860  26.118  32.591   3.083
47634W        W12861  26.225  41.592   0.754
47635W        W12862  31.285   5.283  13.109
47636W        W12863   9.647   2.262   3.133
47637W        W12864  11.750  39.927   3.678
47638W        W12865  14.167  21.426   1.025
47639W        W12866   5.429   6.910   0.984
47640W        W12867   2.228   0.558   1.219
47641W        W12868  14.737   8.441   1.852
47642W        W12869  36.089  44.812   3.303
47643W        W12870  23.224   1.833   2.911
47644W        W12871   3.178  34.499  13.773
47645W        W12872  35.602  33.595   3.840
47646W        W12873  37.334   5.215   3.132
47647W        W12874  43.438  13.407  13.830
47648W        W12875   9.707   3.898  13.611
47649W        W12876   2.994  36.425   1.847
47650W        W12877  10.232  23.709   3.229
47651W        W12878  16.174  31.850   0.445
47652W        W12879   7.875  33.644  10.430
47653W        W12880  12.192   4.894  13.861
47654W        W12881  42.011   6.548  11.297
47655W        W12882   4.527  35.091   1.257
47656W        W12883  26.121   4.126   4.402
47657W        W12884  33.651   2.374   1.801
47658W        W12885   7.003  32.123  10.772
47659W        W12886  33.198  20.762  14.550
47660W        W12887  37.603   0.946   4.253
47661W        W12888  12.905  25.084  14.141
47662W        W12889  34.385  20.565   1.648
47663W        W12890  35.108  12.214  13.049
47664W        W12891  37.472  32.867   0.847
47665W        W12892  25.175  39.057  12.721
47666W        W12893  34.884  43.846  13.837
47667W        W12894  35.363  32.995   0.328
47668W        W12895  44.377  29.658  12.462
47669W        W12896   0.196   6.971   0.960
47670W        W12897  14.284  27.752  12.442
47671W        W12898  12.540  26.041   2.085
47672W        W12899  42.065  29.881  11.536
47673W        W12900  19.917  30.422  12.089
47674W        W12901   2.469  20.951  14.566
47675W        W12902  34.490   7.092   0.216
47676W        W12903  35.850   4.950  10.233
47677W        W12904  15.225  12.637   3.387
47678W        W12905  38.754   0.520  12.109
47679W        W12906  26.464  12.072   0.130
47680W        W12907  35.039   6.721  12.013
47681W        W12908  44.734  17.658  14.866
47682W        W12909  31.116   4.306   2.799
47683W        W12910  28.938  20.116  12.949
47684W        W12911   5.796  31.462  11.871
47685W        W12912  11.569  25.224  14.391
47686W        W12913  44.177  24.730   2.887
47687W        W12914   3.744  41.741  14.893
47688W        W12915   2.881   5.490   0.937
47689W        W12916   3.309  13.536  13.253
47690W        W12917  42.483  38.818  14.767
47691W        W12918  29.506  30.616  11.168
47692W        W12919  26.538  17.766  14.872
47693W        W12920  23.569   3.395  13.173
47694W        W12921   5.623  44.546  11.320
47695W        W12922  18.588  17.295  10.358
47696W        W12923  43.742   2.725  13.065
47697W        W12924  41.804  23.660   3.228
47698W        W12925  36.492  18.813  11.633
47699W        W12926  17.793  11.207  12.036
47700W        W12927  35.669   8.333  11.974
47701W        W12928  24.606  38.090   3.625
47702W        W12929   1.793  40.547   3.758
47703W        W12930  41.042  20.741  14.817
47704W        W12931  43.968   1.291  11.727
47705W        W12932   7.845  18.367  10.148
47706W        W12933   1.508  27.539  13.430
47707W        W12934  20.810   6.234  14.401
47708W        W12935   2.733  42.563  12.539
47709W        W12936   4.930  36.358   1.870
47710W        W12937  39.906  28.374   1.301
47711W        W12938   2.768  38.064  11.882
47712W        W12939  20.037   4.343  12.502
47713W        W12940  12.283  24.977  13.387
47714W        W12941  13.701   0.303   1.895
47715W        W12942   4.683  38.914   4.169
47716W        W12943   2.698  14.079   4.074
47717W        W12944  17.823  15.705   4.184
47718W        W12945  30.249  37.958   0.724
47719W        W12946   4.298  35.179  13.514
47720W        W12947  44.852  20.854  12.585
47721W        W12948  27.682  11.410  12.472
47722W        W12949  43.464  16.533   1.930
47723W        W12950   0.537  12.553  12.024
47724W        W12951  24.759  20.540   4.411
47725W        W12952  30.022  37.614  12.083
47726W        W12953  29.551  26.666  14.025
47727W        W12954  43.429  28.439   5.234
47728W        W12955  22.021  28.678  10.621
47729W        W12956  19.841   5.899  14.537
47730W        W12957  41.019  16.728  14.757
47731W        W12958  15.702  12.454  11.674
47732W        W12959   7.311  10.807   1.393
47733W        W12960  30.208  24.875   9.876
47734W        W12961  28.858   3.474  14.495
47735W        W12962   1.988  19.286   0.314
47736W        W12963  37.461  25.467  14.236
47737W        W12964   7.928   5.964  13.001
47738W        W12965   3.820  38.989   0.050
47739W        W12966   5.436  21.616   4.715
47740W        W12967  29.069  14.746  13.652
47741W        W12968  13.135  21.012  12.034
47742W        W12969   3.171   0.555   5.317
47743W        W12970  30.228   8.615  14.782
47744W        W12971  28.592  10.896  14.078
47745W        W12972   0.037   6.422   2.813
47746W        W12973  44.440  34.317  14.535
47747W        W12974  31.076   8.119   2.883
47748W        W12975  44.447  31.664   0.961
47749W        W12976   3.266   2.307   1.853
47750W        W12977  13.617  31.980   9.980
47751W        W12978  18.042  30.381  12.997
47752W        W12979  26.116   0.374   3.738
47753W        W12980  17.606   2.572  12.036
47754W        W12981   5.976  17.364  10.723
47755W        W12982  13.388  21.742  14.405
47756W        W12983  40.429   0.874   1.244
47757W        W12984  27.129  15.181   1.783
47758W        W12985  40.964  33.970  12.499
47759W        W12986  20.593  28.803   2.651
47760W        W12987  35.728  29.913  12.029
47761W        W12988  41.796  26.591  12.124
47762W        W12989  44.223  33.576   4.195
47763W        W12990  36.065   3.424  12.671
47764W        W12991  42.473  17.170  11.625
47765W        W12992   9.741  33.923  14.939
47766W        W12993  37.372  17.600  14.720
47767W        W12994  38.523  38.587  12.648
47768W        W12995  36.002  24.331  11.978
47769W        W12996  40.542  12.774  12.373
47770W        W12997  32.892  26.000   4.734
47771W        W12998  34.840   0.217   4.644
47772W        W12999   6.232   9.299  12.034
47773W        W13000  12.115  39.974   0.402
47774W        W13001  34.416  26.657  12.040
47775W        W13002   6.069  16.806  13.354
47776W        W13003  20.072  27.998   4.575
47777W        W13004  12.333  44.309   4.384
47778W        W13005  27.865  25.319   3.316
47779W        W13006  36.273  13.620  11.944
47780W        W13007   0.718  36.550  13.898
47781W        W13008  20.991   2.757   2.955
47782W        W13009  21.136  21.192  12.974
47783W        W13010  43.978  15.145   4.152
47784W        W13011  29.013  24.000   1.222
47785W        W13012  41.730   0.341  13.611
47786W        W13013  44.901  26.591  12.084
47787W        W13014  31.717   1.288   0.477
47788W        W13015  34.615  29.069   2.312
47789W        W13016  27.847  20.739   3.647
47790W        W13017   2.302   4.826   3.808
47791W        W13018   8.805   2.216  12.983
47792W        W13019  36.064  38.492  12.432
47793W        W13020  28.074  41.686   0.852
47794W        W13021  20.141  24.693  11.489
47795W        W13022  19.234  36.938  11.114
47796W        W13023  25.903  42.838  14.762
47797W        W13024  13.768  43.520   0.901
47798W        W13025   9.754  34.082   2.733
47799W        W13026  11.225  21.395  11.305
47800W        W13027  42.024  34.884   2.053
47801W        W13028  17.396  42.439  14.054
47802W        W13029  31.121  44.448   2.359
47803W        W13030  28.659  27.915  12.507
47804W        W13031  32.727  28.090  11.134
47805W        W13032  39.316   7.301   0.348
47806W        W13033  26.037  24.746  13.511
47807W        W13034  43.245  21.304   1.248
47808W        W13035  10.040  36.172   0.894
47809W        W13036  42.348  14.010  12.966
47810W        W13037   3.289  38.713   4.463
47811W        W13038   9.503  14.304   1.018
47812W        W13039   2.499  41.473   4.534
47813W        W13040  28.460  29.785  13.113
47814W        W13041  34.699   9.848  13.465
47815W        W13042  29.889  35.909   4.400
47816W        W13043  31.141  31.106  14.218
47817W        W13044  10.340   7.770  13.306
47818W        W13045  32.963  22.659   1.463
47819W        W13046  35.872   2.486  12.454
47820W        W13047  17.085   8.405  13.840
47821W        W13048   6.425  30.179  10.725
47822W        W13049   0.405   8.932  13.377
47823W        W13050   3.508  15.693   0.227
47824W        W13051  41.544  25.550   1.175
47825W        W13052  16.097  19.957   3.317
47826W        W13053  37.436   1.873   0.170
47827W        W13054  30.602   6.202  13.917
47828W        W13055  31.026  23.931  10.329
47829W        W13056  30.892  23.798   0.264
47830W        W13057  26.201  11.793  10.763
47831W        W13058  12.312  22.977   1.963
47832W        W13059   9.585  27.106  14.659
47833W        W13060   7.340  17.541  14.441
47834W        W13061  29.920  17.746   3.240
47835W        W13062   5.243  16.529   0.932
47836W        W13063  10.203  37.274   1.725
47837W        W13064  42.593  15.374   3.782
47838W        W13065  34.516  28.213   1.880
47839W        W13066  24.619   4.268   1.952
47840W        W13067   4.165  13.306  13.487
47841W        W13068  27.353  18.132  13.128
47842W        W13069  33.415   4.872   4.222
47843W        W13070  10.768  42.914   3.349
47844W        W13071  26.420  22.645   0.554
47845W        W13072  43.499  32.263  12.639
47846W        W13073  15.191  15.067  11.187
47847W        W13074   6.734   0.493   4.242
47848W        W13075  37.441  18.709   3.646
47849W        W13076  15.965  25.096   2.305
47850W        W13077  37.510  11.141   0.714
47851W        W13078  25.915  17.839   3.452
47852W        W13079  11.593  14.211  11.455
47853W        W13080   0.043  13.277   2.251
47854W        W13081  34.548   6.279  14.516
47855W        W13082  13.774  13.454  14.423
47856W        W13083  31.083  25.457   0.985
47857W        W13084  29.408  23.088  13.813
47858W        W13085   9.081  20.971  10.877
47859W        W13086  40.890  13.033   4.590
47860W        W13087  23.466  19.927  14.809
47861W        W13088  40.590  43.840   4.624
47862W        W13089  29.339   6.298  13.906
47863W        W13090  26.699   6.383  11.514
47864W        W13091  29.891   2.159  11.540
47865W        W13092  40.319  16.602   4.176
47866W        W13093   0.464  43.460   0.864
47867W        W13094  42.295  37.574  14.573
47868W        W13095  29.878   9.255  10.620
47869W        W13096   1.776   2.299  10.579
47870W        W13097  40.065  22.740   3.689
47871W        W13098  40.548  16.652   1.813
47872W        W13099  44.431  39.420  11.845
47873W        W13100  24.377  29.477  14.804
47874W        W13101   0.179  15.900   2.658
47875W        W13102  12.083  37.667   3.647
47876W        W13103  13.002  42.425   0.479
47877W        W13104   0.619  37.125   3.095
47878W        W13105   2.507  40.797   4.232
47879W        W13106  20.955   0.376  14.087
47880W        W13107  42.205   3.368   5.004
47881W        W13108  43.880  31.724  14.353
47882W        W13109  25.228   1.860   1.333
47883W        W13110  43.848  39.501   4.085
47884W        W13111  29.695   8.463  14.282
47885W        W13112  24.677  16.703   0.977
47886W        W13113   8.693   3.533   4.588
47887W        W13114  18.576  16.589   3.797
47888W        W13115   8.628  36.138   2.336
47889W        W13116  44.555  37.249   2.304
47890W        W13117  37.315   2.428   4.567
47891W        W13118  34.550  13.237   0.348
47892W        W13119  15.672   1.439  13.709
47893W        W13120  16.827   5.763   1.228
47894W        W13121   2.843  16.084   3.667
47895W        W13122  15.671  16.105  14.100
47896W        W13123  35.343   4.747  13.910
47897W        W13124  31.547  16.828   1.701
47898W        W13125  18.631  27.097  13.934
47899W        W13126  15.755  18.770   2.871
47900W        W13127   5.409  30.529  10.707
47901W        W13128  10.738  12.272   0.429
47902W        W13129  11.667  26.406   0.733
47903W        W13130  40.982  30.485  11.919
47904W        W13131   4.627  43.774   2.146
47905W        W13132  12.452   9.369  14.361
47906W        W13133  21.160  26.552   0.740
47907W        W13134   1.587  19.243  11.610
47908W        W13135  42.951  41.211   2.725
47909W        W13136  35.600  13.641  10.820
47910W        W13137  11.061  34.111   0.283
47911W        W13138   1.982  17.789   4.180
47912W        W13139  22.514  21.175   4.167
47913W        W13140  36.842  39.428  12.960
47914W        W13141  17.005  16.277   0.326
47915W        W13142   3.263   7.491  11.179
47916W        W13143   9.641   4.738  12.076
47917W        W13144  23.032  25.915  14.373
47918W        W13145  29.944  36.428   1.761
47919W        W13146   8.630   2.891  10.627
47920W        W13147  42.371  19.039   3.649
47921W        W13148  28.641   9.767  13.516
47922W        W13149   1.814  27.855   3.537
47923W        W13150  43.983  30.579  12.139
47924W        W13151  42.396   6.074  10.773
47925W        W13152  26.237   7.155  13.528
47926W        W13153   0.131  33.997  11.367
47927W        W13154  33.453  14.881  13.910
47928W        W13155  39.493  40.820   4.116
47929W        W13156  41.724  33.901   0.827
47930W        W13157   6.082  30.377   5.248
47931W        W13158  33.126  16.636  12.958
47932W        W13159  20.487   1.268   2.673
47933W        W13160  39.427   9.389  14.467
47934W        W13161   9.417   7.860   2.201
47935W        W13162  12.725  44.580   0.156
47936W        W13163  20.499  10.290   3.965
47937W        W13164  33.965  39.685   3.862
47938W        W13165   0.401  35.573  13.822
47939W        W13166  39.362   9.126  12.543
47940W        W13167  18.659  40.018   2.888
47941W        W13168  44.687  13.719  10.877
47942W        W13169  37.771  32.815  13.044
47943W        W13170  32.902  41.127   2.882
47944W        W13171  28.007  19.587   3.094
47945W        W13172   2.010  20.477   2.258
47946W        W13173  15.253  24.381   2.600
47947W        W13174  16.573  39.563  11.835
47948W        W13175  13.144   1.218  14.718
47949W        W13176   2.955  23.471  13.435
47950W        W13177  16.045  39.352  11.165
47951W        W13178  36.895  38.908   1.369
47952W        W13179  23.487   4.248  11.632
47953W        W13180  30.112  20.110   0.916
47954W        W13181  13.583  10.592   2.116
47955W        W13182  41.806  14.568  14.860
47956W        W13183  23.104  44.763  10.654
47957W        W13184  29.327   1.084  11.948
47958W        W13185  36.941  14.532  14.755
47959W        W13186  17.293  26.195  13.346
47960W        W13187  26.662   5.441  14.542
47961W        W13188   0.459  22.762   1.463
47962W        W13189  21.733  24.678   4.116
47963W        W13190   1.737  43.323  12.025
47964W        W13191  33.182   6.377  14.431
47965W        W13192  22.476  11.796   1.689
47966W        W13193  20.705   0.798   2.648
47967W        W13194  33.538  39.844  13.230
47968W        W13195   3.362  17.597  12.375
47969W        W13196  37.410  43.787   2.737
47970W        W13197  15.330  42.434  14.988
47971W        W13198  17.130  22.053  11.318
47972W        W13199  26.376  11.748  12.507
47973W        W13200  31.512  44.303  14.476
47974W        W13201  41.218  16.806  12.985
47975W        W13202  12.671  31.111  11.613
47976W        W13203   4.005  26.699   2.546
47977W        W13204  35.422  16.333   1.009
47978W        W13205  24.302  44.879  14.003
47979W        W13206   9.341  44.436  12.428
47980W        W13207  35.868  21.046   3.669
47981W        W13208  44.914   1.766   0.403
47982W        W13209   7.762   2.115   0.028
47983W        W13210  14.335  32.698  14.875
47984W        W13211  31.402  32.443   3.827
47985W        W13212   4.571  28.877  13.484
47986W        W13213  25.037   1.764   3.095
47987W        W13214  24.492  36.026   4.130
47988W        W13215   8.938  23.496  14.460
47989W        W13216  43.919  22.415   0.560
47990W        W13217  12.566  11.880  11.324
47991W        W13218  24.939   6.806  14.003
47992W        W13219  18.258  42.404  10.443
47993W        W13220  25.262  19.524  11.642
47994W        W13221  12.828  18.338   2.431
47995W        W13222  25.152   7.755  14.542
47996W        W13223  25.693  43.946   2.818
47997W        W13224  25.448   7.045   2.750
47998W        W13225   1.906  32.633   0.968
47999W        W13226  14.818  11.165  11.190
48000W        W13227  24.060  41.383  13.994
48001W        W13228  35.518  28.939  14.153
48002W        W13229  35.274   2.342  14.658
48003W        W13230   8.287  14.979   4.622
48004W        W13231  23.305  16.983   2.573
48005W        W13232  31.922  44.322   3.237
48006W        W13233   9.066  17.718   3.641
48007W        W13234  18.081  24.167  12.974
48008W        W13235   7.896   4.490  14.468
48009W        W13236   3.373   2.972   3.485
48010W        W13237  27.289  15.944   1.330
48011W        W13238  25.144   5.859   2.359
48012W        W13239  14.785  11.680  13.884
48013W        W13240  17.843  11.038  10.806
48014W        W13241   6.955  35.095   0.890
48015W        W13242  29.620   7.140  14.929
48016W        W13243   5.265  15.295   5.156
48017W        W13244  39.960  24.695  12.223
48018W        W13245  27.871   7.763  11.754
48019W        W13246  28.111   2.291   0.914
48020W        W13247  28.157  41.528  11.212
48021W        W13248  38.750   6.208   3.634
48022W        W13249  43.940  28.421   5.096
48023W        W13250  37.291  40.233  12.568
48024W        W13251  15.486  28.376  13.748
48025W        W13252   2.880  36.935  11.165
48026W        W13253  44.523  39.168   2.728
48027W        W13254  35.611  31.175  11.374
48028W        W13255  14.949  11.504  13.430
48029W        W13256  36.351  41.336   3.683
48030W        W13257   9.836   2.261   3.609
48031W        W13258  36.879   8.421   0.628
48032W        W13259  26.259   8.341  13.467
48033W        W13260  28.749   7.627   3.181
48034W        W13261  17.020  29.533   3.845
48035W        W13262  41.195   1.009   2.210
48036W        W13263  20.574  14.775  11.955
48037W        W13264  37.376  34.644   0.188
48038W        W13265  43.736  13.857  13.019
48039W        W13266  37.859  40.529  11.221
48040W        W13267  13.973  22.544   3.953
48041W        W13268  21.654  20.615   4.835
48042W        W13269  37.418   5.689   1.423
48043W        W13270  23.630  32.950  12.308
48044W        W13271  19.368  38.331   3.492
48045W        W13272  26.068   3.935   2.616
48046W        W13273  32.470  42.846   1.006
48047W        W13274  38.518  16.414  10.478
48048W        W13275   3.806  44.918   0.913
48049W        W13276   9.935  27.474  14.842
48050W        W13277   9.921  27.098  11.920
48051W        W13278  17.185  36.601  14.265
48052W        W13279   2.025  20.933   4.140
48053W        W13280  23.017  16.272   1.472
48054W        W13281  15.966  26.116  13.847
48055W        W13282  24.995  36.061  10.751
48056W        W13283   2.025  25.918  11.265
48057W        W13284  23.179   0.746   1.287
48058W        W13285  36.579  24.184   0.887
48059W        W13286  16.132  37.059  14.415
48060W        W13287  27.585  20.481   0.843
48061W        W13288  35.419  36.891  13.585
48062W        W13289  43.248  36.838  12.066
48063W        W13290  22.950  19.201  12.866
48064W        W13291  29.137  34.780   4.926
48065W        W13292   9.652  34.183   4.584
48066W        W13293  33.987  40.422   4.411
48067W        W13294  33.216  17.760  12.144
48068W        W13295   3.876  14.551   2.633
48069W        W13296  20.264   2.978   2.299
48070W        W13297  18.957  28.037   5.065
48071W        W13298  33.950  35.399   3.976
48072W        W13299  20.574   7.152   2.457
48073W        W13300  15.271   9.764  11.873
48074W        W13301  30.579  11.905  12.873
48075W        W13302  13.288   3.021  10.523
48076W        W13303  43.865  28.980   0.791
48077W        W13304  31.425  25.243   2.274
48078W        W13305   9.737  13.711  11.558
48079W        W13306  36.372  16.554  13.944
48080W        W13307  26.546   5.218  12.976
48081W        W13308   2.392  19.579  12.861
48082W        W13309  18.860  32.442   2.145
48083W        W13310  33.700  18.570  10.774
48084W        W13311  33.164  38.895  12.145
48085W        W13312  31.419  18.476   3.223
48086W        W13313  23.565   8.418  12.557
48087W        W13314  30.446  34.886  11.189
48088W        W13315  33.443  38.124   3.219
48089W        W13316  27.970  27.931   0.052
48090W        W13317  37.971  12.682   1.641
48091W        W13318  22.039  38.591   4.531
48092W        W13319  35.056  29.356   3.113
48093W        W13320  39.055  16.327   4.224
48094W        W13321  30.502  31.080   3.589
48095W        W13322  26.442   6.262   2.215
48096W        W13323  17.365  24.051  10.693
48097W        W13324  14.463   8.131  11.160
48098W        W13325   1.805   7.339  13.114
48099W        W13326  14.863  21.505   0.195
48100W        W13327  41.875  30.586  11.028
48101W        W13328  38.931  42.900  11.917
48102W        W13329  42.435   0.494   4.634
48103W        W13330  43.683  12.877  10.713
48104W        W13331  23.048  13.615   0.848
48105W        W13332  31.974  12.364   3.140
48106W        W13333   8.598  40.362   1.681
48107W        W13334  33.431  21.697  12.658
48108W        W13335  22.158  27.858  13.395
48109W        W13336   9.391  18.609   9.615
48110W        W13337   0.732  35.256   3.410
48111W        W13338  15.090   6.857   4.036
48112W        W13339  26.643  15.863  12.576
48113W        W13340  27.959  31.808  11.969
48114W        W13341  15.389   3.392   4.549
48115W        W13342  24.642  18.437   1.405
48116W        W13343  43.465  12.216  13.973
48117W        W13344  28.955  38.028  14.954
48118W        W13345  44.836  29.018   2.596
48119W        W13346  35.842  25.961   0.733
48120W        W13347  11.660   2.426  10.720
48121W        W13348   3.801   3.029   4.202
48122W        W13349  31.650  40.843   4.118
48123W        W13350  39.874   0.357   1.588
48124W        W13351   3.497   1.729   5.054
48125W        W13352  40.810  27.935  13.885
48126W        W13353  34.477  27.186   2.824
48127W        W13354  18.094  36.336   4.117
48128W        W13355  42.718  19.573   0.691
48129W        W13356  23.972  21.156   4.485
48130W        W13357  18.789   6.097  10.947
48131W        W13358   2.638   2.021   2.180
48132W        W13359  27.237  22.089  14.694
48133W        W13360  14.833  40.190  11.625
48134W        W13361  34.395  15.841   4.589
48135W        W13362   6.858   9.402  10.554
48136W        W13363  18.050  40.595   1.866
48137W        W13364  38.094   1.744   0.826
48138W        W13365  31.940  43.848   1.261
48139W        W13366  19.179  43.411   4.568
48140W        W13367   6.168  10.654  12.076
48141W        W13368  31.590  32.524   2.188
48142W        W13369  16.257  19.099   2.379
48143W        W13370  16.633  28.013  13.651
48144W        W13371  10.831  29.669  11.107
48145W        W13372  16.629  29.426  11.140
48146W        W13373  31.414  15.635   0.276
48147W        W13374  36.482  28.502  14.433
48148W        W13375   6.848   5.185   0.909
48149W        W13376  26.321  20.184   2.253
48150W        W13377  38.404  41.709  14.710
48151W        W13378   9.748  17.716  11.479
48152W        W13379  20.874  41.632   0.782
48153W        W13380   8.521  43.503  12.021
48154W        W13381  30.398   8.096  13.937
48155W        W13382  34.071  37.052   0.287
48156W        W13383  12.693  37.234  13.426
48157W        W13384  12.013  39.846   4.180
48158W        W13385   0.380  37.339   0.862
48159W        W13386  33.688  39.044   0.516
48160W        W13387  27.688  36.526  11.952
48161W        W13388  23.563   8.794   3.882
48162W        W13389  19.968  19.240   2.940
48163W        W13390   7.985   8.164  11.088
48164W        W13391  26.598  28.844   2.828
48165W        W13392  14.836  26.561   3.972
48166W        W13393  42.445  22.034   0.302
48167W        W13394  23.595  35.221  12.655
48168W        W13395  36.873  36.419  13.892
48169W        W13396  24.668  30.535   2.163
48170W        W13397  20.222  12.969   4.315
48171W        W13398  31.635  22.262  10.744
48172W        W13399   5.967  28.051  11.524
48173W        W13400  23.260   1.553  13.976
48174W        W13401  41.480  22.037  14.418
48175W        W13402   7.370  42.943  12.485
48176W        W13403  41.146  11.620  12.065
48177W        W13404  12.806   9.199   2.889
48178W        W13405   6.075  10.454   3.675
48179W        W13406  22.349  39.300  13.783
48180W        W13407   6.094  24.583   0.183
48181W        W13408  29.823  40.233  10.997
48182W        W13409   1.864   3.426  11.091
48183W        W13410  33.476  25.257   3.807
48184W        W13411  40.918  37.803   3.238
48185W        W13412   1.748  33.949   1.710
48186W        W13413  13.268  39.352  14.242
48187W        W13414  42.800  33.917   3.796
48188W        W13415  15.252  27.899   3.338
48189W        W13416  12.455  22.632  11.512
48190W        W13417   8.200  31.923   4.693
48191W        W13418   1.865  33.027   0.261
48192W        W13419   7.860  43.805   4.619
48193W        W13420  28.493  12.460  11.108
48194W        W13421  42.794  33.367  11.209
48195W        W13422  38.262  39.603  11.282
48196W        W13423  43.476  43.076  12.284
48197W        W13424  20.144  30.864   0.453
48198W        W13425  33.160  23.210   2.770
48199W        W13426   6.988  34.246  13.574
48200W        W13427  42.536  42.276  13.506
48201W        W13428  29.631   4.717   4.599
48202W        W13429   2.145  31.641  14.487
48203W        W13430  22.506  12.878  12.167
48204W        W13431  20.157  26.293  14.970
48205W        W13432  31.657  31.063  14.045
48206W        W13433  31.198  35.334   5.034
48207W        W13434  16.472  21.064   3.285
48208W        W13435   1.602  29.072   4.872
48209W        W13436  44.346  36.403   0.175
48210W        W13437   2.963  39.480   2.201
48211W        W13438  30.769   6.739  11.218
48212W        W13439   6.619  13.692   1.538
48213W        W13440  25.664  34.649  14.475
48214W        W13441  30.060  20.721  13.177
48215W        W13442  34.463  15.046  14.664
48216W        W13443  15.407  20.292  12.177
48217W        W13444  44.463  31.066   4.739
48218W        W13445  43.144  29.311   2.085
48219W        W13446  22.986  13.118  13.448
48220W        W13447  13.199  41.109  12.944
48221W        W13448   1.949  28.039   0.912
48222W        W13449  38.955  39.725  11.474
48223W        W13450  40.095  32.354   0.286
48224W        W13451  33.470  17.221   3.679
48225W        W13452  37.605   3.183  13.310
48226W        W13453  27.397  32.640   4.240
48227W        W13454  31.217  22.703   1.863
48228W        W13455  22.075  15.378   2.937
48229W        W13456  39.654  17.574   1.427
48230W        W13457  16.584  41.374  12.217
48231W        W13458  30.668  11.621   4.569
48232W        W13459  43.472   3.934   0.337
48233W        W13460  14.741  19.309   0.255
48234W        W13461  34.646  14.339  14.457
48235W        W13462  33.624  16.761  12.959
48236W        W13463   2.379  15.903  13.855
48237W        W13464  12.108  34.345  14.370
48238W        W13465  41.354  32.327  13.532
48239W        W13466  37.790  10.343   4.089
48240W        W13467  19.725   9.113   2.289
48241W        W13468  12.182   5.715  14.240
48242W        W13469  31.823   3.051  11.972
48243W        W13470  29.660  43.785   3.640
48244W        W13471  33.926  39.123  12.663
48245W        W13472   2.598  23.479   4.747
48246W        W13473  35.388  29.161   1.684
48247W        W13474  17.297  10.669  12.474
48248W        W13475  38.592  37.577   2.798
48249W        W13476  11.787  20.953  12.556
48250W        W13477   7.584  32.602  14.465
48251W        W13478  11.615  19.237   1.341
48252W        W13479   4.950  39.545   4.808
48253W        W13480  36.320  38.638   4.191
48254W        W13481   6.875   1.709  13.430
48255W        W13482  13.392  12.222  14.378
48256W        W13483  21.053  42.808  10.349
48257W        W13484  23.763  18.845  11.507
48258W        W13485  27.782  42.508   1.355
48259W        W13486  32.309  44.325  10.072
48260W        W13487  10.120  26.681   3.708
48261W        W13488  13.265  41.193   0.900
48262W        W13489  13.624  23.048  14.487
48263W        W13490  44.518  21.587   1.373
48264W        W13491  15.590   8.257   3.666
48265W        W13492  34.207  44.461  13.509
48266W        W13493  35.914  44.751   0.760
48267W        W13494  41.775   5.957   1.504
48268W        W13495   2.305  44.161   0.031
48269W        W13496  25.419  26.337  12.858
48270W        W13497   6.929   8.615  13.384
48271W        W13498   4.732   9.108  13.902
48272W        W13499  37.372  31.917  12.062
48273W        W13500  38.353   7.468   4.232
48274W        W13501  34.270  12.414  12.933
48275W        W13502  13.810   2.122   2.871
48276W        W13503   2.211  38.446   2.239
48277W        W13504  16.049  35.253   1.719
48278W        W13505  39.538  27.427   2.416
48279W        W13506  31.009  20.622  11.897
48280W        W13507   2.426  19.979   3.606
48281W        W13508  16.309  17.086  12.109
48282W        W13509  21.571   2.534  11.408
48283W        W13510  38.371   9.240  12.318
48284W        W13511  11.589  43.998   1.170
48285W        W13512   4.393  43.020  11.958
48286W        W13513  31.359   1.253  12.673
48287W        W13514  38.494  43.467  11.237
48288W        W13515  26.716   2.263  12.894
48289W        W13516  38.238  15.222  14.902
48290W        W13517  38.105   5.277  14.855
48291W        W13518  38.075   5.590   3.067
48292W        W13519  31.338  24.684   1.230
48293W        W13520  14.505  30.122   3.180
48294W        W13521  19.066  42.468   3.791
48295W        W13522   9.249   6.399  13.957
48296W        W13523  31.184  28.090  11.965
48297W        W13524  24.969  35.370  10.803
48298W        W13525   0.494   1.861  11.696
48299W        W13526  28.908  10.170   2.547
48300W        W13527  15.637   7.554   0.485
48301W        W13528  38.317  36.680   0.808
48302W        W13529  30.523  20.045  13.433
48303W        W13530  18.542   9.566  14.345
48304W        W13531  18.376  43.315   1.433
48305W        W13532  37.551  32.577  14.345
48306W        W13533  35.962   3.917   4.088
48307W        W13534   1.360  27.686  13.926
48308W        W13535  40.089  11.360  14.949
48309W        W13536  15.568  26.409  14.024
48310W        W13537   1.876   3.628  13.499
48311W        W13538  40.328   8.609  13.731
48312W        W13539  20.577  22.310  12.510
48313W        W13540  32.568  37.821   1.824
48314W        W13541  40.206  30.954  10.501
48315W        W13542  27.629  41.522  14.053
48316W        W13543  21.201  16.771   1.993
48317W        W13544  41.841  36.644  11.622
48318W        W13545  31.050   5.610   9.797
48319W        W13546  32.181  28.072  11.973
48320W        W13547  30.482   8.433   3.730
48321W        W13548  32.216  26.790  14.449
48322W        W13549  39.972  44.326   2.894
48323W        W13550  10.240  36.595  10.615
48324W        W13551   5.904  33.140   0.739
48325W        W13552  17.789  18.745   4.122
48326W        W13553  15.164  18.994   1.320
48327W        W13554  25.608  41.537   3.119
48328W        W13555   0.760  24.462  11.535
48329W        W13556  42.833  16.329  13.834
48330W        W13557  32.214  41.170  13.431
48331W        W13558  13.059  25.192   4.494
48332W        W13559  24.155  33.704  13.825
48333W        W13560  19.513  26.172   4.542
48334W        W13561  31.539  31.903   3.827
48335W        W13562  10.577  38.900  14.943
48336W        W13563  30.920  18.957   2.902
48337W        W13564  14.711   4.675  11.173
48338W        W13565  15.558   1.796   0.930
48339W        W13566   0.851  28.974  13.832
48340W        W13567  43.798  32.115   0.340
48341W        W13568   0.916  17.618  11.559
48342W        W13569  43.218  24.109  13.924
48343W        W13570  30.622   1.637  13.799
48344W        W13571  31.554  40.012   3.135
48345W        W13572  23.137  15.931   4.386
48346W        W13573  27.913  19.260   0.860
48347W        W13574  13.504   1.761  10.429
48348W        W13575  15.329   7.690   4.004
48349W        W13576  42.330  10.843  10.645
48350W        W13577  33.344   7.931  11.551
48351W        W13578  31.701  43.788  14.491
48352W        W13579  29.028  14.206  12.190
48353W        W13580  25.743  16.333   2.854
48354W        W13581   4.691  26.054  10.601
48355W        W13582  26.883  42.225   2.511
48356W        W13583  21.474  42.376  10.554
48357W        W13584  31.161  18.081  10.486
48358W        W13585  44.532   7.726  12.035
48359W        W13586   2.418  31.185   0.288
48360W        W13587  32.614  33.485   1.296
48361W        W13588  10.305  32.666  13.084
48362W        W13589  15.033  12.040  13.333
48363W        W13590  24.659  24.017   4.569
48364W        W13591  29.397  14.100   2.514
48365W        W13592  21.715  20.755   4.245
48366W        W13593  18.975  32.416  12.929
48367W        W13594  39.924  21.454  11.971
48368W        W13595  26.416  26.514   4.529
48369W        W13596  23.461   1.820   1.998
48370W        W13597   3.347   8.485  14.488
48371W        W13598  41.969   0.699   0.811
48372W        W13599   7.187   2.573   2.085
48373W        W13600   0.729   8.084  10.650
48374W        W13601  35.209  40.960   4.181
48375W        W13602  44.462   5.168   3.560
48376W        W13603  35.269  16.813   4.112
48377W        W13604  11.695  22.063   3.609
48378W        W13605   3.845   4.840   2.390
48379W        W13606   9.761  25.338  10.547
48380W        W13607  43.263   4.905   0.129
48381W        W13608  34.843  18.602  11.594
48382W        W13609  32.171  17.743   4.616
48383W        W13610  11.714   2.989   2.354
48384W        W13611  41.853   9.144  13.347
48385W        W13612  16.022  43.495   2.728
48386W        W13613  42.383  24.704   4.573
48387W        W13614  22.741  18.711  11.593
48388W        W13615  37.962   6.704  12.609
48389W        W13616  15.688  40.498   0.809
48390W        W13617  15.621  14.754  14.944
48391W        W13618  32.646  17.240  10.585
48392W        W13619   2.876  14.561   0.209
48393W        W13620  18.927  39.558   2.173
48394W        W13621   1.537  21.509  12.114
48395W        W13622  32.450  17.838   0.773
48396W        W13623  19.311  40.342   1.833
48397W        W13624  35.868   0.033   2.228
48398W        W13625   8.879  23.187  12.931
48399W        W13626   2.887  16.304  14.942
48400W        W13627   1.447  21.128  12.987
48401W        W13628  43.534   7.341   4.456
48402W        W13629  11.512  38.023  12.831
48403W        W13630  24.179  37.447  11.641
48404W        W13631  11.784  44.459   4.967
48405W        W13632   4.288  42.300   4.501
48406W        W13633  18.882  13.198  13.965
48407W        W13634  17.200  12.427  10.192
48408W        W13635  43.674  37.081  11.912
48409W        W13636  23.715  41.619   1.024
48410W        W13637   3.656  10.357   0.718
48411W        W13638   0.020  14.869   1.493
48412W        W13639   2.700   8.684   2.334
48413W        W13640   4.721  15.146  14.103
48414W        W13641   3.197  19.126   3.345
48415W        W13642  32.354  15.225  11.544
48416W        W13643  44.019  42.137  12.822
48417W        W13644  18.520   7.890   1.642
48418W        W13645  14.441  26.905  13.667
48419W        W13646  27.914  16.012   4.483
48420W        W13647  19.759  37.002  11.156
48421W        W13648   1.239   4.714   1.992
48422W        W13649   0.488  12.423   0.527
48423W        W13650   8.607  40.773   0.905
48424W        W13651  17.213  15.673   0.314
48425W        W13652  43.495  19.612   1.813
48426W        W13653  17.893   6.997   4.603
48427W        W13654  42.846   3.780   1.468
48428W        W13655   6.651  35.870  12.687
48429W        W13656  32.432   1.368  14.695
48430W        W13657  27.158   5.679   0.968
48431W        W13658  18.127  11.208  14.709
48432W        W13659  16.114  42.943  11.765
48433W        W13660   2.806  15.452   4.479
48434W        W13661  16.648  26.814   1.713
48435W        W13662  18.966  22.288   3.607
48436W        W13663  29.231   2.176  10.644
48437W        W13664   4.459  17.914  10.451
48438W        W13665   6.878  32.484   3.726
48439W        W13666  22.979   7.464  14.342
48440W        W13667   0.736  43.171   2.698
48441W        W13668  29.197  22.169  10.801
48442W        W13669  22.995   9.402  12.043
48443W        W13670  44.163  10.797  10.687
48444W        W13671  39.504  26.200   0.748
48445W        W13672   0.856  21.188   0.273
48446W        W13673  28.138  18.145  14.483
48447W        W13674   0.302  22.465  14.211
48448W        W13675  16.664   3.962   3.218
48449W        W13676  12.340  17.348  11.174
48450W        W13677  27.586  38.822  12.573
48451W        W13678  13.974  12.695   3.530
48452W        W13679   7.552  26.366   3.738
48453W        W13680  13.301  36.144  12.581
48454W        W13681  34.451  35.332  11.975
48455W        W13682  18.285   4.969  11.116
48456W        W13683   0.761  33.912   2.817
48457W        W13684  27.151  41.973  12.924
48458W        W13685  22.615  12.242   4.895
48459W        W13686   9.776  40.098  14.438
48460W        W13687   8.783  32.073  13.116
48461W        W13688  18.791  13.025   4.066
48462W        W13689   3.432  29.157   1.984
48463W        W13690  10.768   2.888   3.434
48464W        W13691  39.546  39.968  10.758
48465W        W13692  31.659   1.323  11.250
48466W        W13693  33.257  21.196  14.910
48467W        W13694   1.883  14.670  14.635
48468W        W13695  14.627  35.921  12.060
48469W        W13696  27.582   1.947   0.821
48470W        W13697   2.200  29.084  12.344
48471W        W13698  16.743  19.909   1.351
48472W        W13699  38.073   4.005  11.506
48473W        W13700  39.830  22.531  12.139
48474W        W13701  29.162   9.605   0.207
48475W        W13702   6.719  10.668  10.750
48476W        W13703  40.483  11.123  13.815
48477W        W13704  24.321  22.059  12.594
48478W        W13705  26.921  28.410   3.816
48479W        W13706  37.469  14.106  14.247
48480W        W13707  36.655  30.897   2.656
48481W        W13708  27.246   5.452   2.867
48482W        W13709  40.951  35.413  12.691
48483W        W13710  33.964  15.919   2.820
48484W        W13711  38.255  16.658   2.084
48485W        W13712  12.064  40.106   1.215
48486W        W13713  44.897   7.850  14.757
48487W        W13714  26.706  34.353   0.772
48488W        W13715  18.306   0.501  12.494
48489W        W13716  37.893   8.862   4.298
48490W        W13717  22.062  35.425  10.902
48491W        W13718  29.441   5.830   0.215
48492W        W13719   2.852  38.990  12.228
48493W        W13720  11.875  32.361   1.250
48494W        W13721  21.633  19.343   4.216
48495W        W13722  26.889  12.325   0.246
48496W        W13723  38.827  13.383   1.828
48497W        W13724  33.836  31.383   4.067
48498W        W13725  13.833  16.296  13.324
48499W        W13726  40.960  15.689  11.650
48500W        W13727  22.089  40.824  10.464
48501W        W13728  15.872   1.966   2.295
48502W        W13729  20.117  19.806  14.897
48503W        W13730  25.674  35.989   0.413
48504W        W13731  35.920   6.616  14.762
48505W        W13732  42.472  14.110  14.145
48506W        W13733  37.549   2.839   4.097
48507W        W13734  40.920  20.569   3.228
48508W        W13735  28.513   9.137  11.943
48509W        W13736   2.377  22.984   2.178
48510W        W13737   8.319   2.720  13.429
48511W        W13738  28.621   0.292  10.577
48512W        W13739   1.296  28.971  13.563
48513W        W13740   5.300  44.430   3.079
48514W        W13741  34.559  16.027  12.384
48515W        W13742   6.764   3.892   4.663
48516W        W13743  16.657  43.569  14.044
48517W        W13744  10.915  25.281   2.569
48518W        W13745   5.741  18.035   0.344
48519W        W13746  16.966  26.246  12.097
48520W        W13747   3.739   7.902  13.454
48521W        W13748  15.757  28.526  12.436
48522W        W13749  23.110   2.537   1.646
48523W        W13750   5.849   7.906  11.517
48524W        W13751  34.878  18.310   3.130
48525W        W13752  12.553  21.832  11.786
48526W        W13753  42.866  14.863   3.147
48527W        W13754  10.721  40.858   4.554
48528W        W13755  32.323  31.445   3.020
48529W        W13756  40.574  38.912   1.286
48530W        W13757  43.280  27.496   3.342
48531W        W13758  24.072  19.617   0.621
48532W        W13759  12.908  18.122  11.229
48533W        W13760  16.969  14.068  10.997
48534W        W13761  16.680   3.680  11.195
48535W        W13762  25.269  18.187   1.236
48536W        W13763  17.109  33.430   4.613
48537W        W13764  29.179  22.210   2.790
48538W        W13765  13.978  37.969  13.228
48539W        W13766  20.275  39.133   4.832
48540W        W13767  35.979  16.049   2.225
48541W        W13768  22.639  42.044   3.774
48542W        W13769   6.173  40.509   1.665
48543W        W13770  28.475  19.739   2.878
48544W        W13771  20.537   6.671   1.771
48545W        W13772  17.625   0.440   0.508
48546W        W13773   5.124   3.394   4.892
48547W        W13774  26.926  11.734   1.915
48548W        W13775   6.671  42.377   1.021
48549W        W13776  22.205  40.373  12.642
48550W        W13777  40.705   3.388  11.944
48551W        W13778   9.216   5.384  14.010
48552W        W13779   9.258   5.822  10.911
48553W        W13780  27.467  15.899   2.231
48554W        W13781  36.446  40.506  13.834
48555W        W13782  43.632  18.775  11.659
48556W        W13783  26.920   2.138  10.990
48557W        W13784   8.807   0.436   2.435
48558W        W13785  27.288  26.518  12.991
48559W        W13786  44.539  12.816   0.069
48560W        W13787   1.461  20.158  12.995
48561W        W13788   4.303   8.776  13.731
48562W        W13789   0.273  22.818  12.312
48563W        W13790   2.517  28.602   1.769
48564W        W13791  13.646  36.841  13.301
48565W        W13792  20.488  18.300  10.676
48566W        W13793  23.927  18.124   2.815
48567W        W13794  31.463  21.636  14.936
48568W        W13795  25.341   1.464  10.697
48569W        W13796  40.042  13.088  11.698
48570W        W13797  27.937  36.834   2.752
48571W        W13798   8.313   5.795  12.692
48572W        W13799  37.360   6.537   1.646
48573W        W13800  43.951   4.525   1.653
48574W        W13801   9.951  42.297  12.342
48575W        W13802  42.839  34.399   1.093
48576W        W13803  35.185  25.984  14.990
48577W        W13804  27.455  29.871  10.684
48578W        W13805   2.427  28.091   1.845
48579W        W13806  33.547  15.201  14.928
48580W        W13807  31.156  28.697  10.337
48581W        W13808  10.717   7.862  11.119
48582W        W13809   7.438  28.479  14.360
48583W        W13810  17.694  27.960   1.851
48584W        W13811  40.251  37.011  11.610
48585W        W13812  32.142  12.217   3.614
48586W        W13813  27.109   8.752  12.383
48587W        W13814  11.794  44.785  10.645
48588W        W13815   9.376   1.095  11.619
48589W        W13816   4.297  40.070  14.009
48590W        W13817  29.547  15.612   3.031
48591W        W13818  21.712  39.400   0.733
48592W        W13819  19.057  24.646  13.050
48593W        W13820  34.365  10.972  10.642
48594W        W13821   1.970   6.265   1.848
48595W        W13822  25.650  25.161   2.732
48596W        W13823  13.201  13.054  14.126
48597W        W13824  17.081  22.347   1.340
48598W        W13825  16.353  27.620  14.301
48599W        W13826  24.365  21.701   0.000
48600W        W13827   9.891  32.915  14.485
48601W        W13828   2.253  41.921   5.422
48602W        W13829  13.635   1.515   4.648
48603W        W13830  30.458  21.927   4.683
48604W        W13831   7.809   0.708   2.889
48605W        W13832  41.328   3.687  11.460
48606W        W13833  34.826   3.388   1.661
48607W        W13834   5.709  35.344   1.495
48608W        W13835  25.192  18.846  14.009
48609W        W13836  43.721   6.460   1.763
48610W        W13837  24.925  35.390   4.585
48611W        W13838  43.784  12.596  12.095
48612W        W13839  38.428   6.683   2.833
48613W        W13840  32.443  35.892  10.587
48614W        W13841  10.191   1.981   4.125
48615W        W13842  37.828  31.772  13.824
48616W        W13843  23.675  22.418   1.909
48617W        W13844  39.861  44.085  14.370
48618W        W13845  42.497  32.547  13.494
48619W        W13846   2.589  35.733   1.218
48620W        W13847   1.747  31.952  11.453
48621W        W13848  24.605   2.258  12.807
48622W        W13849  12.306  22.824   4.883
48623W        W13850  40.095   0.012   3.212
48624W        W13851  12.411   7.834  11.324
48625W        W13852   1.805  27.822  14.978
48626W        W13853  41.514  19.803  12.492
48627W        W13854   9.353   9.564  14.874
48628W        W13855   5.329   3.789  11.003
48629W        W13856   0.930  16.553  12.990
48630W        W13857   1.415  35.093  13.046
48631W        W13858  17.535  24.109   5.312
48632W        W13859   7.674   8.940  14.644
48633W        W13860   9.389  10.288  13.416
48634W        W13861  36.865  42.185   1.738
48635W        W13862  39.847   9.276  12.430
48636W        W13863  42.943  34.415   0.589
48637W        W13864  40.310   7.176  12.050
48638W        W13865   2.811  34.735   4.732
48639W        W13866   0.976  17.307   3.691
48640W        W13867  24.050  22.267   3.639
48641W        W13868   8.472  14.603   0.422
48642W        W13869  21.903  11.651  11.203
48643W        W13870  24.623  20.032  11.650
48644W        W13871  12.236   3.946  14.930
48645W        W13872  42.894   8.312   3.617
48646W        W13873  27.215  20.282   2.456
48647W        W13874  21.516  11.947  11.337
48648W        W13875  37.554   0.537   0.778
48649W        W13876  26.934   7.720  14.906
48650W        W13877   5.693  30.613   1.195
48651W        W13878  40.554  21.207  10.721
48652W        W13879  28.357  13.951  11.131
48653W        W13880  29.086  31.743  10.554
48654W        W13881   4.751   4.815  13.337
48655W        W13882  25.539  43.721   3.838
48656W        W13883  20.129   6.794   2.709
48657W        W13884  38.834  24.376   1.849
48658W        W13885  33.636  44.327  11.492
48659W        W13886  30.340  35.521   2.446
48660W        W13887   3.846  13.092  14.369
48661W        W13888  26.311  25.275  10.702
48662W        W13889  30.969  41.798   3.182
48663W        W13890  11.381  14.175   4.496
48664W        W13891  28.625   1.462   0.915
48665W        W13892  13.045   3.851  11.031
48666W        W13893  32.628  17.790  14.434
48667W        W13894  20.638  33.137   1.967
48668W        W13895   8.884  12.598   3.650
48669W        W13896  13.095  31.670   0.551
48670W        W13897  21.196   6.378   1.319
48671W        W13898  22.742  15.722  10.602
48672W        W13899  23.468  16.160   2.426
48673W        W13900  33.178  30.269   1.866
48674W        W13901  36.663  41.514   1.202
48675W        W13902   0.247  21.507   1.796
48676W        W13903  11.134  26.056   0.791
48677W        W13904  34.364  10.416   3.139
48678W        W13905  43.647  26.871   2.636
48679W        W13906   4.854  12.716   3.118
48680W        W13907   7.425   4.313  10.991
48681W        W13908  15.063  23.124   0.796
48682W        W13909  44.903  26.909  14.836
48683W        W13910   2.706  26.871  12.670
48684W        W13911   7.247  23.610   3.060
48685W        W13912  36.087  33.994   0.700
48686W        W13913  22.183   2.515   3.333
48687W        W13914  23.814   8.200   2.671
48688W        W13915   7.677  22.761  11.165
48689W        W13916  30.527  42.477  11.101
48690W        W13917  38.290  14.080   0.826
48691W        W13918  19.097  19.265   0.261
48692W        W13919   6.647  39.272  11.896
48693W        W13920  23.126  13.161  10.677
48694W        W13921  12.092  20.171   3.553
48695W        W13922  10.943  43.977  11.156
48696W        W13923  23.882  43.464  11.592
48697W        W13924  32.496  11.142   4.353
48698W        W13925  35.489  10.862  13.453
48699W        W13926   2.468  13.210  11.252
48700W        W13927  11.128  22.672  11.144
48701W        W13928  20.146  43.353   3.727
48702W        W13929  43.025  14.734  14.527
48703W        W13930  29.445  32.886  12.710
48704W        W13931  24.746  27.923   1.276
48705W        W13932   4.304  14.062  10.717
48706W        W13933  41.371  22.508   1.134
48707W        W13934   9.008   9.888   4.419
48708W        W13935  23.976  10.809  11.579
48709W        W13936  24.586   6.551  11.025
48710W        W13937  22.247  22.584  14.861
48711W        W13938  12.182  25.745  13.835
48712W        W13939  10.500  36.916  12.081
48713W        W13940  38.359  15.853   0.401
48714W        W13941   7.442  37.903  12.965
48715W        W13942  31.717  39.982  12.452
48716W        W13943   5.847  10.084  11.411
48717W        W13944   9.264  39.026  14.288
48718W        W13945  11.812  28.517   2.310
48719W        W13946  33.379  42.991  14.480
48720W        W13947  29.923  43.438   2.382
48721W        W13948  34.642   5.041   5.163
48722W        W13949   1.032   3.446   1.503
48723W        W13950  13.307  33.415  13.443
48724W        W13951  36.883  31.287  13.083
48725W        W13952  19.132  30.983   2.825
48726W        W13953  30.800   4.760  13.687
48727W        W13954  23.085  19.573  12.462
48728W        W13955   7.750  15.078   0.358
48729W        W13956   4.376   1.890   4.990
48730W        W13957  39.089  22.215  10.645
48731W        W13958   5.766   9.066  14.444
48732W        W13959  34.974   5.906  11.569
48733W        W13960  18.153  24.725   4.296
48734W        W13961  15.579  20.558  10.688
48735W        W13962  10.364  41.110  14.039
48736W        W13963  39.578  14.134  14.401
48737W        W13964  44.761  22.216   4.521
48738W        W13965  35.754   4.644  14.834
48739W        W13966  16.000   1.563  11.635
48740W        W13967  38.471  32.490   3.660
48741W        W13968  39.405  38.028   0.467
48742W        W13969  39.319   8.907   4.657
48743W        W13970  35.211  34.960  14.753
48744W        W13971  27.471   0.883   0.348
48745W        W13972  18.751   3.817  10.762
48746W        W13973   5.817  14.252   3.233
48747W        W13974  17.698  19.846   0.596
48748W        W13975  26.303   1.917  11.657
48749W        W13976  23.210  32.841  12.039
48750W        W13977  30.562   0.479  13.432
48751W        W13978  37.762  25.954  13.916
48752W        W13979  29.378  22.788  10.249
48753W        W13980   3.133   2.835   0.199
48754W        W13981  42.258  34.397  11.648
48755W        W13982   4.269  22.215  12.045
48756W        W13983  30.928  35.101   4.482
48757W        W13984  10.430   4.980   4.636
48758W        W13985  41.978  44.419   0.290
48759W        W13986  10.538  38.802  11.969
48760W        W13987  28.386  11.577  12.030
48761W        W13988   5.750  17.999   3.735
48762W        W13989  11.657  11.875   3.098
48763W        W13990  28.781  34.631   1.696
48764W        W13991  30.579   7.152   1.356
48765W        W13992  24.420  44.900   0.336
48766W        W13993  36.288  10.935  14.303
48767W        W13994  37.944  44.691  13.325
48768W        W13995  41.381  19.038  11.476
48769W        W13996  29.060  36.993  13.976
48770W        W13997  36.590   2.320  14.100
48771W        W13998  33.516  22.471  11.077
48772W        W13999  42.142  29.376  11.571
48773W        W14000  24.761  13.239   1.250
48774W        W14001  10.631  37.900   4.575
48775W        W14002  28.850   5.915  13.271
48776W        W14003   4.842  31.028   1.302
48777W        W14004  14.922   5.848  14.305
48778W        W14005   0.313   3.721   4.696
48779W        W14006   9.297  37.485   1.923
48780W        W14007  26.415  30.934  13.552
48781W        W14008  25.643  25.147   3.935
48782W        W14009  34.296   4.792   4.024
48783W        W14010  42.047  19.093  13.957
48784W        W14011  39.568   5.662  11.384
48785W        W14012  43.642  36.523   1.131
48786W        W14013  24.987   2.774   0.898
48787W        W14014  22.230  14.833   2.808
48788W        W14015  18.800   2.981  14.841
48789W        W14016   6.943  14.260  12.100
48790W        W14017  12.637  10.879   4.314
48791W        W14018  12.044  40.893   2.224
48792W        W14019  44.220  17.382   4.160
48793W        W14020  42.398  43.134  12.969
48794W        W14021  22.131   6.017  11.580
48795W        W14022   3.880  33.538  10.614
48796W        W14023  36.770  18.299   4.774
48797W        W14024  24.216  26.683   1.974
48798W        W14025  31.169  20.056   2.819
48799W        W14026  23.721  43.401   3.589
48800W        W14027  42.210  23.995   1.912
48801W        W14028  28.371  39.955  11.922
48802W        W14029  24.363  16.217   4.676
48803W        W14030  13.813  16.560   3.610
48804W        W14031  15.137   3.873   2.372
48805W        W14032  17.854  39.832  11.413
48806W        W14033   8.263  17.077  12.971
48807W        W14034  15.818  32.271   1.367
48808W        W14035  10.419  31.381  14.845
48809W        W14036   1.258  22.068  13.250
48810W        W14037  15.402  22.043  12.922
48811W        W14038  25.063  11.626  12.047
48812W        W14039  24.685  40.428  12.164
48813W        W14040   0.941  11.913  14.999
48814W        W14041  29.245  17.179  11.486
48815W        W14042   0.327  26.066  10.742
48816W        W14043  38.945   3.808   2.625
48817W        W14044   2.822  20.822  12.500
48818W        W14045  30.098   0.280  12.452
48819W        W14046  19.254  25.599  11.967
48820W        W14047  17.079  25.595   0.234
48821W        W14048  21.253  17.937  12.927
48822W        W14049  30.470  19.593   0.363
48823W        W14050   2.935  23.065   2.452
48824W        W14051  14.764  15.511  12.909
48825W        W14052  44.194  12.844  10.741
48826W        W14053  30.171  25.087   5.474
48827W        W14054  28.123  44.330  10.292
48828W        W14055  34.474  27.212  13.848
48829W        W14056  35.837  26.408   2.349
48830W        W14057  29.110  20.265  13.410
48831W        W14058  36.031   4.518   1.112
48832W        W14059  37.369  36.470  13.763
48833W        W14060   8.212  27.724   3.603
48834W        W14061  21.036  43.672   4.964
48835W        W14062  35.958   8.899   3.988
48836W        W14063   2.587  15.710  13.025
48837W        W14064  38.585  38.187  12.958
48838W        W14065  19.840  15.042  13.371
48839W        W14066  21.193  22.886   1.759
48840W        W14067   1.881  14.042   2.851
48841W        W14068  20.982  12.232  13.055
48842W        W14069  25.529  19.415   2.950
48843W        W14070  15.777  37.829  14.546
48844W        W14071  23.977  22.602   2.801
48845W        W14072  28.121   5.658  14.655
48846W        W14073  17.550  31.127   3.555
48847W        W14074  34.109   1.572   2.248
48848W        W14075   1.966  25.972  14.429
48849W        W14076  11.871  40.199  14.708
48850W        W14077   0.753  31.916  10.506
48851W        W14078   8.798   2.905  12.693
48852W        W14079  41.021  12.520   2.131
48853W        W14080  27.211  16.494   3.140
48854W        W14081  19.675  23.678  13.517
48855W        W14082  17.886  16.057  11.461
48856W        W14083  21.624  23.459  14.374
48857W        W14084  28.951   6.143   2.691
48858W        W14085  12.497   4.138   1.747
48859W        W14086  36.629  41.318   4.727
48860W        W14087  40.702  25.320  13.951
48861W        W14088  29.012  33.393  14.420
48862W        W14089   1.343  31.490   4.106
48863W        W14090  14.783  40.206   4.444
48864W        W14091  23.744  33.827   3.821
48865W        W14092  28.630  24.936   2.793
48866W        W14093  19.170  27.921  12.528
48867W        W14094  27.840   3.472   2.356
48868W        W14095   3.808  15.368   3.085
48869W        W14096  36.376  42.357   0.311
48870W        W14097  28.385  31.981   4.951
48871W        W14098  40.503  25.220  12.520
48872W        W14099   5.269  24.072   4.468
48873W        W14100  23.916  36.924   4.655
48874W        W14101   5.829  33.111  11.275
48875W        W14102  14.593  37.651   4.184
48876W        W14103  29.370  37.767  14.360
48877W        W14104  25.522  41.033  11.089
48878W        W14105   7.304  23.495  11.905
48879W        W14106  37.106  21.555   0.501
48880W        W14107  24.433  32.931  11.195
48881W        W14108  35.552  20.339  13.255
48882W        W14109  19.071  13.522  12.577
48883W        W14110  12.792  12.833  13.325
48884W        W14111  33.592  31.435   0.665
48885W        W14112  25.079  20.245   4.110
48886W        W14113  24.434   5.533   9.494
48887W        W14114  20.671  10.732   3.653
48888W        W14115   9.804   8.440  14.457
48889W        W14116  30.059  19.904  11.804
48890W        W14117  29.532  20.720   4.071
48891W        W14118  34.209   0.962  10.852
48892W        W14119  27.895  27.322   2.484
48893W        W14120  37.373  24.241   1.339
48894W        W14121  33.420  38.135  12.943
48895W        W14122  29.876   5.311  14.372
48896W        W14123  25.001  43.814   1.721
48897W        W14124  25.408  10.458  10.290
48898W        W14125  20.025  34.510   0.629
48899W        W14126  26.248  42.882   2.393
48900W        W14127  32.163   0.287   1.300
48901W        W14128  12.288   4.750  10.922
48902W        W14129  20.785   6.670  12.522
48903W        W14130  22.559  44.766  14.927
48904W        W14131  29.189   2.307  14.831
48905W        W14132  44.833  15.541   2.468
48906W        W14133  35.546  11.170  11.001
48907W        W14134   5.328  21.484  14.821
48908W        W14135  14.555  28.436   2.787
48909W        W14136  23.909  27.938  11.186
48910W        W14137  32.867  18.141  12.136
48911W        W14138  23.983  11.188   2.234
48912W        W14139  34.328  13.328  10.589
48913W        W14140  24.254  44.280   3.639
48914W        W14141   3.392   0.946  11.465
48915W        W14142  37.066  29.498   4.602
48916W        W14143  13.275   1.001   1.013
48917W        W14144  25.160  18.015  12.004
48918W        W14145  13.484  41.178   0.426
48919W        W14146  39.542   5.904   2.236
48920W        W14147  36.990  20.087  12.690
48921W        W14148   9.783  26.096  10.641
48922W        W14149  29.237   6.806   0.060
48923W        W14150   4.981  21.204  12.808
48924W        W14151  25.668  30.000   0.505
48925W        W14152  22.721   6.765   4.374
48926W        W14153  19.029  16.062  12.539
48927W        W14154  43.565  38.428  12.063
48928W        W14155   9.560  12.646  12.052
48929W        W14156  37.267  44.640   0.986
48930W        W14157  16.786  44.140  11.405
48931W        W14158   4.849  35.397   1.998
48932W        W14159  30.711  28.640  10.632
48933W        W14160  34.954   7.298  10.725
48934W        W14161  17.627  29.107  10.675
48935W        W14162  11.633   2.903   4.772
48936W        W14163  16.915   1.346  13.406
48937W        W14164   1.920  39.541  11.745
48938W        W14165  28.409   8.278   4.343
48939W        W14166  14.357   8.183   1.011
48940W        W14167  23.425  17.633  12.825
48941W        W14168  39.558  41.437   0.721
48942W        W14169  29.941  36.090  11.996
48943W        W14170  39.191  31.464   1.880
48944W        W14171   4.179  42.057  10.769
48945W        W14172  35.958   6.943  10.707
48946W        W14173   7.086  38.378   3.615
48947W        W14174  24.514   9.716  13.427
48948W        W14175  38.537  14.747   4.400
48949W        W14176  38.546  40.032  11.450
48950W        W14177   4.547  25.700  13.815
48951W        W14178  19.993  28.015  14.931
48952W        W14179  16.918  30.913   1.672
48953W        W14180  41.205  35.957   1.843
48954W        W14181  25.279  27.604   2.137
48955W        W14182  43.165  22.754  10.451
48956W        W14183  13.193  20.455  13.963
48957W        W14184  44.791  14.741   2.399
48958W        W14185   9.908  41.996   0.044
48959W        W14186  11.009  31.107   1.530
48960W        W14187  25.625  20.233   3.259
48961W        W14188  18.835   0.805   3.914
48962W        W14189  38.031   1.462   1.297
48963W        W14190  33.146  13.786  14.902
48964W        W14191  36.567  30.664   1.261
48965W        W14192   9.857  21.218  12.430
48966W        W14193  27.885  26.606  11.122
48967W        W14194  27.076   2.327   2.881
48968W        W14195   4.163   3.407   0.272
48969W        W14196  42.446   6.563   2.753
48970W        W14197   0.720  42.089  14.888
48971W        W14198  10.799  44.902  14.828
48972W        W14199  10.449  39.993   1.823
48973W        W14200  12.658  31.074  14.937
48974W        W14201   7.765   4.999  12.872
48975W        W14202  36.858   9.298  13.128
48976W        W14203   0.324  33.179  10.706
48977W        W14204  40.288  26.747   0.788
48978W        W14205   0.453  36.107  12.976
48979W        W14206   0.453  23.044   1.026
48980W        W14207  15.719  29.220  13.055
48981W        W14208  34.850  35.021  12.778
48982W        W14209  37.435  29.948   0.536
48983W        W14210  16.041  19.953  13.347
48984W        W14211  11.278  13.688   2.612
48985W        W14212   6.691  26.577   2.910
48986W        W14213  21.696  42.880   0.456
48987W        W14214  28.542  35.866  11.735
48988W        W14215  30.541   3.100   0.789
48989W        W14216  35.014   7.278  12.529
48990W        W14217  20.307   6.820  14.800
48991W        W14218  26.762  18.744   1.734
48992W        W14219  31.411  22.410  12.582
48993W        W14220  19.032  28.705  14.312
48994W        W14221  13.035  15.147   4.546
48995W        W14222  13.230  31.331   3.218
48996W        W14223  27.193  36.473   3.154
48997W        W14224  31.013   6.672  14.571
48998W        W14225  44.585  30.183   1.012
48999W        W14226   0.239  21.799   5.128
49000W        W14227  12.613   2.437   1.996
49001W        W14228  44.296  32.703   0.318
49002W        W14229  42.687  34.566  14.245
49003W        W14230  13.206  24.551   0.776
49004W        W14231  22.707  18.093  12.793
49005W        W14232  31.479  39.554  14.880
49006W        W14233  35.647   8.494   3.882
49007W        W14234  19.187  26.748  12.816
49008W        W14235   1.802  13.263   1.292
49009W        W14236   7.649  35.349   4.861
49010W        W14237  22.568  23.926  11.570
49011W        W14238  41.259  13.726  12.378
49012W        W14239  11.642  24.984  12.140
49013W        W14240  44.417  30.567  11.535
49014W        W14241  29.422   3.757   1.213
49015W        W14242  13.495   5.618  12.480
49016W        W14243  23.167  43.463  14.837
49017W        W14244  34.706  35.000  12.289
49018W        W14245  42.006  25.614  13.831
49019W        W14246  36.235  19.102   2.899
49020W        W14247   1.334  15.694   3.211
49021W        W14248  42.937  43.106   2.795
49022W        W14249  14.793  22.667  13.867
49023W        W14250  18.730   0.180  11.590
49024W        W14251  16.775  14.969  13.982
49025W        W14252  42.966  42.866  13.105
49026W        W14253  23.493  14.849   1.714
49027W        W14254  16.141  12.048  14.283
49028W        W14255  32.108  41.667  13.494
49029W        W14256  34.972  31.691   1.267
49030W        W14257  29.346  19.465  11.063
49031W        W14258  21.495  20.991   3.361
49032W        W14259  17.498   1.402   2.629
49033W        W14260   7.769   1.724  11.017
49034W        W14261  27.053  37.772   0.302
49035W        W14262  21.330   4.195  10.178
49036W        W14263  34.653  36.155   1.294
49037W        W14264   1.939  15.082  12.027
49038W        W14265   4.786  24.012  13.500
49039W        W14266  42.433  20.802   1.444
49040W        W14267  35.515  42.903   1.833
49041W        W14268  29.091   8.790  13.613
49042W        W14269   3.331  44.803  11.696
49043W        W14270  44.023  13.484  14.840
49044W        W14271  19.362  34.329   1.744
49045W        W14272  24.221   5.349  14.930
49046W        W14273  11.839   0.842  14.633
49047W        W14274  41.059  23.115  14.885
49048W        W14275  38.669  37.004  11.048
49049W        W14276  25.706   2.329   3.133
49050W        W14277  31.179   2.451  11.480
49051W        W14278  32.835  31.905   0.130
49052W        W14279  30.434  19.774  14.833
49053W        W14280   0.244  38.046   3.345
49054W        W14281  33.590  16.237  12.131
49055W        W14282  16.278  43.764   3.072
49056W        W14283   7.079  23.907   3.451
49057W        W14284   1.228  13.966   1.266
49058W        W14285  40.322  15.657   4.549
49059W        W14286  30.943  23.169  13.940
49060W        W14287  42.862  12.154   1.165
49061W        W14288  29.573  28.619   3.734
49062W        W14289  18.671  31.713  11.131
49063W        W14290  22.715  18.469   2.285
49064W        W14291   7.841   5.901   4.394
49065W        W14292  18.127   7.788   1.335
49066W        W14293  22.600  19.413  12.546
49067W        W14294  35.034  15.980   2.959
49068W        W14295  43.484  43.367   1.724
49069W        W14296  12.024  12.126   2.353
49070W        W14297  14.310   4.677  13.445
49071W        W14298  42.950  23.390   1.407
49072W        W14299  41.380  24.163  12.205
49073W        W14300  22.463  11.275  11.964
49074W        W14301  41.681  23.590  11.340
49075W        W14302  10.235   2.722   1.366
49076W        W14303  29.958  41.068  12.448
49077W        W14304  24.244  32.349   1.759
49078W        W14305  13.048  40.265  12.093
49079W        W14306  28.894  20.202  11.306
49080W        W14307  20.792  28.014   1.444
49081W        W14308  19.357  29.965   0.573
49082W        W14309  25.036   2.024   2.661
49083W        W14310  24.462  27.119   1.085
49084W        W14311   5.258   3.930   3.555
49085W        W14312  12.638  22.782  12.818
49086W        W14313  31.908  22.820   4.596
49087W        W14314  17.882  18.375  12.424
49088W        W14315  23.409  17.520  13.954
49089W        W14316  18.961  13.800  13.006
49090W        W14317  36.841   6.474  10.501
49091W        W14318  15.325  27.676   0.863
49092W        W14319  24.406  30.532   1.716
49093W        W14320  26.502  24.423   3.413
49094W        W14321  43.374  25.465   2.354
49095W        W14322  12.209   3.787   1.996
49096W        W14323  10.839  31.482   4.738
49097W        W14324  38.473  19.697   3.251
49098W        W14325  28.772   4.434  12.083
49099W        W14326   6.159  42.503  10.309
49100W        W14327  27.187   1.917  11.381
49101W        W14328   1.292  42.440   0.339
49102W        W14329  37.034   5.366  13.297
49103W        W14330  33.477  32.094  10.745
49104W        W14331  44.490   6.374   1.171
49105W        W14332  44.940  24.977  10.839
49106W        W14333  16.758   7.967   4.275
49107W        W14334  11.302   8.644  12.841
49108W        W14335  36.645   2.671   0.224
49109W        W14336  21.581  11.288   0.782
49110W        W14337   0.861   5.415   0.780
49111W        W14338  24.118   9.784   1.602
49112W        W14339   8.250   8.109   1.763
49113W        W14340   2.236  10.712  13.386
49114W        W14341  10.736  13.027   1.088
49115W        W14342  19.928  14.161  12.229
49116W        W14343  26.127   9.260   1.243
49117W        W14344  25.190  30.421  12.490
49118W        W14345  35.967  37.655  11.237
49119W        W14346  39.073  39.429   2.733
49120W        W14347  18.951  27.897   3.197
49121W        W14348  22.042   0.859  14.900
49122W        W14349  11.434  15.996   5.118
49123W        W14350   6.287   7.920   3.312
49124W        W14351  33.529  32.137   2.425
49125W        W14352   3.150   0.331   1.660
49126W        W14353  22.444  26.514  13.498
49127W        W14354  40.941  17.230   2.366
49128W        W14355  19.269   2.982   2.370
49129W        W14356  43.067  14.740   1.227
49130W        W14357  34.013   8.489   1.773
49131W        W14358  44.247   6.110  10.450
49132W        W14359  25.884  15.606   2.516
49133W        W14360  25.565  40.346  13.030
49134W        W14361  24.101  16.783   4.361
49135W        W14362  24.311  20.774  11.718
49136W        W14363  40.303   7.810   1.202
49137W        W14364  32.475  23.955   3.818
49138W        W14365   1.309  32.952  11.759
49139W        W14366   5.549  30.216   5.192
49140W        W14367  43.379  40.079  13.449
49141W        W14368  36.394  39.505   4.566
49142W        W14369   1.858  15.149   2.591
49143W        W14370  30.625   3.698   3.192
49144W        W14371   4.777  25.992   2.622
49145W        W14372  44.249   3.331  14.007
49146W        W14373  36.979   4.881   3.661
49147W        W14374  10.813  38.503  14.383
49148W        W14375  14.472  42.319  13.951
49149W        W14376   6.630  12.596   3.773
49150W        W14377  24.227  15.116   0.053
49151W        W14378  11.821   3.632   1.684
49152W        W14379  32.899  21.181   3.683
49153W        W14380   2.184  23.087  14.448
49154W        W14381  16.225  40.176   1.889
49155W        W14382  12.326  16.665  11.965
49156W        W14383   6.740  15.255   2.726
49157W        W14384  37.015  32.026  11.267
49158W        W14385   2.397  43.453  11.688
49159W        W14386  32.951  17.258   4.603
49160W        W14387   1.692  40.894  14.994
49161W        W14388  36.599   0.781   3.118
49162W        W14389  12.557  34.826  11.093
49163W        W14390   3.871  21.225   4.204
49164W        W14391  28.621  24.688   1.767
49165W        W14392  21.708  37.197  12.985
49166W        W14393  39.502  38.863  12.026
49167W        W14394  14.890  34.543   3.381
49168W        W14395  39.975  38.466  13.423
49169W        W14396  36.762  40.829   1.729
49170W        W14397  41.158  22.766  11.111
49171W        W14398  24.006   0.481  13.769
49172W        W14399  26.013  20.052  10.910
49173W        W14400  38.085  40.810   0.473
49174W        W14401  14.783  24.107   1.209
49175W        W14402  18.029  43.067  14.437
49176W        W14403   8.092  44.712   0.314
49177W        W14404  25.070  29.433   5.108
49178W        W14405   0.598  22.411  10.092
49179W        W14406  43.050   0.065  10.604
49180W        W14407  37.554   1.475  13.373
49181W        W14408  35.108  44.475   2.323
49182W        W14409  40.714  35.906   1.617
49183W        W14410  20.118  24.108   3.100
49184W        W14411   9.725  40.015   1.447
49185W        W14412  13.422  28.445  11.021
49186W        W14413  12.318  37.679  12.695
49187W        W14414  23.505  24.744  13.865
49188W        W14415  34.037   8.508  10.418
49189W        W14416  43.177  16.263   2.712
49190W        W14417   9.755  31.123  13.533
49191W        W14418   3.421  19.162  13.404
49192W        W14419  16.535   4.924   4.763
49193W        W14420  13.737  23.289   4.665
49194W        W14421  14.506   6.142   0.400
49195W        W14422  33.837  13.164   3.404
49196W        W14423  33.570  25.137  13.812
49197W        W14424  36.590  31.944  10.955
49198W        W14425  27.210  38.143   0.748
49199W        W14426  27.083  35.498   4.558
49200W        W14427  38.416  44.129  13.972
49201W        W14428  38.795  35.889  10.741
49202W        W14429  15.000  28.173  12.071
49203W        W14430  11.837  39.782  14.403
49204W        W14431   1.210  28.656  14.126
49205W        W14432  36.549  17.770  10.727
49206W        W14433  21.284  32.331  10.746
49207W        W14434  41.887  44.896   2.382
49208W        W14435  34.618  13.995   4.810
49209W        W14436  12.653  35.377  14.954
49210W        W14437  27.034  36.852   2.780
49211W        W14438  32.997  38.029  10.855
49212W        W14439  18.613  31.704  12.132
49213W        W14440  43.089   7.780   2.821
49214W        W14441   8.200  23.702  11.649
49215W        W14442  35.567   8.215  11.091
49216W        W14443  17.084   8.125  11.157
49217W        W14444  41.077  39.350   3.272
49218W        W14445  27.855  19.252  11.760
49219W        W14446  42.224  37.943  14.937
49220W        W14447  29.431  40.357  14.300
49221W        W14448  19.515   8.486   0.916
49222W        W14449  31.332  23.743  10.741
49223W        W14450  26.503  33.025  13.278
49224W        W14451  26.680  12.779   2.862
49225W        W14452  13.818  34.375   1.219
49226W        W14453   6.203   8.831   4.725
49227W        W14454   6.612   6.282  13.511
49228W        W14455   3.267  14.866   2.525
49229W        W14456  12.848  11.503   1.740
49230W        W14457  15.636  31.566  13.193
49231W        W14458   5.958  43.541   2.359
49232W        W14459  11.223  38.059  13.236
49233W        W14460  17.805  25.525  13.499
49234W        W14461  34.402  12.440  14.297
49235W        W14462  10.836  33.884  13.966
49236W        W14463  41.781  10.310   0.069
49237W        W14464   5.032  25.960   5.539
49238W        W14465  28.270  21.102  10.718
49239W        W14466  17.359  22.521  11.485
49240W        W14467  14.046  43.582  13.482
49241W        W14468  44.305  27.121   1.785
49242W        W14469  25.065  26.252   3.624
49243W        W14470  23.431   9.815  10.686
49244W        W14471  43.841  35.816  14.888
49245W        W14472  15.839  30.605   3.319
49246W        W14473  17.810   1.032   4.429
49247W        W14474  32.495  16.201  13.647
49248W        W14475  36.734  16.154  13.932
49249W        W14476  20.019  25.128   3.209
49250W        W14477  10.678  37.185   3.364
49251W        W14478   8.372  33.623  11.127
49252W        W14479  41.752  33.209  13.341
49253W        W14480  23.065  31.048  12.399
49254W        W14481  21.000  34.360  12.899
49255W        W14482  39.556  28.072   1.808
49256W        W14483  17.236   0.266   0.235
49257W        W14484   9.379  28.574  10.732
49258W        W14485  24.030  19.001   1.381
49259W        W14486  36.271   1.485  14.904
49260W        W14487  18.396  43.448   2.876
49261W        W14488  24.111  23.614   2.952
49262W        W14489   6.100   0.403  11.592
49263W        W14490  34.292  16.633  12.523
49264W        W14491  40.612   2.189   1.816
49265W        W14492  19.682  22.253  12.906
49266W        W14493  29.424  26.078   1.226
49267W        W14494  22.636   8.688  13.902
49268W        W14495  11.792  15.523   1.215
49269W        W14496  15.866  36.630  10.954
49270W        W14497   1.891  39.854   4.095
49271W        W14498  21.903  28.076  13.791
49272W        W14499   3.513   4.308  10.744
49273W        W14500  10.183  40.781   1.483
49274W        W14501  24.450  36.484  12.589
49275W        W14502  40.609  23.088   1.537
49276W        W14503  36.854   2.557   2.596
49277W        W14504  37.244   9.279   1.802
49278W        W14505  23.654  12.916   4.639
49279W        W14506  39.944  14.075  10.800
49280W        W14507  18.478  24.955   1.141
49281W        W14508  32.575  10.154   3.726
49282W        W14509   0.655  36.117   0.280
49283W        W14510  44.173  40.537   1.782
49284W        W14511  26.691  12.340  14.359
49285W        W14512  33.430  12.677   2.136
49286W        W14513  17.322  11.163  13.412
49287W        W14514   0.060  10.095   4.740
49288W        W14515   5.927  32.346   0.334
49289W        W14516  26.390  44.957   1.920
49290W        W14517  39.058  20.145  12.067
49291W        W14518  15.523  32.430  11.050
49292W        W14519  12.896  20.089   4.541
49293W        W14520  23.021   2.954   1.993
49294W        W14521  43.357  33.583  14.048
49295W        W14522  38.589  34.506   3.136
49296W        W14523   6.887  18.127  11.128
49297W        W14524  40.492   4.837   2.240
49298W        W14525  34.214  36.283   5.035
49299W        W14526  40.307  42.711   3.164
49300W        W14527  23.043  13.718   3.674
49301W        W14528  14.511  12.178   0.451
49302W        W14529  36.114  42.779   0.084
49303W        W14530  13.357  10.928   3.231
49304W        W14531  27.748  34.473   1.691
49305W        W14532  25.144   7.299  10.467
49306W        W14533  34.072  29.026  12.012
49307W        W14534  29.059  20.621  12.975
49308W        W14535   5.785  44.472  12.010
49309W        W14536   9.194   4.722   2.160
49310W        W14537  44.193  18.604  13.397
49311W        W14538   7.882  35.357   1.957
49312W        W14539  21.710   5.930   1.991
49313W        W14540  43.087  37.988   4.508
49314W        W14541  17.192  14.212   1.377
49315W        W14542   4.675   0.987  12.200
49316W        W14543  12.829  30.859  10.349
49317W        W14544  11.157  11.649  14.340
49318W        W14545   3.382  34.720   4.067
49319W        W14546  13.127  40.872  13.401
49320W        W14547  37.357  18.056  13.799
49321W        W14548  14.435   9.046   2.807
49322W        W14549   3.860   5.939  12.992
49323W        W14550  15.551   1.746   3.799
49324W        W14551   9.279   3.879  11.638
49325W        W14552  31.110  21.664   2.806
49326W        W14553  24.308  34.221  12.004
49327W        W14554  10.339  10.713  13.323
49328W        W14555   3.501  36.051  13.232
49329W        W14556  43.960   9.054  13.063
49330W        W14557  40.941   0.781  13.670
49331W        W14558   7.375   4.320  13.275
49332W        W14559  38.625  39.964  14.435
49333W        W14560  20.033  18.778   0.226
49334W        W14561  17.597   1.897   3.675
49335W        W14562  43.076  31.017   3.862
49336W        W14563   0.530  30.024  14.532
49337W        W14564  34.374  31.700  14.092
49338W        W14565  31.017  14.886   4.486
49339W        W14566  42.120  39.141  14.976
49340W        W14567   9.331  15.894   1.509
49341W        W14568   5.999   1.725   0.929
49342W        W14569  31.711  26.470  13.506
49343W        W14570  34.886  44.954   3.325
49344W        W14571  30.203  43.260  13.912
49345W        W14572   9.196   7.151   1.515
49346W        W14573  10.151   4.459  13.827
49347W        W14574  22.011  30.953   0.426
49348W        W14575   6.702  26.972  12.119
49349W        W14576   0.808  29.899   3.669
49350W        W14577  28.617  43.236  11.588
49351W        W14578  10.167  34.847   1.822
49352W        W14579  31.972   3.649  11.210
49353W        W14580  22.267  42.475  11.025
49354W        W14581  17.677  18.990  10.693
49355W        W14582  11.371  37.324  14.342
49356W        W14583  31.651  10.614  14.494
49357W        W14584  18.136  14.380   2.778
49358W        W14585   8.740   4.690  13.896
49359W        W14586  12.405  32.261  12.566
49360W        W14587  30.367  26.825   2.698
49361W        W14588  41.137  37.986  12.005
49362W        W14589  43.803  30.051   3.429
49363W        W14590  26.243  39.439   2.757
49364W        W14591  28.070  24.066   0.259
49365W        W14592  28.043  36.075  12.346
49366W        W14593  39.830  11.778   1.204
49367W        W14594  43.384  10.173   2.266
49368W        W14595   7.703   4.565   1.915
49369W        W14596  44.438  16.268   0.946
49370W        W14597  31.712  14.406  14.892
49371W        W14598  10.818  13.212   1.545
49372W        W14599  38.508  16.586  11.872
49373W        W14600   3.231  23.472  11.541
49374W        W14601  25.981  28.623  11.531
49375W        W14602   9.803  36.288  14.839
49376W        W14603  20.274   5.438   2.968
49377W        W14604  14.324  30.344  14.803
49378W        W14605  31.085  37.129  11.827
49379W        W14606  12.754  21.184   2.419
49380W        W14607  24.441  18.340  14.417
49381W        W14608   5.786  17.485   3.841
49382W        W14609  18.525  43.000   0.776
49383W        W14610   8.126  30.567   2.822
49384W        W14611  15.560   0.878  12.001
49385W        W14612  32.040  38.828   2.522
49386W        W14613  41.455  23.908  13.552
49387W        W14614  13.744   9.329  14.960
49388W        W14615   3.750  33.931   0.845
49389W        W14616  11.941  21.800   4.034
49390W        W14617   3.661  29.404  12.494
49391W        W14618  43.807  24.612   1.372
49392W        W14619  41.474  40.406  14.440
49393W        W14620   7.115  26.338  14.410
49394W        W14621  32.891  21.575   2.448
49395W        W14622  37.740  30.380  10.735
49396W        W14623  28.988   2.915  13.163
49397W        W14624  10.596  12.813   1.804
49398W        W14625  44.526  12.878   1.272
49399W        W14626  27.859   9.729   1.248
49400W        W14627  35.463   7.261   0.006
49401W        W14628  12.826  22.051  12.166
49402W        W14629  30.130   2.010   4.020
49403W        W14630  20.612   2.051  10.517
49404W        W14631  22.489  22.240   2.810
49405W        W14632  17.773  13.834  10.658
49406W        W14633  37.921  13.778   3.734
49407W        W14634  26.125   2.584  10.993
49408W        W14635   6.342  43.795  14.240
49409W        W14636  38.966  14.189   4.558
49410W        W14637  24.890  40.333   3.343
49411W        W14638  37.326  42.051   1.335
49412W        W14639   2.466  13.666  13.608
49413W        W14640   6.242  19.062  12.991
49414W        W14641  37.866  16.014   0.403
49415W        W14642  20.516  13.938  12.533
49416W        W14643  42.624  17.131   1.795
49417W        W14644  29.479   1.601  11.957
49418W        W14645  28.042  26.071  13.434
49419W        W14646  37.625   3.731  11.443
49420W        W14647  35.345  26.042  14.498
49421W        W14648  34.569  43.159   1.485
49422W        W14649  24.785  41.715  10.401
49423W        W14650  35.608  34.375  13.053
49424W        W14651   5.672  42.397   4.524
49425W        W14652  12.606  42.040   4.647
49426W        W14653   1.566  21.204   4.203
49427W        W14654  11.802  13.837   2.758
49428W        W14655  14.531   0.021  14.971
49429W        W14656  34.137   9.735   4.852
49430W        W14657  31.544  19.305   0.873
49431W        W14658  17.536  40.197  11.260
49432W        W14659  15.503  12.808   0.740
49433W        W14660  21.126  10.856  10.047
49434W        W14661   8.749  44.789   2.735
49435W        W14662  44.364  15.699   1.644
49436W        W14663   8.904  27.094   0.510
49437W        W14664  41.818   6.217   1.040
49438W        W14665  33.581  20.307  13.406
49439W        W14666  30.407  18.458   2.230
49440W        W14667  42.145  26.691   4.911
49441W        W14668  44.656  38.665  13.042
49442W        W14669  18.269  26.479  12.346
49443W        W14670  12.718   3.463   3.320
49444W        W14671  33.931  23.419   4.778
49445W        W14672   6.056  18.307   4.056
49446W        W14673   8.432  39.919   2.363
49447W        W14674  22.521  39.348   0.097
49448W        W14675  26.113  31.521  13.623
49449W        W14676  42.456   1.053   3.763
49450W        W14677  17.670  38.929  13.281
49451W        W14678  25.161  16.559   4.042
49452W        W14679  37.062  26.977  13.045
49453W        W14680  12.336   0.245   4.868
49454W        W14681  11.277  26.680   0.069
49455W        W14682  21.523  31.348  11.062
49456W        W14683  42.446  40.812   4.442
49457W        W14684  23.831  13.366  14.905
49458W        W14685  20.634  29.803   2.819
49459W        W14686  36.047  17.652  10.763
49460W        W14687  41.763  13.610  12.468
49461W        W14688  24.035  36.513   1.212
49462W        W14689  10.394  40.583  14.062
49463W        W14690   4.207  27.873  12.019
49464W        W14691  29.331  18.218  10.723
49465W        W14692  33.004  18.013   3.191
49466W        W14693  17.332  26.479  14.063
49467W        W14694  14.862  18.100   3.603
49468W        W14695  33.224   4.047  14.507
49469W        W14696  33.090  26.364  11.236
49470W        W14697  25.505  24.029  14.515
49471W        W14698  11.577   6.232   2.872
49472W        W14699  37.125   0.854   3.126
49473W        W14700  22.297  24.580   1.721
49474W        W14701  17.109  24.197  11.148
49475W        W14702   0.235  16.749   1.936
49476W        W14703   9.011  27.753  11.261
49477W        W14704  33.414  43.228   2.249
49478W        W14705   4.215  18.812   0.812
49479W        W14706  26.708   3.261  12.631
49480W        W14707  43.385   0.533   4.627
49481W        W14708  38.522  18.012   2.074
49482W        W14709   4.547  27.388   5.013
49483W        W14710  39.646  44.877   0.793
49484W        W14711   2.952   8.743   3.341
49485W        W14712  17.235   6.773  11.497
49486W        W14713  19.802  21.197  10.774
49487W        W14714  33.868  41.417  12.129
49488W        W14715  44.688  23.542  13.386
49489W        W14716  37.520  16.134  14.402
49490W        W14717  26.998  42.904   3.051
49491W        W14718   9.245  18.615  13.388
49492W        W14719  37.228  20.328  13.578
49493W        W14720   9.580  40.786  13.863
49494W        W14721  20.117  32.857  12.041
49495W        W14722  27.922  18.723   3.720
49496W        W14723  23.411  13.238  11.149
49497W        W14724   4.491   4.626  12.923
49498W        W14725  43.968  34.081  11.987
49499W        W14726  25.392  31.780   3.632
49500W        W14727  35.772  27.638   4.544
49501W        W14728  25.748   5.813   1.281
49502W        W14729  14.069  44.841  13.837
49503W        W14730  22.787   5.472   3.058
49504W        W14731  10.591  32.922  12.708
49505W        W14732   2.737  35.499   2.625
49506W        W14733  26.147  13.784   4.397
49507W        W14734   1.843  44.956  12.613
49508W        W14735  38.320  17.119  10.775
49509W        W14736  22.471  39.311   3.957
49510W        W14737  11.233  36.663   2.608
49511W        W14738  17.954   9.838   1.233
49512W        W14739   6.036   8.427   4.231
49513W        W14740  20.026   4.612   2.690
49514W        W14741  40.412  20.011  14.783
49515W        W14742  41.020   0.568  11.011
49516W        W14743   3.770   0.529   4.073
49517W        W14744  34.197  38.337  14.557
49518W        W14745   5.377  22.748   2.138
49519W        W14746  30.079   7.251   0.121
49520W        W14747  14.144  42.020  10.775
49521W        W14748  32.859  44.284   3.111
49522W        W14749  21.419   8.322   3.820
49523W        W14750  42.309  13.121  12.760
49524W        W14751   6.261  28.949  11.194
49525W        W14752  25.454   8.721  12.426
49526W        W14753  15.854  33.233   5.042
49527W        W14754  39.035  42.207  11.181
49528W        W14755  24.587   6.395   2.784
49529W        W14756  25.702  38.491  13.390
49530W        W14757  37.889  13.151   4.818
49531W        W14758  39.014  12.643   5.034
49532W        W14759   0.102  16.038   5.358
49533W        W14760  20.148  28.856   0.548
49534W        W14761  12.066   7.636   4.436
49535W        W14762   6.352  14.129   4.522
49536W        W14763  14.885   4.178  11.159
49537W        W14764  29.923  12.287   3.333
49538W        W14765  13.712  10.086   2.107
49539W        W14766  36.261   9.714   3.828
49540W        W14767   3.440  20.844  14.127
49541W        W14768  34.556  14.605  10.767
49542W        W14769  26.295   0.002  12.095
49543W        W14770   0.540  23.788   1.393
49544W        W14771  38.047   0.376  14.081
49545W        W14772   8.225  38.079  14.396
49546W        W14773  35.596  11.937  11.134
49547W        W14774  39.382  16.372   3.804
49548W        W14775   0.200  32.117   2.679
49549W        W14776  29.083  36.462   4.784
49550W        W14777  17.652  36.749   2.696
49551W        W14778  25.643   1.975  11.594
49552W        W14779  39.556  30.196  13.454
49553W        W14780  35.465  28.458  11.451
49554W        W14781  13.616  18.076   3.571
49555W        W14782  19.289  38.409   2.660
49556W        W14783  36.178  42.167   1.740
49557W        W14784  36.546  30.389  11.183
49558W        W14785  41.997  32.550  12.244
49559W        W14786  38.159  42.279   1.550
49560W        W14787  39.459   5.788   1.741
49561W        W14788   6.127  43.363   3.522
49562W        W14789  42.488  37.330  13.949
49563W        W14790  43.683   0.517  14.990
49564W        W14791   4.645  10.758  12.896
49565W        W14792  18.776  16.737   0.454
49566W        W14793  44.383   1.380  12.968
49567W        W14794  22.094  41.207   2.838
49568W        W14795   3.512  28.980  11.108
49569W        W14796  36.622   0.445  11.253
49570W        W14797  10.129  33.241  14.141
49571W        W14798  40.082  21.747  11.062
49572W        W14799   9.939   0.887  10.620
49573W        W14800  43.403  20.421   0.033
49574W        W14801  39.543  42.361   1.952
49575W        W14802  16.210  24.018   2.301
49576W        W14803  17.804  15.096   3.745
49577W        W14804  14.935  22.460  10.745
49578W        W14805  43.280   1.892  11.652
49579W        W14806   9.322  23.554  13.491
49580W        W14807  31.025   0.520  13.994
49581W        W14808   1.013  29.617  12.547
49582W        W14809  42.891  29.539   2.781
49583W        W14810  44.855   8.329  14.536
49584W        W14811  20.604  27.074   2.462
49585W        W14812  31.514  40.543  11.083
49586W        W14813  43.597  14.872   3.598
49587W        W14814  13.119   2.672  11.996
49588W        W14815  25.604  34.132  14.491
49589W        W14816  35.207   0.468  13.218
49590W        W14817  41.417  27.443   3.600
49591W        W14818  25.984  12.692   3.183
49592W        W14819  18.926  34.181  11.091
49593W        W14820  19.251  40.055  14.719
49594W        W14821  12.383  29.979  12.874
49595W        W14822   7.192  38.871   4.288
49596W        W14823  25.970  14.621   2.807
49597W        W14824  43.961  43.089  13.151
49598W        W14825  44.146  27.068   3.935
49599W        W14826   3.025  10.118   1.300
49600W        W14827  18.570  28.154  13.506
49601W        W14828  29.053  22.280  11.954
49602W        W14829  42.232  21.587   2.846
49603W        W14830  18.646  14.875   0.773
49604W        W14831   3.227  30.464  13.963
49605W        W14832  13.463  41.578  12.707
49606W        W14833  42.724   0.326   2.364
49607W        W14834  26.048  33.672  11.158
49608W        W14835  29.144   4.765  11.965
49609W        W14836  19.492  29.227  11.187
49610W        W14837  40.366  11.391   4.096
49611W        W14838  12.115  36.874  13.367
49612W        W14839   1.276  35.546  11.990
49613W        W14840   8.774  38.365  13.120
49614W        W14841  22.453   3.713  13.916
49615W        W14842   8.957  23.009   3.267
49616W        W14843  27.902  14.782   4.888
49617W        W14844   2.168  43.464   3.339
49618W        W14845  42.959  27.251  14.899
49619W        W14846  18.362  11.561   0.009
49620W        W14847  36.629  32.584  11.655
49621W        W14848  34.348   1.968  12.879
49622W        W14849   8.411  15.891   4.483
49623W        W14850  27.220   8.739   0.294
49624W        W14851  40.900   9.881  10.681
49625W        W14852  39.597  13.453  13.518
49626W        W14853  40.986  19.314  14.768
49627W        W14854  29.198  26.715  12.063
49628W        W14855  10.919   1.177  14.405
49629W        W14856   0.392  42.145   2.771
49630W        W14857  31.581  38.791   4.618
49631W        W14858  24.121  42.407   4.487
49632W        W14859  27.673  41.813  12.133
49633W        W14860  11.779   5.351   4.893
49634W        W14861  39.591  19.038   0.355
49635W        W14862  14.540  35.590  10.675
49636W        W14863  12.558  27.344  14.960
49637W        W14864  25.056  36.296   3.615
49638W        W14865  36.348  22.126   3.690
49639W        W14866  31.211  24.056   3.822
49640W        W14867   3.477  41.602   2.879
49641W        W14868  29.892  17.250   4.809
49642W        W14869  28.862  40.853  13.985
49643W        W14870  42.807  18.095  13.980
49644W        W14871  24.754  44.888  12.497
49645W        W14872  35.919   0.727  14.765
49646W        W14873  27.440   4.696  12.136
49647W        W14874  35.576  35.699  11.094
49648W        W14875  18.226  41.575  13.520
49649W        W14876   8.007  24.022   5.003
49650W        W14877  29.360  14.720  14.864
49651W        W14878  31.579  44.994  11.071
49652W        W14879  15.048  38.051  11.989
49653W        W14880   9.498  31.905   4.155
49654W        W14881  27.069  44.321   3.391
49655W        W14882   5.187  10.747  12.922
49656W        W14883   4.597  37.874   2.388
49657W        W14884  23.405  24.053  11.242
49658W        W14885  10.932  15.896   4.283
49659W        W14886  19.978  13.765   0.362
49660W        W14887  25.183  32.301   3.216
49661W        W14888  17.838   1.429  11.604
49662W        W14889  14.566  14.832  11.976
49663W        W14890  12.800  41.580   4.498
49664W        W14891  38.754  25.687  14.936
49665W        W14892  40.854  12.823  10.704
49666W        W14893  17.845  23.984   0.237
49667W        W14894  17.782  30.423   1.688
49668W        W14895   3.998  23.071   3.473
49669W        W14896  24.597   2.920  12.556
49670W        W14897  44.493  43.243  13.979
49671W        W14898  15.856   2.600  10.839
49672W        W14899   5.652  20.637   1.812
49673W        W14900  34.499  39.122   0.863
49674W        W14901   6.740   2.171   0.767
49675W        W14902   6.244  23.159   4.825
49676W        W14903  13.158   0.276  14.839
49677W        W14904   9.880  34.835   3.741
49678W        W14905  16.374  31.188  11.589
49679W        W14906   4.766  30.366   3.270
49680W        W14907  34.188  21.088   2.227
49681W        W14908  10.877  29.556  13.182
49682W        W14909  24.314  40.297  10.775
49683W        W14910  44.514  17.217  11.505
49684W        W14911   7.504  10.880  13.539
49685W        W14912   3.952  14.232  14.773
49686W        W14913  10.653  36.605  14.226
49687W        W14914  26.673  36.725  14.012
49688W        W14915  18.400  20.839   4.950
49689W        W14916  34.769  12.802  13.590
49690W        W14917  12.799   0.718  10.780
49691W        W14918   5.868   9.940   1.427
49692W        W14919  44.359  31.917   4.654
49693W        W14920   1.419  27.966  14.402
49694W        W14921  21.288  24.184  12.922
49695W        W14922  31.712  40.235  10.726
49696W        W14923  40.629  35.982  13.058
49697W        W14924  40.334  12.828  14.233
49698W        W14925   4.499  24.153  13.023
49699W        W14926  28.327  16.897  14.266
49700W        W14927  20.725   8.113   2.171
49701W        W14928   4.298   6.786  12.574
49702W        W14929   5.215  16.716  14.213
49703W        W14930  26.170  25.999  14.483
49704W        W14931   4.211   7.946  13.271
49705W        W14932  11.200  19.911  10.787
49706W        W14933  32.581  12.714  12.885
49707W        W14934  33.158  17.178  14.423
49708W        W14935   7.798  26.703   4.504
49709W        W14936  25.373  31.357   4.719
49710W        W14937  39.761  43.477   0.854
49711W        W14938   7.329  26.137   0.849
49712W        W14939  23.472  38.583   4.216
49713W        W14940  31.031   7.193  11.306
49714W        W14941  20.416  34.824   4.189
49715W        W14942   2.978   3.242  10.028
49716W        W14943  17.160  11.680  14.492
49717W        W14944  33.179  39.000   0.411
49718W        W14945  29.932  41.414  14.806
49719W        W14946  31.185  22.761   3.529
49720W        W14947  28.184  33.345   2.816
49721W        W14948  38.289  10.462  13.580
49722W        W14949  11.211   3.954   2.725
49723W        W14950  28.590  38.898   4.559
49724W        W14951  11.240   9.641  11.588
49725W        W14952  11.637   9.358   4.820
49726W        W14953  10.089  25.148   1.307
49727W        W14954  41.018  21.202   4.236
49728W        W14955  43.391  30.851   2.502
49729W        W14956  11.252   9.573  14.242
49730W        W14957  24.036  37.910   4.306
49731W        W14958  16.755  10.062   3.367
49732W        W14959  15.639  25.238  14.419
49733W        W14960  21.734   3.328  11.639
49734W        W14961  28.342  21.049  13.825
49735W        W14962  19.057  33.155  14.379
49736W        W14963  21.271   8.916   0.301
49737W        W14964  39.048  13.195  14.286
49738W        W14965  23.605   1.781   1.461
49739W        W14966  13.324   5.225   4.221
49740W        W14967  44.346  29.281  11.106
49741W        W14968   7.308  23.649  14.401
49742W        W14969  39.250  18.830   3.681
49743W        W14970  11.793  44.029  12.413
49744W        W14971  44.960  35.756   1.626
49745W        W14972  17.791  44.734  14.255
49746W        W14973  28.656  35.053   0.500
49747W        W14974   1.320  11.644   4.376
49748W        W14975  36.608   7.704  13.635
49749W        W14976  31.993  43.294   2.186
49750W        W14977   9.327  36.942   1.601
49751W        W14978  41.875   9.898  12.981
49752W        W14979  24.690   8.374  13.392
49753W        W14980  15.557  19.796  14.437
49754W        W14981  41.486   9.845  13.315
49755W        W14982   7.796  14.073   1.526
49756W        W14983  21.847  39.973   3.809
49757W        W14984  38.113  33.233  13.960
49758W        W14985  20.306  13.192   1.880
49759W        W14986  31.437  23.323  11.534
49760W        W14987   6.417  39.325   4.739
49761W        W14988  17.155  37.166   1.849
49762W        W14989  16.143  22.163  11.481
49763W        W14990  13.960  10.494   0.790
49764W        W14991  32.800   7.792  11.561
49765W        W14992   5.245  26.000   2.175
49766W        W14993  25.698  21.175  11.882
49767W        W14994  24.457  14.868  13.578
49768W        W14995  23.913  10.162  12.023
49769W        W14996  28.000  30.371   4.273
49770W        W14997  19.669  41.465   2.906
49771W        W14998  25.633   2.504   4.045
49772W        W14999  31.531  43.324  14.346
49773W        W15000   1.951  30.746  13.565
49774W        W15001  35.356  39.384   3.643
49775W        W15002   2.463  42.674   0.718
49776W        W15003  40.410  27.782  10.420
49777W        W15004   6.356  21.308   9.970
49778W        W15005  27.528  19.804  13.075
49779W        W15006  24.633  21.268  14.870
49780W        W15007  44.815  14.622   1.890
49781W        W15008  21.706  26.121   4.320
49782W        W15009  10.133   7.799  10.518
49783W        W15010  20.488  20.217  14.866
49784W        W15011   7.177  14.113   4.048
49785W        W15012  44.921  43.495   2.641
49786W        W15013  12.037  17.644  14.363
49787W        W15014   8.167  18.668  14.231
49788W        W15015   7.565  24.190   4.762
49789W        W15016  33.438  36.986   0.873
49790W        W15017  24.717  38.803   0.308
49791W        W15018   6.882  34.295   3.257
49792W        W15019  41.580  42.955  10.708
49793W        W15020  21.624  39.882  12.113
49794W        W15021  13.805  41.903   0.054
49795W        W15022  44.814  33.882  12.824
49796W        W15023  21.675  44.352  14.403
49797W        W15024  20.170  40.569  14.934
49798W        W15025  44.612  35.972   1.953
49799W        W15026  12.614  41.440   1.278
49800W        W15027   0.241  10.969   1.087
49801W        W15028  34.568  13.506   4.620
49802W        W15029  33.639  20.550   4.594
49803W        W15030  26.648  19.184   1.265
49804W        W15031  39.560  13.887   0.358
49805W        W15032  38.381  26.685   1.172
49806W        W15033  34.993  25.951   2.823
49807W        W15034  19.306  43.346   2.772
49808W        W15035  29.806  35.949   4.907
49809W        W15036  15.185  11.426   1.404
49810W        W15037  27.999  26.945   0.380
49811W        W15038   5.649  37.851   2.418
49812W        W15039  20.044  30.206   4.221
49813W        W15040  30.000   7.447  11.482
49814W        W15041  36.489   1.937  14.963
49815W        W15042  13.626  10.899   0.793
49816W        W15043  37.863  36.895  12.518
49817W        W15044   9.746  40.047   0.913
49818W        W15045  35.761  41.169   1.781
49819W        W15046  21.067  12.188   0.798
49820W        W15047  41.456  14.809  14.048
49821W        W15048  38.313  42.770   2.805
49822W        W15049  30.902  21.995   2.413
49823W        W15050  19.854  41.134   0.440
49824W        W15051  28.125  41.503   2.381
49825W        W15052  16.429  36.058   2.732
49826W        W15053  24.411  15.094  12.266
49827W        W15054   6.637   5.788  12.987
49828W        W15055  25.614   7.637  12.145
49829W        W15056  13.176  28.531  12.525
49830W        W15057  35.001  42.003   4.098
49831W        W15058  42.472  14.809  13.397
49832W        W15059  16.342  28.709  11.681
49833W        W15060  35.398   2.418   1.349
49834W        W15061  34.655  41.553  14.045
49835W        W15062  11.129  13.001  13.030
49836W        W15063  34.787  18.345   1.883
49837W        W15064   7.034   5.390   0.458
49838W        W15065  42.434  26.437  10.777
49839W        W15066  16.268  17.110   1.793
49840W        W15067  26.032  43.311   3.773
49841W        W15068  33.727  17.732   3.683
49842W        W15069  35.945  37.050   1.773
49843W        W15070  32.289   7.556  11.627
49844W        W15071  33.651  39.504  12.435
49845W        W15072  40.153   7.097   5.223
49846W        W15073  35.881  30.217  12.437
49847W        W15074  22.219  27.071  11.978
49848W        W15075  10.328   2.158   0.252
49849W        W15076  37.270  44.979   3.774
49850W        W15077  10.770  36.586  13.341
49851W        W15078  12.808  39.701   0.904
49852W        W15079  22.565  42.233  10.665
49853W        W15080  19.193  12.655  10.734
49854W        W15081  31.185  19.582   3.627
49855W        W15082  28.034   9.610  10.342
49856W        W15083   5.306  12.063   0.325
49857W        W15084  20.677   3.315   2.190
49858W        W15085  41.193  20.931  14.275
49859W        W15086  36.901  12.506  11.205
49860W        W15087  12.750  12.358   1.674
49861W        W15088  10.712  16.292  12.007
49862W        W15089  25.443  28.164  13.892
49863W        W15090  12.278  33.143   4.046
49864W        W15091  19.248  43.415  13.062
49865W        W15092  10.578   0.813   2.659
49866W        W15093   7.975  16.276  12.016
49867W        W15094   1.455   7.894   3.270
49868W        W15095  15.757  29.950   0.655
49869W        W15096   8.431   6.317   0.782
49870W        W15097  37.474  36.341  13.279
49871W        W15098   4.900  32.036   1.324
49872W        W15099   5.561   5.985   2.346
49873W        W15100  34.099  22.788   0.206
49874W        W15101  17.799   1.710  10.908
49875W        W15102  14.470   3.053   1.605
49876W        W15103  15.336  13.763  14.190
49877W        W15104   6.385   3.896  11.725
49878W        W15105  25.219  34.294  12.871
49879W        W15106  31.848  19.664   2.220
49880W        W15107   4.060  19.699   3.324
49881W        W15108  10.302  11.388   1.336
49882W        W15109  17.122  32.180   1.696
49883W        W15110  36.558  11.128  13.890
49884W        W15111  36.056  38.565   4.639
49885W        W15112  39.969  36.094   0.003
49886W        W15113  42.269  19.681   0.911
49887W        W15114   4.919  42.150  14.355
49888W        W15115  30.588  29.881  10.798
49889W        W15116  24.115  39.263   3.126
49890W        W15117  43.047  33.019  12.975
49891W        W15118  35.486  44.105   2.234
49892W        W15119  30.151  44.462   2.216
49893W        W15120  37.663  25.342  13.785
49894W        W15121  11.298  40.462   1.862
49895W        W15122  10.664   8.234  13.860
49896W        W15123  25.147  30.604  14.091
49897W        W15124   5.095  11.756  12.962
49898W        W15125  41.521  16.882   1.469
49899W        W15126  18.622  14.766  10.964
49900W        W15127  32.561  31.086   5.032
49901W        W15128   5.264  27.182   2.218
49902W        W15129   1.337   5.935  14.520
49903W        W15130  13.752  13.638  13.505
49904W        W15131   1.709  41.764  14.956
49905W        W15132  26.937  43.219  10.698
49906W        W15133  22.492   4.466   4.528
49907W        W15134  36.849  40.127   0.875
49908W        W15135  40.300   9.240   0.956
49909W        W15136  16.717  13.349  11.394
49910W        W15137  11.510   4.606   2.785
49911W        W15138  30.706  19.388  12.135
49912W        W15139  37.428  15.616  12.125
49913W        W15140  37.915  13.174   4.301
49914W        W15141   3.451   8.827   4.672
49915W        W15142  19.747  14.832  10.704
49916W        W15143  30.901  44.060  13.542
49917W        W15144   8.384  25.511  11.978
49918W        W15145  22.560  26.037  10.810
49919W        W15146  30.819  30.187  12.611
49920W        W15147  24.139  16.769   2.289
49921W        W15148  34.473  35.441   1.692
49922W        W15149  14.381  23.642   1.419
49923W        W15150   5.668  37.377  12.005
49924W        W15151  38.294  39.369   3.238
49925W        W15152  36.330   5.664   3.232
49926W        W15153  16.750  41.811  14.376
49927W        W15154  37.023  35.873   3.047
49928W        W15155  27.003   2.578   0.371
49929W        W15156   5.411  43.447  10.547
49930W        W15157  39.752   4.382   9.907
49931W        W15158   5.538   9.719   0.488
49932W        W15159   7.891  22.588   0.504
49933W        W15160  42.702  35.444   2.330
49934W        W15161  33.275  40.310   0.375
49935W        W15162  17.715  18.626   3.299
49936W        W15163   4.710   7.584   2.229
49937W        W15164   3.900  42.196   3.678
49938W        W15165  17.592  40.796   3.294
49939W        W15166  34.379  39.449  11.407
49940W        W15167  17.112  27.476  11.653
49941W        W15168  24.120   5.848  14.836
49942W        W15169  14.220  43.233   2.201
49943W        W15170  11.779  40.337   0.219
49944W        W15171  25.482  31.364   3.318
49945W        W15172  10.621  35.640   2.370
49946W        W15173  35.796  31.378   4.143
49947W        W15174   3.427  21.254   0.914
49948W        W15175  24.157   0.692   2.144
49949W        W15176  21.616   6.681  11.876
49950W        W15177  27.221  42.843   2.113
49951W        W15178  31.212  27.094   2.487
49952W        W15179  20.991   0.344   1.051
49953W        W15180  40.062  37.091  14.803
49954W        W15181  16.649  27.824   0.557
49955W        W15182   4.137  36.765  10.622
49956W        W15183  20.977  39.988   3.587
49957W        W15184   4.192  37.200   0.940
49958W        W15185  13.854  28.881   2.721
49959W        W15186   3.178  35.645   1.224
49960W        W15187  36.090  19.047  14.399
49961W        W15188   6.489   6.624   1.872
49962W        W15189  17.071  14.791  12.836
49963W        W15190  43.534   0.600  14.484
49964W        W15191   1.288  19.034   3.297
49965W        W15192  15.804   5.432  10.611
49966W        W15193  28.201  43.604  14.902
49967W        W15194  38.419  29.384  13.161
49968W        W15195  12.637  29.864   4.158
49969W        W15196  22.460  33.565  14.653
49970W        W15197  14.226  12.359  12.918
49971W        W15198  23.135  25.600   3.715
49972W        W15199  22.927  18.537   1.366
49973W        W15200  44.268  21.826   5.407
49974W        W15201  12.830  26.244  12.351
49975W        W15202  33.313  24.170   0.070
49976W        W15203  37.579  14.558  13.088
49977W        W15204  24.820   2.950  11.541
49978W        W15205  31.341  44.604  11.260
49979W        W15206  20.545  11.736   1.986
49980W        W15207  22.227  39.891  11.861
49981W        W15208  37.973  38.963   0.720
49982W        W15209  10.466  23.107   1.875
49983W        W15210  15.401  44.323   0.378
49984W        W15211  26.644  27.442  10.308
49985W        W15212  40.050  18.679  14.392
49986W        W15213  23.612  15.091  12.803
49987W        W15214  27.215  38.926   1.727
49988W        W15215   8.086  17.528   3.550
49989W        W15216  37.328  29.949   1.439
49990W        W15217   0.292  35.658   1.259
49991W        W15218  25.025  24.148  14.791
49992W        W15219  36.971  35.170   4.429
49993W        W15220  30.982  35.099   3.604
49994W        W15221  31.090   8.947   2.443
49995W        W15222   2.670  29.933  11.095
49996W        W15223  38.619  40.802  12.700
49997W        W15224  12.665  26.004  11.923
49998W        W15225  19.956  43.328   3.255
49999W        W15226  38.914   8.571   2.790
50000W        W15227  12.651  17.439   4.718
50001W        W15228  40.971  17.165   1.214
50002W        W15229  39.473   3.296  10.669
50003W        W15230  30.030  16.677   3.676
50004W        W15231   9.793  38.289   0.401
50005W        W15232  29.721  32.010  12.459
50006W        W15233   1.395   0.799  11.628
50007W        W15234  33.516  37.634  12.468
50008W        W15235  28.922  16.302   1.907
50009W        W15236   1.827  36.520   3.293
50010W        W15237   0.982  42.627   1.860
50011W        W15238   9.267  43.721  14.087
50012W        W15239  41.657  42.715   3.225
50013W        W15240  15.016  31.283   1.843
50014W        W15241  42.116  24.173   4.093
50015W        W15242  17.273  44.268  11.166
50016W        W15243  29.112   2.007   4.274
50017W        W15244  35.355  10.471  12.563
50018W        W15245  16.760   8.671   4.616
50019W        W15246  13.855  43.600   4.774
50020W        W15247  31.099   5.445  14.074
50021W        W15248  35.277   5.703  13.909
50022W        W15249   8.323  18.785   3.782
50023W        W15250   1.227  38.044  11.592
50024W        W15251  27.938  17.602   0.182
50025W        W15252  32.501  30.645  14.376
50026W        W15253  17.490  26.351  11.140
50027W        W15254  20.110  10.400   0.758
50028W        W15255  10.566   8.684   2.513
50029W        W15256   9.155  11.703   0.387
50030W        W15257  42.664  38.850  14.065
50031W        W15258   7.063  30.535   4.193
50032W        W15259  19.410  36.325   3.836
50033W        W15260   9.022  23.500   1.763
50034W        W15261  22.443  40.009  14.461
50035W        W15262  15.707  38.728   4.934
50036W        W15263   1.853  42.805  14.368
50037W        W15264  27.468  19.418   0.636
50038W        W15265   1.555  40.432   2.321
50039W        W15266  16.405  33.558  12.341
50040W        W15267  31.104  22.498  13.281
50041W        W15268  18.630  41.931   1.211
50042W        W15269   0.203  30.627   4.098
50043W        W15270   1.769   9.350   3.186
50044W        W15271  42.818  14.847   4.569
50045W        W15272  33.143  27.572   3.859
50046W        W15273  12.271   4.807  10.416
50047W        W15274  18.986   4.396   2.597
50048W        W15275  28.207  14.278   4.117
50049W        W15276  41.367  36.257  13.909
50050W        W15277  32.464   8.683   2.254
50051W        W15278  38.927  24.515   4.556
50052W        W15279  16.670  23.974  12.042
50053W        W15280  13.671  36.634   2.082
50054W        W15281  10.178  21.735   0.331
50055W        W15282  10.156  16.959   2.186
50056W        W15283  25.161  11.669   2.115
50057W        W15284  35.627  34.842  10.647
50058W        W15285  43.741   7.874  10.565
50059W        W15286  22.039  40.401  14.524
50060W        W15287  39.716   1.333  11.122
50061W        W15288  44.344  31.134   3.373
50062W        W15289  17.590  32.332  11.072
50063W        W15290  36.797  27.659   0.307
50064W        W15291  15.678  14.260   4.178
50065W        W15292  40.008   8.728   3.325
50066W        W15293  31.074   2.410   0.724
50067W        W15294  36.309  36.581  11.488
50068W        W15295  27.824  20.067  11.687
50069W        W15296   4.727  13.112   1.744
50070W        W15297  39.609   3.619   4.947
50071W        W15298  26.110  44.348   0.216
50072W        W15299   1.008  16.233  14.729
50073W        W15300  41.117  44.729   0.146
50074W        W15301  12.187  35.907   3.765
50075W        W15302  18.185   4.947   2.910
50076W        W15303   6.976  20.215   1.639
50077W        W15304   9.120   2.033  12.336
50078W        W15305   6.223  16.717   3.629
50079W        W15306  24.735  25.741  11.430
50080W        W15307  35.678   2.964  13.950
50081W        W15308  13.273  26.424  12.126
50082W        W15309  38.130   8.374   0.796
50083W        W15310  32.008   7.874   3.150
50084W        W15311  12.374  13.062   3.046
50085W        W15312  41.398  35.843   4.366
50086W        W15313  32.866  17.826  11.727
50087W        W15314   9.681  15.282  14.278
50088W        W15315  10.782  36.389   0.223
50089W        W15316  22.634   4.956   2.766
50090W        W15317  32.944  33.012   2.219
50091W        W15318  16.738  16.754   0.440
50092W        W15319   6.448  34.670   1.219
50093W        W15320  23.655  26.260   3.064
50094W        W15321  40.872  31.854   3.917
50095W        W15322  20.125  35.021   0.659
50096W        W15323  36.398  10.644  13.901
50097W        W15324  41.760  35.098   1.580
50098W        W15325   0.843  35.999   4.043
50099W        W15326  27.168  38.980  10.104
50100W        W15327  38.067  42.835  13.771
50101W        W15328  40.536  14.350   9.490
50102W        W15329  27.908  13.662  14.524
50103W        W15330  32.022  42.556   3.561
50104W        W15331   9.607  24.666  11.147
50105W        W15332  28.562  11.717  10.553
50106W        W15333  44.744  32.510  12.199
50107W        W15334  26.796  36.600   4.190
50108W        W15335  17.951   9.608  13.039
50109W        W15336  13.593   3.148   1.275
50110W        W15337  36.016  32.905  12.457
50111W        W15338  12.094  43.756  13.018
50112W        W15339   8.902  21.315   4.723
50113W        W15340  40.896  20.356   1.256
50114W        W15341   1.320  12.124  11.985
50115W        W15342  36.072   4.041  13.916
50116W        W15343  11.756  26.074  14.487
50117W        W15344  24.740  41.332  11.556
50118W        W15345   5.331  22.899   4.614
50119W        W15346  38.210   3.341  11.089
50120W        W15347  39.073  31.382  12.039
50121W        W15348   2.895  39.495   0.763
50122W        W15349   3.152  35.167   3.885
50123W        W15350  15.344   0.932  14.326
50124W        W15351  18.164  25.032   0.040
50125W        W15352  18.942  44.150   2.657
50126W        W15353  28.142  22.249  13.755
50127W        W15354  11.345  14.863   1.246
50128W        W15355  14.352  12.195  11.562
50129W        W15356   7.899  31.070   4.196
50130W        W15357  12.109  31.637   0.928
50131W        W15358  28.663  41.811  13.859
50132W        W15359  44.757  44.000   2.608
50133W        W15360  32.519   7.884  12.638
50134W        W15361   5.925  36.581   4.622
50135W        W15362  16.115  18.024   4.688
50136W        W15363   7.031  29.849  13.564
50137W        W15364  20.312  33.195   3.186
50138W        W15365   8.354  32.083   2.690
50139W        W15366  33.267  14.486  11.741
50140W        W15367  16.256  30.737   0.973
50141W        W15368  20.065   4.112   2.588
50142W        W15369  18.108  29.905   1.374
50143W        W15370  30.106  37.611   1.081
50144W        W15371   0.941  35.314  11.201
50145W        W15372   2.672  31.555  10.747
50146W        W15373  12.730  31.859   3.412
50147W        W15374   0.681   1.990  12.402
50148W        W15375   8.809  24.463  11.570
50149W        W15376  15.676  27.208   1.307
50150W        W15377  11.737   9.916   4.579
50151W        W15378   7.521  17.084   3.242
50152W        W15379  32.634   9.958  13.145
50153W        W15380  33.461  43.355  13.101
50154W        W15381  37.922  19.222  13.359
50155W        W15382   8.681  29.699  13.573
50156W        W15383  22.937   7.640  11.480
50157W        W15384  23.048  33.413  13.966
50158W        W15385  21.021  41.114  12.391
50159W        W15386   4.166  19.037  13.869
50160W        W15387  35.430  18.212  14.995
50161W        W15388   6.249   2.677  13.901
50162W        W15389   0.837  17.328  13.362
50163W        W15390  11.270  28.926   1.937
50164W        W15391  25.064   6.474   0.315
50165W        W15392  29.755  28.970  11.354
50166W        W15393  40.674  14.670   0.943
50167W        W15394  15.259  24.574  10.419
50168W        W15395  14.810  22.197  14.585
50169W        W15396  25.381  15.887  12.683
50170W        W15397  15.680  41.102  11.593
50171W        W15398  22.686  20.637  11.214
50172W        W15399  17.019  27.111  13.352
50173W        W15400  16.395   6.739  14.233
50174W        W15401   7.677  34.710  11.985
50175W        W15402  19.060   5.696   2.281
50176W        W15403   3.745   4.126  12.524
50177W        W15404   7.781  11.217  11.139
50178W        W15405  22.272  14.184  12.448
50179W        W15406  24.541   7.889   2.410
50180W        W15407  42.468  15.267   4.589
50181W        W15408  33.766  41.913   3.619
50182W        W15409  38.755  29.958   4.328
50183W        W15410   2.158  35.844   4.949
50184W        W15411   0.338  10.436   2.635
50185W        W15412  19.257  36.349  12.848
50186W        W15413   5.729   7.256  13.893
50187W        W15414  10.185  33.069  12.060
50188W        W15415   4.862  10.060   5.105
50189W        W15416   9.336  36.871  14.442
50190W        W15417  33.889  42.785  13.424
50191W        W15418   0.915  24.099  14.208
50192W        W15419  40.435  25.765   4.504
50193W        W15420   7.813   8.389  14.976
50194W        W15421   8.379   9.883   2.230
50195W        W15422  31.599  22.542  13.480
50196W        W15423  18.661  37.903   2.249
50197W        W15424   8.778  37.135   4.064
50198W        W15425   9.110  22.412  14.600
50199W        W15426  43.333  42.091  11.980
50200W        W15427   8.609  27.489   3.842
50201W        W15428  43.724   2.275   3.715
50202W        W15429   4.750   0.279  13.021
50203W        W15430  15.886   7.250  13.144
50204W        W15431  27.800  37.180   4.953
50205W        W15432  35.338  30.704  10.539
50206W        W15433  12.920  33.977   4.110
50207W        W15434  17.866  10.997  13.513
50208W        W15435  42.678   3.790   2.910
50209W        W15436  29.312  44.261  14.303
50210W        W15437  16.185   5.434   0.683
50211W        W15438  41.596  23.198  12.117
50212W        W15439   8.772  32.989   2.897
50213W        W15440   3.395  19.998  14.896
50214W        W15441  17.049  21.528   1.689
50215W        W15442   5.118  19.018  11.122
50216W        W15443  10.419   8.249  11.233
50217W        W15444   4.332  42.326  10.353
50218W        W15445  21.591   9.127   3.420
50219W        W15446   8.224  36.953  10.675
50220W        W15447  38.113  42.440  13.087
50221W        W15448  13.018  18.525  10.474
50222W        W15449  10.664   7.694  11.589
50223W        W15450   0.301  29.746   2.685
50224W        W15451  27.428  10.610   3.737
50225W        W15452   3.945   9.785  11.662
50226W        W15453  11.265  27.575  14.849
50227W        W15454  17.855   4.376  10.597
50228W        W15455  18.242   0.951   4.734
50229W        W15456  34.103  11.906   2.402
50230W        W15457   2.906  28.568   4.941
50231W        W15458  18.575  27.154   4.591
50232W        W15459  27.616  16.324   1.618
50233W        W15460  27.867  38.412   4.671
50234W        W15461  32.154  44.436   0.424
50235W        W15462   8.862  12.001  10.650
50236W        W15463  11.393  11.617   3.663
50237W        W15464   4.819  28.558  10.722
50238W        W15465  30.880  30.683   1.902
50239W        W15466   9.816  32.835  13.479
50240W        W15467  26.104  23.623  14.530
50241W        W15468   5.170  19.787   2.621
50242W        W15469   0.982  39.847   0.663
50243W        W15470  28.599  11.452   3.716
50244W        W15471  17.151  22.770  11.081
50245W        W15472  22.763  24.401  10.722
50246W        W15473  12.139  20.022   4.082
50247W        W15474  33.028  28.212   1.885
50248W        W15475  23.559  17.592  13.364
50249W        W15476   4.235  14.189   4.038
50250W        W15477  27.198   7.618   2.414
50251W        W15478  38.876   1.926   2.601
50252W        W15479   1.416  42.984  12.251
50253W        W15480  18.095  40.723   4.130
50254W        W15481   8.415  24.964   2.341
50255W        W15482   6.190  11.097  10.110
50256W        W15483  22.843   7.002  13.103
50257W        W15484  13.340  27.220  11.688
50258W        W15485   9.839  16.532   1.238
50259W        W15486   5.395  21.071  11.043
50260W        W15487  11.279  35.997  10.408
50261W        W15488   6.333   0.365  14.029
50262W        W15489  38.043  42.762   2.365
50263W        W15490  13.648   5.888   1.230
50264W        W15491   5.406  17.029   0.921
50265W        W15492  17.097  27.650   0.388
50266W        W15493  33.338  40.444  13.520
50267W        W15494   2.052  26.413  13.286
50268W        W15495  20.263  10.066  14.854
50269W        W15496  26.269  14.026  12.493
50270W        W15497   8.683  16.132   4.889
50271W        W15498  22.077   7.011  11.506
50272W        W15499  37.956  26.149   2.330
50273W        W15500  19.913  15.689   4.163
50274W        W15501  15.590  21.791   4.240
50275W        W15502   4.727  12.718   5.005
50276W        W15503  27.001  37.339  14.388
50277W        W15504  37.678   0.472   2.083
50278W        W15505  21.455  20.242   4.113
50279W        W15506   7.105  14.895   2.128
50280W        W15507  21.805  25.917   0.413
50281W        W15508   6.376  24.151   2.376
50282W        W15509  29.506  23.980   3.743
50283W        W15510   1.671   4.732   2.805
50284W        W15511  27.267  14.897   2.238
50285W        W15512  41.021  33.212  11.491
50286W        W15513  36.475  19.324  11.592
50287W        W15514  42.766  29.000  12.717
50288W        W15515  39.075  18.699  11.185
50289W        W15516  35.983  27.102   1.578
50290W        W15517  44.399  24.073  13.973
50291W        W15518  37.059  19.225  12.455
50292W        W15519  11.833  11.345   0.327
50293W        W15520   6.361  31.781   5.026
50294W        W15521  20.712  38.084  11.863
50295W        W15522  35.887  11.650   4.481
50296W        W15523  26.634  44.423  13.805
50297W        W15524  24.524   8.945  14.217
50298W        W15525  15.289  33.692  12.274
50299W        W15526  13.607  26.521  14.898
50300W        W15527  19.491  32.342   0.813
50301W        W15528  33.965  15.833   3.321
50302W        W15529  29.515  42.780   0.511
50303W        W15530  42.027   5.386   3.654
50304W        W15531  16.863  39.848  11.394
50305W        W15532  24.736  39.299   1.039
50306W        W15533  15.989  30.572   4.182
50307W        W15534  37.280  30.090  13.084
50308W        W15535  30.524  38.377  12.091
50309W        W15536  28.864   3.377   3.229
50310W        W15537  31.219  16.029  11.919
50311W        W15538  31.669  36.903  14.429
50312W        W15539  40.358  31.696  12.120
50313W        W15540  41.860  30.534   1.256
50314W        W15541  17.849  22.255   4.186
50315W        W15542  15.666   6.027   4.453
50316W        W15543  27.473   8.173  14.393
50317W        W15544  30.544   9.471   1.752
50318W        W15545  11.127  39.749   1.313
50319W        W15546   5.964  13.139  14.591
50320W        W15547  10.639  24.441   1.913
50321W        W15548  19.150  27.877   3.707
50322W        W15549  15.201  16.020   2.623
50323W        W15550  37.138  13.326  14.070
50324W        W15551   6.742  17.153   3.048
50325W        W15552  33.431  20.537  13.873
50326W        W15553   9.216   5.296  14.538
50327W        W15554  20.154  11.085  12.099
50328W        W15555  23.973   3.814   2.606
50329W        W15556   9.670  39.068  11.939
50330W        W15557  34.981  36.028   4.759
50331W        W15558   8.283  23.415  11.172
50332W        W15559  44.697   9.516  11.953
50333W        W15560  22.479  43.008  13.835
50334W        W15561  35.303  12.044  10.721
50335W        W15562   9.843   5.004   0.415
50336W        W15563  25.327   5.851   0.972
50337W        W15564   1.687  42.220   3.263
50338W        W15565  40.501  44.193  14.820
50339W        W15566  36.298  25.224  11.872
50340W        W15567  32.097  41.175   2.525
50341W        W15568  16.075  38.652   2.004
50342W        W15569  29.696  43.731   1.308
50343W        W15570  30.923  38.892  13.729
50344W        W15571  17.018  44.808   1.844
50345W        W15572  33.476   0.253  14.912
50346W        W15573  42.580   7.898   1.707
50347W        W15574   4.918  35.815  11.218
50348W        W15575  31.697  15.871   4.542
50349W        W15576   8.760  22.665  13.532
50350W        W15577  11.340  38.365   1.325
50351W        W15578  29.995  42.937   1.229
50352W        W15579  17.258  35.496  10.646
50353W        W15580  35.336   6.917   0.917
50354W        W15581  37.689  29.662  12.507
50355W        W15582  42.303   6.929   4.137
50356W        W15583  35.393  23.899  13.701
50357W        W15584  23.257  21.142   3.830
50358W        W15585  32.559  21.999   0.942
50359W        W15586  40.977  13.054  12.373
50360W        W15587  23.460   2.994   0.757
50361W        W15588  39.077  19.966   4.099
50362W        W15589  22.310  33.229   0.843
50363W        W15590  12.933  42.371  13.430
50364W        W15591  18.604  10.429  12.430
50365W        W15592  33.627  41.486  10.697
50366W        W15593  24.927  28.930  11.919
50367W        W15594   3.302  17.711   0.629
50368W        W15595  27.117  11.253   2.779
50369W        W15596   7.551  25.120   1.134
50370W        W15597  36.326  14.215  12.593
50371W        W15598   6.100  17.613   2.188
50372W        W15599  17.035  19.854  12.404
50373W        W15600   0.178  12.251   0.904
50374W        W15601  30.949   1.365   3.341
50375W        W15602  27.500  35.919   0.527
50376W        W15603  42.154  10.649   4.023
50377W        W15604  37.451  23.698  14.851
50378W        W15605   1.055   0.365  12.394
50379W        W15606   2.641   7.126  11.764
50380W        W15607   3.152  18.507  14.891
50381W        W15608  15.358  27.997   1.727
50382W        W15609  20.124  37.227  12.686
50383W        W15610  42.987  31.923   3.212
50384W        W15611  24.117  24.655  13.183
50385W        W15612   6.849  34.082  11.967
50386W        W15613  19.478   7.098  12.858
50387W        W15614   1.845  37.645  11.600
50388W        W15615   0.427  28.111   2.241
50389W        W15616  11.127  37.373  11.697
50390W        W15617  41.474  19.267   1.644
50391W        W15618  12.239   7.376  10.650
50392W        W15619  27.566  10.689   4.602
50393W        W15620  11.849   2.823  13.692
50394W        W15621   9.286  44.260   1.283
50395W        W15622  43.826  24.978   0.242
50396W        W15623  14.571  28.652   0.401
50397W        W15624  26.183  31.609   1.445
50398W        W15625  37.829  14.375  14.009
50399W        W15626   8.796  16.175   1.200
50400W        W15627  25.129   9.467   4.648
50401W        W15628  43.089  33.971   0.351
50402W        W15629  30.031  16.608   2.378
50403W        W15630  39.019  10.294  12.722
50404W        W15631  40.852  10.174   4.844
50405W        W15632  27.386   1.192  13.175
50406W        W15633  23.586  32.432   4.491
50407W        W15634  10.697  37.129   4.202
50408W        W15635   9.679  22.718  13.773
50409W        W15636  26.112  29.934  14.907
50410W        W15637  39.974  33.869  13.790
50411W        W15638   3.396  43.489   2.678
50412W        W15639   0.870  14.464   3.517
50413W        W15640  34.541  40.951  12.951
50414W        W15641  25.351  41.829  14.784
50415W        W15642  20.670  25.349   1.419
50416W        W15643  39.927  15.049  10.635
50417W        W15644  43.461  22.808  12.610
50418W        W15645  37.090  21.386  11.313
50419W        W15646   0.178  26.538  10.025
50420W        W15647   6.118  34.455  14.529
50421W        W15648  40.899  21.062   3.020
50422W        W15649  29.406  28.157  12.029
50423W        W15650  32.519  13.951  11.444
50424W        W15651  24.653  15.753   4.621
50425W        W15652  18.577  44.054   0.990
50426W        W15653  35.451  36.370  13.636
50427W        W15654  11.236   9.117   4.618
50428W        W15655  16.102  41.331   0.936
50429W        W15656  26.559   0.138   3.632
50430W        W15657  13.729  17.016  11.968
50431W        W15658   3.449  31.997  12.923
50432W        W15659  24.504  34.636  10.775
50433W        W15660  30.477  14.621  13.871
50434W        W15661  17.181  16.849  12.386
50435W        W15662  24.080  22.704   1.830
50436W        W15663  30.153  42.052   3.689
50437W        W15664   4.883  25.108  14.334
50438W        W15665  16.703  16.092   4.565
50439W        W15666  11.958  36.313  13.402
50440W        W15667  25.425  17.657  13.980
50441W        W15668   3.243  43.000  14.870
50442W        W15669  26.827  37.192   0.885
50443W        W15670  29.747  40.767  13.982
50444W        W15671  25.423   7.460  12.572
50445W        W15672  12.342  40.448   0.392
50446W        W15673  12.149   1.978  12.057
50447W        W15674  20.121  18.324   2.602
50448W        W15675  12.304  10.713   2.572
50449W        W15676  17.848   5.813   1.420
50450W        W15677  10.335  37.708  13.499
50451W        W15678  13.439  31.184   2.148
50452W        W15679  26.280  40.791   1.321
50453W        W15680  11.698  36.408  14.793
50454W        W15681  13.421  40.760   3.688
50455W        W15682  37.787   4.294  10.977
50456W        W15683  29.054   1.191  12.567
50457W        W15684   5.393  38.470   1.448
50458W        W15685  30.995  34.071   2.565
50459W        W15686  24.165  18.669  13.359
50460W        W15687  10.635  13.977  11.629
50461W        W15688   4.118  33.318   3.255
50462W        W15689  40.335  44.931  14.545
50463W        W15690   3.263  13.263   0.819
50464W        W15691   8.785  16.569  14.945
50465W        W15692  18.722  30.981  13.942
50466W        W15693  40.899   0.798   3.868
50467W        W15694  32.639   2.860   1.652
50468W        W15695  32.903  22.989   2.354
50469W        W15696  44.250  20.707   3.146
50470W        W15697   2.874  15.333  12.846
50471W        W15698  39.858   9.701   2.189
50472W        W15699  36.544  25.966   0.092
50473W        W15700  30.467  37.892   1.755
50474W        W15701  15.736  17.948  13.560
50475W        W15702  42.004  12.146   1.527
50476W        W15703  12.768   3.402   1.208
50477W        W15704   9.898  16.487   4.474
50478W        W15705  16.674  10.387  12.175
50479W        W15706   4.681   1.767  14.876
50480W        W15707   5.944   8.717   2.845
50481W        W15708  25.509  41.988  11.501
50482W        W15709   1.363   8.345   0.025
50483W        W15710  15.299   8.863  12.924
50484W        W15711  27.672  17.747  12.938
50485W        W15712  16.250  42.547   0.334
50486W        W15713  13.339  20.932  14.040
50487W        W15714  20.825  15.847   1.103
50488W        W15715  37.531   9.567   4.136
50489W        W15716   7.050  39.423  10.937
50490W        W15717  19.637   4.791  13.214
50491W        W15718  33.637  36.421   1.379
50492W        W15719   3.081   9.149   4.807
50493W        W15720  37.869  16.006  13.465
50494W        W15721  35.415  32.464  12.523
50495W        W15722  39.578  11.921   3.788
50496W        W15723  44.874  42.436  12.744
50497W        W15724  10.028  31.120  13.068
50498W        W15725  30.721  43.448   0.933
50499W        W15726  28.495  39.146  12.292
50500W        W15727   7.105  42.805  11.675
50501W        W15728  34.974  36.578  12.388
50502W        W15729  26.387  26.599   5.027
50503W        W15730  30.258  27.642  13.502
50504W        W15731  43.977  16.311   3.663
50505W        W15732  12.393  18.218  11.972
50506W        W15733   4.645  20.359   1.747
50507W        W15734   3.537   9.864   2.830
50508W        W15735   5.066  36.878  11.474
50509W        W15736  31.092  23.731  12.028
50510W        W15737   4.258  36.752   1.291
50511W        W15738  38.059  10.044  10.008
50512W        W15739  15.575  23.374   1.954
50513W        W15740   2.766  28.081   5.027
50514W        W15741  24.230  22.960  14.040
50515W        W15742  37.853   0.764  12.815
50516W        W15743  42.876  30.665   0.184
50517W        W15744  39.042  14.090   2.693
50518W        W15745  11.762  18.131  12.621
50519W        W15746  41.590  43.365   1.391
50520W        W15747   4.902  43.587   3.544
50521W        W15748   3.533   1.488   4.593
50522W        W15749   8.214  18.067   4.512
50523W        W15750  21.251   5.693   4.824
50524W        W15751  43.879   5.249   3.164
50525W        W15752   5.648   6.167  12.513
50526W        W15753  15.254  27.078  12.554
50527W        W15754  13.313   8.731  13.044
50528W        W15755  21.124  38.385   4.041
50529W        W15756   8.381  29.967   1.659
50530W        W15757  44.824  21.280  14.507
50531W        W15758  30.113  23.546  13.960
50532W        W15759  31.428  24.580  12.095
50533W        W15760  20.101  33.946   4.162
50534W        W15761   7.634  32.386  13.486
50535W        W15762   4.447  24.311   0.756
50536W        W15763   2.757   8.215  14.853
50537W        W15764  33.869  29.449  10.802
50538W        W15765  25.128  42.512  10.725
50539W        W15766  18.071  22.664   3.595
50540W        W15767   4.334  13.102  10.528
50541W        W15768  13.988  42.694  10.160
50542W        W15769  24.329  44.675  12.030
50543W        W15770   9.825  36.791  10.838
50544W        W15771   2.127  36.166   2.777
50545W        W15772  17.092   1.918  14.967
50546W        W15773  14.281  10.842   4.493
50547W        W15774  14.779  15.818  12.067
50548W        W15775  37.044  23.116   2.952
50549W        W15776  32.581  21.686   2.860
50550W        W15777   1.742  17.048  12.431
50551W        W15778  12.774   6.372  14.030
50552W        W15779  25.116  20.195   2.826
50553W        W15780  12.602   7.848   2.726
50554W        W15781  33.101  29.710   2.405
50555W        W15782   9.701  12.578  14.997
50556W        W15783  10.587  33.777  12.524
50557W        W15784  35.414  43.795   3.924
50558W        W15785  36.931  19.960  11.719
50559W        W15786   0.231  24.793  12.082
50560W        W15787  30.933   5.306   2.808
50561W        W15788   4.752  39.731   1.751
50562W        W15789  12.101  21.608  14.272
50563W        W15790  44.296   6.555   0.719
50564W        W15791  42.565  37.975   1.658
50565W        W15792  30.588  19.298   4.239
50566W        W15793   4.055  28.149   4.499
50567W        W15794  44.020  30.057  14.300
50568W        W15795  31.996  30.718  14.481
50569W        W15796  13.125  19.075   0.226
50570W        W15797  33.929  24.861   1.775
50571W        W15798  28.240   6.071  12.509
50572W        W15799   8.857  30.089   3.146
50573W        W15800  44.997  25.126  13.658
50574W        W15801   7.203  24.603   4.737
50575W        W15802   4.212  22.027  13.361
50576W        W15803  40.525  30.989   2.848
50577W        W15804  37.319  34.814  14.558
50578W        W15805  13.138   8.213  14.293
50579W        W15806   7.838  22.243  11.751
50580W        W15807  35.290   4.331  14.230
50581W        W15808  11.734   1.804   0.497
50582W        W15809  13.795  34.906   2.918
50583W        W15810  11.654  14.309  14.808
50584W        W15811  15.845  42.782   1.506
50585W        W15812   8.375  27.521  14.591
50586W        W15813   4.453   4.031  10.772
50587W        W15814  16.584  14.767  13.006
50588W        W15815   8.594  18.081   4.139
50589W        W15816  21.493  10.393   3.696
50590W        W15817   5.730  27.925  14.781
50591W        W15818  40.926  38.828  14.083
50592W        W15819  17.843   7.951  13.544
50593W        W15820   8.073   9.876  14.504
50594W        W15821  43.982   3.925   4.276
50595W        W15822  17.567  21.285   2.423
50596W        W15823  39.273  20.676  11.505
50597W        W15824  22.039  42.306   3.645
50598W        W15825  19.469  42.185   4.096
50599W        W15826  20.229  44.054   4.153
50600W        W15827  32.867   2.834  11.124
50601W        W15828  19.585  36.990   0.493
50602W        W15829  33.161  28.619  10.748
50603W        W15830  26.150  44.802  11.629
50604W        W15831  12.628  20.546   4.550
50605W        W15832  35.461  28.501   4.672
50606W        W15833  42.327  31.108   0.833
50607W        W15834  42.032  21.779  13.957
50608W        W15835  15.655  21.020  14.004
50609W        W15836  42.917  12.400  12.229
50610W        W15837   1.269   5.513  10.784
50611W        W15838  16.727   0.591   3.326
50612W        W15839  21.988  28.449   2.881
50613W        W15840  37.412  29.606  14.108
50614W        W15841  40.810  27.051  13.362
50615W        W15842  44.803  16.889  11.184
50616W        W15843  23.063  31.948   4.881
50617W        W15844   6.167   5.010   3.496
50618W        W15845  37.492  41.252   1.752
50619W        W15846  10.321   4.891  14.053
50620W        W15847  11.364  44.591  11.629
50621W        W15848  24.459   8.337   0.360
50622W        W15849  12.281  25.213   4.913
50623W        W15850  35.560  11.711   3.567
50624W        W15851  30.675   9.742  10.652
50625W        W15852  20.758  13.285  10.659
50626W        W15853  26.105   1.454  14.947
50627W        W15854  26.524  21.176  10.319
50628W        W15855  30.496  14.883  12.054
50629W        W15856  32.152  44.331   4.194
50630W        W15857  20.593  19.139   2.733
50631W        W15858  12.184  12.785  10.545
50632W        W15859  42.650  39.768   2.876
50633W        W15860  29.812   6.779   0.813
50634W        W15861  39.754  31.748   3.239
50635W        W15862   1.322  43.429  12.985
50636W        W15863   5.401  30.430   2.219
50637W        W15864  29.563   3.825   2.275
50638W        W15865  15.276  12.262   4.210
50639W        W15866   1.410  26.102   9.923
50640W        W15867  20.125  35.097  10.536
50641W        W15868  43.341   6.140  11.441
50642W        W15869   2.224  43.530   0.630
50643W        W15870  10.606  38.465   1.846
50644W        W15871  42.966  16.735   1.822
50645W        W15872  20.203  34.357  14.230
50646W        W15873  44.995  13.187   4.341
50647W        W15874  44.946  41.549  14.756
50648W        W15875  28.130   7.412   4.632
50649W        W15876  25.716   5.296  14.526
50650W        W15877  38.321  31.063   1.134
50651W        W15878  10.738  28.466  11.369
50652W        W15879  37.964  37.556  11.449
50653W        W15880   8.362  10.336  14.449
50654W        W15881  40.573  24.945  12.952
50655W        W15882  32.157   7.905  13.031
50656W        W15883  19.501  25.123  13.458
50657W        W15884   8.811   9.811   0.484
50658W        W15885  26.663   0.900  12.839
50659W        W15886  30.515  25.039   2.622
50660W        W15887  44.520  40.796  13.844
50661W        W15888  40.532  16.900   2.281
50662W        W15889  15.281  20.025   2.768
50663W        W15890   9.318   4.864  11.670
50664W        W15891  12.216  28.563  14.459
50665W        W15892  17.799   8.905  13.630
50666W        W15893  10.318  10.779  12.457
50667W        W15894  13.118  23.569  12.649
50668W        W15895  32.531  41.042  10.837
50669W        W15896  15.902   9.346  12.513
50670W        W15897   8.837   1.309   4.567
50671W        W15898  10.167  26.118   0.947
50672W        W15899   6.187  28.015   0.018
50673W        W15900   3.904  15.618  10.463
50674W        W15901  40.989  33.359   5.303
50675W        W15902  26.457   2.417   3.769
50676W        W15903   8.721  17.320   4.537
50677W        W15904  44.966  13.813  11.290
50678W        W15905  24.365  18.789   1.739
50679W        W15906  25.721  36.331   0.843
50680W        W15907  14.130  36.655   0.600
50681W        W15908   1.696   3.202  10.635
50682W        W15909   8.305  18.366  12.563
50683W        W15910   5.907  24.945  14.387
50684W        W15911  22.029  10.267   1.772
50685W        W15912  33.410  24.550   1.915
50686W        W15913  42.835   6.872  12.522
50687W        W15914   3.182  23.968   0.015
50688W        W15915  37.132   1.902   3.184
50689W        W15916  34.008  35.010   3.608
50690W        W15917  34.438  23.613   0.357
50691W        W15918  38.946   5.770   0.937
50692W        W15919  20.169  19.592  10.823
50693W        W15920  26.617  29.873   1.793
50694W        W15921  14.941  42.851   1.489
50695W        W15922  32.573  31.232   4.277
50696W        W15923   9.222  10.577   1.403
50697W        W15924  15.720  36.640  11.944
50698W        W15925   6.778  36.538  12.130
50699W        W15926  31.398   4.313  13.050
50700W        W15927   6.948  41.452  14.776
50701W        W15928   3.439  13.551  10.736
50702W        W15929  34.022   0.985   2.190
50703W        W15930  38.437  33.619  11.939
50704W        W15931  30.819   2.456  11.122
50705W        W15932  30.037  40.081   1.282
50706W        W15933  44.530  39.088   0.924
50707W        W15934  33.547  10.380  10.677
50708W        W15935   5.955   6.013   4.617
50709W        W15936  43.323   7.320   4.913
50710W        W15937   8.857  10.717   0.043
50711W        W15938  37.756  35.416   2.711
50712W        W15939  42.288  24.515  14.396
50713W        W15940  26.012  26.678  12.473
50714W        W15941   0.425  29.624  11.195
50715W        W15942  12.680  13.777   3.671
50716W        W15943  20.273  34.522   2.136
50717W        W15944  15.258  16.066   1.746
50718W        W15945  33.437  22.118  11.526
50719W        W15946   9.916  17.915   0.855
50720W        W15947  29.728  19.304  12.931
50721W        W15948  39.009  38.432  13.329
50722W        W15949  36.477  12.220  11.151
50723W        W15950  12.950  12.582  14.056
50724W        W15951  24.462   1.216  10.657
50725W        W15952  21.470  17.654   3.338
50726W        W15953   8.777  20.370  13.507
50727W        W15954  41.536  32.516  10.931
50728W        W15955   4.580  10.811  11.714
50729W        W15956   8.429  24.144   2.287
50730W        W15957  17.343  12.281  11.051
50731W        W15958  33.110  11.094  11.015
50732W        W15959  18.640  41.716  12.497
50733W        W15960  30.368  26.407   3.634
50734W        W15961  31.195  14.841  10.607
50735W        W15962  22.388  36.117  11.153
50736W        W15963  40.002  23.553   0.253
50737W        W15964  18.289  16.672  13.925
50738W        W15965  16.075   3.237   1.778
50739W        W15966  42.783   9.389   3.689
50740W        W15967  11.520   7.381   0.389
50741W        W15968   5.440  31.513   4.500
50742W        W15969   4.528  31.910  10.365
50743W        W15970   8.610  36.428   3.685
50744W        W15971  37.454   3.877  12.836
50745W        W15972  30.967   1.198  14.509
50746W        W15973  10.654   2.034  13.160
50747W        W15974   4.377  43.532   0.981
50748W        W15975  33.062  43.865   4.115
50749W        W15976  39.672  26.058  13.520
50750W        W15977  26.430   6.844  13.900
50751W        W15978  16.138  40.633   0.012
50752W        W15979  23.224  16.648   1.135
50753W        W15980  30.749   8.692  14.796
50754W        W15981  17.455  34.488  13.430
50755W        W15982  18.066  31.671  12.478
50756W        W15983  43.221  44.083   2.447
50757W        W15984   1.757  24.163  13.914
50758W        W15985  36.598  10.070  10.248
50759W        W15986   3.177  31.954   4.403
50760W        W15987   4.744  25.873   4.164
50761W        W15988   4.899  37.527   1.121
50762W        W15989  33.401   3.498  10.344
50763W        W15990   9.128   0.809  11.997
50764W        W15991  10.191   4.299  10.562
50765W        W15992   6.377  11.737   0.042
50766W        W15993  36.611  14.034   1.311
50767W        W15994  24.213  43.445   3.425
50768W        W15995  20.505  21.684  10.502
50769W        W15996   4.890   0.496  12.042
50770W        W15997  40.269  13.840  11.213
50771W        W15998  42.318  36.677   2.090
50772W        W15999   9.281   7.417   3.843
50773W        W16000  25.870  20.464  11.178
50774W        W16001  35.041  40.686   2.330
50775W        W16002  36.929  19.522  11.472
50776W        W16003  36.394  39.986   1.841
50777W        W16004  44.020   2.827  10.813
50778W        W16005  40.873   4.730   3.250
50779W        W16006   8.969  12.118  14.346
50780W        W16007  24.751  28.095  10.712
50781W        W16008  25.794  11.105   1.890
50782W        W16009   6.457  12.424   4.400
50783W        W16010  44.363   0.762  10.675
50784W        W16011  44.848  43.693   9.775
50785W        W16012  35.062  34.007  14.251
50786W        W16013  42.019  40.489   4.253
50787W        W16014  11.865  33.138  14.573
50788W        W16015  34.536   6.691  14.879
50789W        W16016  23.813  14.853   0.817
50790W        W16017  22.915  22.534   0.883
50791W        W16018  18.348  23.683   1.243
50792W        W16019  23.698  27.659  12.975
50793W        W16020  20.117   9.218  14.928
50794W        W16021  32.012   3.193   3.659
50795W        W16022   9.407  29.627  12.417
50796W        W16023  21.579  28.481  10.363
50797W        W16024  28.031   3.227   2.799
50798W        W16025   0.879  19.195   0.267
50799W        W16026  18.534   2.493  13.434
50800W        W16027   7.662  38.899   2.070
50801W        W16028  29.093  34.322  10.716
50802W        W16029   1.860  16.251  10.459
50803W        W16030  37.394  41.745   2.701
50804W        W16031  20.801   2.772  12.980
50805W        W16032   7.839  28.138  10.802
50806W        W16033  41.323  16.648   0.572
50807W        W16034  13.060  44.896  11.671
50808W        W16035   5.408  18.231  10.642
50809W        W16036  44.801  23.918  12.962
50810W        W16037  40.136  15.151  11.951
50811W        W16038  16.433  19.456  13.433
50812W        W16039  42.024   3.574  12.432
50813W        W16040   3.841   0.385  13.979
50814W        W16041  34.565  32.338  12.521
50815W        W16042  16.232   8.566   4.678
50816W        W16043  30.421  16.590  13.468
50817W        W16044  17.801  29.459   4.174
50818W        W16045  44.417  32.137  13.793
50819W        W16046  42.519  23.543  12.206
50820W        W16047  34.869   1.219   4.826
50821W        W16048  28.025  34.794  10.980
50822W        W16049  35.420  28.468   0.806
50823W        W16050  33.933   4.168  13.875
50824W        W16051   7.689  31.167  10.789
50825W        W16052  36.568   1.411  10.742
50826W        W16053   6.119  39.330  11.824
50827W        W16054  44.951  43.949   3.957
50828W        W16055  21.685   9.420  10.984
50829W        W16056  34.197  36.597  12.415
50830W        W16057  10.355  28.106   4.622
50831W        W16058  44.847  31.897  10.725
50832W        W16059   7.307  29.209   1.381
50833W        W16060  35.223   7.743  13.466
50834W        W16061   3.179  38.005   3.713
50835W        W16062  18.914  35.332  11.641
50836W        W16063  42.517  12.105  14.987
50837W        W16064  43.430  28.217  14.208
50838W        W16065   7.012  44.328  13.400
50839W        W16066  29.131  11.230   2.906
50840W        W16067  35.519  15.481  13.754
50841W        W16068  22.422  43.237   3.268
50842W        W16069  15.713  43.217  11.188
50843W        W16070  19.566   8.385  10.725
50844W        W16071  22.464   9.536  14.256
50845W        W16072  22.085  32.601  13.333
50846W        W16073  13.113  11.496  11.184
50847W        W16074  18.230  16.791   2.023
50848W        W16075   3.710  24.200  10.580
50849W        W16076  39.141  18.301   0.710
50850W        W16077   4.911  22.093  12.439
50851W        W16078  20.488  28.737  14.895
50852W        W16079  44.391   3.603  14.444
50853W        W16080  25.293  22.999   0.241
50854W        W16081  11.816  21.193   4.285
50855W        W16082  40.345  25.784   3.142
50856W        W16083  24.380   6.620  10.528
50857W        W16084   6.840  27.729  12.501
50858W        W16085  26.722  39.457   1.335
50859W        W16086  36.101  37.318  11.614
50860W        W16087  26.486  40.585   4.102
50861W        W16088   7.621  29.027  10.602
50862W        W16089  16.244  25.221   3.796
50863W        W16090  18.022  22.069   0.387
50864W        W16091   8.177   9.156   1.735
50865W        W16092  38.402   8.831  12.644
50866W        W16093  43.072  21.589   0.783
50867W        W16094  10.309  42.618  12.115
50868W        W16095   7.284  14.380  14.434
50869W        W16096   3.462  40.350   2.444
50870W        W16097   5.834  40.787  13.991
50871W        W16098   5.076  30.259   4.984
50872W        W16099   9.612  29.446   1.639
50873W        W16100  14.055   2.014   0.693
50874W        W16101  18.157  44.804  13.890
50875W        W16102  18.855  19.478   2.178
50876W        W16103  19.106  41.744  11.649
50877W        W16104  28.025  26.600  13.461
50878W        W16105  40.467  34.717  14.630
50879W        W16106  28.570  14.325   0.308
50880W        W16107   0.394  18.055  10.724
50881W        W16108  44.338  22.921   4.151
50882W        W16109  28.107  29.127  13.525
50883W        W16110  24.297   4.820  14.462
50884W        W16111   9.202  15.215  12.610
50885W        W16112  11.554   9.688  13.432
50886W        W16113  32.040   8.328   0.442
50887W        W16114  39.757  32.085  10.647
50888W        W16115  15.314  44.271  11.410
50889W        W16116  21.568   8.272   4.336
50890W        W16117  18.962  23.605  12.963
50891W        W16118  42.293  17.648  14.718
50892W        W16119  20.677  30.153  12.497
50893W        W16120  32.628  16.801   0.829
50894W        W16121  40.363  16.343   1.419
50895W        W16122  10.792  18.565   3.073
50896W        W16123  37.307  10.111  14.542
50897W        W16124  11.115   9.088   1.887
50898W        W16125  10.384   7.851   2.255
50899W        W16126  36.469  27.268  12.147
50900W        W16127  25.352  21.251   3.678
50901W        W16128  19.543  25.266   3.353
50902W        W16129   8.147  36.834  11.978
50903W        W16130  21.292  31.407   1.298
50904W        W16131   0.483  11.675   4.114
50905W        W16132   4.477   2.475  12.468
50906W        W16133  12.584  14.129   4.047
50907W        W16134  32.906  38.462  12.307
50908W        W16135  43.810  19.994  10.949
50909W        W16136  40.420  11.862   2.191
50910W        W16137   8.672  33.044  12.996
50911W        W16138   5.352  36.022   1.368
50912W        W16139   6.016   7.297   1.895
50913W        W16140  43.480  33.325   0.943
50914W        W16141  25.213  35.251  12.000
50915W        W16142  31.024  42.479  12.616
50916W        W16143  33.175  12.356  12.605
50917W        W16144  17.481  35.618  13.895
50918W        W16145   5.032   7.309  12.616
50919W        W16146  29.574   3.517   2.723
50920W        W16147  34.024  21.568   0.752
50921W        W16148  32.392  34.095  10.788
50922W        W16149   0.162  16.543  11.739
50923W        W16150  25.959  29.451   4.074
50924W        W16151  41.393  44.122   3.349
50925W        W16152  10.769  20.143  13.385
50926W        W16153   0.295  42.089  11.138
50927W        W16154  38.534  18.513  13.582
50928W        W16155  43.773  37.635  14.424
50929W        W16156  42.171  17.656   3.278
50930W        W16157  43.287  14.100   3.539
50931W        W16158  18.142  17.080  11.166
50932W        W16159  20.153  38.377  14.064
50933W        W16160  43.046  39.862   2.505
50934W        W16161  13.897   8.260  12.999
50935W        W16162  38.856  14.679   1.930
50936W        W16163   3.536  12.847  12.900
50937W        W16164  19.531   4.742   3.290
50938W        W16165  15.744  17.591  14.907
50939W        W16166  27.003  42.380   2.970
50940W        W16167   7.904  23.210   0.911
50941W        W16168  15.434   4.268   2.562
50942W        W16169  35.606  38.060  14.446
50943W        W16170  32.846  14.307  11.999
50944W        W16171   0.545  34.859   2.888
50945W        W16172  43.448   9.680  11.232
50946W        W16173  40.727   7.039  13.454
50947W        W16174  33.431  19.046  13.778
50948W        W16175  34.161   4.519  13.442
50949W        W16176   9.221   0.872  14.732
50950W        W16177  32.897  44.649   3.466
50951W        W16178  38.572  39.865   3.181
50952W        W16179  31.438  15.726  12.535
50953W        W16180   1.271  27.041  12.248
50954W        W16181  42.999  31.609   2.461
50955W        W16182  21.563  43.047   3.606
50956W        W16183   8.877  44.576  10.693
50957W        W16184  42.485   5.315   0.673
50958W        W16185  29.175  14.291   5.073
50959W        W16186  35.275  19.998   3.650
50960W        W16187  13.530   6.890   2.983
50961W        W16188   8.575  11.623   3.811
50962W        W16189   4.376  30.351   0.532
50963W        W16190   3.997  15.952  11.203
50964W        W16191   5.701  23.031   1.875
50965W        W16192  26.465  21.565   3.238
50966W        W16193  19.254  17.065  12.576
50967W        W16194  44.745  26.905  13.469
50968W        W16195  11.155  14.986  12.939
50969W        W16196   8.853  26.631  14.233
50970W        W16197  11.611  15.625   3.556
50971W        W16198  26.138  40.836  11.709
50972W        W16199   9.999   3.620   4.349
50973W        W16200  11.712  15.236   2.782
50974W        W16201  19.619  21.639  12.056
50975W        W16202  43.927  31.953   4.356
50976W        W16203  39.993   2.158   4.025
50977W        W16204  10.836   5.765  13.741
50978W        W16205  18.044  12.689   1.930
50979W        W16206  39.881   4.407  14.939
50980W        W16207  13.302  26.218   4.806
50981W        W16208  12.839  41.507  12.871
50982W        W16209  16.659   7.466   4.241
50983W        W16210  41.593  35.709   0.484
50984W        W16211  28.819   1.789   1.767
50985W        W16212  19.755  36.764   3.881
50986W        W16213  15.978  43.403  11.948
50987W        W16214   7.340  41.356  10.712
50988W        W16215   0.796  31.108  13.940
50989W        W16216  36.437  22.023  13.431
50990W        W16217   6.486   1.922   1.132
50991W        W16218  36.024  33.790   5.027
50992W        W16219  25.215  39.046   4.509
50993W        W16220  15.633  31.354   1.271
50994W        W16221  16.511  20.668   0.783
50995W        W16222  30.479  35.650   3.372
50996W        W16223  33.052  24.262  12.121
50997W        W16224   4.978  36.349   1.003
50998W        W16225   7.524  34.034   1.577
50999W        W16226  40.283  19.163   4.805
51000W        W16227  27.881  14.698   2.633
51001W        W16228   6.912  36.872  12.589
51002W        W16229  13.670  37.602  11.977
51003W        W16230  25.695  32.439   2.798
51004W        W16231  38.352  29.102  10.635
51005W        W16232  40.021  26.462  10.900
51006W        W16233   3.062  39.974   0.374
51007W        W16234  38.758  42.602   0.953
51008W        W16235  23.147  11.705  11.533
51009W        W16236  40.783  31.993  10.657
51010W        W16237  29.907   0.769   4.084
51011W        W16238  36.164  27.250  12.588
51012W        W16239  43.090  30.153  11.145
51013W        W16240  27.411  41.970   4.076
51014W        W16241  28.692  21.284   1.941
51015W        W16242  27.044  23.132   0.975
51016W        W16243  42.662  15.088  10.356
51017W        W16244  39.397   9.109  14.043
51018W        W16245  29.861  37.104  13.353
51019W        W16246  34.281   5.303  11.700
51020W        W16247  16.735  31.148   1.246
51021W        W16248  43.949  27.489   1.866
51022W        W16249  15.014  16.669  13.529
51023W        W16250   7.230   8.484  11.511
51024W        W16251  42.569  13.132  11.601
51025W        W16252  26.608  40.443  13.533
51026W        W16253  13.259   0.666   2.228
51027W        W16254  27.619  23.216   2.298
51028W        W16255  28.028   1.775  10.076
51029W        W16256  11.585  31.458   2.322
51030W        W16257   9.231   9.744   3.413
51031W        W16258  22.179  38.790  12.490
51032W        W16259  16.816  32.910  14.817
51033W        W16260  15.874   6.031   2.745
51034W        W16261   0.756  27.438   1.870
51035W        W16262  31.015  44.411  12.799
51036W        W16263   0.248  40.012  11.512
51037W        W16264  26.691  22.022   3.229
51038W        W16265  23.408   4.305   3.045
51039W        W16266  25.006  36.143   4.126
51040W        W16267  33.568  29.524  13.040
51041W        W16268   9.688  28.325   3.536
51042W        W16269   4.557  44.744  11.145
51043W        W16270   8.293  10.550  13.937
51044W        W16271  28.395  19.455   1.644
51045W        W16272  23.025  41.491   4.214
51046W        W16273   4.303  33.842  10.681
51047W        W16274  28.757  14.283  11.192
51048W        W16275  33.914  42.247  11.707
51049W        W16276  15.718   4.737  12.119
51050W        W16277  18.746  37.780   0.828
51051W        W16278  35.186  34.095   1.178
51052W        W16279  34.024  25.510   3.943
51053W        W16280   8.346  13.319  11.566
51054W        W16281  36.807  20.822  14.999
51055W        W16282  12.761   3.138  11.864
51056W        W16283  36.795   2.656   1.594
51057W        W16284  13.126  41.290  10.586
51058W        W16285  16.597   7.755  12.536
51059W        W16286   6.717  12.527   3.269
51060W        W16287  11.261   0.818  10.394
51061W        W16288  27.521  39.698  12.794
51062W        W16289  10.150  10.801  14.260
51063W        W16290  23.663  10.285  10.686
51064W        W16291  39.312  43.253   0.906
51065W        W16292  40.084   2.046   1.231
51066W        W16293  23.683  10.585   4.130
51067W        W16294  39.115  39.901  14.233
51068W        W16295  29.897  17.668  12.533
51069W        W16296  11.676  40.924  10.898
51070W        W16297  44.565  15.631  14.445
51071W        W16298   7.807  32.819   0.294
51072W        W16299   0.563  37.085   0.284
51073W        W16300   0.007  22.180   0.779
51074W        W16301  23.105  30.333  13.130
51075W        W16302  20.552   1.020  12.962
51076W        W16303  25.701  32.053  11.677
51077W        W16304  30.482   4.917   0.355
51078W        W16305  16.853  24.015  10.742
51079W        W16306  32.669   6.266  10.473
51080W        W16307  39.204  37.313   5.198
51081W        W16308  11.198  44.008   3.154
51082W        W16309  17.995  42.000   1.806
51083W        W16310  11.939  20.540  11.734
51084W        W16311  42.571  19.795  13.581
51085W        W16312   8.333  21.846   0.782
51086W        W16313  21.552   0.953   3.180
51087W        W16314  19.125  28.201  14.492
51088W        W16315   6.442  20.666  14.970
51089W        W16316  42.732  14.744   0.833
51090W        W16317  22.211  44.288  12.097
51091W        W16318  41.585  42.271  13.583
51092W        W16319  39.421  36.394  13.587
51093W        W16320   7.118  16.603  13.442
51094W        W16321  42.397  29.056   3.412
51095W        W16322  21.456  42.701   4.174
51096W        W16323  41.070  35.019   0.030
51097W        W16324  37.026  26.472  10.685
51098W        W16325  24.632  11.664   0.857
51099W        W16326  42.318  25.110  13.523
51100W        W16327  43.446   3.289   2.472
51101W        W16328  32.602   7.394  13.870
51102W        W16329  17.588  15.091  13.592
51103W        W16330   4.647  38.942   2.826
51104W        W16331  11.716   9.934   5.080
51105W        W16332  10.848  11.692   2.839
51106W        W16333  20.888  28.038  12.041
51107W        W16334  38.905  43.076   2.837
51108W        W16335  19.320  34.405  11.506
51109W        W16336  17.227  13.290   1.317
51110W        W16337  18.589  30.953   0.757
51111W        W16338   2.650  11.832   3.741
51112W        W16339  10.541  16.492  11.585
51113W        W16340  42.338  23.671   2.319
51114W        W16341  27.718  21.982  10.700
51115W        W16342  21.253  10.712  12.594
51116W        W16343  24.270  24.380  13.689
51117W        W16344  28.037  28.444   1.801
51118W        W16345   1.771  30.544  10.729
51119W        W16346  11.034  20.313  14.728
51120W        W16347  43.809  39.081   2.137
51121W        W16348  24.056  37.262   3.268
51122W        W16349   5.168  14.303  13.427
51123W        W16350  13.870  10.311  10.552
51124W        W16351  41.322  31.879  12.673
51125W        W16352  40.830  38.629  11.122
51126W        W16353  44.369  16.781   2.344
51127W        W16354  11.748  43.294  10.779
51128W        W16355   2.373  34.276   1.913
51129W        W16356  25.742  16.355  13.377
51130W        W16357   6.835  11.903  13.885
51131W        W16358  34.742  43.015  13.536
51132W        W16359  12.330  14.197   3.600
51133W        W16360  41.720   0.869  13.774
51134W        W16361  42.221  37.049  14.490
51135W        W16362  16.638  26.749  13.400
51136W        W16363   3.173   5.840  10.641
51137W        W16364   9.427  19.267  11.127
51138W        W16365  14.730  36.670  12.004
51139W        W16366  16.668  40.700   3.555
51140W        W16367   4.239   2.402   3.788
51141W        W16368  14.553  41.462   4.167
51142W        W16369  23.103  40.018  12.336
51143W        W16370   2.684  19.747   4.725
51144W        W16371  32.012  17.982   1.056
51145W        W16372   0.443  29.239   0.934
51146W        W16373   9.283   0.831  12.474
51147W        W16374  40.382  37.560   2.529
51148W        W16375  18.308  14.684   2.227
51149W        W16376  33.689  36.180   5.074
51150W        W16377  28.130   8.295   1.176
51151W        W16378  35.344  21.438   1.398
51152W        W16379   5.630  38.394   1.909
51153W        W16380  19.624  17.606  14.989
51154W        W16381   5.773  26.026   3.087
51155W        W16382  42.809   5.920  12.998
51156W        W16383  24.038  12.859   3.833
51157W        W16384  41.230  19.983   3.689
51158W        W16385  32.891  25.614   3.123
51159W        W16386  43.187  22.575  11.157
51160W        W16387  24.842  43.939  10.967
51161W        W16388  21.047  17.974   0.982
51162W        W16389  35.054   3.465   4.096
51163W        W16390  30.020  39.889   3.358
51164W        W16391  16.829   0.000   1.370
51165W        W16392  25.623  15.507  12.912
51166W        W16393   6.280   5.353  14.483
51167W        W16394   4.289  11.813   1.538
51168W        W16395   5.535  24.144   4.934
51169W        W16396  43.891  41.397  12.989
51170W        W16397  44.916  30.813  13.574
51171W        W16398   7.717  22.704   1.488
51172W        W16399  27.493  34.932  11.685
51173W        W16400   7.021   1.338   0.429
51174W        W16401  16.163  21.713  11.718
51175W        W16402  25.598   7.124   0.662
51176W        W16403  14.312  37.325  14.981
51177W        W16404  42.842  23.337   4.483
51178W        W16405  40.244   1.066  12.591
51179W        W16406  22.185  41.837   0.501
51180W        W16407   6.741   0.356  11.138
51181W        W16408  15.678  22.634   2.295
51182W        W16409  30.106  32.779  12.927
51183W        W16410  31.993  25.928   4.858
51184W        W16411  12.352  17.938   3.803
51185W        W16412  22.541  36.119   2.394
51186W        W16413   5.890  36.161   2.790
51187W        W16414  11.597  36.947  14.980
51188W        W16415  10.405  15.432   3.524
51189W        W16416  14.174  43.733   2.313
51190W        W16417   1.210   4.979  13.510
51191W        W16418  39.072  19.524   5.064
51192W        W16419   1.204  34.687   3.009
51193W        W16420  21.228  35.367  12.859
51194W        W16421  33.430  42.623   1.567
51195W        W16422  16.233  35.576   2.670
51196W        W16423  22.587  10.129   5.084
51197W        W16424  21.103  13.022  14.206
51198W        W16425   1.332   8.254   4.623
51199W        W16426  38.949  16.228   0.543
51200W        W16427  11.023   9.549  12.496
51201W        W16428  12.380   1.212   0.437
51202W        W16429  20.730  41.889   5.298
51203W        W16430  21.799  26.484   2.347
51204W        W16431   1.294  33.503  11.118
51205W        W16432  10.074  28.852   3.266
51206W        W16433  40.075   1.306   1.810
51207W        W16434  10.067  21.495   0.856
51208W        W16435  43.372  19.349   2.691
51209W        W16436   8.290  17.359  14.876
51210W        W16437   7.367  36.410  10.521
51211W        W16438  28.532  43.983  13.678
51212W        W16439  25.454  31.221   2.224
51213W        W16440  27.007  37.378   2.673
51214W        W16441  21.810  28.217  12.928
51215W        W16442  38.994   4.916   0.106
51216W        W16443  15.141  16.760   2.306
51217W        W16444  32.289  14.963   2.405
51218W        W16445  18.170  39.295   2.773
51219W        W16446   7.773   6.458  13.086
51220W        W16447  26.069  31.634   0.474
51221W        W16448  32.133  10.841   1.278
51222W        W16449  28.096   3.654  13.333
51223W        W16450  24.051  26.436   2.382
51224W        W16451  21.743  44.815   1.107
51225W        W16452  32.200  27.688   3.143
51226W        W16453  34.401  44.953   0.354
51227W        W16454  37.992  31.067   2.007
51228W        W16455  19.215  33.903   4.050
51229W        W16456  19.065  33.694   3.445
51230W        W16457   9.771  20.141  12.550
51231W        W16458   2.010  10.677  10.575
51232W        W16459  40.581  14.399   2.230
51233W        W16460  39.004  27.634  14.715
51234W        W16461  23.541  23.651  14.032
51235W        W16462   1.798  38.397  13.950
51236W        W16463  40.861   9.148  11.035
51237W        W16464  26.586  31.452   0.434
51238W        W16465  29.140  26.849  13.804
51239W        W16466  20.714  31.800  11.505
51240W        W16467  42.684  25.101   1.884
51241W        W16468  24.141  42.836  12.191
51242W        W16469  33.390  24.885  11.563
51243W        W16470  15.139   8.762   1.743
51244W        W16471  34.414  22.005  11.392
51245W        W16472  28.238  36.179   5.009
51246W        W16473  39.621  13.106   3.430
51247W        W16474  44.729  24.927  13.254
51248W        W16475  29.128  14.578  13.133
51249W        W16476  43.241  18.544  11.911
51250W        W16477  26.185  25.181   0.820
51251W        W16478  23.796   5.773   2.801
51252W        W16479  40.201  23.184   1.208
51253W        W16480   3.934  25.235  11.977
51254W        W16481  44.758  38.076   3.534
51255W        W16482   1.772  44.226   2.182
51256W        W16483  22.084   0.331   2.764
51257W        W16484   0.780   5.672  10.728
51258W        W16485  43.720  31.614  13.435
51259W        W16486  42.761  30.333   2.375
51260W        W16487  18.657  27.871  14.375
51261W        W16488  19.399  37.850   3.982
51262W        W16489   6.816  38.202  14.383
51263W        W16490  28.243  23.977   4.473
51264W        W16491  39.038  13.687   4.701
51265W        W16492  10.701   5.888   1.423
51266W        W16493  18.014  17.778   3.027
51267W        W16494  11.164  30.554   1.757
51268W        W16495  30.367  29.348   3.566
51269W        W16496  41.645  13.168  14.045
51270W        W16497  18.200  32.123  14.304
51271W        W16498   2.348  29.543  11.185
51272W        W16499  42.838  18.504  10.813
51273W        W16500  23.904  17.755  10.573
51274W        W16501  24.716  13.358  11.572
51275W        W16502  18.278  43.697  10.715
51276W        W16503   9.963  11.224  14.483
51277W        W16504  43.341  34.527   3.581
51278W        W16505  36.549  23.027   2.766
51279W        W16506  25.647  40.396   1.430
51280W        W16507  22.207  26.032  12.126
51281W        W16508  13.869  24.159  12.468
51282W        W16509   0.252  30.164  14.940
51283W        W16510  29.672  32.323   4.091
51284W        W16511  30.614  19.091  14.473
51285W        W16512  27.126  41.130   4.521
51286W        W16513  22.654  15.152   2.748
51287W        W16514  29.517  25.938  10.319
51288W        W16515  23.560  44.885  11.561
51289W        W16516  12.202  13.706   3.450
51290W        W16517   8.273   7.416   2.497
51291W        W16518  14.268  42.231   1.320
51292W        W16519   4.901  25.474   1.272
51293W        W16520   4.767  38.116  11.204
51294W        W16521   8.213   4.164   0.357
51295W        W16522  13.250  18.517  11.503
51296W        W16523  17.529   9.788   0.928
51297W        W16524  22.517  18.180  10.638
51298W        W16525  42.657   0.721   1.179
51299W        W16526  15.663   6.596  13.641
51300W        W16527  33.636  14.285   1.878
51301W        W16528   0.007   7.425   0.759
51302W        W16529  28.992  27.530   4.987
51303W        W16530   9.339  37.955  14.051
51304W        W16531  21.046  38.003  10.442
51305W        W16532  18.838  38.550  14.704
51306W        W16533  14.612   5.197   4.542
51307W        W16534  32.388  31.929  12.045
51308W        W16535  30.643  30.111   0.280
51309W        W16536  17.224   5.752  14.789
51310W        W16537  23.171  32.926  10.632
51311W        W16538  20.981  36.360   1.885
51312W        W16539   6.280  24.566  11.394
51313W        W16540  27.699  24.490   3.186
51314W        W16541   6.241  12.407   1.745
51315W        W16542  31.409   7.423   1.685
51316W        W16543  14.209  19.104   1.006
51317W        W16544  23.101   8.908  12.905
51318W        W16545  37.804  17.870  14.005
51319W        W16546   2.593  24.690   4.398
51320W        W16547  30.504  34.425  14.846
51321W        W16548  44.468   2.498  12.419
51322W        W16549  27.195  43.384   1.941
51323W        W16550  14.574  18.021  12.385
51324W        W16551   9.392  16.349  11.821
51325W        W16552  27.149  20.436  11.235
51326W        W16553  20.161  32.653   2.639
51327W        W16554   9.744  27.011   0.715
51328W        W16555  44.218   1.190   2.618
51329W        W16556   3.240  11.828  13.447
51330W        W16557  10.689   8.345   1.876
51331W        W16558  35.114   2.925   3.001
51332W        W16559  26.141  34.622  14.252
51333W        W16560   8.098   2.851  14.732
51334W        W16561   0.878  13.047   3.348
51335W        W16562  43.382   7.132  10.450
51336W        W16563  20.027  34.788   0.203
51337W        W16564  21.693  31.393  11.532
51338W        W16565  41.867  22.892  12.529
51339W        W16566  33.097   9.104  14.438
51340W        W16567   9.553  19.525   0.014
51341W        W16568   8.181  44.411   2.612
51342W        W16569  44.290  37.521   0.362
51343W        W16570   5.847  19.613   2.344
51344W        W16571  28.613  42.612  10.795
51345W        W16572  19.161   0.257   3.990
51346W        W16573  12.369  20.491   4.098
51347W        W16574  30.083  17.928  12.007
51348W        W16575  18.592  14.620  13.524
51349W        W16576  10.131  30.423  11.116
51350W        W16577  24.317  31.505  10.696
51351W        W16578  30.092  39.848   2.804
51352W        W16579  12.827  34.079  12.476
51353W        W16580  41.382   7.542  12.943
51354W        W16581  30.408  40.446  12.394
51355W        W16582  34.462  42.120   2.371
51356W        W16583  40.365  27.925   3.818
51357W        W16584   3.471  34.104  13.551
51358W        W16585  13.794  34.057   5.050
51359W        W16586  17.231  30.629   0.864
51360W        W16587  27.014  36.843  13.476
51361W        W16588  37.159  25.525  12.176
51362W        W16589   9.554  44.581  12.888
51363W        W16590   9.924  17.761   4.049
51364W        W16591  19.051  27.670   1.403
51365W        W16592   3.819   2.732  12.764
51366W        W16593   0.965  20.052   2.259
51367W        W16594   6.286   1.805   2.575
51368W        W16595  21.228   0.557   3.140
51369W        W16596  38.005  23.949  13.965
51370W        W16597  16.093  21.664   4.504
51371W        W16598  25.858  32.589   2.344
51372W        W16599  35.437  31.748   4.211
51373W        W16600  37.484   1.800  12.891
51374W        W16601  37.712  33.060   3.555
51375W        W16602  20.048  27.941  11.154
51376W        W16603  27.664   7.364  11.520
51377W        W16604  11.805  17.523  13.916
51378W        W16605   2.517  26.706  13.363
51379W        W16606   2.270   2.378   2.146
51380W        W16607  16.733  29.524   2.315
51381W        W16608   3.555  10.720   2.680
51382W        W16609  37.010   8.144  12.029
51383W        W16610   3.873  33.954   2.118
51384W        W16611  43.087  16.673  14.917
51385W        W16612  41.204  42.488  12.948
51386W        W16613   4.676  34.920  11.361
51387W        W16614   7.240   0.234   1.582
51388W        W16615  39.576  23.525  12.897
51389W        W16616  38.168   2.254   0.962
51390W        W16617  12.466  39.875  11.348
51391W        W16618  26.931  27.420   4.296
51392W        W16619  31.074   2.915   0.859
51393W        W16620  43.257  14.359  13.569
51394W        W16621   8.229  14.095   0.415
51395W        W16622  27.483  38.010  10.651
51396W        W16623  39.180  41.453  11.626
51397W        W16624   9.051   5.976   1.214
51398W        W16625  41.256  20.823   3.964
51399W        W16626  38.705  25.306   3.073
51400W        W16627  17.401  16.119  11.608
51401W        W16628   7.204  16.333   1.987
51402W        W16629  30.934  40.679  13.574
51403W        W16630  44.871  38.514  11.678
51404W        W16631  29.932  22.263   0.345
51405W        W16632  34.724  23.389  14.140
51406W        W16633  36.077  14.131  11.650
51407W        W16634  22.141  21.993  11.246
51408W        W16635  25.579  22.210   0.809
51409W        W16636  25.450  17.031   1.820
51410W        W16637   6.945  40.086  12.928
51411W        W16638  34.036  35.422  13.052
51412W        W16639  34.372  39.538   0.288
51413W        W16640  19.081  30.152   1.480
51414W        W16641  24.008  28.978   1.191
51415W        W16642  21.961   3.513  12.061
51416W        W16643  37.787  18.860  11.953
51417W        W16644  13.052  18.004   0.041
51418W        W16645  38.971  40.505   1.905
51419W        W16646  12.898  36.575  12.915
51420W        W16647  30.399  33.092  14.380
51421W        W16648  28.181   1.733  14.457
51422W        W16649  34.307  37.927  13.417
51423W        W16650  35.357  16.146  12.325
51424W        W16651  13.380  28.919  10.793
51425W        W16652  25.183  15.705   9.855
51426W        W16653  19.424   0.786  11.274
51427W        W16654  44.480   5.958  13.448
51428W        W16655  18.953  43.873  13.157
51429W        W16656   5.948   4.232  12.644
51430W        W16657  44.976  44.412  11.390
51431W        W16658   8.706  28.385  14.163
51432W        W16659  23.603  16.337  11.977
51433W        W16660  27.901  12.857  14.617
51434W        W16661  24.107   4.889  13.857
51435W        W16662  10.308  19.091  11.123
51436W        W16663  44.858  12.666   4.250
51437W        W16664  40.897   1.277   4.072
51438W        W16665  30.875  29.171  13.636
51439W        W16666  19.651   7.392  11.415
51440W        W16667  32.008  21.226   0.327
51441W        W16668  17.111  18.650  12.087
51442W        W16669  15.695  29.124  10.722
51443W        W16670  43.775   4.659   2.353
51444W        W16671   1.175  13.155   0.698
51445W        W16672  43.988  32.466  14.955
51446W        W16673  33.926  33.187   2.485
51447W        W16674  35.447  30.643   3.265
51448W        W16675  35.314  32.611   3.992
51449W        W16676  23.578  32.420   3.085
51450W        W16677  32.172   6.654   1.833
51451W        W16678  23.015  30.620  11.361
51452W        W16679  14.721  32.559  14.558
51453W        W16680  41.043  30.377   0.931
51454W        W16681  32.066  32.051  14.662
51455W        W16682   9.538  18.316  11.230
51456W        W16683  18.495  22.776  12.001
51457W        W16684  37.585  33.148  14.019
51458W        W16685  39.648   4.639   2.327
51459W        W16686  39.237  13.584   2.674
51460W        W16687  11.594   2.036   3.289
51461W        W16688  31.938  33.855   0.778
51462W        W16689  43.477  25.514  13.849
51463W        W16690   4.713  32.704   2.765
51464W        W16691  26.674  10.863  11.161
51465W        W16692   4.831   9.223  10.349
51466W        W16693  29.483  33.904   3.700
51467W        W16694   7.320  12.575   0.838
51468W        W16695  34.073  39.805  12.505
51469W        W16696  29.130  28.009   2.713
51470W        W16697  12.557  42.156   0.518
51471W        W16698  30.517  35.838   0.264
51472W        W16699  14.758  31.559   1.169
51473W        W16700  31.312  34.116  11.571
51474W        W16701  26.323  12.422  11.219
51475W        W16702  36.898  24.387   4.241
51476W        W16703  41.832  16.625   4.710
51477W        W16704  44.992  31.033  13.074
51478W        W16705  10.244  25.118   4.574
51479W        W16706  15.372  20.534   0.308
51480W        W16707  38.144  11.269   3.792
51481W        W16708  31.500  33.664  12.475
51482W        W16709  18.535  44.387  13.966
51483W        W16710   9.678  41.885  12.526
51484W        W16711  40.615  24.186  13.467
51485W        W16712  44.027   9.345  13.471
51486W        W16713  22.910  29.066  14.915
51487W        W16714  42.983   0.891  11.296
51488W        W16715  13.740  21.533  12.850
51489W        W16716  10.154  26.089  11.288
51490W        W16717  42.951   8.889   3.648
51491W        W16718  32.283  15.067  14.720
51492W        W16719  32.683  24.433  11.363
51493W        W16720  10.975  16.730   4.065
51494W        W16721   6.720  29.525  13.890
51495W        W16722  32.172  22.536  11.511
51496W        W16723  30.176  22.054   2.777
51497W        W16724   1.157  20.057   1.782
51498W        W16725  42.292   0.229   4.203
51499W        W16726  38.060  43.045  12.887
51500W        W16727  34.502  27.086  10.811
51501W        W16728  25.421  26.238   1.747
51502W        W16729  36.611   3.665   3.621
51503W        W16730  44.240  42.037   5.052
51504W        W16731  21.540  23.136   4.604
51505W        W16732  39.639  44.989   4.150
51506W        W16733  42.863  25.437   0.429
51507W        W16734  27.002   8.260   4.228
51508W        W16735  44.743  35.016  10.682
51509W        W16736  13.780  32.040   0.229
51510W        W16737  41.558  20.055  14.453
51511W        W16738  19.224  28.388   3.603
51512W        W16739   5.485  18.205   3.320
51513W        W16740   5.326  31.083   0.284
51514W        W16741  26.672  23.600   1.456
51515W        W16742   6.612  17.521   1.403
51516W        W16743  37.498  44.595   0.502
51517W        W16744  11.286  40.677   3.215
51518W        W16745  16.402   7.745  14.018
51519W        W16746   5.229  14.330   3.711
51520W        W16747  33.392   9.317  12.031
51521W        W16748   3.772  25.663  13.152
51522W        W16749  10.710  40.795  12.392
51523W        W16750  36.571  13.807   3.178
51524W        W16751  35.053  33.942   2.370
51525W        W16752  41.289  29.434  14.350
51526W        W16753  25.379  38.301  13.777
51527W        W16754  11.269  38.338  10.717
51528W        W16755  41.512  34.870  12.904
51529W        W16756  37.131  35.700   1.287
51530W        W16757  30.600  32.210   0.953
51531W        W16758  35.986  39.982  11.111
51532W        W16759  43.993  30.139   1.995
51533W        W16760   8.094  29.553   1.132
51534W        W16761  12.295   4.692   3.171
51535W        W16762  35.210  25.677  14.131
51536W        W16763   4.111  31.900   4.295
51537W        W16764   1.738  28.312   1.345
51538W        W16765  15.250  27.226  13.954
51539W        W16766   1.273   1.686   1.239
51540W        W16767   0.784  11.766  13.098
51541W        W16768  10.227  17.926  12.551
51542W        W16769  11.104   6.756  14.055
51543W        W16770  24.020  30.593   3.679
51544W        W16771  39.211  16.094   4.702
51545W        W16772  11.575  30.651   3.717
51546W        W16773  42.192   1.641   2.145
51547W        W16774  40.046  28.280   3.660
51548W        W16775  43.460  34.825   4.861
51549W        W16776  24.081   3.362  13.456
51550W        W16777  43.344  12.481  14.981
51551W        W16778  27.875  14.298  11.575
51552W        W16779  32.649  17.682  12.196
51553W        W16780   2.101   6.121  14.436
51554W        W16781   3.028   6.624  12.978
51555W        W16782  24.193   9.903  13.044
51556W        W16783  35.043  42.077   0.112
51557W        W16784   1.937  20.260   1.318
51558W        W16785  40.563  28.539   3.989
51559W        W16786   9.863  43.528   3.799
51560W        W16787  35.022  35.009   3.821
51561W        W16788  39.882   2.772   1.751
51562W        W16789  42.085  23.463   1.887
51563W        W16790  39.986  13.907   3.194
51564W        W16791  10.670   0.755   1.139
51565W        W16792  17.734  25.586  14.419
51566W        W16793  32.028   4.990  13.902
51567W        W16794  16.005  36.420   0.446
51568W        W16795   8.920  14.793  12.922
51569W        W16796  24.811  24.023  13.006
51570W        W16797  24.638  16.498   3.698
51571W        W16798   9.647  11.080   0.868
51572W        W16799  17.617  16.607  11.529
51573W        W16800  28.431  29.993  10.656
51574W        W16801  32.928  11.585  12.386
51575W        W16802  14.736  26.220   2.642
51576W        W16803   5.687  41.808  10.657
51577W        W16804  35.340  39.057  12.350
51578W        W16805  35.073  14.584  13.938
51579W        W16806  18.265  27.535  14.366
51580W        W16807  23.009  20.226   3.144
51581W        W16808   6.757   2.588   3.498
51582W        W16809  16.883   2.867   0.317
51583W        W16810  37.782  21.042   2.688
51584W        W16811  29.664  16.076   2.737
51585W        W16812  26.190   1.460   3.625
51586W        W16813  34.865  21.724  13.347
51587W        W16814  29.089  24.349   0.294
51588W        W16815   3.761   7.332   2.878
51589W        W16816  43.751  32.049   2.186
51590W        W16817  13.704  33.931  12.874
51591W        W16818  13.754  14.701  13.602
51592W        W16819  39.345  39.602   0.467
51593W        W16820  37.585  30.022   1.898
51594W        W16821  18.654  20.824  11.146
51595W        W16822   4.093  39.429  11.032
51596W        W16823  30.411  10.577  14.899
51597W        W16824  15.384  40.694  11.127
51598W        W16825  27.447  33.122   1.800
51599W        W16826  20.245   8.964  13.929
51600W        W16827  26.226  36.503   0.854
51601W        W16828  23.541  19.991  12.045
51602W        W16829  15.547  26.768  14.428
51603W        W16830   3.676  42.046  12.897
51604W        W16831  21.919   5.640   1.319
51605W        W16832  44.434   4.365   1.650
51606W        W16833  14.144  23.458   4.267
51607W        W16834  10.881   7.947   0.686
51608W        W16835   7.292  37.049  13.337
51609W        W16836   3.517  36.078   2.804
51610W        W16837  31.892   4.183   3.824
51611W        W16838  27.133  44.294  13.805
51612W        W16839  13.606  10.373   4.070
51613W        W16840  33.872  27.946   0.711
51614W        W16841  43.679  17.778   9.933
51615W        W16842  22.629  11.254   3.344
51616W        W16843  13.195  25.620  13.373
51617W        W16844   4.183  31.886  10.736
51618W        W16845  23.427   4.847   1.743
51619W        W16846  10.325  17.845   1.174
51620W        W16847  21.362  19.172  10.748
51621W        W16848  38.089  13.220   2.929
51622W        W16849   5.699  35.576   3.709
51623W        W16850   4.139  15.327  11.396
51624W        W16851   9.226  16.765  12.089
51625W        W16852  39.427  36.120   1.326
51626W        W16853  21.822   6.150  14.326
51627W        W16854   1.514  26.175   0.458
51628W        W16855  33.523  28.376  14.779
51629W        W16856  35.540   4.353  13.265
51630W        W16857  30.030   9.344   2.473
51631W        W16858  28.939  31.009   4.566
51632W        W16859  36.908  23.421   0.724
51633W        W16860   7.257   6.395   1.302
51634W        W16861  18.915  33.051   0.874
51635W        W16862  32.627  24.957   3.854
51636W        W16863   9.586  34.440  14.985
51637W        W16864  21.128  23.985  12.398
51638W        W16865  19.204  39.814   3.575
51639W        W16866  43.481   0.978  11.432
51640W        W16867  37.764   5.860   3.390
51641W        W16868  29.918  11.709   3.833
51642W        W16869  21.094  22.816  14.355
51643W        W16870   8.125   5.502   2.855
51644W        W16871   2.426   5.249  13.976
51645W        W16872  43.438  31.996  14.941
51646W        W16873  19.181  11.846  12.015
51647W        W16874  43.297  27.546   2.392
51648W        W16875  34.993  22.892  12.110
51649W        W16876   8.272  29.701   3.372
51650W        W16877  11.933  13.829  11.558
51651W        W16878  42.041  22.441  12.686
51652W        W16879   8.133   0.950  14.386
51653W        W16880  13.227  41.831  11.880
51654W        W16881  24.136  30.845   4.120
51655W        W16882  42.312  32.279  10.395
51656W        W16883  24.417  29.141   2.092
51657W        W16884  39.896   9.387   0.657
51658W        W16885  28.190   0.352   0.423
51659W        W16886  23.252  43.904  12.028
51660W        W16887  27.480  16.099  10.648
51661W        W16888  37.563   3.351   3.037
51662W        W16889  11.960  11.926  13.821
51663W        W16890  33.447   5.398  14.326
51664W        W16891   5.143  38.105  12.011
51665W        W16892  16.621   6.795   3.297
51666W        W16893   0.257  15.284   1.701
51667W        W16894  36.911  12.272   4.597
51668W        W16895   0.869  28.585  12.532
51669W        W16896  38.019  10.885  10.635
51670W        W16897  12.900  28.814  12.204
51671W        W16898   4.656  32.439   3.207
51672W        W16899  32.863  33.980   0.889
51673W        W16900  32.794   2.995   3.259
51674W        W16901  15.236  15.223   4.601
51675W        W16902  33.677  21.664  14.449
51676W        W16903   0.740  23.218  14.747
51677W        W16904   8.401  10.486   2.280
51678W        W16905   9.257  20.238  14.800
51679W        W16906  18.585  15.543  13.830
51680W        W16907  44.788   2.488   2.210
51681W        W16908  33.649   3.895  13.176
51682W        W16909  21.712  27.735   2.949
51683W        W16910  41.393   1.263   1.228
51684W        W16911  44.994   2.020  13.012
51685W        W16912   4.758   4.418   2.137
51686W        W16913   4.144  32.315   3.242
51687W        W16914  41.815  37.442   2.620
51688W        W16915  38.068  31.076  11.582
51689W        W16916   0.956  13.672   2.542
51690W        W16917  33.950  29.664  12.213
51691W        W16918  28.753   1.883  14.169
51692W        W16919  29.031  34.243   2.447
51693W        W16920   8.678  22.727   4.566
51694W        W16921  34.093  22.282   1.865
51695W        W16922  18.641   9.924  14.731
51696W        W16923   8.843  27.060   3.608
51697W        W16924   4.704  11.222   0.436
51698W        W16925   9.829  33.941  10.589
51699W        W16926   1.196   6.702   2.728
51700W        W16927  39.134  26.192   3.087
51701W        W16928   5.029  44.277  11.532
51702W        W16929   2.838  33.624   1.764
51703W        W16930   7.922  12.764  12.455
51704W        W16931   4.933   9.264   1.460
51705W        W16932   7.551  41.319  12.050
51706W        W16933  10.088  38.914  10.697
51707W        W16934  40.788   4.877   0.036
51708W        W16935   4.917   2.001  11.528
51709W        W16936  38.813  12.631   0.937
51710W        W16937  31.497   2.919  11.468
51711W        W16938  33.894  40.291   0.763
51712W        W16939  17.096  21.645   3.851
51713W        W16940   1.611  20.028   5.283
51714W        W16941   7.299   7.877  13.380
51715W        W16942  14.605   9.579  11.158
51716W        W16943   2.855   0.539   4.490
51717W        W16944  27.596  19.960   2.306
51718W        W16945  34.538   4.487   1.863
51719W        W16946   4.744  32.851   0.306
51720W        W16947  11.113  40.680   4.116
51721W        W16948  35.118  23.008  12.626
51722W        W16949  18.046   0.333  11.236
51723W        W16950  35.038  15.804  12.551
51724W        W16951  28.704  33.574   4.594
51725W        W16952   0.439   4.370  12.845
51726W        W16953  38.005  39.804   3.326
51727W        W16954  35.832   8.867   2.635
51728W        W16955  21.434  24.681   4.541
51729W        W16956  12.767  30.035   2.812
51730W        W16957  22.166  28.254   4.502
51731W        W16958  33.909  25.562  14.994
51732W        W16959  17.889  12.828   4.545
51733W        W16960  19.219  40.440  10.612
51734W        W16961  18.731  24.734  10.714
51735W        W16962  35.339   3.609  12.258
51736W        W16963  39.280  24.450  10.453
51737W        W16964   6.113  42.591  14.178
51738W        W16965  36.894  37.192  13.309
51739W        W16966   8.398  36.366   0.251
51740W        W16967  31.088  10.363   2.027
51741W        W16968  26.712   2.681  11.618
51742W        W16969  11.849   9.562  11.438
51743W        W16970  32.788  11.683   0.442
51744W        W16971  35.865   2.255   2.601
51745W        W16972   3.471   6.879   4.491
51746W        W16973   8.999   7.292  11.190
51747W        W16974   2.348  20.582  12.779
51748W        W16975   9.427  36.524   2.360
51749W        W16976  39.080  27.090  14.818
51750W        W16977  35.964  17.349  12.535
51751W        W16978   3.891  11.112   1.762
51752W        W16979   2.701  13.548  12.143
51753W        W16980  29.724  33.062   3.394
51754W        W16981   1.096   1.452   2.846
51755W        W16982  11.471  29.947   3.322
51756W        W16983  29.092  31.356   2.761
51757W        W16984  15.701  36.489  12.429
51758W        W16985  10.833  25.969  10.556
51759W        W16986   0.871   5.434   1.474
51760W        W16987  29.520  23.251  10.816
51761W        W16988   5.916  39.316   0.191
51762W        W16989  44.333   3.341   0.318
51763W        W16990  28.075   3.920   2.204
51764W        W16991  28.537  34.944  11.753
51765W        W16992  19.957  44.856  13.469
51766W        W16993   0.408   8.248   4.837
51767W        W16994   6.748  11.128   1.336
51768W        W16995   1.493  30.187  10.524
51769W        W16996  16.271  29.971  11.990
51770W        W16997  11.462  29.921  12.554
51771W        W16998   3.308   9.173   3.384
51772W        W16999  33.501   1.841  12.341
51773W        W17000  27.925  13.392   4.840
51774W        W17001  20.087  44.104  13.904
51775W        W17002  22.689  27.949   1.673
51776W        W17003  43.104  28.053   0.366
51777W        W17004  24.113  12.945   4.368
51778W        W17005  31.507  43.385   2.044
51779W        W17006  20.144  20.416   4.205
51780W        W17007  36.652   9.517   4.982
51781W        W17008  18.071   0.699   3.461
51782W        W17009  12.035  31.299  10.219
51783W        W17010  18.769  27.671  13.453
51784W        W17011  27.386   2.348   4.092
51785W        W17012  19.796   5.683  12.149
51786W        W17013  41.427   2.511  13.032
51787W        W17014  31.973   0.158  12.375
51788W        W17015  44.926  21.025   2.644
51789W        W17016  23.000  38.783  11.529
51790W        W17017  42.338  30.575   0.972
51791W        W17018  26.100  37.204   2.183
51792W        W17019   9.165  31.047   1.888
51793W        W17020  38.783   2.197  11.532
51794W        W17021  43.580  41.014   0.336
51795W        W17022  23.286  44.816  10.187
51796W        W17023  36.532   7.392   1.344
51797W        W17024   0.520  31.194   2.197
51798W        W17025  10.185  43.009  10.461
51799W        W17026  16.556  15.214  11.272
51800W        W17027  33.696  20.719  14.384
51801W        W17028  15.259  20.323   3.816
51802W        W17029  10.058  25.488   4.881
51803W        W17030  27.205  25.376  12.514
51804W        W17031  31.502  37.460   1.804
51805W        W17032  44.453   5.264  11.844
51806W        W17033   8.647  21.710   2.123
51807W        W17034  42.071  21.095   4.149
51808W        W17035  35.364  33.499  10.960
51809W        W17036  34.114  40.088  11.291
51810W        W17037   4.244  21.272   4.588
51811W        W17038  29.346  41.076  13.956
51812W        W17039   8.196  44.230   3.661
51813W        W17040  38.558  40.509  11.690
51814W        W17041  16.209  26.499   1.793
51815W        W17042  35.500   7.797   0.760
51816W        W17043  10.619  43.736   0.406
51817W        W17044  23.780  14.136   2.640
51818W        W17045  40.713  16.744  14.296
51819W        W17046   5.489  15.247   1.361
51820W        W17047   0.873  36.008   2.695
51821W        W17048   4.675   8.632  14.089
51822W        W17049   9.261  39.385   4.092
51823W        W17050  38.383  16.710  13.828
51824W        W17051  37.600   2.231  11.972
51825W        W17052  28.255   3.737  14.279
51826W        W17053  23.101  34.940   1.579
51827W        W17054   8.985  39.405   0.919
51828W        W17055  14.811  15.785  11.001
51829W        W17056   0.776   4.286   4.085
51830W        W17057  41.596  25.681  10.678
51831W        W17058  30.818  26.117  14.322
51832W        W17059  28.233  15.601   4.518
51833W        W17060  37.064   3.820  11.380
51834W        W17061  18.649  32.792  11.997
51835W        W17062  10.405  42.717   2.691
51836W        W17063  25.182  17.077  11.615
51837W        W17064  26.440   4.858   3.736
51838W        W17065  41.838  15.833  11.720
51839W        W17066  37.564  21.708   4.496
51840W        W17067  18.530  17.573   1.664
51841W        W17068  16.041   3.514  13.380
51842W        W17069   8.485  14.285  13.970
51843W        W17070  19.298  32.484  10.731
51844W        W17071  38.226  35.333   2.870
51845W        W17072  37.996   2.536   3.956
51846W        W17073   9.538  13.267   1.232
51847W        W17074  35.248  38.780   5.143
51848W        W17075  17.334  31.826  13.179
51849W        W17076  24.677  14.181   2.879
51850W        W17077  40.145  34.561   4.154
51851W        W17078  18.019  44.034   2.558
51852W        W17079  19.380  18.384  14.983
51853W        W17080   4.948  12.582  10.242
51854W        W17081  25.527  19.130   1.342
51855W        W17082  44.616  23.502   0.240
51856W        W17083  33.619  18.170  12.903
51857W        W17084  42.007  44.362   5.214
51858W        W17085  25.066  10.408  10.676
51859W        W17086  27.055  18.367   1.461
51860W        W17087  25.563   8.367  14.549
51861W        W17088  43.667  11.850   3.109
51862W        W17089  42.745  23.289   2.707
51863W        W17090   4.002  30.005  10.672
51864W        W17091  31.000  18.968  10.953
51865W        W17092   2.547  13.581   3.415
51866W        W17093  16.132  36.424  11.696
51867W        W17094  19.190  16.152   2.643
51868W        W17095  38.489  37.695  11.433
51869W        W17096   8.842  23.523  13.329
51870W        W17097  20.060  26.049   0.418
51871W        W17098  18.144  26.223   3.819
51872W        W17099  18.339   3.877   0.030
51873W        W17100  39.542   3.984   0.220
51874W        W17101  44.944  10.353   3.836
51875W        W17102   7.694   0.409   0.849
51876W        W17103  35.371   4.699   3.902
51877W        W17104  15.038  15.313  12.508
51878W        W17105   0.849  34.021  10.863
51879W        W17106  13.372  34.502   0.976
51880W        W17107  29.996  20.633  14.911
51881W        W17108  40.885  35.733   3.338
51882W        W17109  19.351  30.514   3.235
51883W        W17110   6.174  17.656   1.123
51884W        W17111   2.372  19.694   0.859
51885W        W17112  36.271  10.316   4.029
51886W        W17113   0.035  33.110   0.952
51887W        W17114   5.936  39.864   3.358
51888W        W17115  26.618  44.337   0.942
51889W        W17116  34.344   2.748   4.213
51890W        W17117  30.280   5.582   4.119
51891W        W17118  31.877  37.647  13.945
51892W        W17119  31.189  12.120   2.780
51893W        W17120  38.260  19.715   1.358
51894W        W17121   2.696  35.118   0.447
51895W        W17122  23.009  28.409  12.560
51896W        W17123  36.280  19.657  10.676
51897W        W17124  35.931  29.971  10.634
51898W        W17125  43.242  38.371   0.374
51899W        W17126   5.800  26.010   2.082
51900W        W17127  44.438  24.127   3.557
51901W        W17128  18.395   5.211  12.462
51902W        W17129  33.010  13.344  12.367
51903W        W17130  13.162  27.836  11.976
51904W        W17131  31.603  32.039  13.902
51905W        W17132  40.998  16.340   1.827
51906W        W17133   1.546  11.191   4.590
51907W        W17134  41.512  14.040   2.743
51908W        W17135  28.050  42.179  14.734
51909W        W17136  19.062  36.108   4.151
51910W        W17137  40.297  15.715   0.928
51911W        W17138  41.102  37.777   1.872
51912W        W17139  28.021  37.921   4.683
51913W        W17140  36.353  17.414   3.125
51914W        W17141  29.632  38.360   3.074
51915W        W17142  24.030  28.699  10.671
51916W        W17143  22.264  36.895   4.155
51917W        W17144  19.065  19.770   3.023
51918W        W17145  22.275  30.917  11.973
51919W        W17146  14.282  22.888  11.077
51920W        W17147  12.933  18.633  13.019
51921W        W17148   3.172  40.015  12.392
51922W        W17149  12.899   5.206   3.836
51923W        W17150  18.021  11.877  13.245
51924W        W17151  42.040  29.399   0.542
51925W        W17152  23.470   7.767  13.250
51926W        W17153   6.859  33.047   0.800
51927W        W17154  31.169   5.492  11.517
51928W        W17155  34.433  33.901  13.443
51929W        W17156  21.635  11.657   3.541
51930W        W17157  28.165  36.884   1.849
51931W        W17158  20.171  40.431   4.537
51932W        W17159  27.861  33.548  11.689
51933W        W17160  35.281  20.893  11.550
51934W        W17161  15.409  30.001  12.574
51935W        W17162  31.138  33.731  10.885
51936W        W17163  24.000   2.927   3.747
51937W        W17164  17.834  42.491  13.307
51938W        W17165  11.157  22.812   3.624
51939W        W17166   0.706  24.124   1.754
51940W        W17167   1.245  38.880  11.175
51941W        W17168   6.240  11.302   1.362
51942W        W17169  28.612   8.602   4.860
51943W        W17170   9.785   7.286  14.819
51944W        W17171  10.776  18.945   2.737
51945W        W17172  33.465   4.286   3.270
51946W        W17173  29.602  20.492   4.550
51947W        W17174  32.480  22.760  13.150
51948W        W17175  30.194  10.424  13.328
51949W        W17176  36.875  25.117  13.442
51950W        W17177  20.695  33.779   3.917
51951W        W17178  35.039   4.882  11.613
51952W        W17179  42.586  15.739  13.481
51953W        W17180  38.322  26.194   1.343
51954W        W17181  36.388  21.113   0.864
51955W        W17182   4.272   3.202  13.553
51956W        W17183  35.801  29.137   0.243
51957W        W17184  40.545  16.298   0.422
51958W        W17185  23.672  22.242  10.895
51959W        W17186   6.380  34.032   4.277
51960W        W17187  24.238   7.842  11.171
51961W        W17188  18.861  18.591  14.391
51962W        W17189  28.153   0.695   2.880
51963W        W17190  18.675  38.631  13.114
51964W        W17191   4.671  27.233   4.545
51965W        W17192   0.707   6.672  13.583
51966W        W17193  23.562   7.543   1.929
51967W        W17194  15.792  18.833   2.345
51968W        W17195  39.933  16.216   0.772
51969W        W17196  44.936  14.496   2.841
51970W        W17197   4.998   6.708   1.788
51971W        W17198   4.333   3.410  12.600
51972W        W17199  41.559  23.244  14.863
51973W        W17200   1.327   7.402   4.149
51974W        W17201  11.324   2.783  12.960
51975W        W17202  13.102  24.178  14.489
51976W        W17203   8.382  12.274  12.616
51977W        W17204   5.976  30.061   2.289
51978W        W17205  24.112  29.712   1.454
51979W        W17206  31.708  27.251  12.435
51980W        W17207  22.996  38.672   4.029
51981W        W17208  28.787  27.718  13.912
51982W        W17209  33.872  42.237  13.358
51983W        W17210  22.236   5.226   1.318
51984W        W17211  36.118   9.736   1.443
51985W        W17212   4.704   3.411  11.522
51986W        W17213   8.393  25.130  13.281
51987W        W17214  31.124  31.450  11.467
51988W        W17215  39.633  15.205  12.031
51989W        W17216  10.656  21.494  14.118
51990W        W17217   4.537  33.484  13.761
51991W        W17218  24.688   5.444   3.693
51992W        W17219  35.876  19.507  14.286
51993W        W17220  35.762   7.246   3.973
51994W        W17221  22.542  23.372  11.633
51995W        W17222   6.637  13.566   3.289
51996W        W17223  30.351  23.721  14.407
51997W        W17224   2.817   0.377   4.972
51998W        W17225  34.614  14.930   5.008
51999W        W17226   8.180   4.023  12.283
52000W        W17227  21.954  13.204   3.284
52001W        W17228   7.825  24.815  11.188
52002W        W17229  39.352  28.436   4.803
52003W        W17230  28.228   4.906   2.789
52004W        W17231  34.861  26.156  11.244
52005W        W17232  23.845  16.229  13.309
52006W        W17233   2.846  14.568  14.438
52007W        W17234  15.773  40.421   1.719
52008W        W17235   4.912   7.638  10.487
52009W        W17236  31.750  16.163   4.991
52010W        W17237  36.816  13.097   1.957
52011W        W17238  14.534  23.708  13.653
52012W        W17239  23.915  30.916   2.361
52013W        W17240  43.473  10.485   4.041
52014W        W17241  24.663  16.991   3.839
52015W        W17242  13.350  12.335  11.375
52016W        W17243  36.726  37.908   1.331
52017W        W17244  14.562   2.590   4.546
52018W        W17245   6.028  12.918   5.087
52019W        W17246   8.892  30.418   0.334
52020W        W17247   0.959  14.968  11.134
52021W        W17248  10.593  13.714   4.482
52022W        W17249  13.973  27.455  12.710
52023W        W17250  30.885  42.329  12.065
52024W        W17251  18.059  40.976   3.661
52025W        W17252   9.299  26.207  12.529
52026W        W17253  31.157  42.994   2.075
52027W        W17254  10.198  32.550   0.210
52028W        W17255  41.005  29.204  10.747
52029W        W17256  37.977  42.467   4.271
52030W        W17257  34.748  21.786  11.058
52031W        W17258  20.868  23.499  11.625
52032W        W17259  12.147   0.897   0.058
52033W        W17260   2.997  12.791   4.967
52034W        W17261   3.976  32.296   3.756
52035W        W17262  44.093  14.814   1.218
52036W        W17263  19.007   8.102   0.813
52037W        W17264  41.851  21.553  11.178
52038W        W17265  35.536  17.870  11.603
52039W        W17266  35.334   8.748  14.993
52040W        W17267   6.158   5.632  13.056
52041W        W17268  30.542  43.772   1.304
52042W        W17269   9.852  43.142  11.936
52043W        W17270  40.438  11.283   1.731
52044W        W17271  14.073  42.478  11.033
52045W        W17272   8.887  29.571  11.676
52046W        W17273   1.260  16.353   0.575
52047W        W17274  11.063   6.321  12.833
52048W        W17275  41.981  37.011   2.371
52049W        W17276  23.652  34.799  11.152
52050W        W17277  23.125  19.780   2.174
52051W        W17278  30.462  12.736  14.292
52052W        W17279  39.550  44.635  12.122
52053W        W17280   5.112   6.857  14.653
52054W        W17281   1.376  21.087   1.301
52055W        W17282  38.024  20.560  14.729
52056W        W17283  35.436  22.085  14.437
52057W        W17284  40.138  28.812   3.929
52058W        W17285   6.636  41.388  12.101
52059W        W17286  22.961  11.290  11.791
52060W        W17287   8.678  29.019  12.344
52061W        W17288   0.609  16.273   3.321
52062W        W17289   2.652   1.696  11.951
52063W        W17290  44.407  41.785  12.921
52064W        W17291  23.697   5.327   0.158
52065W        W17292  36.521  11.421   2.446
52066W        W17293  22.666  43.225  13.398
52067W        W17294  28.397  10.283   3.126
52068W        W17295   2.277  14.519  10.863
52069W        W17296  44.720   0.213  14.919
52070W        W17297  12.514   6.573   0.329
52071W        W17298  14.174  41.370  11.490
52072W        W17299  37.809  14.590  14.500
52073W        W17300  32.857   7.747  13.604
52074W        W17301  12.232  38.242  11.536
52075W        W17302   1.621  30.043  14.797
52076W        W17303   7.996   3.123  13.443
52077W        W17304   0.393  18.006  13.912
52078W        W17305  36.679  31.669   0.289
52079W        W17306   9.438  41.339  13.026
52080W        W17307  30.653  42.881   3.945
52081W        W17308  31.438  39.590  12.636
52082W        W17309  20.600  36.496   4.361
52083W        W17310  17.156  28.629  14.037
52084W        W17311  34.637  18.305   0.781
52085W        W17312  28.087   4.343  12.643
52086W        W17313  28.581   1.027  10.960
52087W        W17314  29.832  34.068   4.187
52088W        W17315  16.652  22.811   0.295
52089W        W17316  22.003   9.309  12.104
52090W        W17317   0.180  23.431  13.517
52091W        W17318  42.308  36.018   2.906
52092W        W17319   9.067  24.133  12.637
52093W        W17320  38.372   8.331  13.512
52094W        W17321  42.496  21.513  11.674
52095W        W17322  39.506  15.220   2.355
52096W        W17323  41.827   4.012  14.467
52097W        W17324  37.107  27.079   3.382
52098W        W17325  20.933   8.223  14.803
52099W        W17326  44.631   6.404  10.661
52100W        W17327  17.389  36.894   2.253
52101W        W17328   1.543  37.411   2.972
52102W        W17329  40.851   6.667  10.216
52103W        W17330  15.147  30.377  14.404
52104W        W17331  11.694   7.189  13.490
52105W        W17332  38.300  34.527  11.107
52106W        W17333  34.654  25.628   4.772
52107W        W17334  27.912  11.825   0.878
52108W        W17335   6.588   6.884  14.544
52109W        W17336   2.454  26.124  13.145
52110W        W17337  17.710  14.855  14.058
52111W        W17338  10.333  43.894   4.766
52112W        W17339   6.348  40.548   1.183
52113W        W17340  40.191  35.038   1.993
52114W        W17341  38.801  12.363  11.188
52115W        W17342  36.971  29.305   0.416
52116W        W17343  27.993  22.485   3.111
52117W        W17344  15.819  37.382  12.979
52118W        W17345   4.698  22.314  13.962
52119W        W17346  25.803  24.021  11.204
52120W        W17347  37.960   3.250   4.615
52121W        W17348  10.350  42.122  14.829
52122W        W17349  28.887  36.618   0.017
52123W        W17350  24.050  24.369   0.148
52124W        W17351  16.281  17.996  13.298
52125W        W17352  20.260   8.561  14.286
52126W        W17353  24.181   0.236   4.447
52127W        W17354   1.491  40.968   3.645
52128W        W17355   7.596   8.430  12.407
52129W        W17356  24.271  43.583  13.774
52130W        W17357  42.033  26.684  12.572
52131W        W17358   0.766  39.302  12.353
52132W        W17359  35.076  40.896   0.902
52133W        W17360   1.192  37.415  12.315
52134W        W17361  23.317   6.430  14.476
52135W        W17362   1.793  30.171  10.087
52136W        W17363  17.940  38.073  10.784
52137W        W17364  40.905  34.134   0.523
52138W        W17365  22.063   5.815   4.229
52139W        W17366  15.131  40.447  12.607
52140W        W17367   8.100  24.315  12.897
52141W        W17368  20.025  24.551   3.889
52142W        W17369  24.534  36.131   1.918
52143W        W17370  42.461  19.746   3.058
52144W        W17371   1.013  21.160  10.590
52145W        W17372  11.075   7.869  14.417
52146W        W17373  42.766   4.467   2.220
52147W        W17374  35.290  32.867   3.502
52148W        W17375  11.097   5.162   4.123
52149W        W17376   5.298  44.024   0.734
52150W        W17377  17.548  15.549   4.600
52151W        W17378  36.533  19.745  10.193
52152W        W17379  20.632  20.987   0.265
52153W        W17380   9.003  15.668  10.215
52154W        W17381  38.040  35.685  11.821
52155W        W17382  13.510  33.541   0.982
52156W        W17383  41.335   0.489   2.171
52157W        W17384  36.767   5.276   4.135
52158W        W17385  10.742  19.766  10.623
52159W        W17386   1.529  15.930  14.289
52160W        W17387  18.151  40.387  10.755
52161W        W17388  23.717  41.763  13.005
52162W        W17389  15.476  44.087   9.956
52163W        W17390   8.560  30.556  13.977
52164W        W17391  24.518  38.852  14.823
52165W        W17392  36.817  32.094   3.516
52166W        W17393   1.902   4.010   0.939
52167W        W17394  26.344  20.869   2.778
52168W        W17395   6.180  41.624  13.885
52169W        W17396  41.556   4.360  14.811
52170W        W17397  14.375  30.175  11.168
52171W        W17398  38.068   9.258   0.364
52172W        W17399  13.523   0.459   3.720
52173W        W17400  33.520  14.388  13.695
52174W        W17401   6.526   5.255   4.388
52175W        W17402  36.534   7.227  13.383
52176W        W17403  40.215  28.668  11.558
52177W        W17404   3.475  37.405   4.739
52178W        W17405  18.039  35.854  12.134
52179W        W17406   5.708  17.135  12.095
52180W        W17407   2.351  23.023   4.850
52181W        W17408   0.241  22.228   5.497
52182W        W17409   5.679  37.005  14.958
52183W        W17410  42.967  11.477  10.826
52184W        W17411  35.741  13.721   2.181
52185W        W17412  26.750  41.989   3.298
52186W        W17413  30.844   7.456  10.571
52187W        W17414  22.263   9.794   2.606
52188W        W17415  12.765  15.816   2.279
52189W        W17416  13.065  39.566   3.219
52190W        W17417  10.518   9.310  11.820
52191W        W17418  33.092  31.583  12.423
52192W        W17419  33.330  17.412  10.084
52193W        W17420  20.227  36.254  12.980
52194W        W17421   6.437  18.121  12.543
52195W        W17422  28.063  32.274  14.369
52196W        W17423   9.705  30.976   2.679
52197W        W17424   6.515  37.825  12.581
52198W        W17425  21.574   4.572  10.978
52199W        W17426  15.765  10.792   3.800
52200W        W17427  18.505   8.753  12.915
52201W        W17428  39.341  24.060   1.690
52202W        W17429  23.385  35.564  13.581
52203W        W17430  42.634  17.292   0.347
52204W        W17431  14.053  32.395  12.105
52205W        W17432   1.329   7.225  13.302
52206W        W17433   5.191   8.212   1.868
52207W        W17434  35.712  40.125   2.586
52208W        W17435  36.421  24.941   3.789
52209W        W17436  16.155  26.259   3.697
52210W        W17437  43.898  17.922  11.702
52211W        W17438  33.110  33.520  10.693
52212W        W17439   7.843   1.220   2.866
52213W        W17440  40.482   1.440   4.301
52214W        W17441   5.152  35.979  14.503
52215W        W17442  24.382  35.325  11.581
52216W        W17443   1.696  37.791   0.849
52217W        W17444  35.476  35.207  11.982
52218W        W17445  44.744  18.533  13.951
52219W        W17446  24.030  31.109   3.674
52220W        W17447  22.841  18.240  11.018
52221W        W17448  19.130  44.323  14.204
52222W        W17449  25.299  29.439   3.815
52223W        W17450  32.335   6.889   3.791
52224W        W17451  16.572   4.790   2.058
52225W        W17452  30.901  40.176  13.467
52226W        W17453  28.177  32.268  10.673
52227W        W17454   6.593  34.287  14.376
52228W        W17455  17.159  26.237   1.581
52229W        W17456  14.258   8.204  13.384
52230W        W17457  34.855  25.460   2.786
52231W        W17458  10.855   3.716  13.838
52232W        W17459   2.690  20.941   1.707
52233W        W17460  10.507  36.475  12.359
52234W        W17461  26.247  29.511   0.912
52235W        W17462  30.484  10.592  10.474
52236W        W17463  42.839   7.889  10.535
52237W        W17464  16.953  25.285  13.273
52238W        W17465  10.202  34.989   4.129
52239W        W17466  18.909  34.846  12.462
52240W        W17467  18.609  25.686  12.605
52241W        W17468  35.101   8.609  13.133
52242W        W17469   1.302  25.023  10.521
52243W        W17470  37.268  33.516  14.189
52244W        W17471  43.322   0.797   2.924
52245W        W17472   9.237  31.569   4.468
52246W        W17473  37.978  30.116   3.713
52247W        W17474  39.271  37.417   4.119
52248W        W17475   6.084   1.896  10.061
52249W        W17476  21.198  23.186  12.973
52250W        W17477  40.899  14.231   0.739
52251W        W17478  44.756  43.575   3.656
52252W        W17479  11.865   0.429  11.397
52253W        W17480   7.141  19.682  14.984
52254W        W17481  28.455   2.227  14.395
52255W        W17482   9.362   9.547   1.203
52256W        W17483  28.113  16.043  13.463
52257W        W17484  16.723  43.532   3.137
52258W        W17485  40.429  39.501  11.093
52259W        W17486  15.214  16.890   3.676
52260W        W17487  34.663  20.548  14.221
52261W        W17488  44.054  20.539  13.932
52262W        W17489   9.474  24.412   2.896
52263W        W17490   4.164  16.226   1.328
52264W        W17491   1.780   6.243   2.336
52265W        W17492   9.523  33.441   5.047
52266W        W17493  44.236   7.091   5.177
52267W        W17494   8.292  27.150  12.135
52268W        W17495  23.971   7.778   1.188
52269W        W17496  25.625  13.706  10.740
52270W        W17497   0.006   9.303  10.766
52271W        W17498  15.094  29.014   3.965
52272W        W17499  44.009  30.619   3.600
52273W        W17500  34.576  29.025   4.615
52274W        W17501  40.274   2.534  11.509
52275W        W17502  42.630  33.644   3.343
52276W        W17503   5.171  43.003  10.372
52277W        W17504  12.741  43.900   2.246
52278W        W17505  18.797  24.138  14.904
52279W        W17506  19.291   8.286   3.429
52280W        W17507  40.891  12.063   2.350
52281W        W17508  10.497  31.257   1.623
52282W        W17509  37.545  27.114   3.121
52283W        W17510   6.893  39.763   1.365
52284W        W17511  10.816   0.216   3.331
52285W        W17512  10.783  41.345  14.897
52286W        W17513  13.919  44.018   0.722
52287W        W17514   3.330  22.812  14.290
52288W        W17515  21.769   4.321   0.065
52289W        W17516  17.127  33.554  10.098
52290W        W17517  42.019  44.800   2.881
52291W        W17518  14.059  30.113   0.506
52292W        W17519   0.749   5.183   1.905
52293W        W17520  12.286  44.674  12.699
52294W        W17521  37.505  42.754  14.387
52295W        W17522  38.833  35.370  12.573
52296W        W17523  30.760  31.937  10.212
52297W        W17524  28.574  20.191   3.323
52298W        W17525   5.678   2.112  12.043
52299W        W17526  30.180  38.302   0.310
52300W        W17527  39.283  24.701  12.439
52301W        W17528  13.611   8.334   1.435
52302W        W17529  16.820  10.197   0.389
52303W        W17530  25.621   1.211  13.501
52304W        W17531  38.312  30.580   2.441
52305W        W17532  37.548   8.274  11.361
52306W        W17533   9.286  19.531  11.564
52307W        W17534  30.544  44.957  13.341
52308W        W17535  31.673  42.982   0.235
52309W        W17536  34.013  25.901  12.022
52310W        W17537   4.096  44.213  11.332
52311W        W17538  14.622  43.584  10.273
52312W        W17539  13.575  34.042   0.909
52313W        W17540   6.413  27.578  13.897
52314W        W17541  20.366  24.853   3.599
52315W        W17542  17.539  15.113  14.462
52316W        W17543  42.400  15.878  11.236
52317W        W17544  10.317  27.477  14.449
52318W        W17545  28.945  21.004   0.130
52319W        W17546   5.159  11.299   1.303
52320W        W17547  34.672   9.465   0.356
52321W        W17548  44.993  38.517   3.285
52322W        W17549  42.951   1.369  11.064
52323W        W17550   6.714  23.971  11.006
52324W        W17551  26.457  41.486  12.452
52325W        W17552  17.791  24.555  13.860
52326W        W17553  17.123  36.892  10.719
52327W        W17554  16.193  43.968   2.613
52328W        W17555  30.663  21.143   4.248
52329W        W17556   1.973  37.031   4.163
52330W        W17557  12.438  42.832  14.784
52331W        W17558  26.069   9.541   3.173
52332W        W17559  34.957  27.138   2.617
52333W        W17560  24.469  32.397   3.858
52334W        W17561  22.524   2.314   4.547
52335W        W17562  21.235  41.215  13.367
52336W        W17563  44.554  37.108   0.002
52337W        W17564  41.806  24.327  13.778
52338W        W17565  18.527  11.837  14.017
52339W        W17566  41.726   2.710   3.750
52340W        W17567  39.379  26.538  13.060
52341W        W17568   9.922  21.136   3.814
52342W        W17569  19.553   3.896  11.153
52343W        W17570  23.575  39.023  12.307
52344W        W17571  17.634  14.225   1.733
52345W        W17572  11.876  33.434   3.264
52346W        W17573  42.508  34.993   5.041
52347W        W17574  36.930   0.218  13.467
52348W        W17575  26.325   0.836   0.114
52349W        W17576  33.157   4.547  14.423
52350W        W17577  16.253  14.673   4.441
52351W        W17578  17.149   4.880  14.763
52352W        W17579  17.187  37.396  11.614
52353W        W17580  30.088  15.214   3.683
52354W        W17581  33.561  33.091   3.308
52355W        W17582  40.585  42.504  13.879
52356W        W17583  12.092  24.630  13.732
52357W        W17584  22.635  11.954   0.185
52358W        W17585  19.143   8.069   2.944
52359W        W17586   5.161  15.421   1.738
52360W        W17587  26.484  35.466   3.748
52361W        W17588  20.768   2.825   2.270
52362W        W17589  41.753  15.603   0.526
52363W        W17590  25.268  36.142  14.096
52364W        W17591   6.130  20.286   4.710
52365W        W17592  21.093   8.975   4.526
52366W        W17593   7.380   4.294   2.265
52367W        W17594  19.187   6.241   4.812
52368W        W17595  28.388  13.284   1.865
52369W        W17596  42.412  14.085   2.319
52370W        W17597  15.075  26.224  13.938
52371W        W17598  43.255  10.827  11.423
52372W        W17599  16.511  20.025  13.544
52373W        W17600  12.014  38.924  13.032
52374W        W17601  40.450  13.956   0.503
52375W        W17602  13.764  37.925  12.365
52376W        W17603   7.634  22.100   4.424
52377W        W17604   5.491  20.399  14.586
52378W        W17605  24.236  16.288   2.819
52379W        W17606  39.373  36.086  13.995
52380W        W17607  28.912  32.337  12.633
52381W        W17608  20.144   6.203   0.697
52382W        W17609  18.247  10.803   1.468
52383W        W17610   4.322   2.507   4.852
52384W        W17611  13.119  16.514  12.501
52385W        W17612   8.934  20.768  12.500
52386W        W17613   0.719  18.407   1.623
52387W        W17614  24.801  22.305   4.160
52388W        W17615  40.540  13.273  12.571
52389W        W17616  10.422  10.435  12.066
52390W        W17617  40.321   8.977   3.680
52391W        W17618   1.848   9.806  13.972
52392W        W17619  16.655   4.486   3.053
52393W        W17620  32.609  16.565  12.855
52394W        W17621  17.738  15.449   3.343
52395W        W17622  22.524  31.764  13.819
52396W        W17623  33.622  39.009   2.831
52397W        W17624  33.970  19.650   1.941
52398W        W17625   8.846  12.190   4.614
52399W        W17626  38.344   9.509   0.749
52400W        W17627   0.834   9.831   1.479
52401W        W17628  40.877  12.077  12.604
52402W        W17629  17.726  14.725   1.028
52403W        W17630  42.708  17.643   3.203
52404W        W17631  26.644  27.936   1.807
52405W        W17632   6.718  33.252  14.591
52406W        W17633  15.686  19.154  11.031
52407W        W17634  16.198  41.241  13.118
52408W        W17635   4.277  15.840   2.829
52409W        W17636  25.641  15.256   1.761
52410W        W17637  34.537  33.176  13.876
52411W        W17638   2.175   9.303  14.423
52412W        W17639  14.258  18.544   2.275
52413W        W17640  38.446   9.486  13.323
52414W        W17641  32.511  19.498  13.894
52415W        W17642  11.783  35.981   2.618
52416W        W17643   0.759   6.882   4.618
52417W        W17644  44.773  43.855   4.428
52418W        W17645  12.407   4.205  13.177
52419W        W17646  43.559   9.666   0.492
52420W        W17647  37.872  32.837   4.863
52421W        W17648  20.563   9.800  11.883
52422W        W17649  25.749   4.316  11.183
52423W        W17650  31.879   2.172   2.234
52424W        W17651  10.402  14.844  11.566
52425W        W17652  14.053  16.032   1.041
52426W        W17653  18.524   5.412   1.695
52427W        W17654   1.945   1.934  14.345
52428W        W17655  31.931   6.826  14.876
52429W        W17656   0.373  27.073   2.632
52430W        W17657  29.949  10.835  13.099
52431W        W17658  14.650  34.022   2.398
52432W        W17659  33.824  42.395   2.380
52433W        W17660  11.177   3.855  12.082
52434W        W17661  10.240  21.379   1.352
52435W        W17662  43.656  13.325   4.552
52436W        W17663  35.556  38.093   0.364
52437W        W17664  39.020  36.165  11.117
52438W        W17665  19.242   4.221   0.863
52439W        W17666   6.370  32.321  10.648
52440W        W17667  26.883  15.345  14.103
52441W        W17668  39.338  16.841  14.800
52442W        W17669  37.120  12.330  11.629
52443W        W17670  11.218   8.134   1.874
52444W        W17671   9.077  36.687  11.971
52445W        W17672  35.320  13.100   1.665
52446W        W17673  31.646  17.159  11.493
52447W        W17674  28.439  12.754  10.649
52448W        W17675  39.601  23.094   3.184
52449W        W17676  40.821  40.006  12.322
52450W        W17677  26.470   0.872  14.305
52451W        W17678  27.565  27.583  14.104
52452W        W17679   1.367  20.532   1.815
52453W        W17680   3.396  28.751  12.865
52454W        W17681  31.692   8.245   3.263
52455W        W17682  28.109  31.157  10.184
52456W        W17683  18.749  12.730   1.332
52457W        W17684  41.390  40.145  13.061
52458W        W17685  10.882  38.560  11.203
52459W        W17686   9.404  15.703  13.528
52460W        W17687  42.230   0.382  14.908
52461W        W17688  14.390  43.000   0.025
52462W        W17689  15.777  18.348   1.701
52463W        W17690  13.806  23.239   2.246
52464W        W17691  11.036  29.114   3.763
52465W        W17692  37.819  12.179  12.995
52466W        W17693  37.048  29.911  14.288
52467W        W17694  42.086  37.410   3.708
52468W        W17695  26.976  42.421   3.475
52469W        W17696  42.680  41.984  10.703
52470W        W17697  30.464   7.083   3.349
52471W        W17698   9.244  40.732   4.833
52472W        W17699  40.986  28.339  12.631
52473W        W17700  35.864  42.074  12.507
52474W        W17701  43.924  19.746  13.552
52475W        W17702  26.116  42.374   2.706
52476W        W17703  32.028  28.604   3.606
52477W        W17704  27.350  25.787   3.723
52478W        W17705  30.035  20.707  10.730
52479W        W17706  41.036  43.805   0.965
52480W        W17707   5.251  19.531  12.862
52481W        W17708  36.781   7.549   4.103
52482W        W17709   8.448  12.120   3.122
52483W        W17710  11.869  22.388   0.819
52484W        W17711  13.667  43.521  11.482
52485W        W17712   2.928   4.943   2.160
52486W        W17713   7.160  13.541  13.882
52487W        W17714  24.975  30.969   1.238
52488W        W17715  23.494  23.121   0.478
52489W        W17716  41.150  43.211  14.409
52490W        W17717  44.009  13.120  14.462
52491W        W17718  11.847  28.747   0.798
52492W        W17719  17.902   0.823  12.499
52493W        W17720   8.312   9.692   2.864
52494W        W17721  30.001  12.965   0.246
52495W        W17722  27.401  13.148  13.351
52496W        W17723  22.464   2.134  11.476
52497W        W17724  42.852  33.202  14.738
52498W        W17725  22.739  37.412   2.398
52499W        W17726  15.652  19.724   2.979
52500W        W17727  12.732  28.718  10.514
52501W        W17728  11.862  35.077   1.214
52502W        W17729  42.269  22.544  14.436
52503W        W17730  38.908   5.252   1.785
52504W        W17731  11.760   5.890   3.620
52505W        W17732  25.607  12.424   1.319
52506W        W17733  17.154  12.205  11.919
52507W        W17734  32.659  29.154  11.154
52508W        W17735  34.018  36.081  10.706
52509W        W17736  31.899  17.266   3.662
52510W        W17737  33.139  36.634   1.202
52511W        W17738  33.374   3.967   1.682
52512W        W17739  32.698  12.581   9.921
52513W        W17740   4.151   3.936   2.862
52514W        W17741  13.782  17.664  14.252
52515W        W17742   1.541  33.574  14.599
52516W        W17743  11.275  12.719   0.422
52517W        W17744  29.150  44.284   2.465
52518W        W17745  34.371  34.117   3.980
52519W        W17746  37.952  26.464  14.797
52520W        W17747   1.531  18.467  14.376
52521W        W17748  42.453  41.908   3.646
52522W        W17749   2.647   1.718   0.451
52523W        W17750   1.672  30.892  12.226
52524W        W17751  11.124  30.040   2.370
52525W        W17752  37.645  35.167   1.901
52526W        W17753  12.282  17.850  11.151
52527W        W17754  23.176  31.499   4.629
52528W        W17755  15.098   5.701   2.595
52529W        W17756   0.762  15.408   1.745
52530W        W17757  10.249   5.436  11.635
52531W        W17758  40.745  26.668  14.490
52532W        W17759  12.471  26.065   0.730
52533W        W17760  44.938  33.876  13.805
52534W        W17761  27.007   9.145  14.987
52535W        W17762  25.634   8.401  11.514
52536W        W17763   8.192  33.427  12.560
52537W        W17764  38.429  15.831  11.334
52538W        W17765  30.753  42.077  11.591
52539W        W17766  13.074   7.695  14.382
52540W        W17767  33.384   8.683  14.582
52541W        W17768  27.591  19.605  14.268
52542W        W17769   7.187  39.574   0.753
52543W        W17770  39.634   5.178   4.005
52544W        W17771  17.733  14.594  13.613
52545W        W17772  44.015  36.016  13.919
52546W        W17773  39.323  36.366  13.077
52547W        W17774  25.175   9.636  11.440
52548W        W17775  10.714   9.653  12.936
52549W        W17776  21.918  37.922  11.678
52550W        W17777  37.861  21.599  12.453
52551W        W17778  31.146  23.168   3.861
52552W        W17779  29.086  33.360   4.279
52553W        W17780  37.792  23.087  11.597
52554W        W17781  19.057  16.033  13.953
52555W        W17782   9.699  25.651  12.926
52556W        W17783  12.279  43.846   3.464
52557W        W17784  28.981   0.823  13.861
52558W        W17785  20.669  27.836   2.938
52559W        W17786  22.972  38.379   4.447
52560W        W17787   2.636  25.543  11.890
52561W        W17788   1.027  36.560  10.707
52562W        W17789  31.435  35.814  10.279
52563W        W17790   8.739  21.088  13.810
52564W        W17791  18.000  43.156  12.904
52565W        W17792  28.973  36.458   1.896
52566W        W17793  27.687  10.160  14.307
52567W        W17794  36.881  21.886  14.348
52568W        W17795   1.902  17.379  10.745
52569W        W17796  26.101  25.066   4.155
52570W        W17797  30.944  42.811  11.167
52571W        W17798  38.882  27.057  12.006
52572W        W17799  10.147  37.103  10.579
52573W        W17800   8.531  33.998   1.818
52574W        W17801  15.516   5.432  11.080
52575W        W17802  44.533  11.705   4.219
52576W        W17803  31.441  33.809  13.577
52577W        W17804   3.402  31.566  12.134
52578W        W17805  29.590   1.513  12.833
52579W        W17806  25.683  39.075  11.100
52580W        W17807  10.303  33.290   1.748
52581W        W17808  28.557   2.887  13.494
52582W        W17809   8.925  38.455   4.403
52583W        W17810  11.575  29.094  14.215
52584W        W17811  44.780  35.862   2.951
52585W        W17812   9.894  22.745  12.444
52586W        W17813  44.951  33.114  11.097
52587W        W17814  27.713  19.519  13.457
52588W        W17815   6.312  33.157  11.472
52589W        W17816  43.497  13.835   1.271
52590W        W17817  43.556   8.219  13.294
52591W        W17818  11.659  44.458  12.939
52592W        W17819   3.385  36.364   5.039
52593W        W17820  31.782  31.368  10.919
52594W        W17821  38.954   2.923   2.287
52595W        W17822   2.041  28.756   1.337
52596W        W17823  42.994   7.753   0.236
52597W        W17824   2.206  24.147  14.734
52598W        W17825  33.590  42.975   1.228
52599W        W17826  16.184  12.031   0.804
52600W        W17827  10.131  24.373   4.154
52601W        W17828  33.130  41.704  10.751
52602W        W17829  26.564  23.495  14.326
52603W        W17830  11.383   7.396  14.863
52604W        W17831   3.881   2.503   4.586
52605W        W17832  22.532   0.414   1.950
52606W        W17833   5.182  42.517   0.842
52607W        W17834   4.664  19.684  13.880
52608W        W17835  39.771  21.790  13.335
52609W        W17836  23.162   8.074  12.446
52610W        W17837  40.953  26.482   4.630
52611W        W17838  26.615  31.252   0.903
52612W        W17839  14.139  20.618  10.646
52613W        W17840  34.810   2.827   2.425
52614W        W17841  38.637   2.754  12.509
52615W        W17842   5.392  26.520  11.946
52616W        W17843   0.496   7.835  11.904
52617W        W17844  20.131   0.645  12.794
52618W        W17845  19.329  32.979  12.447
52619W        W17846  23.994   7.992   2.215
52620W        W17847  13.573  10.411  11.525
52621W        W17848  21.356  27.881  12.096
52622W        W17849  37.578  16.133   2.699
52623W        W17850   0.546  29.099   0.265
52624W        W17851  18.198  42.669  12.905
52625W        W17852   9.981  24.761   4.972
52626W        W17853  33.625   3.918   2.138
52627W        W17854  15.244  24.514   0.272
52628W        W17855  32.258   5.710   4.515
52629W        W17856  35.309   1.500   4.571
52630W        W17857   9.419  37.390  11.104
52631W        W17858  25.361  23.752  11.254
52632W        W17859  33.655  14.272   3.753
52633W        W17860  43.585  18.322   2.796
52634W        W17861   2.956  35.974   1.550
52635W        W17862  28.117  40.483  12.885
52636W        W17863   3.684  32.558  11.917
52637W        W17864  14.832  13.651   0.886
52638W        W17865  10.535  21.043   5.001
52639W        W17866  41.051   9.281   2.015
52640W        W17867  35.407  18.442  13.283
52641W        W17868   1.790  12.114  14.481
52642W        W17869  19.304  15.314   4.369
52643W        W17870   6.135  37.953   1.224
52644W        W17871  17.126  40.884  14.943
52645W        W17872   3.725   1.990   4.670
52646W        W17873  41.870  43.354   0.964
52647W        W17874   6.154  14.820  12.220
52648W        W17875  38.877  42.816  14.378
52649W        W17876  34.020  33.136  11.487
52650W        W17877  21.253   7.059   1.365
52651W        W17878  34.290  28.937   2.701
52652W        W17879  31.436  37.001  12.197
52653W        W17880  26.130  38.813  12.242
52654W        W17881  24.636  37.793   2.586
52655W        W17882  23.613  21.635   4.027
52656W        W17883  32.387   7.421   3.106
52657W        W17884  18.625  20.488   0.466
52658W        W17885  28.116   1.331   4.632
52659W        W17886   2.378  29.830   4.079
52660W        W17887  37.587  16.056   0.855
52661W        W17888   5.661   3.018   0.384
52662W        W17889   2.367  31.233   2.716
52663W        W17890  42.398   1.446   0.750
52664W        W17891  19.950  35.387   1.789
52665W        W17892   2.373  39.497   1.480
52666W        W17893  14.827   7.979  14.929
52667W        W17894  19.786  16.853  10.727
52668W        W17895   7.426   2.447  13.899
52669W        W17896  20.742  33.662   1.966
52670W        W17897  29.503   1.832   2.203
52671W        W17898  34.447   2.564   3.725
52672W        W17899  36.835  13.563  14.829
52673W        W17900  43.477  39.008  14.423
52674W        W17901  18.807  13.677   2.369
52675W        W17902  31.697  12.194   2.700
52676W        W17903  18.317   7.724   4.221
52677W        W17904  25.087   5.980   0.452
52678W        W17905   7.006   9.115  12.103
52679W        W17906  26.635   4.374   3.713
52680W        W17907  12.736  32.456   2.170
52681W        W17908  19.134   8.375  12.025
52682W        W17909  26.000  28.121  12.041
52683W        W17910  34.672  21.687   4.559
52684W        W17911  19.797  33.258  11.946
52685W        W17912  43.343  36.862   2.838
52686W        W17913  39.091  33.010   1.665
52687W        W17914  26.609  27.186  12.843
52688W        W17915  27.574  11.865   0.205
52689W        W17916  21.664  15.191  11.198
52690W        W17917  17.664  26.003  13.683
52691W        W17918  44.264  20.610  12.420
52692W        W17919  38.447  17.326  14.382
52693W        W17920  15.061  32.923   1.253
52694W        W17921  26.440  33.983   1.889
52695W        W17922  11.989   8.688  14.749
52696W        W17923  11.656   8.665  14.352
52697W        W17924   3.257  14.776  11.922
52698W        W17925  25.224  37.384  13.178
52699W        W17926  43.537   9.322   4.043
52700W        W17927  17.541  17.770  11.088
52701W        W17928  31.573  31.600   9.977
52702W        W17929   0.084  37.764  14.372
52703W        W17930  25.565  26.315   2.694
52704W        W17931   6.347  23.749   4.120
52705W        W17932  39.190  25.851   1.266
52706W        W17933   9.368  43.779   3.136
52707W        W17934  11.405  31.118   2.805
52708W        W17935  36.137  43.309  14.838
52709W        W17936   1.921  16.383   3.184
52710W        W17937  41.427   5.861   2.492
52711W        W17938  26.629  19.723  14.466
52712W        W17939  41.829  25.108  10.749
52713W        W17940  43.227  24.133   0.313
52714W        W17941  21.451   3.091   0.923
52715W        W17942  10.690  39.877  12.880
52716W        W17943  34.534  38.073   1.830
52717W        W17944  12.112  34.792   3.105
52718W        W17945  21.984  25.451  11.215
52719W        W17946  44.450  25.755  13.914
52720W        W17947  17.819  14.348  10.925
52721W        W17948   6.255  23.677  14.723
52722W        W17949  12.899   9.625  14.445
52723W        W17950  21.951  11.950  11.628
52724W        W17951  42.983  40.298  14.050
52725W        W17952  38.626  24.181  11.106
52726W        W17953  34.331  16.901   1.659
52727W        W17954  25.013  21.072  14.071
52728W        W17955   6.973  28.145   0.608
52729W        W17956  36.512  38.330   4.658
52730W        W17957   4.740  30.891   3.349
52731W        W17958  17.771   3.925   1.622
52732W        W17959  39.452  33.083   4.120
52733W        W17960  29.146  34.120   0.910
52734W        W17961  44.043  10.144  14.427
52735W        W17962  29.686  20.245  12.482
52736W        W17963  23.761  18.412   4.028
52737W        W17964  17.861  27.417  13.510
52738W        W17965  27.261  41.610  11.383
52739W        W17966  24.141  17.074  12.898
52740W        W17967  30.133  22.283  10.760
52741W        W17968  44.052  13.312  10.517
52742W        W17969  17.775  26.596   0.807
52743W        W17970  23.083  36.338   4.359
52744W        W17971   4.813  15.134   2.676
52745W        W17972   3.834  14.241  10.804
52746W        W17973  24.918  38.522  14.912
52747W        W17974   4.753  42.691  12.143
52748W        W17975  37.512  39.034  11.154
52749W        W17976  42.068   2.761   1.850
52750W        W17977   5.455  22.336  14.238
52751W        W17978  26.061   5.722   4.578
52752W        W17979  39.318  43.194   4.791
52753W        W17980  27.142  10.678  14.978
52754W        W17981   9.484  27.526   3.229
52755W        W17982  19.577  43.010  12.908
52756W        W17983  22.241   5.820   3.747
52757W        W17984  30.925  24.661  12.174
52758W        W17985   7.752  41.039   1.171
52759W        W17986  27.150  33.019   3.997
52760W        W17987  32.357  23.016   2.303
52761W        W17988  15.976   6.526   1.867
52762W        W17989  44.797  19.515   2.621
52763W        W17990   0.192  29.607   1.307
52764W        W17991  33.874   6.968  13.451
52765W        W17992  30.424  41.743  11.813
52766W        W17993  43.204   2.551   3.168
52767W        W17994  26.276  13.108  12.060
52768W        W17995  43.565  40.580  10.702
52769W        W17996  41.859  30.816  11.760
52770W        W17997  39.304  44.507  10.665
52771W        W17998  21.110  30.012  14.876
52772W        W17999   8.667  33.529  13.657
52773W        W18000  33.275  43.590   1.834
52774W        W18001  18.193  33.478  12.572
52775W        W18002  35.158   1.192  12.053
52776W        W18003  29.593  14.342   3.475
52777W        W18004   3.255  21.058   2.727
52778W        W18005  38.697  29.424   0.272
52779W        W18006   4.351  37.336  10.509
52780W        W18007   9.785  28.967  13.768
52781W        W18008  12.804  16.327   0.705
52782W        W18009  23.581  34.807  13.997
52783W        W18010  29.884  28.445  14.928
52784W        W18011  12.140  26.396  12.584
52785W        W18012  30.659  37.262  13.568
52786W        W18013  18.536  43.455  14.076
52787W        W18014  21.583  26.136  10.403
52788W        W18015   7.352  39.303  14.215
52789W        W18016   5.445  29.997   4.728
52790W        W18017  31.554  36.977   4.013
52791W        W18018  41.589  32.784   1.927
52792W        W18019  20.761  15.643  11.948
52793W        W18020   1.598  44.009  14.414
52794W        W18021  21.729  21.467  12.533
52795W        W18022  37.901  36.968   0.700
52796W        W18023  25.572  21.322  10.446
52797W        W18024  43.339   9.155   3.199
52798W        W18025  25.442  11.827   4.844
52799W        W18026   8.160  43.413   2.713
52800W        W18027   9.448  20.718   1.976
52801W        W18028  28.588  41.767  12.020
52802W        W18029  29.896  26.133   1.066
52803W        W18030  26.962  39.264   4.070
52804W        W18031  19.740  43.753   0.294
52805W        W18032   8.639  30.784  12.029
52806W        W18033  43.508  21.179   4.100
52807W        W18034  19.792   8.798   4.346
52808W        W18035  44.827  38.161  12.956
52809W        W18036  10.228   8.474  12.373
52810W        W18037  19.125  44.983  13.318
52811W        W18038  23.998   0.058  12.051
52812W        W18039  39.666  38.965   4.814
52813W        W18040  22.133  14.047  14.983
52814W        W18041  14.841   2.991   0.758
52815W        W18042  19.793   8.883  13.408
52816W        W18043  21.376  25.598   3.655
52817W        W18044  31.072  25.434   4.408
52818W        W18045  16.833   6.296   0.768
52819W        W18046  15.534  31.870   1.199
52820W        W18047  19.382   4.364  14.484
52821W        W18048  39.937  24.804   0.882
52822W        W18049   2.185  25.045   4.559
52823W        W18050   2.532  12.772   2.901
52824W        W18051  38.673  29.167  14.017
52825W        W18052  30.951  31.598   4.259
52826W        W18053   0.884  44.891  12.225
52827W        W18054  10.569   1.943  11.115
52828W        W18055  27.237   3.982  10.658
52829W        W18056  32.254   4.853  10.626
52830W        W18057  30.736   6.822   2.910
52831W        W18058   4.247  39.461  12.846
52832W        W18059   5.255  38.958  11.949
52833W        W18060  43.226   3.511   4.170
52834W        W18061  18.614   5.903  14.236
52835W        W18062  41.957  41.689  10.375
52836W        W18063  44.745  12.786  13.492
52837W        W18064  44.342  24.747  11.466
52838W        W18065  20.716  22.321   0.867
52839W        W18066   8.083   2.542   1.903
52840W        W18067   2.480  34.052  11.331
52841W        W18068   4.302  33.651  11.161
52842W        W18069  42.938  24.468  14.971
52843W        W18070  22.456  15.253   0.845
52844W        W18071   5.336  41.483  11.697
52845W        W18072   7.438  31.418   0.371
52846W        W18073  23.140  22.212  11.764
52847W        W18074  36.589  16.841   1.477
52848W        W18075   2.359  37.030  11.211
52849W        W18076  21.275  31.889   3.654
52850W        W18077   5.393  13.067   3.440
52851W        W18078  17.280  31.568   3.390
52852W        W18079  43.220  44.432  13.696
52853W        W18080   9.798  39.894  11.273
52854W        W18081  18.138  42.291  14.753
52855W        W18082  33.980  15.362   1.764
52856W        W18083  11.361  36.934  12.319
52857W        W18084   1.715  21.203   2.910
52858W        W18085  32.176  35.035   1.193
52859W        W18086  40.819  39.285   0.336
52860W        W18087  43.006   1.382  10.549
52861W        W18088  16.687   4.777   3.902
52862W        W18089  39.577   0.389   0.842
52863W        W18090  44.922  38.261  14.345
52864W        W18091  38.814  11.598   4.161
52865W        W18092  28.357   6.840   3.730
52866W        W18093  33.154   2.068  13.670
52867W        W18094   4.890  37.147  11.076
52868W        W18095  41.317  24.634   4.125
52869W        W18096  17.175   7.699   4.128
52870W        W18097   0.673  43.528   9.980
52871W        W18098  35.455   8.331   0.886
52872W        W18099   2.301  11.373   2.226
52873W        W18100  15.681  15.791  11.007
52874W        W18101  41.764   4.506   2.152
52875W        W18102  42.093  43.389  12.090
52876W        W18103  12.033   8.220   3.338
52877W        W18104  13.119  15.093   1.595
52878W        W18105  19.688  32.444   2.298
52879W        W18106  39.597  31.113   2.711
52880W        W18107  40.407  19.232   3.350
52881W        W18108   6.252  10.244  11.723
52882W        W18109  44.418  27.623  14.808
52883W        W18110  44.539  22.460   1.839
52884W        W18111  38.595  28.708  12.619
52885W        W18112  40.344  23.273  12.404
52886W        W18113  16.201  18.564   1.334
52887W        W18114  30.717   7.706   2.185
52888W        W18115  27.032  26.761  12.446
52889W        W18116  41.627  20.987  11.960
52890W        W18117  24.511  34.377   4.688
52891W        W18118  42.231  42.312  14.369
52892W        W18119  28.000  18.867   4.239
52893W        W18120  40.821  38.750   1.715
52894W        W18121   0.910  40.865   2.258
52895W        W18122  16.021  11.791  12.046
52896W        W18123  32.532  19.150   1.068
52897W        W18124  26.468  38.579   3.183
52898W        W18125  42.693  23.824   2.658
52899W        W18126  33.889  23.906  13.204
52900W        W18127   8.167  41.195   4.201
52901W        W18128  16.547  44.993   1.800
52902W        W18129  34.556  13.276  14.813
52903W        W18130  37.228  33.895  13.389
52904W        W18131  16.725  29.871   3.550
52905W        W18132  18.176  36.341   3.275
52906W        W18133   0.700  12.347  14.245
52907W        W18134  29.716  18.034  14.374
52908W        W18135  32.443   8.493   4.932
52909W        W18136  19.021  37.368   1.743
52910W        W18137  11.629  22.102   1.205
52911W        W18138  44.747  30.424   3.984
52912W        W18139   7.663   8.622   2.199
52913W        W18140  12.209  16.809  13.742
52914W        W18141  34.576  37.792   4.693
52915W        W18142  39.360   9.910  14.495
52916W        W18143  19.644  21.525   4.631
52917W        W18144  33.007  22.257   3.600
52918W        W18145  19.691  24.752   2.682
52919W        W18146  35.056  21.912   3.293
52920W        W18147  40.442  21.361   3.250
52921W        W18148   8.427  42.731   4.173
52922W        W18149   9.929   8.644   0.002
52923W        W18150  22.471  10.674  10.780
52924W        W18151  31.630  38.903   3.667
52925W        W18152  27.339  34.082  14.421
52926W        W18153  33.233  41.492   4.561
52927W        W18154  16.762   3.178  11.252
52928W        W18155  21.097  25.198  13.738
52929W        W18156  21.039  25.578   2.585
52930W        W18157   1.422   0.694   2.393
52931W        W18158  16.233  16.308  13.915
52932W        W18159  27.885  15.149   2.939
52933W        W18160  19.300  37.813   3.496
52934W        W18161  22.860   0.321  12.105
52935W        W18162  10.139  36.451  12.798
52936W        W18163  16.136   3.966   2.539
52937W        W18164   4.049  27.486   9.648
52938W        W18165  34.984  38.482   1.471
52939W        W18166   9.578  35.520  10.354
52940W        W18167  28.965   8.205   2.311
52941W        W18168  30.204  11.109  14.408
52942W        W18169  23.698  35.951  10.441
52943W        W18170  12.008  36.369   3.639
52944W        W18171  41.763  38.191   0.007
52945W        W18172  37.434  34.240  11.605
52946W        W18173   0.505  12.303   2.722
52947W        W18174  19.216  15.666   2.385
52948W        W18175   5.733  35.698  11.559
52949W        W18176  21.541  30.409  10.885
52950W        W18177  40.988  37.024  13.858
52951W        W18178  11.101  16.476  12.679
52952W        W18179  24.318  23.982   1.269
52953W        W18180   8.003   2.917   0.238
52954W        W18181  28.455   1.389  14.833
52955W        W18182  40.936  18.054   1.574
52956W        W18183   1.481  38.264  14.907
52957W        W18184  10.383  30.224   5.168
52958W        W18185  20.741  28.531  12.053
52959W        W18186   9.751  10.156   1.837
52960W        W18187   8.463  20.658  14.415
52961W        W18188  11.313  24.977  14.780
52962W        W18189   0.718  31.668   0.508
52963W        W18190  27.602  13.766   0.435
52964W        W18191  13.525  14.619   2.895
52965W        W18192  33.109  40.816  14.238
52966W        W18193  33.870  25.174   4.628
52967W        W18194  40.478  33.101   3.707
52968W        W18195  28.382  13.746  11.602
52969W        W18196  33.512  24.745  13.462
52970W        W18197   6.719  24.722   4.902
52971W        W18198   4.093  41.423   1.975
52972W        W18199   7.297   0.197   3.621
52973W        W18200  10.719  38.787  13.950
52974W        W18201  38.573  18.224  10.771
52975W        W18202  35.680   8.843   1.029
52976W        W18203  40.788  26.511   1.769
52977W        W18204  23.501   8.817   4.984
52978W        W18205  40.222  26.313   5.007
52979W        W18206  29.385  38.905  10.598
52980W        W18207  33.973   5.668   0.301
52981W        W18208  27.650  19.202   3.742
52982W        W18209  27.500  37.580   1.423
52983W        W18210  21.788  37.123  11.126
52984W        W18211  36.353   5.897  12.403
52985W        W18212  44.944  22.925   2.693
52986W        W18213   0.935  37.937  13.945
52987W        W18214  28.185  16.213   0.791
52988W        W18215   3.255  44.585   5.003
52989W        W18216  30.360   2.391   0.350
52990W        W18217  21.511  43.322   3.182
52991W        W18218   8.308   5.273   2.310
52992W        W18219   3.048   6.288   0.929
52993W        W18220  22.319  36.258   5.088
52994W        W18221  34.500  23.076  12.948
52995W        W18222   6.332  36.709   4.918
52996W        W18223  30.921  35.940   3.275
52997W        W18224  10.634  11.780   0.255
52998W        W18225  15.216  25.042  10.678
52999W        W18226  34.329  33.949   3.444
53000W        W18227  10.081  43.016   5.054
53001W        W18228  10.316   9.129  10.485
53002W        W18229  38.502  15.085  14.415
53003W        W18230  44.038  37.082   2.289
53004W        W18231  43.904  12.937   0.719
53005W        W18232  23.500  24.209  12.491
53006W        W18233   2.120   0.261   2.849
53007W        W18234   9.379   2.981   0.890
53008W        W18235   8.313  20.349   0.861
53009W        W18236  24.044  31.369   4.124
53010W        W18237  10.764  26.031   4.500
53011W        W18238  11.101   6.831  12.669
53012W        W18239  16.224   9.150   1.711
53013W        W18240  23.067  31.104  11.535
53014W        W18241   1.402  37.947   2.202
53015W        W18242  40.301   7.925   2.957
53016W        W18243  20.856  16.879  10.859
53017W        W18244  36.346   7.307  10.720
53018W        W18245  25.998  43.362  12.883
53019W        W18246   2.016  35.863  13.909
53020W        W18247   3.724  32.990   3.145
53021W        W18248  16.707  13.522   0.921
53022W        W18249  29.688  22.016  10.804
53023W        W18250   0.635  41.980  13.306
53024W        W18251   5.784  41.297  13.982
53025W        W18252  18.564  43.434   3.818
53026W        W18253  30.079  44.827  13.112
53027W        W18254  36.581  32.399   2.555
53028W        W18255  16.479  33.142  14.458
53029W        W18256   8.472   3.356  12.731
53030W        W18257  28.239  34.392   0.817
53031W        W18258  32.418  18.737   1.379
53032W        W18259  24.776  14.871   4.912
53033W        W18260  29.879  15.973   3.217
53034W        W18261   7.478   5.418  12.298
53035W        W18262  34.067  22.916   0.725
53036W        W18263  34.077   0.648  11.228
53037W        W18264   4.769  24.331   0.033
53038W        W18265  17.136  28.970   2.443
53039W        W18266   8.846  19.267  11.532
53040W        W18267  28.533  23.292   0.198
53041W        W18268  36.432  35.414   0.258
53042W        W18269  31.139  26.197   3.258
53043W        W18270  24.539  39.581   1.426
53044W        W18271   4.759  42.222   0.757
53045W        W18272   9.693  31.602   3.793
53046W        W18273  42.815   6.940   4.095
53047W        W18274  11.503  23.936   5.314
53048W        W18275   5.220  23.674   2.315
53049W        W18276  29.965  41.236  13.823
53050W        W18277  15.279  15.232   3.703
53051W        W18278   2.741  32.821  12.074
53052W        W18279  31.220  21.876  14.500
53053W        W18280   6.435  10.436  14.760
53054W        W18281  40.904   6.185  13.938
53055W        W18282  43.034  23.090   1.010
53056W        W18283  17.139  24.699   3.893
53057W        W18284  40.323  40.698  10.684
53058W        W18285  13.868  34.593  14.749
53059W        W18286   0.887  35.397  12.598
53060W        W18287  25.018  18.554  11.914
53061W        W18288  36.073   4.750   5.049
53062W        W18289  35.988  37.739  10.734
53063W        W18290   1.023  15.362   0.432
53064W        W18291   6.073  34.893  11.142
53065W        W18292  39.137  19.648  10.996
53066W        W18293   0.199   4.159  11.977
53067W        W18294   4.809  26.725   0.816
53068W        W18295  14.019  15.144  14.798
53069W        W18296  12.394  22.383   0.748
53070W        W18297  11.168  21.540   2.578
53071W        W18298  22.236  29.175  14.237
53072W        W18299  11.728   2.316  14.388
53073W        W18300  35.386  36.796   0.961
53074W        W18301  35.335  26.567   1.270
53075W        W18302  32.122   8.182  14.365
53076W        W18303  13.845  29.916  11.189
53077W        W18304   4.283  41.666  14.859
53078W        W18305  40.248  23.443  14.776
53079W        W18306  41.956   8.842  13.753
53080W        W18307   0.150  26.958   2.139
53081W        W18308  30.054   9.450  13.637
53082W        W18309  10.143  10.870  13.765
53083W        W18310  19.254  22.303   4.579
53084W        W18311  26.901  13.291  12.798
53085W        W18312  18.326   5.681  11.713
53086W        W18313   8.427   4.591   5.105
53087W        W18314  20.477  34.390  11.491
53088W        W18315  42.801  16.031  11.953
53089W        W18316  16.271  43.741   1.240
53090W        W18317  38.568   9.074  10.924
53091W        W18318  35.416   3.557  14.448
53092W        W18319  35.023   1.355   2.266
53093W        W18320   1.749   7.747  10.912
53094W        W18321  33.692  16.008   4.003
53095W        W18322  41.845  43.208   3.313
53096W        W18323   3.543   2.805  12.308
53097W        W18324   8.127  22.479  14.995
53098W        W18325  38.133  11.135  11.083
53099W        W18326   6.929  39.632  13.990
53100W        W18327  14.117  32.412   9.886
53101W        W18328  42.874  22.864   1.461
53102W        W18329  20.429  40.914  13.009
53103W        W18330  35.479  29.914  14.260
53104W        W18331  41.367  43.490  13.968
53105W        W18332   4.414   9.606   3.639
53106W        W18333  23.867  43.121  10.726
53107W        W18334  13.497  15.191  12.287
53108W        W18335  11.769  38.027  13.313
53109W        W18336   2.900  29.191   2.798
53110W        W18337  14.053   9.190  11.811
53111W        W18338  23.139  25.837  12.568
53112W        W18339  12.255   6.750  11.211
53113W        W18340  17.019   2.655  12.947
53114W        W18341  39.995  20.327   4.292
53115W        W18342   1.940  10.166   4.660
53116W        W18343  32.557   0.475   3.706
53117W        W18344  22.543  29.269   1.436
53118W        W18345   7.321  33.515  12.951
53119W        W18346  27.713  29.467  11.025
53120W        W18347  29.954  12.913   2.640
53121W        W18348  14.148  24.684  13.489
53122W        W18349  28.423  19.154   0.797
53123W        W18350  25.457  38.747  14.060
53124W        W18351  35.776  38.177  10.147
53125W        W18352  36.027  38.269  10.593
53126W        W18353  11.243  31.844   2.340
53127W        W18354  22.088   5.408  14.217
53128W        W18355  19.804  44.571   3.204
53129W        W18356  13.718  42.868  12.480
53130W        W18357  35.513  10.829   1.524
53131W        W18358  40.471   7.955  13.093
53132W        W18359  29.422  33.437  12.642
53133W        W18360  23.650   8.910  10.807
53134W        W18361  28.682  23.669  11.985
53135W        W18362  36.911  23.538  12.141
53136W        W18363  43.322   8.796  10.077
53137W        W18364  38.931  37.581   9.775
53138W        W18365   0.825  42.813   1.392
53139W        W18366  17.123  40.520  10.598
53140W        W18367   2.894   8.149   4.582
53141W        W18368  34.858  31.032   1.401
53142W        W18369  39.573  18.292   1.003
53143W        W18370  27.624   5.464   1.004
53144W        W18371   9.371  13.304  14.438
53145W        W18372  23.085  32.126  14.922
53146W        W18373  34.108  44.719   5.074
53147W        W18374  35.946  21.771   0.298
53148W        W18375  44.514  34.361   1.306
53149W        W18376   7.929  14.210   4.563
53150W        W18377  32.133  22.433   3.640
53151W        W18378  14.289   1.153  11.152
53152W        W18379   7.889   7.788  10.722
53153W        W18380  38.026  11.290  13.218
53154W        W18381  38.380   0.668   2.901
53155W        W18382  20.906   7.967  13.934
53156W        W18383  23.390  11.864   4.546
53157W        W18384  36.719  41.201  13.466
53158W        W18385  38.946   5.016  10.213
53159W        W18386  43.454  29.549   4.528
53160W        W18387  19.782  30.140  12.492
53161W        W18388  26.548   9.713   4.159
53162W        W18389   6.416  42.751  14.806
53163W        W18390  23.509  15.801  11.053
53164W        W18391  26.524  21.167  12.145
53165W        W18392  21.670  15.265  11.681
53166W        W18393  38.548  17.827  14.463
53167W        W18394   8.129  27.551  12.425
53168W        W18395  21.667  40.686   3.211
53169W        W18396  41.994  25.715   1.392
53170W        W18397  16.193  30.970   4.419
53171W        W18398  31.892  40.472   3.258
53172W        W18399   5.821  39.394   0.703
53173W        W18400  26.537   0.089   0.971
53174W        W18401  17.897  20.227  11.935
53175W        W18402   7.212  23.145   0.666
53176W        W18403  11.179  23.462   2.799
53177W        W18404  28.411  40.370   2.899
53178W        W18405   2.281   0.488  10.973
53179W        W18406  40.296   1.884   4.472
53180W        W18407   9.453  35.460  13.527
53181W        W18408  19.621  26.151  11.179
53182W        W18409  33.107   3.804   2.067
53183W        W18410  20.609  13.006  12.045
53184W        W18411  40.063   5.466   1.868
53185W        W18412   5.926  33.679  12.129
53186W        W18413  12.808  14.379  13.813
53187W        W18414   4.665  40.265   2.399
53188W        W18415  27.735   1.354  10.343
53189W        W18416  15.793  20.271   2.265
53190W        W18417  21.548  38.339  13.862
53191W        W18418  35.415  18.333  12.114
53192W        W18419  19.879  20.653  13.922
53193W        W18420  14.070   4.200  13.478
53194W        W18421  17.268  40.425   0.691
53195W        W18422  36.042  28.382  11.480
53196W        W18423   3.967   2.216   5.086
53197W        W18424  39.497   4.128   4.983
53198W        W18425  23.117  19.796  13.393
53199W        W18426   4.982  38.432  14.050
53200W        W18427   7.151  44.277   2.835
53201W        W18428   5.189  14.296  10.686
53202W        W18429   3.994  21.114  13.279
53203W        W18430  33.067  23.930  12.488
53204W        W18431  42.382  21.795   1.926
53205W        W18432  27.770  32.597   1.060
53206W        W18433  34.116   2.505  11.607
53207W        W18434  21.663   7.500   3.308
53208W        W18435  20.793  23.381   3.924
53209W        W18436   1.080   8.258  14.015
53210W        W18437   2.554  36.810   1.109
53211W        W18438  44.701  42.385   2.404
53212W        W18439  43.512  30.919   0.968
53213W        W18440  36.987  26.720   4.793
53214W        W18441   8.098  34.646   5.609
53215W        W18442  29.933  21.884   4.160
53216W        W18443   1.201  42.368  11.080
53217W        W18444  29.917  27.277  12.134
53218W        W18445  41.558  35.815   1.020
53219W        W18446  42.822   1.976   1.401
53220W        W18447   8.623  16.235   0.341
53221W        W18448  27.945  37.172  13.820
53222W        W18449   1.876  14.073  12.116
53223W        W18450  22.363  22.584   3.179
53224W        W18451  31.156  19.657   0.813
53225W        W18452   9.137   8.785   3.395
53226W        W18453  44.910   1.901   1.424
53227W        W18454  25.945  31.465   2.362
53228W        W18455  21.829   7.992  12.189
53229W        W18456   1.161  18.694  13.579
53230W        W18457  16.906  35.329   3.245
53231W        W18458   2.112  41.273  14.297
53232W        W18459   2.513  23.488  10.164
53233W        W18460  39.059  21.150   0.915
53234W        W18461   2.889  22.547  13.020
53235W        W18462  30.501  11.287  13.586
53236W        W18463  14.346  44.451   4.272
53237W        W18464  33.593   6.399   4.975
53238W        W18465  31.681   8.944   4.105
53239W        W18466  14.934  41.468   1.717
53240W        W18467  13.291  44.408  11.536
53241W        W18468  25.258  20.967  10.672
53242W        W18469  20.644  38.935  12.104
53243W        W18470  23.815  18.591   4.508
53244W        W18471   3.124   3.835   3.760
53245W        W18472   3.254  15.333   4.186
53246W        W18473   1.032  14.578  11.494
53247W        W18474  13.334  31.835   1.558
53248W        W18475  17.752  38.437   0.483
53249W        W18476  23.625  28.529  11.967
53250W        W18477  14.193  40.851  11.502
53251W        W18478  31.023  39.916   3.253
53252W        W18479  30.639  42.826  12.987
53253W        W18480   6.293  22.597   4.071
53254W        W18481  26.335  38.455   1.893
53255W        W18482  29.038  34.824  10.740
53256W        W18483  18.772  24.645   0.131
53257W        W18484  19.505  15.873   5.000
53258W        W18485  35.424  18.506  13.782
53259W        W18486   1.983   5.096  11.191
53260W        W18487  30.940  34.587   4.632
53261W        W18488   1.315   5.382   4.524
53262W        W18489  12.471  32.269  13.606
53263W        W18490  39.692  28.239  11.563
53264W        W18491  29.535  22.391  14.420
53265W        W18492  35.382  42.509   2.205
53266W        W18493  14.366  17.856   1.485
53267W        W18494   4.786  29.038   3.037
53268W        W18495  27.819  40.225   9.918
53269W        W18496  11.886  24.107  12.894
53270W        W18497  34.322  26.411   9.865
53271W        W18498  27.533   7.955   2.657
53272W        W18499   4.189   8.847  12.488
53273W        W18500   8.670  22.529   3.146
53274W        W18501  35.872  23.670  11.113
53275W        W18502  13.740  16.559  13.786
53276W        W18503  14.789   4.565  13.513
53277W        W18504  38.818  10.279   4.521
53278W        W18505   9.760  23.006   0.260
53279W        W18506  17.360   5.287   0.041
53280W        W18507  37.653  23.759   3.184
53281W        W18508  17.638   3.757  13.196
53282W        W18509  15.560  43.379  10.729
53283W        W18510   4.378  22.329   4.672
53284W        W18511  27.613  26.655   4.078
53285W        W18512   2.704  24.400  11.920
53286W        W18513  12.118  17.321   4.613
53287W        W18514   3.706   3.894   1.008
53288W        W18515  10.883  28.204  10.230
53289W        W18516  15.098  33.404   1.766
53290W        W18517  40.793  28.094  12.223
53291W        W18518  35.424  26.842   4.780
53292W        W18519  17.698  16.497   3.225
53293W        W18520   0.455  43.069   1.689
53294W        W18521  16.200  35.365   0.830
53295W        W18522  22.783   1.539   3.015
53296W        W18523  18.138   7.472  11.104
53297W        W18524   4.231   0.981  12.437
53298W        W18525  21.494  35.330  13.341
53299W        W18526  34.909  39.697  11.496
53300W        W18527   2.875   1.311  10.520
53301W        W18528  13.665   0.528  11.120
53302W        W18529   9.179  39.550   1.668
53303W        W18530  38.260  13.587   0.708
53304W        W18531  12.343  22.036   4.295
53305W        W18532   0.794  28.655  12.030
53306W        W18533   7.129  12.015  11.141
53307W        W18534  22.623  38.143   1.809
53308W        W18535  22.012  16.708   2.265
53309W        W18536  36.874   0.368   3.165
53310W        W18537  19.609  31.520   3.902
53311W        W18538  35.011   6.171  12.028
53312W        W18539  23.020  15.976  10.967
53313W        W18540  26.037  31.317   0.066
53314W        W18541  41.909  44.743   4.866
53315W        W18542  34.624  43.738  12.139
53316W        W18543   0.814  17.719   3.449
53317W        W18544  18.355  32.614  14.251
53318W        W18545  25.666  14.131  11.041
53319W        W18546  36.359  16.239   0.718
53320W        W18547  35.547  20.528   0.921
53321W        W18548  35.359  39.255   1.833
53322W        W18549  20.831  14.880  12.390
53323W        W18550  23.000  33.120  13.536
53324W        W18551  38.999  17.803   2.041
53325W        W18552  21.516  36.835   3.639
53326W        W18553   5.266   2.201  14.441
53327W        W18554  29.603  23.331  13.335
53328W        W18555  12.389   7.014   1.089
53329W        W18556  18.120  36.528   1.256
53330W        W18557  39.082   9.885   4.686
53331W        W18558  32.916  24.259  14.716
53332W        W18559  36.479  15.338  12.082
53333W        W18560   9.195  17.073  13.884
53334W        W18561   0.472  37.683  11.853
53335W        W18562  32.376  32.168   2.867
53336W        W18563  25.505  26.650  12.447
53337W        W18564   2.272  42.736  12.369
53338W        W18565  30.658   8.934  10.926
53339W        W18566   8.469  25.624  14.351
53340W        W18567  28.757  43.837   4.667
53341W        W18568  35.991  26.406   0.486
53342W        W18569  28.041   4.830  14.795
53343W        W18570  26.540  42.101  14.413
53344W        W18571  16.100  14.960   3.644
53345W        W18572  24.705  27.966  12.462
53346W        W18573  37.483  37.480  12.483
53347W        W18574  12.681  25.536   0.886
53348W        W18575   5.004   9.396  14.421
53349W        W18576  33.331  39.379  13.843
53350W        W18577  15.731  17.164   5.445
53351W        W18578   5.207  14.583  14.411
53352W        W18579  25.195   3.237   3.889
53353W        W18580  21.909   3.476   4.158
53354W        W18581  40.420  26.748  12.607
53355W        W18582   3.881  34.035  10.417
53356W        W18583  39.045  32.520  11.375
53357W        W18584  37.936  41.109  13.996
53358W        W18585  33.632  38.430  13.359
53359W        W18586   4.516   1.807   2.893
53360W        W18587  18.615  33.422   4.606
53361W        W18588  15.545   0.710  14.901
53362W        W18589   6.765  40.900   3.112
53363W        W18590  24.961  30.432   3.478
53364W        W18591   7.904  40.847  10.955
53365W        W18592  32.957  28.126  13.806
53366W        W18593  23.488  13.758  11.197
53367W        W18594  37.062  31.684   2.770
53368W        W18595  26.259  41.811   3.319
53369W        W18596  20.457  42.522   3.207
53370W        W18597  42.861  34.044  13.390
53371W        W18598  32.530  33.648  14.545
53372W        W18599  31.072  30.030   0.573
53373W        W18600   9.218  38.948  11.142
53374W        W18601   5.441  35.599  11.997
53375W        W18602  29.393  41.363   1.590
53376W        W18603  16.012  42.137  12.159
53377W        W18604   9.836  10.176  12.640
53378W        W18605   2.908  43.406   4.559
53379W        W18606  19.554   8.074  13.057
53380W        W18607  13.074  40.093   2.334
53381W        W18608  10.683  18.359  14.363
53382W        W18609   9.862   5.391   1.857
53383W        W18610  20.026   4.143  11.184
53384W        W18611  44.888  10.347   2.373
53385W        W18612   5.658  31.063  13.489
53386W        W18613  36.160  35.919   1.415
53387W        W18614  24.106  10.387  14.724
53388W        W18615  30.358   3.309  11.131
53389W        W18616  15.435  43.992   0.821
53390W        W18617   1.473  37.490   3.510
53391W        W18618  24.284  10.906  14.645
53392W        W18619   5.315  44.341  12.190
53393W        W18620  35.079  34.582   4.101
53394W        W18621  19.971  11.868  14.048
53395W        W18622  20.805  23.101   1.406
53396W        W18623  32.392   9.809   3.358
53397W        W18624  30.994   5.771   3.690
53398W        W18625  34.872  10.712   0.272
53399W        W18626  27.190  36.907   3.852
53400W        W18627  31.969  21.537  12.801
53401W        W18628  25.139  41.567   2.280
53402W        W18629  14.785   1.823  12.892
53403W        W18630  34.087   5.796   4.528
53404W        W18631  14.920   7.009  12.513
53405W        W18632  26.451  32.915   0.837
53406W        W18633  25.704  44.368   1.408
53407W        W18634  30.100  40.465  10.597
53408W        W18635  10.216  14.656  14.881
53409W        W18636  28.346  33.929  14.591
53410W        W18637  11.599   9.629   2.703
53411W        W18638   9.938   0.039  13.015
53412W        W18639  30.405  11.294   1.710
53413W        W18640  13.446  42.756   2.746
53414W        W18641   7.164  37.950   1.421
53415W        W18642  42.728  19.237   2.163
53416W        W18643   3.146  33.160  11.948
53417W        W18644  42.870  23.275  11.582
53418W        W18645   3.820  29.221   3.184
53419W        W18646  28.365  42.822   4.027
53420W        W18647  33.424   7.917   3.612
53421W        W18648   9.301   2.507  12.201
53422W        W18649  16.101  34.451  14.894
53423W        W18650   5.064  10.389  11.064
53424W        W18651   8.900  36.867   3.629
53425W        W18652  13.064  38.431  12.451
53426W        W18653  41.018  10.074  14.483
53427W        W18654  33.440  14.233  13.188
53428W        W18655  44.120   3.324  10.691
53429W        W18656   9.215   5.503   1.046
53430W        W18657  36.459   2.421   0.836
53431W        W18658  33.715  29.038   4.617
53432W        W18659  40.305   3.141   0.039
53433W        W18660   0.648  11.773  11.605
53434W        W18661   3.920  39.545   3.984
53435W        W18662  42.801  32.500   0.854
53436W        W18663   2.746   6.309   1.451
53437W        W18664  42.511   1.776   3.290
53438W        W18665  37.003  26.506  13.258
53439W        W18666  41.944  21.731  14.838
53440W        W18667   0.012  18.195   1.409
53441W        W18668  34.159  24.143  12.391
53442W        W18669  33.137  32.954  11.137
53443W        W18670  27.947  21.670  14.809
53444W        W18671  37.716  24.641   4.515
53445W        W18672  38.071  24.604  10.753
53446W        W18673  28.736  25.178   0.273
53447W        W18674   0.300  25.220   0.270
53448W        W18675  20.669  41.321   3.217
53449W        W18676  27.054   9.166   0.960
53450W        W18677   8.382   5.227   3.229
53451W        W18678  44.924  44.954   0.337
53452W        W18679  42.473  39.279   2.901
53453W        W18680  24.711   6.157  14.069
53454W        W18681  32.362  20.411  13.741
53455W        W18682  33.623   9.408  11.579
53456W        W18683  23.330  24.174   1.464
53457W        W18684  23.007  24.655  13.798
53458W        W18685  42.691   0.740  14.452
53459W        W18686  32.997   1.871   4.625
53460W        W18687   4.008  36.420  12.059
53461W        W18688  38.446  12.593   1.767
53462W        W18689  31.859   0.848   2.778
53463W        W18690  38.301  14.970   3.557
53464W        W18691   4.192  26.937   0.694
53465W        W18692  28.378  41.792   3.979
53466W        W18693  18.794  14.487  11.677
53467W        W18694   4.448  39.089   1.555
53468W        W18695  43.649   7.391  11.788
53469W        W18696  29.922  42.254  14.437
53470W        W18697  22.291  36.343  12.503
53471W        W18698  36.466  34.594  12.544
53472W        W18699   8.757   5.146  12.066
53473W        W18700  17.414  35.622   1.691
53474W        W18701   8.789  21.950  14.557
53475W        W18702  41.735  42.029  14.724
53476W        W18703  27.591  23.670  14.393
53477W        W18704  13.247  18.337   2.734
53478W        W18705   8.660  21.894  14.067
53479W        W18706   6.351  41.467  12.568
53480W        W18707  27.281  31.458  12.637
53481W        W18708   4.815  33.889  11.882
53482W        W18709  44.529   8.638  12.068
53483W        W18710  24.502  40.306   0.357
53484W        W18711  31.157  13.789   3.745
53485W        W18712  20.192  39.325  14.093
53486W        W18713  12.832  43.921  11.347
53487W        W18714  39.889  22.603   1.275
53488W        W18715  10.111  35.125   0.375
53489W        W18716  10.168  21.325  12.812
53490W        W18717   6.607  16.702  13.338
53491W        W18718   8.622  27.094  14.283
53492W        W18719  34.986  41.204  13.846
53493W        W18720   7.412  36.546   0.093
53494W        W18721  17.840  17.209  13.523
53495W        W18722   0.026  26.014  14.288
53496W        W18723   4.466  42.665  14.899
53497W        W18724  21.020  28.968   3.853
53498W        W18725  26.670  16.313  13.146
53499W        W18726   2.063  21.256  14.841
53500W        W18727   8.750  34.367   1.294
53501W        W18728  32.573  44.994  12.981
53502W        W18729  42.100  42.338  12.818
53503W        W18730  15.665   3.496  14.150
53504W        W18731  43.869   5.364   0.796
53505W        W18732   8.895  24.446  14.949
53506W        W18733  25.027  22.174  13.317
53507W        W18734   9.502  10.089   4.399
53508W        W18735  41.790  19.150  14.410
53509W        W18736  17.621  37.110  12.999
53510W        W18737  21.133   9.752  12.836
53511W        W18738  19.543   8.100  14.924
53512W        W18739   9.301  24.145   3.300
53513W        W18740  12.781  13.107  10.453
53514W        W18741  29.844  11.234   3.675
53515W        W18742  38.113  21.227  10.154
53516W        W18743  31.959   6.649  12.545
53517W        W18744  18.222  20.354   4.782
53518W        W18745   7.486  26.025  13.499
53519W        W18746  39.463   2.086  13.470
53520W        W18747  43.742  41.515   3.157
53521W        W18748  20.738  42.771   0.286
53522W        W18749   3.327  39.530   2.758
53523W        W18750   3.976  24.634   2.445
53524W        W18751  37.877  17.875   1.799
53525W        W18752  27.875  23.315   0.849
53526W        W18753  15.435  11.064  14.861
53527W        W18754   9.437   6.738   0.232
53528W        W18755   9.867  42.072   5.014
53529W        W18756   2.970  12.357  13.693
53530W        W18757  21.293  12.662   0.929
53531W        W18758  39.701  17.766   3.842
53532W        W18759  33.593  42.583  10.697
53533W        W18760   2.193  12.700  11.111
53534W        W18761  12.930  27.058  14.060
53535W        W18762  22.392  20.225  10.676
53536W        W18763  28.145  25.969  14.869
53537W        W18764   0.207  16.324  14.423
53538W        W18765   5.315  21.663   2.768
53539W        W18766   5.858  16.489  12.494
53540W        W18767  16.306  17.935  11.151
53541W        W18768   5.310  36.637   2.247
53542W        W18769  24.296   9.731  13.904
53543W        W18770  26.209  34.593  13.058
53544W        W18771  44.384  33.806  12.100
53545W        W18772  42.468  42.331   4.577
53546W        W18773  25.961  22.148   4.067
53547W        W18774  19.157  41.765  13.831
53548W        W18775  33.518  10.854  14.755
53549W        W18776   2.794   9.605  11.679
53550W        W18777  12.816   1.516  11.196
53551W        W18778  29.115   1.008  11.472
53552W        W18779  23.452  20.302   2.900
53553W        W18780   0.882  36.495   0.569
53554W        W18781   4.957   7.782  12.807
53555W        W18782  19.170  31.510  13.854
53556W        W18783  16.299   7.632  14.968
53557W        W18784  21.165  24.274  13.831
53558W        W18785  29.552   5.409  12.988
53559W        W18786   5.114  20.188   1.587
53560W        W18787  11.378  44.812  12.398
53561W        W18788  23.859   9.612   3.890
53562W        W18789  16.693   5.322   1.959
53563W        W18790  37.495  16.810   1.422
53564W        W18791  21.995  32.610  11.986
53565W        W18792  30.982  20.755  10.968
53566W        W18793  30.680  21.456  14.009
53567W        W18794   5.036  18.036   4.239
53568W        W18795  29.104   4.382   0.136
53569W        W18796  23.259  29.429   4.914
53570W        W18797  20.592  38.805  13.522
53571W        W18798  17.253   0.925   4.571
53572W        W18799  20.357   2.160  14.209
53573W        W18800  24.771   4.220   2.453
53574W        W18801  28.185  35.668  13.901
53575W        W18802   8.271   1.549   1.780
53576W        W18803  37.411  31.053   4.292
53577W        W18804   2.411  20.540   1.884
53578W        W18805  30.623  20.187   4.005
53579W        W18806  23.704  11.128  13.424
53580W        W18807   4.652  31.054  10.689
53581W        W18808  25.471  31.825   4.499
53582W        W18809   3.045  30.023   2.598
53583W        W18810  18.753  23.209  11.862
53584W        W18811  10.938  33.918  10.095
53585W        W18812  12.768  30.063  10.701
53586W        W18813  39.058   1.999  13.862
53587W        W18814  13.752  40.093   0.493
53588W        W18815  11.604  39.240   5.233
53589W        W18816  22.544  17.194  14.842
53590W        W18817  41.344   9.930  12.827
53591W        W18818  35.573  25.271  13.400
53592W        W18819  12.608  29.322   4.114
53593W        W18820  16.809  19.485   0.273
53594W        W18821  34.174   4.430  12.566
53595W        W18822  30.667  13.592   2.389
53596W        W18823  18.501  19.241  13.286
53597W        W18824  13.657  44.048  11.403
53598W        W18825  43.299   3.733   1.737
53599W        W18826   9.155   3.051   2.720
53600W        W18827  16.178  42.086  10.789
53601W        W18828  24.520  28.572  10.681
53602W        W18829   9.173   0.604   3.783
53603W        W18830  15.696   4.397   4.696
53604W        W18831  14.697  29.357  11.260
53605W        W18832  37.369  39.920  11.300
53606W        W18833  23.187  26.532   1.209
53607W        W18834  19.066  14.089  14.746
53608W        W18835   5.198  32.703   2.543
53609W        W18836  10.368  15.989  11.721
53610W        W18837  43.742  26.505   1.700
53611W        W18838  26.083  10.683  14.220
53612W        W18839  41.498  30.486   1.684
53613W        W18840   1.827  37.032   2.146
53614W        W18841  39.334  38.040  11.341
53615W        W18842  29.454  29.372  11.468
53616W        W18843  18.615  16.676  10.532
53617W        W18844  38.560  22.533  12.966
53618W        W18845  14.999   9.748  11.444
53619W        W18846  43.734  37.016  11.196
53620W        W18847  36.467   9.658  11.873
53621W        W18848  43.565  30.767  12.425
53622W        W18849  10.568  16.117   2.348
53623W        W18850  27.776  30.689   0.045
53624W        W18851  22.541   4.999   4.969
53625W        W18852   3.032   0.395   2.793
53626W        W18853   3.207   3.316  10.508
53627W        W18854  33.650  14.327   0.445
53628W        W18855   0.343  40.088   0.209
53629W        W18856   5.483   0.054   4.249
53630W        W18857   5.591  27.157   0.935
53631W        W18858  32.393  16.767   4.038
53632W        W18859  17.350   4.429   2.298
53633W        W18860  23.701  10.562   1.876
53634W        W18861  37.013  28.447   3.720
53635W        W18862  14.097  26.980   4.305
53636W        W18863  24.161  10.068  14.283
53637W        W18864  27.986  30.153   0.803
53638W        W18865  41.299  42.170   1.388
53639W        W18866  21.170   7.095   3.205
53640W        W18867  34.418  44.466   0.638
53641W        W18868   0.192  11.747  13.967
53642W        W18869  39.322  24.657  14.135
53643W        W18870   2.969  15.737   1.443
53644W        W18871  29.451  19.681   4.973
53645W        W18872  43.967  43.432   4.176
53646W        W18873  39.983  39.835   1.332
53647W        W18874  30.226   8.849   2.314
53648W        W18875  22.270  43.147  12.531
53649W        W18876  28.626  29.876  12.636
53650W        W18877  18.333  12.023   2.456
53651W        W18878  38.499  34.434  11.569
53652W        W18879  14.322  33.146  13.560
53653W        W18880  15.042  29.100  11.607
53654W        W18881  25.237  42.424   1.272
53655W        W18882   7.136   5.646  13.090
53656W        W18883   0.276   5.298   2.619
53657W        W18884  25.821  31.395   3.743
53658W        W18885  10.682  13.132   3.727
53659W        W18886  13.972   6.816  12.224
53660W        W18887  35.453  10.008  12.810
53661W        W18888  18.754  24.065  13.813
53662W        W18889  43.255   4.042  13.627
53663W        W18890  31.486  23.214   1.844
53664W        W18891  22.078   1.441   0.808
53665W        W18892   7.299  34.332  11.986
53666W        W18893  34.821  41.371  12.999
53667W        W18894  31.872  32.829  10.693
53668W        W18895  42.805  39.739  14.515
53669W        W18896  14.325   4.725   0.779
53670W        W18897  25.252   9.518  10.227
53671W        W18898  26.397  15.801   3.178
53672W        W18899  31.426  29.470  10.660
53673W        W18900   5.214  33.925  12.641
53674W        W18901  20.136  17.479  14.870
53675W        W18902  10.244  23.216   3.357
53676W        W18903   5.182  40.330  12.454
53677W        W18904   9.426  32.853   0.248
53678W        W18905  24.004  29.623   1.942
53679W        W18906  31.866  14.302  12.488
53680W        W18907  32.863  35.800   4.649
53681W        W18908  39.688  28.433  14.395
53682W        W18909  42.764  44.983   4.203
53683W        W18910   7.244   9.231   4.509
53684W        W18911  14.169  22.394   0.641
53685W        W18912  21.441  40.458  10.994
53686W        W18913  20.751  32.448   4.180
53687W        W18914  15.359  39.859  10.943
53688W        W18915  13.101  40.593  12.920
53689W        W18916  40.380  40.142   1.475
53690W        W18917   4.841   8.160  13.994
53691W        W18918  27.132  13.275   2.952
53692W        W18919  18.179   0.319   2.112
53693W        W18920  23.756  17.583   2.027
53694W        W18921  19.346   8.689  12.426
53695W        W18922  29.407   4.466  10.360
53696W        W18923   9.228  34.665  12.995
53697W        W18924  12.088  20.801  14.481
53698W        W18925  15.156   6.844  14.499
53699W        W18926   5.254  28.692  13.322
53700W        W18927  42.935  44.934  14.260
53701W        W18928  41.562  11.593  12.959
53702W        W18929  12.376  13.625  13.508
53703W        W18930   0.388  33.639   2.528
53704W        W18931  41.452  10.645  14.852
53705W        W18932   3.660  14.382   3.296
53706W        W18933  18.195  14.601   0.860
53707W        W18934  10.243  22.458  14.821
53708W        W18935   5.617  43.495  14.083
53709W        W18936   4.858   3.947  13.345
53710W        W18937  35.683  15.705   0.433
53711W        W18938  32.544  17.681   5.536
53712W        W18939  21.587  34.532  12.118
53713W        W18940  42.059   2.229  10.797
53714W        W18941  12.131   8.368   1.426
53715W        W18942   6.369   7.353  12.552
53716W        W18943   8.635   8.146   1.287
53717W        W18944  15.290   3.677   1.888
53718W        W18945  33.210  11.810   1.877
53719W        W18946  21.235   9.087  13.427
53720W        W18947  10.706  33.544   1.932
53721W        W18948  30.050  31.221   0.092
53722W        W18949  13.873  31.421  11.126
53723W        W18950  30.296  21.171   5.053
53724W        W18951  20.654  11.639   4.760
53725W        W18952  34.910  36.043   3.629
53726W        W18953  40.603  29.443  14.761
53727W        W18954  29.426  22.199  11.543
53728W        W18955  33.417   5.146   2.700
53729W        W18956  23.687  17.235  12.593
53730W        W18957  32.714  29.796   0.866
53731W        W18958  24.740  27.430   1.394
53732W        W18959   0.212  36.316  11.654
53733W        W18960  40.667  30.157   1.494
53734W        W18961  21.020   2.330  13.642
53735W        W18962  40.613  37.860  14.258
53736W        W18963  20.324  43.731  11.549
53737W        W18964  40.152   0.791   1.673
53738W        W18965  22.423  19.386  14.480
53739W        W18966   3.203  16.721   0.253
53740W        W18967  20.694  35.430  10.774
53741W        W18968   4.327  10.110   1.307
53742W        W18969  42.826  11.842   0.299
53743W        W18970  23.919  37.418   4.144
53744W        W18971  12.190  28.658  11.088
53745W        W18972  39.170   1.775   0.179
53746W        W18973  12.684  36.009   4.053
53747W        W18974  42.808  29.926  10.329
53748W        W18975  28.480  28.511  12.834
53749W        W18976  18.482  19.603  11.739
53750W        W18977  35.725  19.752  13.280
53751W        W18978   5.906  26.482   2.336
53752W        W18979  22.969  28.641  13.465
53753W        W18980   7.758  36.725  10.707
53754W        W18981  35.227  29.999   4.755
53755W        W18982  22.492  38.524  14.966
53756W        W18983  19.510   4.465   2.634
53757W        W18984  21.533   3.930  14.817
53758W        W18985  34.385  16.198  12.825
53759W        W18986   6.835  33.708   2.275
53760W        W18987  42.892   3.173  11.552
53761W        W18988   1.964  41.332  10.355
53762W        W18989  25.028  29.187  12.926
53763W        W18990  12.114  31.403   4.102
53764W        W18991   5.264  18.598   0.862
53765W        W18992   2.775  44.275   0.427
53766W        W18993  35.063  16.013   2.440
53767W        W18994  25.181  41.539   4.705
53768W        W18995  28.069  32.518   4.494
53769W        W18996   6.377  25.733  10.830
53770W        W18997   2.828   5.670  12.861
53771W        W18998  26.003   6.245   1.375
53772W        W18999  39.234  11.622  13.430
53773W        W19000  35.947  40.156   1.622
53774W        W19001  24.038  31.984  10.683
53775W        W19002  43.528   1.807   1.988
53776W        W19003  16.815  36.485   0.845
53777W        W19004  22.190   0.193  14.272
53778W        W19005  42.513  38.916   1.623
53779W        W19006  13.963  38.268  10.860
53780W        W19007  17.202  35.795   4.134
53781W        W19008  12.831   5.280   4.361
53782W        W19009  44.680  34.997  11.559
53783W        W19010   7.467  35.527  12.494
53784W        W19011  41.912   4.733  10.682
53785W        W19012  14.729  42.439   2.892
53786W        W19013   0.333  14.139  14.115
53787W        W19014  28.581   3.246  12.351
53788W        W19015  40.290  36.577   1.787
53789W        W19016   7.863  19.239   5.024
53790W        W19017  39.353  31.418  14.526
53791W        W19018  23.709  17.154  13.165
53792W        W19019  22.155  35.707  13.566
53793W        W19020  41.566  37.438   3.755
53794W        W19021  27.541  32.075   2.986
53795W        W19022  21.382  22.508   3.949
53796W        W19023   4.697  14.296   4.884
53797W        W19024  35.498   4.907  11.379
53798W        W19025  33.336   5.823  14.637
53799W        W19026  21.434  28.376  11.868
53800W        W19027   6.388  11.934  13.098
53801W        W19028  43.335  10.279  11.383
53802W        W19029  22.978  42.257   4.993
53803W        W19030  40.254   9.094   1.846
53804W        W19031  11.706  14.822  10.620
53805W        W19032  30.449   4.293  11.265
53806W        W19033  32.483  38.596  13.069
53807W        W19034  42.926  33.376   2.114
53808W        W19035  30.474   7.546   3.095
53809W        W19036   0.474   8.487  14.785
53810W        W19037  33.039  24.921   4.553
53811W        W19038  24.423   3.006   2.300
53812W        W19039   5.921  17.824   4.201
53813W        W19040  11.536  10.310   4.322
53814W        W19041  41.374   1.465  11.241
53815W        W19042  12.248  17.250   0.749
53816W        W19043   5.815   3.233  11.012
53817W        W19044  14.631   1.323  14.504
53818W        W19045   5.796   5.709   2.697
53819W        W19046  33.948  36.854  12.050
53820W        W19047  27.154  23.372  11.190
53821W        W19048   4.170  20.536  10.680
53822W        W19049  27.886   5.496   1.523
53823W        W19050   9.963  26.701   4.201
53824W        W19051  23.231  18.537   4.776
53825W        W19052  28.438  29.443  12.452
53826W        W19053   0.377  20.362  13.904
53827W        W19054  16.350  34.348   2.589
53828W        W19055  28.676  27.157   3.088
53829W        W19056  17.692  35.530   2.674
53830W        W19057  40.057  13.563   2.256
53831W        W19058   7.021  16.726   2.350
53832W        W19059  20.773  11.944  13.407
53833W        W19060  34.870  10.233   2.929
53834W        W19061  10.898  33.446   2.827
53835W        W19062  38.663   1.040  12.052
53836W        W19063  40.276  33.594   0.290
53837W        W19064  25.449  30.478   3.296
53838W        W19065  20.087   0.503  14.022
53839W        W19066  13.576  14.880   1.888
53840W        W19067  26.538  31.346  10.321
53841W        W19068  41.990  24.520   3.712
53842W        W19069  43.204  19.922  14.941
53843W        W19070  33.658  30.285   1.253
53844W        W19071  42.987  24.721   1.727
53845W        W19072  30.535   8.021  10.551
53846W        W19073  25.232  28.389   0.724
53847W        W19074  35.973  14.118   2.457
53848W        W19075   7.794   4.022  12.612
53849W        W19076  43.864  29.421  14.824
53850W        W19077  11.796  13.561   2.315
53851W        W19078  35.411  14.354  14.876
53852W        W19079  18.785   0.926  12.080
53853W        W19080  18.798  22.281   0.794
53854W        W19081  12.958  24.296   1.890
53855W        W19082   3.463  41.403  14.616
53856W        W19083  41.499  23.082   4.094
53857W        W19084  17.126   7.765  13.435
53858W        W19085  41.833  27.399   4.463
53859W        W19086  10.783  20.332   0.987
53860W        W19087  16.575  37.491   0.758
53861W        W19088  37.756  16.598   2.843
53862W        W19089  37.517   7.075   3.916
53863W        W19090  15.052  12.378  10.465
53864W        W19091   7.650  30.032   0.866
53865W        W19092  37.582  28.110   4.108
53866W        W19093  37.313   9.623   0.387
53867W        W19094  37.599  21.674  11.340
53868W        W19095  33.638   8.373  11.678
53869W        W19096  17.355   4.653  12.990
53870W        W19097  22.167   6.909  14.922
53871W        W19098  36.960  11.575  12.424
53872W        W19099  13.325  37.285   0.863
53873W        W19100   2.468  34.041   3.532
53874W        W19101   8.820   9.193   3.402
53875W        W19102   1.630  20.997   1.749
53876W        W19103   9.381   0.433   0.659
53877W        W19104  43.050  37.152   3.799
53878W        W19105  13.398  13.080   1.255
53879W        W19106  19.497  35.617   1.950
53880W        W19107  36.382  41.859   3.352
53881W        W19108  28.480  19.163   2.066
53882W        W19109   6.585  35.568   2.729
53883W        W19110  24.787  19.632  11.377
53884W        W19111  36.452   0.038   0.508
53885W        W19112  27.015  40.643  11.664
53886W        W19113  15.838  33.576  10.599
53887W        W19114  23.226   0.509   2.152
53888W        W19115  36.497  38.071   3.272
53889W        W19116   8.892  22.624   0.234
53890W        W19117  29.599  42.710   1.474
53891W        W19118  24.008  27.496   0.263
53892W        W19119  15.004  11.902  12.098
53893W        W19120  12.311  40.351  10.539
53894W        W19121  30.219  22.247  13.208
53895W        W19122   6.489  44.893  13.797
53896W        W19123   8.868  12.610  13.510
53897W        W19124   4.228  43.108  13.501
53898W        W19125   9.638  10.094  13.850
53899W        W19126  42.569  28.132  14.476
53900W        W19127   3.450  28.535  14.657
53901W        W19128  32.618  28.952   1.362
53902W        W19129  43.248   5.762   1.285
53903W        W19130  24.491  34.852  13.766
53904W        W19131  42.576  44.398  11.555
53905W        W19132   5.185  17.122   4.413
53906W        W19133   1.725   4.828  13.378
53907W        W19134  35.340  12.402  11.112
53908W        W19135  28.269  44.049   4.687
53909W        W19136  41.910  16.546   1.353
53910W        W19137   9.487  17.692  13.304
53911W        W19138  34.119  32.695   1.596
53912W        W19139  33.332  17.732  12.946
53913W        W19140  41.988   7.447   1.160
53914W        W19141   9.654  43.082  12.423
53915W        W19142  17.011   3.490  13.567
53916W        W19143  36.501  42.710  10.581
53917W        W19144  26.934  22.958  14.936
53918W        W19145  20.138   9.569  11.737
53919W        W19146  26.421  16.834   0.827
53920W        W19147  39.136  31.096  12.446
53921W        W19148  29.428  42.735   2.747
53922W        W19149  37.520  41.492   3.656
53923W        W19150  15.854   7.754   2.703
53924W        W19151  30.561  17.442   2.133
53925W        W19152  16.481  44.026   1.785
53926W        W19153  35.529  16.715  14.036
53927W        W19154   5.766  15.648  10.122
53928W        W19155   7.477  15.809   0.015
53929W        W19156  38.258  23.054   3.166
53930W        W19157  11.233  19.443  11.115
53931W        W19158  37.864  18.606  12.603
53932W        W19159  10.605   1.469  13.012
53933W        W19160   5.528  33.852  13.085
53934W        W19161  30.121  23.586  11.076
53935W        W19162  21.019  34.194  11.673
53936W        W19163  38.691   8.063   3.409
53937W        W19164  22.997  39.070  10.657
53938W        W19165   2.782  33.765  11.048
53939W        W19166  13.233   6.283   3.389
53940W        W19167  38.919  39.641   0.773
53941W        W19168   2.397   2.955  12.463
53942W        W19169  35.520  26.203  13.524
53943W        W19170   7.153  36.594   2.286
53944W        W19171  28.441  30.421   0.781
53945W        W19172   9.432  42.940   1.021
53946W        W19173  42.969  43.327  10.751
53947W        W19174  16.349  41.798   4.101
53948W        W19175   9.883  41.244   1.844
53949W        W19176   3.364  36.597  11.130
53950W        W19177  14.708  41.307  13.283
53951W        W19178  40.943  19.868  13.762
53952W        W19179  34.124   7.392   3.360
53953W        W19180  25.664  34.085   2.375
53954W        W19181  38.923  19.194  11.119
53955W        W19182  24.941  19.556   0.391
53956W        W19183  25.845  16.791  14.933
53957W        W19184   9.616   8.242  11.553
53958W        W19185  20.483  36.866  12.597
53959W        W19186  20.738  13.139   3.695
53960W        W19187  33.856  16.823  13.433
53961W        W19188   0.655  22.751  13.941
53962W        W19189  17.247  43.858   3.611
53963W        W19190  19.311  17.199   2.715
53964W        W19191  22.959  39.399   4.545
53965W        W19192   3.980  10.142  14.819
53966W        W19193   3.082  19.637  10.860
53967W        W19194  40.905  34.152  14.989
53968W        W19195  20.694   1.442  13.327
53969W        W19196  24.723   4.825  10.915
53970W        W19197  25.565   9.859  12.521
53971W        W19198  17.214  19.335  11.636
53972W        W19199  23.970  27.224   3.286
53973W        W19200  19.017  30.607  11.889
53974W        W19201  12.080  23.239   0.762
53975W        W19202   1.834  31.821   0.898
53976W        W19203  38.152   8.000  12.640
53977W        W19204   3.901  43.859  14.473
53978W        W19205  13.234  22.327   1.051
53979W        W19206   2.790   7.907  13.423
53980W        W19207  32.334   1.447   5.179
53981W        W19208  15.819  42.999  13.055
53982W        W19209  34.999  30.489   1.862
53983W        W19210   9.352  30.604  14.469
53984W        W19211  21.773  24.611   0.810
53985W        W19212  10.228   1.479   0.738
53986W        W19213   7.988  37.053   1.437
53987W        W19214  15.355  26.326   2.383
53988W        W19215  28.613  39.602  14.104
53989W        W19216  20.701  20.210  13.526
53990W        W19217  26.674   0.266  11.161
53991W        W19218  16.348  34.797  12.699
53992W        W19219  24.145  13.334   4.013
53993W        W19220  29.973  19.603   0.905
53994W        W19221  39.061  14.569   4.945
53995W        W19222  14.242  18.127   4.235
53996W        W19223  43.980  28.654  12.750
53997W        W19224  22.657  34.116   4.260
53998W        W19225  20.152  19.472   1.893
53999W        W19226   7.000  27.599   3.608
54000W        W19227   7.097  29.946  11.221
54001W        W19228  10.878   6.818   0.396
54002W        W19229  22.494   7.369  14.505
54003W        W19230  36.934   3.005  13.565
54004W        W19231  22.049  23.918  12.207
54005W        W19232  28.992   9.681  10.690
54006W        W19233  42.816   1.459   1.124
54007W        W19234  24.150   2.754   3.285
54008W        W19235  15.753  42.528  11.820
54009W        W19236  28.509  37.020  11.985
54010W        W19237   4.757  36.511  13.482
54011W        W19238   6.328   5.168   4.890
54012W        W19239  31.209  43.242  11.067
54013W        W19240  37.112  13.154   1.407
54014W        W19241   1.419  31.081  13.318
54015W        W19242  27.573  41.264   1.731
54016W        W19243  27.513  19.257   0.032
54017W        W19244  36.687   3.368   2.213
54018W        W19245   0.370  25.485   3.911
54019W        W19246  22.124  28.147  14.277
54020W        W19247   4.591  28.440   2.761
54021W        W19248  13.651   4.686  10.320
54022W        W19249  11.330  40.612  11.257
54023W        W19250  22.012  19.960  13.884
54024W        W19251   6.724  15.797   0.496
54025W        W19252   2.914  40.470   4.601
54026W        W19253  37.876   0.770  10.898
54027W        W19254   2.795   3.733  13.019
54028W        W19255  40.747  35.497  14.880
54029W        W19256  26.736  20.530   0.760
54030W        W19257  34.635  13.730   3.121
54031W        W19258  12.825  33.829   0.428
54032W        W19259  43.020   5.357  14.396
54033W        W19260  11.890  20.606   0.899
54034W        W19261  44.433   9.995   9.778
54035W        W19262  31.761   2.654   1.439
54036W        W19263  21.725  28.262   1.212
54037W        W19264  30.149  26.051  13.051
54038W        W19265  42.914  44.487   0.520
54039W        W19266  32.706  28.447   4.105
54040W        W19267  32.427  11.790   2.305
54041W        W19268  20.946  25.681   0.515
54042W        W19269  12.127   6.922   3.866
54043W        W19270   2.882  41.526  14.423
54044W        W19271   4.436  21.092   0.290
54045W        W19272  28.497  32.472   4.782
54046W        W19273  26.397  38.945  13.334
54047W        W19274  16.865   4.114  14.291
54048W        W19275   3.472   1.080   9.890
54049W        W19276  26.145  16.203   4.714
54050W        W19277  34.728  39.445  11.062
54051W        W19278  39.911  43.442  14.943
54052W        W19279  31.692  41.464  11.103
54053W        W19280  40.628  15.541  11.282
54054W        W19281   5.250  32.333   2.138
54055W        W19282  17.659  28.402   4.340
54056W        W19283  26.649  14.920  10.783
54057W        W19284   7.610   5.709   1.278
54058W        W19285  39.219  24.350   4.126
54059W        W19286  11.845  31.495   4.536
54060W        W19287  33.322   8.575   2.254
54061W        W19288   6.703  44.120  13.030
54062W        W19289  19.866  24.586  14.466
54063W        W19290  36.130  23.393  13.295
54064W        W19291  20.788  18.037  13.787
54065W        W19292  41.512  42.479   2.707
54066W        W19293  36.550  17.841   2.387
54067W        W19294   6.159   8.863   2.381
54068W        W19295  18.784   7.002   1.642
54069W        W19296  29.084  20.666  11.643
54070W        W19297  14.231  40.143  14.728
54071W        W19298   2.294  19.620  12.335
54072W        W19299   5.648   4.609  12.430
54073W        W19300  29.448  44.768  14.285
54074W        W19301  38.689  24.234   4.174
54075W        W19302  22.782  34.802  14.048
54076W        W19303  33.648   0.278   0.948
54077W        W19304   1.793  34.577  12.354
54078W        W19305  10.265  17.674   1.655
54079W        W19306  10.641   6.338   0.322
54080W        W19307  15.553  10.738  13.272
54081W        W19308   3.479   1.614  11.055
54082W        W19309   6.280  20.206   0.183
54083W        W19310   1.963  36.622  12.410
54084W        W19311  18.992  22.495  10.808
54085W        W19312  35.915   4.614  11.178
54086W        W19313  34.839  33.255   1.200
54087W        W19314  41.162  34.479   2.789
54088W        W19315  21.731  14.316   0.259
54089W        W19316  19.970   9.954  14.256
54090W        W19317   2.678  11.398   0.509
54091W        W19318  37.895  20.557   2.847
54092W        W19319  38.620   6.237   1.628
54093W        W19320  34.119  17.942  11.538
54094W        W19321  10.599  40.473   1.652
54095W        W19322   6.856   3.589  14.269
54096W        W19323   4.446  36.266   1.304
54097W        W19324  30.268  33.915   3.243
54098W        W19325  30.073  30.187   3.880
54099W        W19326  12.991   5.884  13.836
54100W        W19327   6.922  21.463  13.381
54101W        W19328   2.755  42.029   5.253
54102W        W19329  43.500   3.460   2.953
54103W        W19330   3.792  30.472   1.260
54104W        W19331  16.070  42.488   2.865
54105W        W19332  14.618  40.586  13.845
54106W        W19333  36.909  31.086   1.294
54107W        W19334  20.715  13.645  13.939
54108W        W19335   6.022   6.427   0.485
54109W        W19336   0.491  28.565  14.925
54110W        W19337  17.536   5.433  11.462
54111W        W19338   5.568  43.899   2.441
54112W        W19339  13.442   7.825   1.360
54113W        W19340  25.929   2.842  10.608
54114W        W19341  22.766  16.281   2.836
54115W        W19342  15.065  23.428   1.944
54116W        W19343  31.392  32.952  10.860
54117W        W19344  12.767  24.989   0.894
54118W        W19345  38.742  26.522  13.658
54119W        W19346  37.776  18.034   2.691
54120W        W19347  17.437  33.600   2.325
54121W        W19348  43.408  38.701  12.475
54122W        W19349  42.395  18.281  14.981
54123W        W19350  21.984   4.520  10.675
54124W        W19351  39.832  28.667   4.683
54125W        W19352  42.030  14.288   4.597
54126W        W19353  22.599  23.664   3.240
54127W        W19354  43.212  30.503   4.052
54128W        W19355  33.753  22.039  14.077
54129W        W19356  37.648  32.875  14.915
54130W        W19357  31.958  31.433  13.798
54131W        W19358   1.991  43.934   0.393
54132W        W19359  17.801  32.955   3.658
54133W        W19360  44.213  18.669   9.901
54134W        W19361  21.849  29.468   2.403
54135W        W19362  38.966  37.014   1.000
54136W        W19363   3.834  36.394  10.839
54137W        W19364  12.305  34.106  12.948
54138W        W19365   7.730  36.575   4.282
54139W        W19366  32.522  20.262  14.213
54140W        W19367  28.540  36.095  11.239
54141W        W19368  17.584  39.998   0.778
54142W        W19369  36.404  40.831   3.019
54143W        W19370   9.745  30.346   1.310
54144W        W19371   0.938  27.872   0.499
54145W        W19372  38.192  33.080   2.672
54146W        W19373  39.209   9.928   0.848
54147W        W19374  14.549  44.727  11.302
54148W        W19375  19.603   0.027   1.808
54149W        W19376  18.566  15.586   3.735
54150W        W19377  23.624  25.487   0.396
54151W        W19378  37.684  12.570   0.124
54152W        W19379  25.667  11.382  13.383
54153W        W19380  42.986  24.284   3.659
54154W        W19381  41.256  18.329  11.988
54155W        W19382  36.911  44.038   2.638
54156W        W19383   5.050   1.810   3.639
54157W        W19384  21.580  30.012  11.224
54158W        W19385  32.890   9.402   2.450
54159W        W19386  20.078  38.063  12.475
54160W        W19387  28.168  32.028  13.247
54161W        W19388   4.948  21.852  14.799
54162W        W19389  26.078  36.067   2.128
54163W        W19390  44.224  20.435  11.922
54164W        W19391  10.713  21.520   1.536
54165W        W19392  20.479   0.868  10.223
54166W        W19393  41.349  39.925   3.704
54167W        W19394  27.808  23.192  14.514
54168W        W19395  25.899  28.174   3.613
54169W        W19396  10.472  31.486  12.136
54170W        W19397  18.784  23.297   0.902
54171W        W19398  24.960  44.809   0.262
54172W        W19399   5.380  20.034  12.115
54173W        W19400  27.288  39.426   2.753
54174W        W19401  39.221  11.457   3.270
54175W        W19402  41.548  42.245  11.119
54176W        W19403  20.600  33.833  10.547
54177W        W19404   2.879   1.462  14.818
54178W        W19405   1.253  11.298  13.501
54179W        W19406  26.385  38.472  14.757
54180W        W19407  31.663  34.506   4.197
54181W        W19408  23.667  10.715  11.991
54182W        W19409  36.912  23.087  10.563
54183W        W19410  21.559   1.328  10.355
54184W        W19411  17.550   0.874  12.907
54185W        W19412  11.368  38.384  11.228
54186W        W19413  10.475  25.905   2.883
54187W        W19414   1.816  40.687   4.610
54188W        W19415  13.648  26.063  12.047
54189W        W19416  25.470  18.364   0.770
54190W        W19417  43.604  30.292  11.288
54191W        W19418  19.100  18.272  11.394
54192W        W19419  10.903  28.661  14.878
54193W        W19420  41.334  12.551   4.505
54194W        W19421  29.390  27.770   3.126
54195W        W19422  41.357  40.951   3.608
54196W        W19423  20.630  11.219   3.403
54197W        W19424  23.225  20.290  13.464
54198W        W19425  20.073  33.092  10.661
54199W        W19426   7.576  14.448   1.249
54200W        W19427  41.845   5.595   3.221
54201W        W19428  27.525  33.961   3.776
54202W        W19429  25.915  27.143   0.089
54203W        W19430   7.423  18.747   2.871
54204W        W19431  22.423  13.808   2.603
54205W        W19432  44.345  32.784  12.042
54206W        W19433  40.957  13.316  12.861
54207W        W19434  43.898  44.482  13.058
54208W        W19435   9.624  34.944   1.761
54209W        W19436  36.905  29.364  13.435
54210W        W19437   3.389   9.125  12.734
54211W        W19438  41.623  37.726  14.165
54212W        W19439   8.722  42.866   1.166
54213W        W19440   8.263  10.208  11.929
54214W        W19441  28.379  23.167   0.854
54215W        W19442  15.416   9.577   4.011
54216W        W19443  44.335   6.221  12.975
54217W        W19444   1.056  10.857  12.150
54218W        W19445   1.194  21.323   4.533
54219W        W19446  30.900   6.285   3.028
54220W        W19447   6.130  38.281   4.537
54221W        W19448   3.763  33.870   3.637
54222W        W19449  37.752   3.438   2.095
54223W        W19450  20.182  14.326  12.662
54224W        W19451  24.385  26.615   1.495
54225W        W19452  42.924  13.838  14.512
54226W        W19453  11.549  41.907   2.260
54227W        W19454  28.461   4.443  13.030
54228W        W19455  26.275  18.068   0.282
54229W        W19456   9.136   8.906  14.290
54230W        W19457  44.437  16.403  13.977
54231W        W19458  29.682   6.349  12.941
54232W        W19459  27.150   6.679  11.612
54233W        W19460  43.808  16.261   1.200
54234W        W19461   6.998  27.199  13.584
54235W        W19462  18.429  39.543   2.375
54236W        W19463   6.222  14.579   1.823
54237W        W19464  34.393  23.133   3.577
54238W        W19465  30.364  15.146   2.299
54239W        W19466  35.840  28.154   4.724
54240W        W19467  41.867  39.139   3.995
54241W        W19468  15.595  34.559   5.105
54242W        W19469  33.317  23.688   3.534
54243W        W19470   8.732  16.920  11.318
54244W        W19471  31.118   0.964   0.817
54245W        W19472  26.003  22.273  12.374
54246W        W19473  23.746  10.471  12.446
54247W        W19474  32.212  34.083  14.428
54248W        W19475   6.613   7.704  12.875
54249W        W19476   3.291  23.689  13.750
54250W        W19477   8.096   7.048   4.127
54251W        W19478  20.971   5.453   1.754
54252W        W19479  15.572  33.009   2.348
54253W        W19480  18.030  19.804  11.543
54254W        W19481  35.868  18.421  12.634
54255W        W19482  18.547   6.775   3.654
54256W        W19483  28.246   8.914   1.473
54257W        W19484   5.389  41.318  12.585
54258W        W19485   5.467  44.788  10.879
54259W        W19486   2.361  39.087   2.878
54260W        W19487  32.871  38.098  13.266
54261W        W19488  29.868  27.927   1.306
54262W        W19489   0.143  21.729   2.342
54263W        W19490  36.632  16.113   1.984
54264W        W19491  17.734  29.627   0.724
54265W        W19492  13.332  42.484  12.920
54266W        W19493   6.745   8.422  11.669
54267W        W19494  14.792   3.721   1.747
54268W        W19495  33.891  44.324  14.495
54269W        W19496  20.810  13.637   3.730
54270W        W19497  10.696   3.036   0.464
54271W        W19498  41.889  26.242   0.031
54272W        W19499   8.446  11.434   3.358
54273W        W19500  18.771  36.019   4.666
54274W        W19501  40.600  14.248   2.747
54275W        W19502  44.158  11.382   4.095
54276W        W19503  22.491  23.254  14.809
54277W        W19504  33.362  39.139   4.036
54278W        W19505  23.333  34.751  12.527
54279W        W19506  43.218  20.747  12.581
54280W        W19507  30.499  34.268   4.673
54281W        W19508  33.424  36.799  12.068
54282W        W19509  13.317  28.255  14.385
54283W        W19510  11.283  16.898   0.436
54284W        W19511   0.965   8.658   0.115
54285W        W19512  11.410  24.752   1.265
54286W        W19513  30.266  22.680  11.553
54287W        W19514   3.728  42.183  10.541
54288W        W19515  41.761  38.217  10.986
54289W        W19516   9.435  23.226  14.928
54290W        W19517  29.969  16.261   0.502
54291W        W19518  18.888  23.047   2.752
54292W        W19519  20.448  22.151  11.680
54293W        W19520   7.317   3.741   3.870
54294W        W19521   5.031  28.470   0.459
54295W        W19522  13.988  18.169  14.351
54296W        W19523  22.325  21.831  13.399
54297W        W19524  25.433  31.722  12.909
54298W        W19525  17.125  22.584   3.302
54299W        W19526  38.312  44.318  10.704
54300W        W19527  36.810  33.851  11.179
54301W        W19528  20.640   0.624   0.275
54302W        W19529  32.643  27.262   2.350
54303W        W19530  35.474   7.752   4.686
54304W        W19531  25.170  34.054   3.343
54305W        W19532  21.293  25.178  10.701
54306W        W19533  26.219  42.236   1.243
54307W        W19534  34.286  31.490  14.875
54308W        W19535  41.021  40.557   2.690
54309W        W19536  17.305  24.648   2.661
54310W        W19537   6.308  42.239   1.784
54311W        W19538  35.486  28.561   3.124
54312W        W19539  13.095  15.750  11.504
54313W        W19540  31.041   9.058   4.326
54314W        W19541  43.482  35.551   3.308
54315W        W19542  13.041  26.515  11.264
54316W        W19543  35.406   4.630   0.879
54317W        W19544  20.860  20.340   2.661
54318W        W19545   6.183  33.156   2.885
54319W        W19546  25.112  15.258   1.010
54320W        W19547  23.317   3.739   2.200
54321W        W19548   3.723  32.936  14.782
54322W        W19549  36.723  40.360   3.462
54323W        W19550   5.264  10.905  14.031
54324W        W19551  16.755  35.597  10.996
54325W        W19552   6.268  31.270   0.467
54326W        W19553   5.467  31.431  13.175
54327W        W19554  41.374  17.636   0.250
54328W        W19555  27.747  23.790   3.598
54329W        W19556  21.582  38.158   4.222
54330W        W19557  34.336  27.987  12.761
54331W        W19558  24.006  11.365  13.793
54332W        W19559  41.740  41.528   1.874
54333W        W19560  10.969  40.429  11.611
54334W        W19561  41.348   3.432  12.883
54335W        W19562  18.600  34.912   3.171
54336W        W19563  38.432  11.841   0.750
54337W        W19564   2.187  33.321  10.012
54338W        W19565  13.210  13.336  11.595
54339W        W19566  11.121  22.045  12.653
54340W        W19567  27.281  15.313   2.764
54341W        W19568  17.059  23.254   1.293
54342W        W19569  16.077   5.515   2.735
54343W        W19570  29.684   5.249  10.954
54344W        W19571   4.517  16.288   2.842
54345W        W19572  43.948  27.394  14.976
54346W        W19573  15.227  18.213   1.732
54347W        W19574   7.934  29.419   0.149
54348W        W19575  37.542  34.622  11.925
54349W        W19576  29.652  20.215   4.097
54350W        W19577  10.452  21.092  10.200
54351W        W19578   0.712  42.300   1.275
54352W        W19579  24.472  25.466  14.358
54353W        W19580  27.457   8.692   3.624
54354W        W19581  24.170  17.920  12.632
54355W        W19582  27.015  33.393  14.005
54356W        W19583   9.379  27.402   1.871
54357W        W19584  43.207   1.418  14.807
54358W        W19585  34.369  44.724   3.417
54359W        W19586  36.003   7.318  10.306
54360W        W19587  36.564  20.003  10.923
54361W        W19588  21.055   6.704   1.735
54362W        W19589  39.840  31.776   0.259
54363W        W19590   2.961  23.850   1.241
54364W        W19591   6.601  43.704   4.143
54365W        W19592  24.686  32.624   0.840
54366W        W19593  35.386  43.839   1.800
54367W        W19594  24.723  34.109   1.489
54368W        W19595  42.643   8.784   4.616
54369W        W19596  18.862  41.432   4.581
54370W        W19597  37.542   0.519  14.817
54371W        W19598   4.944  25.232  12.978
54372W        W19599  14.875  40.696   4.532
54373W        W19600  38.529   4.335   1.874
54374W        W19601  32.059  11.696  13.825
54375W        W19602  11.484  10.073   2.917
54376W        W19603  39.887  30.973  12.146
54377W        W19604  35.276   5.863  12.672
54378W        W19605  37.861  29.481  13.857
54379W        W19606  21.257  37.484  13.890
54380W        W19607  11.490  39.615  14.762
54381W        W19608  26.188  15.178   4.573
54382W        W19609  23.090  24.980   4.432
54383W        W19610  25.246  25.031   1.259
54384W        W19611   5.204  42.267   2.904
54385W        W19612  32.553  28.993   0.447
54386W        W19613  29.808   6.677   2.671
54387W        W19614  29.082  18.899   1.271
54388W        W19615  17.805  24.527   1.173
54389W        W19616  22.043  35.734  14.930
54390W        W19617  44.228  42.776   1.717
54391W        W19618  12.159  37.556   0.344
54392W        W19619  18.064  39.155  11.389
54393W        W19620  40.843  41.892  14.708
54394W        W19621  17.669  17.777  14.848
54395W        W19622  35.989   6.037   3.315
54396W        W19623  40.537  41.366  12.447
54397W        W19624  35.446  38.989  11.379
54398W        W19625   2.697  43.712   1.264
54399W        W19626  23.989  40.252   3.881
54400W        W19627  13.549  14.373   1.838
54401W        W19628  12.828   7.412   0.457
54402W        W19629   7.647  21.547   2.336
54403W        W19630  30.609  20.899   4.743
54404W        W19631  22.969   2.865   3.832
54405W        W19632  39.436  28.443  12.051
54406W        W19633  28.924  35.275   2.772
54407W        W19634  34.893  23.292   3.817
54408W        W19635   1.324  24.063   4.713
54409W        W19636  20.637  12.474  11.993
54410W        W19637  18.476  38.819  11.478
54411W        W19638  34.410  31.584   2.933
54412W        W19639   2.945  29.004  12.870
54413W        W19640  38.598  11.704   4.620
54414W        W19641  13.245   8.929   2.169
54415W        W19642   8.371  40.119  14.430
54416W        W19643   0.164  41.606   2.096
54417W        W19644   3.198  36.392   0.683
54418W        W19645   8.849  33.068  11.970
54419W        W19646  16.672  28.072   1.807
54420W        W19647  37.415  39.278   4.428
54421W        W19648  35.378  39.532   1.378
54422W        W19649  16.633  41.995   3.308
54423W        W19650  28.411  23.498   4.440
54424W        W19651  42.772  17.403  14.842
54425W        W19652  31.388  21.609  12.104
54426W        W19653  29.522  31.959   2.697
54427W        W19654  21.069  37.488   0.799
54428W        W19655  13.187   9.891  11.092
54429W        W19656  28.985  40.393  12.381
54430W        W19657   2.634  20.567  11.642
54431W        W19658   4.965  36.651  11.016
54432W        W19659   2.771   1.520  13.835
54433W        W19660  38.638   4.535  14.393
54434W        W19661  44.991  33.959   1.933
54435W        W19662  23.002  37.354  12.983
54436W        W19663   0.124  16.671   4.688
54437W        W19664  43.769  35.415   3.700
54438W        W19665  36.383  25.920   1.839
54439W        W19666  16.119  31.959  11.925
54440W        W19667  43.562  13.721  14.731
54441W        W19668  32.917   4.457  13.950
54442W        W19669  31.913   5.175  14.483
54443W        W19670  33.646  15.010  12.481
54444W        W19671   5.811  35.797  12.851
54445W        W19672  31.895  11.871   1.442
54446W        W19673  33.509   7.788  14.374
54447W        W19674  20.462  32.675  11.164
54448W        W19675  12.422  15.565   3.200
54449W        W19676  42.559  44.903  10.688
54450W        W19677  44.907  31.130   1.737
54451W        W19678  24.733  20.211  13.967
54452W        W19679   4.501  36.057   5.129
54453W        W19680  28.703  11.259  10.755
54454W        W19681  19.669  31.808  11.195
54455W        W19682  27.438   5.249   4.848
54456W        W19683  41.715  43.583   0.527
54457W        W19684  29.509  33.895   0.630
54458W        W19685  30.450  19.208  13.621
54459W        W19686  41.341  31.476  12.124
54460W        W19687  15.015   7.822  13.370
54461W        W19688   4.393   3.520  10.714
54462W        W19689  40.481   6.940   2.657
54463W        W19690   2.770  31.588   2.735
54464W        W19691  25.665  31.586  13.374
54465W        W19692  33.530   2.989  13.380
54466W        W19693  26.013  33.329  10.539
54467W        W19694  32.884  41.307  14.864
54468W        W19695  31.893  21.048   4.888
54469W        W19696   4.706  34.723   0.000
54470W        W19697  31.545  29.376   0.442
54471W        W19698  28.720   6.266  12.702
54472W        W19699  39.069  36.522   5.132
54473W        W19700  30.229  18.186  11.568
54474W        W19701  43.015   1.935   1.917
54475W        W19702  17.267  33.403   1.419
54476W        W19703   5.162  22.945  13.433
54477W        W19704  31.555  33.414   4.095
54478W        W19705  42.797   2.265  12.596
54479W        W19706  29.514  24.719  11.982
54480W        W19707   0.919  31.159   3.191
54481W        W19708  41.284  27.227   4.487
54482W        W19709  22.304   2.130  10.355
54483W        W19710  21.235  17.239  14.310
54484W        W19711  22.831  39.254  13.963
54485W        W19712  17.324  22.223  13.969
54486W        W19713  28.597  28.236  10.531
54487W        W19714  10.875  21.140  14.424
54488W        W19715  23.038  18.836   3.137
54489W        W19716  26.332  26.630  11.191
54490W        W19717  23.469  22.158  12.266
54491W        W19718   5.087  11.806   4.260
54492W        W19719   7.907  12.251  10.763
54493W        W19720  44.732  16.282  13.552
54494W        W19721  34.580   4.581   4.876
54495W        W19722  44.234  19.888  11.862
54496W        W19723  25.556  25.784   1.404
54497W        W19724  10.186  12.706  10.759
54498W        W19725   7.675  42.408   1.120
54499W        W19726  29.516  37.007  14.304
54500W        W19727  22.289   7.418   0.723
54501W        W19728  18.786  18.556  11.084
54502W        W19729   4.998   4.731  14.565
54503W        W19730  40.019  25.123  11.222
54504W        W19731  11.593  32.132  12.702
54505W        W19732  24.396   1.448  14.767
54506W        W19733  25.199  25.217  10.750
54507W        W19734  13.241  37.107   3.276
54508W        W19735  10.081  21.782  13.019
54509W        W19736  22.424  25.404  12.572
54510W        W19737  11.365  26.479  11.095
54511W        W19738   3.293  24.466  12.627
54512W        W19739   1.295  15.739  12.056
54513W        W19740   9.407  28.014  10.532
54514W        W19741  18.178  18.691   0.116
54515W        W19742   5.435  19.541  12.260
54516W        W19743  31.716  10.206  13.946
54517W        W19744  28.180  42.895  13.288
54518W        W19745  40.547  30.669  12.867
54519W        W19746  25.765   2.347   1.232
54520W        W19747  44.617  32.066   5.073
54521W        W19748   6.238  26.700   4.568
54522W        W19749  31.299   6.153  11.648
54523W        W19750  44.820   6.168   4.765
54524W        W19751  25.280  34.097   4.768
54525W        W19752  16.613   0.012  13.079
54526W        W19753  28.996  28.591   0.693
54527W        W19754  40.071  17.168  13.429
54528W        W19755  38.012  20.804   1.355
54529W        W19756  44.883   7.229  12.578
54530W        W19757  32.792  19.885  12.952
54531W        W19758  29.704  21.051   0.756
54532W        W19759  11.411   5.687   2.883
54533W        W19760   1.360  40.263  12.219
54534W        W19761  36.893  40.411   4.434
54535W        W19762  12.752  44.244  14.757
54536W        W19763  20.584  14.032  14.892
54537W        W19764  20.720  19.008  11.199
54538W        W19765  36.404  40.055   0.170
54539W        W19766   7.634  21.492  12.360
54540W        W19767  12.282  38.803  11.697
54541W        W19768  17.622  14.709   0.403
54542W        W19769   7.285  38.340   1.135
54543W        W19770   4.008  19.230  12.096
54544W        W19771  43.448  19.721  13.818
54545W        W19772  39.826  31.630   4.078
54546W        W19773   1.386  29.860  11.407
54547W        W19774  20.371  24.614  14.368
54548W        W19775  37.535  20.780   0.302
54549W        W19776  33.976   2.699   2.700
54550W        W19777  36.451  35.883   0.471
54551W        W19778  10.100   9.850  12.332
54552W        W19779  10.746   8.663  11.289
54553W        W19780  14.721   1.858   1.296
54554W        W19781  37.016  22.151   1.940
54555W        W19782  15.112  11.787   2.650
54556W        W19783  19.098  38.302   1.384
54557W        W19784  37.945  14.955  12.367
54558W        W19785   4.198  35.997  14.872
54559W        W19786  41.885  11.740   1.219
54560W        W19787  21.288  34.032   4.610
54561W        W19788  22.497  19.243  14.991
54562W        W19789  44.040  21.758  14.833
54563W        W19790  27.407  40.954  13.957
54564W        W19791  36.778  23.089   3.871
54565W        W19792  22.149  23.434   2.348
54566W        W19793  15.811  18.318  10.534
54567W        W19794  12.306   0.731  13.348
54568W        W19795  37.685  28.516  14.105
54569W        W19796  27.433  12.821  14.328
54570W        W19797  38.581  37.413  12.524
54571W        W19798  40.777   4.144  12.428
54572W        W19799   4.688  17.612   1.421
54573W        W19800  22.061  30.700   1.315
54574W        W19801  13.580  18.566   3.392
54575W        W19802   3.539  23.938   4.946
54576W        W19803  27.659  11.835  11.045
54577W        W19804  21.696  14.758   0.930
54578W        W19805  33.613  35.558   0.903
54579W        W19806  12.712  17.072   3.768
54580W        W19807  15.904   8.967  14.749
54581W        W19808  13.659  31.226  11.551
54582W        W19809   2.028  25.453  14.432
54583W        W19810  39.521  32.560   1.231
54584W        W19811  39.553  38.069   3.356
54585W        W19812  13.587  21.190   4.792
54586W        W19813  15.506  11.877   4.522
54587W        W19814   6.853  23.128  12.154
54588W        W19815  22.101  39.435  14.786
54589W        W19816  42.142   9.900   2.100
54590W        W19817  14.359   2.293  12.508
54591W        W19818  41.394  28.402  14.346
54592W        W19819   5.173  29.075  14.782
54593W        W19820   1.356  14.058   0.173
54594W        W19821  37.533  43.013   4.490
54595W        W19822  31.484  28.909   0.172
54596W        W19823  34.893  22.617  12.970
54597W        W19824  28.216  36.567  11.977
54598W        W19825  25.260  13.738   3.885
54599W        W19826  42.738  22.683   3.191
54600W        W19827   0.547  10.302  14.753
54601W        W19828  29.005  20.806  14.537
54602W        W19829  18.595  19.369   1.261
54603W        W19830  23.100   0.011  13.554
54604W        W19831  29.221  18.746   1.740
54605W        W19832  44.929  17.997  11.500
54606W        W19833  13.414  28.341  13.829
54607W        W19834  20.063  19.304   1.410
54608W        W19835   5.976  41.475   3.660
54609W        W19836  24.411  25.857  10.642
54610W        W19837  10.807  40.481  11.141
54611W        W19838  32.973  42.747   1.760
54612W        W19839  41.062  41.068  12.934
54613W        W19840  22.667   8.392  13.474
54614W        W19841  16.681  12.137  12.197
54615W        W19842  26.480  12.366   3.164
54616W        W19843  37.436  21.909   3.160
54617W        W19844  18.082  16.921   1.541
54618W        W19845  26.658  15.526  11.449
54619W        W19846  41.064  24.282  13.738
54620W        W19847  27.336  23.648  11.652
54621W        W19848  11.665  32.162   0.826
54622W        W19849  31.887  35.868  13.152
54623W        W19850  27.817  16.967  14.446
54624W        W19851  39.752  30.621  13.044
54625W        W19852  36.014  31.109  11.042
54626W        W19853  21.720  22.800   2.924
54627W        W19854   8.453  19.018  13.544
54628W        W19855   5.144  21.174  11.514
54629W        W19856   8.370  29.327  14.869
54630W        W19857  36.592  12.720  10.824
54631W        W19858  13.464  38.344   4.173
54632W        W19859  18.718  26.197   1.755
54633W        W19860  10.625  29.032   4.606
54634W        W19861  18.695   6.958   4.117
54635W        W19862  15.123  19.495  14.242
54636W        W19863   3.223  35.055   0.529
54637W        W19864  28.922   9.746   1.190
54638W        W19865  29.529   6.913   2.297
54639W        W19866  25.731  21.228   0.754
54640W        W19867  32.923  36.597  12.054
54641W        W19868  13.315  12.417   4.136
54642W        W19869   5.262  28.899   4.143
54643W        W19870  13.384  18.783   0.938
54644W        W19871   2.800   3.729  10.706
54645W        W19872   9.532  19.386  14.022
54646W        W19873  15.596  25.505  12.226
54647W        W19874  18.835   9.549  13.376
54648W        W19875  17.222  25.103   0.327
54649W        W19876  42.715   5.812   1.316
54650W        W19877  24.366   4.384  12.973
54651W        W19878  14.261   5.495   1.895
54652W        W19879  20.505  25.032  13.146
54653W        W19880   2.433   6.930  14.343
54654W        W19881  22.229  10.580   0.257
54655W        W19882  16.290  37.533  11.164
54656W        W19883   8.810  17.001   0.798
54657W        W19884  23.736  22.703   4.814
54658W        W19885   7.378  35.138   2.457
54659W        W19886   1.428  30.184   4.317
54660W        W19887  26.020  15.197  13.514
54661W        W19888  18.761  33.575  14.679
54662W        W19889  30.555  43.283   1.463
54663W        W19890  15.824   4.168   2.922
54664W        W19891  24.232   0.110  14.473
54665W        W19892  16.645  38.957  10.687
54666W        W19893  38.903  42.883   4.777
54667W        W19894  21.486  22.824   0.881
54668W        W19895  27.633  24.722  14.122
54669W        W19896  33.463  37.625  13.008
54670W        W19897  38.508  13.505   3.079
54671W        W19898  44.614  26.301  14.076
54672W        W19899  31.540   7.468  12.578
54673W        W19900  24.876  36.963   2.497
54674W        W19901  23.085  35.965  14.482
54675W        W19902  19.596  41.926  14.442
54676W        W19903  12.554  12.582  14.412
54677W        W19904   5.635  35.539  14.879
54678W        W19905  11.060  39.523   1.786
54679W        W19906  35.869  12.806   2.410
54680W        W19907  17.756   5.404  14.225
54681W        W19908  25.964  23.153  14.379
54682W        W19909   3.161  32.056  13.797
54683W        W19910  34.393  31.527   1.110
54684W        W19911  22.170   8.907  14.040
54685W        W19912  23.415  26.819   0.743
54686W        W19913  32.403  20.789  12.903
54687W        W19914   1.695  22.124   2.813
54688W        W19915   4.121  21.564  11.159
54689W        W19916   1.910  42.853  14.895
54690W        W19917  30.667  40.280  10.777
54691W        W19918   9.748  25.413  13.383
54692W        W19919  37.569  10.477   1.316
54693W        W19920  18.022  37.050   1.316
54694W        W19921   6.422  33.194   9.874
54695W        W19922  35.459   5.422  14.328
54696W        W19923   5.773   4.886   4.252
54697W        W19924   9.606  32.709  10.463
54698W        W19925   0.515  11.777   5.093
54699W        W19926  16.554   3.436   1.883
54700W        W19927  11.026   5.692  11.275
54701W        W19928   9.277   5.749   4.088
54702W        W19929  16.037  44.750  11.025
54703W        W19930  25.091  11.434   4.650
54704W        W19931  12.598  29.539   2.830
54705W        W19932  35.135  13.300  14.295
54706W        W19933  32.031  14.572   1.275
54707W        W19934  33.276  12.700  13.475
54708W        W19935  40.718  23.957   1.759
54709W        W19936  43.302  17.348   0.702
54710W        W19937  12.325   5.105  13.041
54711W        W19938  34.741  11.013  11.896
54712W        W19939   2.831  17.199  11.839
54713W        W19940  18.196  20.512  10.996
54714W        W19941  25.054  43.827  10.512
54715W        W19942  23.707  32.871   4.745
54716W        W19943  40.487  31.605  12.630
54717W        W19944   2.690  41.511   5.377
54718W        W19945   7.721  17.160  11.586
54719W        W19946  32.780   8.702  11.748
54720W        W19947  33.167   4.708   0.853
54721W        W19948   9.254   9.122  11.397
54722W        W19949   8.179   1.890  14.788
54723W        W19950  29.503  30.782   0.834
54724W        W19951  27.780  29.185   0.880
54725W        W19952   0.927  26.117   1.800
54726W        W19953  35.961  27.855  11.445
54727W        W19954  14.804   5.738  12.009
54728W        W19955  10.631  26.390  10.314
54729W        W19956  14.537  30.086   4.762
54730W        W19957  23.881  14.241  14.643
54731W        W19958  29.775  36.947  12.866
54732W        W19959  22.210  12.641  10.563
54733W        W19960  25.021  30.242  11.796
54734W        W19961  29.408   2.339  11.484
54735W        W19962  11.115  44.848   0.281
54736W        W19963  14.809  36.666  13.284
54737W        W19964  32.020  25.982  14.955
54738W        W19965  20.673  29.451  13.818
54739W        W19966   7.027  31.751   0.389
54740W        W19967  23.028  15.054   3.811
54741W        W19968  11.753   2.521  11.623
54742W        W19969  22.524  14.277   0.872
54743W        W19970  35.054  37.580  12.449
54744W        W19971  44.995  39.476   0.875
54745W        W19972  31.850  32.169   1.881
54746W        W19973  14.210  17.147  12.138
54747W        W19974   0.863  12.732   1.440
54748W        W19975  15.076  35.592  10.636
54749W        W19976  25.587  26.091   3.548
54750W        W19977  38.051  35.975  11.413
54751W        W19978  11.238  20.430  10.712
54752W        W19979  20.726  21.706  14.999
54753W        W19980   5.205  40.838  13.414
54754W        W19981  41.309  22.934   0.831
54755W        W19982  35.569  24.943  11.483
54756W        W19983  11.330   6.340  13.777
54757W        W19984   6.692  41.386   1.414
54758W        W19985   5.759  40.363   0.833
54759W        W19986   1.016  41.555  13.443
54760W        W19987  20.765   5.267  13.899
54761W        W19988  34.597  15.168   1.162
54762W        W19989  36.813   1.453   0.704
54763W        W19990   7.899  28.722   3.278
54764W        W19991  17.316  17.902   0.972
54765W        W19992  23.143  39.240   2.230
54766W        W19993  25.320   9.795  14.920
54767W        W19994  18.340  15.755   4.163
54768W        W19995  30.910  11.698  11.007
54769W        W19996   9.409  37.426   3.268
54770W        W19997  42.210   5.288  11.572
54771W        W19998  17.319   9.856   4.449
54772W        W19999  20.095  17.088   0.245
54773W        W20000  10.953  13.148   5.050
54774W        W20001  30.571  33.868  13.311
54775W        W20002  11.234  19.552  14.444
54776W        W20003  38.426  24.502  13.074
54777W        W20004  16.631  18.296   3.704
54778W        W20005  40.443   9.229  11.362
54779W        W20006  17.176  14.352   2.871
54780W        W20007  24.428  34.295   0.252
54781W        W20008  30.946  26.280   4.540
54782W        W20009   7.578  42.839  11.504
54783W        W20010   4.994  39.268  11.623
54784W        W20011  43.864  11.652  13.349
54785W        W20012   6.284  17.803   2.668
54786W        W20013  22.257  29.988  12.415
54787W        W20014  29.102  35.067  14.883
54788W        W20015   0.852  27.694   1.434
54789W        W20016  20.221  30.925  14.240
54790W        W20017  23.991   4.070   4.427
54791W        W20018  10.799  42.599   0.276
54792W        W20019   8.368   6.923  12.527
54793W        W20020  15.189  15.140  13.070
54794W        W20021  25.613  14.142  14.029
54795W        W20022  15.201  26.551   1.912
54796W        W20023  38.438  15.388   3.229
54797W        W20024  41.859  38.415   0.477
54798W        W20025  43.331  20.227  12.573
54799W        W20026   1.120  14.341  12.090
54800W        W20027   4.396  11.688   3.703
54801W        W20028  33.363  32.031   4.458
54802W        W20029  20.793  38.401   2.212
54803W        W20030  14.832   6.421  13.592
54804W        W20031  32.963  27.201   1.265
54805W        W20032  30.045  40.342   1.751
54806W        W20033  11.225  25.287  13.001
54807W        W20034  18.211  42.406  12.398
54808W        W20035  23.556  24.727   0.898
54809W        W20036  23.995  36.370  10.383
54810W        W20037  21.674  27.061   1.717
54811W        W20038  28.453  37.815  13.484
54812W        W20039  25.526  27.156   1.889
54813W        W20040  33.020  18.026  10.742
54814W        W20041  31.668  36.485  12.502
54815W        W20042   0.388  42.028   0.342
54816W        W20043   8.569  26.562   2.839
54817W        W20044   5.908   4.713  11.443
54818W        W20045   8.295   3.012  13.856
54819W        W20046  24.722  10.429  11.316
54820W        W20047  28.506  44.842   5.001
54821W        W20048  42.189   3.851  10.310
54822W        W20049  42.534  10.214   1.955
54823W        W20050  21.229  20.741  13.925
54824W        W20051  26.148   6.977   3.198
54825W        W20052  17.060  25.795  14.662
54826W        W20053  26.994  30.399  14.009
54827W        W20054   8.559  27.948  14.903
54828W        W20055  30.203  15.592   3.340
54829W        W20056   3.704  21.287   2.860
54830W        W20057  37.906  31.604  14.316
54831W        W20058  11.219  34.287  12.868
54832W        W20059  12.875  14.745  13.411
54833W        W20060  20.848  44.658   1.397
54834W        W20061  12.108   9.088   4.820
54835W        W20062  44.715  18.021  12.787
54836W        W20063   5.662  23.529  12.476
54837W        W20064  32.463  40.896   2.753
54838W        W20065  11.314   2.990  10.653
54839W        W20066  35.093  39.374  14.353
54840W        W20067   7.808  37.838  12.598
54841W        W20068  29.297  24.631  13.482
54842W        W20069  10.574   5.918   4.879
54843W        W20070  13.697  33.390   0.516
54844W        W20071  37.850   2.758  13.448
54845W        W20072  42.055  41.390  14.469
54846W        W20073  38.594  11.094   0.543
54847W        W20074  36.713   6.573   4.900
54848W        W20075  35.603  32.271   4.274
54849W        W20076  15.386  19.026   2.633
54850W        W20077  17.525  37.541   0.944
54851W        W20078   3.008  12.076   1.128
54852W        W20079  30.140  13.293  14.895
54853W        W20080   4.206  17.962  12.044
54854W        W20081   6.356  39.080   0.011
54855W        W20082  15.101  25.337   2.141
54856W        W20083   4.819  41.172  13.467
54857W        W20084  12.393  19.808  13.909
54858W        W20085   3.562  26.040  11.425
54859W        W20086   9.609  30.433   2.706
54860W        W20087  17.454  39.360  10.063
54861W        W20088  40.762  24.562  10.885
54862W        W20089   6.201  41.498   1.279
54863W        W20090  30.414   1.357   0.353
54864W        W20091  34.082   1.706   1.068
54865W        W20092  27.343  34.330   4.570
54866W        W20093  36.298  25.672  11.624
54867W        W20094  38.824   7.162  11.109
54868W        W20095  35.604  42.291  11.924
54869W        W20096   2.183   4.845   2.895
54870W        W20097  30.118   5.359  10.735
54871W        W20098  22.516  17.549   1.287
54872W        W20099  21.083  22.497  13.364
54873W        W20100   0.162  38.382  10.830
54874W        W20101  24.629  10.419  12.500
54875W        W20102  15.343   8.887  11.441
54876W        W20103  28.202  40.268  11.551
54877W        W20104   2.746  20.203   5.066
54878W        W20105  11.212  34.463  14.095
54879W        W20106   7.321   4.689  12.900
54880W        W20107  44.943  25.113  14.696
54881W        W20108   8.283  37.064  11.528
54882W        W20109  31.591  30.021   5.125
54883W        W20110  12.278  24.764  12.216
54884W        W20111  30.373  39.537   3.497
54885W        W20112  36.269   5.418  11.189
54886W        W20113   7.756  39.763  14.966
54887W        W20114  12.770  33.883  12.937
54888W        W20115  35.452  35.885   4.920
54889W        W20116   0.693   8.782   2.743
54890W        W20117  22.870  22.992  11.558
54891W        W20118  28.043  13.348  11.490
54892W        W20119  44.002  25.160   3.864
54893W        W20120  43.039  31.416  12.263
54894W        W20121  37.064  33.497   0.220
54895W        W20122   2.903  33.274  11.052
54896W        W20123  36.460  34.566  14.664
54897W        W20124  24.183   3.410   3.815
54898W        W20125  31.921  42.952   3.245
54899W        W20126   9.370  10.157  10.493
54900W        W20127  19.973  31.782   4.148
54901W        W20128  16.050  35.485   0.302
54902W        W20129  42.945  13.780   2.253
54903W        W20130  25.258  44.549   3.801
54904W        W20131  11.216  21.442  10.786
54905W        W20132  23.356  10.295  11.161
54906W        W20133   9.836   1.381   4.667
54907W        W20134  20.322  37.934  13.394
54908W        W20135  44.466  18.976  10.845
54909W        W20136  32.570   1.140  11.648
54910W        W20137  13.189  26.986   0.582
54911W        W20138  42.298  10.098   3.241
54912W        W20139  11.273  19.647   0.810
54913W        W20140  16.221  38.818   3.424
54914W        W20141  16.661  41.776   0.417
54915W        W20142  15.667  26.949  12.263
54916W        W20143  44.438  12.024   3.122
54917W        W20144  10.288  33.396  11.671
54918W        W20145  39.742  26.918  10.815
54919W        W20146  18.199   5.197  12.928
54920W        W20147  23.661  11.653  11.559
54921W        W20148   9.057  36.565   1.403
54922W        W20149   9.102  34.823  11.473
54923W        W20150  23.649  11.864   3.732
54924W        W20151   7.181  23.195  13.151
54925W        W20152   4.188  20.591   1.636
54926W        W20153  15.631  36.102  14.840
54927W        W20154   7.373   6.634   2.880
54928W        W20155  21.087  10.395   2.247
54929W        W20156  40.534  11.108   0.780
54930W        W20157  29.063  35.816   0.383
54931W        W20158  22.207  15.125   1.955
54932W        W20159  27.728   4.591   0.138
54933W        W20160  42.891   5.482  14.907
54934W        W20161  18.150  13.823  13.394
54935W        W20162  16.105  30.498   5.102
54936W        W20163  11.084  17.938   3.799
54937W        W20164  33.027   6.621  12.163
54938W        W20165  43.414  21.915   0.577
54939W        W20166  34.666  33.518   5.077
54940W        W20167   7.150  11.922   3.514
54941W        W20168  37.521  25.056   4.253
54942W        W20169  21.088  39.609   1.814
54943W        W20170  24.060  12.782   2.852
54944W        W20171   6.815   9.719  13.967
54945W        W20172  17.975  40.415  14.248
54946W        W20173  10.921  26.591   1.943
54947W        W20174   0.207  21.083  12.283
54948W        W20175  42.384  22.305   1.792
54949W        W20176  17.771  37.509   1.417
54950W        W20177  44.028  42.245   4.634
54951W        W20178   9.323  12.176   5.459
54952W        W20179  40.129  38.861   4.629
54953W        W20180  33.652   1.048   4.737
54954W        W20181  30.285  36.897  13.569
54955W        W20182  16.505  37.870   1.487
54956W        W20183  16.602  38.360   1.279
54957W        W20184   4.440  42.783   4.305
54958W        W20185   5.370   3.334  10.705
54959W        W20186  22.944  36.130  13.610
54960W        W20187  40.750  42.695  12.544
54961W        W20188   7.404  13.029  12.549
54962W        W20189  39.532  40.035   2.711
54963W        W20190  11.662  26.391  14.885
54964W        W20191  27.479   2.273   0.417
54965W        W20192  37.062   8.943  13.814
54966W        W20193  26.468   9.497   2.783
54967W        W20194  37.124  15.681  12.532
54968W        W20195  38.793  13.637  14.484
54969W        W20196  42.785  27.433   2.830
54970W        W20197  33.518  15.037   3.155
54971W        W20198  34.310  28.546   0.119
54972W        W20199  29.508  35.884   2.226
54973W        W20200  22.453   8.348   0.772
54974W        W20201  14.512  21.402   3.629
54975W        W20202  14.003  36.051   2.551
54976W        W20203  28.764  26.161   9.729
54977W        W20204  31.443  30.228  11.271
54978W        W20205  10.423  10.332   4.714
54979W        W20206   7.410  11.598   1.745
54980W        W20207  22.814  25.274   2.253
54981W        W20208  35.379  21.030   2.742
54982W        W20209  24.002   1.148   2.325
54983W        W20210  11.336  15.648   1.954
54984W        W20211  44.290  23.657  13.701
54985W        W20212  37.611   3.722  14.425
54986W        W20213  29.493  36.377   2.053
54987W        W20214  34.831  43.605   2.839
54988W        W20215  16.199  16.720  11.766
54989W        W20216  13.640  27.668  11.762
54990W        W20217   5.728  40.880  11.151
54991W        W20218  28.441   1.390   2.742
54992W        W20219  22.223   4.295   3.267
54993W        W20220  31.715  12.283  12.427
54994W        W20221  38.394  20.843   0.945
54995W        W20222  42.075  17.135  12.127
54996W        W20223   3.013  28.790   1.756
54997W        W20224  23.095  29.610   2.792
54998W        W20225  43.054  23.622   0.348
54999W        W20226  42.198  25.458   0.984
55000W        W20227   0.780   4.709   1.737
55001W        W20228  38.009   0.708  10.393
55002W        W20229  32.167  14.182  10.228
55003W        W20230   9.845  40.506  14.748
55004W        W20231  42.921  44.258  11.889
55005W        W20232  24.490  15.925  13.563
55006W        W20233  27.497  19.169   1.739
55007W        W20234  18.619  34.836   3.678
55008W        W20235  21.009  30.149   2.705
55009W        W20236   1.760  34.871   0.571
55010W        W20237  38.145  41.308  11.644
55011W        W20238  40.324  29.483  10.225
55012W        W20239  21.332  27.884  12.966
55013W        W20240  40.771  19.311   5.035
55014W        W20241   0.223  37.529   1.322
55015W        W20242  27.568   9.904   0.826
55016W        W20243  36.771  21.257   2.825
55017W        W20244  35.090   9.411  14.312
55018W        W20245  37.629   5.490   1.860
55019W        W20246  10.296  19.132   1.915
55020W        W20247  44.797  34.773  13.005
55021W        W20248  21.115  38.295  10.882
55022W        W20249  40.013  15.348   3.264
55023W        W20250  43.046  41.541   1.924
55024W        W20251  18.383  24.317   4.079
55025W        W20252  30.526  44.359   2.660
55026W        W20253  37.954   3.986  13.573
55027W        W20254  12.676  22.853  11.116
55028W        W20255  40.803  32.045  12.824
55029W        W20256  20.814   8.684   0.443
55030W        W20257  40.909   9.395   0.422
55031W        W20258  26.597  25.957  12.262
55032W        W20259  27.649  21.005   0.891
55033W        W20260  10.054  44.509  12.973
55034W        W20261   6.241  30.777   3.376
55035W        W20262  37.476  19.270  12.145
55036W        W20263  26.156  42.727   1.406
55037W        W20264  30.327  10.264   4.965
55038W        W20265  11.147   7.137   0.689
55039W        W20266   8.948  34.499  14.205
55040W        W20267   0.846   5.889  14.386
55041W        W20268  12.235  39.624   4.587
55042W        W20269  11.186  27.744   4.536
55043W        W20270   5.175   0.838  14.119
55044W        W20271  38.111  43.895  11.432
55045W        W20272  35.947   8.092  14.726
55046W        W20273  38.285  14.585   2.851
55047W        W20274  12.610  22.891   2.824
55048W        W20275  29.410  27.206  12.033
55049W        W20276   0.450  44.257  10.658
55050W        W20277   9.927   6.309  13.584
55051W        W20278   1.499   0.495   3.683
55052W        W20279  19.247  32.257  11.610
55053W        W20280   2.472  18.919  11.263
55054W        W20281  42.977  30.233   3.529
55055W        W20282  43.884   9.107   4.865
55056W        W20283  16.236   0.796   1.526
55057W        W20284  31.988   6.187   0.489
55058W        W20285  25.551  13.333  14.466
55059W        W20286  23.057   6.265   2.254
55060W        W20287  41.579  29.491   1.852
55061W        W20288  12.262   6.120  13.928
55062W        W20289   2.730  23.468  10.887
55063W        W20290   9.311   9.139   4.239
55064W        W20291  40.547  21.265  12.587
55065W        W20292  15.495  41.815   3.619
55066W        W20293  20.483  27.097   3.991
55067W        W20294   4.492  31.126  13.039
55068W        W20295  24.411  16.604  11.663
55069W        W20296  17.168  11.942   1.224
55070W        W20297   3.340   3.056   3.981
55071W        W20298   4.362  25.532   4.170
55072W        W20299  29.004  16.978  14.923
55073W        W20300  18.388  22.016   4.813
55074W        W20301  20.067  26.940   2.819
55075W        W20302   5.313  22.840  12.916
55076W        W20303   3.000  25.063   1.838
55077W        W20304   7.773  17.612   1.678
55078W        W20305  26.844  15.753   2.152
55079W        W20306   5.714  20.128  14.049
55080W        W20307  33.367   9.404  11.127
55081W        W20308   0.238   6.416   4.553
55082W        W20309   8.251   9.598  14.910
55083W        W20310  10.207   1.989   0.735
55084W        W20311  43.063  33.149  14.201
55085W        W20312  26.902  32.798  12.486
55086W        W20313  33.412  22.413   2.260
55087W        W20314  37.893   7.908   2.742
55088W        W20315  29.542  40.407  12.915
55089W        W20316  37.509  42.020  14.078
55090W        W20317  28.391   1.895   2.632
55091W        W20318  30.138   7.392   4.286
55092W        W20319  21.309  32.543   0.030
55093W        W20320  36.666   2.963   4.687
55094W        W20321  40.450  35.901  14.970
55095W        W20322   3.460  28.040  14.788
55096W        W20323  38.565  42.633   1.463
55097W        W20324  34.480   8.318  10.729
55098W        W20325  22.739  31.464   2.969
55099W        W20326  42.001   8.672  11.695
55100W        W20327  23.555   4.707  13.915
55101W        W20328  35.703  11.949  11.622
55102W        W20329  15.509  43.399  13.419
55103W        W20330  36.836  15.017  14.666
55104W        W20331  18.124  16.397   0.882
55105W        W20332  37.233  20.114   5.088
55106W        W20333  13.720  36.511   1.567
55107W        W20334  44.254  32.876  14.546
55108W        W20335  20.951  39.692  13.921
55109W        W20336   0.982   6.244  11.954
55110W        W20337  44.001  36.012   1.316
55111W        W20338  18.470   2.769  11.669
55112W        W20339  44.326  17.100  13.654
55113W        W20340   0.211  23.971   1.732
55114W        W20341   1.945  41.881   4.998
55115W        W20342  28.214  30.355   9.780
55116W        W20343  42.015  10.633  13.874
55117W        W20344   8.194  23.701   2.491
55118W        W20345  28.951  44.203   3.878
55119W        W20346  34.993  32.214   1.248
55120W        W20347  39.464  24.038   4.712
55121W        W20348   5.703  16.605   3.673
55122W        W20349  11.708   6.710   2.728
55123W        W20350   8.137  18.791  10.860
55124W        W20351  25.493   4.653  12.005
55125W        W20352  24.932  10.816   2.787
55126W        W20353  43.041  29.789   3.202
55127W        W20354  29.170  23.709   4.095
55128W        W20355  22.499  41.237  11.710
55129W        W20356  40.852   4.236  11.556
55130W        W20357  14.794  16.141  13.815
55131W        W20358   3.920  18.046  14.880
55132W        W20359  41.414  29.159   1.504
55133W        W20360  14.051  21.102   3.934
55134W        W20361  11.251  23.817   0.419
55135W        W20362  31.695  30.503   4.912
55136W        W20363  33.247   4.178   4.583
55137W        W20364  22.839  10.871  12.220
55138W        W20365  16.800  24.734   4.346
55139W        W20366  11.737   4.474   0.392
55140W        W20367  42.961   9.308   4.554
55141W        W20368  38.756   5.611  12.689
55142W        W20369  43.247  36.338  12.101
55143W        W20370  34.553   5.356  12.659
55144W        W20371   5.136   2.288   3.387
55145W        W20372  10.321   1.468  11.615
55146W        W20373  16.550   3.763  14.559
55147W        W20374  23.194  41.098  14.353
55148W        W20375  27.072  19.263   0.982
55149W        W20376  38.175  30.791   2.977
55150W        W20377  43.373   7.720  13.395
55151W        W20378  16.815  18.412   1.609
55152W        W20379  36.423  33.720  14.064
55153W        W20380  24.709  12.521  13.339
55154W        W20381  19.343   6.628  11.707
55155W        W20382   3.853  34.045  12.802
55156W        W20383  43.588  24.453  13.906
55157W        W20384  14.595  13.336  11.361
55158W        W20385  39.439   5.997   0.853
55159W        W20386  28.099  37.661  13.870
55160W        W20387  12.781   6.289  12.444
55161W        W20388   9.693  32.111  12.137
55162W        W20389  42.165  21.899   0.721
55163W        W20390  27.824  14.233   4.484
55164W        W20391  34.201   2.775  13.745
55165W        W20392  31.039   1.921  14.027
55166W        W20393  27.954  33.496   2.379
55167W        W20394  41.944   1.536   0.447
55168W        W20395  12.212   0.810  11.371
55169W        W20396  35.507  26.528   1.767
55170W        W20397  37.728  35.325  11.599
55171W        W20398  44.970  37.860  12.068
55172W        W20399   6.231  17.206  12.077
55173W        W20400  25.756  18.987   1.788
55174W        W20401  17.375  29.599  12.290
55175W        W20402   3.954  22.527   2.406
55176W        W20403   8.791  27.952  12.004
55177W        W20404  32.494   9.764  12.692
55178W        W20405   5.892  31.560   0.702
55179W        W20406  19.776   0.879  14.273
55180W        W20407  23.804   4.135  13.881
55181W        W20408   1.149   4.713  10.403
55182W        W20409  24.104  13.559   3.169
55183W        W20410  37.580  10.834  14.861
55184W        W20411  37.165   2.470  14.875
55185W        W20412  40.904   7.255  14.806
55186W        W20413   4.990  20.501   0.434
55187W        W20414  37.183  28.389  13.264
55188W        W20415  24.190  15.862  10.661
55189W        W20416  28.122  34.088  12.564
55190W        W20417  38.169  23.716   0.333
55191W        W20418  31.383   7.275   0.165
55192W        W20419  17.203   4.688   0.313
55193W        W20420  21.764  29.978   4.071
55194W        W20421  20.684  16.135  14.745
55195W        W20422  22.718   3.920   2.410
55196W        W20423  37.048  27.209   2.893
55197W        W20424  21.796  41.925  12.505
55198W        W20425  14.016   2.869   3.679
55199W        W20426  41.844   1.250  14.978
55200W        W20427   3.240   3.103  11.984
55201W        W20428  37.992  27.436   0.882
55202W        W20429  15.120   4.235  12.325
55203W        W20430  24.004  28.098   3.403
55204W        W20431   7.990  26.170  12.445
55205W        W20432  33.596  19.020   3.388
55206W        W20433  41.308  10.762  10.775
55207W        W20434  37.313   7.421  13.941
55208W        W20435  39.820  27.226   0.529
55209W        W20436  37.290  39.033  12.993
55210W        W20437  14.732  35.116   1.560
55211W        W20438  20.002   0.988   3.229
55212W        W20439  39.931  18.055  12.583
55213W        W20440  39.739  17.562  13.425
55214W        W20441  17.318  23.706   2.908
55215W        W20442  29.606  14.675   3.056
55216W        W20443  23.154  14.148   3.414
55217W        W20444  26.321  12.257   3.650
55218W        W20445  39.331   0.258   4.469
55219W        W20446  44.171   9.671   2.880
55220W        W20447  35.057  28.457  14.397
55221W        W20448  41.714  15.863  10.400
55222W        W20449  35.609   7.911   1.252
55223W        W20450  31.305   0.057  11.504
55224W        W20451  27.339  15.605   3.190
55225W        W20452   1.223  40.907  11.162
55226W        W20453  27.980  44.703   1.638
55227W        W20454   7.922  38.031  12.112
55228W        W20455   6.718  21.712  12.402
55229W        W20456  41.321  13.183  14.958
55230W        W20457   4.428   7.719  14.854
55231W        W20458   5.811  22.775  12.016
55232W        W20459   6.227   2.236   4.391
55233W        W20460  16.199   7.424  11.577
55234W        W20461  10.307  43.550  11.640
55235W        W20462  44.360  40.345   0.023
55236W        W20463  31.942  16.530  11.527
55237W        W20464  27.999  16.883  12.823
55238W        W20465  21.980  16.449  12.704
55239W        W20466  44.881  29.067   3.987
55240W        W20467  34.891  40.875   2.787
55241W        W20468  44.209  16.200   2.856
55242W        W20469  19.145  12.117  12.719
55243W        W20470   8.497  43.929   2.468
55244W        W20471  32.067  11.775   3.324
55245W        W20472  19.261  37.401   0.352
55246W        W20473  35.195  18.181  10.709
55247W        W20474   7.243  24.976  13.038
55248W        W20475   2.954  26.324  11.808
55249W        W20476  35.418  20.955   0.637
55250W        W20477  26.213  21.180  10.747
55251W        W20478  15.222   8.508  10.585
55252W        W20479  13.203  22.723   1.910
55253W        W20480  13.773  39.059   3.210
55254W        W20481  32.522  31.071   3.802
55255W        W20482  27.004   3.678   1.246
55256W        W20483  41.025  23.054  13.990
55257W        W20484   9.767  12.702   2.429
55258W        W20485  41.655  35.078   0.909
55259W        W20486  44.425  30.985  14.295
55260W        W20487  14.046   9.222  13.108
55261W        W20488  29.666   7.487   0.378
55262W        W20489  29.008  29.797  13.962
55263W        W20490  44.446  10.093   3.825
55264W        W20491  44.698  28.560  11.502
55265W        W20492  25.558  40.094   4.358
55266W        W20493  22.559  28.176  12.515
55267W        W20494  34.873  25.449  12.427
55268W        W20495  24.779   2.231   4.674
55269W        W20496  38.610   8.478  14.892
55270W        W20497   3.783  31.821   3.901
55271W        W20498   4.935  41.876  12.448
55272W        W20499  28.240  15.696   1.243
55273W        W20500  12.320  42.428   2.267
55274W        W20501  33.466  22.057   4.057
55275W        W20502  19.589   3.452  14.945
55276W        W20503  32.092  37.363   2.406
55277W        W20504   8.496  17.387   5.369
55278W        W20505  37.405  18.281  12.447
55279W        W20506  30.058  37.618   2.293
55280W        W20507  41.946   3.662   3.700
55281W        W20508  40.561  23.834  12.058
55282W        W20509   9.844  41.054   2.768
55283W        W20510  12.870  38.403  13.914
55284W        W20511   3.395   1.490   3.585
55285W        W20512  12.611  24.046   3.601
55286W        W20513  22.133  38.926   4.100
55287W        W20514  33.790   4.665   3.950
55288W        W20515  44.250   6.183  10.954
55289W        W20516  39.829  20.073   2.167
55290W        W20517  40.794  13.198   1.836
55291W        W20518  17.073  10.372  12.989
55292W        W20519  44.595   2.911   0.143
55293W        W20520  26.007  26.023   2.724
55294W        W20521  18.538   2.776  14.382
55295W        W20522  41.836  42.752  11.117
55296W        W20523   6.333  32.325   0.679
55297W        W20524  42.434  42.329   3.132
55298W        W20525  11.480   3.452  11.432
55299W        W20526  37.838  25.201   3.361
55300W        W20527  34.381   9.327  11.670
55301W        W20528   4.502   7.564  13.478
55302W        W20529   5.989  25.132   0.821
55303W        W20530  40.806  26.460  10.765
55304W        W20531  24.430  12.243  10.848
55305W        W20532  27.160  17.951   0.332
55306W        W20533  37.568  37.675  13.028
55307W        W20534  23.043  43.922   0.045
55308W        W20535   9.979  16.837  11.076
55309W        W20536  34.547  22.282  10.986
55310W        W20537  17.630   2.645  11.172
55311W        W20538   1.981  26.041   1.799
55312W        W20539  41.957   5.843  12.973
55313W        W20540  32.155  39.590   3.767
55314W        W20541  36.807  26.273  11.572
55315W        W20542  10.763  29.686  13.688
55316W        W20543  40.762  18.116  11.198
55317W        W20544  11.762  16.813  10.228
55318W        W20545  18.524  17.601  13.491
55319W        W20546  31.616  13.153  14.429
55320W        W20547  32.126  43.078  10.359
55321W        W20548  24.426  42.854   0.394
55322W        W20549  34.895  33.320  11.182
55323W        W20550   1.257   5.598   3.628
55324W        W20551   7.508  23.008  12.779
55325W        W20552  17.269  40.798  13.480
55326W        W20553   4.878  19.245   3.855
55327W        W20554  34.291   9.661   3.624
55328W        W20555  32.659  31.079   3.301
55329W        W20556  17.104  32.821   2.836
55330W        W20557   7.455  24.929  12.003
55331W        W20558   8.423  43.819   1.175
55332W        W20559   1.240   4.781   2.517
55333W        W20560  22.126  30.982   1.788
55334W        W20561  32.080  35.827   4.129
55335W        W20562  25.719  28.546  11.959
55336W        W20563  32.417  27.481   1.695
55337W        W20564  24.570  42.759  13.787
55338W        W20565  14.557  30.999   0.347
55339W        W20566  42.804   4.661  13.855
55340W        W20567   6.310  14.231  11.641
55341W        W20568  28.000  12.389  12.887
55342W        W20569  10.048  29.561  10.717
55343W        W20570  31.208   5.787  13.265
55344W        W20571   0.310  24.352  11.829
55345W        W20572  11.753  20.816   2.366
55346W        W20573  29.661  30.225   4.283
55347W        W20574  28.563   8.590   1.183
55348W        W20575  30.483  44.009   4.896
55349W        W20576   8.182  38.861   2.189
55350W        W20577  33.605  22.545   1.769
55351W        W20578  11.488  30.970   1.418
55352W        W20579  32.815  18.385  12.581
55353W        W20580  23.993   8.865   4.580
55354W        W20581  41.720   9.307  13.839
55355W        W20582  31.113  30.569  12.427
55356W        W20583  33.392   7.730  12.393
55357W        W20584  10.201  28.556  14.358
55358W        W20585  38.920   1.655   1.188
55359W        W20586  14.576  40.424   2.685
55360W        W20587  43.459  15.003   4.114
55361W        W20588  28.590  26.198  14.202
55362W        W20589  24.530  38.825  11.590
55363W        W20590  11.358   5.936  11.614
55364W        W20591  36.768  22.873  13.632
55365W        W20592   0.782  29.469  14.763
55366W        W20593  42.615  41.017  14.805
55367W        W20594   1.033  14.684   2.741
55368W        W20595  40.500   8.645   1.800
55369W        W20596  43.739   4.047  14.919
55370W        W20597  23.558  41.850  11.546
55371W        W20598   0.995  42.858  11.139
55372W        W20599   1.866  36.059  13.442
55373W        W20600   7.614   0.284  10.702
55374W        W20601  19.712  24.319  11.225
55375W        W20602  34.203  35.897   2.711
55376W        W20603   4.623  14.267  12.566
55377W        W20604  21.306  30.660  12.032
55378W        W20605  41.523  27.448   2.164
55379W        W20606  44.857  28.927  13.705
55380W        W20607  41.128  34.976   3.806
55381W        W20608  39.002  23.440   4.266
55382W        W20609  29.622   4.239   1.870
55383W        W20610  21.225  33.942  13.989
55384W        W20611  28.671  20.521  13.323
55385W        W20612  17.822  32.897  13.970
55386W        W20613  36.090  38.784  13.926
55387W        W20614  26.090  21.069   2.357
55388W        W20615   4.437  11.138  11.093
55389W        W20616   1.443   4.350  14.251
55390W        W20617  23.767  40.446  11.177
55391W        W20618  42.457   3.647   1.131
55392W        W20619  33.614   3.656   0.391
55393W        W20620  38.663   6.178  12.038
55394W        W20621  22.472   7.700   3.364
55395W        W20622  42.113  27.532   0.777
55396W        W20623  35.709   5.099   2.784
55397W        W20624  10.379  30.542  13.852
55398W        W20625  24.298  33.069  13.089
55399W        W20626  10.147  36.772   1.801
55400W        W20627  37.750  27.049  10.717
55401W        W20628  37.151  23.608   3.057
55402W        W20629  40.496   6.915  12.945
55403W        W20630   5.914  28.458   1.344
55404W        W20631  19.460  32.788  11.139
55405W        W20632  22.991  40.964   1.859
55406W        W20633  13.641   5.771  13.112
55407W        W20634  32.157  41.918  10.765
55408W        W20635  40.425  16.245   0.928
55409W        W20636  15.132   0.753   4.746
55410W        W20637   5.219  15.444   2.661
55411W        W20638  19.309  17.557  12.430
55412W        W20639  43.361  44.539  11.870
55413W        W20640   8.755  17.335  13.935
55414W        W20641  29.400   4.276  13.813
55415W        W20642  28.486   2.720   0.107
55416W        W20643   7.724  31.992  12.475
55417W        W20644  43.514   4.105  12.878
55418W        W20645   4.730   6.847  12.957
55419W        W20646   0.297   8.515  12.453
55420W        W20647  42.214  33.924   1.008
55421W        W20648   1.174   1.312  12.861
55422W        W20649  36.450  14.628   0.502
55423W        W20650   7.431   0.781   1.765
55424W        W20651  36.650  21.774   4.642
55425W        W20652  22.049  33.079  13.135
55426W        W20653   5.755  10.722   0.796
55427W        W20654  28.315  38.054   5.097
55428W        W20655  42.148  33.548  12.059
55429W        W20656   6.094  19.610  11.693
55430W        W20657   1.523   7.675  14.529
55431W        W20658  26.992  28.495   0.592
55432W        W20659  12.109  27.161   3.203
55433W        W20660  21.084  43.503   2.459
55434W        W20661  42.438  24.103   1.420
55435W        W20662  11.915  16.851   3.130
55436W        W20663  30.360  11.086   2.709
55437W        W20664   6.651   0.467   9.943
55438W        W20665  28.056  20.755   4.912
55439W        W20666   8.819  20.249  12.524
55440W        W20667  12.333  14.981   2.346
55441W        W20668  18.082  23.596   3.699
55442W        W20669  30.509   5.339   1.951
55443W        W20670  16.327   2.702   4.710
55444W        W20671  34.615  28.637   3.092
55445W        W20672  14.314  22.336   3.612
55446W        W20673  14.965   8.070  12.818
55447W        W20674  34.175   9.587   0.316
55448W        W20675  19.910  18.356  12.773
55449W        W20676  11.081  30.487   2.659
55450W        W20677  25.578   5.937   4.599
55451W        W20678  44.712  32.391  11.678
55452W        W20679  23.610  11.623   3.244
55453W        W20680  14.408  10.719   2.085
55454W        W20681  35.764  39.400  11.390
55455W        W20682  20.548  42.529   4.609
55456W        W20683  13.300  27.925  12.985
55457W        W20684  15.858  37.771   2.915
55458W        W20685  10.639  42.771   1.348
55459W        W20686  33.629  22.943   0.431
55460W        W20687  26.761  36.124  12.463
55461W        W20688  12.714  38.879   3.069
55462W        W20689   7.237  16.534   1.039
55463W        W20690  14.157  37.070  12.611
55464W        W20691  19.724   9.455  14.316
55465W        W20692  37.810   6.883   1.899
55466W        W20693  11.631  23.472   0.593
55467W        W20694  36.457   3.569  11.515
55468W        W20695  26.567  28.210  12.028
55469W        W20696  38.570  41.258   4.285
55470W        W20697   9.328  42.917  13.148
55471W        W20698  43.810  13.125  12.032
55472W        W20699  10.380  38.420  14.645
55473W        W20700   1.355  22.274   1.909
55474W        W20701   0.519  11.410  12.842
55475W        W20702  27.988  28.897  14.002
55476W        W20703  11.761   1.345  14.702
55477W        W20704  39.531  16.386   0.442
55478W        W20705   8.202  41.829  11.476
55479W        W20706   9.427  26.511  12.959
55480W        W20707  44.922  39.919   1.676
55481W        W20708  42.483  38.916  11.552
55482W        W20709   5.800  23.621  11.132
55483W        W20710  22.709  40.201  12.595
55484W        W20711   0.861  41.621  13.955
55485W        W20712   8.721  23.495   3.249
55486W        W20713   4.899   0.510   3.636
55487W        W20714  10.682  17.053  14.347
55488W        W20715   9.221  40.327   2.875
55489W        W20716  31.878   1.342  12.257
55490W        W20717  12.719  12.109  10.727
55491W        W20718  40.904  15.170   0.919
55492W        W20719  20.789   7.553  14.856
55493W        W20720  29.182  30.954   1.216
55494W        W20721  19.570  20.057   0.775
55495W        W20722   7.396  21.983   3.585
55496W        W20723  30.334  42.576  14.383
55497W        W20724  32.281  21.704   0.282
55498W        W20725  25.828   2.366   5.026
55499W        W20726  25.944  42.954   0.265
55500W        W20727  16.293  41.960  14.198
55501W        W20728  13.789  36.849   0.205
55502W        W20729   5.775   3.726   1.744
55503W        W20730  13.827  11.203   3.638
55504W        W20731  21.308  37.465  14.803
55505W        W20732  29.867  39.494   2.239
55506W        W20733  18.678  21.689   3.362
55507W        W20734  34.479  10.933   3.038
55508W        W20735  18.390  40.560   5.071
55509W        W20736  36.451   8.698  14.980
55510W        W20737  32.900  41.440   4.158
55511W        W20738   7.072  33.487  10.799
55512W        W20739   1.308  19.360  12.436
55513W        W20740   2.730  19.297  12.549
55514W        W20741   7.200  13.163   1.690
55515W        W20742  30.532   2.004  11.011
55516W        W20743  35.408   1.855  12.958
55517W        W20744  23.131  31.350   3.270
55518W        W20745   7.875  12.146   0.440
55519W        W20746   2.688   3.041   1.284
55520W        W20747   5.217   6.640   0.110
55521W        W20748  21.794  42.045   2.781
55522W        W20749  27.444   7.844  11.494
55523W        W20750  30.089  36.586  11.997
55524W        W20751  23.071  41.901  11.261
55525W        W20752  18.253  28.179   3.966
55526W        W20753  19.674  24.158  13.758
55527W        W20754  23.345  14.171  12.325
55528W        W20755  40.573  33.104   2.866
55529W        W20756  25.160  19.921   3.280
55530W        W20757  41.430  40.941  11.683
55531W        W20758  18.173  11.477   3.201
55532W        W20759  21.474  10.813  13.991
55533W        W20760   7.144  27.189  13.068
55534W        W20761  12.947  28.701  10.992
55535W        W20762  37.021  42.527   3.340
55536W        W20763  29.706  18.615   1.723
55537W        W20764  36.947  36.876  10.607
55538W        W20765  43.722  29.119   4.235
55539W        W20766  23.440  27.819  11.435
55540W        W20767   9.184  30.144   4.025
55541W        W20768  28.439   0.085   0.792
55542W        W20769  44.331  24.015   4.142
55543W        W20770   2.184  24.215  11.982
55544W        W20771   4.266  13.322   4.626
55545W        W20772  37.268  39.908  11.829
55546W        W20773  30.534  31.781  13.709
55547W        W20774  20.558   5.180   4.260
55548W        W20775   6.013   8.630   0.794
55549W        W20776  28.596   9.540   0.843
55550W        W20777  44.390  14.210   0.635
55551W        W20778  25.121  25.466  12.633
55552W        W20779   4.284  40.014   1.742
55553W        W20780  26.226   8.473  12.123
55554W        W20781  41.454  31.879   4.070
55555W        W20782  21.750   9.870  12.540
55556W        W20783  43.998  19.503   3.640
55557W        W20784   1.491   5.953   3.251
55558W        W20785  13.504  37.764   0.777
55559W        W20786  19.706  21.600  11.555
55560W        W20787  29.752  25.664  10.776
55561W        W20788  18.036  43.914   4.171
55562W        W20789  25.515  27.343   2.891
55563W        W20790  43.802  39.330   3.577
55564W        W20791  25.002  14.676  10.700
55565W        W20792  12.151  16.740   2.661
55566W        W20793  38.880   1.146   1.354
55567W        W20794  22.883  30.509   4.496
55568W        W20795  26.702  32.536  10.533
55569W        W20796  35.756  34.087   3.805
55570W        W20797  36.564  14.543   1.904
55571W        W20798  19.477  25.238  11.308
55572W        W20799   7.644  30.609   1.903
55573W        W20800   2.946  11.282  11.007
55574W        W20801   0.314  14.805  13.485
55575W        W20802  35.529  29.647   0.762
55576W        W20803  19.259  15.502  10.615
55577W        W20804   5.624  41.300   5.060
55578W        W20805  27.102  19.683  10.636
55579W        W20806  31.916   4.903   1.967
55580W        W20807  37.324  14.100   2.896
55581W        W20808  14.911  26.790   0.380
55582W        W20809  13.510  30.371   1.503
55583W        W20810  19.182  25.428   2.623
55584W        W20811  34.394  11.893  11.186
55585W        W20812  42.362   9.553  11.105
55586W        W20813  34.500  23.037   1.817
55587W        W20814  28.110   9.925  12.936
55588W        W20815  27.141  35.981   4.752
55589W        W20816  10.807   8.318  10.896
55590W        W20817  28.185  34.845  13.513
55591W        W20818  31.744   0.959  14.995
55592W        W20819  19.559  24.716   0.314
55593W        W20820   9.327  40.100  11.515
55594W        W20821  18.311   3.422  12.789
55595W        W20822  38.327  41.386   2.269
55596W        W20823  24.125  34.578  11.214
55597W        W20824  10.642  36.464  11.448
55598W        W20825  12.360  36.487  12.093
55599W        W20826  22.229  38.546   1.296
55600W        W20827  24.833  14.421   0.718
55601W        W20828  41.875  18.124  10.710
55602W        W20829   9.129  38.319   2.128
55603W        W20830  31.300  14.745   4.084
55604W        W20831   8.379  43.886  12.387
55605W        W20832  23.527   7.804   2.402
55606W        W20833   4.261  24.256  11.244
55607W        W20834   2.534  29.449  12.094
55608W        W20835   2.455   1.778  10.656
55609W        W20836  15.751   3.567  10.640
55610W        W20837  20.824  32.902  12.972
55611W        W20838   2.881  29.791  14.542
55612W        W20839  29.208   6.380  12.540
55613W        W20840  26.143  10.549   4.855
55614W        W20841  37.135  23.960  12.843
55615W        W20842   7.656  18.746  11.208
55616W        W20843  32.421   3.200  10.399
55617W        W20844  28.597   2.961   2.689
55618W        W20845  25.400   5.375   9.818
55619W        W20846   9.827  17.317  12.990
55620W        W20847  24.184  22.446   5.032
55621W        W20848   9.242   5.130  11.148
55622W        W20849  35.872  38.129  11.068
55623W        W20850  10.846  35.806  13.831
55624W        W20851  24.726  24.575  13.551
55625W        W20852  25.505  11.697   1.073
55626W        W20853  24.662   2.561   5.685
55627W        W20854  35.622  20.762  13.551
55628W        W20855  38.921   8.819  12.623
55629W        W20856  13.854  44.966  11.947
55630W        W20857  30.537  31.898   4.134
55631W        W20858  39.992  38.306  11.670
55632W        W20859  13.172   8.848  12.570
55633W        W20860  19.668  30.225   2.782
55634W        W20861  22.749  10.149  14.544
55635W        W20862  24.472  11.239  14.016
55636W        W20863   7.091  29.234  10.689
55637W        W20864  18.462   1.894   1.508
55638W        W20865  32.645  19.189   4.123
55639W        W20866  28.640  27.118  13.054
55640W        W20867   8.192  36.074   3.196
55641W        W20868  16.317   4.738  11.933
55642W        W20869  21.340  39.866  12.593
55643W        W20870  23.651  44.005  12.950
55644W        W20871  40.264  22.748  12.434
55645W        W20872  13.655  33.801   2.762
55646W        W20873   5.732  27.177   3.771
55647W        W20874  36.791  37.553   3.242
55648W        W20875  24.560   3.352   4.488
55649W        W20876  18.297  41.885   0.779
55650W        W20877  20.834   7.653  13.516
55651W        W20878   8.248   4.347   3.592
55652W        W20879  21.740  22.569   2.424
55653W        W20880  32.051   2.597  12.511
55654W        W20881  15.171   9.435   0.347
55655W        W20882  42.616   0.240   3.311
55656W        W20883   5.380  11.668   3.599
55657W        W20884  23.171  35.236  12.358
55658W        W20885  35.070   9.821   4.739
55659W        W20886  25.506   5.217   0.535
55660W        W20887  30.511  32.571  14.537
55661W        W20888   6.883  11.797   2.779
55662W        W20889  17.465  22.320  11.034
55663W        W20890   0.373  18.816  14.969
55664W        W20891  17.681  37.980   0.729
55665W        W20892  30.065  23.849   0.273
55666W        W20893  21.981   4.360   4.535
55667W        W20894   0.916  27.685   2.302
55668W        W20895   1.335  41.445  12.027
55669W        W20896  40.807  11.246  12.059
55670W        W20897  41.911  37.520   3.209
55671W        W20898   4.677  20.995  10.670
55672W        W20899   7.776   7.961  14.657
55673W        W20900  38.805  28.759  11.522
55674W        W20901  12.812  44.066  11.842
55675W        W20902  19.343   8.146  12.416
55676W        W20903   1.463  28.525  11.260
55677W        W20904  32.936  44.862   2.153
55678W        W20905  35.468  43.922   3.409
55679W        W20906   4.646  26.199  11.906
55680W        W20907   7.857  21.654   0.745
55681W        W20908  31.551   8.813   5.018
55682W        W20909   5.838  39.459   3.067
55683W        W20910  34.747  40.612  13.286
55684W        W20911  29.076  42.030  11.043
55685W        W20912  26.243   5.650  12.595
55686W        W20913  44.021  34.814  13.553
55687W        W20914  15.837   6.638  11.766
55688W        W20915  36.375  33.924   2.564
55689W        W20916  29.604  25.416  13.930
55690W        W20917   8.198  13.070   3.284
55691W        W20918  11.912  10.371  12.975
55692W        W20919   6.693  25.597  13.459
55693W        W20920  34.953  13.209   2.599
55694W        W20921  25.929  41.368   1.768
55695W        W20922   2.928   1.915   1.356
55696W        W20923   0.283  34.736   0.915
55697W        W20924   1.493  42.458  12.066
55698W        W20925  30.733   9.447  14.374
55699W        W20926  18.718  34.310  14.922
55700W        W20927   5.282  19.780  11.347
55701W        W20928   0.787  35.407  14.105
55702W        W20929  22.245  19.781  12.528
55703W        W20930  42.855  28.830   2.135
55704W        W20931  27.167  32.557  10.807
55705W        W20932  30.203  21.111   2.948
55706W        W20933  16.502   9.619  13.477
55707W        W20934   3.520  30.309  12.315
55708W        W20935  22.324  22.708   3.708
55709W        W20936  44.835  32.440   4.164
55710W        W20937  16.199  32.929  14.015
55711W        W20938  26.019  10.037  14.880
55712W        W20939   3.160  32.474   1.275
55713W        W20940  20.495   3.905  11.101
55714W        W20941  16.624  43.281   0.082
55715W        W20942  25.768   1.455   0.751
55716W        W20943  33.492  10.663   2.238
55717W        W20944  41.872  31.140   3.119
55718W        W20945  15.209  37.285   2.111
55719W        W20946   7.568  43.834   0.380
55720W        W20947  40.230  38.446   1.811
55721W        W20948  32.409  35.936   3.361
55722W        W20949  25.658  33.498  12.813
55723W        W20950  36.347   7.116   2.648
55724W        W20951  33.617   3.264  12.573
55725W        W20952  20.038  36.111   5.104
55726W        W20953  31.090  19.196  13.548
55727W        W20954  27.542  18.501  13.515
55728W        W20955  38.725  26.526   0.815
55729W        W20956  30.142  42.341   0.986
55730W        W20957  20.617  41.897  14.321
55731W        W20958   7.810  22.258  11.220
55732W        W20959   5.924  16.338  10.690
55733W        W20960  28.296  27.133  12.699
55734W        W20961  38.613  37.669  12.963
55735W        W20962  29.683  35.098   3.566
55736W        W20963  12.588  44.933  11.825
55737W        W20964  32.871  13.636  14.466
55738W        W20965   6.136   3.979   1.289
55739W        W20966  27.661  31.167   0.931
55740W        W20967  17.520  28.276   3.077
55741W        W20968   7.265   6.091   2.869
55742W        W20969  19.437  28.074   2.289
55743W        W20970  15.114  18.520   0.306
55744W        W20971  16.176   8.458   3.775
55745W        W20972   2.608  10.841  11.153
55746W        W20973  14.351   0.467   3.296
55747W        W20974  14.528   8.293  13.871
55748W        W20975  13.703   4.849   0.236
55749W        W20976  34.561   8.828  11.639
55750W        W20977  28.986   7.138  10.595
55751W        W20978  28.585  33.047  14.447
55752W        W20979  36.001  12.388   3.194
55753W        W20980  27.156   3.432  12.477
55754W        W20981  31.606  23.110   3.614
55755W        W20982  35.088  17.082   3.706
55756W        W20983  35.450   4.022   4.691
55757W        W20984  28.635   0.826   2.803
55758W        W20985  42.252  23.060   2.659
55759W        W20986  30.659  25.261   1.263
55760W        W20987  14.376  36.982   2.338
55761W        W20988  36.566  36.260  11.182
55762W        W20989  24.730  11.717  13.829
55763W        W20990   6.915   2.858   2.436
55764W        W20991  30.887   1.466   2.838
55765W        W20992  27.663   0.430   2.127
55766W        W20993  22.591  21.133   2.336
55767W        W20994   6.711   7.746   0.557
55768W        W20995   6.628  43.816   0.710
55769W        W20996  28.194  30.204   2.164
55770W        W20997  26.947  38.079  10.689
55771W        W20998  34.568  22.706  14.961
55772W        W20999  18.464   9.124   1.685
55773W        W21000  22.087  21.069   4.443
55774W        W21001  43.393  33.608   2.272
55775W        W21002   5.785  32.116  11.103
55776W        W21003  43.491  39.431  12.057
55777W        W21004  38.057  13.376  11.616
55778W        W21005  21.497  14.347  13.896
55779W        W21006  19.625  23.635   0.532
55780W        W21007  15.718  11.111  13.802
55781W        W21008  16.117  25.595   2.447
55782W        W21009  44.838   9.704   1.169
55783W        W21010  34.399  20.145  11.234
55784W        W21011  44.694  21.760  10.872
55785W        W21012  42.107  43.467  13.480
55786W        W21013  40.855  23.569  11.068
55787W        W21014  19.229  13.796   2.059
55788W        W21015  19.086  37.902   0.262
55789W        W21016   2.069  33.433  14.530
55790W        W21017  34.161  21.230   0.315
55791W        W21018   2.279  29.324   2.766
55792W        W21019  14.066  15.874   0.031
55793W        W21020  22.571  16.207  10.787
55794W        W21021  19.566  27.129   1.602
55795W        W21022  27.243  33.152  11.043
55796W        W21023  36.998   4.093   4.285
55797W        W21024  22.718  40.541   1.734
55798W        W21025   1.789   8.283   4.097
55799W        W21026  39.448  23.909   4.209
55800W        W21027   1.732  38.892   1.105
55801W        W21028  30.282   9.902  11.154
55802W        W21029  35.594  29.467   2.377
55803W        W21030  12.455  37.149   2.837
55804W        W21031  27.717  38.515  11.957
55805W        W21032   2.118   5.371   0.464
55806W        W21033  14.117  13.122   4.530
55807W        W21034  38.084  27.985   4.109
55808W        W21035   3.766  37.173   0.651
55809W        W21036  42.019  36.340  10.691
55810W        W21037  37.976  28.364  13.340
55811W        W21038  29.591  11.370   3.042
55812W        W21039   3.293   9.311   4.291
55813W        W21040  37.517  42.957  13.894
55814W        W21041  27.319  18.108   1.921
55815W        W21042  26.219  17.054  11.647
55816W        W21043  17.065  18.206   2.884
55817W        W21044  30.362  17.658  11.673
55818W        W21045  16.781  29.512   3.196
55819W        W21046  33.599   9.657  13.295
55820W        W21047  14.430  35.399   1.924
55821W        W21048  23.014  12.789  14.234
55822W        W21049  43.536   5.399  14.445
55823W        W21050  25.891  36.639   1.259
55824W        W21051  26.907  35.853  13.734
55825W        W21052   7.161   5.210  14.154
55826W        W21053  19.039   5.554   1.759
55827W        W21054   1.363   7.732   4.553
55828W        W21055  16.746  17.065  11.117
55829W        W21056  25.560  39.489  14.478
55830W        W21057  35.998  44.766   4.684
55831W        W21058  35.872  34.608   2.655
55832W        W21059  25.276  29.483  12.562
55833W        W21060  12.426  19.032   0.677
55834W        W21061  19.713   4.098  10.626
55835W        W21062  42.343  41.551  13.903
55836W        W21063  17.173  32.555   4.155
55837W        W21064  13.613  22.396   3.600
55838W        W21065  24.526  30.431   1.227
55839W        W21066  36.370  14.785  10.824
55840W        W21067  33.249  38.909   1.429
55841W        W21068  17.659  17.989   4.619
55842W        W21069  34.022  16.528  11.337
55843W        W21070  43.453  40.299  11.748
55844W        W21071   4.271  12.280   4.671
55845W        W21072  40.489   3.126   2.764
55846W        W21073  31.131   6.752   3.253
55847W        W21074  42.050   4.740  12.474
55848W        W21075   8.062  14.325   3.580
55849W        W21076  42.022  24.989   0.837
55850W        W21077  29.694  30.518   3.642
55851W        W21078  18.509  41.131  10.173
55852W        W21079  32.574  11.599   3.165
55853W        W21080  41.355   6.243  11.843
55854W        W21081   2.725   2.017  13.994
55855W        W21082   9.309  44.001  11.920
55856W        W21083   3.620  34.662   1.373
55857W        W21084  43.298  18.303  11.070
55858W        W21085  21.715  29.163  13.987
55859W        W21086  31.957  31.232  12.611
55860W        W21087  37.169  37.277   1.826
55861W        W21088  28.959  36.157  11.630
55862W        W21089  34.884  31.927   5.341
55863W        W21090  27.193  40.901  10.809
55864W        W21091   3.848  31.019  10.700
55865W        W21092  11.603  23.694  12.754
55866W        W21093  10.459   9.105   0.422
55867W        W21094  17.801   0.958  14.246
55868W        W21095  36.953  11.029   0.783
55869W        W21096  27.149  44.426   1.763
55870W        W21097  11.347  42.493   3.862
55871W        W21098  37.310  19.711  14.433
55872W        W21099  13.611  30.004   0.282
55873W        W21100  11.194  24.291   1.385
55874W        W21101  36.339  36.111   0.916
55875W        W21102   8.837  29.901   0.374
55876W        W21103   4.262   6.381   0.157
55877W        W21104  34.708  33.069  12.096
55878W        W21105  25.564  24.468   2.175
55879W        W21106   4.382   8.540  14.531
55880W        W21107   0.302  40.549   0.487
55881W        W21108  27.659  41.244  13.057
55882W        W21109  26.746  30.202  11.146
55883W        W21110  32.400  22.390   2.335
55884W        W21111  24.075  39.838   0.754
55885W        W21112  33.614  20.985  12.558
55886W        W21113  33.489  15.169   1.863
55887W        W21114  34.616   0.483  14.381
55888W        W21115  12.642  14.783  14.862
55889W        W21116   2.516  20.779  10.597
55890W        W21117   1.501  16.119   1.874
55891W        W21118  25.565  18.761   0.451
55892W        W21119  36.235  33.833   3.056
55893W        W21120  41.581  38.432   2.328
55894W        W21121  17.288  15.087   4.668
55895W        W21122   3.387  32.831  11.622
55896W        W21123  15.929   0.205   2.836
55897W        W21124  21.646  43.820  11.177
55898W        W21125  30.512  24.639   0.572
55899W        W21126  34.410   0.389  13.077
55900W        W21127  19.693  12.555  13.293
55901W        W21128  40.624  39.531  12.199
55902W        W21129   3.656  27.077  12.027
55903W        W21130  43.783  20.741  12.001
55904W        W21131  41.184   5.237  11.644
55905W        W21132  37.188  24.728   4.499
55906W        W21133  15.623  14.172   4.963
55907W        W21134  16.053   9.371   0.102
55908W        W21135   4.697  13.598  12.982
55909W        W21136  11.935   7.505   2.234
55910W        W21137  32.881  16.347   0.821
55911W        W21138   5.198  37.044  10.638
55912W        W21139  30.073  20.707   2.620
55913W        W21140  28.869   3.664  12.941
55914W        W21141   0.014  11.472   3.550
55915W        W21142  42.954  35.490   3.237
55916W        W21143  11.168  33.386   0.741
55917W        W21144   0.741  10.671   2.405
55918W        W21145  31.407   9.404   2.744
55919W        W21146  20.630  29.347   0.741
55920W        W21147  41.264   0.937  10.649
55921W        W21148   9.380   1.563  14.377
55922W        W21149   3.296  40.064  14.915
55923W        W21150   3.346  42.039   4.956
55924W        W21151   5.745  29.954   0.303
55925W        W21152   0.028  29.035   0.252
55926W        W21153   0.508  44.086  11.657
55927W        W21154  35.596   6.268  13.467
55928W        W21155  18.850  34.806  14.824
55929W        W21156  29.065   7.680   2.275
55930W        W21157  37.264  24.841   0.221
55931W        W21158  32.381  18.132   3.624
55932W        W21159  34.121  13.240   0.922
55933W        W21160  41.438  17.846  11.204
55934W        W21161  15.318  36.760  11.668
55935W        W21162   6.128  24.507   2.711
55936W        W21163  25.223   4.050   4.509
55937W        W21164  26.067   8.151   2.032
55938W        W21165  43.124  14.286  14.276
55939W        W21166  29.012  21.783  12.190
55940W        W21167  27.768  33.485  10.803
55941W        W21168   3.412  17.230   4.607
55942W        W21169  14.144   6.370   2.369
55943W        W21170  29.340   0.729   4.108
55944W        W21171  29.901  21.287   0.333
55945W        W21172  44.927  37.621  13.733
55946W        W21173  29.058  33.075  10.956
55947W        W21174   3.057  38.637  12.574
55948W        W21175  30.458  34.929   0.006
55949W        W21176  14.638  40.596  11.344
55950W        W21177   1.356  19.974  10.016
55951W        W21178  17.810  33.085   4.588
55952W        W21179  29.774  43.928   4.438
55953W        W21180  41.614  24.610  11.454
55954W        W21181  17.005   2.754   1.348
55955W        W21182  23.676  33.468  11.265
55956W        W21183  17.249  27.079   2.046
55957W        W21184  36.376  40.816   3.539
55958W        W21185  42.205  13.764   1.887
55959W        W21186  13.952  33.665  13.921
55960W        W21187  29.502  32.863  14.032
55961W        W21188  16.473  34.033  13.580
55962W        W21189  19.628  15.590   3.735
55963W        W21190  10.690  17.656   1.959
55964W        W21191  41.116   7.023  10.603
55965W        W21192   4.685   5.295   0.866
55966W        W21193   0.814  37.569   5.182
55967W        W21194   4.737  31.027   4.256
55968W        W21195  42.891  36.969  13.902
55969W        W21196   3.685  25.822   1.728
55970W        W21197  18.205   8.821  10.951
55971W        W21198  27.791  35.431   0.555
55972W        W21199  43.926  17.933   5.367
55973W        W21200   6.469  28.647  10.679
55974W        W21201  16.311  31.707  12.455
55975W        W21202   1.288  18.905   5.525
55976W        W21203  30.833   2.414  14.981
55977W        W21204  39.876  19.881   4.502
55978W        W21205  15.090  17.014   0.552
55979W        W21206  28.455   5.860  11.525
55980W        W21207   2.332   3.632  10.924
55981W        W21208   8.940  14.282  13.051
55982W        W21209  39.417  18.358  13.838
55983W        W21210   4.946  40.397   2.836
55984W        W21211  33.545  33.171  12.757
55985W        W21212   4.600  39.545  11.037
55986W        W21213  22.059   3.042  14.682
55987W        W21214  25.840  20.065   3.737
55988W        W21215  10.571  29.712  12.758
55989W        W21216   6.081  18.733  10.079
55990W        W21217  15.443  25.180   2.496
55991W        W21218  11.052  25.486  10.605
55992W        W21219   7.924  34.430  13.041
55993W        W21220  28.039  20.061   1.243
55994W        W21221  31.604  22.041   4.481
55995W        W21222  21.731  11.276  13.980
55996W        W21223  36.325  22.216  12.475
55997W        W21224  32.874   9.548  12.364
55998W        W21225  10.819  39.393  11.892
55999W        W21226  40.789  29.003   0.925
56000W        W21227  36.871  28.667   2.702
56001W        W21228  23.105  35.814  13.228
56002W        W21229  42.915  24.674  11.647
56003W        W21230   3.732  30.885  14.370
56004W        W21231   1.811   3.211   3.317
56005W        W21232  21.682  15.770  10.613
56006W        W21233  34.013  44.341  13.039
56007W        W21234   8.920  26.332  11.305
56008W        W21235  36.430  40.431  10.135
56009W        W21236   0.958   8.124   2.618
56010W        W21237   0.872  37.299  11.927
56011W        W21238   8.715   3.807   4.153
56012W        W21239  40.267  20.180   4.716
56013W        W21240  37.817   6.500   2.757
56014W        W21241  21.340  31.224   4.252
56015W        W21242  22.011   0.447  13.854
56016W        W21243  26.967  18.862  14.532
56017W        W21244  11.901  37.061   0.440
56018W        W21245   2.985  33.989  11.471
56019W        W21246   9.568  28.946   0.912
56020W        W21247  24.126  11.339  11.697
56021W        W21248  25.283  17.249  13.678
56022W        W21249  24.571   2.523   2.271
56023W        W21250   3.713  14.549   1.748
56024W        W21251  35.586  14.408  10.606
56025W        W21252  14.590  43.157   3.459
56026W        W21253  26.545  29.877   4.674
56027W        W21254  23.136   7.140  12.380
56028W        W21255  17.077  28.007  13.379
56029W        W21256  34.945  18.594  13.064
56030W        W21257  27.080  25.554   4.567
56031W        W21258  20.424  18.014  11.102
56032W        W21259  21.105  27.989  12.526
56033W        W21260   6.002   8.182  13.533
56034W        W21261   6.683   7.230   3.264
56035W        W21262  19.377  28.660  11.095
56036W        W21263  31.769  37.060   2.655
56037W        W21264  13.510  23.216  12.632
56038W        W21265  21.247  34.250  10.467
56039W        W21266  29.159  15.358  14.268
56040W        W21267  35.778  34.942   1.343
56041W        W21268  33.869  18.104  10.655
56042W        W21269  10.246  24.766  11.336
56043W        W21270  30.543  31.010  14.854
56044W        W21271  44.430  39.256  12.975
56045W        W21272  14.802   5.529   1.340
56046W        W21273  13.627  24.108   3.663
56047W        W21274  33.085  32.955   0.793
56048W        W21275  34.298  16.509   3.386
56049W        W21276  27.692  30.346   2.123
56050W        W21277  23.628  17.864  14.255
56051W        W21278  12.852  26.139   1.076
56052W        W21279  16.193  43.797  13.851
56053W        W21280  17.179  12.317   2.415
56054W        W21281  43.522  10.771   2.574
56055W        W21282  32.673  16.512   1.280
56056W        W21283  17.126  25.752   2.772
56057W        W21284  28.381   0.755   3.904
56058W        W21285  29.122   3.723   1.961
56059W        W21286  36.408   3.623   4.091
56060W        W21287  26.232   3.431   2.645
56061W        W21288  25.571  44.595   4.740
56062W        W21289  11.477  13.736  12.570
56063W        W21290  19.320  11.544   3.275
56064W        W21291  14.365   5.738   4.111
56065W        W21292  18.797  39.620  12.990
56066W        W21293  16.839  40.680  11.025
56067W        W21294   7.939  41.673   1.888
56068W        W21295   2.848  28.818   3.684
56069W        W21296  28.351  15.219   3.238
56070W        W21297  19.772  33.910   0.383
56071W        W21298  42.576  39.628  14.982
56072W        W21299   5.318  34.139  14.608
56073W        W21300  24.665  10.100   3.242
56074W        W21301  28.579   1.278   0.414
56075W        W21302   4.038  12.860   1.956
56076W        W21303  43.428  41.688   4.624
56077W        W21304   8.575  26.693   0.589
56078W        W21305  20.093  19.038  11.997
56079W        W21306  30.165  40.784  11.470
56080W        W21307  37.363  44.089   0.418
56081W        W21308  12.242   3.488  13.858
56082W        W21309  18.516  36.569   2.058
56083W        W21310  38.831  25.598   0.763
56084W        W21311  31.026  10.292  13.326
56085W        W21312  10.688   3.716   4.112
56086W        W21313  36.512  40.862   0.726
56087W        W21314  16.157  19.057   0.382
56088W        W21315   7.211  22.275   2.297
56089W        W21316  27.146   6.348  12.887
56090W        W21317  21.800  17.632   4.582
56091W        W21318  32.102  23.808  11.148
56092W        W21319  29.601  39.807   2.543
56093W        W21320   1.298  26.283  14.990
56094W        W21321   4.212  17.897   4.571
56095W        W21322  10.730   6.915   0.888
56096W        W21323  27.237   0.397   0.258
56097W        W21324  10.328  10.792   2.170
56098W        W21325  19.107  26.221  11.085
56099W        W21326  28.126  15.270  10.603
56100W        W21327  22.273  32.047  11.250
56101W        W21328  20.467   5.397  10.950
56102W        W21329  24.577   3.764  14.447
56103W        W21330  11.776   0.829  11.703
56104W        W21331  42.157   3.023   3.703
56105W        W21332  36.034  34.969  11.025
56106W        W21333   9.433   5.915  13.930
56107W        W21334  19.722  38.045   2.727
56108W        W21335  14.632  44.818   2.779
56109W        W21336  32.099  11.397  14.276
56110W        W21337   9.897   3.350  12.064
56111W        W21338  41.903   6.781  11.717
56112W        W21339  17.777  18.649   0.868
56113W        W21340  16.151   6.800   0.406
56114W        W21341  29.632  37.344   0.973
56115W        W21342  33.550  12.721  14.391
56116W        W21343   3.388  32.857   2.766
56117W        W21344  22.861  43.391  12.958
56118W        W21345  10.576  41.821   3.662
56119W        W21346  24.503  27.336   0.404
56120W        W21347  41.742  10.561  11.655
56121W        W21348  17.348   1.867   4.126
56122W        W21349   5.754  39.751   1.845
56123W        W21350  19.860  38.895   3.152
56124W        W21351  41.581   3.264   4.772
56125W        W21352  14.266  29.118  11.072
56126W        W21353  42.419  15.614   4.214
56127W        W21354  22.333   0.628  12.530
56128W        W21355   5.912  39.105  13.454
56129W        W21356   8.162  25.365  12.888
56130W        W21357   3.788  31.968   3.403
56131W        W21358  40.227  40.460  11.321
56132W        W21359   1.821  10.373  10.927
56133W        W21360  13.724  39.322  13.419
56134W        W21361  31.915  38.749   1.229
56135W        W21362   0.502  12.172   0.070
56136W        W21363  35.675  39.762   4.261
56137W        W21364   8.676  18.782  14.906
56138W        W21365  19.699  13.173   1.853
56139W        W21366   2.861  22.347   9.782
56140W        W21367  27.236   7.951   1.252
56141W        W21368  16.642  18.766  11.203
56142W        W21369  42.498  23.282   0.173
56143W        W21370  36.428   8.594  12.642
56144W        W21371  25.096   3.006  14.474
56145W        W21372  31.907  41.938  11.218
56146W        W21373   9.649  33.572   3.938
56147W        W21374   8.342  30.504   1.435
56148W        W21375  37.320  23.671   4.579
56149W        W21376   3.230   6.231  12.621
56150W        W21377  33.901   9.286  13.987
56151W        W21378  35.435  28.154   3.468
56152W        W21379   7.790  11.930   1.865
56153W        W21380  16.293   2.992  12.467
56154W        W21381  29.816  33.471   3.691
56155W        W21382  39.931  26.701   1.913
56156W        W21383  22.665   1.373   0.366
56157W        W21384  23.533  16.571   2.110
56158W        W21385  26.872  21.379  13.011
56159W        W21386  39.870  24.166   5.021
56160W        W21387  38.100  11.830   3.658
56161W        W21388  19.056   1.278  14.038
56162W        W21389   5.379   2.399  14.956
56163W        W21390  28.560   8.663  14.744
56164W        W21391  21.592  10.813  14.993
56165W        W21392  37.108   4.537  13.950
56166W        W21393   7.224   6.766   0.210
56167W        W21394  38.580  16.618   1.661
56168W        W21395  26.624  40.641   0.977
56169W        W21396  14.339  31.146   0.915
56170W        W21397  28.986   8.099  11.630
56171W        W21398  41.525  41.036   1.741
56172W        W21399  18.032  37.827  12.846
56173W        W21400  37.350   4.531  11.189
56174W        W21401  15.145  18.785  13.486
56175W        W21402  14.665  41.768   0.093
56176W        W21403  18.767  14.021   0.348
56177W        W21404  36.240  13.839  13.914
56178W        W21405  22.124  19.611   5.063
56179W        W21406  35.581  13.614   3.024
56180W        W21407  37.465   6.616   1.011
56181W        W21408   8.481  33.833  12.455
56182W        W21409  11.180  38.884   4.644
56183W        W21410   1.981   7.218   4.735
56184W        W21411   6.322  21.265   4.871
56185W        W21412  23.911   4.948  14.819
56186W        W21413   0.373  17.333  11.318
56187W        W21414  14.283  19.532  13.926
56188W        W21415  40.607  38.325  12.665
56189W        W21416  43.336   4.456   4.004
56190W        W21417  38.357   5.283   0.532
56191W        W21418  41.087  31.871  11.921
56192W        W21419  31.953  28.585  13.270
56193W        W21420  26.071   3.372   2.165
56194W        W21421  19.828  38.084  13.626
56195W        W21422  14.218  30.650  12.379
56196W        W21423  20.126   1.835  14.943
56197W        W21424  19.361  12.144   0.448
56198W        W21425  39.136  32.859  13.896
56199W        W21426  17.746  14.248   4.141
56200W        W21427  38.834   4.387   1.417
56201W        W21428  15.472   9.332   1.865
56202W        W21429  24.063   2.619  13.977
56203W        W21430  11.693   0.984  10.140
56204W        W21431  39.142  41.319   0.331
56205W        W21432  35.899  15.344   3.698
56206W        W21433  33.910   1.414  10.699
56207W        W21434  14.617  42.300  14.452
56208W        W21435  39.034  22.059  14.018
56209W        W21436  21.571  37.860   1.082
56210W        W21437  18.589  18.086  14.431
56211W        W21438  19.513   3.019   3.164
56212W        W21439  14.146  20.708  11.676
56213W        W21440  26.144   8.789  13.183
56214W        W21441  36.019   8.353  13.842
56215W        W21442  32.298  40.817   9.879
56216W        W21443  36.752  36.641   3.011
56217W        W21444  41.395  41.837   4.546
56218W        W21445  14.909  15.551  11.631
56219W        W21446  23.616  42.033  14.363
56220W        W21447   9.572   7.957   0.351
56221W        W21448  40.829   8.740   4.321
56222W        W21449  18.850   4.586  10.366
56223W        W21450  16.801  16.108  12.657
56224W        W21451  16.831   3.829  12.823
56225W        W21452  38.079  14.845  13.920
56226W        W21453  32.366   0.314  12.624
56227W        W21454  32.910  36.862   0.794
56228W        W21455  13.060   8.296   4.147
56229W        W21456   3.846   6.164   0.396
56230W        W21457  25.777  29.436   0.172
56231W        W21458  32.115   1.706   2.308
56232W        W21459  15.501  44.051   4.195
56233W        W21460  42.185  20.597  12.540
56234W        W21461   6.468  13.718   2.138
56235W        W21462  29.571   4.781  13.929
56236W        W21463  23.614  10.416  14.945
56237W        W21464  36.542   8.173  13.871
56238W        W21465  42.076   8.193  10.797
56239W        W21466  20.153   7.437  11.609
56240W        W21467   4.452  36.602   3.190
56241W        W21468  18.277  17.580   2.627
56242W        W21469  31.390  39.996   0.870
56243W        W21470  21.560  31.629  12.867
56244W        W21471  36.988  39.398  14.710
56245W        W21472  32.945  26.969  13.082
56246W        W21473  36.664  31.642  14.413
56247W        W21474  11.468  36.360   3.524
56248W        W21475  35.968  24.659   3.220
56249W        W21476   2.253  40.895  13.967
56250W        W21477  20.288   9.276   1.516
56251W        W21478  22.233  32.214   3.464
56252W        W21479  33.606  10.310  12.074
56253W        W21480  18.722  25.654   0.992
56254W        W21481  34.090  31.185   2.781
56255W        W21482  34.717  20.704   4.682
56256W        W21483   4.212  43.230  12.383
56257W        W21484  39.072  25.361   2.724
56258W        W21485  29.713  17.278   0.763
56259W        W21486   2.156  19.756  11.305
56260W        W21487  32.053  10.382   0.281
56261W        W21488  19.517  27.055   4.024
56262W        W21489  17.338   0.367  13.808
56263W        W21490  21.888   7.352   2.634
56264W        W21491  12.736   6.187   0.037
56265W        W21492  16.240  11.768  11.550
56266W        W21493  36.572  36.942  12.069
56267W        W21494  15.234  14.519  13.504
56268W        W21495   0.935  21.703   4.298
56269W        W21496   5.847  32.793  11.758
56270W        W21497   9.777  34.321  14.134
56271W        W21498  21.003   1.372  11.518
56272W        W21499   2.323  35.456   0.307
56273W        W21500  16.791  12.810   4.647
56274W        W21501   6.299  41.534   4.124
56275W        W21502  32.071  28.133   2.291
56276W        W21503  35.914  31.753  10.934
56277W        W21504  11.162   3.177   4.812
56278W        W21505  12.070  19.562  13.570
56279W        W21506  21.171  21.533  14.765
56280W        W21507  30.653   2.078   0.898
56281W        W21508  31.965  17.778   9.851
56282W        W21509   1.877  32.470  13.228
56283W        W21510  16.333  10.955   2.356
56284W        W21511  27.151  18.500   4.094
56285W        W21512  22.149   0.335   1.621
56286W        W21513  27.536  31.403   0.434
56287W        W21514  29.073  18.955   4.128
56288W        W21515  33.988  25.159   3.087
56289W        W21516  31.433  10.451   1.573
56290W        W21517  16.848  44.772   2.760
56291W        W21518   9.443  34.932  12.314
56292W        W21519   5.551  28.490  10.004
56293W        W21520  39.752  24.041   2.814
56294W        W21521  17.374  24.633   0.932
56295W        W21522  43.026   2.356  13.970
56296W        W21523  40.398  23.604  13.541
56297W        W21524  10.358  21.052   0.960
56298W        W21525  30.109  39.805   0.320
56299W        W21526   9.296  18.244   2.463
56300W        W21527  23.082  32.992   1.290
56301W        W21528  17.283  35.919  11.992
56302W        W21529  37.602  33.391   0.963
56303W        W21530  23.245  25.002   2.379
56304W        W21531   4.813  26.413  10.979
56305W        W21532  27.739   0.448   0.237
56306W        W21533  31.185  30.416  12.916
56307W        W21534   1.305  16.220  11.821
56308W        W21535   3.308   1.489   4.105
56309W        W21536  14.247  41.890   0.374
56310W        W21537  22.097   1.671   5.309
56311W        W21538   7.028   8.658   0.757
56312W        W21539  35.375   0.035   1.386
56313W        W21540  20.150  10.554  12.040
56314W        W21541   2.850   9.681  12.248
56315W        W21542  10.382  16.456  13.897
56316W        W21543  36.658  38.652  14.437
56317W        W21544  18.861  17.800   4.397
56318W        W21545  38.371  44.433   1.893
56319W        W21546  43.364  16.547   1.279
56320W        W21547  43.035  42.794   1.053
56321W        W21548  28.562  24.117   2.482
56322W        W21549   0.837   0.955  13.019
56323W        W21550  12.784  23.302  10.834
56324W        W21551  37.316  18.144  14.888
56325W        W21552  31.420  14.476   3.645
56326W        W21553  43.174  23.169   5.124
56327W        W21554  19.161  20.985   2.221
56328W        W21555   7.405   1.027   2.216
56329W        W21556  20.227   3.107  11.966
56330W        W21557  35.352   3.194  13.005
56331W        W21558  21.649  29.205  12.485
56332W        W21559  24.420  23.198   3.034
56333W        W21560  28.604  33.086  11.199
56334W        W21561  42.905  26.075  10.420
56335W        W21562  28.208   3.853  11.852
56336W        W21563  30.577  18.840  11.229
56337W        W21564  25.785  14.018   1.474
56338W        W21565   1.398  11.906   2.175
56339W        W21566  37.097  19.092   2.638
56340W        W21567   8.682  10.080   5.396
56341W        W21568  21.634  21.117   4.694
56342W        W21569  24.272  19.644   4.692
56343W        W21570  25.529  37.826   2.660
56344W        W21571   0.385  24.750  10.945
56345W        W21572  28.650  19.820   0.180
56346W        W21573   2.988   1.231  13.407
56347W        W21574  22.251  39.085  11.176
56348W        W21575  23.476  41.864  10.933
56349W        W21576   9.902  12.281  11.997
56350W        W21577  22.005  38.967  14.526
56351W        W21578  30.568   2.094  11.980
56352W        W21579  19.097   0.269   1.038
56353W        W21580   1.216  20.332   0.912
56354W        W21581  18.165   2.979   0.277
56355W        W21582   5.436  11.833   3.083
56356W        W21583  19.668  27.011  14.706
56357W        W21584   6.245  38.581  13.000
56358W        W21585   5.290  29.689  12.365
56359W        W21586  14.575  18.606  10.567
56360W        W21587  12.927   3.594  14.328
56361W        W21588  14.170  21.236  14.737
56362W        W21589  11.271  32.540   0.164
56363W        W21590  24.503   5.181  11.476
56364W        W21591  28.113   9.267   1.849
56365W        W21592  17.749  16.841  13.936
56366W        W21593  25.122   5.199   3.630
56367W        W21594   1.075  39.548  10.888
56368W        W21595   3.259   4.210  14.255
56369W        W21596  33.148  30.996   2.601
56370W        W21597  23.834  15.111  11.513
56371W        W21598  36.982   2.304  12.468
56372W        W21599  31.336   2.089   0.354
56373W        W21600  31.922  24.460   2.695
56374W        W21601   4.424   9.888   3.215
56375W        W21602  19.796  41.258   4.683
56376W        W21603  40.011  14.542   0.036
56377W        W21604   8.750  43.849  14.283
56378W        W21605  22.109  43.914  14.834
56379W        W21606  24.171  35.565  11.974
56380W        W21607  21.680  34.890  14.743
56381W        W21608  40.957  25.936  12.791
56382W        W21609  40.564  38.393   4.649
56383W        W21610   0.153   7.629  13.811
56384W        W21611   7.414  37.973   1.874
56385W        W21612   0.044  41.343  14.297
56386W        W21613  29.893  43.320  11.979
56387W        W21614  32.667  15.991   0.508
56388W        W21615  13.276  19.742   0.745
56389W        W21616  30.388   8.059   3.362
56390W        W21617  16.132  33.909   2.368
56391W        W21618   1.337  32.242   4.618
56392W        W21619  11.847  36.362  12.189
56393W        W21620   1.188   7.589   2.673
56394W        W21621  43.771  22.576   1.071
56395W        W21622  41.038  36.522  13.624
56396W        W21623   5.739  30.213   2.720
56397W        W21624  14.275  37.887   2.889
56398W        W21625  21.014  24.534   1.275
56399W        W21626  22.447  18.517  11.209
56400W        W21627  28.939   3.645  12.435
56401W        W21628  13.290   7.852  13.941
56402W        W21629  37.080   7.056  11.261
56403W        W21630  43.801  30.019   2.919
56404W        W21631  20.643  21.986  11.258
56405W        W21632  21.001  12.468   3.291
56406W        W21633  19.290  41.932  10.929
56407W        W21634  24.058  22.162   4.612
56408W        W21635  15.254  17.085  14.257
56409W        W21636  39.085  33.504  14.834
56410W        W21637  33.140   4.315  13.493
56411W        W21638   1.640   6.366  14.493
56412W        W21639  15.869  21.302  13.561
56413W        W21640  32.917  23.488  13.329
56414W        W21641  10.318  28.980  13.068
56415W        W21642  15.602  23.975   2.649
56416W        W21643  24.167   6.578  12.069
56417W        W21644  13.697  28.398  12.538
56418W        W21645   6.660   6.326  12.634
56419W        W21646  34.556  40.542   2.077
56420W        W21647  11.806   4.289   4.726
56421W        W21648  40.848  21.607  14.959
56422W        W21649   4.289  12.806   1.505
56423W        W21650  42.499  31.566   2.353
56424W        W21651   9.711  41.852   3.167
56425W        W21652   9.841  24.466  11.566
56426W        W21653  42.971   1.384  13.707
56427W        W21654  28.750  27.970   0.669
56428W        W21655  25.069  42.923   1.290
56429W        W21656   6.215   6.379  14.497
56430W        W21657  39.769  37.739   1.209
56431W        W21658  22.212  37.366   3.268
56432W        W21659  27.989  13.670  13.581
56433W        W21660  41.458  18.437  13.854
56434W        W21661  12.760  42.100   1.013
56435W        W21662   6.972  42.327  11.939
56436W        W21663  34.824  29.216  12.501
56437W        W21664  35.996  35.894  12.995
56438W        W21665  10.823  25.191  14.778
56439W        W21666   7.752  41.793  14.851
56440W        W21667   9.417  16.605  12.956
56441W        W21668  31.458   4.964   4.590
56442W        W21669  18.121   0.946  10.716
56443W        W21670   6.726  16.586   0.945
56444W        W21671   1.469  27.064   3.547
56445W        W21672   0.874  30.693   1.755
56446W        W21673  28.070  23.151   4.249
56447W        W21674  21.536  23.013   2.222
56448W        W21675  43.435  30.636   1.419
56449W        W21676   9.299   7.255  13.022
56450W        W21677   7.954  14.760   3.261
56451W        W21678  11.284  12.839   2.232
56452W        W21679  16.347  28.028   1.404
56453W        W21680  31.454  31.979  10.681
56454W        W21681  35.602   1.932   1.518
56455W        W21682  26.649  24.512  11.170
56456W        W21683  20.200   2.219   1.248
56457W        W21684   2.707  41.956   4.395
56458W        W21685   2.529  31.400   3.181
56459W        W21686  34.254  34.305  12.503
56460W        W21687  11.613  41.828   1.324
56461W        W21688  39.123  34.588   4.244
56462W        W21689  18.378  38.572   4.581
56463W        W21690   2.191  25.005   1.422
56464W        W21691  15.077  30.096   0.440
56465W        W21692  15.635  38.778   0.144
56466W        W21693  21.835  27.164   4.132
56467W        W21694  31.993  39.268   2.822
56468W        W21695   1.199  10.123   1.790
56469W        W21696  19.979  41.826  12.996
56470W        W21697  20.064  35.800   0.863
56471W        W21698  37.263  39.989  13.963
56472W        W21699  39.971  25.471   4.487
56473W        W21700  27.971  42.461   3.850
56474W        W21701  39.421  15.669  12.147
56475W        W21702  25.689  30.985   3.028
56476W        W21703  33.940  23.767  11.156
56477W        W21704  30.568  30.055   1.676
56478W        W21705  17.635   6.733   0.951
56479W        W21706  44.991  23.589   0.610
56480W        W21707  29.866   2.604   0.311
56481W        W21708  39.940  35.129  11.503
56482W        W21709   7.435   1.816   4.698
56483W        W21710   7.893  10.235  13.747
56484W        W21711   3.847  20.216   1.486
56485W        W21712  39.447   3.844   2.841
56486W        W21713  25.692  37.284   2.876
56487W        W21714  37.506  12.862   1.538
56488W        W21715  26.536  34.073  11.950
56489W        W21716  39.124  15.984   1.910
56490W        W21717  36.589   3.852   0.395
56491W        W21718  34.336  13.026   1.891
56492W        W21719   8.181  12.489   2.144
56493W        W21720  41.499  14.652   1.306
56494W        W21721  44.741   4.501   4.051
56495W        W21722  15.701  11.895  11.568
56496W        W21723  11.177  35.009  13.528
56497W        W21724  13.633  30.911  14.892
56498W        W21725   6.577   0.027   3.130
56499W        W21726   4.951  37.437   4.015
56500W        W21727   8.540  43.743   0.690
56501W        W21728  25.156   7.276   1.826
56502W        W21729  34.290   2.646   0.918
56503W        W21730  31.425  34.484  13.872
56504W        W21731  16.568   8.330   1.684
56505W        W21732  29.107  44.475   1.480
56506W        W21733  12.417  44.867   4.382
56507W        W21734  33.003   7.746  14.601
56508W        W21735   5.575   0.159   2.734
56509W        W21736  14.357  27.456   2.848
56510W        W21737  39.286   0.385  13.362
56511W        W21738  20.299  37.472   4.570
56512W        W21739  11.641  33.047   1.835
56513W        W21740   5.420  40.934   3.137
56514W        W21741  33.540  31.047   4.577
56515W        W21742   5.503  34.504   4.739
56516W        W21743  24.301  39.132  11.943
56517W        W21744  15.139  16.699  14.578
56518W        W21745  13.228   4.984   4.699
56519W        W21746  27.945   0.786  13.945
56520W        W21747  43.132  40.526  13.630
56521W        W21748   4.806  34.139  12.363
56522W        W21749  30.484  29.490  10.489
56523W        W21750  24.515   1.073   2.202
56524W        W21751   4.861   0.403   2.199
56525W        W21752  23.455  19.792   2.850
56526W        W21753   2.115  24.568  13.105
56527W        W21754  30.801   8.046   3.739
56528W        W21755  21.223  35.368   0.453
56529W        W21756   7.697  13.187  14.203
56530W        W21757  17.330  22.028   0.993
56531W        W21758   5.608  38.031   1.268
56532W        W21759  32.426  22.404   4.109
56533W        W21760   6.381  17.257   1.786
56534W        W21761  42.325  14.567   1.765
56535W        W21762  38.954  26.737   1.340
56536W        W21763  38.143  20.573   1.807
56537W        W21764  31.309  10.761  11.711
56538W        W21765  14.156  34.905   0.743
56539W        W21766  16.807  12.636  14.885
56540W        W21767  19.277  13.309   0.306
56541W        W21768  32.473  35.587   3.735
56542W        W21769  25.784  27.631   1.987
56543W        W21770  15.321  32.536  12.910
56544W        W21771   0.735  41.664   2.841
56545W        W21772  43.236  23.335   3.562
56546W        W21773  16.000  13.635   0.366
56547W        W21774  15.865   1.728  14.969
56548W        W21775   3.334   4.710   4.200
56549W        W21776  40.853  11.801   1.265
56550W        W21777   0.440  43.559   2.602
56551W        W21778  33.858   4.842  12.531
56552W        W21779   6.274  31.060  11.743
56553W        W21780   9.364   4.228  13.364
56554W        W21781  17.035   7.234  11.402
56555W        W21782  27.574  39.240  14.781
56556W        W21783  22.750  42.812   3.250
56557W        W21784  34.308  27.574  13.081
56558W        W21785  36.483   3.466   4.711
56559W        W21786  41.772  41.982   2.737
56560W        W21787  37.621  28.008   2.670
56561W        W21788  18.968  40.726   4.030
56562W        W21789  37.862  20.069   4.576
56563W        W21790  23.994   9.145  13.501
56564W        W21791  42.569  29.331   0.436
56565W        W21792  37.956  22.467   2.723
56566W        W21793  30.378  27.824   1.311
56567W        W21794  10.740   4.168   2.792
56568W        W21795  12.334  31.504  14.812
56569W        W21796   0.360  10.927  13.064
56570W        W21797   3.378  44.133  12.130
56571W        W21798  30.721   8.659   2.189
56572W        W21799  18.084  20.118   1.258
56573W        W21800   1.250  19.808   0.963
56574W        W21801   6.491   3.881  14.561
56575W        W21802   6.921  21.409   4.417
56576W        W21803  26.098  15.323   3.685
56577W        W21804  13.903  23.683   3.784
56578W        W21805  44.222  10.190   1.761
56579W        W21806   2.823  36.062   3.886
56580W        W21807  29.338  26.056  13.344
56581W        W21808  14.546  36.470   3.166
56582W        W21809  12.029  28.985  11.806
56583W        W21810   4.896  28.436   9.421
56584W        W21811  10.223  31.472   2.583
56585W        W21812  31.919  19.796  12.258
56586W        W21813  23.017  11.355   4.000
56587W        W21814  36.593  39.846   1.362
56588W        W21815  31.048  25.192  14.980
56589W        W21816  28.036  33.062   0.851
56590W        W21817  36.639  15.127  12.942
56591W        W21818   7.960  16.697   4.432
56592W        W21819   9.369  42.703   4.046
56593W        W21820   2.806   6.954   2.659
56594W        W21821  20.751  16.653  14.805
56595W        W21822  20.409   4.766  13.748
56596W        W21823  32.191  11.623   1.825
56597W        W21824  23.736  38.460   2.014
56598W        W21825  29.237  37.454  13.744
56599W        W21826  12.514  28.411  12.149
56600W        W21827  34.512  18.594   3.359
56601W        W21828  10.375   7.208  13.957
56602W        W21829  34.688  44.064   5.026
56603W        W21830   1.852  35.324  14.580
56604W        W21831  16.666   7.132   4.635
56605W        W21832  41.022   1.494   0.922
56606W        W21833  38.989  36.352   9.785
56607W        W21834   7.862  14.983  11.611
56608W        W21835   9.735  29.917   2.692
56609W        W21836  29.356  44.766  12.556
56610W        W21837   3.141  34.918   3.433
56611W        W21838  30.314  13.702   2.806
56612W        W21839   9.682  39.070   3.114
56613W        W21840   6.343  30.983   4.362
56614W        W21841  44.481  11.750  12.164
56615W        W21842  41.026  31.455   3.594
56616W        W21843  20.969   2.956   0.825
56617W        W21844  40.973  36.340   0.627
56618W        W21845   9.771  15.177   2.975
56619W        W21846  40.569  30.557  14.714
56620W        W21847  18.931  40.605  14.392
56621W        W21848   0.954  29.477  13.787
56622W        W21849  33.469  18.181   3.764
56623W        W21850  22.193   5.837  14.501
56624W        W21851  10.830  37.076   5.538
56625W        W21852  25.925  33.633  11.914
56626W        W21853  23.054  20.743  11.585
56627W        W21854  31.211  28.900   1.905
56628W        W21855  13.741  35.839  12.420
56629W        W21856   2.897   2.763   3.275
56630W        W21857  35.358  39.459   0.818
56631W        W21858  21.742  18.035  12.751
56632W        W21859  31.166  35.985   0.051
56633W        W21860  28.625  18.060  11.462
56634W        W21861  21.581  27.070  14.693
56635W        W21862  29.733  44.854   3.450
56636W        W21863   9.452  20.193   1.030
56637W        W21864   7.085  33.590   2.729
56638W        W21865  28.707   9.401  14.986
56639W        W21866   5.440  27.557   0.008
56640W        W21867  39.239  14.396  12.131
56641W        W21868  23.702  16.561  14.262
56642W        W21869  18.216  41.758   4.054
56643W        W21870  19.480   8.233  11.662
56644W        W21871   9.215  18.694   0.771
56645W        W21872  24.603  38.802   2.761
56646W        W21873   7.886   7.673   3.807
56647W        W21874  25.473  26.676   2.302
56648W        W21875  15.666  25.701   4.180
56649W        W21876  23.411  18.763   2.793
56650W        W21877   4.686  14.784   9.882
56651W        W21878  32.394  17.371  11.014
56652W        W21879  20.703  17.601  14.166
56653W        W21880  19.753  23.049  10.854
56654W        W21881   8.197  39.630   1.304
56655W        W21882   7.581  38.460  12.122
56656W        W21883  28.886  13.838   1.400
56657W        W21884  32.689  29.497   0.377
56658W        W21885   3.135  32.992  12.946
56659W        W21886  40.402  16.310  13.519
56660W        W21887  29.202  26.272   3.071
56661W        W21888   8.079  12.838   3.736
56662W        W21889   0.713  38.000   4.809
56663W        W21890   8.419   7.226   0.777
56664W        W21891  41.076   4.931   3.691
56665W        W21892  30.743  22.557  11.526
56666W        W21893  29.562  35.452   1.730
56667W        W21894  21.000  27.620  14.509
56668W        W21895   0.982  29.941   4.976
56669W        W21896   4.115  29.731   2.209
56670W        W21897  40.897  16.912   0.753
56671W        W21898  14.318  37.478   4.631
56672W        W21899  43.143   8.798   4.638
56673W        W21900  19.852  31.679   0.264
56674W        W21901  43.152  12.121   4.663
56675W        W21902  40.824  33.452   4.040
56676W        W21903  18.820   4.572  12.072
56677W        W21904  30.938  26.880   4.469
56678W        W21905  28.914  44.294  13.483
56679W        W21906  30.454  10.087  12.570
56680W        W21907   1.612   8.214  13.914
56681W        W21908  20.128  31.545   3.675
56682W        W21909   4.726  28.663   2.301
56683W        W21910   3.645  15.627  14.698
56684W        W21911   4.758  16.856  13.582
56685W        W21912  18.656  33.561   3.151
56686W        W21913  29.626  35.503  11.839
56687W        W21914  20.247  13.264   0.498
56688W        W21915  38.351  35.018  11.263
56689W        W21916  41.726  24.154   3.169
56690W        W21917   1.479  35.488   0.423
56691W        W21918  25.207  26.276  10.714
56692W        W21919  41.848  41.089  12.515
56693W        W21920   9.432  18.190  14.903
56694W        W21921   1.268   6.586  12.894
56695W        W21922  38.952  39.350   0.224
56696W        W21923  43.162  35.886   3.533
56697W        W21924   8.216  39.803   0.798
56698W        W21925   5.374  31.086   1.366
56699W        W21926  39.386  11.206   2.469
56700W        W21927  29.444  39.806   3.589
56701W        W21928  16.652  14.048  12.473
56702W        W21929  39.035  38.440  12.783
56703W        W21930  15.020  12.980   4.933
56704W        W21931  29.488   0.625  12.115
56705W        W21932  22.795  13.224  14.867
56706W        W21933  32.342  31.812   0.019
56707W        W21934  14.407  28.902   0.824
56708W        W21935  21.477  26.495  13.804
56709W        W21936   2.144  27.635  14.333
56710W        W21937   3.419  30.499   0.074
56711W        W21938  34.055   1.580   3.538
56712W        W21939  16.939  23.581   1.831
56713W        W21940  38.087  40.807   2.317
56714W        W21941  37.926  36.048   0.163
56715W        W21942  39.444   7.820   2.352
56716W        W21943   9.578  10.460  12.966
56717W        W21944  19.166  43.775  12.675
56718W        W21945   9.628  44.231   4.565
56719W        W21946  16.292   0.302  11.674
56720W        W21947   5.828  31.634  14.786
56721W        W21948  22.152  13.668  10.716
56722W        W21949  39.136  33.420   3.336
56723W        W21950  11.788   6.462   2.262
56724W        W21951  32.922  20.296  14.569
56725W        W21952  36.030  33.372  14.114
56726W        W21953  34.869   6.836   1.688
56727W        W21954   2.215  20.428   5.300
56728W        W21955  26.943   6.353   9.854
56729W        W21956  19.773  25.028  13.875
56730W        W21957  23.752  10.448   1.356
56731W        W21958  30.227   0.260  14.018
56732W        W21959  40.292  22.175   2.046
56733W        W21960  21.733   8.655  11.452
56734W        W21961   9.015  20.814   2.272
56735W        W21962  21.444  26.648  11.041
56736W        W21963  20.780   4.330   2.264
56737W        W21964  15.744   5.428  11.565
56738W        W21965  34.548  14.191   2.332
56739W        W21966  23.262  43.682   3.055
56740W        W21967  44.557  41.231  10.800
56741W        W21968  14.203  26.771   2.122
56742W        W21969  31.609   2.828  12.360
56743W        W21970   8.281  17.003   3.503
56744W        W21971  33.256  10.438  13.933
56745W        W21972  26.676   9.349   2.324
56746W        W21973  15.567  29.166   3.670
56747W        W21974  26.029  33.661   3.780
56748W        W21975  44.061  40.143  11.196
56749W        W21976   7.917  25.617  10.832
56750W        W21977   6.430  19.614   3.589
56751W        W21978  38.801  11.629   1.404
56752W        W21979   5.428  33.829  13.760
56753W        W21980  40.828  21.181  14.575
56754W        W21981  33.824   7.475  12.515
56755W        W21982   1.958  14.837   0.127
56756W        W21983  31.483  22.054  13.654
56757W        W21984  33.798  25.155  11.696
56758W        W21985  18.044  21.639   4.504
56759W        W21986  39.919  11.234  12.944
56760W        W21987   4.824  20.213   3.170
56761W        W21988  11.036  13.647  13.987
56762W        W21989  37.044   4.345  12.527
56763W        W21990  38.824  18.667  11.623
56764W        W21991  22.681  26.902  13.187
56765W        W21992  34.317  35.141  11.475
56766W        W21993  23.112  44.795   4.117
56767W        W21994  29.799  23.698   2.389
56768W        W21995  31.237  18.048  11.020
56769W        W21996   8.363  25.271  11.529
56770W        W21997  38.769  35.282   4.099
56771W        W21998   9.679  20.953   0.273
56772W        W21999  11.811   8.766  13.488
56773W        W22000  19.037  19.961   2.461
56774W        W22001  41.735  39.005  14.581
56775W        W22002  14.524   0.958   0.791
56776W        W22003  38.949  10.380  10.722
56777W        W22004  29.077  40.478   4.708
56778W        W22005  43.280  34.685   0.059
56779W        W22006   2.850  43.221  10.763
56780W        W22007  13.618  30.113   4.428
56781W        W22008  41.671  17.276   3.726
56782W        W22009  11.553  44.815   2.314
56783W        W22010  11.240  20.845   5.020
56784W        W22011  40.062  24.286  14.762
56785W        W22012  17.180  20.576  14.834
56786W        W22013  43.894  34.583   2.308
56787W        W22014  31.921  30.419   1.035
56788W        W22015  32.091  13.900   3.431
56789W        W22016  35.162  42.526   1.736
56790W        W22017  21.260  10.108   0.905
56791W        W22018  34.138  41.799  10.571
56792W        W22019  37.848  41.237   2.440
56793W        W22020  38.252  21.265   1.303
56794W        W22021  21.283  12.149  13.492
56795W        W22022  14.695   6.017   2.831
56796W        W22023  34.912  29.010   4.225
56797W        W22024  34.180  41.374  11.303
56798W        W22025  38.708   7.387   2.955
56799W        W22026   4.411  40.612   4.148
56800W        W22027  26.978   7.214  14.453
56801W        W22028   8.907  18.176  14.927
56802W        W22029  15.664  37.021  10.705
56803W        W22030  28.398   2.096   4.932
56804W        W22031  27.539  13.608  10.618
56805W        W22032  17.460  37.798   3.893
56806W        W22033   4.358  28.510  14.934
56807W        W22034  25.529   8.144   3.688
56808W        W22035  20.736  25.719  11.400
56809W        W22036  23.174  17.873  11.179
56810W        W22037  30.156  40.959  14.617
56811W        W22038  40.146  32.943   2.614
56812W        W22039  15.241  31.489   0.962
56813W        W22040  43.919  28.095  14.027
56814W        W22041  30.582  31.004  12.681
56815W        W22042   6.683  21.311  14.332
56816W        W22043  34.008  14.579   1.240
56817W        W22044  28.383  27.775   1.205
56818W        W22045  36.668  30.245  11.936
56819W        W22046   9.579  38.570  12.042
56820W        W22047  38.052  30.172   0.317
56821W        W22048  38.059  11.145   0.605
56822W        W22049  13.559   7.022  12.550
56823W        W22050  40.484  20.845   3.220
56824W        W22051  43.675   2.130  11.469
56825W        W22052   7.837  41.981  14.353
56826W        W22053  27.484  33.647   3.304
56827W        W22054   2.732  30.500   1.261
56828W        W22055  32.386  42.318  13.874
56829W        W22056  26.055  38.038   4.806
56830W        W22057  19.968   3.932   3.340
56831W        W22058   6.332  36.446   3.044
56832W        W22059   5.735  13.380   2.668
56833W        W22060  18.025  29.187   1.862
56834W        W22061  39.561   6.888   2.559
56835W        W22062   7.842  29.748   4.813
56836W        W22063  31.664   9.646  10.398
56837W        W22064  39.414  26.916   4.937
56838W        W22065  13.991  17.791   1.849
56839W        W22066  40.919  36.965   2.838
56840W        W22067  40.346  18.687   2.566
56841W        W22068  10.618   1.697   4.098
56842W        W22069   6.412   7.454  12.042
56843W        W22070  20.273  14.832  12.364
56844W        W22071   3.966   5.821  14.669
56845W        W22072  15.133   2.900  12.149
56846W        W22073  38.572  12.553  14.097
56847W        W22074  11.716   3.843  13.565
56848W        W22075  33.498  44.985  12.927
56849W        W22076  11.219  44.320   9.948
56850W        W22077  39.852  23.637   1.114
56851W        W22078  23.870  21.762   0.153
56852W        W22079  41.307  18.689   0.009
56853W        W22080  31.881  42.383  10.821
56854W        W22081  14.484  30.625   3.134
56855W        W22082  41.807  29.557   1.390
56856W        W22083   9.441  43.457   0.878
56857W        W22084  20.107  44.933   0.821
56858W        W22085  38.536  40.333   1.102
56859W        W22086  19.708   6.229   1.877
56860W        W22087  37.049  10.825  14.911
56861W        W22088  40.096  17.565  13.794
56862W        W22089  25.952  24.949   0.374
56863W        W22090   4.050  44.618   0.525
56864W        W22091  17.053  39.950  10.527
56865W        W22092  18.737   5.331   3.467
56866W        W22093  32.966  24.021  13.405
56867W        W22094  41.856   7.499   3.622
56868W        W22095  11.441   0.327   2.343
56869W        W22096  16.080  23.689  13.316
56870W        W22097  26.271  36.275   1.334
56871W        W22098  26.239   9.798  12.617
56872W        W22099  10.389  24.667   1.359
56873W        W22100  38.954  14.290  13.132
56874W        W22101  43.328  21.029  12.119
56875W        W22102  27.464  17.154  13.549
56876W        W22103   3.635  35.035   3.727
56877W        W22104  17.271  32.425   3.161
56878W        W22105  32.949  19.156   1.942
56879W        W22106  44.973  38.322   4.206
56880W        W22107  40.523  42.499   1.671
56881W        W22108  22.458  35.636   2.620
56882W        W22109   7.360  34.920   3.885
56883W        W22110  26.506  30.043  12.519
56884W        W22111  23.189  21.256  11.715
56885W        W22112   5.947  23.959  12.537
56886W        W22113   8.940  43.840   2.842
56887W        W22114  39.449  23.296  13.758
56888W        W22115  20.814  19.506  11.955
56889W        W22116   2.234  27.183   2.266
56890W        W22117  37.339  32.108   3.690
56891W        W22118  28.489  31.465   0.946
56892W        W22119  10.620  29.380  14.466
56893W        W22120   7.829  10.210  13.233
56894W        W22121  34.427  13.714   3.598
56895W        W22122  22.431  20.662  10.336
56896W        W22123  18.298  34.433   1.174
56897W        W22124  10.511  13.822  13.952
56898W        W22125  44.064  38.069  14.560
56899W        W22126  29.408  32.920   3.816
56900W        W22127   5.422  13.360  14.000
56901W        W22128  24.527  26.362   4.756
56902W        W22129  32.569  20.856  12.023
56903W        W22130  44.175  19.541   4.475
56904W        W22131  15.001  42.454   0.382
56905W        W22132  25.976   2.052   2.790
56906W        W22133  20.939   1.002   3.055
56907W        W22134  11.775  13.352   5.024
56908W        W22135  37.569  43.567   2.291
56909W        W22136  17.396  10.115  10.724
56910W        W22137  37.554  21.206   2.247
56911W        W22138  25.638  15.255  14.344
56912W        W22139  19.059  12.582   0.605
56913W        W22140  14.644  18.783  11.899
56914W        W22141   8.048   8.225  10.513
56915W        W22142  30.114  43.405   2.864
56916W        W22143  44.512  17.836   0.334
56917W        W22144  35.569  22.148  12.806
56918W        W22145  33.465  39.537   2.753
56919W        W22146  18.752   3.270   5.171
56920W        W22147   5.354  22.948   3.349
56921W        W22148  28.316  26.381   2.725
56922W        W22149  27.681  33.454   0.710
56923W        W22150  17.640  25.500   1.371
56924W        W22151  29.003  38.583  13.473
56925W        W22152   8.993  30.733  10.626
56926W        W22153   7.766  36.373   1.894
56927W        W22154   4.743  15.024   1.780
56928W        W22155  17.066  27.016  10.673
56929W        W22156  42.959  13.281  13.381
56930W        W22157  16.151  40.233   0.924
56931W        W22158  42.032   5.523  11.151
56932W        W22159   0.878  40.994   1.214
56933W        W22160   3.248  39.874   2.384
56934W        W22161  39.895  30.678   1.184
56935W        W22162  41.090  36.497  11.117
56936W        W22163   2.293   4.476   4.635
56937W        W22164  29.368  12.323  13.892
56938W        W22165  31.466  27.677   9.811
56939W        W22166  16.574   6.478  12.428
56940W        W22167  35.946  29.745  14.391
56941W        W22168  30.699  14.494  14.755
56942W        W22169  17.098  23.094   4.347
56943W        W22170  20.633  21.937  13.992
56944W        W22171  39.638  17.216  11.164
56945W        W22172   7.713  27.696   2.235
56946W        W22173  30.146  39.276   0.296
56947W        W22174  41.485  30.781  13.509
56948W        W22175  42.602  28.610  14.785
56949W        W22176  40.567  32.191   4.223
56950W        W22177  15.126  24.768  11.401
56951W        W22178   0.033   6.204  14.638
56952W        W22179   6.274  22.122  14.121
56953W        W22180  22.687  13.081  12.590
56954W        W22181  28.008  17.371   4.117
56955W        W22182  42.827   8.730  12.538
56956W        W22183   6.437  43.604   3.170
56957W        W22184   4.974  32.012   4.071
56958W        W22185  18.471  26.105   1.216
56959W        W22186   7.920  30.867  11.146
56960W        W22187  15.348  20.744  11.127
56961W        W22188  35.922  35.531  13.598
56962W        W22189  23.829  41.348  12.610
56963W        W22190   4.229  30.760  14.498
56964W        W22191  16.286   7.667  12.037
56965W        W22192  34.563  28.412  11.070
56966W        W22193   2.458  23.120   3.684
56967W        W22194   5.451  11.811  10.727
56968W        W22195  41.183  11.244  12.430
56969W        W22196   3.042  31.620  14.125
56970W        W22197  28.180  16.586  14.638
56971W        W22198  41.423  32.969  10.705
56972W        W22199  40.050   7.032   1.849
56973W        W22200  42.327  27.107  11.545
56974W        W22201  41.382  43.906  14.919
56975W        W22202  22.705  41.380  14.049
56976W        W22203  29.523  36.798   9.870
56977W        W22204  34.676   5.856   2.752
56978W        W22205  11.822  34.148   3.583
56979W        W22206  42.791   8.724   4.116
56980W        W22207  24.964  11.924   4.614
56981W        W22208  16.387  12.241   1.738
56982W        W22209  31.571  31.509  13.442
56983W        W22210  42.485  16.022  14.865
56984W        W22211   0.486  13.848  12.505
56985W        W22212  26.011  33.872  10.696
56986W        W22213  36.437   7.793   2.194
56987W        W22214  43.483  25.239  14.884
56988W        W22215  39.911  43.554   3.100
56989W        W22216  27.720  33.190  11.229
56990W        W22217  34.898  21.260   3.552
56991W        W22218  34.880   7.453   3.639
56992W        W22219   5.491  32.926   3.892
56993W        W22220  29.443  19.517  14.377
56994W        W22221  29.437  26.216  14.226
56995W        W22222  43.570   9.155   0.591
56996W        W22223   4.221  27.150   2.358
56997W        W22224   2.896  44.916  10.629
56998W        W22225  43.475  10.609   3.554
56999W        W22226  40.369  24.017   4.465
57000W        W22227  34.001  27.712  12.481
57001W        W22228  35.071  36.711  10.097
57002W        W22229   2.230  39.843  12.023
57003W        W22230  25.702  39.572  11.211
57004W        W22231  13.549   5.335   0.173
57005W        W22232  18.073  18.294   1.468
57006W        W22233  37.313  17.760  12.414
57007W        W22234  10.669  10.377  10.763
57008W        W22235  22.402  28.629  11.662
57009W        W22236  34.515  14.522   4.638
57010W        W22237  39.978   3.624   2.708
57011W        W22238  33.664  15.996   0.497
57012W        W22239  17.594  30.092  10.766
57013W        W22240  10.436  29.109   1.519
57014W        W22241  27.073  14.651  11.008
57015W        W22242  35.985  23.241  12.022
57016W        W22243  10.538  15.891  10.776
57017W        W22244  21.520   7.009   0.364
57018W        W22245  11.296  31.586   1.688
57019W        W22246  16.479  35.071  14.369
57020W        W22247   2.031  10.197   3.709
57021W        W22248   6.245  37.654   5.228
57022W        W22249  14.063  32.483   1.936
57023W        W22250  35.925  41.060   3.646
57024W        W22251  37.284  36.490  14.678
57025W        W22252  22.256  34.413   4.399
57026W        W22253   5.887  19.256  14.834
57027W        W22254  24.054  16.565  12.051
57028W        W22255  15.440  18.354  13.478
57029W        W22256  24.412  25.746   1.176
57030W        W22257  11.225  22.892  12.518
57031W        W22258  42.493   1.441  13.905
57032W        W22259  42.987  25.613  14.140
57033W        W22260  17.709  43.221   3.158
57034W        W22261   9.182  44.422   2.024
57035W        W22262  15.352   3.831  10.821
57036W        W22263  18.779  35.320   3.474
57037W        W22264  12.081   9.148   4.273
57038W        W22265  23.490  22.663  12.141
57039W        W22266  15.754   4.190   3.771
57040W        W22267   3.857  12.555   4.844
57041W        W22268  20.991   3.888   9.952
57042W        W22269  27.616  30.474  13.264
57043W        W22270   8.224  24.138   1.688
57044W        W22271  38.116   6.224  12.715
57045W        W22272  40.063   3.530  12.413
57046W        W22273  20.153   5.915   4.560
57047W        W22274  15.748   8.564  12.013
57048W        W22275  26.310  41.758  11.240
57049W        W22276  33.589  29.135   1.961
57050W        W22277   4.833  31.740   3.098
57051W        W22278   5.983  12.251   2.673
57052W        W22279   3.407   8.831  10.879
57053W        W22280  15.586  32.054  14.593
57054W        W22281  22.979  38.991  14.376
57055W        W22282   7.458  26.647   4.149
57056W        W22283  20.148  34.645   1.126
57057W        W22284  34.650   7.796  13.546
57058W        W22285   7.305  30.952   2.903
57059W        W22286   1.508   7.691  11.930
57060W        W22287  22.986  14.246   0.073
57061W        W22288   4.854  34.388   0.753
57062W        W22289  28.619  14.731  11.519
57063W        W22290  22.594  13.157   1.384
57064W        W22291  22.219  31.612   4.165
57065W        W22292  33.973  30.933   3.275
57066W        W22293  42.338  42.819   0.234
57067W        W22294   2.245  15.598  14.796
57068W        W22295  14.149   8.020  14.565
57069W        W22296   3.498  39.144  13.502
57070W        W22297   9.528   7.981  14.457
57071W        W22298   7.710  39.857  12.466
57072W        W22299  20.902   4.219  14.514
57073W        W22300  32.202   6.902   4.769
57074W        W22301   4.226  20.571   2.143
57075W        W22302  15.257   7.979  10.780
57076W        W22303   6.667  44.773   3.594
57077W        W22304   7.162  37.114   1.826
57078W        W22305  10.853  43.301  10.742
57079W        W22306  30.595   3.715  13.822
57080W        W22307  23.670  24.771  14.354
57081W        W22308  19.056  15.083   1.676
57082W        W22309   6.748  29.725  14.383
57083W        W22310   2.342  39.068   4.300
57084W        W22311   0.590   8.830   4.116
57085W        W22312  23.747   3.767   5.231
57086W        W22313   1.466  10.668   4.461
57087W        W22314  42.255  33.141  14.684
57088W        W22315  20.203  35.349  13.890
57089W        W22316  42.352   6.179  13.161
57090W        W22317  41.386  21.040   0.234
57091W        W22318  38.460  24.053   3.747
57092W        W22319  30.006  33.945   3.702
57093W        W22320   6.028  21.524  13.300
57094W        W22321  16.673  19.904  11.102
57095W        W22322  31.505   3.149   2.328
57096W        W22323  27.474  20.361   4.501
57097W        W22324  31.325  35.821   5.011
57098W        W22325  41.283  28.156   4.028
57099W        W22326  17.539  29.098   2.776
57100W        W22327  43.408  15.457  12.609
57101W        W22328   2.372  13.565  14.973
57102W        W22329   4.268   8.939   3.433
57103W        W22330   3.784  39.045   3.132
57104W        W22331  17.628   2.144  11.086
57105W        W22332  29.150  11.881   1.182
57106W        W22333  32.322  34.906   4.652
57107W        W22334  37.870  26.256   2.835
57108W        W22335  19.222  15.579   1.508
57109W        W22336  29.612  14.860  11.388
57110W        W22337  10.925   2.825  12.605
57111W        W22338   2.327   3.243  14.390
57112W        W22339  30.046  20.789  11.638
57113W        W22340  21.753  19.606  13.125
57114W        W22341  36.041   4.788  13.103
57115W        W22342   2.879  18.321  13.467
57116W        W22343  16.531   2.168  13.701
57117W        W22344   8.874  23.731   4.552
57118W        W22345   7.742   0.404  11.181
57119W        W22346   6.198  33.466   4.831
57120W        W22347  29.584   2.442   1.717
57121W        W22348  23.693  18.518   3.135
57122W        W22349  22.140  25.933   4.124
57123W        W22350  27.621  39.017   2.742
57124W        W22351  12.219   3.440   3.229
57125W        W22352  13.361  15.752  11.057
57126W        W22353   2.625  29.185  13.772
57127W        W22354  34.693  11.167   4.361
57128W        W22355  23.146  36.343  13.147
57129W        W22356  26.262  30.605  10.387
57130W        W22357  11.595  43.534   2.443
57131W        W22358   1.751  34.380  14.995
57132W        W22359  29.036  43.786  13.567
57133W        W22360  15.892  44.388   0.116
57134W        W22361   4.885  19.585  10.097
57135W        W22362  27.158  26.247  10.933
57136W        W22363  41.284  27.562   0.566
57137W        W22364  34.354  44.247  14.894
57138W        W22365  23.168  40.476   0.385
57139W        W22366  43.527  39.043   1.675
57140W        W22367  40.274  20.503  14.631
57141W        W22368  17.368  13.622  12.983
57142W        W22369  15.676  19.036  12.694
57143W        W22370  36.610  37.713   5.335
57144W        W22371  21.041  31.805   3.213
57145W        W22372   4.555  41.845   3.230
57146W        W22373  33.099  23.202  10.781
57147W        W22374  19.590  10.398  12.878
57148W        W22375  23.874  14.327  11.971
57149W        W22376   5.920  31.298  12.912
57150W        W22377  37.853  27.439  14.863
57151W        W22378  32.480   1.858  12.145
57152W        W22379  24.731  41.399  12.859
57153W        W22380  27.389  12.663  12.378
57154W        W22381  12.042  11.180   3.293
57155W        W22382  43.020  26.487   4.675
57156W        W22383   8.053   0.002  11.251
57157W        W22384  18.539  30.190   3.276
57158W        W22385  26.626  36.424   0.421
57159W        W22386   3.936  16.109  10.715
57160W        W22387  13.516  39.396   3.509
57161W        W22388  28.541  12.713  14.359
57162W        W22389  10.279  19.403   2.369
57163W        W22390  40.502  35.807   0.857
57164W        W22391  11.278  37.861   1.058
57165W        W22392   2.434  25.490  12.491
57166W        W22393  30.420   1.000  10.673
57167W        W22394  28.024  41.376   1.306
57168W        W22395  16.203  30.258   2.293
57169W        W22396  23.821  29.453  12.079
57170W        W22397   5.278  25.609  13.069
57171W        W22398  10.092  22.581   5.065
57172W        W22399  36.284   3.446   1.872
57173W        W22400  19.618  14.699   0.077
57174W        W22401  17.546   5.955  10.604
57175W        W22402  40.007  40.064   0.859
57176W        W22403  12.326  10.230  13.963
57177W        W22404  32.150   3.106  12.447
57178W        W22405  40.328  26.990  13.108
57179W        W22406  23.755  31.547   0.283
57180W        W22407  35.055  13.069   3.991
57181W        W22408  15.455  28.922   1.613
57182W        W22409   6.784  39.082  11.254
57183W        W22410  18.363  39.509   4.085
57184W        W22411  11.096  16.807  14.954
57185W        W22412  31.191   1.513  11.009
57186W        W22413  23.562  32.023  11.903
57187W        W22414  10.810  34.347  13.749
57188W        W22415  37.342   3.445  10.322
57189W        W22416  39.015   4.748   3.032
57190W        W22417  29.544  39.468  13.960
57191W        W22418  21.712  44.332   2.424
57192W        W22419  26.030  33.824  12.406
57193W        W22420  30.993  16.164   2.261
57194W        W22421  11.147   7.009   2.197
57195W        W22422  22.993  12.714  12.360
57196W        W22423   7.690  36.557   1.425
57197W        W22424  31.782  17.793   2.740
57198W        W22425  42.791  10.552  10.644
57199W        W22426  18.800   6.401   0.175
57200W        W22427   1.800   2.302   4.691
57201W        W22428   4.105   7.637   4.912
57202W        W22429  24.142  42.567   3.968
57203W        W22430  27.879  10.323   1.669
57204W        W22431  25.255  19.389  13.036
57205W        W22432  38.553  43.526   3.329
57206W        W22433  37.502   8.249  14.037
57207W        W22434  18.230  42.580  13.801
57208W        W22435  11.459  25.506   1.466
57209W        W22436  17.993  16.642   2.838
57210W        W22437   5.827  37.544  14.081
57211W        W22438  16.977  24.019  13.794
57212W        W22439  18.573  28.222  11.168
57213W        W22440   2.885   7.737   1.619
57214W        W22441  16.731  31.351  11.977
57215W        W22442  38.845  43.362   4.604
57216W        W22443   4.074  43.977  13.994
57217W        W22444   1.538  10.863  13.581
57218W        W22445   6.736  41.383   4.330
57219W        W22446  40.825   8.212  12.138
57220W        W22447  25.203  29.086   2.802
57221W        W22448   7.348  35.180  13.340
57222W        W22449  28.957   1.446  14.696
57223W        W22450  44.371   0.959  11.711
57224W        W22451  43.229  37.076   3.300
57225W        W22452  23.189  14.760  14.919
57226W        W22453  40.912  32.173  11.508
57227W        W22454  26.804  43.818   0.864
57228W        W22455  20.440  14.267   3.273
57229W        W22456  32.625  24.228  12.451
57230W        W22457  33.651  10.113  13.813
57231W        W22458   2.854  25.520  14.129
57232W        W22459  43.961  15.996   2.414
57233W        W22460  24.035   3.325   9.848
57234W        W22461  20.579   6.831   4.788
57235W        W22462  32.937  18.619  11.978
57236W        W22463  31.156   4.379  14.885
57237W        W22464  13.867  19.097   0.628
57238W        W22465  42.025   1.205   2.408
57239W        W22466   6.254  17.611  14.318
57240W        W22467   1.456  10.294   2.214
57241W        W22468  18.503  39.008  10.386
57242W        W22469  38.905  16.611  14.586
57243W        W22470  18.137   3.169  14.212
57244W        W22471  36.947  18.771  12.669
57245W        W22472  15.212   3.985  14.782
57246W        W22473   2.405  38.857  13.114
57247W        W22474  32.418  11.193  13.767
57248W        W22475  42.600  35.344   4.065
57249W        W22476   5.056  44.568  11.101
57250W        W22477   4.737  35.373  13.304
57251W        W22478  19.827   4.084   4.359
57252W        W22479  38.453  19.133  10.399
57253W        W22480  24.320  40.365  12.580
57254W        W22481  41.938  35.206   3.181
57255W        W22482  18.363  21.978   0.776
57256W        W22483  25.987   3.500  13.927
57257W        W22484  42.432  27.752  12.576
57258W        W22485  22.393  29.512  12.152
57259W        W22486  24.008   8.830   3.223
57260W        W22487  24.486  31.628  14.025
57261W        W22488   6.264  43.057   4.344
57262W        W22489  19.710  37.475   4.138
57263W        W22490   0.819  11.115  14.358
57264W        W22491  43.976  23.110   0.245
57265W        W22492  31.891  24.194  13.875
57266W        W22493   8.258  11.246   4.783
57267W        W22494  24.605  19.260   2.300
57268W        W22495   9.553  29.554  10.519
57269W        W22496   1.998  29.091  11.868
57270W        W22497  34.082  13.347   9.890
57271W        W22498  36.273  44.809   2.826
57272W        W22499  11.223  26.617  14.056
57273W        W22500  15.982  21.010   3.090
57274W        W22501  39.762  19.071   1.728
57275W        W22502  11.281   4.315  11.419
57276W        W22503  43.981  13.295  11.520
57277W        W22504   2.322  31.404   2.221
57278W        W22505  39.348  21.528  13.161
57279W        W22506  20.051   5.154  12.114
57280W        W22507  30.656   0.441   2.288
57281W        W22508   6.257  10.299   1.313
57282W        W22509  36.664   8.374  13.031
57283W        W22510  25.981  24.784  12.421
57284W        W22511  38.061  10.378  10.413
57285W        W22512  38.879  18.555   1.483
57286W        W22513  36.990  43.941  10.732
57287W        W22514  14.609  36.963   4.665
57288W        W22515   8.421  36.045  11.480
57289W        W22516  18.214  29.916  12.029
57290W        W22517  37.916  39.026  14.221
57291W        W22518  10.881  12.421  11.636
57292W        W22519  27.156  24.596   1.393
57293W        W22520  39.285  19.689  11.490
57294W        W22521  11.443  23.296  11.269
57295W        W22522  24.476   8.358  14.026
57296W        W22523  13.084  14.637  12.081
57297W        W22524   4.720   7.948  11.940
57298W        W22525  39.884  40.536  11.671
57299W        W22526   3.339  33.592  14.095
57300W        W22527   3.770  22.378  11.970
57301W        W22528  30.560   6.160   4.511
57302W        W22529  43.750  35.576   2.210
57303W        W22530   0.521  25.209  11.672
57304W        W22531  44.358  12.267   3.582
57305W        W22532  36.511  23.230  12.767
57306W        W22533   0.232   3.740  11.682
57307W        W22534  21.666   7.950  14.397
57308W        W22535  36.400  40.742   2.478
57309W        W22536  22.301  16.673  12.372
57310W        W22537   8.918  19.528  13.283
57311W        W22538  42.070  10.299  13.266
57312W        W22539  32.460  18.525  13.919
57313W        W22540  30.148  44.853   0.811
57314W        W22541  25.816  13.089   2.639
57315W        W22542   5.780  30.214   1.831
57316W        W22543   9.418  12.501   4.040
57317W        W22544  13.693  43.841  11.912
57318W        W22545   0.476  15.046   4.534
57319W        W22546  26.765  21.680   5.046
57320W        W22547  27.041  42.385   4.988
57321W        W22548  25.538  32.150  14.520
57322W        W22549  16.159  27.582   3.211
57323W        W22550  35.110  32.986   4.332
57324W        W22551   0.728  40.442   3.263
57325W        W22552  28.510  17.250  12.044
57326W        W22553  33.649  21.163   4.170
57327W        W22554   7.769  34.958  14.260
57328W        W22555  38.434  23.262   2.187
57329W        W22556   6.769   2.304   2.598
57330W        W22557   2.361   3.670   2.172
57331W        W22558  43.141  39.979   3.027
57332W        W22559  43.926  31.874   1.734
57333W        W22560  40.228  25.114   1.751
57334W        W22561   5.868   7.572   4.488
57335W        W22562  17.284  42.572  14.850
57336W        W22563  18.148   7.381   3.849
57337W        W22564   0.551  25.716   2.928
57338W        W22565   1.757  19.232  14.837
57339W        W22566  22.576  16.891  11.952
57340W        W22567  42.381  26.947   4.525
57341W        W22568  18.539  30.134   4.135
57342W        W22569  14.487   2.615  11.544
57343W        W22570  14.352  34.479   0.517
57344W        W22571   8.187   8.839   3.477
57345W        W22572  31.468   8.609   1.436
57346W        W22573  30.291  37.039  13.055
57347W        W22574   3.986  28.075  10.443
57348W        W22575   3.230   3.717  13.300
57349W        W22576  14.170  21.283  13.033
57350W        W22577  31.893  23.268   0.811
57351W        W22578  15.826  14.151   1.054
57352W        W22579  21.071  44.317  14.040
57353W        W22580  23.009  35.396   4.204
57354W        W22581  10.015  14.143   0.957
57355W        W22582  10.172   4.010  13.410
57356W        W22583   6.709  42.740   3.699
57357W        W22584  15.600   1.297   4.094
57358W        W22585  24.563  26.897   0.638
57359W        W22586  11.828  39.270   2.939
57360W        W22587  34.320  21.774   4.162
57361W        W22588  27.144  43.866  12.436
57362W        W22589  34.069  15.537  13.922
57363W        W22590  44.089  16.482  11.095
57364W        W22591  23.541  22.309   4.523
57365W        W22592   8.272   8.373   3.841
57366W        W22593  29.085  14.366  14.033
57367W        W22594  38.135  35.399   3.641
57368W        W22595  20.510   6.956  12.880
57369W        W22596  30.347  43.762  14.853
57370W        W22597  44.708  19.582   1.094
57371W        W22598  20.872   6.255   2.855
57372W        W22599  40.403  28.397   1.453
57373W        W22600  27.454  37.024  11.071
57374W        W22601  43.598  28.369  13.708
57375W        W22602  13.707   3.654  11.518
57376W        W22603  40.528   6.571  13.353
57377W        W22604  27.169  25.929   1.836
57378W        W22605  13.097  29.664   4.094
57379W        W22606  21.058  28.476   2.738
57380W        W22607  10.271  24.195  11.521
57381W        W22608  25.626  33.845   1.446
57382W        W22609   0.748  10.732   1.090
57383W        W22610  38.795  34.743  14.399
57384W        W22611  30.369  44.721  13.895
57385W        W22612  17.731  42.599  11.551
57386W        W22613  14.646  20.110  13.387
57387W        W22614  34.602  27.703   0.098
57388W        W22615  34.183  17.085   5.041
57389W        W22616   7.348   9.448  11.876
57390W        W22617  24.728   6.212  10.668
57391W        W22618   0.362  20.725   2.659
57392W        W22619  42.687  26.792   4.944
57393W        W22620  44.354   1.275   2.078
57394W        W22621  36.017  12.681  11.656
57395W        W22622  24.113  27.142  13.796
57396W        W22623  37.976  34.153   4.158
57397W        W22624  44.761  15.042   2.821
57398W        W22625  10.980  10.227   4.646
57399W        W22626  34.898  44.504   9.586
57400W        W22627  32.546  23.742  13.575
57401W        W22628  13.110  39.317  11.906
57402W        W22629  40.768   8.020   1.153
57403W        W22630   3.912  43.948  13.446
57404W        W22631   2.312  11.837   2.456
57405W        W22632  10.765  17.791  11.118
57406W        W22633  35.598  38.102  11.514
57407W        W22634  43.874  25.094  12.496
57408W        W22635  11.151  30.153   4.512
57409W        W22636  35.127  15.390   0.601
57410W        W22637  31.246  29.447  12.428
57411W        W22638   7.614  44.957   3.301
57412W        W22639  36.736  33.874   3.836
57413W        W22640  23.163  34.450   1.376
57414W        W22641  19.287   5.263   2.117
57415W        W22642  27.734  16.900   5.097
57416W        W22643  42.928  35.841  14.709
57417W        W22644  18.925  10.829  14.379
57418W        W22645  25.795  28.070  10.740
57419W        W22646  35.056  14.780   3.967
57420W        W22647  21.990  33.886   0.385
57421W        W22648  12.648  18.776  10.788
57422W        W22649  28.145   2.913   4.223
57423W        W22650  17.080  14.746   3.339
57424W        W22651  18.248  24.566   0.886
57425W        W22652  12.760  10.154  11.187
57426W        W22653  33.139  27.239   1.778
57427W        W22654   7.214  32.670   0.921
57428W        W22655  30.465  33.852  11.486
57429W        W22656  25.780  25.592   1.815
57430W        W22657   5.974  19.193  11.393
57431W        W22658   8.441  40.078   1.220
57432W        W22659  41.857  33.996   2.277
57433W        W22660  11.554  22.966  14.222
57434W        W22661  18.244  10.633   3.477
57435W        W22662  30.609  37.507   0.994
57436W        W22663   2.947   4.835   4.537
57437W        W22664  12.771  12.038  13.202
57438W        W22665  20.219  38.424  10.927
57439W        W22666  12.363   4.948   2.711
57440W        W22667  40.634   4.368   4.112
57441W        W22668  41.689  34.556  14.441
57442W        W22669  10.262  37.498   0.008
57443W        W22670   4.629  36.062  12.404
57444W        W22671  35.911  33.372   2.225
57445W        W22672  29.851  36.433  11.101
57446W        W22673  14.155  19.666  14.641
57447W        W22674  11.597  28.637  10.690
57448W        W22675  10.124  44.083   1.639
57449W        W22676  34.518  18.967  11.857
57450W        W22677  22.305  12.133  10.411
57451W        W22678  39.491  36.338  11.204
57452W        W22679  40.116   1.724   2.605
57453W        W22680  41.483  39.458  11.806
57454W        W22681  25.408  16.471  10.792
57455W        W22682  13.654  29.928  12.553
57456W        W22683  16.713  30.555   0.231
57457W        W22684  28.287  20.592  12.490
57458W        W22685  27.422  36.336  11.527
57459W        W22686  16.392  25.157  12.413
57460W        W22687  25.089  31.525   4.261
57461W        W22688  25.238  39.241  12.255
57462W        W22689  19.445   9.390   3.733
57463W        W22690   6.939  14.231  10.327
57464W        W22691  24.342  14.087  11.027
57465W        W22692   5.876  19.576   3.353
57466W        W22693   1.747  29.374   3.650
57467W        W22694  39.351  43.641   4.522
57468W        W22695   1.631   8.047   0.965
57469W        W22696   9.094  12.697  11.471
57470W        W22697  43.058  24.418  12.607
57471W        W22698  44.441  38.961  10.546
57472W        W22699   4.209  42.980  11.106
57473W        W22700  40.446   4.392  10.711
57474W        W22701  17.269  42.747   2.329
57475W        W22702  12.446  33.655   4.948
57476W        W22703  28.858  27.532  11.628
57477W        W22704  20.056  35.821   4.253
57478W        W22705  20.535  23.204   2.916
57479W        W22706  31.480   8.102  14.769
57480W        W22707  43.909   1.369   3.733
57481W        W22708  32.124  27.028  11.701
57482W        W22709   1.375  37.604   4.804
57483W        W22710  30.901   6.957   0.979
57484W        W22711  35.095   6.699   4.136
57485W        W22712  38.656  30.064  12.309
57486W        W22713  25.636  41.940  11.992
57487W        W22714  32.462  29.321  11.621
57488W        W22715  30.391  38.566   2.981
57489W        W22716  37.296  19.039  13.982
57490W        W22717   6.628   6.680   2.393
57491W        W22718   3.076  36.866   3.091
57492W        W22719  13.590   0.005  14.723
57493W        W22720  34.712  34.171   2.006
57494W        W22721  16.343   1.683   2.268
57495W        W22722  18.298  39.857  11.662
57496W        W22723   4.317   9.183  12.103
57497W        W22724   8.351  22.006  14.943
57498W        W22725  25.492   5.683  11.981
57499W        W22726  36.621  35.997  13.769
57500W        W22727  14.723  29.714  13.102
57501W        W22728  25.453  21.704   0.813
57502W        W22729  24.045  34.667  12.109
57503W        W22730  43.057  32.894  11.134
57504W        W22731  36.206  39.885   4.053
57505W        W22732  26.113  23.975   2.118
57506W        W22733  17.115  21.089   0.509
57507W        W22734  24.595  30.520  11.857
57508W        W22735  39.544   5.059   2.633
57509W        W22736  18.629   3.824   4.651
57510W        W22737  13.099  39.134  11.253
57511W        W22738  29.487  18.128   1.681
57512W        W22739  35.972  37.519  14.141
57513W        W22740  39.578  28.224   3.382
57514W        W22741   1.523   0.798   3.272
57515W        W22742   2.968  13.684   0.924
57516W        W22743  19.351  39.234  12.604
57517W        W22744   9.717  25.480   3.515
57518W        W22745   8.282  10.117  14.908
57519W        W22746  11.719  41.024  10.366
57520W        W22747  24.129  31.153   0.355
57521W        W22748  13.330  37.212  12.472
57522W        W22749  19.678   1.017  10.529
57523W        W22750  28.138  22.686   2.631
57524W        W22751  30.147   1.201   3.767
57525W        W22752   8.305  13.128  12.915
57526W        W22753  32.214  33.088   3.337
57527W        W22754  35.367  23.942   0.324
57528W        W22755  41.342  25.516  13.374
57529W        W22756   6.916  12.873   2.015
57530W        W22757  36.855  38.979  11.032
57531W        W22758  31.775  21.253   1.716
57532W        W22759  37.976   6.687  13.131
57533W        W22760  10.590  26.481   3.721
57534W        W22761  14.068  15.728   4.033
57535W        W22762  11.380  17.061  13.433
57536W        W22763   6.185  28.189  11.983
57537W        W22764   0.767  25.114   1.919
57538W        W22765  23.500   1.366   2.285
57539W        W22766  35.704   2.434  13.735
57540W        W22767  15.064  13.863   1.449
57541W        W22768  43.143  10.332   0.633
57542W        W22769  42.302   7.493   1.854
57543W        W22770  13.460  13.893   0.986
57544W        W22771  24.707  12.443   1.222
57545W        W22772  14.256   8.609   1.884
57546W        W22773  19.574   2.751   1.181
57547W        W22774  28.956  18.859   2.584
57548W        W22775  11.120  30.637   1.257
57549W        W22776  37.236  28.723  13.958
57550W        W22777  16.028  20.008  14.391
57551W        W22778  16.381  36.411   4.390
57552W        W22779  16.818  34.408   3.358
57553W        W22780  40.381  19.213   1.451
57554W        W22781  14.124  32.065   0.652
57555W        W22782  36.419  12.988  11.660
57556W        W22783  12.083  41.678   3.262
57557W        W22784  35.871   1.905   3.600
57558W        W22785  15.640  11.943   0.786
57559W        W22786  25.485  36.485   1.557
57560W        W22787  42.864  25.574   1.781
57561W        W22788  23.496  27.087   1.774
57562W        W22789   4.859  15.549   0.337
57563W        W22790  30.878  31.352   3.371
57564W        W22791  20.383  37.759  12.763
57565W        W22792  20.373  40.269  13.487
57566W        W22793  27.957   1.958   3.332
57567W        W22794   0.832   7.161  13.468
57568W        W22795  17.190  25.258   1.525
57569W        W22796   6.362  24.487  13.070
57570W        W22797  12.736  37.769  13.519
57571W        W22798  36.028  17.825  13.448
57572W        W22799  34.099   8.619  11.727
57573W        W22800  18.665  14.776  14.773
57574W        W22801  12.613  26.854  14.837
57575W        W22802  22.486  39.732   0.469
57576W        W22803   7.693  27.675   4.553
57577W        W22804  26.866  40.130  13.212
57578W        W22805   3.189  11.936  14.864
57579W        W22806  11.632  44.450  10.264
57580W        W22807  30.185  25.927   2.391
57581W        W22808  11.576  22.636  12.006
57582W        W22809  31.995  38.145   3.626
57583W        W22810  26.053  41.702   3.780
57584W        W22811  40.439   2.749   1.807
57585W        W22812  25.660  37.895  14.609
57586W        W22813  41.883  28.892  13.911
57587W        W22814   8.925  32.317  12.676
57588W        W22815  15.557  38.577  11.157
57589W        W22816   1.030  12.380   2.791
57590W        W22817  21.679  11.816  14.847
57591W        W22818  39.114  23.100   4.621
57592W        W22819  17.472  23.115  10.326
57593W        W22820  15.979  17.340   3.368
57594W        W22821  26.967   9.118  13.516
57595W        W22822  43.429  27.696   1.938
57596W        W22823  35.312  41.453   0.206
57597W        W22824  28.379   5.356   1.672
57598W        W22825  26.297   1.464   0.818
57599W        W22826   4.161  36.981   1.745
57600W        W22827  32.589  20.547   0.345
57601W        W22828  43.111  33.846   3.373
57602W        W22829  10.557  16.688   1.736
57603W        W22830  43.812  31.392  14.809
57604W        W22831  29.560  40.666   4.715
57605W        W22832  23.181  18.801  11.984
57606W        W22833  34.764  10.015  12.127
57607W        W22834   7.648  33.327   4.641
57608W        W22835  29.809  33.687  13.018
57609W        W22836   2.073  24.538   0.058
57610W        W22837  10.667  28.197   0.003
57611W        W22838  12.789  15.248   3.376
57612W        W22839  27.319  35.148   1.295
57613W        W22840  25.483  30.198   2.412
57614W        W22841  19.086   6.834   2.858
57615W        W22842  21.120  24.296  14.607
57616W        W22843  14.412  39.445  14.054
57617W        W22844  24.641  33.596  14.481
57618W        W22845  42.926  30.572   1.617
57619W        W22846  21.207   6.625   2.710
57620W        W22847  29.260  37.748  13.169
57621W        W22848  18.685  24.613   2.590
57622W        W22849  44.381  14.853  12.467
57623W        W22850  35.958  35.086   3.650
57624W        W22851  27.222  20.094  13.448
57625W        W22852   1.018  15.879  14.261
57626W        W22853  28.745  21.542  12.600
57627W        W22854  15.130   4.134   1.679
57628W        W22855   6.334  20.538   4.304
57629W        W22856   4.016  33.516  12.893
57630W        W22857  32.865  43.705   0.650
57631W        W22858  33.242   5.675   4.520
57632W        W22859  32.209   0.359   0.451
57633W        W22860  43.079  40.889  14.011
57634W        W22861  40.512  28.540   0.929
57635W        W22862   5.615  17.766  10.758
57636W        W22863  29.596   6.073  10.227
57637W        W22864  34.064  38.191   4.882
57638W        W22865  23.123  16.821   0.629
57639W        W22866   8.500  26.807  12.986
57640W        W22867  38.462  36.435   0.383
57641W        W22868  15.634  18.455   9.819
57642W        W22869  12.789  39.989  14.853
57643W        W22870  38.106  18.678  14.987
57644W        W22871  31.437  22.756   4.822
57645W        W22872  17.370  29.606  11.745
57646W        W22873  22.605   1.464  14.501
57647W        W22874   4.373   9.887  13.913
57648W        W22875  31.188   7.819   0.226
57649W        W22876  42.383  12.697   0.314
57650W        W22877  22.823  26.627   3.144
57651W        W22878  41.433   9.843   4.664
57652W        W22879  38.749  29.634  14.248
57653W        W22880  40.097  34.861  10.649
57654W        W22881  11.079  34.612   3.991
57655W        W22882  39.201   2.903  13.174
57656W        W22883   0.021   4.639   4.570
57657W        W22884  15.245   0.698   1.341
57658W        W22885  35.441  40.971   2.151
57659W        W22886  23.133   0.901  13.475
57660W        W22887  24.991  27.947  11.152
57661W        W22888  25.197  28.604  13.830
57662W        W22889   4.360  28.417   4.829
57663W        W22890   5.630  28.351   4.313
57664W        W22891   7.975  42.979  13.329
57665W        W22892  18.301  21.629  14.499
57666W        W22893  14.472   9.262   3.669
57667W        W22894  14.049  28.254   4.575
57668W        W22895  29.062   4.894   4.855
57669W        W22896  34.883   1.941  13.794
57670W        W22897  32.517  29.041   2.586
57671W        W22898  33.982  37.559  13.606
57672W        W22899   7.878  21.768   3.623
57673W        W22900   7.224  41.322  14.256
57674W        W22901  17.595  40.431  13.271
57675W        W22902   9.904  20.373  11.157
57676W        W22903  14.143   3.931   4.543
57677W        W22904   0.789   1.458  13.762
57678W        W22905  10.999   9.425   4.951
57679W        W22906  33.696  29.657  11.239
57680W        W22907   2.294  24.626   2.889
57681W        W22908  38.428  22.289   2.497
57682W        W22909  32.760  33.255  10.949
57683W        W22910  39.756  13.753   4.057
57684W        W22911  14.316  18.763  14.944
57685W        W22912  33.559  41.543   0.349
57686W        W22913  44.720  23.631   1.977
57687W        W22914  22.023  16.097   3.782
57688W        W22915  25.667  32.464   3.314
57689W        W22916  35.628  39.614  10.939
57690W        W22917  11.979  24.224   4.431
57691W        W22918   5.675   8.899  12.035
57692W        W22919  32.835  26.450   9.730
57693W        W22920  44.817  32.680   0.760
57694W        W22921  26.828   3.679   3.237
57695W        W22922  25.018  37.391   0.951
57696W        W22923  15.268   0.133   3.612
57697W        W22924   7.179  42.434  10.613
57698W        W22925  39.054  33.009  12.335
57699W        W22926  18.686   2.999  13.481
57700W        W22927   3.315   5.701  11.597
57701W        W22928  20.005  39.391   3.164
57702W        W22929  23.908   6.395  10.352
57703W        W22930  22.794  32.962   0.827
57704W        W22931  19.403  35.199   1.172
57705W        W22932   5.448   8.924   4.298
57706W        W22933  22.943  17.641  12.683
57707W        W22934   3.886  13.186   0.736
57708W        W22935  33.961  29.291   1.265
57709W        W22936   4.272  18.866  10.981
57710W        W22937  19.100  42.463   4.294
57711W        W22938  26.185  21.053   1.832
57712W        W22939  24.134  43.894  10.253
57713W        W22940  40.980  43.677  10.833
57714W        W22941  12.176  37.559  12.197
57715W        W22942  32.833   8.675   3.586
57716W        W22943  29.255  35.605  12.581
57717W        W22944  11.393   6.182   4.496
57718W        W22945  19.617  40.787   1.784
57719W        W22946  44.073  18.123  14.478
57720W        W22947  21.601   6.985   3.536
57721W        W22948  13.994  11.879  12.918
57722W        W22949   9.581  33.995  13.305
57723W        W22950  39.341  19.656   3.797
57724W        W22951  22.892   0.732   1.730
57725W        W22952   8.050   5.442   0.409
57726W        W22953   5.063  10.463  13.813
57727W        W22954  34.982  19.012   4.572
57728W        W22955  31.709  16.386  11.989
57729W        W22956  32.912  22.628  14.074
57730W        W22957  16.257  20.531   2.322
57731W        W22958  13.049  29.953  11.565
57732W        W22959  19.184  10.969   3.369
57733W        W22960   0.740  29.571  12.085
57734W        W22961   5.055  16.577  12.736
57735W        W22962  22.618  17.096   3.875
57736W        W22963   0.398  13.277   2.653
57737W        W22964  19.046  31.023  10.691
57738W        W22965  15.101  18.598  14.469
57739W        W22966  13.383  18.220   2.246
57740W        W22967   8.457  39.290   3.643
57741W        W22968  40.230   1.281   3.306
57742W        W22969  34.697  16.206  11.059
57743W        W22970  14.656  18.979  13.440
57744W        W22971  38.848  11.827  11.105
57745W        W22972  40.890  19.160   0.655
57746W        W22973  10.504  10.534   3.941
57747W        W22974  30.454   0.811   0.378
57748W        W22975  23.996  26.318   0.254
57749W        W22976  43.982   5.079   3.708
57750W        W22977   3.385  42.249   3.637
57751W        W22978  28.252  44.477  12.142
57752W        W22979  20.898  29.925   4.287
57753W        W22980  30.456  40.042  11.206
57754W        W22981  25.793   9.573  14.893
57755W        W22982   8.815  20.311   4.374
57756W        W22983  25.674   9.654   2.480
57757W        W22984  24.029  17.295   4.259
57758W        W22985  35.848  15.188  14.901
57759W        W22986   5.358  24.572  12.976
57760W        W22987  11.774   4.753  10.238
57761W        W22988  34.666  35.812  11.959
57762W        W22989   2.967   8.998   2.692
57763W        W22990   6.367  11.301   3.853
57764W        W22991  25.248  20.293   0.948
57765W        W22992   4.281  30.376   1.041
57766W        W22993  41.852  12.750   4.566
57767W        W22994   4.056  10.766   2.770
57768W        W22995  17.573  30.908  14.941
57769W        W22996  10.123   4.798  14.939
57770W        W22997   4.159  29.702   3.706
57771W        W22998  44.934   5.819  10.947
57772W        W22999  18.116  31.263   2.779
57773W        W23000  10.765  40.823  14.940
57774W        W23001  33.007  42.302  12.301
57775W        W23002  39.811   4.737  10.288
57776W        W23003  16.688  30.071   2.443
57777W        W23004  31.602  44.536  14.016
57778W        W23005  43.997   8.859   3.692
57779W        W23006  41.650  41.388   4.595
57780W        W23007   4.089  43.020  14.946
57781W        W23008   4.368  15.066   2.386
57782W        W23009  19.243   7.470  14.115
57783W        W23010  10.412  39.398   0.715
57784W        W23011   8.114  23.990   1.169
57785W        W23012   7.442  17.105  11.145
57786W        W23013   9.110  20.328   2.307
57787W        W23014   7.466  18.251  10.507
57788W        W23015   4.990  43.386   1.807
57789W        W23016  16.755  44.531   1.110
57790W        W23017  43.813  19.504  11.186
57791W        W23018  17.682  11.642  14.520
57792W        W23019   6.369  23.105  11.133
57793W        W23020   8.730  33.588  14.152
57794W        W23021  36.893   7.926  12.938
57795W        W23022  39.656  41.309   0.234
57796W        W23023  16.316  24.168  13.277
57797W        W23024   3.565  16.390   4.070
57798W        W23025  30.209  23.559   4.163
57799W        W23026  26.505  17.497  10.556
57800W        W23027  19.247   5.877  13.435
57801W        W23028   9.880  12.592   0.995
57802W        W23029  33.506  32.013  13.441
57803W        W23030   0.410  12.948   4.572
57804W        W23031  25.945  21.781  14.728
57805W        W23032   9.850  29.593   2.071
57806W        W23033  33.207  43.329  13.955
57807W        W23034   3.634  10.176  13.361
57808W        W23035  39.146  12.129   5.042
57809W        W23036  25.613  44.368   3.074
57810W        W23037  41.123  18.319  13.015
57811W        W23038  39.970  11.722   2.447
57812W        W23039  18.986  10.394  11.499
57813W        W23040  18.601   2.000  14.916
57814W        W23041  10.406   6.332   4.604
57815W        W23042  11.253  28.490  12.411
57816W        W23043  41.970  35.768  12.908
57817W        W23044   0.500  10.829  12.135
57818W        W23045  23.198  18.739  14.566
57819W        W23046  12.184  41.416   0.740
57820W        W23047   3.786  11.115  12.617
57821W        W23048   1.066   4.255  14.975
57822W        W23049  44.845  13.748   3.395
57823W        W23050   5.850  29.531   3.079
57824W        W23051  13.606  39.212   1.371
57825W        W23052  15.156  23.482  11.522
57826W        W23053   0.231  23.937  12.131
57827W        W23054  35.490  37.070   0.428
57828W        W23055  17.264  43.386  12.461
57829W        W23056  36.041  24.694  12.348
57830W        W23057  42.482   7.796   1.196
57831W        W23058   8.818   6.526   4.588
57832W        W23059  32.395   0.892   2.865
57833W        W23060   3.904  18.203  10.663
57834W        W23061   0.396  17.804  11.499
57835W        W23062   9.700   0.630   4.615
57836W        W23063  36.781  24.968   0.367
57837W        W23064  21.717  11.923  14.342
57838W        W23065  10.137   2.504  13.950
57839W        W23066  33.872  16.789   1.926
57840W        W23067  23.550  44.727  13.642
57841W        W23068  38.298  43.744  13.653
57842W        W23069  35.399   5.881   4.425
57843W        W23070  14.139  17.698  12.482
57844W        W23071   8.007   2.759  14.225
57845W        W23072  43.076   8.158  13.530
57846W        W23073  34.138  38.416  13.506
57847W        W23074  35.555   0.389  13.591
57848W        W23075  23.076   4.935   4.084
57849W        W23076  26.914  14.392  11.438
57850W        W23077  30.350  24.016  13.941
57851W        W23078  34.389  18.065  13.566
57852W        W23079  23.571  30.349   3.557
57853W        W23080  11.625  32.680  14.818
57854W        W23081  31.670  43.693   4.271
57855W        W23082   0.364  39.336   3.563
57856W        W23083  26.442  43.967  13.807
57857W        W23084   2.780  30.622   3.065
57858W        W23085  10.781  40.163   1.268
57859W        W23086  19.295  12.540   2.744
57860W        W23087  34.986  35.680   5.136
57861W        W23088  41.447   7.341  10.932
57862W        W23089  21.290   9.770   2.877
57863W        W23090  19.246  32.142   2.361
57864W        W23091   4.323  36.109  13.900
57865W        W23092  37.616  36.839   4.100
57866W        W23093  36.840  14.674   2.324
57867W        W23094  14.217  40.049   0.227
57868W        W23095  15.180   6.810  13.607
57869W        W23096  42.418  22.084   2.799
57870W        W23097   6.840   3.779   0.292
57871W        W23098  35.977  26.561   1.479
57872W        W23099  29.849  41.553   4.913
57873W        W23100  11.016  40.157   4.087
57874W        W23101  30.062  38.132   2.278
57875W        W23102  41.017  20.187  12.114
57876W        W23103  29.189  20.368   4.241
57877W        W23104  13.136  19.085   2.015
57878W        W23105  39.722  11.851  10.777
57879W        W23106  16.275   2.297  11.159
57880W        W23107  25.144  30.988  14.919
57881W        W23108  44.694  24.925   1.461
57882W        W23109  40.875   2.009   0.964
57883W        W23110   9.388  22.202   2.168
57884W        W23111   7.461  26.211  12.487
57885W        W23112  28.039  12.667   0.099
57886W        W23113  15.303  10.125  12.589
57887W        W23114  15.372  22.569  12.953
57888W        W23115  30.915  13.054  11.262
57889W        W23116  21.542  40.459   2.169
57890W        W23117  14.239   5.214   0.978
57891W        W23118  14.298   5.245   2.351
57892W        W23119  18.746  32.107   1.028
57893W        W23120   2.983  37.588   1.669
57894W        W23121  11.655   1.017   4.013
57895W        W23122  14.930   7.467  10.892
57896W        W23123  34.026  42.455  12.149
57897W        W23124   2.289  15.110  11.493
57898W        W23125   5.665   3.748   2.629
57899W        W23126  31.512   3.752  13.467
57900W        W23127   5.762  20.498   2.314
57901W        W23128   4.602  14.769   5.041
57902W        W23129  19.387  32.360   4.198
57903W        W23130  33.482   6.721  10.613
57904W        W23131  29.494  40.012  13.779
57905W        W23132  18.034   1.373  12.538
57906W        W23133  27.142  40.624   3.805
57907W        W23134  34.512  36.827   3.410
57908W        W23135  24.160  13.585  12.375
57909W        W23136  41.794  19.631  14.607
57910W        W23137   9.600  10.223   3.914
57911W        W23138  28.158   8.426   1.683
57912W        W23139  33.069  28.314   4.556
57913W        W23140   3.914  33.017  13.065
57914W        W23141  19.940   2.013   3.229
57915W        W23142   0.398   9.174   4.605
57916W        W23143  18.187  25.985  12.450
57917W        W23144  20.223  41.903   4.173
57918W        W23145  34.598   4.919  11.952
57919W        W23146  27.458  17.970  10.791
57920W        W23147  41.899  34.084  14.549
57921W        W23148  18.697  16.818  14.234
57922W        W23149  34.476  30.747   4.146
57923W        W23150   0.461  10.318  14.230
57924W        W23151  40.785  33.614   1.657
57925W        W23152  23.061  21.027   1.452
57926W        W23153   6.323   2.819  11.991
57927W        W23154   9.572  13.644   0.396
57928W        W23155   6.714  24.550  14.295
57929W        W23156  12.057   7.627  14.336
57930W        W23157  35.086  18.224   0.483
57931W        W23158  29.412   5.043  14.855
57932W        W23159  12.741   1.377  15.000
57933W        W23160  42.760  42.025   0.039
57934W        W23161  24.026  26.203   4.695
57935W        W23162   8.621   0.963  11.957
57936W        W23163  37.459  28.983   0.319
57937W        W23164  26.117  44.324   0.715
57938W        W23165  41.070   2.261  10.549
57939W        W23166  44.262  37.318   1.370
57940W        W23167  15.133  39.922  12.435
57941W        W23168  21.372  29.463   1.420
57942W        W23169  30.581   7.296  13.577
57943W        W23170  14.836  14.878   3.348
57944W        W23171  39.107  32.385  10.053
57945W        W23172   3.368   3.249  12.496
57946W        W23173  16.776  12.546   1.837
57947W        W23174  40.990  44.725   1.937
57948W        W23175  11.677  43.423  13.078
57949W        W23176  31.900   5.708   3.699
57950W        W23177  26.426  10.018  13.491
57951W        W23178  23.612  34.708  14.508
57952W        W23179   6.224  34.470  14.014
57953W        W23180  36.002  17.707  14.867
57954W        W23181   8.282  29.327  11.753
57955W        W23182  38.720  24.990  13.398
57956W        W23183  35.425  38.509  10.317
57957W        W23184  10.232  12.950  13.779
57958W        W23185  26.578  30.328   4.892
57959W        W23186   4.331  17.076  11.974
57960W        W23187  19.981  12.750   1.901
57961W        W23188  23.516   5.796   4.226
57962W        W23189  40.086   7.722   0.723
57963W        W23190  35.320  17.742   0.547
57964W        W23191  24.400  34.652   2.146
57965W        W23192  35.104  15.099   1.043
57966W        W23193  29.987   8.908   3.555
57967W        W23194  18.095  31.165   4.128
57968W        W23195   0.452  27.625  12.010
57969W        W23196  37.326  24.063  10.708
57970W        W23197  13.531  32.368   2.755
57971W        W23198  14.672  33.650   0.480
57972W        W23199  35.815  12.699   3.789
57973W        W23200   7.653  32.932   1.773
57974W        W23201  34.613  39.042   1.779
57975W        W23202   3.708  15.154  10.641
57976W        W23203  34.559  14.520  13.853
57977W        W23204   8.888  35.425  14.441
57978W        W23205  32.954  19.195  13.584
57979W        W23206  35.450  38.554  12.181
57980W        W23207  26.709  11.416   4.437
57981W        W23208  32.205   6.201  12.547
57982W        W23209   8.716  43.343   4.570
57983W        W23210  17.041  10.278   3.743
57984W        W23211  42.739  31.597   1.000
57985W        W23212   4.977  35.313  11.112
57986W        W23213  19.313   5.915   1.430
57987W        W23214  14.276  21.839   3.732
57988W        W23215   1.218  28.583  14.981
57989W        W23216  30.907  12.664   9.808
57990W        W23217  18.346   5.702   4.400
57991W        W23218  26.952   3.169  13.896
57992W        W23219  35.072  19.737  10.967
57993W        W23220  37.095  10.218  12.391
57994W        W23221  22.084  22.655  14.323
57995W        W23222  19.079   2.081   3.223
57996W        W23223  20.165   3.868  10.694
57997W        W23224  25.971  23.940   1.139
57998W        W23225  43.955   8.072  12.942
57999W        W23226   8.912  22.311  12.540
58000W        W23227  19.677  11.907  11.862
58001W        W23228   3.705  24.671  12.335
58002W        W23229  24.469  41.000  13.563
58003W        W23230  15.814  10.374  14.347
58004W        W23231  28.774  26.013   2.825
58005W        W23232  34.479  29.670  11.687
58006W        W23233  43.230  27.445  11.406
58007W        W23234   2.543   4.338  12.854
58008W        W23235  15.539  35.028   3.883
58009W        W23236  15.192  39.093   1.761
58010W        W23237  44.317  33.911  13.580
58011W        W23238  44.324  37.337  12.412
58012W        W23239  15.213  27.761   0.362
58013W        W23240  14.743  36.062  10.694
58014W        W23241  44.267   7.166  10.939
58015W        W23242   8.578  31.521   1.349
58016W        W23243  25.655  43.006  11.247
58017W        W23244  19.242  14.862   2.984
58018W        W23245  12.785  16.396   1.633
58019W        W23246   4.395  20.684  11.992
58020W        W23247  12.522  27.068   1.357
58021W        W23248  38.484  30.967   4.619
58022W        W23249  35.772  37.252  11.022
58023W        W23250   2.470   3.488   1.497
58024W        W23251  24.086   1.798   0.027
58025W        W23252  10.599  32.386  13.409
58026W        W23253  11.691  30.217  13.954
58027W        W23254  27.083  38.555   2.339
58028W        W23255  22.560  30.429   3.529
58029W        W23256  38.459  36.040   0.057
58030W        W23257  10.430   1.407  14.414
58031W        W23258  27.379  34.119  12.131
58032W        W23259  44.425  24.913   2.493
58033W        W23260  33.134   3.474   0.324
58034W        W23261  12.187  31.348  14.306
58035W        W23262  32.281  16.269  14.567
58036W        W23263  20.206  36.464  12.490
58037W        W23264   3.646  12.628   1.684
58038W        W23265  40.182  21.129  12.948
58039W        W23266   8.945   6.846   0.222
58040W        W23267  13.388   8.709   3.085
58041W        W23268  35.007   6.428  11.591
58042W        W23269  26.915   4.789   2.198
58043W        W23270  15.241  32.002  10.953
58044W        W23271  37.312  19.085   4.406
58045W        W23272  18.496  14.202   3.574
58046W        W23273  31.823  23.586  10.733
58047W        W23274  42.818  14.629  14.984
58048W        W23275  36.810  13.099   2.659
58049W        W23276  41.210  41.159   0.310
58050W        W23277  16.978  42.898  11.593
58051W        W23278  24.224   0.912   3.378
58052W        W23279  24.095  24.305  11.663
58053W        W23280  23.455   9.775  14.361
58054W        W23281  29.505  15.741  12.458
58055W        W23282  17.327  18.766   0.644
58056W        W23283  24.015  42.506  11.585
58057W        W23284  43.618   0.457   3.287
58058W        W23285  28.061   4.571   3.166
58059W        W23286  19.610  28.358  14.989
58060W        W23287  16.087   3.348  13.879
58061W        W23288  21.215  23.186  13.997
58062W        W23289  16.575  20.736   3.813
58063W        W23290   2.319  23.557   0.397
58064W        W23291  19.235  29.098   0.022
58065W        W23292  44.745  25.219   2.734
58066W        W23293   8.857  14.246  12.146
58067W        W23294  18.492  34.707  11.955
58068W        W23295  34.351  40.550   0.722
58069W        W23296  37.428  29.948   4.549
58070W        W23297  29.141  40.149   0.195
58071W        W23298   1.133   9.523  12.426
58072W        W23299  33.576  31.827   4.041
58073W        W23300  43.791  14.286  11.776
58074W        W23301  27.926  33.892  13.001
58075W        W23302  12.299  36.870   1.438
58076W        W23303  29.315  16.666  12.043
58077W        W23304  34.598   3.954   1.806
58078W        W23305  33.440  28.659   0.446
58079W        W23306  18.896  20.594   1.807
58080W        W23307   8.546  34.904   5.487
58081W        W23308   9.332   7.307  10.782
58082W        W23309  40.251  33.361  13.358
58083W        W23310  22.581  19.794   2.656
58084W        W23311  36.752  35.617   2.696
58085W        W23312  38.409  25.297  12.448
58086W        W23313  17.596  18.515  11.591
58087W        W23314  11.892  44.171   4.125
58088W        W23315  16.794  27.834  14.139
58089W        W23316  22.667  44.735   2.394
58090W        W23317  25.570  10.184   0.808
58091W        W23318  10.657  33.401  12.891
58092W        W23319  13.130   5.239   2.419
58093W        W23320   1.761  37.558  13.476
58094W        W23321  42.515  42.744   2.175
58095W        W23322  32.595  11.168  10.924
58096W        W23323   7.229  12.629   1.707
58097W        W23324  32.432   0.482   0.893
58098W        W23325  11.269  18.794  12.871
58099W        W23326  27.147   3.951  12.498
58100W        W23327  35.878   6.710  13.339
58101W        W23328  26.393  12.957  11.259
58102W        W23329  28.142  10.414   0.280
58103W        W23330  38.240  19.677   4.194
58104W        W23331  12.330  20.597  14.090
58105W        W23332  20.638  10.880  11.013
58106W        W23333  15.307  38.733  12.528
58107W        W23334  44.868  31.024  14.576
58108W        W23335  13.269  28.636   2.188
58109W        W23336   1.315  25.238  14.899
58110W        W23337  10.622  25.230  12.437
58111W        W23338  24.647  33.162   3.148
58112W        W23339  19.029  18.630  12.678
58113W        W23340  15.822  26.981   3.602
58114W        W23341   1.782  33.783  11.995
58115W        W23342  24.299  16.506  14.202
58116W        W23343   6.702  23.336   3.549
58117W        W23344  30.924   2.306   1.314
58118W        W23345  37.014  15.678  13.823
58119W        W23346  16.281  30.780   0.423
58120W        W23347  42.353  26.103   0.253
58121W        W23348  23.133  14.353  14.103
58122W        W23349  27.996  28.112   3.755
58123W        W23350   8.895  14.675   2.715
58124W        W23351   2.926  30.625  13.541
58125W        W23352  10.756  15.298  12.033
58126W        W23353   7.959  26.162  13.808
58127W        W23354   5.835   2.974   2.294
58128W        W23355  16.359  23.537   4.560
58129W        W23356  14.789  42.301   4.713
58130W        W23357  13.656  21.826  10.618
58131W        W23358  44.261  34.384   3.661
58132W        W23359   2.980   6.904   3.150
58133W        W23360  41.368  14.316  11.114
58134W        W23361  17.599  10.928   0.293
58135W        W23362  33.034  36.273  12.424
58136W        W23363  30.619  38.892  12.024
58137W        W23364  31.598  33.054  12.993
58138W        W23365  35.446  16.571  12.046
58139W        W23366  41.517  21.016   1.679
58140W        W23367  42.764   6.427   2.346
58141W        W23368  28.201  28.679  14.423
58142W        W23369  39.999  28.012   3.170
58143W        W23370   7.149   7.419   3.278
58144W        W23371  15.789  38.405  10.719
58145W        W23372  36.069  21.245  12.110
58146W        W23373   8.416  22.614   0.510
58147W        W23374  42.725   8.636   3.241
58148W        W23375   2.218  41.986   1.933
58149W        W23376  28.826   5.836  11.884
58150W        W23377  12.121  43.352   4.745
58151W        W23378   6.366  21.078   0.267
58152W        W23379  11.241  11.339   0.962
58153W        W23380  34.435  19.125   3.088
58154W        W23381   2.976   6.497   2.833
58155W        W23382  39.087  42.793  10.563
58156W        W23383  22.542  33.118  13.291
58157W        W23384  20.532  25.972   4.559
58158W        W23385  37.959  44.509   1.602
58159W        W23386   4.497  38.378  10.522
58160W        W23387  34.136  10.745   1.446
58161W        W23388  22.627  37.287  11.438
58162W        W23389   3.175  26.064   3.657
58163W        W23390  39.216  33.992  10.562
58164W        W23391  11.570  37.060   1.854
58165W        W23392  44.779  11.812   1.174
58166W        W23393  38.783  33.809   4.058
58167W        W23394  43.565  26.487  12.486
58168W        W23395  15.777  14.107   2.346
58169W        W23396   5.353  25.954  14.112
58170W        W23397   7.517  12.827  11.531
58171W        W23398  28.697  25.451  14.848
58172W        W23399  44.377   5.308   2.090
58173W        W23400   7.255  22.005   1.323
58174W        W23401  26.112  30.127   4.853
58175W        W23402  24.464   3.955   0.773
58176W        W23403  35.940  15.291  13.508
58177W        W23404  21.542  28.513  13.299
58178W        W23405  26.538  39.864  13.545
58179W        W23406  32.166  40.857  11.662
58180W        W23407  31.345   5.474   4.603
58181W        W23408   9.653   5.278   2.964
58182W        W23409   3.267   7.457  13.909
58183W        W23410  18.197  39.186   1.038
58184W        W23411  40.400  34.109   2.081
58185W        W23412  27.659  39.553   0.294
58186W        W23413  37.312  18.191   2.395
58187W        W23414  29.447   5.264   0.338
58188W        W23415   6.355   9.597   3.199
58189W        W23416  36.135   7.331  14.347
58190W        W23417  23.242   3.684   1.298
58191W        W23418  38.347  17.043  11.987
58192W        W23419  41.912   3.043   0.405
58193W        W23420  17.248  42.913  13.957
58194W        W23421  22.616  15.630  11.519
58195W        W23422  36.081  35.403  12.765
58196W        W23423  41.214  40.035  11.646
58197W        W23424  34.831   5.841  12.421
58198W        W23425  16.549  41.325   4.102
58199W        W23426  42.383  39.406   1.414
58200W        W23427  28.406   6.745   2.833
58201W        W23428  12.685  19.668  14.900
58202W        W23429  34.257  18.146  14.855
58203W        W23430  43.355   4.928  10.655
58204W        W23431   5.897  24.902   4.347
58205W        W23432   2.275  20.109  12.535
58206W        W23433  43.910   4.854  10.918
58207W        W23434  18.552  36.744  10.722
58208W        W23435  16.537  28.991  12.840
58209W        W23436   1.086  16.634  12.200
58210W        W23437  31.263  20.143  14.010
58211W        W23438  27.293  42.843   4.897
58212W        W23439   2.881  25.916  12.163
58213W        W23440  43.048  42.278  11.423
58214W        W23441  43.807  37.458   2.643
58215W        W23442  43.705  41.632  10.718
58216W        W23443  24.158  23.181  14.512
58217W        W23444  42.665  44.226   3.680
58218W        W23445   4.594  13.539   2.776
58219W        W23446  39.839   9.360  13.820
58220W        W23447  44.981   5.739   3.278
58221W        W23448  26.073  42.282   1.836
58222W        W23449  30.219  35.600   4.994
58223W        W23450  35.912  40.001   3.064
58224W        W23451  11.390  16.253   2.794
58225W        W23452  13.099  18.532  10.979
58226W        W23453  19.045  35.545  14.820
58227W        W23454  27.018   7.069  13.918
58228W        W23455  12.307  13.062  14.825
58229W        W23456  23.589   6.298   2.101
58230W        W23457   2.883  34.589  10.654
58231W        W23458  28.033  28.847  14.929
58232W        W23459  34.302  18.238   1.746
58233W        W23460  10.703   7.231  12.593
58234W        W23461  27.151  43.259   0.985
58235W        W23462  34.929   0.974  14.737
58236W        W23463  27.416  19.115  11.517
58237W        W23464  20.681   4.313  13.615
58238W        W23465  29.897   4.233   2.317
58239W        W23466  27.169  41.052  13.041
58240W        W23467  11.718   3.911  10.348
58241W        W23468  11.274  16.582  13.663
58242W        W23469  34.076  18.841   3.338
58243W        W23470  26.938   4.194   1.301
58244W        W23471  42.101  43.839   1.028
58245W        W23472   0.567   1.472   2.775
58246W        W23473  41.814  24.629  12.959
58247W        W23474  21.361   4.198  14.270
58248W        W23475  34.633  11.135   1.638
58249W        W23476  34.851  17.539  11.474
58250W        W23477  28.684  12.897   2.340
58251W        W23478   9.170  41.177   3.172
58252W        W23479  14.960  12.472   5.088
58253W        W23480  27.018  34.482   3.082
58254W        W23481  39.771  43.419  11.593
58255W        W23482  26.780  10.181   4.103
58256W        W23483   5.619  40.256   3.173
58257W        W23484  10.296  33.150   0.860
58258W        W23485   2.769   8.772  13.510
58259W        W23486   5.874  11.441  11.307
58260W        W23487  44.748  40.434   0.925
58261W        W23488  19.272   0.837   3.564
58262W        W23489  11.172  31.096   3.640
58263W        W23490   7.180  11.348   0.011
58264W        W23491  36.160  27.635  11.027
58265W        W23492  43.839  12.536  14.782
58266W        W23493  44.948  22.524   0.376
58267W        W23494  29.873   2.431  12.267
58268W        W23495  11.224  32.417   0.658
58269W        W23496  37.296   6.449   4.838
58270W        W23497  37.538  16.713  12.438
58271W        W23498  13.229   4.986  13.967
58272W        W23499  41.926   0.203   1.044
58273W        W23500  20.809  41.957  11.337
58274W        W23501  19.791  42.350   1.751
58275W        W23502  33.662  25.234   2.232
58276W        W23503   1.836  23.761   0.464
58277W        W23504  26.099  28.696   2.725
58278W        W23505  17.786  23.780  11.456
58279W        W23506  21.945  24.682  12.192
58280W        W23507   1.899   4.359  13.967
58281W        W23508   7.724  31.304   2.400
58282W        W23509  33.383   9.095   2.275
58283W        W23510   5.187  31.390  13.591
58284W        W23511  40.823   7.785   2.791
58285W        W23512  42.012  13.153  10.722
58286W        W23513  41.890   7.410  12.935
58287W        W23514   6.132  10.631  10.956
58288W        W23515  28.561  12.958   4.546
58289W        W23516  27.456  38.842   0.956
58290W        W23517   1.656  37.249   0.989
58291W        W23518  32.123  39.362  13.345
58292W        W23519   4.089  18.750  10.519
58293W        W23520  26.723  41.478   0.710
58294W        W23521   5.704  15.349   2.802
58295W        W23522   4.000  36.558  12.924
58296W        W23523  44.778   6.120  12.153
58297W        W23524  43.662   7.611  12.920
58298W        W23525  37.233  27.724  14.993
58299W        W23526  15.958   7.924   5.196
58300W        W23527  16.190   8.644  11.300
58301W        W23528  29.271   6.212   4.609
58302W        W23529  19.810   8.994   0.947
58303W        W23530  33.547  13.884   0.716
58304W        W23531  44.169  15.344  12.417
58305W        W23532  35.304  41.989  10.774
58306W        W23533  28.173  17.099   2.402
58307W        W23534  36.601  21.014   3.289
58308W        W23535  34.625  41.868  10.770
58309W        W23536  34.593  17.417   0.410
58310W        W23537  30.684  21.768  14.466
58311W        W23538  14.607  12.354  13.325
58312W        W23539  41.452  41.919  13.992
58313W        W23540  31.668  11.501   4.060
58314W        W23541  22.071  38.136   4.785
58315W        W23542  11.043  18.908  10.132
58316W        W23543  39.329  26.616   3.314
58317W        W23544   2.717   8.426   4.183
58318W        W23545   7.450  38.203   4.754
58319W        W23546  43.457   4.662  11.629
58320W        W23547   2.603  40.052   3.023
58321W        W23548   2.509  12.188   1.194
58322W        W23549   7.328  30.913  13.952
58323W        W23550   0.007  44.837  13.511
58324W        W23551  21.460   5.754   1.555
58325W        W23552  24.614   3.257   1.514
58326W        W23553  39.144  12.143  13.343
58327W        W23554  31.765  10.920   4.101
58328W        W23555  19.237  12.980   4.321
58329W        W23556  19.040  21.637  14.689
58330W        W23557  23.686  10.257  14.406
58331W        W23558  34.779  40.121  13.115
58332W        W23559  34.173  14.803   4.365
58333W        W23560  43.183  23.824  13.488
58334W        W23561  40.028  29.469  13.879
58335W        W23562  34.165  30.080   4.569
58336W        W23563  28.218  29.955   4.042
58337W        W23564  20.179  35.593   1.338
58338W        W23565  31.509  14.982   2.785
58339W        W23566  25.972   0.311   1.334
58340W        W23567  29.564  15.260  10.605
58341W        W23568  23.044   2.429   4.114
58342W        W23569  37.785   8.896   3.296
58343W        W23570  13.615  28.826  13.829
58344W        W23571  12.666   9.879  14.852
58345W        W23572  24.183  14.351  13.273
58346W        W23573   6.515   2.196   1.611
58347W        W23574  35.354  39.974   0.768
58348W        W23575  37.382  11.587   0.464
58349W        W23576   6.805  42.362  10.940
58350W        W23577  27.156  12.045   2.651
58351W        W23578   1.884  14.726  13.991
58352W        W23579  18.559   6.449  11.235
58353W        W23580  36.995  43.389   1.453
58354W        W23581  18.033   6.892  13.090
58355W        W23582  32.142  33.924   2.688
58356W        W23583  11.354  22.015   2.500
58357W        W23584  43.989  38.244  10.638
58358W        W23585   6.682  13.725  12.905
58359W        W23586  29.727  33.654  11.145
58360W        W23587   2.908  37.013  13.835
58361W        W23588  34.787   3.903   3.429
58362W        W23589  23.194  26.594   3.811
58363W        W23590  20.738  27.831   4.580
58364W        W23591  12.732  15.222  13.570
58365W        W23592  15.156   0.538  11.996
58366W        W23593  38.501  40.071  11.967
58367W        W23594  43.342  44.820   0.360
58368W        W23595  18.601  29.640  14.677
58369W        W23596   3.826   4.963   1.002
58370W        W23597  10.640  25.982  13.091
58371W        W23598  15.785   0.155  13.515
58372W        W23599  17.526  21.683   2.816
58373W        W23600  28.781  29.187   0.204
58374W        W23601  44.964   7.140   3.060
58375W        W23602  22.136  21.789  12.552
58376W        W23603  14.769   3.799   2.782
58377W        W23604   7.111  42.734   4.659
58378W        W23605  27.909  12.241  13.391
58379W        W23606  32.244   7.291   1.342
58380W        W23607  20.188  37.922   1.523
58381W        W23608  33.918  32.463  14.726
58382W        W23609   6.968  44.394   4.491
58383W        W23610   3.992  36.164   4.966
58384W        W23611   8.188  29.160  12.225
58385W        W23612  17.481  36.972   1.348
58386W        W23613  16.846  23.720   2.731
58387W        W23614  40.379  36.426  12.413
58388W        W23615  14.777  12.689   3.609
58389W        W23616  27.526  14.058  10.375
58390W        W23617  12.825   5.815   0.359
58391W        W23618  30.960   2.465  14.003
58392W        W23619   0.412  15.765  13.624
58393W        W23620  42.721  19.142   0.381
58394W        W23621  34.785   3.819   2.903
58395W        W23622  31.071  12.638   3.600
58396W        W23623  20.411  30.663  13.348
58397W        W23624  11.762  15.270  10.340
58398W        W23625  11.272  40.939   0.854
58399W        W23626  20.577  30.302   2.912
58400W        W23627  20.120  44.841  14.397
58401W        W23628  11.189  40.905  11.640
58402W        W23629  42.174   2.448   5.096
58403W        W23630  11.693  19.537   1.821
58404W        W23631  36.977  37.642  14.233
58405W        W23632  23.009  37.957   0.934
58406W        W23633  34.569   1.732   0.803
58407W        W23634  20.224  30.135  14.923
58408W        W23635  13.745  32.117  14.238
58409W        W23636   0.837  43.156  12.114
58410W        W23637  41.447   7.355  12.084
58411W        W23638  30.438  38.605  12.571
58412W        W23639   0.442  40.818   1.931
58413W        W23640  13.189  11.280   0.996
58414W        W23641  23.209   9.727   2.228
58415W        W23642  12.596  31.246  12.813
58416W        W23643  16.557  22.565   2.011
58417W        W23644   4.812  42.288   3.212
58418W        W23645   0.498   0.732   1.461
58419W        W23646  13.075  17.002  12.612
58420W        W23647   7.452   8.452  13.326
58421W        W23648  37.134  12.537   1.349
58422W        W23649  28.923  18.561   0.886
58423W        W23650   3.961  15.256   2.147
58424W        W23651   7.174  41.867  11.518
58425W        W23652  25.443  11.312  12.131
58426W        W23653  25.146  21.999  14.098
58427W        W23654  40.748  40.379  11.985
58428W        W23655   6.280  29.477   3.701
58429W        W23656  30.922  10.072   4.342
58430W        W23657   5.351  38.868   1.807
58431W        W23658  33.360  25.959   2.915
58432W        W23659   4.724  18.149  11.075
58433W        W23660  17.764  18.330  14.890
58434W        W23661  17.033  24.401   3.479
58435W        W23662  20.646  12.110   3.745
58436W        W23663   3.477  21.585  13.621
58437W        W23664  28.759  27.516  14.749
58438W        W23665   7.043  23.130  14.480
58439W        W23666  40.761  27.950  14.840
58440W        W23667   5.744  38.159   2.859
58441W        W23668  14.744   9.432   0.755
58442W        W23669   1.201  16.341  11.324
58443W        W23670  21.510   6.220   0.761
58444W        W23671  31.386   5.528   2.691
58445W        W23672  22.139  12.139  12.058
58446W        W23673  22.194  24.071   1.707
58447W        W23674  33.623  27.679   4.141
58448W        W23675  32.617  31.946  13.845
58449W        W23676  29.711  35.156  13.266
58450W        W23677   7.578  37.536   0.219
58451W        W23678   6.690  37.544  11.974
58452W        W23679  16.511  40.341  13.530
58453W        W23680   9.144   9.093  14.771
58454W        W23681  29.037  42.159  14.002
58455W        W23682   7.319   2.422   3.110
58456W        W23683  34.195  11.650  13.080
58457W        W23684  38.812  28.121  13.983
58458W        W23685   6.440  44.701   2.762
58459W        W23686  10.588  30.175  11.081
58460W        W23687  32.936   2.231   4.220
58461W        W23688  13.315  19.375  12.937
58462W        W23689  32.867  13.588   2.327
58463W        W23690  28.680  27.606  13.357
58464W        W23691  26.182  17.237   1.826
58465W        W23692   1.357  39.866  14.191
58466W        W23693   9.613  25.989   0.837
58467W        W23694  21.515  31.962   1.921
58468W        W23695  28.853  44.664  12.622
58469W        W23696  28.119  44.874  14.483
58470W        W23697  43.881  43.950   0.335
58471W        W23698  11.833   1.275   3.589
58472W        W23699  20.673  25.768  10.887
58473W        W23700  21.289  31.171  11.893
58474W        W23701  40.835  19.211   2.373
58475W        W23702  18.695  29.589   3.725
58476W        W23703   5.782  40.886   0.804
58477W        W23704  13.359   5.458  13.783
58478W        W23705  43.785  18.748  13.760
58479W        W23706  42.435  40.962  11.514
58480W        W23707   3.413   1.284  12.449
58481W        W23708   4.693  40.679  13.339
58482W        W23709  23.982   9.451  14.910
58483W        W23710  28.519  15.154  14.918
58484W        W23711  40.907  13.235  13.533
58485W        W23712   5.927   0.241  14.384
58486W        W23713  34.505  16.080   1.463
58487W        W23714  42.548   2.880   1.655
58488W        W23715   6.335  26.615   0.896
58489W        W23716  26.076   3.811   3.925
58490W        W23717   7.933  20.478  14.833
58491W        W23718  42.160  39.858  13.065
58492W        W23719   1.394   0.631  12.123
58493W        W23720  14.059  10.707  11.583
58494W        W23721  44.454  32.867   4.846
58495W        W23722  18.428  20.715   1.662
58496W        W23723  23.200  35.053   0.103
58497W        W23724  29.385  41.089   0.379
58498W        W23725  37.027  19.519   4.413
58499W        W23726   9.389  31.004   4.174
58500W        W23727  43.114  39.643  11.252
58501W        W23728  10.870  32.108  14.377
58502W        W23729  43.737  22.815  10.986
58503W        W23730  32.749  20.665   3.747
58504W        W23731   0.452  18.672  11.218
58505W        W23732  31.853  35.445  13.458
58506W        W23733  42.224  20.165  13.492
58507W        W23734  29.411  17.600   1.542
58508W        W23735  15.824  29.042   0.554
58509W        W23736  26.745  34.621  10.566
58510W        W23737   2.918   8.782  14.863
58511W        W23738  39.092  17.393  11.225
58512W        W23739   2.351  31.151  11.484
58513W        W23740  29.116  41.143  12.298
58514W        W23741  16.781  30.080  11.728
58515W        W23742   0.561  24.676   3.291
58516W        W23743   8.131  43.808  12.835
58517W        W23744  39.361  15.001   2.847
58518W        W23745  13.526   6.277   0.853
58519W        W23746  44.163   3.354   2.156
58520W        W23747  36.019  12.282   4.104
58521W        W23748  12.634  39.291   4.655
58522W        W23749  42.843  21.001  12.324
58523W        W23750  29.795  33.580  14.149
58524W        W23751  34.082  17.453   0.441
58525W        W23752  43.766  15.071  13.534
58526W        W23753  41.837  34.947  11.662
58527W        W23754  43.372  15.784  14.845
58528W        W23755  38.112  39.392  14.554
58529W        W23756  15.284  27.462   1.786
58530W        W23757  23.647  41.793  13.874
58531W        W23758  27.969  28.875  13.052
58532W        W23759   2.660  40.821  12.221
58533W        W23760   2.221  35.355  12.492
58534W        W23761  31.204  31.593   2.380
58535W        W23762  41.995  28.477  12.681
58536W        W23763  29.877  40.554  14.476
58537W        W23764  28.742  32.175   2.331
58538W        W23765  20.626   4.901  14.242
58539W        W23766  30.109  24.595   2.419
58540W        W23767  11.114  33.892   1.874
58541W        W23768  21.137   0.813   0.365
58542W        W23769  28.659  16.443   2.369
58543W        W23770  11.141  14.938  12.055
58544W        W23771  42.240  18.392   2.884
58545W        W23772   1.512   4.916   1.184
58546W        W23773  18.678  18.599   2.535
58547W        W23774   6.801  13.772   1.029
58548W        W23775  37.877  30.558  13.444
58549W        W23776  11.784   5.787  11.848
58550W        W23777  37.471  13.348   4.571
58551W        W23778  34.691  25.904   1.135
58552W        W23779  41.759  21.591  14.375
58553W        W23780   5.455  16.837  12.471
58554W        W23781  34.839  32.521   4.162
58555W        W23782  27.017  27.936  12.907
58556W        W23783  23.471  41.795  12.110
58557W        W23784  40.848  13.539  13.992
58558W        W23785   9.627   1.427   4.194
58559W        W23786  17.448   3.790   1.173
58560W        W23787  24.678  13.845  14.010
58561W        W23788  39.776  42.818  12.565
58562W        W23789   7.914  28.720   4.594
58563W        W23790  39.425  30.928   1.213
58564W        W23791  13.767  26.502   4.600
58565W        W23792  10.101  22.041  13.462
58566W        W23793  11.853  29.059   2.763
58567W        W23794  41.622  42.299   4.611
58568W        W23795  20.345  28.716   2.136
58569W        W23796  10.837  30.185  11.971
58570W        W23797   2.842  31.104  13.375
58571W        W23798  40.518  25.594   0.536
58572W        W23799  25.234  16.814  11.158
58573W        W23800  40.007  21.249  12.472
58574W        W23801  27.522  25.457  13.840
58575W        W23802   7.868  24.430   1.925
58576W        W23803  37.016  15.424   2.609
58577W        W23804  22.303  15.858   3.425
58578W        W23805  33.556   6.385   4.007
58579W        W23806  33.411   5.690   0.837
58580W        W23807  37.872  17.357   1.753
58581W        W23808   8.143   6.940   1.553
58582W        W23809   9.669  39.333  13.833
58583W        W23810  20.837  23.983   4.948
58584W        W23811  42.627  40.448   0.792
58585W        W23812  37.035  41.571   3.455
58586W        W23813  15.183  20.385   3.296
58587W        W23814  25.501  22.314  13.536
58588W        W23815  26.721  33.784  13.816
58589W        W23816  11.562  20.499  12.483
58590W        W23817  26.908  28.850   4.202
58591W        W23818  32.693   0.285   4.159
58592W        W23819  11.374  35.683   4.039
58593W        W23820  18.483  12.033   0.201
58594W        W23821  27.517  14.673  10.731
58595W        W23822  27.877   7.827  11.159
58596W        W23823   2.339  23.477   5.189
58597W        W23824   1.747  21.249  12.529
58598W        W23825  15.039  10.654  13.425
58599W        W23826  38.185  38.081   1.408
58600W        W23827   1.415  34.625   0.905
58601W        W23828  42.227  41.009   4.854
58602W        W23829  29.779   5.232   4.418
58603W        W23830   2.926  17.749   2.716
58604W        W23831  27.162   9.113  12.735
58605W        W23832  33.160  33.028  13.080
58606W        W23833  33.320  24.095  12.917
58607W        W23834  13.317  26.488   0.319
58608W        W23835  35.419  44.372   3.135
58609W        W23836  34.926  41.603   3.287
58610W        W23837  31.264  24.827  10.252
58611W        W23838  10.634  11.151  13.813
58612W        W23839   4.378  34.913   2.684
58613W        W23840   9.613  34.522   1.469
58614W        W23841  26.931  27.254  13.571
58615W        W23842  25.078  16.664  14.463
58616W        W23843  15.154  28.678   1.250
58617W        W23844  36.524  43.053   1.604
58618W        W23845  14.653  16.362   4.222
58619W        W23846  31.523   4.221   3.098
58620W        W23847  39.957  17.688  11.482
58621W        W23848  12.620  24.152  11.194
58622W        W23849  35.198  11.266  13.563
58623W        W23850  23.729  16.134   1.883
58624W        W23851  20.022  31.012  10.650
58625W        W23852   7.410   4.442  13.767
58626W        W23853   2.971  12.123   0.338
58627W        W23854   6.236   5.499   0.799
58628W        W23855  17.863  13.914   2.206
58629W        W23856   8.221  39.122  11.574
58630W        W23857  23.832  24.076   1.400
58631W        W23858   4.760   8.928  12.106
58632W        W23859  34.046  21.078  14.262
58633W        W23860  42.237  29.881  12.037
58634W        W23861  41.864  18.884  11.604
58635W        W23862  41.372  13.634  12.886
58636W        W23863  13.814  21.490  14.484
58637W        W23864  26.668   2.278  14.761
58638W        W23865  15.005  10.750  14.871
58639W        W23866  16.136  10.839   2.814
58640W        W23867  44.218  24.551   3.357
58641W        W23868  31.053  35.352  12.922
58642W        W23869   5.865  40.714   3.280
58643W        W23870  18.544  39.450  13.406
58644W        W23871  29.997   5.242   3.080
58645W        W23872  13.492   1.667  13.533
58646W        W23873   9.396  16.617  14.306
58647W        W23874  20.107  24.114   2.068
58648W        W23875   5.710  30.993  12.535
58649W        W23876  11.323   3.509  13.774
58650W        W23877  34.353  37.054   1.686
58651W        W23878   3.512  11.750  12.931
58652W        W23879  34.055   2.411  14.099
58653W        W23880   3.302   3.198   4.461
58654W        W23881   2.886   4.231   3.282
58655W        W23882  32.296  31.397   1.185
58656W        W23883   6.231   1.698   0.194
58657W        W23884  33.394  21.510   3.867
58658W        W23885  19.192  22.011  14.366
58659W        W23886  10.535  16.827   3.238
58660W        W23887   4.411  12.238  12.073
58661W        W23888  28.137  36.937   1.207
58662W        W23889  43.356   0.496  12.184
58663W        W23890  41.442  18.228   3.796
58664W        W23891   1.678   9.255   2.700
58665W        W23892  41.576   1.379   2.182
58666W        W23893  26.288   7.811  12.913
58667W        W23894   3.362  29.041   2.976
58668W        W23895  13.331  14.198  10.176
58669W        W23896   0.096  34.942  13.426
58670W        W23897  20.487  10.747   4.173
58671W        W23898   5.896  30.111  14.414
58672W        W23899  30.128  32.219   3.844
58673W        W23900  41.887  40.784  10.335
58674W        W23901  37.787  40.577  12.555
58675W        W23902  22.654   1.815  14.125
58676W        W23903  14.733  28.393   1.342
58677W        W23904  20.279  39.759   0.458
58678W        W23905  44.261  13.796   0.933
58679W        W23906  22.861  22.588  14.898
58680W        W23907   2.373   1.831  13.607
58681W        W23908  16.772  10.908  10.741
58682W        W23909  37.931  33.918   2.215
58683W        W23910   6.668  11.331   1.819
58684W        W23911   0.033  41.972   2.433
58685W        W23912  39.515   6.909   3.096
58686W        W23913  35.731  40.934  13.342
58687W        W23914  31.653  20.306  12.499
58688W        W23915  33.867  21.276   3.723
58689W        W23916  23.517  28.067  13.741
58690W        W23917  42.900  25.010   2.971
58691W        W23918  14.779  39.477   2.863
58692W        W23919   9.118  44.754   1.230
58693W        W23920  40.318   3.358   2.308
58694W        W23921  13.687   6.518   2.178
58695W        W23922  29.235  14.242  13.554
58696W        W23923  14.816  15.745   1.712
58697W        W23924  17.672   4.240  12.976
58698W        W23925  33.700   7.362   9.739
58699W        W23926  40.890  37.258   3.296
58700W        W23927  18.567  17.723   3.552
58701W        W23928  25.765  20.189   2.260
58702W        W23929  35.067  26.541   5.174
58703W        W23930  29.884  27.941  13.820
58704W        W23931  41.910  20.580  12.993
58705W        W23932  22.360  26.290  11.220
58706W        W23933   9.668  42.360  10.899
58707W        W23934  23.053   3.187   1.312
58708W        W23935   8.140  39.099   2.703
58709W        W23936  40.066   2.122   0.361
58710W        W23937  44.082  28.224   4.629
58711W        W23938  29.364  20.495  14.333
58712W        W23939  21.482  16.103   3.382
58713W        W23940   7.907  40.982   4.759
58714W        W23941   6.233  13.877   1.255
58715W        W23942   0.986  27.366   0.455
58716W        W23943  38.354   2.730   1.693
58717W        W23944   1.369  32.138   2.781
58718W        W23945   9.700   7.481  14.356
58719W        W23946  21.725  35.392   3.767
58720W        W23947  20.292  22.390   4.031
58721W        W23948  43.472  13.107  13.404
58722W        W23949  13.058  42.544  11.038
58723W        W23950  35.395   5.765  10.758
58724W        W23951  41.242   5.678   0.181
58725W        W23952  25.736   2.278  10.803
58726W        W23953   4.338  42.483  13.993
58727W        W23954  37.263  27.069   0.698
58728W        W23955  18.227   8.933   3.591
58729W        W23956   7.755   3.200  13.892
58730W        W23957  34.858   6.174  12.958
58731W        W23958  20.508   9.904   0.355
58732W        W23959   5.244  38.848  14.841
58733W        W23960  15.050  41.619   4.133
58734W        W23961  12.347   0.294  12.106
58735W        W23962  11.445   7.797  12.573
58736W        W23963  23.657  11.741   1.220
58737W        W23964  17.033   2.013  12.169
58738W        W23965   5.223  33.874   3.608
58739W        W23966  43.973  15.533   2.151
58740W        W23967  11.193  39.118   3.246
58741W        W23968  35.913  11.296   2.273
58742W        W23969  17.345  15.366  14.891
58743W        W23970   6.939   2.643  13.820
58744W        W23971  11.261  44.451   1.037
58745W        W23972  36.250  40.969   1.776
58746W        W23973  13.443  26.153  12.513
58747W        W23974   3.878   9.798   3.705
58748W        W23975   9.224   5.921  11.693
58749W        W23976  32.109  14.371  14.258
58750W        W23977   6.341  18.504   3.239
58751W        W23978  14.787  10.626   3.719
58752W        W23979   0.050  12.216   0.366
58753W        W23980   1.335  18.602  14.832
58754W        W23981  32.849   3.225   4.575
58755W        W23982  42.398  33.408   3.730
58756W        W23983  22.682  39.943   1.350
58757W        W23984  15.475  33.014   3.651
58758W        W23985  44.321  22.552  11.946
58759W        W23986  36.286  37.568   3.332
58760W        W23987  43.442  12.335  12.946
58761W        W23988  26.163   9.681   0.275
58762W        W23989  36.879  12.417  13.935
58763W        W23990  28.894  38.778   2.956
58764W        W23991  34.048  25.475  10.949
58765W        W23992  22.276  12.340   0.241
58766W        W23993  26.022   0.961  12.162
58767W        W23994  25.077   9.216   1.864
58768W        W23995   7.459  40.372  14.323
58769W        W23996  32.009  32.212   4.546
58770W        W23997  20.131  43.348  12.923
58771W        W23998  26.438  28.978   3.291
58772W        W23999  16.179  11.214   0.183
58773W        W24000  13.029  35.094  13.860
58774W        W24001   7.086  42.211   1.762
58775W        W24002  44.981  33.566   3.260
58776W        W24003  29.415  40.175   4.954
58777W        W24004  28.613  44.761  11.809
58778W        W24005  16.794  11.170   2.421
58779W        W24006   3.282   4.520   0.352
58780W        W24007  21.002  43.432   0.033
58781W        W24008  24.484  40.757  14.551
58782W        W24009  12.110  16.522   0.201
58783W        W24010  24.484  24.878   5.258
58784W        W24011  40.791  20.068  11.184
58785W        W24012  31.395  14.736   0.139
58786W        W24013  34.532  21.267   9.906
58787W        W24014  30.320  10.728   9.671
58788W        W24015   4.851  11.960  12.160
58789W        W24016  12.803  37.325   3.178
58790W        W24017   6.223  43.909   1.009
58791W        W24018   8.778  11.502  10.739
58792W        W24019   9.722  23.232   3.568
58793W        W24020   2.373  35.829  12.580
58794W        W24021  13.198  34.402  12.326
58795W        W24022  40.200   3.964   2.391
58796W        W24023   0.481  31.938  14.680
58797W        W24024  18.689  30.076  12.402
58798W        W24025  27.186  31.569   4.538
58799W        W24026   0.462  39.824   1.749
58800W        W24027  24.006   7.219   2.816
58801W        W24028   0.904  39.518  11.903
58802W        W24029  26.692  33.918   1.429
58803W        W24030   3.190  23.573  10.668
58804W        W24031   1.827  10.680   2.642
58805W        W24032   1.499  36.522  12.658
58806W        W24033   6.132   2.849  14.468
58807W        W24034  30.535  32.933   4.183
58808W        W24035  32.084   2.961   2.188
58809W        W24036  37.929  25.758   0.685
58810W        W24037  38.165   6.695   2.371
58811W        W24038  35.445  17.311   4.039
58812W        W24039  27.034  19.848  12.892
58813W        W24040  24.177   7.090  10.642
58814W        W24041  12.324  41.460  14.824
58815W        W24042  13.102  15.297  12.759
58816W        W24043   0.413  23.915  14.247
58817W        W24044   7.314  27.500  12.386
58818W        W24045   0.301  44.323  10.177
58819W        W24046  27.235   7.314   4.641
58820W        W24047  32.603   8.356   3.231
58821W        W24048   5.362  24.581  13.838
58822W        W24049  16.352  23.572  14.028
58823W        W24050  32.068  39.427  11.500
58824W        W24051   8.950  26.553   4.079
58825W        W24052  10.807  22.587  12.513
58826W        W24053  27.324  26.582   4.506
58827W        W24054  28.437  13.877  12.100
58828W        W24055  41.928   7.423  11.108
58829W        W24056  35.127  14.916   0.404
58830W        W24057   9.264   8.112  13.914
58831W        W24058  13.589  34.432   2.846
58832W        W24059  23.450  40.498   4.395
58833W        W24060  34.444  17.710  13.946
58834W        W24061  42.485  43.583   1.865
58835W        W24062  41.943  16.625  13.795
58836W        W24063  36.612  30.400   4.541
58837W        W24064  16.827  33.779  12.085
58838W        W24065  12.356   4.484  11.427
58839W        W24066   6.415  31.194   4.826
58840W        W24067  40.605  30.591  13.372
58841W        W24068   8.150  16.309  13.474
58842W        W24069  32.532  18.317  14.405
58843W        W24070  12.419  18.992   1.656
58844W        W24071   9.453  11.269  14.463
58845W        W24072  39.115  42.481  11.611
58846W        W24073  19.065  44.484  10.365
58847W        W24074  38.932  33.001  14.818
58848W        W24075   5.782  38.037   3.795
58849W        W24076  23.675  37.977  14.579
58850W        W24077  12.884   4.620  14.423
58851W        W24078  26.981  11.114  14.216
58852W        W24079  10.370  42.113  10.789
58853W        W24080   0.251  12.807  13.349
58854W        W24081  15.404  10.553   2.357
58855W        W24082  25.506  22.468  14.507
58856W        W24083  24.422  28.398  12.388
58857W        W24084  31.489   5.456   0.377
58858W        W24085  31.476  20.368  10.745
58859W        W24086  32.192  35.332   4.889
58860W        W24087  11.674  27.334   1.966
58861W        W24088  25.934  40.438  13.887
58862W        W24089  34.074  10.688   4.128
58863W        W24090  11.345  12.698  11.675
58864W        W24091   2.472   4.438   1.916
58865W        W24092  23.130  39.986  12.852
58866W        W24093   5.299  43.945   3.397
58867W        W24094  42.884  25.191  11.526
58868W        W24095  24.161  26.671   3.777
58869W        W24096  30.050  20.823   1.281
58870W        W24097  19.842   8.338  11.176
58871W        W24098  17.308  36.116   4.535
58872W        W24099  18.666  31.499  10.664
58873W        W24100   3.810  27.924  14.424
58874W        W24101  42.434  36.098  12.097
58875W        W24102  24.429  40.122  14.390
58876W        W24103  24.186  19.326   4.255
58877W        W24104  41.552  37.328   1.265
58878W        W24105  16.304  26.031  11.779
58879W        W24106  40.733  40.215  11.463
58880W        W24107  11.385   0.526  14.519
58881W        W24108  26.076  42.096   0.762
58882W        W24109  33.492   0.378   3.618
58883W        W24110  23.560  42.903   4.112
58884W        W24111  13.861  19.501   1.906
58885W        W24112  16.498  43.278   2.724
58886W        W24113  21.025   2.323  13.136
58887W        W24114   1.092   5.647   4.113
58888W        W24115  33.603  26.015   4.261
58889W        W24116   1.473  28.503   3.098
58890W        W24117  43.382  11.649  13.525
58891W        W24118  21.984   1.351  10.037
58892W        W24119  25.562  34.886  14.918
58893W        W24120  11.071   9.598   3.701
58894W        W24121  19.788  32.074  11.615
58895W        W24122  14.752  20.456   3.823
58896W        W24123  39.057   1.432  10.420
58897W        W24124  20.982  34.124   4.194
58898W        W24125  22.054   8.552   2.230
58899W        W24126  43.625  31.600   4.580
58900W        W24127  13.527  29.500   0.275
58901W        W24128  22.717  43.958   0.478
58902W        W24129   4.784  16.598   3.680
58903W        W24130  32.625  20.818  11.209
58904W        W24131  19.698  25.715   0.615
58905W        W24132  18.659   0.905   2.832
58906W        W24133  28.846   2.926   0.472
58907W        W24134  32.585  17.497  14.025
58908W        W24135  41.580  38.122   2.780
58909W        W24136   2.690  19.107   3.380
58910W        W24137  21.982  38.047   0.514
58911W        W24138  16.300  38.270  13.877
58912W        W24139  29.253  13.162  14.358
58913W        W24140  20.091   2.762   5.153
58914W        W24141   3.946   0.489   0.319
58915W        W24142   3.005  15.550   0.399
58916W        W24143  28.385  31.446  11.974
58917W        W24144   6.453  34.932   1.668
58918W        W24145   9.772  44.030   1.222
58919W        W24146  13.410  22.734   1.437
58920W        W24147   7.786   3.673  12.227
58921W        W24148  22.980  22.256  12.267
58922W        W24149  12.736  37.991  12.690
58923W        W24150   8.728  11.104   0.875
58924W        W24151  30.070  10.288  10.495
58925W        W24152  27.759   6.406   1.444
58926W        W24153  19.629  21.966   1.267
58927W        W24154  30.932  17.163   4.710
58928W        W24155  40.034  11.375   1.428
58929W        W24156  16.045   8.673  10.815
58930W        W24157  44.995   9.268   1.433
58931W        W24158  39.659  30.465   4.640
58932W        W24159  44.842  38.988  14.833
58933W        W24160  38.050  14.147   2.667
58934W        W24161  36.347  43.927   1.918
58935W        W24162   0.171  21.238  14.884
58936W        W24163  40.762   2.796  11.485
58937W        W24164  39.055  31.900   1.654
58938W        W24165  36.974  31.593  11.548
58939W        W24166  22.159   9.264   2.672
58940W        W24167  39.369  26.996   2.165
58941W        W24168  14.031   1.285   4.414
58942W        W24169  24.030  35.423   1.688
58943W        W24170  11.297  29.265  14.954
58944W        W24171  14.354  14.794   4.195
58945W        W24172   3.312  38.349  13.018
58946W        W24173  25.162  18.430   3.416
58947W        W24174  32.453   6.166   4.518
58948W        W24175  17.290  10.589   2.254
58949W        W24176  36.959  18.157  13.319
58950W        W24177  43.518   5.216  12.371
58951W        W24178  27.197   4.930   1.788
58952W        W24179   0.349  18.666   1.344
58953W        W24180  34.107  25.999   4.138
58954W        W24181  17.717  25.004  11.123
58955W        W24182  40.763  20.644  14.403
58956W        W24183  26.821  37.106   4.166
58957W        W24184   6.420  29.865   9.882
58958W        W24185   2.006  38.428  12.438
58959W        W24186  34.409   3.654  11.713
58960W        W24187  28.509  13.753   3.334
58961W        W24188  31.362  16.253   4.657
58962W        W24189   1.774  39.346  12.666
58963W        W24190  22.714  29.670  10.042
58964W        W24191  22.744  24.101   0.007
58965W        W24192   2.463  22.515  13.774
58966W        W24193  19.062  12.984   3.295
58967W        W24194  21.995   9.104  11.258
58968W        W24195  39.492  20.607  12.572
58969W        W24196  27.943  17.103   4.609
58970W        W24197  37.919  18.090  12.563
58971W        W24198  38.006   9.943   4.890
58972W        W24199  34.481  43.420   1.025
58973W        W24200  25.157  43.282   3.096
58974W        W24201  26.237  17.660   1.526
58975W        W24202  19.720  37.695  13.996
58976W        W24203   7.231   5.707  14.447
58977W        W24204  36.248  32.074   2.797
58978W        W24205  38.430  32.500   1.998
58979W        W24206  18.697  29.901  11.515
58980W        W24207  43.043  38.893   0.351
58981W        W24208  30.714  25.825  12.531
58982W        W24209  39.443  40.496  11.906
58983W        W24210  22.399  29.721  14.272
58984W        W24211  26.603  11.605  14.999
58985W        W24212  11.656  23.727  14.652
58986W        W24213  19.776  39.851   4.655
58987W        W24214  22.219  10.122  11.220
58988W        W24215  34.594  20.774   2.104
58989W        W24216  22.524   0.748  13.000
58990W        W24217  27.204   0.809  14.915
58991W        W24218   5.359  38.813  12.719
58992W        W24219  12.006  10.307   4.836
58993W        W24220  26.157  24.989   2.707
58994W        W24221   7.276   7.074  11.550
58995W        W24222   9.223  21.218  13.945
58996W        W24223  15.302  10.974  11.145
58997W        W24224  30.138  43.050  14.378
58998W        W24225  23.480   9.685   2.921
58999W        W24226   4.414   0.237   1.261
59000W        W24227  26.723   8.832  11.014
59001W        W24228  20.741  20.719  14.814
59002W        W24229  22.275  31.084  14.388
59003W        W24230  14.836   6.062  12.424
59004W        W24231  33.305  27.717   1.854
59005W        W24232   9.200  27.743   2.265
59006W        W24233  39.542  15.779  14.816
59007W        W24234  32.589   6.455   3.660
59008W        W24235  27.986  27.520  10.497
59009W        W24236  43.736  35.857  11.658
59010W        W24237  37.367   6.967  10.467
59011W        W24238  15.709  24.599  13.544
59012W        W24239  39.736   8.663   2.494
59013W        W24240   4.551  10.675   2.794
59014W        W24241   7.945  32.422   0.916
59015W        W24242  20.312   9.886  12.571
59016W        W24243  15.818  19.629  11.697
59017W        W24244   6.928  35.992   2.717
59018W        W24245  44.249  28.850   1.700
59019W        W24246   6.606  15.143  14.808
59020W        W24247   5.840   2.349  10.724
59021W        W24248  31.598  28.210  13.225
59022W        W24249  27.858  30.641  13.711
59023W        W24250  43.870   1.924   9.803
59024W        W24251  10.900  30.035   1.865
59025W        W24252  34.404  22.222   1.390
59026W        W24253  42.388  43.274   3.239
59027W        W24254   4.782   3.178   2.394
59028W        W24255  18.269   5.351  14.030
59029W        W24256  18.270  44.494  12.496
59030W        W24257  32.955  40.532   4.142
59031W        W24258  10.170  44.903   2.649
59032W        W24259  30.519  42.213  12.589
59033W        W24260   0.326  34.367   2.812
59034W        W24261  34.792  34.084   3.674
59035W        W24262  19.364  29.626   4.286
59036W        W24263  17.257  30.680  11.520
59037W        W24264   7.280  31.032  13.419
59038W        W24265  33.383   4.353   1.302
59039W        W24266  35.766  34.767  13.368
59040W        W24267  14.894   0.802   1.745
59041W        W24268  16.558  38.311  14.754
59042W        W24269   4.917  37.003   4.343
59043W        W24270  30.704  34.403  13.208
59044W        W24271  32.044  37.606  14.910
59045W        W24272  18.066   0.275   0.261
59046W        W24273  20.055  32.575   4.483
59047W        W24274   6.930  10.313  14.660
59048W        W24275   0.854  35.645   4.963
59049W        W24276  16.201  35.951   0.491
59050W        W24277   8.248  15.697   1.681
59051W        W24278   1.607   8.405   3.212
59052W        W24279  30.010  38.924   2.883
59053W        W24280  28.350   4.679  13.467
59054W        W24281   8.194   3.242   3.318
59055W        W24282  30.609  29.630  13.111
59056W        W24283  39.041  26.302   4.129
59057W        W24284   6.229  14.754   9.950
59058W        W24285  18.574  31.510  14.469
59059W        W24286  28.418   5.305   4.561
59060W        W24287  27.784  31.572   1.283
59061W        W24288  17.955  19.520  11.109
59062W        W24289  25.649  35.306  11.527
59063W        W24290  43.959  27.170   2.323
59064W        W24291   5.895  26.507  12.079
59065W        W24292   6.880  13.610  14.308
59066W        W24293  25.587  15.523  10.910
59067W        W24294  35.339  32.619  13.555
59068W        W24295  30.264  31.751   4.544
59069W        W24296  44.737  17.309  13.390
59070W        W24297  18.716   4.396   0.913
59071W        W24298   5.239  44.592  13.462
59072W        W24299  17.081  25.951   0.615
59073W        W24300  10.404  43.202   3.046
59074W        W24301  11.120  17.532  14.342
59075W        W24302   0.213  13.897   0.184
59076W        W24303   3.701  44.432   5.358
59077W        W24304  16.320  20.896  13.558
59078W        W24305  20.204  28.492   5.094
59079W        W24306  44.218   0.907   4.931
59080W        W24307  27.480  30.668  11.757
59081W        W24308  37.464  41.943  11.720
59082W        W24309  25.009  37.809  11.086
59083W        W24310  20.516  34.412  13.796
59084W        W24311  43.349  21.586  12.021
59085W        W24312  22.855  42.505   3.676
59086W        W24313  32.037  37.753  10.262
59087W        W24314   6.409  42.774   1.820
59088W        W24315  44.191  43.751   2.010
59089W        W24316  32.533   6.952   2.855
59090W        W24317   3.113  12.836  10.193
59091W        W24318  34.416  30.619   3.277
59092W        W24319  38.551  38.584  11.677
59093W        W24320  40.122  14.274   5.189
59094W        W24321  18.533  43.243  10.728
59095W        W24322  33.244  38.539  11.417
59096W        W24323  26.912  20.715   2.020
59097W        W24324  13.876  16.526   2.718
59098W        W24325  18.534   1.316   0.798
59099W        W24326  11.306  40.823  12.644
59100W        W24327  15.181  24.126   3.567
59101W        W24328  20.394  19.329  13.467
59102W        W24329  17.022  25.006   2.387
59103W        W24330  37.467  43.395   1.185
59104W        W24331  43.997   7.321   1.862
59105W        W24332  22.636  23.858  10.761
59106W        W24333  42.783  17.035   0.831
59107W        W24334  44.587  25.442   1.374
59108W        W24335   0.368  42.896  10.251
59109W        W24336  37.099  39.534  13.424
59110W        W24337  42.939   9.033   0.807
59111W        W24338   4.176  14.314  13.443
59112W        W24339  38.192  18.706  11.585
59113W        W24340  12.789  10.651   1.217
59114W        W24341  20.490  15.723   1.785
59115W        W24342  31.660  36.495  11.521
59116W        W24343  35.048   2.990   4.311
59117W        W24344  26.287   2.856  11.385
59118W        W24345   5.678   2.492  14.529
59119W        W24346  24.159  37.512  10.287
59120W        W24347  21.423  35.464  11.509
59121W        W24348  35.376  21.732  12.593
59122W        W24349   3.132  11.236  14.552
59123W        W24350  11.377  40.190  14.906
59124W        W24351  38.567  24.380  12.067
59125W        W24352  41.533  40.541   2.730
59126W        W24353  10.750  36.059  12.525
59127W        W24354  27.316  23.103  10.752
59128W        W24355   2.169  19.544  14.826
59129W        W24356  38.100  20.171  11.499
59130W        W24357  31.679  11.678  11.664
59131W        W24358   4.514  17.046   3.584
59132W        W24359  28.390   5.409  10.268
59133W        W24360  42.216   5.625   1.432
59134W        W24361  19.703  18.785   2.401
59135W        W24362   9.935  27.535  12.580
59136W        W24363  15.839  44.993  14.296
59137W        W24364  34.299  33.535   4.092
59138W        W24365  21.718  40.093  13.577
59139W        W24366  13.627  38.923  14.917
59140W        W24367  34.856  13.605   0.595
59141W        W24368  26.662  27.861   4.446
59142W        W24369  12.098   7.916   2.760
59143W        W24370  12.836  23.610   3.823
59144W        W24371  30.311   8.873  13.402
59145W        W24372  25.743  41.520  13.215
59146W        W24373   4.128   3.430  14.393
59147W        W24374  41.467  14.296  13.910
59148W        W24375  30.901  18.272   2.059
59149W        W24376  37.569   5.183   1.448
59150W        W24377  28.103  41.508  12.966
59151W        W24378  42.470   7.568  14.438
59152W        W24379  23.743  12.154   3.298
59153W        W24380  13.631  32.149  12.914
59154W        W24381  19.293  42.516   1.699
59155W        W24382  32.649  43.910  13.289
59156W        W24383   0.253  27.035   0.704
59157W        W24384  19.351   1.195  10.914
59158W        W24385   7.180  44.751   0.315
59159W        W24386  10.927  14.624  12.571
59160W        W24387  39.814  19.054  10.851
59161W        W24388  22.285  25.578  13.434
59162W        W24389   1.819  19.092  10.216
59163W        W24390  41.856  35.550   1.368
59164W        W24391  25.774  22.951   0.390
59165W        W24392  36.231  43.402   3.609
59166W        W24393  27.315  39.293  14.328
59167W        W24394  33.395   9.144  14.009
59168W        W24395   6.911  18.607   0.533
59169W        W24396   1.358  44.985  11.449
59170W        W24397  31.002   7.326   4.542
59171W        W24398  44.524  20.853   5.393
59172W        W24399  25.730   1.786  10.577
59173W        W24400  18.694  11.596   0.404
59174W        W24401   2.145   6.764   1.699
59175W        W24402  22.083   2.510   4.337
59176W        W24403  27.767  38.917   4.504
59177W        W24404  22.437   7.788   1.392
59178W        W24405  16.586  23.264  11.301
59179W        W24406  30.035  38.781   0.443
59180W        W24407  33.381   3.825   3.543
59181W        W24408   2.301  31.739   2.889
59182W        W24409  36.862  11.442  11.447
59183W        W24410  25.512   3.819   4.147
59184W        W24411  22.562   6.533   2.207
59185W        W24412  30.443  43.336  12.898
59186W        W24413  31.449  33.292  13.593
59187W        W24414  13.791  20.493  14.760
59188W        W24415  23.818  34.656  12.688
59189W        W24416  29.027  29.361   1.609
59190W        W24417  22.236  44.851   2.831
59191W        W24418  37.581  40.788   4.155
59192W        W24419   9.462  39.026   1.671
59193W        W24420  30.724  24.129  11.950
59194W        W24421  16.648  16.188   0.719
59195W        W24422   8.123  44.803   1.300
59196W        W24423   9.179  23.296   3.642
59197W        W24424  41.865   2.131   1.176
59198W        W24425   6.930  44.838   1.734
59199W        W24426   8.985  29.156   4.036
59200W        W24427   1.994  10.310  12.253
59201W        W24428  42.987  14.291   0.924
59202W        W24429  36.886  31.925  12.212
59203W        W24430  44.333  41.786  10.430
59204W        W24431   5.131  13.305  12.546
59205W        W24432  11.065  25.609   4.578
59206W        W24433  37.061  21.219  11.816
59207W        W24434  44.266  22.947   2.439
59208W        W24435   9.340   1.726  10.397
59209W        W24436  44.896  42.997  13.043
59210W        W24437  42.434  13.616  11.703
59211W        W24438  20.859  32.929   0.735
59212W        W24439  20.159   4.011   4.769
59213W        W24440  35.394  20.107  11.156
59214W        W24441  22.447  15.696  11.032
59215W        W24442  17.511  10.648  14.466
59216W        W24443  34.097  11.976   4.568
59217W        W24444   9.386  29.671   4.884
59218W        W24445  17.156  29.652   1.479
59219W        W24446  29.054  17.625   4.400
59220W        W24447  26.536  16.184  11.728
59221W        W24448   2.678   7.788  12.531
59222W        W24449  25.106  19.645   2.694
59223W        W24450  39.680  30.558  14.835
59224W        W24451  17.251  36.041   1.944
59225W        W24452  23.772  28.925   1.677
59226W        W24453  33.922   3.291   1.667
59227W        W24454  17.188   0.682  10.794
59228W        W24455  12.729  37.443   4.938
59229W        W24456  21.968  30.365  11.165
59230W        W24457  20.524  14.331  13.549
59231W        W24458  35.680  24.459  13.038
59232W        W24459  20.103  26.997  10.919
59233W        W24460  17.055  43.750   0.340
59234W        W24461  14.415  44.070   0.944
59235W        W24462  32.981  36.685   0.293
59236W        W24463  23.454  10.300   5.004
59237W        W24464  42.464  24.668   0.721
59238W        W24465  25.931  33.654  10.113
59239W        W24466  16.827  15.622  13.437
59240W        W24467  44.423  40.090   1.734
59241W        W24468  43.930  24.178  12.580
59242W        W24469  14.574  30.945  12.100
59243W        W24470  38.804   6.887  13.982
59244W        W24471  32.497  13.945   2.303
59245W        W24472  40.095  41.764   1.704
59246W        W24473   8.598  14.235   2.661
59247W        W24474  35.107  18.710  10.756
59248W        W24475  39.937  21.353   3.571
59249W        W24476   7.554  10.212   3.289
59250W        W24477   8.388  23.056   0.947
59251W        W24478  30.158  26.282  11.781
59252W        W24479  31.135  20.160   4.129
59253W        W24480  20.706  31.583  13.413
59254W        W24481  34.524   8.404   1.348
59255W        W24482  20.060  12.102   3.184
59256W        W24483  37.668  29.439   0.050
59257W        W24484  15.393   0.905   1.820
59258W        W24485  15.852  19.755  14.866
59259W        W24486   6.427  39.690  12.128
59260W        W24487  13.642  11.074  12.475
59261W        W24488  21.013  16.259   3.272
59262W        W24489  13.856  24.451  10.784
59263W        W24490  20.786  34.876   1.776
59264W        W24491  25.488  22.068  13.092
59265W        W24492  36.963  17.577   1.336
59266W        W24493  21.517  42.276  14.359
59267W        W24494   5.164  32.596   1.694
59268W        W24495  25.533  43.228   3.797
59269W        W24496  10.199  27.154  11.517
59270W        W24497  11.348  19.894  14.821
59271W        W24498  23.596  42.722  11.357
59272W        W24499   5.697  35.172  13.797
59273W        W24500  16.621  35.346   3.652
59274W        W24501  13.172  19.673  10.513
59275W        W24502  43.883  40.041  11.674
59276W        W24503  22.148  23.702  11.737
59277W        W24504   2.220   0.738   0.340
59278W        W24505  13.670  12.619  11.705
59279W        W24506   1.231  34.714   4.815
59280W        W24507  15.109  10.903   1.362
59281W        W24508  10.604  25.522   0.455
59282W        W24509  13.803  38.505   2.062
59283W        W24510  30.898   4.782   0.064
59284W        W24511  11.650  11.406  12.978
59285W        W24512   3.726  16.234  12.603
59286W        W24513  25.186   8.188   1.333
59287W        W24514  13.859  34.364   0.213
59288W        W24515  10.374  26.652   0.124
59289W        W24516  40.203  14.178  13.326
59290W        W24517   5.342  11.326  14.342
59291W        W24518  14.436  18.161  10.284
59292W        W24519  10.074  22.293  11.800
59293W        W24520  22.182  16.347  11.142
59294W        W24521  21.104  40.434  10.590
59295W        W24522  21.507  41.821   4.615
59296W        W24523  21.124  31.706   1.697
59297W        W24524  11.292  28.185  11.953
59298W        W24525  44.022  31.545   2.109
59299W        W24526  21.434   2.016   4.056
59300W        W24527  41.705   8.881  12.078
59301W        W24528   8.773   5.523   2.297
59302W        W24529  35.174  42.617  12.612
59303W        W24530  16.229  33.856  11.648
59304W        W24531  22.950  34.019   3.000
59305W        W24532   8.746  13.247  12.638
59306W        W24533  26.599  40.560  10.676
59307W        W24534  30.808  41.409  11.580
59308W        W24535   2.616  16.101   1.266
59309W        W24536  22.217  37.014  14.563
59310W        W24537  31.129   2.256   4.509
59311W        W24538  38.966  28.766  14.235
59312W        W24539  29.164  18.401   1.348
59313W        W24540  42.312   6.335   0.827
59314W        W24541  30.068  28.241   0.369
59315W        W24542  34.830  19.644   3.755
59316W        W24543  37.537  42.816  11.799
59317W        W24544  12.796   3.424   4.162
59318W        W24545  43.295  41.014  10.589
59319W        W24546   1.624  22.503  13.954
59320W        W24547  33.327  10.109   4.813
59321W        W24548   2.966  30.614  14.868
59322W        W24549  28.877  24.079  13.491
59323W        W24550  13.744   6.602   0.467
59324W        W24551  32.429  34.854  11.451
59325W        W24552  41.786  10.811   1.643
59326W        W24553  24.206  43.474  10.527
59327W        W24554   4.743   2.317   1.825
59328W        W24555  13.001  24.816  13.236
59329W        W24556  30.244  43.028   2.252
59330W        W24557  16.003  43.613  10.628
59331W        W24558  19.797  17.810   3.699
59332W        W24559  12.874  35.110   1.395
59333W        W24560  29.213  15.546   1.465
59334W        W24561   1.764  29.431   2.771
59335W        W24562  10.750  12.458  10.732
59336W        W24563  13.174  20.083   2.429
59337W        W24564  35.371  25.959  11.459
59338W        W24565   3.905  25.044   2.133
59339W        W24566  15.189  21.485  11.565
59340W        W24567  22.493   3.207  14.418
59341W        W24568  38.948  36.285   3.567
59342W        W24569  33.933  10.300   1.249
59343W        W24570   8.356  32.291   1.400
59344W        W24571  37.251  26.933  10.656
59345W        W24572  37.538  15.258  12.506
59346W        W24573  32.597   2.397   1.869
59347W        W24574   5.410   3.263  10.148
59348W        W24575  40.814  16.060  13.672
59349W        W24576  35.514   8.947  13.124
59350W        W24577  40.007   3.631   0.474
59351W        W24578  32.164  28.553  14.794
59352W        W24579  19.000  33.186  11.986
59353W        W24580   8.800  39.830  14.410
59354W        W24581  43.931  44.665   2.618
59355W        W24582  13.726  13.609  10.793
59356W        W24583  13.145  22.132  12.603
59357W        W24584   3.778  18.543   3.125
59358W        W24585  43.499  44.385   2.774
59359W        W24586   2.738  34.150  12.344
59360W        W24587  36.976   8.528   3.867
59361W        W24588  30.375  19.239   3.752
59362W        W24589  38.912   3.449   4.777
59363W        W24590  23.429   9.735  11.916
59364W        W24591   8.755  18.120  12.323
59365W        W24592  36.399  34.049  14.758
59366W        W24593  41.263  28.523   4.733
59367W        W24594  15.007   9.621  10.421
59368W        W24595   1.926   4.250  11.697
59369W        W24596  10.019  32.179   4.486
59370W        W24597  17.782  21.743  14.392
59371W        W24598  16.012  20.540   1.024
59372W        W24599  27.470   1.178   2.428
59373W        W24600  13.922  40.313  10.671
59374W        W24601   0.713  34.539  14.951
59375W        W24602   8.247  13.036   4.175
59376W        W24603   7.149  10.304   1.492
59377W        W24604  11.733  42.828   1.816
59378W        W24605  37.971  41.954  13.767
59379W        W24606  15.675   5.739  10.186
59380W        W24607  25.355  34.810   1.747
59381W        W24608   0.262  25.304  12.123
59382W        W24609  22.530  38.587   4.695
59383W        W24610  15.278   9.027   2.570
59384W        W24611   7.942   3.957   3.061
59385W        W24612  35.442  40.533   3.924
59386W        W24613  30.499  20.447  14.197
59387W        W24614  35.406  36.126  10.537
59388W        W24615  36.796  44.253   3.130
59389W        W24616  19.229  14.277   2.283
59390W        W24617  37.435  23.369   0.702
59391W        W24618  35.495  18.519  10.458
59392W        W24619   8.196  24.605   4.393
59393W        W24620   1.951  17.623  13.979
59394W        W24621  25.032  13.377   2.174
59395W        W24622  31.967  33.879  12.440
59396W        W24623  20.906  31.558   3.781
59397W        W24624  30.555  39.331   1.064
59398W        W24625  44.811   0.183  12.054
59399W        W24626  28.376  13.800   9.832
59400W        W24627  11.471  39.103  14.579
59401W        W24628  15.569  43.206   1.357
59402W        W24629  16.696  29.529  13.069
59403W        W24630  29.853   3.980   1.375
59404W        W24631  18.020  15.145   2.151
59405W        W24632   4.745  32.068   4.911
59406W        W24633  26.170  40.763  14.437
59407W        W24634   4.821  37.477  10.680
59408W        W24635   6.659  41.943   0.735
59409W        W24636   4.058  36.070   2.750
59410W        W24637  10.601  33.023  13.458
59411W        W24638  20.897  14.362   4.258
59412W        W24639   8.590  43.864   0.208
59413W        W24640  22.910  32.035  14.015
59414W        W24641   2.711   1.959   4.677
59415W        W24642  42.537  37.032  11.671
59416W        W24643   1.227  25.872   2.203
59417W        W24644  34.126  13.545   1.342
59418W        W24645   2.843   0.964   5.199
59419W        W24646  39.454  27.453   3.783
59420W        W24647   0.175   1.663  14.950
59421W        W24648   6.847  41.662  14.312
59422W        W24649  33.891  30.943   4.944
59423W        W24650  27.143  42.821   0.244
59424W        W24651  42.317  18.087   4.422
59425W        W24652   5.061   8.603   4.144
59426W        W24653  24.961  33.678   2.586
59427W        W24654  32.046   8.703  13.433
59428W        W24655   2.012  43.523   2.716
59429W        W24656  25.635  31.945  11.184
59430W        W24657  15.214   9.860  13.016
59431W        W24658  14.535  40.170   1.505
59432W        W24659  13.239  20.711  11.196
59433W        W24660   0.820  41.308  12.106
59434W        W24661  28.655  24.185  11.909
59435W        W24662  25.604   5.137   0.038
59436W        W24663  44.885  33.000   4.138
59437W        W24664   0.834  26.823  12.933
59438W        W24665   2.489  44.040  14.524
59439W        W24666  19.662  30.140  10.997
59440W        W24667  43.874  35.287  10.689
59441W        W24668  18.027  15.352   1.660
59442W        W24669   5.954  35.979  13.359
59443W        W24670  18.800   9.110  14.333
59444W        W24671  44.546  40.347  14.041
59445W        W24672  18.049  15.070   3.160
59446W        W24673  22.308  26.985   4.096
59447W        W24674  14.476  19.257  14.783
59448W        W24675  16.066  35.759  12.857
59449W        W24676  27.652  26.905   0.770
59450W        W24677   9.858   1.845  14.401
59451W        W24678  31.327  29.107   4.927
59452W        W24679  10.207  36.400  11.118
59453W        W24680  33.843  17.322  10.082
59454W        W24681  19.762  27.633   3.317
59455W        W24682  28.357  37.314  13.520
59456W        W24683   6.693   0.506  10.640
59457W        W24684  11.708  31.427   1.402
59458W        W24685  42.132   8.338  13.844
59459W        W24686  32.835  39.481   3.207
59460W        W24687  43.742  34.754  10.746
59461W        W24688  38.094  14.249   3.693
59462W        W24689  35.670  39.129   0.221
59463W        W24690  33.433   0.190   4.445
59464W        W24691  30.879  39.970   3.742
59465W        W24692  36.534  14.739   4.161
59466W        W24693   7.080  13.124   2.460
59467W        W24694  23.218  32.473  10.356
59468W        W24695  44.784  10.804  13.733
59469W        W24696   2.040   2.902   4.158
59470W        W24697   4.691  31.048   2.530
59471W        W24698  22.596   3.627   4.143
59472W        W24699   1.212  44.234   1.364
59473W        W24700  36.832   0.838  14.949
59474W        W24701   9.301  12.011   4.139
59475W        W24702  24.746  12.862  14.822
59476W        W24703  33.136  13.849   3.126
59477W        W24704  13.619   8.131  11.142
59478W        W24705  43.325  26.534   1.334
59479W        W24706  10.730  39.812   3.839
59480W        W24707  38.541  39.940   2.668
59481W        W24708  11.770   6.359  14.568
59482W        W24709  31.565  16.171  11.542
59483W        W24710   8.204  11.695   1.710
59484W        W24711  42.362   4.029  14.579
59485W        W24712  31.470  30.231   0.844
59486W        W24713   9.853  41.754   1.816
59487W        W24714  41.769  14.738   4.488
59488W        W24715  23.712  38.446  13.287
59489W        W24716   3.987  43.889   0.954
59490W        W24717  35.956  31.834   1.219
59491W        W24718  28.663  39.994  14.468
59492W        W24719  42.327  43.856  14.703
59493W        W24720  30.618  39.042   3.695
59494W        W24721  17.705  12.813  14.448
59495W        W24722  17.919  27.110   2.149
59496W        W24723  29.283  29.034   3.640
59497W        W24724  40.251  40.228  10.884
59498W        W24725  22.869  25.454  10.370
59499W        W24726  20.835  21.076  13.852
59500W        W24727  33.678  40.965  10.794
59501W        W24728  20.825  23.750   2.674
59502W        W24729  37.491   0.332   1.618
59503W        W24730   8.455  31.035  13.791
59504W        W24731  25.999  20.060   2.697
59505W        W24732  10.608  32.206  13.896
59506W        W24733  43.716  44.865   2.157
59507W        W24734   9.722  41.829  11.666
59508W        W24735   9.783  44.455  13.925
59509W        W24736  11.151  21.135  13.039
59510W        W24737  30.966   9.252   4.830
59511W        W24738  38.509   0.951  14.370
59512W        W24739  12.940  21.629   3.755
59513W        W24740  38.436  41.451  13.477
59514W        W24741  16.655  27.582   2.486
59515W        W24742   4.657  25.506   1.721
59516W        W24743  13.157  34.454   3.732
59517W        W24744   1.167  18.630   1.705
59518W        W24745   0.311   5.836  10.607
59519W        W24746  21.109  27.642   1.745
59520W        W24747  20.486   7.486   1.370
59521W        W24748  37.412  15.223   4.724
59522W        W24749  41.415  16.861  11.145
59523W        W24750  32.544  22.218   1.447
59524W        W24751   8.658  19.272   0.339
59525W        W24752   1.750  11.752   1.363
59526W        W24753  16.903   6.881  12.429
59527W        W24754   7.677  35.932   3.214
59528W        W24755  32.865  28.678   2.760
59529W        W24756  20.266  37.967   3.245
59530W        W24757  44.183   9.636  13.841
59531W        W24758  10.725   6.993  14.374
59532W        W24759  27.522  26.671   0.317
59533W        W24760  17.515  28.623  12.921
59534W        W24761  42.042  35.766  12.001
59535W        W24762  33.944  25.062   3.673
59536W        W24763  43.472  32.527  14.902
59537W        W24764  30.428  16.537   3.185
59538W        W24765  27.460  29.090   2.330
59539W        W24766  27.053   2.662  11.977
59540W        W24767  31.585  30.608  12.100
59541W        W24768  11.834  31.710  10.485
59542W        W24769  29.799  30.543   1.232
59543W        W24770  15.124  27.258   0.382
59544W        W24771  35.353  42.179  12.409
59545W        W24772   3.458  43.436  13.216
59546W        W24773  17.079  43.666  12.866
59547W        W24774  37.594  17.366   4.179
59548W        W24775  44.911  11.780   3.152
59549W        W24776   0.432  24.994  14.805
59550W        W24777  23.584  28.156   2.591
59551W        W24778  24.658   0.043  11.519
59552W        W24779  35.138  44.790   0.159
59553W        W24780  43.659  10.128   4.387
59554W        W24781  20.101  28.367  12.444
59555W        W24782  38.775  14.691   3.620
59556W        W24783  29.827   9.045  13.362
59557W        W24784  20.718  17.316  11.654
59558W        W24785  36.329  16.787  14.411
59559W        W24786  13.998  26.689   3.159
59560W        W24787   2.272  38.144  11.214
59561W        W24788  13.552   3.874  11.067
59562W        W24789  34.001   1.448   4.036
59563W        W24790  34.365  21.279  11.844
59564W        W24791   9.441  22.000   1.269
59565W        W24792   8.757  35.551  12.104
59566W        W24793  37.560  27.442   4.782
59567W        W24794  37.900  33.983   1.249
59568W        W24795  20.741  36.130  13.842
59569W        W24796  43.060  34.785   1.337
59570W        W24797  27.484  18.898  11.994
59571W        W24798  12.957   7.795   4.193
59572W        W24799  18.786  36.929  13.418
59573W        W24800  22.727   8.316  12.621
59574W        W24801  24.207  38.499   0.709
59575W        W24802  35.025  11.867   4.811
59576W        W24803   4.550  17.907   4.184
59577W        W24804  28.600  11.424  11.227
59578W        W24805  27.650   9.876  12.696
59579W        W24806  13.394  28.401   3.851
59580W        W24807  14.232   7.220  12.035
59581W        W24808   7.341  32.001   1.526
59582W        W24809  38.953  29.638   1.435
59583W        W24810  10.397  44.798   4.463
59584W        W24811  39.416  11.215  10.797
59585W        W24812  36.489  18.592  12.095
59586W        W24813  17.596  10.238   4.657
59587W        W24814  43.606  41.418  13.442
59588W        W24815  29.916   7.719   0.789
59589W        W24816  19.787  43.570   2.843
59590W        W24817  34.789  30.122   2.244
59591W        W24818   4.448  44.329  13.883
59592W        W24819  43.912   4.317  12.594
59593W        W24820  35.541  14.110   3.516
59594W        W24821   5.402  18.597   3.712
59595W        W24822   9.788  39.832   2.416
59596W        W24823  25.717  23.301   1.234
59597W        W24824   8.429  11.335  12.550
59598W        W24825  26.873  13.237   1.708
59599W        W24826   6.459  14.625  14.935
59600W        W24827   5.882   7.053   4.568
59601W        W24828   6.860  44.598  12.994
59602W        W24829  13.431  16.880   1.874
59603W        W24830  17.066  30.569  12.423
59604W        W24831  24.168  16.757   0.881
59605W        W24832   5.774  12.187   1.629
59606W        W24833  24.100  19.490   1.128
59607W        W24834  27.293  15.565  13.896
59608W        W24835  12.628  13.705  10.704
59609W        W24836  35.482  33.682   2.260
59610W        W24837  25.628  19.226   0.723
59611W        W24838   1.481  28.939   2.343
59612W        W24839   8.926  34.962   2.679
59613W        W24840   6.584  34.025  11.525
59614W        W24841  26.706  27.927   3.830
59615W        W24842  36.011   4.208  12.025
59616W        W24843  32.290  40.287   1.727
59617W        W24844   3.256   4.856  14.913
59618W        W24845  35.489   9.813  14.905
59619W        W24846  41.460  39.424   2.153
59620W        W24847  32.291  43.301   1.247
59621W        W24848  37.433   7.797   0.747
59622W        W24849  11.305   6.316  14.290
59623W        W24850  22.672  27.576   0.541
59624W        W24851  11.615  35.913  13.470
59625W        W24852  27.960  21.727  11.192
59626W        W24853  20.407  29.007   4.583
59627W        W24854  21.896  36.362   2.339
59628W        W24855  32.423  25.214  13.885
59629W        W24856  20.470   3.809   3.293
59630W        W24857   1.528  36.038  13.874
59631W        W24858  11.048  41.119   2.317
59632W        W24859   5.254  16.651   4.613
59633W        W24860  35.943  34.368   4.178
59634W        W24861  22.014  41.328  11.869
59635W        W24862  17.658  22.947   0.483
59636W        W24863   4.595  11.607   0.105
59637W        W24864   9.925  41.570   2.762
59638W        W24865  29.088  32.271  10.503
59639W        W24866   2.028  25.013  11.655
59640W        W24867   4.359  32.853   2.431
59641W        W24868  40.516  15.977  11.035
59642W        W24869   8.081  38.494  11.999
59643W        W24870  10.916  14.987  11.587
59644W        W24871   8.430   7.625   2.960
59645W        W24872   1.907  23.061  11.465
59646W        W24873  29.998  44.029   2.528
59647W        W24874  41.902  16.063  11.243
59648W        W24875  39.275  33.637   0.325
59649W        W24876  25.450   7.449  11.704
59650W        W24877  13.181  35.863   4.152
59651W        W24878  36.568  20.159  12.321
59652W        W24879  39.366  23.134  13.267
59653W        W24880  34.027  37.974   1.772
59654W        W24881  11.502   7.829  11.733
59655W        W24882  33.148  10.749   1.263
59656W        W24883  32.545  41.954   0.409
59657W        W24884  16.754  36.081   2.299
59658W        W24885  10.352  35.606  11.900
59659W        W24886  14.284  40.133   4.554
59660W        W24887  22.516  30.397  11.262
59661W        W24888   6.464  29.128   2.251
59662W        W24889  24.475   8.708   2.849
59663W        W24890  13.607  41.221  14.431
59664W        W24891   6.238  22.793   1.224
59665W        W24892  25.088  31.484   2.950
59666W        W24893  38.801  33.288   1.332
59667W        W24894  18.843  15.267  11.283
59668W        W24895   0.845  39.338   0.467
59669W        W24896  10.634  27.672  14.052
59670W        W24897  42.849  12.253   0.632
59671W        W24898  28.381  36.776  12.458
59672W        W24899  14.694  17.352   0.693
59673W        W24900  27.384  29.547   4.235
59674W        W24901  43.965   4.715  12.935
59675W        W24902  22.203  20.282  13.464
59676W        W24903  35.842  24.941  14.750
59677W        W24904  35.051  28.534   1.190
59678W        W24905  27.996  39.792  12.618
59679W        W24906  24.114  20.908   3.230
59680W        W24907  24.729  22.184   3.268
59681W        W24908  38.158   6.381  12.213
59682W        W24909   9.256  13.456  12.055
59683W        W24910  40.511  25.689  13.381
59684W        W24911  43.959  23.998   2.470
59685W        W24912  26.080  27.582  13.366
59686W        W24913  16.709  40.555  14.855
59687W        W24914  23.953   7.932  14.820
59688W        W24915  26.555   2.532  12.094
59689W        W24916  31.909  19.227   4.597
59690W        W24917  38.488  42.000   3.227
59691W        W24918  42.512  44.659  11.137
59692W        W24919   0.398  40.790   3.046
59693W        W24920  18.181  33.196   3.336
59694W        W24921  14.895  23.670   1.496
59695W        W24922  32.461  32.571   0.279
59696W        W24923  28.044  33.110   1.797
59697W        W24924  22.072  12.830   4.633
59698W        W24925   3.314  33.216   0.844
59699W        W24926   2.657  23.432   2.188
59700W        W24927  25.887  40.333  11.902
59701W        W24928  17.255  17.282  12.751
59702W        W24929  43.141  13.090   2.700
59703W        W24930   7.250   1.356  11.533
59704W        W24931   7.251  18.443  14.291
59705W        W24932  37.007  37.505  11.410
59706W        W24933  41.539  19.061  10.652
59707W        W24934  17.835  19.329  11.955
59708W        W24935  42.713  32.598   1.741
59709W        W24936  33.216  15.758  12.970
59710W        W24937  10.561  17.565  14.423
59711W        W24938  32.111   5.803   3.236
59712W        W24939  35.992  18.072   3.771
59713W        W24940  20.842  30.466   4.613
59714W        W24941  27.878  44.905   2.131
59715W        W24942   4.236   3.904  12.526
59716W        W24943  25.115   1.905   0.356
59717W        W24944  18.647  18.804  12.998
59718W        W24945  10.286  18.035   3.735
59719W        W24946  44.768  40.945   1.183
59720W        W24947  10.396  22.570  10.665
59721W        W24948   6.667  28.471  11.216
59722W        W24949  21.562  40.908  10.741
59723W        W24950  29.926  35.620  14.046
59724W        W24951  38.775  15.316  13.994
59725W        W24952  38.961   4.749  10.700
59726W        W24953  26.398  41.297   3.952
59727W        W24954  16.815  20.769  10.851
59728W        W24955  43.961  37.937  14.012
59729W        W24956   3.920  32.116   2.351
59730W        W24957   6.878   4.169   1.061
59731W        W24958  26.983  12.336  11.585
59732W        W24959  41.367  12.818  11.883
59733W        W24960   7.705   1.444   3.320
59734W        W24961  14.547  10.427   4.133
59735W        W24962  39.266  19.996   0.471
59736W        W24963  44.350  40.936  11.180
59737W        W24964  28.455  21.604  10.837
59738W        W24965   5.714   1.176   2.772
59739W        W24966  24.195  25.904  13.537
59740W        W24967  44.292  24.880  13.607
59741W        W24968  40.834  27.887  13.343
59742W        W24969  11.912   9.702  10.470
59743W        W24970   6.819  10.791  14.853
59744W        W24971  28.511  22.274   1.716
59745W        W24972  42.034  29.987  14.590
59746W        W24973  31.110  43.441   3.352
59747W        W24974  38.663  32.510   0.455
59748W        W24975  28.663  36.834   3.212
59749W        W24976  18.682  16.831   3.359
59750W        W24977  41.431  14.258   0.836
59751W        W24978  30.663  25.712   0.984
59752W        W24979   2.189  28.930  13.984
59753W        W24980   0.177   0.535  12.099
59754W        W24981   0.752  12.669  13.410
59755W        W24982  26.366   7.236   3.686
59756W        W24983  22.710  33.191   2.608
59757W        W24984  21.157  18.186  12.005
59758W        W24985  38.341  37.546  12.057
59759W        W24986  39.517  28.323   2.508
59760W        W24987  15.710  37.494  10.517
59761W        W24988  32.912   7.725   2.628
59762W        W24989  20.314  40.859  14.396
59763W        W24990  13.267  12.194  13.371
59764W        W24991   3.291   9.629   1.334
59765W        W24992   5.905  22.172   3.170
59766W        W24993  41.934  16.861   1.793
59767W        W24994   5.329   0.716  11.907
59768W        W24995  24.212  13.716   0.417
59769W        W24996   3.017  20.204  13.003
59770W        W24997   1.492  33.989   2.479
59771W        W24998   9.779   7.644   4.213
59772W        W24999  41.187  42.648   3.074
59773W        W25000   5.393   7.340  10.925
59774W        W25001  29.373   3.438   3.179
59775W        W25002   1.266   3.169  12.107
59776W        W25003   5.858  42.088  13.590
59777W        W25004   3.880  22.237  12.454
59778W        W25005  25.103  41.894  12.084
59779W        W25006  16.575  35.790  12.878
59780W        W25007   6.237   6.594  10.321
59781W        W25008   5.382  19.844   1.239
59782W        W25009  20.997  35.818   4.889
59783W        W25010  32.007   3.643  13.301
59784W        W25011   1.286   1.618  11.143
59785W        W25012  43.895  39.512   4.606
59786W        W25013  15.830  44.250   2.855
59787W        W25014  27.923   7.304  11.080
59788W        W25015  35.289  15.052  13.878
59789W        W25016  41.572  10.743  11.218
59790W        W25017   6.904   3.969  12.675
59791W        W25018  44.806  39.054   1.385
59792W        W25019   5.913  21.212  11.107
59793W        W25020  33.418  31.150   2.182
59794W        W25021   9.439  18.189  13.101
59795W        W25022  10.801  15.371   2.584
59796W        W25023  13.300  28.181   4.675
59797W        W25024  40.137   7.660  14.120
59798W        W25025  13.193  24.609  14.786
59799W        W25026  33.118  15.318   0.900
59800W        W25027  19.678  25.274  12.963
59801W        W25028  19.794   7.504  10.943
59802W        W25029   5.110  29.178  13.456
59803W        W25030   6.562  34.089  13.824
59804W        W25031  11.326  38.472  14.467
59805W        W25032  13.136   3.972  12.397
59806W        W25033  28.336   0.138  10.989
59807W        W25034  28.335  10.751  13.422
59808W        W25035  26.652   0.330   3.167
59809W        W25036  30.638  39.128   4.219
59810W        W25037  43.899  12.723  11.172
59811W        W25038  13.213   9.023  11.568
59812W        W25039  35.011   2.925   0.293
59813W        W25040  27.763  10.644  12.205
59814W        W25041   9.748   9.277   3.979
59815W        W25042  38.416  16.664  14.408
59816W        W25043  19.522   2.287  11.175
59817W        W25044  29.084  44.252   4.376
59818W        W25045  41.976  18.711   2.114
59819W        W25046  10.784  23.772   4.682
59820W        W25047  27.952  41.927   2.669
59821W        W25048  18.332  33.060  13.953
59822W        W25049  23.781  16.783   3.514
59823W        W25050  10.754  25.005   3.932
59824W        W25051  34.955   1.500   4.193
59825W        W25052  39.973   1.912  13.386
59826W        W25053   9.861  23.461  13.209
59827W        W25054   1.709  25.173   2.812
59828W        W25055  27.570  21.511  13.768
59829W        W25056   0.291  16.472   3.663
59830W        W25057  40.650   8.999   2.178
59831W        W25058  28.001  15.318   1.514
59832W        W25059  22.282  42.493  13.810
59833W        W25060  30.776  22.408  14.581
59834W        W25061  41.425  36.953  10.734
59835W        W25062   7.834  36.395   0.818
59836W        W25063  34.893  10.303   4.558
59837W        W25064   3.454  28.469   3.537
59838W        W25065   9.587  28.472  13.003
59839W        W25066   9.833  26.782   1.386
59840W        W25067  32.378   5.717  11.085
59841W        W25068  25.997  35.648  11.608
59842W        W25069  12.080   0.435  12.997
59843W        W25070  35.687  18.744   4.127
59844W        W25071  22.991  37.114  11.128
59845W        W25072  40.421  14.386   4.280
59846W        W25073  18.798   8.396  11.203
59847W        W25074   0.655  37.369  14.860
59848W        W25075  24.778  20.176  10.735
59849W        W25076  16.631  24.247   4.493
59850W        W25077  11.685   6.836  14.807
59851W        W25078  40.660  42.794  14.743
59852W        W25079  24.060   4.703  12.050
59853W        W25080  43.297  30.187   9.608
59854W        W25081  20.794  28.706   0.753
59855W        W25082  42.760  30.620  13.284
59856W        W25083  39.382  17.802  14.889
59857W        W25084  23.113  37.462   0.835
59858W        W25085   7.852  44.096   3.261
59859W        W25086   3.319  22.737   3.733
59860W        W25087   5.806  42.406  10.686
59861W        W25088  22.032  23.079   4.215
59862W        W25089  14.642  37.536  14.277
59863W        W25090   8.797  20.587   0.966
59864W        W25091   1.959  39.836  12.878
59865W        W25092  37.072  25.716   2.369
59866W        W25093   1.820  26.932   0.233
59867W        W25094  34.253  16.290  10.087
59868W        W25095  22.129  12.139   1.872
59869W        W25096  32.723   5.067   2.221
59870W        W25097   5.716  10.874   3.195
59871W        W25098   6.240  34.717  13.288
59872W        W25099   0.966  40.710  11.571
59873W        W25100  17.747  12.219   1.688
59874W        W25101  35.040  21.184  13.134
59875W        W25102  29.771   2.540  13.964
59876W        W25103   1.897  39.905  14.515
59877W        W25104  32.900  24.184   2.755
59878W        W25105  35.402  21.309   3.729
59879W        W25106  28.456   8.399   3.337
59880W        W25107  24.125  35.883  10.737
59881W        W25108  30.157   9.070  11.072
59882W        W25109  24.481  42.739   4.310
59883W        W25110  40.771  43.396   1.745
59884W        W25111  30.247  18.104   3.411
59885W        W25112   4.907  40.728  12.083
59886W        W25113  33.022  17.500   3.186
59887W        W25114   6.171  14.322   5.001
59888W        W25115  24.211  28.453  12.845
59889W        W25116   3.359  10.780  12.226
59890W        W25117  24.386  20.634   2.872
59891W        W25118  17.323  42.794   3.228
59892W        W25119  29.965  17.475  14.891
59893W        W25120   7.384  36.589   1.002
59894W        W25121  12.107   8.738  10.939
59895W        W25122  28.446  26.803   3.712
59896W        W25123  32.029   7.863   1.293
59897W        W25124  29.567  24.833   3.470
59898W        W25125  12.554  19.151   2.554
59899W        W25126  29.158  20.106   0.189
59900W        W25127  17.575  43.442  11.345
59901W        W25128  15.628   5.243  12.082
59902W        W25129  17.772  35.673   0.008
59903W        W25130   2.995  17.807   4.109
59904W        W25131  31.823  10.232   4.971
59905W        W25132  15.910  16.396  12.098
59906W        W25133  18.295   0.821  11.180
59907W        W25134  26.706  26.854  10.226
59908W        W25135  19.882  10.617   1.188
59909W        W25136   8.433  35.633  12.518
59910W        W25137  19.388  11.181  13.167
59911W        W25138   9.354  38.915  13.788
59912W        W25139  10.838  40.812   1.972
59913W        W25140  28.320  22.200  10.447
59914W        W25141  43.584   4.716   9.999
59915W        W25142  13.348   7.255  13.288
59916W        W25143  10.381  33.499   9.849
59917W        W25144   8.381  31.685  12.004
59918W        W25145  21.753  38.581  13.397
59919W        W25146   1.304  31.670   4.609
59920W        W25147   1.876  21.736   3.752
59921W        W25148  17.018  11.808   4.046
59922W        W25149   6.974  30.076   2.417
59923W        W25150  24.573  12.261  12.894
59924W        W25151  39.225  42.784  14.768
59925W        W25152  33.521  16.546   0.470
59926W        W25153  12.950  20.898   2.811
59927W        W25154  33.097  32.312  11.494
59928W        W25155   7.695  13.638  11.932
59929W        W25156  23.766  38.116   2.435
59930W        W25157   5.068  10.094  10.143
59931W        W25158  28.493  16.784   1.419
59932W        W25159  16.132  18.839  12.537
59933W        W25160  33.076   3.449   3.229
59934W        W25161  40.756  13.856  11.534
59935W        W25162   3.667  37.932   3.897
59936W        W25163   9.224  30.966   3.323
59937W        W25164  21.705  27.743   1.030
59938W        W25165   8.578  44.722  11.855
59939W        W25166  22.509  15.435   3.176
59940W        W25167   5.699  16.100   4.680
59941W        W25168  14.742  33.576   4.470
59942W        W25169  31.083  31.503  10.136
59943W        W25170  38.720   9.836   4.184
59944W        W25171  33.098  39.137   2.886
59945W        W25172  14.904  17.563   3.558
59946W        W25173  36.383  11.178  11.436
59947W        W25174   4.461   2.712  14.909
59948W        W25175  38.033  11.399  10.644
59949W        W25176  16.059  23.998  14.088
59950W        W25177  21.173  29.859   5.153
59951W        W25178  15.271  36.726  13.010
59952W        W25179  10.821   9.694   4.147
59953W        W25180  17.721  40.091   2.867
59954W        W25181  14.321   9.685   0.579
59955W        W25182  18.554  16.771  14.735
59956W        W25183  36.393  12.657  12.058
59957W        W25184  36.570  23.932  13.885
59958W        W25185   9.682  12.087  14.863
59959W        W25186  31.766  44.814   3.109
59960W        W25187  18.813  27.649   4.685
59961W        W25188   0.491  44.056  13.388
59962W        W25189  36.378  35.677   5.131
59963W        W25190  24.232  24.514   1.371
59964W        W25191  20.729   9.255   3.432
59965W        W25192  12.165   4.647   1.649
59966W        W25193  35.819  20.011  14.159
59967W        W25194  34.796  13.788   2.115
59968W        W25195  39.948  23.432   1.640
59969W        W25196  15.057   1.256   4.120
59970W        W25197  15.685  37.907   0.568
59971W        W25198  31.560  34.767  14.293
59972W        W25199  28.724  11.942  11.861
59973W        W25200  21.150  21.809   0.269
59974W        W25201  16.051   2.317   3.417
59975W        W25202  23.765  25.712   2.209
59976W        W25203  10.618  16.700   0.850
59977W        W25204  38.895   4.252   2.351
59978W        W25205  15.690   5.139   2.658
59979W        W25206  43.250   3.970   2.263
59980W        W25207  16.253   1.241  12.858
59981W        W25208  38.397  25.847  12.515
59982W        W25209  41.955  32.067   4.068
59983W        W25210   1.626  40.702  13.116
59984W        W25211  11.644  35.567  13.859
59985W        W25212   1.804  25.946   1.292
59986W        W25213  23.475  26.566   1.681
59987W        W25214  43.765  31.910  13.016
59988W        W25215  23.011  34.863   1.070
59989W        W25216  10.653  27.672  12.008
59990W        W25217  28.067  18.630  12.875
59991W        W25218  32.541   9.237  12.604
59992W        W25219  27.051  38.870  12.489
59993W        W25220   7.277  37.579  13.448
59994W        W25221  11.151   1.169   0.822
59995W        W25222  43.017  16.790  10.602
59996W        W25223  39.796  30.817  11.232
59997W        W25224  30.558   2.674   3.204
59998W        W25225  43.077  22.694   0.486
59999W        W25226  22.085  41.059  11.450
60000W        W25227  37.468   1.304  10.718
60001W        W25228  42.581  10.866  12.560
60002W        W25229  12.365  21.523   1.569
60003W        W25230   6.611   4.932  12.422
60004W        W25231  36.426  35.063  14.434
60005W        W25232  37.377  22.302   5.012
60006W        W25233  41.935  14.471   3.090
60007W        W25234   7.468  24.763   2.789
60008W        W25235  28.916  25.750  13.016
60009W        W25236  44.275  26.729  13.005
60010W        W25237  26.024  23.210  13.344
60011W        W25238  25.514   0.844   2.437
60012W        W25239  27.143   3.263   2.583
60013W        W25240   2.065   6.440  11.165
60014W        W25241   5.816  24.504   4.003
60015W        W25242  23.252  21.517   2.744
60016W        W25243  23.411  33.816  11.021
60017W        W25244  23.445   6.653  10.839
60018W        W25245  40.050  42.895  12.991
60019W        W25246   1.755  31.959   4.630
60020W        W25247  17.932  13.435   0.535
60021W        W25248  26.459  11.960   1.890
60022W        W25249  26.235  12.042   2.760
60023W        W25250  13.805  24.237   0.246
60024W        W25251  36.605  32.592   4.100
60025W        W25252  27.285  35.077  13.457
60026W        W25253  14.302  21.125   0.605
60027W        W25254  26.729  10.290   0.340
60028W        W25255  28.198  24.673   2.761
60029W        W25256  43.880   0.051  11.073
60030W        W25257  37.882   2.404   0.544
60031W        W25258  23.986   6.268  12.972
60032W        W25259   1.691  18.427   2.360
60033W        W25260  34.855  32.739  13.754
60034W        W25261  39.994  19.168   0.672
60035W        W25262  20.456  25.734  13.977
60036W        W25263  19.773  40.483   3.586
60037W        W25264  35.066  18.770   1.994
60038W        W25265  13.623  43.821  13.894
60039W        W25266  33.418   1.528  11.274
60040W        W25267   2.369  38.778   3.284
60041W        W25268  44.215  41.864   1.768
60042W        W25269   8.478  39.346   0.945
60043W        W25270  40.222   2.834  13.497
60044W        W25271   2.757  32.995   0.218
60045W        W25272  20.530  12.281   3.257
60046W        W25273   5.818  29.640   2.031
60047W        W25274  34.874   2.415   1.342
60048W        W25275  14.098  30.191  13.417
60049W        W25276  36.580  40.634  12.894
60050W        W25277  22.639  26.493   4.589
60051W        W25278  17.241  22.565  12.799
60052W        W25279  40.282   6.130  13.272
60053W        W25280  21.232  27.899   2.756
60054W        W25281   1.953  41.534  13.861
60055W        W25282  26.672   4.295  12.492
60056W        W25283  44.762  30.394   1.444
60057W        W25284   5.816  17.790  13.415
60058W        W25285  41.033  41.379  10.695
60059W        W25286   4.861  16.880   0.962
60060W        W25287  42.161  25.000   4.961
60061W        W25288  16.297  31.658  14.952
60062W        W25289  26.646  12.657   3.734
60063W        W25290  22.468  41.396   2.164
60064W        W25291   2.789  42.915  13.889
60065W        W25292  11.320  35.862   3.530
60066W        W25293   7.731  12.143   4.078
60067W        W25294   3.674  40.327  12.288
60068W        W25295  20.797  27.464   2.141
60069W        W25296   5.526  28.623   0.413
60070W        W25297   3.013  13.557   2.674
60071W        W25298  36.940  35.427  13.907
60072W        W25299   6.259   7.551  10.790
60073W        W25300  38.971  23.234  14.568
60074W        W25301  29.726   0.112   1.699
60075W        W25302  26.399  13.252  10.812
60076W        W25303  30.750  18.085  10.847
60077W        W25304   1.978  32.153   0.480
60078W        W25305  23.219  11.641   2.740
60079W        W25306  33.967  33.932   4.251
60080W        W25307  44.910  26.057  13.740
60081W        W25308   9.336  19.138   1.662
60082W        W25309  28.152   9.308   3.382
60083W        W25310  34.038  10.087   0.238
60084W        W25311   3.837  40.487  12.812
60085W        W25312   8.348  30.042   4.433
60086W        W25313   4.752  37.872   3.719
60087W        W25314  21.154  15.032   4.323
60088W        W25315  10.873   8.422   0.953
60089W        W25316  23.712  23.596   0.445
60090W        W25317  44.883   9.806  12.373
60091W        W25318  34.809  29.257   0.500
60092W        W25319  30.522  35.412  13.382
60093W        W25320   0.350  44.332   0.256
60094W        W25321  39.262   6.597  14.704
60095W        W25322  18.112  27.039  12.211
60096W        W25323  29.975  44.430   3.234
60097W        W25324  18.233  33.486  14.569
60098W        W25325  10.773  20.499  14.006
60099W        W25326  25.943  31.959   0.852
60100W        W25327   0.963  18.608   3.104
60101W        W25328   6.214  26.419   2.754
60102W        W25329  36.469  39.207   3.275
60103W        W25330  17.059  42.530   1.748
60104W        W25331  20.723  42.294  13.044
60105W        W25332  31.958  38.038   4.122
60106W        W25333  20.665  39.939   4.434
60107W        W25334  25.163  43.981  12.211
60108W        W25335  33.220  40.074   4.231
60109W        W25336  38.040  32.136   2.988
60110W        W25337   4.887   9.693   3.343
60111W        W25338   6.797  36.692   1.907
60112W        W25339   7.943  22.715  11.600
60113W        W25340  23.775  10.851   0.897
60114W        W25341  17.710  25.215  12.510
60115W        W25342  13.707  27.391   4.723
60116W        W25343   5.349   8.724  11.398
60117W        W25344  24.112  41.437   1.395
60118W        W25345  34.351  27.983  10.282
60119W        W25346  30.984  39.386   0.751
60120W        W25347  17.606  39.033  10.475
60121W        W25348  43.530  15.623   3.353
60122W        W25349   7.809  22.011  14.926
60123W        W25350  24.113  15.670  13.848
60124W        W25351  27.472  15.115  11.182
60125W        W25352  26.212   9.152  12.794
60126W        W25353  41.376  36.600   2.130
60127W        W25354  40.668   4.821   1.413
60128W        W25355  28.932  13.807  14.793
60129W        W25356  25.898  20.597  12.440
60130W        W25357  31.268   6.690  11.115
60131W        W25358  14.866  31.496  14.010
60132W        W25359  14.689  25.981   4.684
60133W        W25360  29.055  29.002  14.788
60134W        W25361  26.469   0.232  11.647
60135W        W25362  43.194   0.559   2.449
60136W        W25363  42.138  33.402  13.802
60137W        W25364  21.830  39.352  11.520
60138W        W25365   2.883  39.893  13.237
60139W        W25366   5.294  31.590   0.227
60140W        W25367  18.649   3.751  12.491
60141W        W25368  38.285  33.954  11.578
60142W        W25369  34.900  43.182   0.797
60143W        W25370  10.537  22.541  11.990
60144W        W25371   6.800  40.806   1.190
60145W        W25372  41.330   5.358   2.610
60146W        W25373  25.532  36.844  11.578
60147W        W25374  13.211  35.314  11.932
60148W        W25375   8.233  23.142  10.716
60149W        W25376   5.176  30.431  11.959
60150W        W25377  35.123   3.211  12.534
60151W        W25378  16.069  31.948  12.857
60152W        W25379   9.622   9.224   0.821
60153W        W25380  11.919   1.836   3.692
60154W        W25381  34.542  27.057  12.356
60155W        W25382   7.323  38.434   1.626
60156W        W25383  21.983  41.801  14.458
60157W        W25384  20.558  43.491   4.736
60158W        W25385  13.524  25.191  14.952
60159W        W25386  29.198  23.837   0.355
60160W        W25387  24.545  27.584   3.924
60161W        W25388  11.776  13.358  10.647
60162W        W25389  28.701  15.881  13.321
60163W        W25390  24.713  21.008   2.705
60164W        W25391  36.635  11.389  10.402
60165W        W25392  23.712  33.380   4.725
60166W        W25393  17.123  27.461  13.798
60167W        W25394  11.886   5.644   0.950
60168W        W25395  35.569  40.843  14.860
60169W        W25396   9.453  12.434   3.231
60170W        W25397   3.284  43.494   0.044
60171W        W25398  42.316  35.773   2.458
60172W        W25399  13.263  41.514   4.750
60173W        W25400  12.549  12.709  12.030
60174W        W25401   5.038  41.067  11.722
60175W        W25402  11.217   7.880   0.306
60176W        W25403  41.462  44.581   2.381
60177W        W25404   3.485   3.990  12.084
60178W        W25405  22.434  26.493   1.953
60179W        W25406  15.808   0.299   3.617
60180W        W25407  32.619  39.458  11.427
60181W        W25408  10.305  31.949   9.717
60182W        W25409  18.890  40.840   1.333
60183W        W25410  36.698  29.705  11.713
60184W        W25411   8.334  43.508   1.847
60185W        W25412   1.433   3.558   3.118
60186W        W25413  41.609  35.970   1.532
60187W        W25414  29.534  15.369  12.092
60188W        W25415  20.452  19.758  11.664
60189W        W25416   2.208  12.153  14.816
60190W        W25417  34.913  15.830  14.877
60191W        W25418  24.660   0.587   2.057
60192W        W25419   8.570  27.795  13.801
60193W        W25420  29.885  13.415   2.678
60194W        W25421  36.894  32.119  11.752
60195W        W25422  35.822  39.587   3.760
60196W        W25423  44.872  25.058   0.536
60197W        W25424  21.547   6.988   2.545
60198W        W25425  39.442  12.639   3.289
60199W        W25426  21.307   5.852  13.470
60200W        W25427  37.112  42.798   2.264
60201W        W25428  13.308  26.934  12.137
60202W        W25429   0.850  27.189   1.362
60203W        W25430  35.518  31.730  14.091
60204W        W25431   7.169  23.903  12.838
60205W        W25432  20.157  17.871   4.414
60206W        W25433  42.449   0.532   3.759
60207W        W25434  14.595  17.158  11.176
60208W        W25435  12.120  23.918  12.431
60209W        W25436  17.554  12.039  13.549
60210W        W25437  27.718  23.101  13.528
60211W        W25438  20.151   2.106  12.031
60212W        W25439  37.838  12.209   1.867
60213W        W25440  29.982  24.478  11.254
60214W        W25441  35.531  13.797  13.430
60215W        W25442  19.629  16.670  12.078
60216W        W25443  12.361  38.109   3.228
60217W        W25444  26.429  24.719   2.384
60218W        W25445  14.687  29.628  14.499
60219W        W25446  11.625  24.896   4.520
60220W        W25447  40.088  17.991   4.083
60221W        W25448   3.318  26.292  14.498
60222W        W25449   0.773  14.297  14.328
60223W        W25450  11.682  13.688  13.049
60224W        W25451   9.603  30.856  10.107
60225W        W25452  21.403  24.605   2.726
60226W        W25453  29.251  27.432  12.482
60227W        W25454   0.824  36.411   2.371
60228W        W25455   6.172   6.237  12.528
60229W        W25456   1.951  11.260  11.129
60230W        W25457  26.382  14.905  12.222
60231W        W25458  25.540  27.193   2.401
60232W        W25459  27.018  33.318  11.964
60233W        W25460  13.151  14.701   4.791
60234W        W25461  15.100  16.844   0.069
60235W        W25462  36.780   9.701   2.174
60236W        W25463   3.325   6.375   3.185
60237W        W25464  19.514   4.661   1.733
60238W        W25465  33.896  35.537  11.673
60239W        W25466  39.848  43.222   1.826
60240W        W25467  33.936   0.448  11.680
60241W        W25468   2.270   6.917  11.189
60242W        W25469   5.709  18.103   2.819
60243W        W25470  33.867  20.209  14.568
60244W        W25471  26.936  43.342  13.600
60245W        W25472  42.357  36.565  11.802
60246W        W25473  20.275   6.805  10.794
60247W        W25474  36.341  26.642   3.229
60248W        W25475  14.579  10.896   2.560
60249W        W25476  44.026  30.460   4.474
60250W        W25477  38.014  24.032   2.910
60251W        W25478   0.755  20.570   0.919
60252W        W25479  22.610  24.063   2.879
60253W        W25480  43.484   8.157  12.782
60254W        W25481  14.795  39.025  10.336
60255W        W25482  33.713  13.783  13.084
60256W        W25483  23.483  27.650   1.868
60257W        W25484  25.486  27.566  12.512
60258W        W25485  34.494  15.520   1.718
60259W        W25486  32.714  33.472   0.461
60260W        W25487   1.371  44.960  12.400
60261W        W25488  41.427  42.660   1.251
60262W        W25489   6.613   8.318  13.744
60263W        W25490  31.140   8.707  10.159
60264W        W25491  43.420   1.382  13.411
60265W        W25492  24.344  35.100  12.066
60266W        W25493  14.651  40.389   4.919
60267W        W25494  29.010  42.759  14.439
60268W        W25495  38.367  10.350   2.341
60269W        W25496   6.226  30.757   0.557
60270W        W25497  17.091  17.685   2.841
60271W        W25498  39.932  19.579   4.089
60272W        W25499  26.018  38.341  12.488
60273W        W25500  13.832  22.504   1.275
60274W        W25501   1.971  28.423  13.942
60275W        W25502   7.273  13.025  13.912
60276W        W25503   8.139  28.929   2.307
60277W        W25504   8.656   0.511   0.787
60278W        W25505  25.059   3.015  11.989
60279W        W25506  38.584  27.464   4.400
60280W        W25507  29.360   1.515   1.799
60281W        W25508  33.123  27.786  10.363
60282W        W25509  29.153   6.232  14.371
60283W        W25510  13.264  35.831  11.731
60284W        W25511  40.772  36.456   3.829
60285W        W25512   7.732  23.790  12.035
60286W        W25513  23.908  33.848  12.471
60287W        W25514  22.633   7.882   3.806
60288W        W25515   1.217  10.231   3.206
60289W        W25516  43.333   8.250   2.698
60290W        W25517   9.635   4.485  12.957
60291W        W25518  28.557  21.436   3.662
60292W        W25519   2.079  10.183  14.554
60293W        W25520   5.731  31.124   2.719
60294W        W25521  17.438  23.980   4.180
60295W        W25522  16.791  12.280  13.076
60296W        W25523   3.170   5.022   5.223
60297W        W25524  28.944   1.186  13.462
60298W        W25525  23.735   4.652   1.334
60299W        W25526  42.940   2.888   0.893
60300W        W25527  35.163  43.625  13.295
60301W        W25528  25.317  31.163   0.906
60302W        W25529  15.257   0.350   4.457
60303W        W25530  23.949  28.129   0.954
60304W        W25531  40.279   9.861  12.918
60305W        W25532  25.422  13.376  13.518
60306W        W25533  41.250  28.052  13.059
60307W        W25534  40.954   0.871   4.381
60308W        W25535  22.262   3.230   0.629
60309W        W25536   5.646   0.659  12.939
60310W        W25537  28.597  13.798  13.936
60311W        W25538  41.718  28.077   3.714
60312W        W25539  13.312  17.339   2.876
60313W        W25540  37.143  27.729   4.556
60314W        W25541  27.552  20.037   3.223
60315W        W25542   5.541  41.968  11.942
60316W        W25543   1.090  31.859  13.284
60317W        W25544  24.377  36.575  11.273
60318W        W25545   0.721  38.784  11.443
60319W        W25546   3.951  21.222   0.082
60320W        W25547  20.489  31.948  10.611
60321W        W25548  14.850   0.796   4.276
60322W        W25549  26.227  20.689  11.558
60323W        W25550  26.845  17.609   3.197
60324W        W25551  38.124  25.605  13.801
60325W        W25552  10.307  36.881   3.153
60326W        W25553  16.640  37.909  11.077
60327W        W25554   0.871  15.068  11.642
60328W        W25555  18.328  26.714  11.104
60329W        W25556  28.533   1.922  12.875
60330W        W25557   6.686  41.918  12.049
60331W        W25558  25.787   2.574  13.963
60332W        W25559  31.044  23.982   0.755
60333W        W25560  26.074  10.074   3.228
60334W        W25561   4.555   7.643   5.129
60335W        W25562  26.180  44.333   2.187
60336W        W25563  29.936  34.742  14.926
60337W        W25564  39.613   3.874  10.088
60338W        W25565   9.877  37.049   4.586
60339W        W25566   3.914   2.262  12.532
60340W        W25567  11.626  42.536  12.219
60341W        W25568  33.424  17.794   0.990
60342W        W25569  12.212  35.373   3.665
60343W        W25570  18.928  11.926   3.291
60344W        W25571   9.819  37.810  13.631
60345W        W25572  23.968  19.072   0.854
60346W        W25573   6.728  31.455   3.952
60347W        W25574  34.667  14.161   0.224
60348W        W25575  23.779   8.088  11.263
60349W        W25576  34.637  38.634  11.946
60350W        W25577  43.669  23.080   3.713
60351W        W25578   2.632  41.332   0.221
60352W        W25579  23.946  40.672  10.763
60353W        W25580  14.799   8.345   4.079
60354W        W25581  32.721   8.203  13.444
60355W        W25582  35.197   2.376  12.938
60356W        W25583  40.732   0.874  12.483
60357W        W25584  41.394  27.010   1.244
60358W        W25585  29.184  19.464   3.786
60359W        W25586  10.283  11.110   1.774
60360W        W25587  36.599  13.136   1.458
60361W        W25588  16.233  40.093   4.683
60362W        W25589  44.795   8.197   1.306
60363W        W25590  20.000   4.836   1.753
60364W        W25591  36.419  11.678   0.354
60365W        W25592   2.474   7.861  13.010
60366W        W25593  22.209   8.298   1.762
60367W        W25594   0.336   9.184  11.669
60368W        W25595  23.007   8.158   0.160
60369W        W25596  28.387  38.307   4.660
60370W        W25597   1.175  28.997  11.258
60371W        W25598  27.022  27.678   1.447
60372W        W25599  22.761  23.189  13.812
60373W        W25600  14.749  20.290   1.443
60374W        W25601   2.979  29.783   9.872
60375W        W25602   2.877  24.564  10.590
60376W        W25603  15.841  27.718  14.396
60377W        W25604  27.702  35.529  13.811
60378W        W25605  42.463   6.479  11.088
60379W        W25606  44.507  33.239  14.293
60380W        W25607   1.438  16.795  11.432
60381W        W25608  40.059   4.668   4.945
60382W        W25609  26.936  17.816  11.473
60383W        W25610  10.144  31.991  13.930
60384W        W25611  28.679   2.309  14.880
60385W        W25612   6.180  29.672   1.370
60386W        W25613  38.310  12.502  11.216
60387W        W25614  36.020  18.756  12.202
60388W        W25615  25.108   0.600   0.662
60389W        W25616  23.795  29.582   2.814
60390W        W25617  37.685  31.830   3.340
60391W        W25618  36.792  26.629   2.320
60392W        W25619  19.149  36.076  13.494
60393W        W25620  20.495  27.448  14.469
60394W        W25621   4.798   3.878  12.478
60395W        W25622  26.549  14.754   1.388
60396W        W25623  12.042  29.003   2.260
60397W        W25624  30.401  31.045  11.178
60398W        W25625  42.941  25.102  14.250
60399W        W25626  44.958  31.649   0.862
60400W        W25627  16.061  35.066  10.837
60401W        W25628  31.702   0.878   4.078
60402W        W25629  27.032  43.423   2.853
60403W        W25630  20.122  42.495  11.746
60404W        W25631   0.102   2.343   2.737
60405W        W25632  22.214  29.946   4.376
60406W        W25633  19.249  44.311  12.762
60407W        W25634  41.637  26.282   1.728
60408W        W25635  37.313  17.254  11.622
60409W        W25636  40.167  13.551   1.004
60410W        W25637   7.850  25.631  11.654
60411W        W25638   3.822  35.990   4.518
60412W        W25639  19.589  33.274   4.176
60413W        W25640  29.164  27.650  13.488
60414W        W25641  30.103   8.183  14.500
60415W        W25642  26.953  36.733   1.851
60416W        W25643  29.588  30.501   0.340
60417W        W25644  25.297  16.202  14.326
60418W        W25645  31.081  33.483   3.807
60419W        W25646  44.131  27.584   9.926
60420W        W25647  28.644  15.064   0.803
60421W        W25648  35.547  44.207  10.750
60422W        W25649  22.886   6.413   0.320
60423W        W25650  17.205   7.713  11.593
60424W        W25651  15.227  15.012  13.581
60425W        W25652   2.529   2.333  13.607
60426W        W25653  20.219  28.790  11.499
60427W        W25654  16.231   0.281   1.389
60428W        W25655   8.814  20.267   3.855
60429W        W25656  35.395   8.884   2.339
60430W        W25657  16.276  25.273   2.914
60431W        W25658  11.619  42.501  13.897
60432W        W25659  21.004   9.709   3.310
60433W        W25660   4.441   5.622  14.864
60434W        W25661  39.693  16.661   3.267
60435W        W25662   8.762  37.967   4.696
60436W        W25663  23.779   5.463  14.672
60437W        W25664  42.932  11.318   4.272
60438W        W25665  30.392  36.119   3.105
60439W        W25666  13.355  33.053   1.727
60440W        W25667  21.313  37.946  14.200
60441W        W25668  10.146  32.759   3.180
60442W        W25669   0.663  18.677  13.398
60443W        W25670  29.041   8.961  10.327
60444W        W25671  16.821   8.119  11.595
60445W        W25672  36.582   3.410  10.697
60446W        W25673  22.736   2.349  14.216
60447W        W25674  27.434  35.583  13.373
60448W        W25675  27.429  43.927  11.072
60449W        W25676  30.535  21.256  14.471
60450W        W25677  16.772  40.843  13.511
60451W        W25678   6.216  44.855   1.291
60452W        W25679   5.781  41.880  13.119
60453W        W25680   3.610  14.207  12.553
60454W        W25681  42.649  27.612   1.196
60455W        W25682  30.780  27.235   3.207
60456W        W25683  15.187  12.664   3.914
60457W        W25684   1.963  44.061   1.722
60458W        W25685  29.574  15.749   4.192
60459W        W25686   6.360  40.847   2.002
60460W        W25687  41.991  38.265  14.083
60461W        W25688   4.995   4.149   3.092
60462W        W25689  30.620  22.114  12.564
60463W        W25690  15.227  20.793   4.063
60464W        W25691  15.212   0.310  13.037
60465W        W25692   5.328  20.788  14.289
60466W        W25693  14.723  41.945  13.599
60467W        W25694  20.150  44.791   4.724
60468W        W25695  39.408  24.599   3.214
60469W        W25696  21.253   4.821   4.673
60470W        W25697   0.047   5.661   0.832
60471W        W25698  22.553   4.873  14.904
60472W        W25699  20.097  41.080   0.881
60473W        W25700   9.624  31.147  12.185
60474W        W25701  15.339   3.435   1.433
60475W        W25702   6.168  26.053  11.927
60476W        W25703  28.002  35.563  12.435
60477W        W25704   0.401  22.170   3.278
60478W        W25705   3.523  21.088  11.932
60479W        W25706  21.323  23.557   3.401
60480W        W25707   8.967  31.880   4.163
60481W        W25708  43.658  14.058  13.476
60482W        W25709  29.952  25.155  13.677
60483W        W25710  22.257  18.095  12.456
60484W        W25711  11.393  29.100  10.500
60485W        W25712  11.127  36.886  10.679
60486W        W25713  24.175   8.363   3.103
60487W        W25714   6.650   4.223   3.876
60488W        W25715  35.717  16.524   1.382
60489W        W25716  40.395  27.006   2.757
60490W        W25717  18.548  16.227  12.442
60491W        W25718  20.036   1.644  11.172
60492W        W25719   1.985  10.750  13.850
60493W        W25720  22.270   4.219   2.311
60494W        W25721  38.414   0.992  11.033
60495W        W25722  19.768  16.309  12.403
60496W        W25723  22.225  13.864  14.452
60497W        W25724   4.114  41.932   5.452
60498W        W25725  25.596  29.912  14.999
60499W        W25726  26.760   2.467  14.280
60500W        W25727  25.717   7.767  12.929
60501W        W25728   9.097  43.815   0.458
60502W        W25729  29.501  14.261   4.604
60503W        W25730   0.431  36.072   2.455
60504W        W25731  36.112  22.610   2.306
60505W        W25732  22.571  35.050   0.843
60506W        W25733  41.362  18.644   3.468
60507W        W25734  24.207  23.174   0.936
60508W        W25735  19.471  20.912   0.775
60509W        W25736  38.893  26.948  10.980
60510W        W25737  38.388  29.111  11.473
60511W        W25738  19.078  32.530  12.024
60512W        W25739  33.953   6.941   1.195
60513W        W25740   0.918  22.858   4.612
60514W        W25741   6.678   5.719  13.503
60515W        W25742  28.536  20.998   4.125
60516W        W25743  25.174   6.948   3.189
60517W        W25744   9.311   6.187  12.133
60518W        W25745  27.683  23.790  13.035
60519W        W25746  20.672   5.900   4.604
60520W        W25747   7.762  27.188  13.984
60521W        W25748  34.097  24.723  12.932
60522W        W25749  13.733   1.494   3.694
60523W        W25750  18.831   7.823   1.246
60524W        W25751   2.266  11.038  11.504
60525W        W25752  26.511  42.094   2.849
60526W        W25753  10.196  40.186  11.344
60527W        W25754  21.698  18.625   0.918
60528W        W25755  29.104  30.045   0.936
60529W        W25756  20.561  18.178   0.868
60530W        W25757  42.527  23.099   1.145
60531W        W25758   3.977   1.856  12.931
60532W        W25759  38.310  20.483   2.303
60533W        W25760  34.711  14.251   9.903
60534W        W25761   7.469  43.824   2.817
60535W        W25762  14.648  21.557   3.119
60536W        W25763  25.467  39.670  12.136
60537W        W25764  26.196   4.859  14.091
60538W        W25765  18.507   8.711   3.185
60539W        W25766  30.341  42.509   0.157
60540W        W25767   8.549  26.878   3.237
60541W        W25768   0.236  25.978   0.752
60542W        W25769   1.936  31.242   0.437
60543W        W25770  37.864  21.040   1.840
60544W        W25771  20.159  13.543   2.241
60545W        W25772  30.685  26.014  13.021
60546W        W25773  21.550  29.366   1.902
60547W        W25774   9.105  26.193  14.330
60548W        W25775  10.677  20.938   4.198
60549W        W25776  15.662  14.808  13.416
60550W        W25777   6.585  42.490  13.998
60551W        W25778  41.411  24.176  14.523
60552W        W25779  21.987   5.751  12.929
60553W        W25780  12.013  12.550  10.962
60554W        W25781  32.914  12.356  13.048
60555W        W25782   3.500  10.080   1.480
60556W        W25783  44.967  25.469   2.324
60557W        W25784  27.079  19.398   1.490
60558W        W25785  22.391  17.323  11.069
60559W        W25786  39.545  31.060  14.830
60560W        W25787  20.877  27.478   2.656
60561W        W25788  44.339   3.119  11.106
60562W        W25789   6.287  37.014   0.697
60563W        W25790  42.102  12.023  13.819
60564W        W25791   6.624  11.326   4.654
60565W        W25792  20.843   4.483  14.962
60566W        W25793  11.231  42.981  10.516
60567W        W25794   4.187  15.074   3.273
60568W        W25795  11.718  22.481   4.623
60569W        W25796   4.731  15.750   3.551
60570W        W25797  38.628  11.557  14.913
60571W        W25798  27.423  16.499  11.981
60572W        W25799  20.154  35.270   0.064
60573W        W25800  17.608  32.588   2.815
60574W        W25801  10.723  42.493   3.041
60575W        W25802  15.196  36.075  10.455
60576W        W25803  33.634  35.918  13.900
60577W        W25804  18.163  21.705  11.147
60578W        W25805  12.341   0.356  11.590
60579W        W25806  26.294  41.542   9.627
60580W        W25807  15.569  17.640  13.158
60581W        W25808  15.538  20.601   4.845
60582W        W25809  29.645  13.591   0.903
60583W        W25810  30.543  40.069   0.537
60584W        W25811  29.468  41.709  11.170
60585W        W25812  21.116  44.006   1.183
60586W        W25813  22.193  13.116  11.664
60587W        W25814  29.988  36.871  14.088
60588W        W25815  14.915   9.099   3.452
60589W        W25816  18.867  20.254   2.908
60590W        W25817  14.631   0.993  12.608
60591W        W25818   1.513  40.594   4.212
60592W        W25819  27.160  13.896   3.684
60593W        W25820  42.516  28.029  11.685
60594W        W25821   3.131  34.533   2.602
60595W        W25822  34.002  11.348  10.613
60596W        W25823  27.035   0.936   2.277
60597W        W25824  20.559  42.250   2.240
60598W        W25825   3.226  44.338  14.627
60599W        W25826  30.076  24.539  14.022
60600W        W25827  30.411   1.595  11.923
60601W        W25828  16.497  36.094  13.289
60602W        W25829  34.545   7.800  10.744
60603W        W25830   6.899  30.228  11.615
60604W        W25831  25.184  14.778   3.712
60605W        W25832  24.634  22.176  13.914
60606W        W25833  20.309  15.666   3.242
60607W        W25834  34.407  23.809  13.204
60608W        W25835  32.128   5.902  10.679
60609W        W25836  29.603  18.558   4.904
60610W        W25837   8.524  32.224  14.382
60611W        W25838  41.744  19.363  12.333
60612W        W25839  10.807  31.169   1.039
60613W        W25840  37.249  26.499  11.163
60614W        W25841  31.230  42.199   4.155
60615W        W25842  20.220  20.314  13.726
60616W        W25843   9.316  36.749   0.337
60617W        W25844  10.647  12.454   2.208
60618W        W25845  34.604   3.956   0.416
60619W        W25846   3.348   8.188   2.816
60620W        W25847   7.695   3.728  14.022
60621W        W25848  30.468  20.642   1.536
60622W        W25849   0.933  35.430   1.761
60623W        W25850  12.683  44.163   0.944
60624W        W25851   3.644   7.616   0.289
60625W        W25852   9.803   3.463   0.388
60626W        W25853   5.681   0.416   0.910
60627W        W25854  10.884  26.243   2.786
60628W        W25855   2.905  44.967  13.959
60629W        W25856   3.853  17.709  12.586
60630W        W25857  16.732  33.473   1.267
60631W        W25858  11.535  17.842  11.568
60632W        W25859  29.954  31.582   0.864
60633W        W25860  28.594  25.539  14.019
60634W        W25861  26.611  27.742   0.547
60635W        W25862  10.436  25.258  13.654
60636W        W25863  10.272   4.725   4.185
60637W        W25864  14.615   2.528  14.032
60638W        W25865  12.687   2.974  13.464
60639W        W25866  22.067  39.453   0.333
60640W        W25867  33.556  30.370  13.591
60641W        W25868   0.736  36.850   2.639
60642W        W25869  14.632  43.383   0.285
60643W        W25870  42.855  28.107  11.306
60644W        W25871  25.239  16.660   2.246
60645W        W25872   4.034  10.207  11.394
60646W        W25873   5.338  42.794   3.660
60647W        W25874  19.707   2.783  11.182
60648W        W25875   7.403  29.469   4.801
60649W        W25876  29.266  34.007   3.242
60650W        W25877  19.277  14.696   0.456
60651W        W25878  44.103   6.827   1.676
60652W        W25879  20.683  44.984   4.939
60653W        W25880  15.747  12.241  12.135
60654W        W25881   1.293  11.660  10.933
60655W        W25882  41.861  34.882   4.465
60656W        W25883   5.913  41.045  11.991
60657W        W25884  30.695  39.886  14.597
60658W        W25885  10.782  38.980   0.767
60659W        W25886  26.636   9.195   1.293
60660W        W25887  36.529  17.079   0.984
60661W        W25888   1.446   6.221   1.836
60662W        W25889  35.593  19.324  13.535
60663W        W25890   4.825   9.107  10.852
60664W        W25891  28.341  43.325   3.690
60665W        W25892   7.698  36.593  12.034
60666W        W25893   0.286  37.464  12.593
60667W        W25894  24.654  23.972  14.470
60668W        W25895  38.772  20.673   2.665
60669W        W25896  41.984  35.466   1.872
60670W        W25897   1.473  15.302  13.119
60671W        W25898   2.793  30.499  10.213
60672W        W25899  17.258   5.985  12.989
60673W        W25900  15.195  43.363   0.200
60674W        W25901  44.971   9.836   3.103
60675W        W25902  38.489   3.042   2.098
60676W        W25903  14.331   8.425  10.758
60677W        W25904  21.799  10.877   0.467
60678W        W25905  15.687  24.771  10.667
60679W        W25906  37.551  29.703   3.104
60680W        W25907  34.956  23.155   2.026
60681W        W25908  26.429  41.105   1.852
60682W        W25909  28.735  14.452   2.007
60683W        W25910  34.077   0.988  14.964
60684W        W25911  33.324  10.131   5.319
60685W        W25912   5.897  11.460   2.374
60686W        W25913  19.196  31.971  13.071
60687W        W25914  41.608  11.847  12.131
60688W        W25915  34.603  41.839  12.101
60689W        W25916  10.737  22.791   0.835
60690W        W25917  25.166  37.588   4.692
60691W        W25918   4.630  17.664  11.192
60692W        W25919   5.156  29.943  14.726
60693W        W25920  16.262  21.713  11.169
60694W        W25921   5.922  16.507  13.919
60695W        W25922  36.296  26.171  14.201
60696W        W25923   6.145  42.599   4.598
60697W        W25924  19.362  32.005   3.826
60698W        W25925  29.678   6.730   3.168
60699W        W25926  24.085   4.061   0.242
60700W        W25927   6.307  31.025  14.481
60701W        W25928  19.154   3.146  13.645
60702W        W25929  30.911  29.646  12.082
60703W        W25930  33.177  35.612   1.166
60704W        W25931   2.440  24.978  12.493
60705W        W25932  32.483  27.893  11.569
60706W        W25933   1.009  42.009  13.665
60707W        W25934  44.098  16.663  11.591
60708W        W25935  28.694  12.202   4.194
60709W        W25936  12.819   3.738   3.744
60710W        W25937   5.716  32.410   3.909
60711W        W25938   4.315  25.145   0.374
60712W        W25939   4.949  41.127  14.289
60713W        W25940   0.366  43.951   0.951
60714W        W25941  22.090  16.626  13.165
60715W        W25942  43.987  35.473  11.852
60716W        W25943  16.770  41.317   2.208
60717W        W25944  27.734  21.564  12.836
60718W        W25945  35.544  41.959   3.942
60719W        W25946   8.267  31.963  11.583
60720W        W25947  11.338  14.089  10.444
60721W        W25948  18.740   6.749  13.802
60722W        W25949  41.786  32.997  12.007
60723W        W25950   2.694  28.149   3.115
60724W        W25951   5.169   3.881   4.691
60725W        W25952  15.776  21.797   1.369
60726W        W25953  42.758  18.125   0.350
60727W        W25954  44.336   0.532   1.679
60728W        W25955  14.072  15.100   1.730
60729W        W25956   9.632  10.896   1.372
60730W        W25957  38.202  16.163  14.997
60731W        W25958  39.248  28.590   0.551
60732W        W25959  32.437  32.437  12.129
60733W        W25960  22.797  25.994   2.757
60734W        W25961  41.974  26.408   3.168
60735W        W25962  14.241  11.252  11.893
60736W        W25963  42.719  33.827   4.594
60737W        W25964   6.187   7.407   3.207
60738W        W25965  38.985  18.020   3.129
60739W        W25966   1.934  33.962   2.748
60740W        W25967  38.588  15.624  13.318
60741W        W25968   6.509  12.198  14.849
60742W        W25969   7.858  14.980  12.535
60743W        W25970  15.688  13.864  13.806
60744W        W25971  27.936  19.740  13.894
60745W        W25972  16.191  44.341   2.267
60746W        W25973  26.485  25.588   4.860
60747W        W25974  39.541  29.686  13.909
60748W        W25975   7.873  36.328  12.427
60749W        W25976   9.597  39.308   0.379
60750W        W25977   2.980  25.042   0.904
60751W        W25978  12.324  10.424   1.327
60752W        W25979   4.979   2.730   2.621
60753W        W25980  24.912  31.671   3.797
60754W        W25981  41.409  35.025   4.985
60755W        W25982  33.950  33.533   1.012
60756W        W25983   0.541  35.053   0.074
60757W        W25984  34.945   2.423   2.904
60758W        W25985   0.840  28.953  14.853
60759W        W25986  21.114  12.534   2.440
60760W        W25987   4.797   2.946   4.180
60761W        W25988  28.949  23.083  12.435
60762W        W25989  34.249  37.363   0.803
60763W        W25990  19.813  19.987  10.869
60764W        W25991  23.608  24.918   1.823
60765W        W25992  41.252  10.727   3.782
60766W        W25993  15.823  34.086   5.040
60767W        W25994  26.189  32.306   2.662
60768W        W25995  34.273  12.685  11.627
60769W        W25996  15.644   5.233  10.062
60770W        W25997  19.062  20.724  10.513
60771W        W25998   4.384  27.717  12.506
60772W        W25999  20.281  18.136  13.713
60773W        W26000  43.368  42.490   2.398
60774W        W26001  20.465   4.439  11.095
60775W        W26002  43.021   4.908   3.307
60776W        W26003  14.770  16.529   0.942
60777W        W26004   1.716  32.403  10.636
60778W        W26005  32.879  12.773   2.020
60779W        W26006  16.800  31.583  12.443
60780W        W26007  41.369  29.692   2.828
60781W        W26008   8.588  44.930  13.443
60782W        W26009  25.595  11.757  14.776
60783W        W26010  38.941   9.443  12.971
60784W        W26011  17.692  43.345  13.552
60785W        W26012  31.429  31.095  10.195
60786W        W26013  43.226   9.197  13.890
60787W        W26014   6.445   1.281  11.153
60788W        W26015  24.170  36.869  13.463
60789W        W26016  27.478  30.568  10.814
60790W        W26017  11.850   9.734   0.062
60791W        W26018   2.458  35.837   3.488
60792W        W26019  31.944  37.632  12.470
60793W        W26020   3.450  37.532  11.424
60794W        W26021  37.977   8.453  14.074
60795W        W26022  39.365  44.008  14.482
60796W        W26023   1.938  14.873  10.630
60797W        W26024  19.057  22.048   0.388
60798W        W26025  23.389  41.899   4.774
60799W        W26026  22.306  26.459   4.999
60800W        W26027  43.884  15.971   4.593
60801W        W26028   0.333  10.883  11.641
60802W        W26029  12.213  29.868   1.630
60803W        W26030  32.074  34.095   0.346
60804W        W26031  41.631  31.117   0.499
60805W        W26032  41.052  42.986  12.983
60806W        W26033  43.512   3.836  11.169
60807W        W26034  44.967  39.064  13.043
60808W        W26035  22.741  13.225   4.614
60809W        W26036  17.711  34.021  10.710
60810W        W26037  38.991  42.362  12.111
60811W        W26038  24.065  43.508  11.033
60812W        W26039   4.665   1.885   0.383
60813W        W26040  25.803  35.693   4.478
60814W        W26041  11.066  11.665  11.854
60815W        W26042  31.049  12.891   3.147
60816W        W26043   2.703   1.013   4.155
60817W        W26044  11.958  40.615  13.905
60818W        W26045   1.162   0.174   4.479
60819W        W26046   0.529  33.454  12.525
60820W        W26047   7.407  30.030   0.408
60821W        W26048  44.868  38.803  10.801
60822W        W26049  22.868   3.556   3.296
60823W        W26050  41.408  23.125  12.588
60824W        W26051   4.304  39.832  10.719
60825W        W26052   6.900  27.444  12.080
60826W        W26053  27.016  28.515  14.400
60827W        W26054  44.514  32.567  14.858
60828W        W26055  18.387  20.887   3.235
60829W        W26056   9.899  28.024   1.116
60830W        W26057  35.081  37.409   0.346
60831W        W26058   0.269   1.882   1.974
60832W        W26059  33.922  28.958  10.941
60833W        W26060   1.615  40.718  12.120
60834W        W26061  10.266  19.638   2.831
60835W        W26062  28.117   9.147  12.550
60836W        W26063  22.441  24.539   2.713
60837W        W26064  26.152   4.133  14.426
60838W        W26065  26.882  43.933  12.894
60839W        W26066  43.459  16.540  10.703
60840W        W26067  17.346  41.104  14.447
60841W        W26068  19.442  40.447  14.413
60842W        W26069  44.944  17.724   4.610
60843W        W26070  25.844   1.407  12.692
60844W        W26071   9.223  19.739   3.144
60845W        W26072  39.260  18.012   4.537
60846W        W26073  23.891  41.434  14.817
60847W        W26074  33.347  37.997  13.452
60848W        W26075  19.932  28.697  12.852
60849W        W26076  43.886  44.249   4.561
60850W        W26077  15.446  34.270   9.787
60851W        W26078  44.813  39.400  12.674
60852W        W26079  20.533  33.072   0.351
60853W        W26080  25.414  25.560   4.125
60854W        W26081  15.183  13.763   0.526
60855W        W26082  10.749  30.918  11.481
60856W        W26083  42.986   0.762   0.773
60857W        W26084  16.233  27.733   1.821
60858W        W26085  26.270  25.357  14.805
60859W        W26086   8.668   4.773   2.777
60860W        W26087  30.892  16.256   3.262
60861W        W26088  14.508   4.202   3.175
60862W        W26089   0.833   8.144  13.549
60863W        W26090   9.297   2.315   2.206
60864W        W26091  19.626  34.208  14.612
60865W        W26092  31.962   5.686   0.324
60866W        W26093  25.648  15.390  14.854
60867W        W26094  10.396  44.816  13.206
60868W        W26095  11.244  18.477   3.286
60869W        W26096   5.399  28.414   3.007
60870W        W26097  38.164  12.853   3.969
60871W        W26098  39.774  29.027   2.292
60872W        W26099  42.937  40.991  11.653
60873W        W26100  39.055  38.973   3.116
60874W        W26101  39.231  22.621  13.486
60875W        W26102   4.319  40.388  11.005
60876W        W26103  32.925  40.916   1.918
60877W        W26104  31.580  23.031   4.141
60878W        W26105  23.955  25.656  11.928
60879W        W26106  19.711  34.081  13.558
60880W        W26107  19.026   8.816  12.857
60881W        W26108   4.277  24.018  13.481
60882W        W26109   4.804  10.671   1.797
60883W        W26110  11.768   5.940   0.523
60884W        W26111  24.240   4.662   3.679
60885W        W26112  15.129  13.405   1.227
60886W        W26113  19.789  29.961  10.536
60887W        W26114  42.979  34.558  14.660
60888W        W26115  32.750   1.035   2.214
60889W        W26116  35.388  43.337   0.900
60890W        W26117  19.355   7.338  10.746
60891W        W26118   0.890  40.433   5.073
60892W        W26119   3.443   8.944  13.992
60893W        W26120   5.817  29.333  14.693
60894W        W26121  23.135  20.988  14.878
60895W        W26122   6.399  22.587  13.814
60896W        W26123  18.687  40.490   2.631
60897W        W26124   2.750   7.814   3.384
60898W        W26125   1.469  24.282  11.269
60899W        W26126  30.166  15.756   1.308
60900W        W26127   4.751  19.822  14.825
60901W        W26128   6.433  44.055  13.828
60902W        W26129  39.906  42.942  11.626
60903W        W26130  29.096   6.058   3.206
60904W        W26131  36.545  31.122  12.714
60905W        W26132  36.607  39.180  12.221
60906W        W26133   9.273  30.117  13.059
60907W        W26134  10.034  13.893   0.285
60908W        W26135   8.991  15.475   2.786
60909W        W26136  14.065  15.218   3.126
60910W        W26137  11.736  35.396  13.384
60911W        W26138  40.762  33.457  13.466
60912W        W26139  32.307   1.176  12.546
60913W        W26140  24.702  13.720  14.503
60914W        W26141  18.199  29.469  12.331
60915W        W26142   8.355  24.217  10.719
60916W        W26143  44.772  25.723   4.588
60917W        W26144  13.136  43.538  10.522
60918W        W26145  21.122  25.718  12.900
60919W        W26146  15.775  22.515  14.830
60920W        W26147  24.612   3.201  13.534
60921W        W26148  22.049  15.328  12.022
60922W        W26149  12.962  28.555  13.906
60923W        W26150  17.236  11.441   1.269
60924W        W26151  22.545   3.710   2.889
60925W        W26152   6.644  39.140   3.615
60926W        W26153  23.018  40.965  10.970
60927W        W26154  20.590  26.764   3.577
60928W        W26155  18.436   2.070   4.050
60929W        W26156  26.636  23.750  12.903
60930W        W26157  12.258   6.753  12.153
60931W        W26158   4.467  18.549  13.220
60932W        W26159  29.756  42.365   1.879
60933W        W26160  29.475  17.215  14.776
60934W        W26161  40.935  44.323  13.053
60935W        W26162  26.290  28.054  13.359
60936W        W26163   4.002  13.029   3.276
60937W        W26164  15.791  43.480   1.848
60938W        W26165  27.432   9.676   0.387
60939W        W26166  22.154  10.706   1.239
60940W        W26167  12.886  11.901  13.681
60941W        W26168  28.437  38.138   9.677
60942W        W26169  34.937  22.629   5.262
60943W        W26170  12.383  17.178  12.029
60944W        W26171  16.572  16.540   2.663
60945W        W26172   5.831  11.847   3.414
60946W        W26173  33.380   3.350   3.721
60947W        W26174  41.835  12.890  11.630
60948W        W26175  18.549   3.980   4.164
60949W        W26176  29.030  16.119   0.569
60950W        W26177  11.828   5.834  13.867
60951W        W26178   1.450  12.123   1.669
60952W        W26179  37.467  23.975   3.732
60953W        W26180  29.142  21.084   3.180
60954W        W26181  23.102  25.107   3.872
60955W        W26182  24.063  28.940   2.926
60956W        W26183  23.079  32.370   3.305
60957W        W26184  13.162   1.609  11.558
60958W        W26185  39.441  38.078   1.850
60959W        W26186  30.118  19.552  12.164
60960W        W26187   2.827  12.622  12.487
60961W        W26188  42.912   1.009   1.518
60962W        W26189  15.385  36.892  13.493
60963W        W26190  10.295   9.158   2.633
60964W        W26191   7.516  42.245  14.733
60965W        W26192  36.094   2.668  13.999
60966W        W26193  32.262  22.085  14.408
60967W        W26194  21.250  38.331  12.863
60968W        W26195  22.469  11.341   3.827
60969W        W26196  38.346  33.586   2.727
60970W        W26197  26.429  32.431   3.877
60971W        W26198  28.512  23.917   2.971
60972W        W26199  27.257  31.951   4.162
60973W        W26200  33.065  34.098  14.093
60974W        W26201  27.482  13.300   5.090
60975W        W26202   9.858  22.144   2.428
60976W        W26203  17.334  34.047  14.706
60977W        W26204  30.905  37.864   1.460
60978W        W26205  35.815  42.284  13.412
60979W        W26206   8.166  25.650   3.740
60980W        W26207  39.613  15.583  13.009
60981W        W26208  44.252  44.302   0.356
60982W        W26209  38.470  34.923  14.997
60983W        W26210  30.506   7.582  12.066
60984W        W26211  24.684  23.471  11.673
60985W        W26212  27.766   0.942   2.095
60986W        W26213  16.075  19.566  14.112
60987W        W26214  15.509  10.616   4.242
60988W        W26215   7.756  26.140   4.521
60989W        W26216  30.998  44.514   3.181
60990W        W26217  29.426   9.015  12.619
60991W        W26218  44.438  39.775   4.266
60992W        W26219  10.379   2.337  12.027
60993W        W26220  39.620  30.190   2.136
60994W        W26221  32.699   1.428   3.717
60995W        W26222  13.629  41.349  13.934
60996W        W26223  25.237  14.905   4.677
60997W        W26224   1.119   8.992  11.078
60998W        W26225  23.620  18.595  10.650
60999W        W26226  44.399  43.291   1.818
61000W        W26227   2.934   7.133   0.957
61001W        W26228  15.795  35.339   3.504
61002W        W26229  14.820  22.655  12.844
61003W        W26230   2.840  12.271  13.216
61004W        W26231  41.931  13.671   0.506
61005W        W26232  25.913  36.560   3.916
61006W        W26233  12.281   0.059  10.705
61007W        W26234  35.670  17.928   2.847
61008W        W26235  19.069  31.725   2.024
61009W        W26236  39.832  12.619  12.871
61010W        W26237  30.957   3.478  14.901
61011W        W26238  16.272  31.929  11.101
61012W        W26239  32.840  38.063  11.987
61013W        W26240  35.064  33.104   0.753
61014W        W26241   9.098  19.749  14.817
61015W        W26242  41.724   5.332   4.097
61016W        W26243   4.128  42.160  14.766
61017W        W26244  44.027  12.850  12.973
61018W        W26245  34.760  26.035   0.276
61019W        W26246   3.241  14.722  11.302
61020W        W26247  10.705   5.151  13.826
61021W        W26248  29.888  31.492  13.137
61022W        W26249  33.511   7.278  10.698
61023W        W26250   6.975   4.066  14.452
61024W        W26251   9.826  12.378  10.556
61025W        W26252  22.145  28.647   0.479
61026W        W26253   2.411  12.077   3.288
61027W        W26254  29.833  20.599   3.070
61028W        W26255  24.660   9.834   3.758
61029W        W26256  15.153   7.381   0.391
61030W        W26257  15.874  15.551   0.378
61031W        W26258  12.187  31.350  12.460
61032W        W26259   3.449  31.132  11.033
61033W        W26260  11.275  20.185   2.698
61034W        W26261  40.990   6.291   3.158
61035W        W26262  24.637  39.318   4.373
61036W        W26263  30.479  30.879   2.154
61037W        W26264  14.757  17.535   1.311
61038W        W26265  21.593  21.635   0.048
61039W        W26266  35.988   3.848  14.407
61040W        W26267  29.464  11.904   1.630
61041W        W26268  22.966   9.641   2.935
61042W        W26269  23.974  28.507   1.403
61043W        W26270  14.592   0.598   4.667
61044W        W26271   0.869  37.925   2.263
61045W        W26272   4.826   6.464  11.731
61046W        W26273  31.196  34.818  10.143
61047W        W26274  39.474  12.829  11.538
61048W        W26275   3.862  34.927   2.638
61049W        W26276  12.590  14.330  13.329
61050W        W26277  35.880  25.339  13.958
61051W        W26278  18.537  33.069   2.981
61052W        W26279  23.030  36.730   4.794
61053W        W26280  14.289   8.779   4.527
61054W        W26281   2.726  19.488  10.112
61055W        W26282  35.570  28.189   0.376
61056W        W26283  23.811   1.098   3.620
61057W        W26284  43.943  12.398  10.682
61058W        W26285  31.309  18.497   5.163
61059W        W26286   8.759  13.686  10.439
61060W        W26287  44.352  24.600  14.946
61061W        W26288  14.724  10.250  13.641
61062W        W26289  17.342   2.252   4.870
61063W        W26290  30.135   6.256  12.117
61064W        W26291  32.359  35.070   3.746
61065W        W26292  27.315   5.773  14.054
61066W        W26293  12.210  41.833  12.374
61067W        W26294  10.837  21.750  10.610
61068W        W26295  22.906  30.780  10.561
61069W        W26296   2.661   5.867  12.412
61070W        W26297  25.443  21.687  14.910
61071W        W26298  34.699   2.948   1.924
61072W        W26299  11.767   5.304  12.061
61073W        W26300  19.604  16.557   3.750
61074W        W26301  24.702   7.608  12.947
61075W        W26302   9.117   5.633   4.564
61076W        W26303   2.871   2.847   2.743
61077W        W26304  18.231  39.906   3.723
61078W        W26305   5.891  21.152   0.503
61079W        W26306  25.535  40.060  14.578
61080W        W26307  43.878   8.278  12.445
61081W        W26308   9.484  17.200  13.468
61082W        W26309  36.017   9.801  14.868
61083W        W26310  12.234  30.047  14.079
61084W        W26311  23.835   6.664   1.762
61085W        W26312  28.511  38.843   4.025
61086W        W26313   0.843  37.230   1.691
61087W        W26314  33.423  10.332  13.412
61088W        W26315  14.218   8.705  14.496
61089W        W26316   5.894   9.137  14.944
61090W        W26317   7.547   8.183  10.843
61091W        W26318  13.631   0.732   0.715
61092W        W26319   2.091  30.036  11.952
61093W        W26320  10.156  41.820  14.456
61094W        W26321   4.815  15.899  13.469
61095W        W26322  15.188  22.789  11.041
61096W        W26323  25.042  22.599   0.418
61097W        W26324  17.090  21.456  13.838
61098W        W26325  12.978   2.180   4.151
61099W        W26326  10.338  15.794   0.402
61100W        W26327   2.812   0.307   3.688
61101W        W26328  42.423   0.886  14.879
61102W        W26329  28.168  22.128  14.651
61103W        W26330  21.566  20.553  14.265
61104W        W26331  38.429  11.240  14.000
61105W        W26332  13.326  32.129   5.394
61106W        W26333  29.691  25.493  11.624
61107W        W26334   0.848  11.895   2.748
61108W        W26335  40.465  41.952   1.003
61109W        W26336  22.030  38.896  14.008
61110W        W26337  26.849  32.914  14.116
61111W        W26338   5.278   4.654  13.282
61112W        W26339  24.251   0.481  12.429
61113W        W26340  10.127  23.842  11.190
61114W        W26341  44.420  41.434  12.037
61115W        W26342  40.235  39.330   0.253
61116W        W26343  36.061  33.514   4.600
61117W        W26344   1.011  12.685   0.903
61118W        W26345   4.660  18.693  14.946
61119W        W26346  27.427  10.283   3.288
61120W        W26347  41.014  17.282  10.722
61121W        W26348   8.321  28.030   0.412
61122W        W26349  25.457  36.324  11.562
61123W        W26350  40.494  26.659  13.509
61124W        W26351  26.323  24.699  13.941
61125W        W26352  31.583  33.155  11.614
61126W        W26353   9.647   3.216   1.754
61127W        W26354   3.263  38.280   3.282
61128W        W26355  41.518  27.964   0.301
61129W        W26356  15.913  29.105  13.547
61130W        W26357  33.156  18.274   0.970
61131W        W26358  25.662  38.544   1.446
61132W        W26359  13.093  21.662   3.250
61133W        W26360  29.398  21.537   1.772
61134W        W26361  29.038  31.065  11.274
61135W        W26362  43.820  14.226   4.604
61136W        W26363   5.248  17.680  13.250
61137W        W26364  12.252  12.563   4.979
61138W        W26365  31.449  32.411   3.277
61139W        W26366  30.106  30.396  13.373
61140W        W26367   4.811   2.776   1.581
61141W        W26368  16.831  23.082   0.727
61142W        W26369  17.766  20.959  12.056
61143W        W26370  32.400   5.807  14.773
61144W        W26371  42.544  32.423   3.671
61145W        W26372  44.412  14.292  14.770
61146W        W26373  10.892   3.387  12.043
61147W        W26374  39.813   5.231  11.197
61148W        W26375   7.720   4.727   0.818
61149W        W26376   0.364  10.678   3.594
61150W        W26377  42.955  35.028  12.328
61151W        W26378  28.453  35.755  12.255
61152W        W26379  39.014  36.018  14.352
61153W        W26380  22.538  10.740  13.963
61154W        W26381   6.660  38.474  14.780
61155W        W26382   4.832   5.186  12.101
61156W        W26383  41.480  25.295  12.483
61157W        W26384   3.978  18.300   1.256
61158W        W26385  24.129   3.898  13.055
61159W        W26386  15.279  16.946   2.803
61160W        W26387   2.583  42.015   3.113
61161W        W26388   8.658  26.040   2.920
61162W        W26389  42.595   5.324   1.182
61163W        W26390  19.061  12.448   3.255
61164W        W26391  42.732  32.036   1.314
61165W        W26392   9.217  39.303   2.576
61166W        W26393  24.644  36.397   4.650
61167W        W26394  34.533  42.346  12.906
61168W        W26395  29.136  10.252  12.452
61169W        W26396  41.745  38.660  11.245
61170W        W26397  10.347  43.086   3.568
61171W        W26398  28.000  35.616   3.203
61172W        W26399  36.845   8.162  13.453
61173W        W26400   2.302  33.073  14.967
61174W        W26401   2.590  43.259  11.230
61175W        W26402  16.604   4.289   4.106
61176W        W26403  44.047   0.881   1.895
61177W        W26404   3.249  44.734   4.194
61178W        W26405  24.879  23.871  11.162
61179W        W26406  25.733  33.036   0.325
61180W        W26407  20.621   9.258  11.829
61181W        W26408  20.244  27.758  13.292
61182W        W26409   5.361  25.234  10.695
61183W        W26410  38.920  21.044  11.114
61184W        W26411  27.583  18.527   0.592
61185W        W26412  25.086  28.851   3.234
61186W        W26413  11.023  22.268  10.815
61187W        W26414  18.406  42.876  12.088
61188W        W26415  17.229  44.518   0.854
61189W        W26416  18.075   7.243  13.597
61190W        W26417  38.640   9.662   2.897
61191W        W26418  12.192   5.149  11.236
61192W        W26419  44.061   8.902   1.234
61193W        W26420   3.169  26.653  14.852
61194W        W26421   8.785  20.569  11.635
61195W        W26422   5.217   4.565   2.345
61196W        W26423  30.817  15.826   4.944
61197W        W26424  42.095  31.322   0.313
61198W        W26425  34.703  35.876   4.351
61199W        W26426  22.068   7.261   4.503
61200W        W26427  26.845  43.715   2.167
61201W        W26428  21.139  26.173  12.145
61202W        W26429  24.476  30.918   1.383
61203W        W26430  40.265   9.316  13.438
61204W        W26431   5.572  13.486  11.213
61205W        W26432  12.673  27.600  11.586
61206W        W26433  30.194   4.707   0.755
61207W        W26434  30.472   2.787  10.940
61208W        W26435  21.293  23.903  11.858
61209W        W26436  36.817  24.460  12.025
61210W        W26437  43.434   4.840  11.154
61211W        W26438  36.524  25.027  12.605
61212W        W26439  38.897  25.039   4.471
61213W        W26440  10.834  29.638   2.169
61214W        W26441   6.476   0.115   5.150
61215W        W26442   2.932  20.275  13.793
61216W        W26443   0.226  40.280   3.228
61217W        W26444  40.310  41.310   3.268
61218W        W26445  43.034  36.799  12.545
61219W        W26446   5.542  23.009  11.649
61220W        W26447   7.986  43.837  10.704
61221W        W26448  32.484  33.858   3.372
61222W        W26449  32.679  33.022  12.882
61223W        W26450  14.655   6.628   0.403
61224W        W26451   0.728  33.249   4.121
61225W        W26452  23.527   0.934   0.934
61226W        W26453   3.849  27.877  12.490
61227W        W26454   3.907   9.164  13.922
61228W        W26455  28.196  22.768  13.831
61229W        W26456  35.089  13.642   2.866
61230W        W26457  13.845  31.966  13.355
61231W        W26458  15.502  44.979  13.906
61232W        W26459   2.320   5.832   0.686
61233W        W26460  16.054   0.219  11.226
61234W        W26461  11.177   4.036  12.905
61235W        W26462  20.128   0.992   4.160
61236W        W26463  44.468   1.904   3.301
61237W        W26464   7.382  44.637  13.270
61238W        W26465  13.054  36.002   0.457
61239W        W26466  20.653  29.762   3.675
61240W        W26467  19.687  22.070  10.498
61241W        W26468  12.163  42.093   4.370
61242W        W26469   3.830  21.113   2.399
61243W        W26470  23.339  16.820   0.145
61244W        W26471  43.273  39.032   2.123
61245W        W26472  24.499  25.947   0.715
61246W        W26473  36.649  44.710  12.460
61247W        W26474  37.660  18.604  11.251
61248W        W26475  44.272  30.011  13.317
61249W        W26476  42.768   9.588  13.429
61250W        W26477   8.705  31.470   3.957
61251W        W26478  31.996  16.318   4.566
61252W        W26479  24.587  28.722   4.280
61253W        W26480   9.115  18.077   4.370
61254W        W26481   7.131  38.470  11.886
61255W        W26482  39.033  14.814   4.503
61256W        W26483  12.091  35.118   0.736
61257W        W26484  17.279  16.655  10.731
61258W        W26485  35.902   8.419  10.246
61259W        W26486  27.166  21.679   4.354
61260W        W26487  38.807  15.625   2.906
61261W        W26488  41.906  35.682   3.393
61262W        W26489  34.559  25.810  10.043
61263W        W26490  17.420  23.779   0.439
61264W        W26491  35.620  21.512  10.770
61265W        W26492   3.861  44.041  10.872
61266W        W26493   1.380  18.201  10.371
61267W        W26494  16.072  32.160  10.683
61268W        W26495  23.020  10.497  13.824
61269W        W26496  13.101  23.757  10.787
61270W        W26497  10.877   0.641  14.315
61271W        W26498  11.569  23.935  13.276
61272W        W26499  41.772  41.505   4.120
61273W        W26500  12.178  43.305  13.318
61274W        W26501  15.794   4.506   3.360
61275W        W26502  22.708  20.640   3.177
61276W        W26503  24.128  23.138   4.205
61277W        W26504  24.442  20.910   4.620
61278W        W26505  34.304  32.160   0.546
61279W        W26506  19.214  40.421  13.896
61280W        W26507   7.594  35.623   0.637
61281W        W26508  40.575  31.597   4.749
61282W        W26509  25.608   5.997  10.476
61283W        W26510  43.975  13.140   2.732
61284W        W26511  17.158  22.763   0.445
61285W        W26512  29.206  35.530  11.103
61286W        W26513  40.551  27.490  13.151
61287W        W26514  37.996   8.386   3.955
61288W        W26515  11.871   7.902  13.938
61289W        W26516  36.077  19.344  11.081
61290W        W26517  15.808  12.730  10.831
61291W        W26518   3.853  40.178  10.923
61292W        W26519  15.784  21.673  12.593
61293W        W26520   2.533  41.481  11.107
61294W        W26521  28.038   9.413  12.991
61295W        W26522  25.415  20.551  12.596
61296W        W26523  16.157   1.359  14.297
61297W        W26524  29.807  19.486  11.264
61298W        W26525  13.237   0.992  10.773
61299W        W26526  16.569  35.546  12.425
61300W        W26527  13.714  43.506   2.195
61301W        W26528   0.948  26.211  10.125
61302W        W26529  25.739  28.165  11.578
61303W        W26530   9.353  26.874   0.427
61304W        W26531  42.475  34.361   2.928
61305W        W26532  36.331  44.252  11.202
61306W        W26533  41.128   5.238  14.863
61307W        W26534  22.548  32.506   3.176
61308W        W26535   9.891  30.934   4.030
61309W        W26536   8.087  18.160  11.124
61310W        W26537  37.483  27.178   2.102
61311W        W26538  33.349  42.786  13.281
61312W        W26539  22.250  30.162   3.890
61313W        W26540   2.808  12.955   2.093
61314W        W26541  44.513  33.437   3.055
61315W        W26542   8.837  26.424   2.424
61316W        W26543  19.782  38.190   3.782
61317W        W26544   7.708   9.773  13.540
61318W        W26545   9.438  36.142   1.784
61319W        W26546  12.700   4.611  13.068
61320W        W26547  20.921  43.376   1.992
61321W        W26548   6.189  38.855   3.705
61322W        W26549   4.422  38.538  12.900
61323W        W26550  38.446  38.925   2.975
61324W        W26551  18.621  19.338  13.832
61325W        W26552  22.124   7.890  11.781
61326W        W26553   2.469  12.267   0.319
61327W        W26554  43.080   4.268  14.052
61328W        W26555   2.503  13.013  11.726
61329W        W26556  31.536  32.447  14.668
61330W        W26557  27.918   3.249  11.126
61331W        W26558  38.051   1.993  12.024
61332W        W26559  41.891  19.398  11.530
61333W        W26560  11.138  38.406   3.732
61334W        W26561  15.186  31.597   1.474
61335W        W26562  11.058  35.181   0.980
61336W        W26563  39.920  13.783  12.821
61337W        W26564  19.741   8.305   0.388
61338W        W26565   8.951  14.766   1.396
61339W        W26566  20.311  41.298   4.729
61340W        W26567  29.576   9.499   3.705
61341W        W26568  33.098   8.912  13.650
61342W        W26569  33.874  16.311   3.173
61343W        W26570  37.748  42.088   4.531
61344W        W26571  39.403  37.603  12.973
61345W        W26572  15.252   4.668   1.712
61346W        W26573  21.522  25.182  11.181
61347W        W26574  25.217  21.121  12.065
61348W        W26575  22.740  32.167  14.500
61349W        W26576  18.996  38.786   4.236
61350W        W26577  13.358  26.416  14.462
61351W        W26578  16.164  36.567  12.182
61352W        W26579  13.574   3.714   0.375
61353W        W26580  22.664  15.071   2.220
61354W        W26581  24.032  38.741  11.595
61355W        W26582  35.902  21.308  14.464
61356W        W26583  12.664  18.289   0.254
61357W        W26584  25.137   5.635   3.892
61358W        W26585  30.403  23.056  14.038
61359W        W26586   6.754  35.798   3.164
61360W        W26587  21.266  18.543   2.358
61361W        W26588  27.174  14.659   4.160
61362W        W26589  28.374  42.430  13.344
61363W        W26590  11.132  44.424  14.605
61364W        W26591  37.944  34.868  12.114
61365W        W26592  28.611  19.513  13.357
61366W        W26593  20.155   3.331  12.438
61367W        W26594  39.480   6.143   1.363
61368W        W26595  44.167  18.889   2.676
61369W        W26596  14.049  20.012   1.017
61370W        W26597   5.014  38.771   0.760
61371W        W26598  26.028  18.232  14.811
61372W        W26599  23.673  13.814   3.051
61373W        W26600  25.194   6.118   3.702
61374W        W26601  23.285  44.985   2.371
61375W        W26602   9.280   1.950   0.810
61376W        W26603  19.148  25.831   4.521
61377W        W26604  32.973  26.570  13.894
61378W        W26605  21.545   0.832   1.311
61379W        W26606  38.871  13.176   2.296
61380W        W26607  30.195  25.664  12.473
61381W        W26608  10.265   0.485   0.965
61382W        W26609  17.917  22.444  10.786
61383W        W26610  11.681   2.200  14.903
61384W        W26611  28.972  27.705  12.880
61385W        W26612  43.685  44.330   2.271
61386W        W26613   3.962  31.033  13.030
61387W        W26614   3.840   2.535   4.084
61388W        W26615   5.855  13.381  13.692
61389W        W26616   4.238  38.546   3.241
61390W        W26617  11.815   7.744   3.531
61391W        W26618   2.188  31.690   0.485
61392W        W26619   1.642   5.961   3.758
61393W        W26620  25.189   8.159  14.897
61394W        W26621  43.557   0.293   0.455
61395W        W26622   2.392   4.296   4.144
61396W        W26623  41.900  29.210  13.062
61397W        W26624  23.999  42.391  12.495
61398W        W26625  39.986  33.011  10.660
61399W        W26626  30.041  36.628   2.213
61400W        W26627  14.620  13.799  12.048
61401W        W26628   3.954  26.722   4.474
61402W        W26629  22.966  41.974  14.127
61403W        W26630  14.729   6.025   3.895
61404W        W26631  19.507  39.288  11.904
61405W        W26632  39.096  36.905   4.201
61406W        W26633  42.960  41.373  14.987
61407W        W26634   3.001  43.280  13.023
61408W        W26635  43.268  23.949  11.014
61409W        W26636  36.470  28.008   1.990
61410W        W26637  42.079  10.054   5.061
61411W        W26638  12.862  41.176   4.793
61412W        W26639  10.728  39.029  13.494
61413W        W26640  17.147  30.910  11.987
61414W        W26641  24.680  14.524  13.914
61415W        W26642  38.758   9.104  11.981
61416W        W26643  15.095  13.103   3.672
61417W        W26644  19.085  43.975  14.605
61418W        W26645  24.976  27.586  13.444
61419W        W26646  44.361  21.945   2.235
61420W        W26647   9.830  23.097  12.826
61421W        W26648  44.725  30.898   3.143
61422W        W26649  27.056  14.129  11.020
61423W        W26650  39.411  21.518   3.034
61424W        W26651  13.689  24.671  14.951
61425W        W26652   4.208  16.185  14.961
61426W        W26653  34.558   8.148   3.049
61427W        W26654  22.302  35.564   1.349
61428W        W26655   8.844  19.849   4.169
61429W        W26656   9.763  30.608  10.793
61430W        W26657   3.576  14.499  11.649
61431W        W26658   9.904   9.378  14.476
61432W        W26659  32.184  38.609   4.535
61433W        W26660  34.949  23.876  12.107
61434W        W26661  44.419  13.829   0.036
61435W        W26662  32.050  44.948  12.847
61436W        W26663   9.304   2.839  12.865
61437W        W26664  43.304  13.263  12.045
61438W        W26665   4.391  25.934   0.819
61439W        W26666  36.105  30.458   4.625
61440W        W26667  28.406  36.367   0.138
61441W        W26668  30.051  21.613   4.631
61442W        W26669   4.750  39.075  14.250
61443W        W26670   7.110  18.055   0.289
61444W        W26671  28.125  41.662  14.813
61445W        W26672  32.380  34.505   0.334
61446W        W26673  20.046  31.920  10.868
61447W        W26674  32.632  26.060   0.820
61448W        W26675  43.094   8.415   9.788
61449W        W26676  29.050  39.104   0.825
61450W        W26677  14.125  19.471   2.355
61451W        W26678   8.150  13.154  14.459
61452W        W26679   4.226  17.499  12.282
61453W        W26680  34.214   4.670   1.063
61454W        W26681  12.561  38.433  12.473
61455W        W26682  43.558  30.028   0.950
61456W        W26683  39.186   7.819  14.444
61457W        W26684  44.886   8.429  14.025
61458W        W26685  35.283  15.300  12.612
61459W        W26686  25.987  38.079   2.660
61460W        W26687  11.703  11.881   0.333
61461W        W26688  23.955   9.612  12.029
61462W        W26689  24.502  35.646   1.696
61463W        W26690   9.393  15.989   0.327
61464W        W26691   3.270  29.949   3.077
61465W        W26692  36.961  42.502  10.758
61466W        W26693  10.316   1.196   4.657
61467W        W26694  36.703  24.605   4.683
61468W        W26695  19.233   6.951  14.020
61469W        W26696  12.521  29.974   1.216
61470W        W26697  44.845   5.185   0.820
61471W        W26698  25.287  35.410  11.200
61472W        W26699   9.206   7.585  14.459
61473W        W26700  11.064  43.950   0.256
61474W        W26701   5.880  43.373   0.066
61475W        W26702  33.020   1.103  13.377
61476W        W26703   6.849  30.827   4.592
61477W        W26704  13.281   1.764   3.861
61478W        W26705  28.391  33.607   4.190
61479W        W26706  39.058  37.759   3.741
61480W        W26707  32.727  14.623  12.547
61481W        W26708  36.390  21.310  14.372
61482W        W26709   2.475   8.321  10.502
61483W        W26710  13.331  14.656  10.951
61484W        W26711  37.032  11.700  12.897
61485W        W26712  14.648  21.157   2.752
61486W        W26713  39.237  19.715   2.812
61487W        W26714  39.084  42.804  13.107
61488W        W26715  33.172  19.218  12.456
61489W        W26716  24.064   5.465   3.168
61490W        W26717   4.773  32.095  11.515
61491W        W26718  29.198  36.823  12.915
61492W        W26719  22.116  27.952  11.107
61493W        W26720   7.873  19.144  14.863
61494W        W26721  42.446   0.805  12.526
61495W        W26722  14.091  22.028   2.761
61496W        W26723  28.973   7.414   3.679
61497W        W26724  17.149  16.656   1.482
61498W        W26725  35.403  35.285   2.676
61499W        W26726  11.747  11.148   0.805
61500W        W26727  20.010  24.582   3.316
61501W        W26728  29.786  38.008   0.456
61502W        W26729  39.821  28.986  12.672
61503W        W26730  26.195  34.956   0.704
61504W        W26731  21.032  18.377   4.605
61505W        W26732  26.474   7.868   1.727
61506W        W26733   4.723  27.724   2.249
61507W        W26734  29.457  37.306  10.006
61508W        W26735  30.529   9.866   0.457
61509W        W26736   4.047  21.880   0.333
61510W        W26737  18.884  15.703   4.167
61511W        W26738  13.697  27.127  12.446
61512W        W26739  39.183  32.979   2.606
61513W        W26740  27.707  43.435  14.830
61514W        W26741   0.922  21.784  12.785
61515W        W26742   9.922  16.684  14.262
61516W        W26743   6.446  41.078  10.715
61517W        W26744  39.785   3.396   0.929
61518W        W26745   7.062   6.541  14.755
61519W        W26746  10.188  18.149  12.069
61520W        W26747  13.821   3.169  13.175
61521W        W26748  39.775  39.029   2.114
61522W        W26749  38.990  19.227   0.801
61523W        W26750  35.750   9.018  14.842
61524W        W26751   0.325  16.830  11.200
61525W        W26752  28.504  42.425  14.742
61526W        W26753  34.064  41.192  13.397
61527W        W26754  16.072   1.762   1.826
61528W        W26755  39.576   8.083  14.692
61529W        W26756  34.617   7.117   3.287
61530W        W26757   5.205   8.082  11.961
61531W        W26758   6.855  11.093   2.254
61532W        W26759  41.784  14.531  11.286
61533W        W26760   9.451  27.103  13.627
61534W        W26761  20.832  12.379  13.671
61535W        W26762  27.939  19.862   4.311
61536W        W26763   0.206  34.882   4.152
61537W        W26764  19.794  25.505  14.411
61538W        W26765   3.549   9.969  12.345
61539W        W26766  32.262  12.870   1.386
61540W        W26767  20.676  16.996  12.046
61541W        W26768  24.930  30.256  11.284
61542W        W26769   4.105  39.941   0.443
61543W        W26770  35.772  12.119   0.309
61544W        W26771  34.005  32.878   3.508
61545W        W26772  36.162   9.287   2.664
61546W        W26773  15.248  16.510   0.453
61547W        W26774  28.148  32.084  13.880
61548W        W26775  10.136  25.608   2.595
61549W        W26776  33.149  33.352   4.776
61550W        W26777  29.660  39.752  12.252
61551W        W26778  32.915  38.453  14.141
61552W        W26779   3.815   1.381   3.276
61553W        W26780  14.291  31.383  11.517
61554W        W26781  19.678   6.089  10.786
61555W        W26782  36.985   8.368   3.326
61556W        W26783  15.568  14.065  10.449
61557W        W26784   3.273  42.071   2.769
61558W        W26785  17.648  33.446   3.140
61559W        W26786   2.507  24.389  11.116
61560W        W26787  34.598  27.693   1.790
61561W        W26788  44.267   3.360  11.578
61562W        W26789  27.637  10.483  13.887
61563W        W26790  22.286  20.130   1.798
61564W        W26791   2.718  11.808  11.134
61565W        W26792  44.811  33.519   0.727
61566W        W26793  13.082  26.998   4.403
61567W        W26794  31.141  13.180   4.484
61568W        W26795  23.744  10.114   2.696
61569W        W26796  18.112  30.634  14.469
61570W        W26797   3.267   3.876  13.785
61571W        W26798  38.056  26.747  14.261
61572W        W26799  24.693  38.313  14.429
61573W        W26800  17.284   0.504   3.942
61574W        W26801  28.215  30.075  12.369
61575W        W26802  14.327  43.032  10.400
61576W        W26803  28.002  12.501   1.898
61577W        W26804  37.277   9.584   2.267
61578W        W26805  41.554   7.201   3.316
61579W        W26806  14.237  35.274  14.451
61580W        W26807   6.298   7.904  13.835
61581W        W26808  13.763   1.030  11.125
61582W        W26809  42.866  36.394  10.648
61583W        W26810   5.865  31.406   3.751
61584W        W26811   6.427  20.617   0.486
61585W        W26812  18.551  43.105  14.465
61586W        W26813  15.890  39.292  13.981
61587W        W26814  16.758  15.624  12.529
61588W        W26815   0.329  19.225  12.622
61589W        W26816   1.249  17.687   0.761
61590W        W26817  27.975  41.058  12.117
61591W        W26818  33.801  43.965   0.906
61592W        W26819   0.879  37.636  11.549
61593W        W26820  28.234  18.259  10.716
61594W        W26821  12.715  42.019  12.998
61595W        W26822  40.631  29.170  11.137
61596W        W26823  40.861  23.892  12.886
61597W        W26824  19.031  41.976   4.515
61598W        W26825  18.746   5.957   0.803
61599W        W26826  33.583  14.134   2.373
61600W        W26827  34.958  30.127   2.724
61601W        W26828  11.224   5.768   4.231
61602W        W26829  10.870  42.234   0.633
61603W        W26830  28.611   9.607  11.078
61604W        W26831  24.073  25.696  13.999
61605W        W26832   6.928  44.486   3.251
61606W        W26833  11.174  37.178   3.145
61607W        W26834   9.157  14.826  14.136
61608W        W26835  29.661  18.995  11.165
61609W        W26836  40.696  12.216   1.881
61610W        W26837   9.703  16.306   3.153
61611W        W26838   0.317  16.439  12.371
61612W        W26839   0.496  36.216   3.320
61613W        W26840  41.491  17.520  11.642
61614W        W26841  27.041  44.581  12.042
61615W        W26842  42.090  26.544   3.654
61616W        W26843  34.355   7.859   2.646
61617W        W26844  44.083  17.012   1.632
61618W        W26845   9.320  34.448   1.932
61619W        W26846  12.024  33.481   0.966
61620W        W26847  24.351  32.579   3.041
61621W        W26848   6.145  21.435  10.714
61622W        W26849  37.785   4.470  11.469
61623W        W26850  32.443  39.411  14.231
61624W        W26851  43.030  24.728  11.164
61625W        W26852  34.665  44.589   1.078
61626W        W26853  16.315  19.040  14.844
61627W        W26854  36.081  44.111  12.073
61628W        W26855  27.500  43.940  13.952
61629W        W26856  42.239  19.249  12.461
61630W        W26857  24.764  35.014  11.719
61631W        W26858  18.259  13.219  13.328
61632W        W26859  27.190  10.449  12.936
61633W        W26860  13.947  21.464   3.583
61634W        W26861   8.771   0.691  12.363
61635W        W26862  33.636   9.816  11.280
61636W        W26863  36.041  41.723   0.885
61637W        W26864  23.627  23.235   4.111
61638W        W26865   0.547  12.339  13.751
61639W        W26866  19.992   9.725   1.492
61640W        W26867  18.671  22.882   2.276
61641W        W26868  39.397  30.425  14.401
61642W        W26869  27.747  37.989  12.931
61643W        W26870  16.689  20.574  11.741
61644W        W26871  39.514  35.589  11.705
61645W        W26872  25.225  32.065  11.489
61646W        W26873  37.448  17.312  10.698
61647W        W26874  10.775  32.584   0.395
61648W        W26875  14.584  18.385  12.773
61649W        W26876  17.262  15.008   3.785
61650W        W26877  29.672  29.069  11.851
61651W        W26878  10.241   1.869  12.945
61652W        W26879  34.500  40.578  14.342
61653W        W26880  11.803   9.627   3.195
61654W        W26881   0.817  27.275  14.743
61655W        W26882  40.923   5.948  14.377
61656W        W26883  12.903  18.732   1.703
61657W        W26884  22.913   3.424   2.172
61658W        W26885   7.863  34.441   1.436
61659W        W26886  41.128  18.762   2.349
61660W        W26887  23.911  29.943   5.006
61661W        W26888  32.081  33.988   2.161
61662W        W26889  22.560  21.024   0.194
61663W        W26890   6.677  16.880  10.647
61664W        W26891  30.038  43.292  14.817
61665W        W26892  23.458  23.409   0.925
61666W        W26893  25.526   7.697   4.537
61667W        W26894  31.503  36.123  12.904
61668W        W26895  17.377   9.808  13.791
61669W        W26896   8.193   4.940  12.310
61670W        W26897  40.095   9.746   2.649
61671W        W26898  30.475  28.566  11.113
61672W        W26899  35.948  39.843  12.135
61673W        W26900  39.337   2.419  13.033
61674W        W26901  14.386  19.663   0.117
61675W        W26902  44.879  22.203   3.122
61676W        W26903  19.995  32.175   0.259
61677W        W26904  19.781  28.938  10.866
61678W        W26905   3.657  21.066  13.686
61679W        W26906  35.482   6.442  14.482
61680W        W26907  20.001   1.374   2.846
61681W        W26908  12.580  14.889   2.797
61682W        W26909  37.327  40.326   1.057
61683W        W26910  40.151  35.931  14.545
61684W        W26911   2.806  41.070  10.349
61685W        W26912  40.440  16.626   3.677
61686W        W26913  38.674   2.284  10.607
61687W        W26914   1.514  29.182   4.076
61688W        W26915  28.022  14.336  11.059
61689W        W26916   4.354  14.780  12.550
61690W        W26917  35.785  37.104  13.892
61691W        W26918  35.004  18.969   2.496
61692W        W26919  30.144  23.393   2.152
61693W        W26920   4.631  24.670   4.815
61694W        W26921  10.983  18.364  12.853
61695W        W26922  40.117   9.236   4.568
61696W        W26923  25.261  42.425   0.191
61697W        W26924  26.822   8.290   1.439
61698W        W26925  39.345  29.904   1.262
61699W        W26926  26.064   1.052  14.014
61700W        W26927  25.038  11.427   1.057
61701W        W26928   7.966  10.628   0.986
61702W        W26929  12.853  38.352   3.082
61703W        W26930  12.842  20.758  10.510
61704W        W26931  20.561  18.713  12.474
61705W        W26932  22.257  19.876  14.358
61706W        W26933   2.229  44.727   2.724
61707W        W26934   1.286  24.558   4.515
61708W        W26935  29.041  35.603   2.245
61709W        W26936   7.409  14.142   4.499
61710W        W26937  25.589  40.584   1.921
61711W        W26938  19.456  40.743   4.192
61712W        W26939  15.714  34.741   1.902
61713W        W26940  13.276  12.744   2.851
61714W        W26941  39.454  17.864  12.509
61715W        W26942  28.053  20.484  11.454
61716W        W26943   1.818  41.460   4.045
61717W        W26944   8.931  44.128  11.531
61718W        W26945   4.666  30.557   3.778
61719W        W26946  13.918  20.314  13.913
61720W        W26947   6.798  32.584  12.436
61721W        W26948  15.655  44.486   0.990
61722W        W26949  32.991  31.984   1.181
61723W        W26950  39.080  44.378  13.386
61724W        W26951  17.765  21.646  11.461
61725W        W26952   9.504  37.892  12.692
61726W        W26953  37.117  40.763  10.663
61727W        W26954  39.021   7.758   3.167
61728W        W26955   5.445  30.810  14.825
61729W        W26956  29.827  34.286   1.983
61730W        W26957  12.637  22.411   2.642
61731W        W26958  10.779  40.339   4.505
61732W        W26959  12.251  15.942  10.041
61733W        W26960  30.521   5.629   0.740
61734W        W26961   2.988  35.995   4.906
61735W        W26962  33.167   4.801  11.396
61736W        W26963   7.788  38.453   1.315
61737W        W26964  26.227  37.223   0.358
61738W        W26965  40.453  36.476   0.332
61739W        W26966  40.372  26.707  11.674
61740W        W26967   3.757  38.572   4.127
61741W        W26968  42.518  43.669   4.171
61742W        W26969  18.364  40.755  14.369
61743W        W26970  19.804   8.739  11.502
61744W        W26971  36.026  24.491  14.948
61745W        W26972  18.457  22.472  10.781
61746W        W26973  12.582  38.870  14.854
61747W        W26974  18.218   0.026  11.614
61748W        W26975  21.728  36.813   1.969
61749W        W26976  31.639  35.910  12.438
61750W        W26977   0.337  14.209   2.289
61751W        W26978  21.861  12.251   3.332
61752W        W26979  34.654  44.100   1.293
61753W        W26980  12.682  39.632   3.850
61754W        W26981  19.520  43.031  10.696
61755W        W26982  38.857  12.245  12.024
61756W        W26983  30.701  35.434   5.135
61757W        W26984   5.550  13.668   4.467
61758W        W26985  22.491  31.669   1.278
61759W        W26986  41.067   8.896   3.392
61760W        W26987  36.913  37.368  10.439
61761W        W26988   3.307   2.203  14.378
61762W        W26989   7.293  18.413  13.286
61763W        W26990  18.009  20.652   2.972
61764W        W26991   5.052  41.360  12.154
61765W        W26992  36.896  39.407   4.516
61766W        W26993   2.961  34.450   0.970
61767W        W26994  35.609  13.050  14.436
61768W        W26995   3.507  17.780   4.101
61769W        W26996  42.340  10.236   3.737
61770W        W26997  10.638  12.201  14.926
61771W        W26998  16.126  14.566  12.853
61772W        W26999  29.476  28.258  10.296
61773W        W27000  26.539  38.739   4.479
61774W        W27001  21.164  40.350  12.790
61775W        W27002  35.015  15.150   2.410
61776W        W27003  30.268  41.474  13.459
61777W        W27004  37.888  21.206   3.545
61778W        W27005   8.553  32.718  13.589
61779W        W27006  42.337  29.520  14.479
61780W        W27007  12.877   0.286   1.337
61781W        W27008  42.155   7.981   2.016
61782W        W27009  43.751   9.124  14.316
61783W        W27010  29.860  35.723   2.547
61784W        W27011  15.528  41.524  10.737
61785W        W27012  26.971  39.004   4.513
61786W        W27013  16.398  13.609   0.035
61787W        W27014  16.995  32.044   0.889
61788W        W27015  41.309  38.569   1.862
61789W        W27016  42.819  26.066   4.444
61790W        W27017  32.391   9.407  14.896
61791W        W27018  16.272  15.689   3.352
61792W        W27019   3.907  36.787   0.334
61793W        W27020  22.177   1.099  12.354
61794W        W27021   2.469  10.083  13.655
61795W        W27022  43.557  16.102   4.209
61796W        W27023  22.653   4.215  14.242
61797W        W27024  12.402   8.318   0.980
61798W        W27025   2.086   9.258  13.265
61799W        W27026   7.141   6.311   4.144
61800W        W27027   4.219  10.829  12.551
61801W        W27028  31.035  41.635  14.898
61802W        W27029  25.682  26.685  14.095
61803W        W27030  34.724  10.220  14.436
61804W        W27031  19.611  43.249   0.168
61805W        W27032  42.195  30.902  12.127
61806W        W27033  38.553  41.359  14.351
61807W        W27034  10.639   0.577  13.487
61808W        W27035  24.714  14.269  12.373
61809W        W27036  30.623   3.308   4.956
61810W        W27037  38.876  15.639  11.580
61811W        W27038  26.723  44.563   1.433
61812W        W27039  14.805  26.434  13.508
61813W        W27040  10.450   5.521   4.567
61814W        W27041   0.969   2.047  11.584
61815W        W27042  18.822  10.866  11.536
61816W        W27043  14.232  22.521   3.112
61817W        W27044  20.099   5.020   0.804
61818W        W27045  19.209  27.156   2.290
61819W        W27046  41.733  36.906  14.483
61820W        W27047  32.122  12.543  12.671
61821W        W27048  39.509  29.586   0.771
61822W        W27049  34.408   7.295  10.769
61823W        W27050   7.882  42.048  11.135
61824W        W27051  33.897  20.196  11.309
61825W        W27052  11.159   5.396  13.894
61826W        W27053  26.316  38.192  13.896
61827W        W27054   8.786  10.958  11.489
61828W        W27055  23.040  17.620   1.499
61829W        W27056   8.783  31.055  11.403
61830W        W27057  37.801  17.812   0.796
61831W        W27058   1.462   6.857   1.313
61832W        W27059  33.782  17.177   0.761
61833W        W27060   7.242  38.805  13.024
61834W        W27061  32.116  18.982  13.488
61835W        W27062  24.650  28.827   0.430
61836W        W27063  13.734  29.411  13.463
61837W        W27064  17.699  15.258  11.111
61838W        W27065  11.858   4.973   2.576
61839W        W27066  43.999   2.864  13.497
61840W        W27067   6.350  21.462  12.914
61841W        W27068  36.533  28.570   2.268
61842W        W27069  24.886  13.301   3.549
61843W        W27070  43.038  24.092  13.063
61844W        W27071  20.132  19.503   0.911
61845W        W27072  25.695  42.195   0.391
61846W        W27073  18.174  39.372  13.801
61847W        W27074   4.781  34.017   3.359
61848W        W27075  38.494   4.306   4.109
61849W        W27076   3.812  30.814   1.668
61850W        W27077   9.280   3.748   1.294
61851W        W27078  31.977  37.797   0.958
61852W        W27079   6.683  15.161  13.407
61853W        W27080   9.145   9.111   1.000
61854W        W27081  32.944  31.888  10.664
61855W        W27082  37.845  25.418   4.001
61856W        W27083   3.454  23.704   1.880
61857W        W27084  34.915  37.798  11.145
61858W        W27085  36.295  24.135  10.716
61859W        W27086   9.530  39.627  11.639
61860W        W27087  21.148  14.710  14.807
61861W        W27088  26.056  29.482  11.882
61862W        W27089  22.362  10.252   1.380
61863W        W27090  17.213   2.806   2.937
61864W        W27091  11.762  42.192   0.990
61865W        W27092  23.549  12.908  12.495
61866W        W27093  27.648  28.362  12.425
61867W        W27094  36.538   9.344  13.549
61868W        W27095  18.543   1.778   4.873
61869W        W27096  31.957  33.057   1.351
61870W        W27097   6.082  34.378  11.054
61871W        W27098  27.929  23.558  13.409
61872W        W27099   9.528  41.089  12.086
61873W        W27100  42.409  12.264  12.532
61874W        W27101  31.463  43.896   4.697
61875W        W27102  10.304  34.318   2.362
61876W        W27103  44.387  39.380   4.793
61877W        W27104  33.625  11.904   2.645
61878W        W27105  18.222  15.743   3.290
61879W        W27106   9.797  18.226   3.797
61880W        W27107  26.789  31.140  14.429
61881W        W27108   6.956  28.532  14.555
61882W        W27109  17.537  44.007   4.220
61883W        W27110  42.802  26.998  13.228
61884W        W27111   5.913  34.825   0.401
61885W        W27112   8.509  13.349   2.959
61886W        W27113  23.915  33.900  14.443
61887W        W27114  18.598  35.123   2.710
61888W        W27115  15.546  13.197   4.943
61889W        W27116  31.837  44.517   1.673
61890W        W27117  22.659  17.267  10.639
61891W        W27118  38.052   4.628   2.753
61892W        W27119  26.599  32.823   0.354
61893W        W27120  29.080  15.542   4.062
61894W        W27121  35.722  26.740  12.048
61895W        W27122  39.040  32.805  11.831
61896W        W27123  35.328  35.034  13.018
61897W        W27124  10.353  33.541   1.298
61898W        W27125  15.936  36.893  13.830
61899W        W27126  16.747  18.074  12.560
61900W        W27127  27.574   9.898   1.663
61901W        W27128  43.721  43.120  12.714
61902W        W27129   2.486  29.383   3.226
61903W        W27130  21.254   1.242  14.505
61904W        W27131  19.774   5.663   0.043
61905W        W27132   0.828  42.263  12.373
61906W        W27133  12.418  32.133  11.648
61907W        W27134   4.856  25.128   0.833
61908W        W27135  44.710  29.449   0.442
61909W        W27136  30.675  24.280  12.453
61910W        W27137  28.126  22.028  12.390
61911W        W27138  13.864  25.310  14.527
61912W        W27139  16.753  33.049   2.100
61913W        W27140  17.406  14.564  11.601
61914W        W27141  37.387  44.209  12.377
61915W        W27142   2.890   4.445   2.304
61916W        W27143   7.225   5.076   2.705
61917W        W27144   5.346  24.725   3.816
61918W        W27145  21.201  28.746   2.286
61919W        W27146  23.280  20.557  10.672
61920W        W27147   0.064  17.885  12.426
61921W        W27148  30.447  10.507   4.510
61922W        W27149  35.096  11.189   1.343
61923W        W27150  34.072  28.465   4.102
61924W        W27151  17.469  26.317  12.869
61925W        W27152  22.125  43.373   3.791
61926W        W27153  32.799  12.551   0.093
61927W        W27154  15.075  23.665   3.331
61928W        W27155  24.122  36.471   1.724
61929W        W27156  12.827  38.474   2.581
61930W        W27157  22.602   4.591   3.114
61931W        W27158  33.875  11.234  13.018
61932W        W27159  36.133  31.540  14.459
61933W        W27160   6.178  20.531  11.711
61934W        W27161  30.573  32.583   0.552
61935W        W27162  14.710   8.838   4.226
61936W        W27163  15.678  36.822   3.250
61937W        W27164  24.726  31.712   4.570
61938W        W27165  43.079   1.983   4.464
61939W        W27166  35.030  43.309  10.624
61940W        W27167  18.777  15.698  10.629
61941W        W27168  34.088  17.765   1.805
61942W        W27169  39.296  18.958  10.814
61943W        W27170  12.274  19.510   4.099
61944W        W27171  11.344   5.975   3.302
61945W        W27172  26.647   6.245  12.901
61946W        W27173   4.782  42.246   2.081
61947W        W27174  19.146  12.812  12.080
61948W        W27175  24.947  24.353  11.400
61949W        W27176   5.156  37.357   1.818
61950W        W27177  35.169  37.241  13.272
61951W        W27178   6.522  37.430   0.473
61952W        W27179  42.723  22.789  14.291
61953W        W27180  43.209  15.048  14.142
61954W        W27181  17.021   4.176   3.817
61955W        W27182   5.746  12.572  13.028
61956W        W27183   7.672  39.279   3.205
61957W        W27184  21.208  44.980   2.815
61958W        W27185  27.592  28.959   5.825
61959W        W27186  33.134   4.397  12.207
61960W        W27187  38.042   2.340   1.483
61961W        W27188  40.875  22.089   4.613
61962W        W27189  23.536   0.249  13.768
61963W        W27190   8.145  31.479   3.942
61964W        W27191  11.737  38.562  10.626
61965W        W27192  15.312  40.266   3.666
61966W        W27193  17.840  39.355  12.406
61967W        W27194  30.628  25.331  12.492
61968W        W27195  18.639   8.133   2.844
61969W        W27196  35.337  23.862   3.293
61970W        W27197  34.642  29.310  13.478
61971W        W27198  38.757   3.461   5.278
61972W        W27199   1.485  30.199   1.763
61973W        W27200  26.611  29.988  14.674
61974W        W27201  11.773  36.605   4.465
61975W        W27202  36.603   3.405  14.811
61976W        W27203   4.907   0.769   3.161
61977W        W27204  41.081   7.753  11.972
61978W        W27205  12.709  41.221   1.744
61979W        W27206  34.680  26.789  13.628
61980W        W27207  30.542  42.763   1.916
61981W        W27208  26.699  23.215   2.264
61982W        W27209  32.621  22.731   2.722
61983W        W27210   7.865  17.039   4.075
61984W        W27211  35.302  27.593  14.049
61985W        W27212  12.976  29.726   1.125
61986W        W27213  37.487  32.617   1.294
61987W        W27214   6.773  26.948   0.944
61988W        W27215  20.154  23.136   4.124
61989W        W27216  36.939  11.327   2.912
61990W        W27217  18.731   2.098   2.852
61991W        W27218  12.813  37.854   3.198
61992W        W27219   7.745  40.214   2.001
61993W        W27220  35.514  25.689   1.190
61994W        W27221  33.408  26.584   2.241
61995W        W27222   7.258  11.566  12.746
61996W        W27223  21.528   9.715   4.247
61997W        W27224  44.075  15.530  11.117
61998W        W27225  29.126  23.134  13.400
61999W        W27226  37.031   0.347  14.884
62000W        W27227  43.804  13.929   0.686
62001W        W27228  35.542  15.357   0.869
62002W        W27229  38.601  31.018  11.550
62003W        W27230  43.270  18.555   1.685
62004W        W27231   9.387  40.869   0.450
62005W        W27232  22.401  11.570  11.124
62006W        W27233   7.296   2.743   4.200
62007W        W27234   2.784  26.600   2.829
62008W        W27235  23.218  41.424  11.104
62009W        W27236  17.043   6.758  13.323
62010W        W27237  42.191   0.682   0.328
62011W        W27238  43.192  32.463  10.683
62012W        W27239  39.930  33.557  14.201
62013W        W27240  28.809  35.557   0.762
62014W        W27241  31.539  34.539  11.788
62015W        W27242  37.744  28.529   2.766
62016W        W27243   5.173  36.610   4.101
62017W        W27244  35.016  36.975   4.531
62018W        W27245  27.519  38.097   2.966
62019W        W27246  28.065  10.125  10.289
62020W        W27247  19.504  23.215   2.323
62021W        W27248  33.658  21.190   0.843
62022W        W27249  12.499  21.318   0.360
62023W        W27250  14.594  13.218   4.760
62024W        W27251   1.338  36.645   2.158
62025W        W27252   5.810  13.256   3.676
62026W        W27253  37.190  21.373   4.064
62027W        W27254   8.006  36.345  11.518
62028W        W27255   1.247  25.101  13.557
62029W        W27256  23.741  39.505  12.435
62030W        W27257  33.845   8.275   4.657
62031W        W27258   0.216   9.762  10.449
62032W        W27259   8.351  28.405  14.575
62033W        W27260  22.984  23.298   1.195
62034W        W27261  22.245  40.847  12.950
62035W        W27262   0.082  25.635  11.730
62036W        W27263  35.027  16.321   1.697
62037W        W27264  31.032  28.655   0.289
62038W        W27265  26.568  13.496   4.613
62039W        W27266   2.466   8.809  10.723
62040W        W27267  27.575  25.244  12.091
62041W        W27268  26.095   3.183   1.334
62042W        W27269   3.838  34.422  13.981
62043W        W27270  27.649  32.563   2.848
62044W        W27271  34.970  19.361  12.631
62045W        W27272  29.202  40.511  11.933
62046W        W27273  19.229  19.169   4.582
62047W        W27274  38.897  29.066  12.393
62048W        W27275  24.816  31.176   0.766
62049W        W27276  44.154  26.940  12.204
62050W        W27277  25.959  40.923   4.864
62051W        W27278   5.411   6.880  12.318
62052W        W27279  41.241   2.162  12.670
62053W        W27280  18.765  32.969  11.530
62054W        W27281   2.699  32.943   4.741
62055W        W27282  27.016  37.680   0.808
62056W        W27283  36.492   2.932   2.505
62057W        W27284  43.820  11.821   4.174
62058W        W27285  21.755   8.289  14.778
62059W        W27286  29.476   8.713   5.032
62060W        W27287  34.010  12.129   2.899
62061W        W27288  23.646   9.573   1.758
62062W        W27289  12.841  33.305  11.872
62063W        W27290  41.977  24.110   1.064
62064W        W27291  21.166  15.589   0.307
62065W        W27292  29.414   6.512   4.138
62066W        W27293  14.370  21.137  11.402
62067W        W27294  31.930  43.832   3.066
62068W        W27295  17.228  17.375  12.223
62069W        W27296  40.903  32.552  13.366
62070W        W27297   5.357  23.674  14.783
62071W        W27298  44.539   1.336   4.606
62072W        W27299   6.728  38.799  11.669
62073W        W27300  23.275  43.915  10.464
62074W        W27301  27.658  18.114  11.436
62075W        W27302  22.606  35.890  11.587
62076W        W27303  28.783  23.868   4.392
62077W        W27304  22.678  37.368   0.060
62078W        W27305  22.837  21.063  10.447
62079W        W27306  40.193  14.079   0.938
62080W        W27307  13.246  17.047   5.080
62081W        W27308  18.847  34.453   1.799
62082W        W27309   7.779  18.879  10.207
62083W        W27310  41.921  26.419   0.899
62084W        W27311   4.905  27.156   9.975
62085W        W27312   8.740  33.582  10.751
62086W        W27313   8.503  14.109   5.397
62087W        W27314   7.016   3.155  13.682
62088W        W27315  30.641   6.369  13.436
62089W        W27316  39.324  15.313   3.719
62090W        W27317  15.283   4.326   0.678
62091W        W27318  41.592  44.721  14.375
62092W        W27319  21.463   7.726   1.671
62093W        W27320  18.047  21.109   2.355
62094W        W27321  34.563   5.895   1.373
62095W        W27322  13.360  12.490  14.831
62096W        W27323   2.341  23.898   4.904
62097W        W27324  26.178  31.333  11.657
62098W        W27325   6.817  38.989   4.629
62099W        W27326  43.275  38.853   1.231
62100W        W27327   6.955  42.818   3.252
62101W        W27328   5.982   4.342  13.633
62102W        W27329  42.441  24.228  14.825
62103W        W27330  37.542  40.373   1.908
62104W        W27331   2.060  32.579  12.399
62105W        W27332  43.416   6.758   9.658
62106W        W27333  35.927  11.180   2.779
62107W        W27334  13.747  33.859   0.221
62108W        W27335  35.562  26.600   2.742
62109W        W27336  39.789  29.628   3.488
62110W        W27337   4.551  31.444   3.416
62111W        W27338   3.244  11.694  11.195
62112W        W27339  35.008  22.461   0.579
62113W        W27340  36.134   6.953   4.165
62114W        W27341  23.504  23.691   1.376
62115W        W27342  22.786  34.986  11.629
62116W        W27343  29.583  44.232   2.802
62117W        W27344  14.172  10.363   1.324
62118W        W27345  42.808  20.931   2.003
62119W        W27346  18.582  23.097  13.746
62120W        W27347  18.536  30.982  10.650
62121W        W27348  35.761  10.079  10.079
62122W        W27349  18.617  28.166   0.773
62123W        W27350  23.304  26.090   3.641
62124W        W27351  44.339  29.554   1.489
62125W        W27352  39.810  44.712  11.537
62126W        W27353  41.349  30.830  12.598
62127W        W27354  13.845  44.500   0.464
62128W        W27355  33.560   8.802   1.849
62129W        W27356  29.924  41.097   3.640
62130W        W27357  27.536  36.879  14.891
62131W        W27358  11.503   8.757   2.744
62132W        W27359   0.687  12.809   2.845
62133W        W27360  19.326   2.263  14.281
62134W        W27361  12.649  15.686  13.813
62135W        W27362  14.619  17.543  13.857
62136W        W27363  36.931  35.482   2.237
62137W        W27364  23.193  44.283  10.800
62138W        W27365  33.725  34.665  10.760
62139W        W27366  42.561   3.270   0.760
62140W        W27367  27.756  20.694  12.464
62141W        W27368  37.387  16.018  10.260
62142W        W27369   2.658  17.106   2.316
62143W        W27370   3.539  20.209   4.295
62144W        W27371  13.226  43.930   1.959
62145W        W27372   9.205  10.380  13.895
62146W        W27373  35.125  36.431  11.933
62147W        W27374  38.203  31.710   3.270
62148W        W27375  12.709  33.347   0.536
62149W        W27376  22.011  37.051   3.712
62150W        W27377  41.042  42.323  11.065
62151W        W27378   5.561  24.320   2.735
62152W        W27379  41.304  15.981   1.145
62153W        W27380   5.787  29.128  13.868
62154W        W27381  39.627  38.563  12.581
62155W        W27382  10.824   6.669  11.527
62156W        W27383  14.161  32.554   0.832
62157W        W27384  15.653  10.690   0.139
62158W        W27385  20.818  33.066  11.088
62159W        W27386  21.634   7.206  11.707
62160W        W27387   4.724  31.659   1.664
62161W        W27388  21.992  11.345   0.409
62162W        W27389  27.689  12.562   3.690
62163W        W27390  38.786  14.651  14.433
62164W        W27391   4.710  22.631  14.392
62165W        W27392   8.980  19.058  13.479
62166W        W27393  36.560  29.485  13.025
62167W        W27394   9.875   2.751   1.731
62168W        W27395  44.245  35.513  12.639
62169W        W27396  15.615  33.347   1.890
62170W        W27397   7.796  26.437   4.943
62171W        W27398   5.248  19.075   3.539
62172W        W27399  30.928  24.977   0.916
62173W        W27400   9.256  12.171   0.173
62174W        W27401  33.623   6.654  14.335
62175W        W27402  23.415   1.343   3.184
62176W        W27403  26.543  28.396  10.373
62177W        W27404  16.376  16.087  12.347
62178W        W27405  14.848   1.019  14.148
62179W        W27406   2.646  42.614  13.458
62180W        W27407  35.908   1.995  11.706
62181W        W27408  12.208   9.391   1.194
62182W        W27409  27.732   0.848  14.914
62183W        W27410  21.918   0.569   3.208
62184W        W27411  15.529   4.278   4.224
62185W        W27412  19.857  35.851  12.963
62186W        W27413  19.559   5.390  13.365
62187W        W27414  29.067  18.169  12.157
62188W        W27415  28.660  12.487  10.257
62189W        W27416  13.781  19.570  14.269
62190W        W27417   9.665  21.988   4.065
62191W        W27418  30.555  29.997  12.196
62192W        W27419   3.319  26.262  12.160
62193W        W27420   1.001  44.312   3.154
62194W        W27421   3.341  16.332   4.533
62195W        W27422  21.137  40.685   0.012
62196W        W27423  23.115  17.281   1.894
62197W        W27424  31.722  39.947   5.002
62198W        W27425  39.512  20.711   1.232
62199W        W27426  19.535  27.102  12.679
62200W        W27427  22.742   6.978   2.452
62201W        W27428  35.061  11.827   3.368
62202W        W27429   9.024   8.572  13.882
62203W        W27430  12.127  26.413   0.999
62204W        W27431  25.135   9.359   0.845
62205W        W27432  30.705  27.448   1.170
62206W        W27433   6.069  21.077   2.688
62207W        W27434  13.712  25.399   2.332
62208W        W27435   8.437  24.480  12.019
62209W        W27436  23.991  14.619   1.703
62210W        W27437   9.742  21.007   3.357
62211W        W27438   4.001   2.748   2.252
62212W        W27439  33.094  42.765  10.715
62213W        W27440  16.813  16.118   2.518
62214W        W27441  25.518  26.828   2.813
62215W        W27442  44.333  32.171   1.019
62216W        W27443   1.445  34.980   0.164
62217W        W27444  34.675   7.913   1.322
62218W        W27445   8.711  28.185  11.154
62219W        W27446  10.714  29.552   4.587
62220W        W27447   3.408   7.944  11.384
62221W        W27448   4.238   7.785   2.396
62222W        W27449  23.286  25.487   3.206
62223W        W27450  15.479  42.315  14.195
62224W        W27451  34.486  13.606   0.937
62225W        W27452   9.684   0.815   2.365
62226W        W27453  10.379  34.412  13.421
62227W        W27454   0.527  32.391  14.916
62228W        W27455  26.477  22.091   4.132
62229W        W27456  11.151  37.183  13.570
62230W        W27457   4.301   1.297  13.137
62231W        W27458  29.096  37.547   2.991
62232W        W27459  32.443  25.535  11.195
62233W        W27460  26.095  31.045   4.370
62234W        W27461  24.283  18.072  10.297
62235W        W27462  17.741  40.953   0.835
62236W        W27463  28.190  29.902   0.389
62237W        W27464  43.068  43.762   0.915
62238W        W27465  17.578   8.303   4.489
62239W        W27466  40.417  41.813  10.566
62240W        W27467  18.605  44.692  11.539
62241W        W27468  17.704  42.454  11.083
62242W        W27469  34.454  10.995  14.488
62243W        W27470  42.468  23.579   1.345
62244W        W27471  10.012  23.454   1.031
62245W        W27472   3.067   8.801   1.213
62246W        W27473  33.926   1.476  11.535
62247W        W27474  24.284   5.810   0.833
62248W        W27475  37.355  24.030  11.560
62249W        W27476   1.470  15.066   0.415
62250W        W27477   4.430  20.177  13.449
62251W        W27478  11.615  42.794  12.666
62252W        W27479  28.143  43.293   4.174
62253W        W27480   0.805  40.294  13.067
62254W        W27481  32.008  39.831  10.906
62255W        W27482   1.953   9.134   1.367
62256W        W27483  33.031  10.544  14.392
62257W        W27484   0.400  27.448   2.267
62258W        W27485  20.524   2.714   0.809
62259W        W27486  37.552   6.188   1.328
62260W        W27487  31.064  31.777  12.550
62261W        W27488  35.103   1.440  12.926
62262W        W27489  13.056   8.964   0.804
62263W        W27490   9.364  41.986   2.751
62264W        W27491  20.166  19.146  11.266
62265W        W27492  41.385  21.989   1.794
62266W        W27493  43.528  22.279  13.466
62267W        W27494  39.845  27.790   3.623
62268W        W27495   8.699  20.036   2.253
62269W        W27496   6.915  12.524  10.739
62270W        W27497  42.797  20.837  13.208
62271W        W27498  26.776   9.636  13.528
62272W        W27499  29.119  26.540   4.074
62273W        W27500  25.863  23.589   1.903
62274W        W27501  12.361  14.816   4.987
62275W        W27502  40.485  42.255   3.370
62276W        W27503   6.273   1.878  12.855
62277W        W27504   7.128  33.412   4.635
62278W        W27505   1.341   0.366  13.236
62279W        W27506  12.281  44.359  14.976
62280W        W27507  33.107  17.729   1.782
62281W        W27508   0.251   8.115  14.256
62282W        W27509  36.815   5.173  12.853
62283W        W27510  42.351  15.322  12.134
62284W        W27511   5.404   0.834   0.881
62285W        W27512  12.814  23.931   3.123
62286W        W27513  29.350  14.720   3.859
62287W        W27514  16.735  26.262   0.348
62288W        W27515  22.493  43.000   4.554
62289W        W27516  26.232   2.301  14.459
62290W        W27517  11.204   0.814  12.447
62291W        W27518  28.243  28.581   2.709
62292W        W27519   3.319  36.023   4.504
62293W        W27520  11.916  33.946  11.241
62294W        W27521  13.037  32.246   2.797
62295W        W27522  39.999  38.958   3.104
62296W        W27523  17.626  20.211   4.218
62297W        W27524  38.474  39.801   4.094
62298W        W27525  43.368   1.801  11.154
62299W        W27526  15.925  36.808   3.713
62300W        W27527   0.075  34.922  10.289
62301W        W27528  15.008   1.848  13.378
62302W        W27529  35.038   8.095  13.778
62303W        W27530  15.279   4.846  12.399
62304W        W27531  24.768  31.919  13.495
62305W        W27532  10.679  16.079  13.508
62306W        W27533   8.820  14.346   3.150
62307W        W27534  33.679  35.119   0.096
62308W        W27535  13.277  32.169   0.505
62309W        W27536  18.184  19.197   0.273
62310W        W27537  16.152  27.872  12.923
62311W        W27538  17.087  31.933  12.184
62312W        W27539  13.221  43.941   3.425
62313W        W27540  26.175   4.359   2.357
62314W        W27541  38.059  32.816   1.785
62315W        W27542   0.855  12.903   4.248
62316W        W27543  37.360  39.126   3.151
62317W        W27544  35.638  31.896  14.915
62318W        W27545   8.768   8.052  11.689
62319W        W27546  43.303  28.567   0.446
62320W        W27547  27.493  15.054   9.792
62321W        W27548   2.780  18.040  12.103
62322W        W27549  34.497  28.603  11.576
62323W        W27550  41.956  26.042  10.839
62324W        W27551   2.786   3.519   1.902
62325W        W27552   3.412  27.601  11.505
62326W        W27553   8.695   8.046   4.764
62327W        W27554   6.874   5.631  11.090
62328W        W27555   8.186  10.818  10.783
62329W        W27556  13.215  10.446  11.150
62330W        W27557  14.166   0.361   4.374
62331W        W27558  10.947  20.698   0.657
62332W        W27559  42.761  14.339  13.362
62333W        W27560   5.722   4.246   1.733
62334W        W27561  12.884  30.915   4.320
62335W        W27562   5.691  30.520  12.804
62336W        W27563  34.020  14.645  13.194
62337W        W27564  17.850  29.160   1.334
62338W        W27565  24.504  27.580   1.828
62339W        W27566  43.684   9.231  11.149
62340W        W27567  35.021  21.736   0.817
62341W        W27568  22.242   7.200  12.966
62342W        W27569  23.201  18.770  13.284
62343W        W27570   0.592  39.615  11.106
62344W        W27571   2.735  41.562   2.726
62345W        W27572  35.892  18.516   2.271
62346W        W27573  15.486   0.326   4.922
62347W        W27574  37.393   0.054  14.610
62348W        W27575  20.983  15.258  14.018
62349W        W27576  31.077  37.379   3.221
62350W        W27577  13.005   6.445  12.906
62351W        W27578  14.717  12.083  11.197
62352W        W27579  25.618  19.064  12.922
62353W        W27580  26.522  36.944  11.259
62354W        W27581  13.578  12.099  10.529
62355W        W27582  15.615   9.816   0.699
62356W        W27583  28.015  27.099   3.630
62357W        W27584  39.571  13.962   2.770
62358W        W27585  28.994   7.076   4.158
62359W        W27586  23.186  32.866   0.447
62360W        W27587   8.022  30.975   3.685
62361W        W27588  13.791  37.404  12.434
62362W        W27589  30.322  44.379   0.851
62363W        W27590  11.468  35.692  12.164
62364W        W27591   8.626   3.361  11.885
62365W        W27592  41.982   2.717  11.567
62366W        W27593  29.481  17.506  14.308
62367W        W27594  14.636  37.568  13.346
62368W        W27595  29.810  36.780  12.389
62369W        W27596  13.024  29.449   9.944
62370W        W27597  30.114  11.378  10.331
62371W        W27598  10.253   9.921   1.236
62372W        W27599  17.270  38.427   0.635
62373W        W27600   3.225  35.187   4.941
62374W        W27601  11.643  23.201   1.086
62375W        W27602  43.493  20.115  13.503
62376W        W27603   4.113  40.514   3.196
62377W        W27604   8.347  12.683  14.180
62378W        W27605  14.113  22.768   1.633
62379W        W27606  10.189   8.066   1.156
62380W        W27607  41.679  14.529   2.625
62381W        W27608   1.930  14.595  13.444
62382W        W27609  12.363  37.385   4.362
62383W        W27610  24.592   3.961   5.078
62384W        W27611   5.742  44.258  14.794
62385W        W27612  42.525  12.108  13.519
62386W        W27613  13.634   6.005   3.187
62387W        W27614  34.740  44.851  14.796
62388W        W27615  39.479   0.270  12.866
62389W        W27616  22.186  20.196   0.602
62390W        W27617  30.416  24.895   4.547
62391W        W27618  28.933  26.028   3.433
62392W        W27619  28.951  39.799  14.851
62393W        W27620  17.683  36.352   3.095
62394W        W27621   0.486  40.136  11.073
62395W        W27622  14.791  39.700  11.494
62396W        W27623   3.433  39.587   0.695
62397W        W27624  39.908   5.099  14.237
62398W        W27625  25.222  32.355   1.894
62399W        W27626  38.062  40.378   0.199
62400W        W27627   6.747  34.836  14.444
62401W        W27628  42.285  28.043   0.755
62402W        W27629  12.130  10.377   2.191
62403W        W27630   2.010  16.771  10.785
62404W        W27631   0.230   4.354   4.184
62405W        W27632  37.410  37.889   2.635
62406W        W27633  26.336   6.636  12.791
62407W        W27634  24.703  26.235   4.017
62408W        W27635  43.552  27.452   3.768
62409W        W27636   1.197  25.993   4.144
62410W        W27637  15.586  23.059   0.965
62411W        W27638   8.927  16.376  13.071
62412W        W27639   5.201   9.877  14.475
62413W        W27640  18.257   6.713   2.271
62414W        W27641  38.583  32.921   1.701
62415W        W27642  39.499  40.119  13.112
62416W        W27643  37.415  35.271  11.179
62417W        W27644  35.855   7.835   2.805
62418W        W27645   2.980   7.604   3.866
62419W        W27646  16.050  21.675  13.919
62420W        W27647  42.509   9.968  12.381
62421W        W27648  38.395  30.161   1.202
62422W        W27649  32.479   5.107  13.352
62423W        W27650  20.613  18.506   0.432
62424W        W27651   1.382  21.053  11.416
62425W        W27652  21.561  25.004  13.906
62426W        W27653   7.237  16.653   3.714
62427W        W27654  26.142  17.306  13.649
62428W        W27655  40.511  44.702   0.729
62429W        W27656  44.125   9.121   0.596
62430W        W27657  44.024  14.354  14.329
62431W        W27658   0.500  11.163  14.768
62432W        W27659  12.991  15.860   2.790
62433W        W27660  28.035   0.393   4.282
62434W        W27661  23.084  30.563   3.652
62435W        W27662  37.030   3.463   3.074
62436W        W27663   6.808  10.242  11.058
62437W        W27664  25.112  41.263  11.246
62438W        W27665   5.338  15.367   0.474
62439W        W27666  23.520  30.644   0.933
62440W        W27667  19.287  28.891  12.636
62441W        W27668   9.338  38.392   3.618
62442W        W27669  35.512   0.217   4.208
62443W        W27670  34.344  16.654   4.362
62444W        W27671   3.161  20.679  13.195
62445W        W27672  12.297  43.338  14.794
62446W        W27673  17.518  28.826  11.088
62447W        W27674   9.378   6.873  13.372
62448W        W27675  38.409  32.082   0.291
62449W        W27676  10.672  40.033  14.418
62450W        W27677  21.585  39.745  13.961
62451W        W27678  11.922   1.343   2.638
62452W        W27679  20.173  29.325   4.222
62453W        W27680  18.180  39.006   1.862
62454W        W27681  23.693  25.692  12.695
62455W        W27682   4.626  30.835  12.353
62456W        W27683  14.044   7.178  11.189
62457W        W27684  30.611  41.620  14.325
62458W        W27685   6.374   3.221   1.865
62459W        W27686  27.510  35.068   2.977
62460W        W27687  25.611  12.338  10.760
62461W        W27688  17.708  36.412  10.632
62462W        W27689  34.358  37.289   2.183
62463W        W27690   2.984   0.528   2.260
62464W        W27691  13.345  20.813   9.853
62465W        W27692  11.091  28.266   2.757
62466W        W27693  10.527   7.695  12.115
62467W        W27694  44.207   2.204  13.316
62468W        W27695  16.920  12.611   0.946
62469W        W27696  17.333  42.509  10.731
62470W        W27697  29.955  39.385  10.951
62471W        W27698  27.040   4.139  11.182
62472W        W27699  15.282  19.052  13.046
62473W        W27700  36.532   5.782   1.258
62474W        W27701  41.248  26.707  14.519
62475W        W27702   2.886  21.219  11.106
62476W        W27703  19.193   9.002   2.293
62477W        W27704  32.861  30.178  11.503
62478W        W27705  31.729  44.778  11.554
62479W        W27706  37.452  25.855  11.926
62480W        W27707  11.560  27.377   1.371
62481W        W27708  19.729  10.299  10.897
62482W        W27709  12.308  42.320  14.720
62483W        W27710  11.828  20.377  14.278
62484W        W27711  11.281   9.368   1.066
62485W        W27712   7.548  44.208  12.559
62486W        W27713  17.158  23.274   4.876
62487W        W27714  37.596  17.876   4.133
62488W        W27715   9.865   8.748  13.465
62489W        W27716  34.702  43.680  10.857
62490W        W27717  14.168  43.801  10.647
62491W        W27718  24.511  41.904  13.440
62492W        W27719  21.683  36.724  12.803
62493W        W27720  11.952   1.994   2.440
62494W        W27721   4.872   9.799  13.105
62495W        W27722  37.062  42.294   2.298
62496W        W27723  28.187  37.054   0.702
62497W        W27724   5.508   3.928   3.105
62498W        W27725   4.302  42.383   1.823
62499W        W27726  36.099   0.014  10.750
62500W        W27727  31.854   1.305  12.776
62501W        W27728  10.175  44.723   3.157
62502W        W27729   0.417  28.939  12.553
62503W        W27730  12.912  23.432  12.195
62504W        W27731  23.901   5.114  14.291
62505W        W27732   3.927   2.737   9.790
62506W        W27733  39.539  20.582   0.354
62507W        W27734  20.057  18.146  10.378
62508W        W27735  34.645  44.606   4.288
62509W        W27736  32.680   1.064  12.957
62510W        W27737  16.170  25.515  14.227
62511W        W27738  42.562  20.385   0.904
62512W        W27739  32.188  17.297   5.550
62513W        W27740   3.330  29.823  12.389
62514W        W27741  30.637   0.459  11.201
62515W        W27742   8.934  24.864   0.436
62516W        W27743  34.371  36.561  14.041
62517W        W27744  38.217  18.310   2.753
62518W        W27745  33.465   4.786  10.623
62519W        W27746  12.675   7.822   1.859
62520W        W27747  18.921  17.990   3.858
62521W        W27748  42.132  40.555   0.857
62522W        W27749  11.545  36.467  10.998
62523W        W27750  15.800  26.888   4.989
62524W        W27751  34.959  14.035   3.405
62525W        W27752  40.789  42.671   3.401
62526W        W27753   4.542  27.325  10.300
62527W        W27754   5.277  16.322   3.782
62528W        W27755  12.746  30.090  13.836
62529W        W27756  33.185  12.308  14.837
62530W        W27757  28.269  30.250   5.088
62531W        W27758  27.918  14.837   1.668
62532W        W27759  16.437  37.003   1.408
62533W        W27760  28.754   7.457  14.426
62534W        W27761  20.760  17.160  13.395
62535W        W27762  38.949  40.193   3.400
62536W        W27763  39.968  13.386   3.093
62537W        W27764  16.336   4.130  11.165
62538W        W27765  25.865   0.992  14.865
62539W        W27766  20.537  40.510   1.456
62540W        W27767  28.228  28.154  14.407
62541W        W27768  31.378   0.758   2.586
62542W        W27769   5.188   9.224   0.691
62543W        W27770  34.769  17.667   3.693
62544W        W27771  15.606  44.265   3.726
62545W        W27772  34.982  38.308   1.957
62546W        W27773  35.188  34.404   2.122
62547W        W27774  38.964  19.478   3.200
62548W        W27775  31.211   6.330  12.467
62549W        W27776   6.769  34.601   0.798
62550W        W27777  21.931  35.373  11.637
62551W        W27778   0.672  10.861  11.197
62552W        W27779   5.754  23.265   4.632
62553W        W27780  27.543  13.670  14.937
62554W        W27781  17.831  28.658   2.888
62555W        W27782   8.948  41.463  11.374
62556W        W27783  39.603   8.492   4.519
62557W        W27784  25.239  38.806   0.271
62558W        W27785  30.782  44.992   3.169
62559W        W27786  10.254  36.893  12.521
62560W        W27787  14.618   0.733   2.298
62561W        W27788  36.081  14.797   1.812
62562W        W27789  25.934  39.841   1.136
62563W        W27790  29.433  18.583   3.167
62564W        W27791  42.372  42.462  10.744
62565W        W27792  12.859   8.309  11.899
62566W        W27793  26.049  32.852  13.449
62567W        W27794   7.652  21.172   0.034
62568W        W27795  21.847   3.275   3.601
62569W        W27796  43.733  34.632   0.864
62570W        W27797  15.486  21.233   3.229
62571W        W27798  34.505  24.892   0.499
62572W        W27799  40.041  27.523   2.269
62573W        W27800   8.696   9.344   1.215
62574W        W27801   3.370  14.537   2.907
62575W        W27802  35.656  15.622   1.312
62576W        W27803  38.836  17.687   0.238
62577W        W27804   3.335  14.855   0.080
62578W        W27805   8.444  16.573  13.048
62579W        W27806  24.169   9.145   1.392
62580W        W27807  24.167  33.449  14.280
62581W        W27808   0.158  29.110   4.506
62582W        W27809  19.128  19.206  14.726
62583W        W27810  33.043  38.309  14.646
62584W        W27811   5.830  40.538  11.904
62585W        W27812   2.801  33.443  14.965
62586W        W27813  43.335   6.829  13.418
62587W        W27814   5.230  25.101   2.215
62588W        W27815  37.567  40.864  10.951
62589W        W27816  10.191   8.105  13.743
62590W        W27817  20.570   1.051  11.375
62591W        W27818  41.877  25.402  11.596
62592W        W27819  20.512  23.176  12.630
62593W        W27820  43.651  15.890  13.960
62594W        W27821  44.365   9.302  12.834
62595W        W27822  43.249   8.263   1.331
62596W        W27823   5.154   5.024   3.269
62597W        W27824  39.345  10.638  11.570
62598W        W27825  40.878  19.604   0.916
62599W        W27826  14.653  39.030  12.245
62600W        W27827   1.364  24.089   0.945
62601W        W27828  35.938  35.426   1.404
62602W        W27829   6.635  32.280   3.289
62603W        W27830  26.588  35.368   2.260
62604W        W27831  23.576  44.220  13.612
62605W        W27832  10.439   1.227   3.895
62606W        W27833   5.067  34.820  11.004
62607W        W27834  21.940  14.248   2.207
62608W        W27835  28.023  37.171   0.222
62609W        W27836  39.991  16.174  11.966
62610W        W27837   3.695  36.083  11.212
62611W        W27838  30.683   0.744   4.507
62612W        W27839  43.947  18.162   3.140
62613W        W27840  26.114  28.421  12.878
62614W        W27841  29.665  10.833   3.978
62615W        W27842  18.061  16.902  12.519
62616W        W27843  44.407  27.425   2.205
62617W        W27844  28.704  23.040  10.767
62618W        W27845  42.413  20.233  14.980
62619W        W27846  35.466   5.805  11.690
62620W        W27847   1.194  21.909   2.663
62621W        W27848  11.923  30.573  11.133
62622W        W27849  24.115   9.350   1.874
62623W        W27850  29.672   8.155  13.061
62624W        W27851  13.139  29.177   4.606
62625W        W27852  23.534  32.607  13.545
62626W        W27853  11.201  24.553   4.499
62627W        W27854   3.193  18.708   0.819
62628W        W27855   0.616   9.307  11.264
62629W        W27856  39.585   1.408  10.518
62630W        W27857  28.626   3.894   3.145
62631W        W27858  16.343  17.404  11.218
62632W        W27859  21.936   3.814  13.842
62633W        W27860  36.944   6.206  13.423
62634W        W27861  39.853  14.035   2.274
62635W        W27862  11.989  38.385  11.995
62636W        W27863   2.061   6.458   5.011
62637W        W27864  38.290  21.510  10.581
62638W        W27865   9.904  23.955   0.939
62639W        W27866  12.286   0.730   4.699
62640W        W27867  21.269  41.242  11.961
62641W        W27868  43.186  18.538   9.807
62642W        W27869  29.852  19.736   3.136
62643W        W27870  25.420   6.107  12.845
62644W        W27871  27.344   5.449  11.945
62645W        W27872  40.036   9.312   3.992
62646W        W27873  12.840  42.373   3.364
62647W        W27874  43.506  42.971   1.215
62648W        W27875   5.775  30.533   3.351
62649W        W27876  44.680   8.360   2.177
62650W        W27877  16.928   7.875  13.923
62651W        W27878  32.941  11.968   2.319
62652W        W27879   2.947  36.415  10.283
62653W        W27880  22.270  13.153  13.942
62654W        W27881  19.238  36.452  13.837
62655W        W27882  24.973  22.709   3.889
62656W        W27883  20.759  33.054  14.272
62657W        W27884  13.653  10.796   2.595
62658W        W27885  22.524  37.974   4.562
62659W        W27886  35.471  24.451  11.211
62660W        W27887  35.113  17.732  11.876
62661W        W27888  21.121  34.864   3.183
62662W        W27889  29.015  30.597  12.734
62663W        W27890  21.981  31.352  11.960
62664W        W27891  28.250  15.189   1.945
62665W        W27892  14.706  42.860  12.217
62666W        W27893  31.134  15.453   1.757
62667W        W27894  25.295   8.711  13.777
62668W        W27895   1.800   6.220  12.435
62669W        W27896  37.415  27.347   4.263
62670W        W27897  26.467  29.929   2.507
62671W        W27898   2.360  23.689  10.612
62672W        W27899  44.421  21.717  11.303
62673W        W27900   0.985  43.116   0.030
62674W        W27901   6.071  15.247   5.251
62675W        W27902  25.916  38.457   0.837
62676W        W27903  28.399  44.801  14.938
62677W        W27904  42.285  23.185   3.654
62678W        W27905   0.174   3.500   3.988
62679W        W27906  21.036  32.392  12.949
62680W        W27907   1.410  19.205  13.444
62681W        W27908  44.013   9.340   2.442
62682W        W27909   4.843  39.458   0.291
62683W        W27910  44.377  22.241   9.966
62684W        W27911  22.597  30.227   1.257
62685W        W27912  14.379  29.857   0.860
62686W        W27913  13.595  18.566  11.949
62687W        W27914   3.452   4.884   4.692
62688W        W27915  32.043   5.481  14.053
62689W        W27916  12.536  23.877   0.282
62690W        W27917  14.797  27.956  14.360
62691W        W27918  37.511  18.565  14.458
62692W        W27919  44.624  44.788   3.528
62693W        W27920  38.315  26.247  10.480
62694W        W27921   9.150  27.418   4.609
62695W        W27922  24.075  28.966  12.156
62696W        W27923  37.846  24.618   2.871
62697W        W27924   2.164  15.288  12.444
62698W        W27925   3.476  36.595   2.826
62699W        W27926  21.534  15.296  12.154
62700W        W27927  14.444  35.905   3.787
62701W        W27928  31.279  10.762   2.352
62702W        W27929   5.721   9.107   4.767
62703W        W27930  25.036  43.390  11.979
62704W        W27931   3.742  39.902   2.257
62705W        W27932  35.869  31.118   2.807
62706W        W27933  36.638  11.785  10.770
62707W        W27934  23.593  44.144   9.699
62708W        W27935  22.606  21.509  10.650
62709W        W27936  38.607  12.825  12.576
62710W        W27937  38.329  19.198   4.397
62711W        W27938  20.063  33.432   3.947
62712W        W27939  39.472  26.930   3.733
62713W        W27940  39.298   3.292   3.952
62714W        W27941  39.981  43.928  14.835
62715W        W27942  38.880  14.449   4.122
62716W        W27943  20.178   8.623   3.842
62717W        W27944   0.763  28.599  11.290
62718W        W27945   0.212   7.654   2.846
62719W        W27946  36.553  28.174   0.871
62720W        W27947  34.362   0.231  14.795
62721W        W27948   8.174  41.132  14.374
62722W        W27949  26.273  18.700  14.939
62723W        W27950  40.864  36.807   0.457
62724W        W27951   2.252  13.321  12.071
62725W        W27952  20.798  43.554   2.911
62726W        W27953  35.472  31.246   2.003
62727W        W27954  12.176   0.384  14.970
62728W        W27955  38.242   9.450  14.901
62729W        W27956  39.331   1.465   3.631
62730W        W27957  21.316  30.111   1.740
62731W        W27958   1.834   0.416   0.208
62732W        W27959   6.798  34.278   4.103
62733W        W27960   8.091  29.624   4.248
62734W        W27961  18.761  33.773   3.859
62735W        W27962  41.897  37.558   1.572
62736W        W27963  40.634  19.270   1.916
62737W        W27964  12.852  33.616  12.277
62738W        W27965   1.016  11.308  12.937
62739W        W27966  12.403  37.911   1.819
62740W        W27967   3.448  32.969   3.575
62741W        W27968   6.476  36.452  14.977
62742W        W27969  40.329  10.881   1.420
62743W        W27970  43.882   2.948   4.145
62744W        W27971  29.310  44.619   5.100
62745W        W27972  33.789  33.518   2.067
62746W        W27973  42.933  13.259   2.255
62747W        W27974  43.941  19.507   0.904
62748W        W27975  11.921  23.388  11.413
62749W        W27976  31.911  42.448   2.177
62750W        W27977  32.649  26.984   2.779
62751W        W27978  29.786  17.151  12.417
62752W        W27979  22.933  14.677  11.765
62753W        W27980  17.329  16.964  11.901
62754W        W27981  41.294  35.390   4.081
62755W        W27982   7.701  30.851  12.154
62756W        W27983   6.377   5.760   4.404
62757W        W27984  18.286  35.892  11.122
62758W        W27985  36.617  44.056  13.388
62759W        W27986  34.544   9.120   1.626
62760W        W27987  33.355  20.737  12.980
62761W        W27988  18.803  38.033  14.839
62762W        W27989  10.419  25.610  14.085
62763W        W27990   2.020  33.964  11.564
62764W        W27991  31.056   6.157  14.550
62765W        W27992  22.076  40.263   4.819
62766W        W27993  15.578  37.389  14.347
62767W        W27994   6.233   9.136   2.922
62768W        W27995  31.010   0.230  14.424
62769W        W27996  27.044   3.673  11.001
62770W        W27997   7.832   7.288  11.884
62771W        W27998  11.855  11.183  13.392
62772W        W27999  31.026  28.667  11.980
62773W        W28000  30.170  18.508   3.746
62774W        W28001  20.628  43.987   0.871
62775W        W28002  40.956  24.140   2.155
62776W        W28003  24.372  28.531   2.685
62777W        W28004   1.251  24.888   0.266
62778W        W28005   0.964  25.484   3.159
62779W        W28006  40.311  17.194  11.904
62780W        W28007  13.669  34.087   3.228
62781W        W28008  36.997  40.368  13.034
62782W        W28009  17.812  21.144   2.863
62783W        W28010  34.232  38.370  11.041
62784W        W28011   8.265  28.195  13.858
62785W        W28012  33.157  20.228  11.663
62786W        W28013  28.600   0.951  12.618
62787W        W28014   3.237  14.283   4.132
62788W        W28015  19.591   5.702   1.840
62789W        W28016  36.618  24.900   1.977
62790W        W28017  42.747  44.155  12.358
62791W        W28018  44.750  37.295   3.613
62792W        W28019   7.712  41.742   2.361
62793W        W28020   8.105   8.727  11.617
62794W        W28021  33.086  39.027  11.588
62795W        W28022  12.292  13.837   0.276
62796W        W28023  22.520   7.936   2.929
62797W        W28024  12.322  43.898   2.854
62798W        W28025  36.273  24.106  12.390
62799W        W28026  43.347  19.864  12.224
62800W        W28027  31.716  42.631   4.087
62801W        W28028  13.361  40.982   4.681
62802W        W28029  33.600  28.032  11.538
62803W        W28030   1.961  36.623  14.528
62804W        W28031  36.403   2.265   4.211
62805W        W28032  34.541  37.389  12.481
62806W        W28033  43.801  24.445   2.717
62807W        W28034  27.936  39.323   3.643
62808W        W28035  43.593  18.251   4.952
62809W        W28036  19.796  29.339  14.019
62810W        W28037  20.942   3.943  14.082
62811W        W28038  32.189   0.787  10.697
62812W        W28039  14.142  11.336   4.566
62813W        W28040   3.997  17.616   4.099
62814W        W28041   4.030  33.325  14.953
62815W        W28042  23.992  37.498   1.806
62816W        W28043   3.413  27.986   1.138
62817W        W28044  34.907  14.664  11.156
62818W        W28045  24.784   5.140  14.293
62819W        W28046  22.998  43.852   3.459
62820W        W28047  34.164  21.561  14.361
62821W        W28048  16.208  25.763  14.740
62822W        W28049  44.925  19.546   3.130
62823W        W28050  42.049  16.300  13.109
62824W        W28051  19.143  19.273   3.098
62825W        W28052  16.141   1.419   1.425
62826W        W28053   9.629  15.228  13.415
62827W        W28054  12.786  18.155   1.169
62828W        W28055   3.356  37.260   4.225
62829W        W28056  38.388   8.989   0.711
62830W        W28057  44.601  34.423   3.287
62831W        W28058   1.129  22.192  14.961
62832W        W28059  44.313  36.900   0.422
62833W        W28060  43.893   5.299   2.289
62834W        W28061  37.535  30.936  10.773
62835W        W28062  23.431  38.106   1.719
62836W        W28063  25.045  23.245  12.509
62837W        W28064  42.419  36.473  13.312
62838W        W28065  44.835   0.312  13.365
62839W        W28066  20.036  36.501  13.412
62840W        W28067  28.256  25.173   0.513
62841W        W28068  21.321  39.002   3.187
62842W        W28069  37.536  42.870   1.015
62843W        W28070  26.296  30.974  13.051
62844W        W28071  11.600  28.747  13.800
62845W        W28072  28.850  16.201  14.533
62846W        W28073  36.466  33.392   3.797
62847W        W28074  12.104  16.654  14.230
62848W        W28075  14.323  25.212  14.332
62849W        W28076  31.972  21.059  13.016
62850W        W28077  17.120   3.852  14.935
62851W        W28078  33.071  29.660  13.459
62852W        W28079  34.014  18.174   3.725
62853W        W28080  15.111  28.981   3.433
62854W        W28081   2.550  23.394  13.132
62855W        W28082  31.420  22.467   3.163
62856W        W28083  15.653  35.391   4.535
62857W        W28084   6.411   5.991   0.617
62858W        W28085   5.690  14.244   2.727
62859W        W28086  19.537  17.102  13.972
62860W        W28087  11.827   3.699   0.856
62861W        W28088  33.175  28.518   3.157
62862W        W28089  41.372  12.713  14.306
62863W        W28090  10.235  22.235  10.130
62864W        W28091  13.373  14.701  13.276
62865W        W28092   9.262  11.417   3.226
62866W        W28093  15.372  27.159   0.832
62867W        W28094  18.718  11.429   4.814
62868W        W28095  29.710  29.989   0.419
62869W        W28096  43.623  23.694   4.763
62870W        W28097   4.480   2.179   4.169
62871W        W28098  23.182   3.531  10.858
62872W        W28099   7.447  40.164   3.345
62873W        W28100   0.263   6.250   1.409
62874W        W28101  26.165  40.541   0.733
62875W        W28102  27.007  38.543   3.210
62876W        W28103  32.206  14.815   3.386
62877W        W28104  18.262  33.252   1.842
62878W        W28105  13.603   5.705  10.733
62879W        W28106   6.489  30.388   9.762
62880W        W28107  39.122  11.729  14.955
62881W        W28108   2.195  22.638  11.485
62882W        W28109  12.734  10.527  13.343
62883W        W28110  33.415  22.096  14.456
62884W        W28111  37.494  35.116  14.988
62885W        W28112  44.326  38.017   0.027
62886W        W28113  35.103   9.749   1.438
62887W        W28114  32.747  25.082  11.038
62888W        W28115  15.210  15.866  14.061
62889W        W28116  15.984  30.214  14.596
62890W        W28117  35.830  18.248   4.242
62891W        W28118  10.885  23.448  13.590
62892W        W28119  11.404  26.975  11.178
62893W        W28120  24.639  27.608  14.454
62894W        W28121   5.913  26.287   0.614
62895W        W28122  17.200  15.465  11.174
62896W        W28123  32.163  41.267  10.126
62897W        W28124   1.967  44.328  13.739
62898W        W28125   6.597  14.651   1.470
62899W        W28126   5.609  22.659  11.142
62900W        W28127  39.389  21.259  13.599
62901W        W28128  35.102  40.965  11.968
62902W        W28129  10.184  20.807  12.959
62903W        W28130  44.358  20.520  11.080
62904W        W28131  29.975   2.889   1.784
62905W        W28132  10.238  22.996  14.885
62906W        W28133   2.618   2.778   4.978
62907W        W28134  25.747   4.211  12.914
62908W        W28135  11.909  21.030  13.451
62909W        W28136  33.604  36.804   0.408
62910W        W28137   4.095  16.077   0.819
62911W        W28138  23.050  15.799   0.314
62912W        W28139   9.602  29.080   3.186
62913W        W28140  21.402  18.494   1.332
62914W        W28141   9.316  32.410  12.989
62915W        W28142  13.144  14.037  12.931
62916W        W28143  23.061  37.805   2.389
62917W        W28144  31.346   5.352   0.858
62918W        W28145  40.162  26.010   1.433
62919W        W28146  13.684   3.305   0.719
62920W        W28147   7.205   1.351   4.642
62921W        W28148  11.356  10.390  11.183
62922W        W28149   6.701   6.410  14.363
62923W        W28150  12.387  21.548  10.473
62924W        W28151  20.197  38.808  11.862
62925W        W28152   0.710  37.159  14.276
62926W        W28153  43.056  40.384   1.076
62927W        W28154  28.041  23.366   3.466
62928W        W28155  11.969  13.051  11.004
62929W        W28156   2.513  31.005  11.937
62930W        W28157   4.846  40.845   4.007
62931W        W28158  25.886  26.355   2.288
62932W        W28159  42.442  23.135   1.655
62933W        W28160   8.810  11.792   3.329
62934W        W28161  34.726  38.442  14.628
62935W        W28162  40.843   7.510  14.371
62936W        W28163  43.540  13.388   2.835
62937W        W28164  39.879   4.935  14.899
62938W        W28165   6.290  41.905  13.387
62939W        W28166  23.765  29.967  12.045
62940W        W28167   1.643   9.911  10.926
62941W        W28168   5.418  22.438   4.810
62942W        W28169  17.211   9.742  10.401
62943W        W28170  41.274  40.272  12.099
62944W        W28171  35.108  34.181   3.219
62945W        W28172   4.322  34.241   1.398
62946W        W28173  24.630   5.752   0.449
62947W        W28174   4.807   1.259  13.278
62948W        W28175  28.036  19.551  12.505
62949W        W28176  39.373  14.569   1.960
62950W        W28177  24.320   9.389   3.910
62951W        W28178  27.153   2.864   1.834
62952W        W28179  32.358  25.151   0.638
62953W        W28180  13.310   2.829   4.707
62954W        W28181   8.022   8.229  11.595
62955W        W28182  42.341   6.487   5.377
62956W        W28183  30.338  42.440   2.881
62957W        W28184  28.162  23.136  11.102
62958W        W28185  22.060   9.658  13.418
62959W        W28186  29.706  27.371   1.382
62960W        W28187  23.842  37.224  12.577
62961W        W28188  29.085  28.539   3.513
62962W        W28189   6.076  24.039  13.971
62963W        W28190   6.478  15.621   1.699
62964W        W28191   9.124  18.717   2.319
62965W        W28192   6.649  43.292   3.769
62966W        W28193  15.958  11.554   0.942
62967W        W28194  12.171  12.716   1.460
62968W        W28195  20.697   2.837   1.301
62969W        W28196  37.159  37.018   2.292
62970W        W28197  37.277  22.756  13.390
62971W        W28198   0.816   1.354  11.106
62972W        W28199  17.619  20.329   1.471
62973W        W28200  25.246  31.673  12.390
62974W        W28201  22.977  14.543  13.139
62975W        W28202  36.629  24.696   0.811
62976W        W28203  33.408  28.086   0.451
62977W        W28204   6.581  21.042   2.628
62978W        W28205  17.456  25.407  11.294
62979W        W28206  24.513   3.003   3.685
62980W        W28207   0.681  27.771  14.560
62981W        W28208  17.325  17.311   3.237
62982W        W28209  31.411  37.446  13.964
62983W        W28210  40.450  23.614   4.778
62984W        W28211  17.700  32.392  13.927
62985W        W28212  12.149   2.932   3.165
62986W        W28213   5.305  13.689  11.588
62987W        W28214   3.651  29.538   2.356
62988W        W28215   3.510  31.070  13.936
62989W        W28216  27.421  24.928   3.180
62990W        W28217  16.802  19.598  11.498
62991W        W28218  15.664  35.465   9.371
62992W        W28219  25.200  31.936  10.909
62993W        W28220  31.489  20.038  12.076
62994W        W28221  37.754  20.212  13.488
62995W        W28222  34.348  34.542   1.219
62996W        W28223   1.775   0.397   1.402
62997W        W28224  19.954   2.327   2.749
62998W        W28225   8.845  13.646  13.431
62999W        W28226  24.899  33.900  12.719
63000W        W28227   6.689  42.832  10.726
63001W        W28228  12.581  20.256  14.731
63002W        W28229  44.751   3.321  13.835
63003W        W28230  17.274  14.231  14.465
63004W        W28231  37.874  32.034   4.064
63005W        W28232   0.049  43.917  11.519
63006W        W28233  22.559  27.906   0.177
63007W        W28234  43.321  30.441  14.996
63008W        W28235  34.569  18.599  14.794
63009W        W28236   4.223  29.381   4.526
63010W        W28237  20.495  34.586  10.997
63011W        W28238  34.367  15.580  12.161
63012W        W28239  28.686   7.887   0.388
63013W        W28240  29.441  35.965  12.005
63014W        W28241  41.919  17.109  10.901
63015W        W28242  24.714  41.706  12.408
63016W        W28243  18.779  11.138  11.100
63017W        W28244  18.496  37.107   4.375
63018W        W28245  29.704   8.225   1.234
63019W        W28246   2.315  15.605  11.630
63020W        W28247  17.373  44.503  14.989
63021W        W28248  18.269  36.774  14.793
63022W        W28249  25.839   8.383  12.511
63023W        W28250  12.938  16.633   4.388
63024W        W28251  44.403   7.882  13.422
63025W        W28252  19.790  13.284   0.273
63026W        W28253  29.086  32.290   2.726
63027W        W28254  10.932  11.186  14.253
63028W        W28255  44.541  41.469  14.388
63029W        W28256  21.120   4.860  10.260
63030W        W28257  32.508  33.036  12.390
63031W        W28258   4.357   7.064  13.554
63032W        W28259   6.834  19.402   3.283
63033W        W28260  44.094  34.585  11.076
63034W        W28261  18.989  18.525   1.374
63035W        W28262  37.191  29.222  13.840
63036W        W28263  17.837  26.752   1.301
63037W        W28264  33.133  35.789   4.164
63038W        W28265   1.313   8.824  11.857
63039W        W28266   8.338  28.760  11.922
63040W        W28267  13.493  42.613   0.315
63041W        W28268   7.693  30.664  14.236
63042W        W28269  16.423  22.011  13.756
63043W        W28270  29.503  34.054  10.872
63044W        W28271  32.364  30.526  13.855
63045W        W28272  22.638  14.765   0.727
63046W        W28273  15.810  41.055  12.853
63047W        W28274   9.868  41.496  14.898
63048W        W28275  37.333  31.103  11.234
63049W        W28276  22.114  41.373   1.788
63050W        W28277  15.135  33.538  12.740
63051W        W28278  16.341  40.716   2.823
63052W        W28279   2.158  33.911  14.339
63053W        W28280  13.882  38.560  13.974
63054W        W28281  13.543   4.715  11.351
63055W        W28282  13.734  35.853   0.969
63056W        W28283  15.688  18.539   1.191
63057W        W28284  34.446  38.909  11.175
63058W        W28285  15.295  41.504   1.351
63059W        W28286  10.843  43.370   0.164
63060W        W28287  31.935  22.617   2.376
63061W        W28288  39.827  42.995   3.772
63062W        W28289  12.972  12.354   2.664
63063W        W28290  20.711   4.634   1.316
63064W        W28291   8.286  38.835  11.115
63065W        W28292  21.195  19.255  13.832
63066W        W28293  21.208   9.135  11.100
63067W        W28294  44.939   1.979   2.396
63068W        W28295  15.149  21.993  10.716
63069W        W28296  12.797   1.297  13.918
63070W        W28297  16.826  34.039  14.541
63071W        W28298  28.190   7.743   0.341
63072W        W28299  11.170  36.707   4.107
63073W        W28300  35.664  37.869   4.371
63074W        W28301  21.867  27.698  14.141
63075W        W28302  42.425   6.992   1.697
63076W        W28303   0.323  21.983  13.921
63077W        W28304  26.123  11.791  11.773
63078W        W28305  36.842  12.082   3.606
63079W        W28306   9.618  19.654   1.274
63080W        W28307  19.576  11.783   3.696
63081W        W28308   1.518  37.810   0.249
63082W        W28309  32.179  28.623   4.114
63083W        W28310  12.910  34.321  13.725
63084W        W28311  18.964  29.741  14.335
63085W        W28312  32.732  20.278  13.391
63086W        W28313  27.331  21.246   1.258
63087W        W28314   9.797   4.184  11.647
63088W        W28315   2.877  38.455   3.824
63089W        W28316  15.257   9.980   1.235
63090W        W28317   1.133  30.427   5.086
63091W        W28318   2.506  37.218  14.097
63092W        W28319  16.062   6.917  13.494
63093W        W28320  22.729   3.440  13.525
63094W        W28321  38.882  22.576   2.643
63095W        W28322   8.632  21.502   1.022
63096W        W28323  16.824   6.111   0.285
63097W        W28324  37.485   1.264   2.965
63098W        W28325  20.451  12.705  12.514
63099W        W28326  25.440  15.885  14.942
63100W        W28327  14.645  18.492   4.910
63101W        W28328  36.114  16.257  11.969
63102W        W28329   1.738   2.935  12.023
63103W        W28330  23.577  43.532  11.120
63104W        W28331   9.654  27.009  11.423
63105W        W28332  14.977  44.935   4.659
63106W        W28333  40.964  39.560  12.611
63107W        W28334   3.783   6.268   3.922
63108W        W28335  17.683  43.283   0.402
63109W        W28336  32.836   5.982  11.092
63110W        W28337  34.947  15.475  10.765
63111W        W28338  31.130  15.080  14.302
63112W        W28339  33.487  11.584  13.054
63113W        W28340  41.323  32.681   4.220
63114W        W28341  42.431   5.686  12.233
63115W        W28342  44.255   3.876  10.724
63116W        W28343  44.347  21.654   3.578
63117W        W28344  43.880  22.465   4.213
63118W        W28345  11.927   4.289  13.359
63119W        W28346  23.631   8.141  14.463
63120W        W28347  21.367  36.959   2.349
63121W        W28348  17.274   7.587  14.199
63122W        W28349  18.548  23.600  13.938
63123W        W28350  32.179  24.855  13.509
63124W        W28351  10.151   9.683  11.553
63125W        W28352  14.171  37.071   4.916
63126W        W28353  29.144  24.853   0.396
63127W        W28354  32.880  21.008  12.923
63128W        W28355  11.107   2.914  12.042
63129W        W28356   5.217   9.820  10.567
63130W        W28357  24.193  40.626   1.884
63131W        W28358  40.771  25.628   2.386
63132W        W28359  21.399  14.048  13.446
63133W        W28360  39.566   5.344  14.822
63134W        W28361  29.911   9.883   0.874
63135W        W28362  35.903   1.266   3.274
63136W        W28363  28.933   1.982   1.308
63137W        W28364  40.553  40.854   1.919
63138W        W28365  27.423   7.349  12.411
63139W        W28366  16.535  11.436   3.267
63140W        W28367  27.371  29.766   3.775
63141W        W28368  15.176  36.447  13.643
63142W        W28369   8.425  31.953  10.543
63143W        W28370  33.437  43.462   2.739
63144W        W28371  37.293  29.188  12.919
63145W        W28372  42.887  10.884   4.547
63146W        W28373  39.057   0.832  13.796
63147W        W28374  26.055  34.321  12.593
63148W        W28375  21.035  22.782  12.006
63149W        W28376  42.505  36.915  13.562
63150W        W28377  41.471  42.220   3.197
63151W        W28378  22.292   9.819  13.838
63152W        W28379  13.312  13.085   2.151
63153W        W28380   1.003  24.178  12.553
63154W        W28381  36.935   1.662   0.224
63155W        W28382  36.515  43.482   1.252
63156W        W28383  38.727  35.307  14.741
63157W        W28384   0.760  32.189  13.012
63158W        W28385   5.837   9.173   3.865
63159W        W28386  25.348  44.687  11.945
63160W        W28387   7.881  21.178   4.819
63161W        W28388   4.247  11.353  12.494
63162W        W28389  33.843  27.216   1.242
63163W        W28390  23.763   1.594   3.501
63164W        W28391  18.066  42.151   3.717
63165W        W28392   6.334   4.377   2.902
63166W        W28393  40.643  24.942  14.949
63167W        W28394  34.882  33.194   3.421
63168W        W28395   8.859  43.808   3.693
63169W        W28396  11.861  21.248  14.554
63170W        W28397   2.797  22.633   2.201
63171W        W28398  42.743  36.761  11.295
63172W        W28399  34.880   6.948   3.716
63173W        W28400  29.090  30.196  12.381
63174W        W28401  41.004   1.946   0.447
63175W        W28402   2.546  17.736   3.144
63176W        W28403  15.239  36.511  12.128
63177W        W28404  25.032   5.480   0.178
63178W        W28405   5.062  14.133   0.532
63179W        W28406  43.822  39.127   4.960
63180W        W28407  40.009   6.381  10.768
63181W        W28408  23.019   5.867   4.179
63182W        W28409  16.053  18.753   4.232
63183W        W28410  10.410  37.952  14.831
63184W        W28411   7.420   0.950  13.778
63185W        W28412  35.244  44.535  13.287
63186W        W28413   2.592  23.848  11.866
63187W        W28414  33.212  41.022   3.284
63188W        W28415  14.368  30.930   3.893
63189W        W28416   5.859  10.821   4.530
63190W        W28417  28.687  22.094  10.821
63191W        W28418  17.167  31.360  12.731
63192W        W28419  26.464  12.244  13.382
63193W        W28420  44.608  13.303   4.693
63194W        W28421  12.217  24.670  14.284
63195W        W28422  22.752   6.788   2.932
63196W        W28423  26.930  37.418   4.594
63197W        W28424  15.225   8.709   0.814
63198W        W28425   2.539  35.914  14.076
63199W        W28426  10.276  42.488   5.098
63200W        W28427  25.931  33.972   0.251
63201W        W28428  42.739   6.942  11.071
63202W        W28429  33.212  32.330   2.836
63203W        W28430  37.644  42.506   1.447
63204W        W28431  27.466  34.886   4.158
63205W        W28432  23.208   0.322   1.679
63206W        W28433  22.049  14.940   3.266
63207W        W28434  21.041  20.995   2.555
63208W        W28435   4.888  38.270   0.749
63209W        W28436  35.972   4.488   1.629
63210W        W28437  34.449  29.649   1.770
63211W        W28438   6.190   6.010  10.764
63212W        W28439  42.098   8.123  14.703
63213W        W28440  33.522  18.190  14.212
63214W        W28441  36.657  27.165   4.149
63215W        W28442  42.277  34.048  12.161
63216W        W28443  33.780  37.630  14.094
63217W        W28444  33.192  20.229   4.416
63218W        W28445   4.178  12.065  13.818
63219W        W28446   1.861  40.995  13.449
63220W        W28447   4.575   4.935  11.299
63221W        W28448  40.744  29.149  12.618
63222W        W28449  32.041  30.954   2.202
63223W        W28450   3.986  32.915   3.601
63224W        W28451  44.825  22.545  12.203
63225W        W28452  39.898  34.569  11.020
63226W        W28453  24.076  23.599  13.178
63227W        W28454  42.830  34.474   4.018
63228W        W28455  35.071  20.797  14.420
63229W        W28456  19.254  11.679   0.688
63230W        W28457  43.476  27.221  14.719
63231W        W28458   8.344  16.333  10.319
63232W        W28459  24.592  11.433   1.379
63233W        W28460   9.229  32.112   2.350
63234W        W28461  21.038  36.035  10.735
63235W        W28462  40.999  23.092   4.771
63236W        W28463  35.425  18.034  13.604
63237W        W28464  11.013  10.876   4.041
63238W        W28465   6.861  37.397  12.471
63239W        W28466  13.091   9.322   1.208
63240W        W28467  15.272  34.372   1.066
63241W        W28468   2.359  23.914  12.349
63242W        W28469  32.451  18.747   2.350
63243W        W28470   2.918  43.912  11.266
63244W        W28471   2.348  13.162   2.170
63245W        W28472   9.596  17.734   3.638
63246W        W28473  10.285  39.591  13.061
63247W        W28474  19.531  29.990  12.955
63248W        W28475  11.619  12.881   2.694
63249W        W28476  43.522  33.079   0.484
63250W        W28477  37.107   7.688   0.289
63251W        W28478   9.686  43.391  13.865
63252W        W28479   7.857  42.399   0.129
63253W        W28480  15.111  41.821   2.303
63254W        W28481  33.409  20.309  14.349
63255W        W28482  28.707  19.315   0.322
63256W        W28483  36.073  41.278  11.709
63257W        W28484  25.683  31.538  11.566
63258W        W28485  18.219   4.460  10.953
63259W        W28486   5.020  31.517   1.239
63260W        W28487  39.847  42.703  12.086
63261W        W28488  17.170  36.575   4.308
63262W        W28489  41.041  35.995  13.434
63263W        W28490  29.873  21.397  13.639
63264W        W28491  10.084  16.428  12.511
63265W        W28492  32.602  35.345   4.559
63266W        W28493  15.621   2.255   3.729
63267W        W28494  31.073  20.776   4.173
63268W        W28495  38.540  17.322  12.463
63269W        W28496  23.932  41.999  12.060
63270W        W28497   5.362  30.146  12.618
63271W        W28498  15.180  42.584  13.182
63272W        W28499   1.381  22.702   1.208
63273W        W28500  28.514  44.526  14.440
63274W        W28501  36.047   0.211   1.740
63275W        W28502  25.821  20.201   4.634
63276W        W28503  39.475  13.903  10.628
63277W        W28504  43.239  25.770   0.241
63278W        W28505  26.464   8.884  13.953
63279W        W28506   1.270  10.873  14.481
63280W        W28507  24.420  38.354  14.876
63281W        W28508  20.333  37.744   1.988
63282W        W28509  44.950  28.517  11.993
63283W        W28510   2.213   2.242   3.933
63284W        W28511  13.106  15.605  13.559
63285W        W28512   1.822  23.845  12.120
63286W        W28513   2.972  23.091  10.628
63287W        W28514  11.193   9.130  13.975
63288W        W28515  34.020  22.149   2.877
63289W        W28516  28.480  21.475  13.505
63290W        W28517  33.073  29.106   1.571
63291W        W28518  28.557  35.967   0.470
63292W        W28519  32.998  39.873   0.534
63293W        W28520  19.233  31.465   3.075
63294W        W28521   5.920  23.467   4.180
63295W        W28522  29.269   2.027   1.739
63296W        W28523  23.046  19.550   2.632
63297W        W28524   8.929  26.383  12.836
63298W        W28525  10.559  39.915  10.531
63299W        W28526  20.235  29.478   2.874
63300W        W28527  40.583  28.444  14.952
63301W        W28528   6.774  41.258   0.227
63302W        W28529   8.459  29.137  10.926
63303W        W28530  23.476  26.446  10.701
63304W        W28531   6.894   1.145   0.922
63305W        W28532   7.654  36.013   1.388
63306W        W28533  37.298  33.067   3.851
63307W        W28534  35.114  34.618  10.661
63308W        W28535   5.061  42.716  13.422
63309W        W28536   7.580  43.749  11.478
63310W        W28537  21.191  44.599  12.139
63311W        W28538   3.920  42.189   2.371
63312W        W28539   8.165   3.445   3.780
63313W        W28540  34.638  21.446  11.430
63314W        W28541  20.063  20.601  12.874
63315W        W28542  38.722  35.454  13.403
63316W        W28543  42.396  13.781   2.783
63317W        W28544  40.908  11.388  14.031
63318W        W28545  11.057   6.709  10.643
63319W        W28546   4.467   6.143  13.835
63320W        W28547  37.509  26.325   1.360
63321W        W28548   1.928  16.659  11.294
63322W        W28549  26.926  34.265  14.028
63323W        W28550   9.743   5.901  12.898
63324W        W28551  13.099  26.592   1.247
63325W        W28552  37.551  17.516  12.006
63326W        W28553  23.497  31.366   0.742
63327W        W28554  30.043  40.591  14.972
63328W        W28555  22.045  42.317  14.354
63329W        W28556  11.810  39.325  11.036
63330W        W28557  12.903  37.261  14.805
63331W        W28558  29.620  16.101  14.129
63332W        W28559  34.082  28.342  13.024
63333W        W28560  33.189   1.306   2.126
63334W        W28561  32.497  13.404  12.142
63335W        W28562   4.328   8.714   4.607
63336W        W28563  21.442  19.176  12.496
63337W        W28564   6.066  33.773  10.640
63338W        W28565  40.136  41.217  12.139
63339W        W28566  25.095  24.797  14.575
63340W        W28567  25.146  24.533  12.347
63341W        W28568  29.753  14.158   1.364
63342W        W28569  20.837  40.856   1.234
63343W        W28570  32.877   2.268  11.122
63344W        W28571  34.216  14.431   9.931
63345W        W28572   6.721  36.265  13.015
63346W        W28573  13.806   2.381  10.974
63347W        W28574  26.072  31.395   0.987
63348W        W28575  33.822  20.025   2.296
63349W        W28576  42.295  33.475  14.296
63350W        W28577  41.841  18.658   4.547
63351W        W28578  38.014  40.295  13.058
63352W        W28579  36.663  28.772  11.933
63353W        W28580   8.907  30.670   0.791
63354W        W28581  15.281  14.545  14.381
63355W        W28582  30.702   7.798   2.717
63356W        W28583  16.917  21.277  14.296
63357W        W28584  28.065   8.658  12.647
63358W        W28585  42.878  12.886   4.503
63359W        W28586  41.766   1.196  11.464
63360W        W28587   0.399  26.612  12.188
63361W        W28588   8.291  30.498   4.689
63362W        W28589  26.571  21.150  12.670
63363W        W28590  23.573  36.439   0.239
63364W        W28591  39.939  17.774   1.852
63365W        W28592  42.273  25.221  12.250
63366W        W28593  16.036  38.542   4.526
63367W        W28594  12.117  25.171   1.737
63368W        W28595  18.636  23.596   3.385
63369W        W28596  33.152  38.607   0.075
63370W        W28597  12.902  40.223   0.909
63371W        W28598   3.780  31.969   4.983
63372W        W28599  17.334  41.228   0.311
63373W        W28600   3.271  32.798  14.564
63374W        W28601   7.679  21.632   0.270
63375W        W28602  20.112   5.776  10.744
63376W        W28603  28.455  12.766   1.897
63377W        W28604  22.066  28.786   2.465
63378W        W28605  18.628  20.643   3.649
63379W        W28606   0.727   9.917  14.036
63380W        W28607  26.142  21.691   0.210
63381W        W28608  40.071  25.572   2.693
63382W        W28609  42.389  17.748   0.225
63383W        W28610  40.956  13.519   2.436
63384W        W28611   0.221  31.029  12.042
63385W        W28612  16.172  22.674  10.730
63386W        W28613  22.829  17.089  11.133
63387W        W28614  17.635  41.493   1.803
63388W        W28615   4.768   7.395   4.305
63389W        W28616  37.310  27.680   1.361
63390W        W28617  26.514  36.373   3.762
63391W        W28618  17.849  41.735  12.916
63392W        W28619   7.372   1.921  14.148
63393W        W28620  27.709   2.562  14.091
63394W        W28621  33.734  18.783   2.957
63395W        W28622  44.702  13.108   1.799
63396W        W28623   5.923  14.161   0.274
63397W        W28624  37.408  43.526  11.198
63398W        W28625   9.620  17.905   2.750
63399W        W28626  41.914  33.532   1.201
63400W        W28627   8.390  15.376  10.767
63401W        W28628  30.958  43.924  10.668
63402W        W28629  33.343   8.692   3.544
63403W        W28630   2.416   8.601   1.882
63404W        W28631  28.669  31.670  11.610
63405W        W28632  11.809  31.430   0.513
63406W        W28633   7.639  16.567   4.044
63407W        W28634  11.487  39.409   0.529
63408W        W28635  39.530  36.483  12.018
63409W        W28636  34.875   6.626   0.299
63410W        W28637  11.273   8.393  11.759
63411W        W28638   0.648  41.261   1.596
63412W        W28639  15.128  34.022   2.181
63413W        W28640  16.465   3.841   1.592
63414W        W28641  28.900  14.151   2.391
63415W        W28642  31.415  29.965   1.839
63416W        W28643  13.373  39.437  10.517
63417W        W28644  38.359  39.253  14.986
63418W        W28645  17.787  14.216  13.285
63419W        W28646  30.406  11.085  10.625
63420W        W28647  23.110  38.776  14.835
63421W        W28648   6.838  21.676   1.619
63422W        W28649  10.866  10.138  12.025
63423W        W28650  25.054  17.197  12.624
63424W        W28651  15.193  12.775   2.894
63425W        W28652  19.534   0.350   4.361
63426W        W28653  42.053  31.052  10.817
63427W        W28654   7.343  38.416   2.131
63428W        W28655  22.529  28.228  11.172
63429W        W28656  26.481   4.410   1.397
63430W        W28657   4.236  40.780  13.065
63431W        W28658   2.456  14.189   5.056
63432W        W28659  42.196  14.131   4.115
63433W        W28660  13.703  15.795   2.240
63434W        W28661  23.768  21.561  13.397
63435W        W28662   5.356   4.372   1.347
63436W        W28663   7.223  37.444   3.606
63437W        W28664   9.175  11.027   1.159
63438W        W28665  14.929   7.129   1.298
63439W        W28666   6.840   6.846   0.539
63440W        W28667  23.458  10.874   1.301
63441W        W28668  38.831  24.404  10.699
63442W        W28669  37.767  43.378   3.616
63443W        W28670  33.542  39.303  11.552
63444W        W28671  19.773  28.961   1.355
63445W        W28672  33.687   7.860   0.317
63446W        W28673  27.016   6.467   4.615
63447W        W28674  28.687  14.098   4.217
63448W        W28675  24.602   1.080  11.498
63449W        W28676  27.494  33.875   4.795
63450W        W28677  24.546  37.548  14.749
63451W        W28678  39.447  42.423   1.459
63452W        W28679  37.033  21.267   2.313
63453W        W28680  31.116   0.251  12.003
63454W        W28681  15.100  19.707   3.129
63455W        W28682  36.972   6.132   0.443
63456W        W28683  20.572  39.906   3.907
63457W        W28684  27.005  20.164   0.465
63458W        W28685  43.326   5.263   3.117
63459W        W28686  36.966   8.695   0.193
63460W        W28687  32.345   2.805  12.877
63461W        W28688  23.165  44.404   4.964
63462W        W28689  24.063  21.206   2.212
63463W        W28690  22.749  36.322   3.685
63464W        W28691   6.170  12.173   4.054
63465W        W28692  23.038  13.277  14.383
63466W        W28693  17.214  16.346  12.483
63467W        W28694  28.137  28.181   0.959
63468W        W28695   4.101  26.879  14.746
63469W        W28696  26.742   2.774  11.129
63470W        W28697  15.748  25.752  14.428
63471W        W28698  37.903   9.891   4.345
63472W        W28699   3.997  16.204  13.409
63473W        W28700   2.768   5.864   1.717
63474W        W28701   5.422  41.537   2.361
63475W        W28702  15.128   7.919  14.502
63476W        W28703  15.794  10.144   4.210
63477W        W28704  34.354  33.665  13.908
63478W        W28705  31.103   8.738   4.747
63479W        W28706  33.994  27.272   2.530
63480W        W28707  39.941   9.372  14.735
63481W        W28708  14.789   5.030   3.682
63482W        W28709  43.330  12.369  11.926
63483W        W28710  11.868  40.559  11.503
63484W        W28711   4.922  19.282   2.678
63485W        W28712  35.019  43.537  14.232
63486W        W28713  33.060  14.041  13.496
63487W        W28714  26.829  34.450   4.571
63488W        W28715  40.289  21.049  13.913
63489W        W28716  16.052  31.955  13.888
63490W        W28717  24.532  14.649   0.337
63491W        W28718  37.123  12.706   2.782
63492W        W28719  34.951  35.568  13.453
63493W        W28720  40.323  40.374   1.970
63494W        W28721   2.093   3.491  13.968
63495W        W28722  20.979   8.820   3.207
63496W        W28723   0.741  24.076   4.106
63497W        W28724  21.073  28.354   0.509
63498W        W28725  41.711  35.491  13.894
63499W        W28726  26.023   8.685   3.360
63500W        W28727  33.046  12.456   2.426
63501W        W28728  17.322  21.044   0.019
63502W        W28729  24.445  21.272  13.949
63503W        W28730  32.220  29.559   0.766
63504W        W28731   0.794  32.690  14.607
63505W        W28732  41.125   2.415   0.231
63506W        W28733  17.673  43.300  10.340
63507W        W28734  15.787   7.562  11.322
63508W        W28735  40.412   0.307   1.303
63509W        W28736  34.512  36.149  11.557
63510W        W28737  29.826  20.319  11.578
63511W        W28738  24.776   4.808  13.527
63512W        W28739  28.588  12.518   2.696
63513W        W28740   9.689  19.258  14.489
63514W        W28741  34.778  27.058  12.820
63515W        W28742  15.020   3.798  12.585
63516W        W28743  40.951  16.046   3.159
63517W        W28744  32.442  43.814   2.964
63518W        W28745  24.150   2.272   3.091
63519W        W28746  30.489   5.636   1.256
63520W        W28747  24.341  30.456  13.780
63521W        W28748  17.056  12.720  13.141
63522W        W28749  24.443   4.287   3.389
63523W        W28750  33.960  34.437   4.980
63524W        W28751  39.496  13.405   0.523
63525W        W28752  30.369  30.437  11.575
63526W        W28753  39.089  39.620  13.788
63527W        W28754  21.890  29.285   1.508
63528W        W28755  32.159  18.300  12.889
63529W        W28756  43.570   4.842   3.306
63530W        W28757  29.607   5.320  13.935
63531W        W28758  12.754  17.597   3.805
63532W        W28759  10.129  34.524   1.412
63533W        W28760  36.948  30.196  12.376
63534W        W28761  35.491  24.492  10.708
63535W        W28762  42.836  28.931   2.904
63536W        W28763  26.501  43.467  13.853
63537W        W28764   4.823  23.065   4.644
63538W        W28765  26.775   2.984   0.095
63539W        W28766  28.180   6.392  12.931
63540W        W28767  44.687  12.649   3.018
63541W        W28768   6.599   4.044   1.467
63542W        W28769  37.803  31.708  12.277
63543W        W28770  39.614  35.095   3.684
63544W        W28771  28.044  37.660   4.081
63545W        W28772  13.124  21.210  12.855
63546W        W28773  27.432  21.546  10.649
63547W        W28774  14.476   8.688  13.485
63548W        W28775  12.114  38.823   1.213
63549W        W28776  35.591  43.797   0.838
63550W        W28777  17.735   8.437  14.380
63551W        W28778  31.056  43.979   3.771
63552W        W28779  26.879  12.202   0.750
63553W        W28780  14.641  40.159   2.221
63554W        W28781  38.705   7.657  14.377
63555W        W28782  15.041  37.021   3.893
63556W        W28783   6.415  12.079  12.591
63557W        W28784  28.367  25.712   4.550
63558W        W28785  30.242  21.801  12.422
63559W        W28786  26.135   2.531   2.754
63560W        W28787  17.558  42.312  11.959
63561W        W28788   8.232  18.272   1.824
63562W        W28789  38.883  34.548  11.977
63563W        W28790  33.841  12.193  10.518
63564W        W28791  29.194  43.142  14.737
63565W        W28792  12.790   7.368   2.746
63566W        W28793  19.613  29.152   3.547
63567W        W28794  36.542  31.141  11.711
63568W        W28795  22.309  19.846   1.344
63569W        W28796   9.834   4.380  11.174
63570W        W28797  40.919  23.799  13.585
63571W        W28798  22.156  40.725  13.460
63572W        W28799  39.301  14.196   9.838
63573W        W28800  25.526   7.892   5.038
63574W        W28801   9.574  27.024  14.141
63575W        W28802  25.173  10.712   1.798
63576W        W28803   9.509  26.885   1.854
63577W        W28804  20.762  34.663   2.281
63578W        W28805  18.633  38.423   4.133
63579W        W28806  28.054  12.675  14.165
63580W        W28807   2.032  10.632  11.864
63581W        W28808   2.438  18.576  14.062
63582W        W28809   1.161   3.797  12.870
63583W        W28810  35.528  32.424   3.551
63584W        W28811  38.390  30.235   4.571
63585W        W28812  15.105  35.087   3.616
63586W        W28813  12.324  24.669   0.264
63587W        W28814  10.101   8.729  10.733
63588W        W28815  26.021  13.670   2.085
63589W        W28816  12.964  19.331  13.573
63590W        W28817  31.890   6.203   1.872
63591W        W28818  18.600  12.768   2.367
63592W        W28819   9.849   5.939  14.814
63593W        W28820  15.328   1.473   0.280
63594W        W28821   8.350  15.098   3.199
63595W        W28822  18.470  31.718  13.976
63596W        W28823  10.367  19.675   0.209
63597W        W28824   8.517  19.759   0.493
63598W        W28825  34.416  43.594  12.686
63599W        W28826  20.051  14.503  14.841
63600W        W28827  35.876  31.357  13.990
63601W        W28828   1.184  21.565   1.321
63602W        W28829   2.463  44.224   1.829
63603W        W28830  17.041   2.495   0.884
63604W        W28831  44.226  38.097   3.640
63605W        W28832  16.345  22.991   4.283
63606W        W28833   1.770   0.658  13.333
63607W        W28834  10.032  10.444   3.738
63608W        W28835   1.988  23.548  10.252
63609W        W28836  20.145  42.581  10.703
63610W        W28837  43.584  26.471   3.041
63611W        W28838  13.189  33.891  13.261
63612W        W28839  17.671  25.697   2.025
63613W        W28840   3.446  22.267   0.778
63614W        W28841  16.656  37.136   3.815
63615W        W28842   8.339  21.792  13.522
63616W        W28843  34.453  35.821  12.446
63617W        W28844  15.353  15.560   2.447
63618W        W28845  12.126  36.759   4.132
63619W        W28846   7.247  20.470   2.698
63620W        W28847  12.449  26.443   4.317
63621W        W28848   5.909  12.271   2.128
63622W        W28849  34.898  27.445  10.681
63623W        W28850  10.765  28.067   3.723
63624W        W28851  36.025  10.210   3.602
63625W        W28852  14.047   7.360   4.702
63626W        W28853   4.043  28.940   1.693
63627W        W28854   0.160  30.124   1.218
63628W        W28855  32.429  43.422  12.190
63629W        W28856  41.550  21.736  11.623
63630W        W28857  17.197  10.895   2.656
63631W        W28858  44.745  12.045  13.925
63632W        W28859  17.229  16.002   4.567
63633W        W28860   2.791  33.933   2.686
63634W        W28861   6.398  33.491  14.966
63635W        W28862   5.438  32.973  10.768
63636W        W28863  29.138  31.850   1.368
63637W        W28864   6.265  13.072  10.896
63638W        W28865  33.986  14.380   2.626
63639W        W28866  43.836   4.758  13.435
63640W        W28867  37.179  15.141  12.095
63641W        W28868  36.336  11.045  10.662
63642W        W28869  42.645  18.445   4.116
63643W        W28870  43.408  32.534  12.160
63644W        W28871  18.599   3.787   2.389
63645W        W28872  28.151  29.108  11.626
63646W        W28873   7.653   5.535  12.896
63647W        W28874  22.107  17.745  11.122
63648W        W28875  21.710   1.973  13.055
63649W        W28876   4.676   7.432   3.748
63650W        W28877  30.308  27.400   3.388
63651W        W28878  34.805  23.465   2.670
63652W        W28879   5.028  27.169   1.735
63653W        W28880   0.308  26.099  11.889
63654W        W28881  43.401   8.797  11.293
63655W        W28882  30.047  30.572   2.228
63656W        W28883   5.344   9.781   2.243
63657W        W28884   4.946  25.559  10.679
63658W        W28885  40.391  36.812   3.874
63659W        W28886  16.671  16.035  13.141
63660W        W28887  35.815   7.575  11.647
63661W        W28888  42.794  29.130  12.218
63662W        W28889   0.993   8.816   4.427
63663W        W28890  22.147  36.949  13.069
63664W        W28891  43.734  44.973  10.562
63665W        W28892  16.851  36.858  14.969
63666W        W28893   2.672   2.443   2.489
63667W        W28894  10.629  22.531  11.107
63668W        W28895  23.969  16.269   2.361
63669W        W28896   7.569  38.916   2.677
63670W        W28897  35.019  25.415  11.931
63671W        W28898  37.528   7.404   1.645
63672W        W28899  23.067  34.448  12.204
63673W        W28900  36.537  26.430  14.815
63674W        W28901  15.423  31.563   4.643
63675W        W28902   9.650   1.364  13.497
63676W        W28903  38.658  18.980   2.372
63677W        W28904  22.384  18.466  12.966
63678W        W28905  30.184   0.759   0.815
63679W        W28906   3.453  31.141   0.327
63680W        W28907   6.373  40.337   4.659
63681W        W28908  11.283  30.958  12.005
63682W        W28909  34.986   1.812   3.766
63683W        W28910  26.240  11.241  12.474
63684W        W28911   4.358   4.601   1.039
63685W        W28912  20.468   5.726  11.560
63686W        W28913   4.528  37.913  13.481
63687W        W28914   4.828   7.389   1.368
63688W        W28915  10.764   9.668   3.220
63689W        W28916  42.015  19.251  14.897
63690W        W28917  14.289   1.454  12.065
63691W        W28918  30.426   0.028   4.048
63692W        W28919  19.436  42.783   0.874
63693W        W28920  23.551  38.804   1.678
63694W        W28921  26.395  40.363   3.218
63695W        W28922  22.019   0.438  12.934
63696W        W28923  10.816   6.925   2.736
63697W        W28924  15.537  15.887  13.311
63698W        W28925  22.872  29.808  14.044
63699W        W28926   9.138   3.812  13.121
63700W        W28927  42.539  26.593  12.564
63701W        W28928  44.107   2.552  14.868
63702W        W28929  27.444  22.183   1.225
63703W        W28930  37.941  22.562   4.498
63704W        W28931  35.979  26.481   4.949
63705W        W28932  20.228  10.740   2.742
63706W        W28933  21.173  21.771   4.905
63707W        W28934  20.691  15.349   0.347
63708W        W28935  23.251  13.231   4.493
63709W        W28936  24.722  44.008   4.479
63710W        W28937  43.542  27.013   3.116
63711W        W28938   1.430   9.801  12.762
63712W        W28939  44.389  16.266   2.332
63713W        W28940  32.832  19.109  14.087
63714W        W28941  18.673  42.251  10.757
63715W        W28942  41.084  18.037  11.587
63716W        W28943  20.522   3.658   1.807
63717W        W28944  33.143  30.773  12.547
63718W        W28945  19.577  24.473   3.604
63719W        W28946  16.156  23.473   4.095
63720W        W28947   0.388  32.018  12.135
63721W        W28948  41.840   6.666  12.582
63722W        W28949  11.829  44.069  13.326
63723W        W28950   3.916  11.163  14.112
63724W        W28951  36.294  40.068  11.815
63725W        W28952  19.560   6.882  12.119
63726W        W28953  37.558  31.442  11.887
63727W        W28954   8.563   5.470   0.455
63728W        W28955  43.045  37.027  11.630
63729W        W28956  21.761   6.277  12.813
63730W        W28957  38.306  33.345   1.794
63731W        W28958  39.095  32.731   0.251
63732W        W28959   5.062  31.379  11.117
63733W        W28960  18.688   7.303  12.940
63734W        W28961  27.822   5.543  10.383
63735W        W28962  33.615  21.018  13.941
63736W        W28963  11.616   0.325  13.166
63737W        W28964  17.048  17.757  12.848
63738W        W28965  19.112  32.828  13.543
63739W        W28966  41.579  27.922  14.444
63740W        W28967  10.257  39.469  10.602
63741W        W28968  10.503  44.395   1.837
63742W        W28969  26.687  31.452   4.681
63743W        W28970   1.363  34.324  12.496
63744W        W28971  28.685  25.264  12.887
63745W        W28972  37.059   6.956  13.097
63746W        W28973  18.220   7.585  11.614
63747W        W28974  18.312  44.907   2.971
63748W        W28975  37.814  38.156   2.401
63749W        W28976  15.446  35.644   2.752
63750W        W28977  41.020  11.212   4.358
63751W        W28978  43.242   8.632   3.315
63752W        W28979   9.287  14.588   3.022
63753W        W28980  24.073  44.332   2.261
63754W        W28981   9.653  11.597   0.763
63755W        W28982   7.433  28.130   2.342
63756W        W28983  17.929  20.081   1.789
63757W        W28984   7.802  17.588  14.754
63758W        W28985  32.562   6.671   4.405
63759W        W28986  35.146   5.151   4.100
63760W        W28987  15.974  25.062  11.070
63761W        W28988   3.293  44.287   2.335
63762W        W28989   3.141  40.542   1.008
63763W        W28990   5.306  44.959  11.365
63764W        W28991  12.133  26.967  14.698
63765W        W28992  22.177  26.712   4.520
63766W        W28993   4.885  41.847   1.747
63767W        W28994  13.788  28.656   3.617
63768W        W28995   1.704  33.274  11.952
63769W        W28996   7.846  13.249  12.704
63770W        W28997   8.350   8.231   4.399
63771W        W28998  44.280  23.000   1.506
63772W        W28999   1.487  12.702   0.724
63773W        W29000  10.617  25.434   3.691
63774W        W29001  19.970  11.011   2.128
63775W        W29002  38.690  29.128  11.890
63776W        W29003  37.649  37.115   2.404
63777W        W29004   0.496  12.827  14.303
63778W        W29005  11.893  17.391  12.043
63779W        W29006  21.168  31.394   4.721
63780W        W29007   6.134  37.074   1.193
63781W        W29008   1.405  23.084   0.348
63782W        W29009  28.156  38.815   4.832
63783W        W29010  28.868  43.375  13.830
63784W        W29011   8.174  23.390   3.902
63785W        W29012  37.268  12.013   1.288
63786W        W29013  14.299   6.919   4.547
63787W        W29014  16.664   8.689   3.708
63788W        W29015   5.446  16.065   0.845
63789W        W29016  42.221  16.763  12.486
63790W        W29017  20.740   1.930  13.863
63791W        W29018  20.204  19.054   3.900
63792W        W29019  18.103   0.982   0.409
63793W        W29020   7.616  24.672   2.294
63794W        W29021  19.871  12.226   0.407
63795W        W29022   4.345  44.902   0.854
63796W        W29023  10.371  42.209   2.798
63797W        W29024  33.100   4.777  13.062
63798W        W29025  30.516  32.649   3.195
63799W        W29026   5.699   1.322   1.904
63800W        W29027  20.529  41.081   2.759
63801W        W29028  38.460  36.490   1.273
63802W        W29029   8.429  14.306   0.848
63803W        W29030   1.082   1.234   1.912
63804W        W29031  22.827  16.039  11.764
63805W        W29032  15.295  39.004  10.204
63806W        W29033   8.385  34.866  10.117
63807W        W29034  13.657  24.970   3.744
63808W        W29035  11.884  41.753   4.111
63809W        W29036   8.318  42.823   3.303
63810W        W29037  30.839  25.789   4.695
63811W        W29038  29.392  10.949   3.563
63812W        W29039   9.703  12.628   4.789
63813W        W29040  35.343  12.302   2.630
63814W        W29041  19.990   0.877  10.076
63815W        W29042   5.676  26.997   4.330
63816W        W29043   9.936  37.555   5.120
63817W        W29044  39.847  30.851   2.294
63818W        W29045  18.073   9.337   3.279
63819W        W29046   7.135  29.522   2.439
63820W        W29047  39.798  42.713   4.226
63821W        W29048  32.142   1.555  11.847
63822W        W29049  30.717  19.763  10.874
63823W        W29050  21.946  43.281   1.884
63824W        W29051  36.935  39.888   2.341
63825W        W29052   9.215  16.746  13.410
63826W        W29053   2.432  14.306   3.594
63827W        W29054   6.177  22.611  12.488
63828W        W29055  26.573   8.901  11.522
63829W        W29056  19.036  21.040   1.290
63830W        W29057  31.683   5.582  12.349
63831W        W29058  33.910  15.159   2.265
63832W        W29059  13.882  36.021   1.476
63833W        W29060   8.311  31.828   1.688
63834W        W29061   4.211   2.498   3.288
63835W        W29062   1.647  23.881   3.883
63836W        W29063  33.031  22.056  13.431
63837W        W29064  14.203  27.758  14.598
63838W        W29065   7.555  42.415   1.622
63839W        W29066  42.432  39.518  10.566
63840W        W29067  32.024  26.450  13.967
63841W        W29068  22.438   5.348   4.531
63842W        W29069  17.540   2.311   2.921
63843W        W29070  34.752   4.864  14.786
63844W        W29071  24.153   3.472  14.445
63845W        W29072  22.316   0.345  11.231
63846W        W29073  32.908  44.038   0.257
63847W        W29074  14.340  26.021  14.916
63848W        W29075  38.447  26.136  12.949
63849W        W29076   8.384  20.767   0.535
63850W        W29077   5.758  28.018   0.327
63851W        W29078  17.458   9.086   1.909
63852W        W29079  20.854  33.162  12.503
63853W        W29080  36.661  23.940   4.151
63854W        W29081  30.591  20.093   0.218
63855W        W29082  24.564  24.515   1.786
63856W        W29083  11.310  14.747   3.216
63857W        W29084   1.949  33.881  10.715
63858W        W29085  27.152  21.319  11.509
63859W        W29086  13.743   9.832   1.646
63860W        W29087   8.595  24.317  13.438
63861W        W29088  21.522  44.764  11.074
63862W        W29089  38.866  32.808  14.333
63863W        W29090  42.326  43.841  12.349
63864W        W29091   7.721  19.746  13.813
63865W        W29092  12.148  18.663   0.933
63866W        W29093  27.494  40.584   0.248
63867W        W29094  43.507  19.363  12.322
63868W        W29095  40.373   0.712   0.729
63869W        W29096   4.671  29.659   4.595
63870W        W29097  39.703  40.483   0.803
63871W        W29098  34.113  35.276   4.459
63872W        W29099  14.553  37.081   1.364
63873W        W29100  10.059  37.864   0.796
63874W        W29101  31.769   8.864  11.684
63875W        W29102   2.867  44.030  14.160
63876W        W29103  30.939  25.611  14.612
63877W        W29104  28.837  21.323  13.839
63878W        W29105   9.683  20.662   3.904
63879W        W29106  22.460  40.979  14.988
63880W        W29107  33.428   7.889   2.396
63881W        W29108  22.014  23.529   0.859
63882W        W29109   6.865  44.251   0.537
63883W        W29110  39.944  32.052   1.675
63884W        W29111  26.605  30.718   3.622
63885W        W29112  22.549  33.488  10.330
63886W        W29113   7.480   2.798  12.047
63887W        W29114  10.563  14.624   5.435
63888W        W29115  33.012  18.156   0.302
63889W        W29116   8.206   7.198  14.732
63890W        W29117  42.711  39.986   3.877
63891W        W29118  22.086   4.938  14.482
63892W        W29119  39.333   9.307  13.579
63893W        W29120  23.252  23.935  14.864
63894W        W29121  26.561  44.636  11.879
63895W        W29122  31.962  22.208   3.185
63896W        W29123  30.733  26.134   1.273
63897W        W29124  23.241   4.396  12.095
63898W        W29125  26.042  31.060  13.893
63899W        W29126  29.319  15.273  11.239
63900W        W29127  44.022  18.665   4.879
63901W        W29128   3.987  15.281   1.306
63902W        W29129  35.044  34.318   2.703
63903W        W29130   5.095   7.762  14.278
63904W        W29131   4.520  23.537   0.095
63905W        W29132  33.989  37.397   3.086
63906W        W29133  25.462  24.738  10.757
63907W        W29134  39.827  25.188   4.053
63908W        W29135  23.007  28.922  12.606
63909W        W29136  44.859  14.066  14.853
63910W        W29137  34.088  37.565   0.353
63911W        W29138  21.437   3.997  13.003
63912W        W29139   0.690   7.477   3.378
63913W        W29140  16.808  16.548  13.087
63914W        W29141  20.572  29.505   4.526
63915W        W29142   1.347   9.308   4.897
63916W        W29143  41.820  14.653   1.720
63917W        W29144  21.684  20.101   0.394
63918W        W29145  24.887  25.898   0.330
63919W        W29146  15.968  25.801  13.167
63920W        W29147   4.383  19.265  14.387
63921W        W29148  32.367  36.119   0.800
63922W        W29149  10.306  12.377   3.359
63923W        W29150  16.660   6.883  14.744
63924W        W29151  17.831  24.691  14.751
63925W        W29152  35.500   3.970   2.383
63926W        W29153  32.517  19.546   0.311
63927W        W29154  30.628  31.707  14.214
63928W        W29155   1.088   2.634   5.249
63929W        W29156   4.800  12.849  14.206
63930W        W29157  18.153  23.392   3.228
63931W        W29158  40.041  42.453  11.703
63932W        W29159  39.457   3.612  11.572
63933W        W29160  22.995   5.694  11.629
63934W        W29161   3.965   5.066   2.831
63935W        W29162   1.984   8.108   0.605
63936W        W29163  44.933  23.607   9.805
63937W        W29164  33.986  43.980   1.414
63938W        W29165  35.146  10.825   2.289
63939W        W29166   1.677   8.792   2.479
63940W        W29167  19.977   5.882   2.160
63941W        W29168  11.481  38.880   2.828
63942W        W29169   9.861  19.724   0.384
63943W        W29170  43.839   7.354  10.485
63944W        W29171  34.568   2.741  11.536
63945W        W29172  44.515   7.779  10.750
63946W        W29173  41.291  23.827  11.126
63947W        W29174  22.537  15.421  14.511
63948W        W29175   4.191  33.111  11.163
63949W        W29176  11.068  19.609  11.608
63950W        W29177  26.007  44.914  12.508
63951W        W29178  38.944  42.296   1.373
63952W        W29179  22.485  17.278  10.149
63953W        W29180  27.332  19.159  13.560
63954W        W29181  17.905   7.523   4.476
63955W        W29182  19.477  40.527   1.370
63956W        W29183   3.809  37.673   0.472
63957W        W29184  36.492  44.697  10.866
63958W        W29185   0.956   0.757   2.205
63959W        W29186  24.056  19.290  13.500
63960W        W29187   4.530  38.103   3.267
63961W        W29188  30.928  40.064   2.394
63962W        W29189   6.300  14.372  14.390
63963W        W29190   2.696  39.591  11.964
63964W        W29191  27.037  34.790  12.585
63965W        W29192  25.990  16.301   3.753
63966W        W29193   2.373  41.244   2.391
63967W        W29194  31.998   4.791   2.965
63968W        W29195  14.675   2.892   4.152
63969W        W29196  39.996   9.644   0.212
63970W        W29197  29.040   1.532  11.606
63971W        W29198  30.875  43.365  10.670
63972W        W29199  32.663  16.803   4.481
63973W        W29200  24.484  28.129   0.895
63974W        W29201  37.435  17.338   3.151
63975W        W29202  33.741  21.599   3.352
63976W        W29203  19.603   2.947  13.074
63977W        W29204  28.182  31.060   0.943
63978W        W29205  13.909  22.945  11.498
63979W        W29206  37.455  39.081   1.537
63980W        W29207  12.753   3.154   4.609
63981W        W29208  19.186   9.715   0.494
63982W        W29209   1.819  38.363   3.901
63983W        W29210  21.694   0.312   1.313
63984W        W29211  22.701   5.063   2.272
63985W        W29212  23.923  14.279   2.166
63986W        W29213  32.313  22.516  12.716
63987W        W29214  16.252   0.405   1.895
63988W        W29215   1.117   8.117   0.909
63989W        W29216  22.065  22.608  10.561
63990W        W29217  22.024  33.515  10.412
63991W        W29218  40.577   4.800   3.747
63992W        W29219  11.279  42.431   4.382
63993W        W29220  21.256  44.808  11.628
63994W        W29221   8.668  43.199  12.425
63995W        W29222   5.712  41.109   2.338
63996W        W29223   7.198  34.204  11.085
63997W        W29224  20.998  20.692  13.032
63998W        W29225   2.309   5.334   1.458
63999W        W29226  44.976   0.944   3.248
64000W        W29227   6.019  35.525   1.891
64001W        W29228   1.206  44.970  10.464
64002W        W29229  40.602  12.826   2.194
64003W        W29230  42.956  26.109  13.253
64004W        W29231  12.784  36.513   0.781
64005W        W29232  25.476  21.061   1.362
64006W        W29233   2.800  31.061   1.778
64007W        W29234  25.769   1.825   1.349
64008W        W29235   4.784  17.308   3.079
64009W        W29236  44.293  26.015   4.663
64010W        W29237  32.067  16.334   2.232
64011W        W29238  44.851  24.202   4.438
64012W        W29239  16.352  17.786  13.758
64013W        W29240  27.675  34.711  13.444
64014W        W29241  30.859  29.258   1.729
64015W        W29242  20.289  34.994   3.021
64016W        W29243  42.350  28.278  11.228
64017W        W29244  34.595  42.358   4.692
64018W        W29245  32.122  41.448  13.985
64019W        W29246  28.413  42.445   2.081
64020W        W29247  14.757  41.931  12.051
64021W        W29248   7.978  14.401  13.998
64022W        W29249   2.295  14.613  11.367
64023W        W29250  21.365  29.124   4.891
64024W        W29251  36.218  31.023  14.830
64025W        W29252  32.419  18.713   4.099
64026W        W29253  32.616  21.515   0.632
64027W        W29254   9.145   1.045  11.158
64028W        W29255  38.473  21.282  11.007
64029W        W29256  16.585  32.607  13.904
64030W        W29257   0.392  13.683   3.262
64031W        W29258  36.129  35.957   2.222
64032W        W29259  25.634  11.400   1.486
64033W        W29260   8.972  11.105  13.528
64034W        W29261   4.876   3.501  11.012
64035W        W29262  14.559   7.838  13.627
64036W        W29263  20.383  27.402   2.834
64037W        W29264  41.865  40.955   2.707
64038W        W29265   9.944   6.321   2.345
64039W        W29266  14.781  27.954   3.563
64040W        W29267  18.411  35.380  11.764
64041W        W29268  28.947  27.419   0.556
64042W        W29269  32.110  31.989  13.809
64043W        W29270  16.106   6.382  14.490
64044W        W29271  25.153  34.113  14.784
64045W        W29272  32.493  32.287  14.838
64046W        W29273   4.054   3.485  10.018
64047W        W29274  22.070  30.174   1.374
64048W        W29275  19.695  18.792  13.008
64049W        W29276  14.777   4.891   4.168
64050W        W29277  44.998  36.960  14.236
64051W        W29278  11.668  19.020   1.816
64052W        W29279  16.280   7.163   0.775
64053W        W29280  12.285   9.986  12.990
64054W        W29281  22.020  43.235   0.262
64055W        W29282  18.301  17.727  10.622
64056W        W29283   4.834  35.736  12.926
64057W        W29284  41.863  37.447  13.792
64058W        W29285  18.125   9.500   1.586
64059W        W29286  36.836  12.217   1.073
64060W        W29287  31.164  34.339  12.886
64061W        W29288  25.692  15.980   4.763
64062W        W29289   0.716  28.997   3.373
64063W        W29290  34.045   5.774  11.704
64064W        W29291  25.236  42.304  11.198
64065W        W29292  13.637   3.154  11.669
64066W        W29293   8.772  16.045  14.866
64067W        W29294  16.800  27.493   0.978
64068W        W29295  21.565  36.216   4.088
64069W        W29296  17.324   8.644   1.723
64070W        W29297  31.945  19.734  13.287
64071W        W29298  43.825  21.139   4.678
64072W        W29299  39.439   3.357   4.513
64073W        W29300  13.007  39.009  10.771
64074W        W29301  22.092  20.964   2.393
64075W        W29302  21.656  39.680   0.053
64076W        W29303  13.871   5.640  11.183
64077W        W29304   7.882  12.947   5.020
64078W        W29305   7.684  36.544  11.174
64079W        W29306  39.962  14.649  11.069
64080W        W29307  17.621  40.836   2.409
64081W        W29308   4.483  11.312   2.226
64082W        W29309  28.955  15.801  10.705
64083W        W29310  13.063  16.158   4.175
64084W        W29311  22.912  33.280   3.514
64085W        W29312  38.867  35.131  11.229
64086W        W29313  42.175  15.263  14.344
64087W        W29314   8.917  37.433  14.832
64088W        W29315  42.208  19.221   5.369
64089W        W29316  43.609  11.904   0.706
64090W        W29317   0.732  43.061  11.606
64091W        W29318  38.379  35.627   3.260
64092W        W29319  11.913   4.800   2.106
64093W        W29320  39.365  18.740   1.132
64094W        W29321  32.839   2.318  12.357
64095W        W29322  38.987  30.585   1.125
64096W        W29323   1.642   9.612   0.956
64097W        W29324  23.260   4.711  11.645
64098W        W29325  43.744   4.427  11.164
64099W        W29326  13.058  20.256  12.405
64100W        W29327  11.253  33.115  12.171
64101W        W29328  35.097   3.673   2.517
64102W        W29329  32.923  32.390  14.558
64103W        W29330  38.535   4.129  12.916
64104W        W29331  17.705  19.454   0.232
64105W        W29332  10.229  30.377   3.323
64106W        W29333  39.509  27.641  13.942
64107W        W29334  30.950  22.692  13.767
64108W        W29335  13.950  25.045   2.831
64109W        W29336  36.047  43.590   2.673
64110W        W29337  23.633  19.619   0.952
64111W        W29338  15.523  13.396   3.668
64112W        W29339  34.856  37.544  14.885
64113W        W29340  11.794  12.996  11.498
64114W        W29341  20.628   5.392  14.459
64115W        W29342  20.407  18.630   4.125
64116W        W29343  32.364  20.589   0.815
64117W        W29344   3.813  42.287  11.960
64118W        W29345  15.992  41.023  13.967
64119W        W29346  14.309  39.642   1.809
64120W        W29347   7.699  36.787  13.609
64121W        W29348   2.471  38.594  14.420
64122W        W29349  38.071  16.307  13.073
64123W        W29350   2.258   4.693  12.601
64124W        W29351  31.610   3.885  11.523
64125W        W29352   7.394   8.911  12.396
64126W        W29353  10.738  10.131   1.475
64127W        W29354  19.488  31.039   3.226
64128W        W29355  34.751   7.417   1.162
64129W        W29356  11.750  31.586  14.485
64130W        W29357   9.197  42.265   1.373
64131W        W29358   8.120  34.976   3.288
64132W        W29359  36.437  42.722  11.956
64133W        W29360  37.894  18.533   3.822
64134W        W29361  19.678  19.106   1.960
64135W        W29362  26.385   0.423  10.786
64136W        W29363  39.510  24.956  14.513
64137W        W29364  15.848  27.950   1.529
64138W        W29365  27.868   6.209   2.843
64139W        W29366  38.034  19.070   1.225
64140W        W29367  24.219  38.298  11.428
64141W        W29368  33.541  38.354   4.986
64142W        W29369  15.272  17.541   1.451
64143W        W29370  31.137  40.889  14.451
64144W        W29371  32.929  44.944   0.350
64145W        W29372  42.923  24.304  13.539
64146W        W29373  19.080  34.933  10.662
64147W        W29374  34.450  30.010  14.399
64148W        W29375   7.877  39.265  13.242
64149W        W29376  44.700   9.273   1.902
64150W        W29377  29.043   1.864   0.048
64151W        W29378  22.186  26.721   0.370
64152W        W29379  14.914  31.447   3.463
64153W        W29380  34.756  43.320   3.318
64154W        W29381  44.112   3.463   0.782
64155W        W29382  43.247  41.392   3.217
64156W        W29383  22.844   8.734   2.055
64157W        W29384  44.597  16.013   5.063
64158W        W29385  20.677  41.095  11.498
64159W        W29386  17.617  30.052   4.017
64160W        W29387  33.631  13.344  13.500
64161W        W29388  36.551  23.136   4.369
64162W        W29389  17.041  16.776   2.487
64163W        W29390  26.921   6.801  12.067
64164W        W29391  35.299   5.808   1.890
64165W        W29392   4.783  21.644   2.838
64166W        W29393  25.174  38.559   1.664
64167W        W29394   2.015   1.378   1.722
64168W        W29395  20.216  39.045  14.910
64169W        W29396  28.889  36.496  13.865
64170W        W29397  37.200  14.498  11.316
64171W        W29398  36.059  27.084   3.268
64172W        W29399   2.113  24.423  10.319
64173W        W29400  17.538  43.450   1.841
64174W        W29401  40.595  16.043   4.305
64175W        W29402   5.419  15.067  11.165
64176W        W29403  24.795   3.806   4.622
64177W        W29404  44.301  29.153  13.473
64178W        W29405  15.696  32.374   9.730
64179W        W29406  26.987  38.249  14.313
64180W        W29407   7.996  31.534  11.635
64181W        W29408   3.279  27.578   1.918
64182W        W29409  23.757   1.209  11.630
64183W        W29410  40.293  16.633  13.126
64184W        W29411  34.434   7.685  14.490
64185W        W29412  12.158  27.650  11.745
64186W        W29413  22.226  24.588   4.283
64187W        W29414   7.334  24.721  11.325
64188W        W29415  11.307  10.637  13.389
64189W        W29416  39.460   4.692   9.571
64190W        W29417  29.725   6.029   4.833
64191W        W29418  18.384  29.929  11.090
64192W        W29419   6.691   9.707  12.592
64193W        W29420  41.688   7.667  12.500
64194W        W29421  15.487  33.581  10.997
64195W        W29422  36.647  21.233   4.682
64196W        W29423  36.994  15.967  11.650
64197W        W29424  41.771  29.864  10.716
64198W        W29425  22.250  32.771  12.384
64199W        W29426   7.271  24.042  14.731
64200W        W29427   1.728  28.114   3.971
64201W        W29428  42.211  17.297   3.660
64202W        W29429  16.057  30.503   1.390
64203W        W29430  21.589   4.153  10.611
64204W        W29431  20.457  42.886  11.680
64205W        W29432   3.256   7.483  12.127
64206W        W29433  10.177  20.138  14.997
64207W        W29434  31.987  33.211   4.334
64208W        W29435  21.832  30.010   3.571
64209W        W29436  13.541  28.616   0.471
64210W        W29437  11.561  30.058   4.816
64211W        W29438  33.021  28.626   0.747
64212W        W29439   2.347  27.998  13.511
64213W        W29440  15.596  38.050   2.461
64214W        W29441  23.527  43.949   0.247
64215W        W29442  34.603  14.788   9.874
64216W        W29443   4.950  11.227  11.056
64217W        W29444  42.317   5.217  12.443
64218W        W29445  12.600   7.792  13.023
64219W        W29446  28.155  44.836   0.424
64220W        W29447  23.366  17.604  10.453
64221W        W29448  26.039  24.409   2.354
64222W        W29449   2.227  37.455  14.949
64223W        W29450  19.127   8.437  14.918
64224W        W29451   1.022  39.359   4.415
64225W        W29452  35.169  44.537   3.551
64226W        W29453   7.633  19.111  14.382
64227W        W29454  28.071  21.825   3.849
64228W        W29455  35.857   3.360   0.269
64229W        W29456  15.617  32.119  11.905
64230W        W29457  19.111  25.041  10.517
64231W        W29458  34.830  10.756  10.788
64232W        W29459  24.121   9.166  12.587
64233W        W29460   1.762  28.099   0.427
64234W        W29461  40.933  32.994  13.656
64235W        W29462   7.164  28.152  13.067
64236W        W29463  14.612  44.736   0.394
64237W        W29464  25.960   5.416   0.322
64238W        W29465  41.985  17.288  14.491
64239W        W29466  35.420   2.179  13.367
64240W        W29467  18.681  25.448   3.331
64241W        W29468   4.114  36.393   4.322
64242W        W29469  13.651   3.427   4.108
64243W        W29470   2.572  34.787   1.403
64244W        W29471   1.953  44.605   0.068
64245W        W29472   5.687   5.821  12.917
64246W        W29473  13.079  38.083  11.210
64247W        W29474   2.316  24.075   3.176
64248W        W29475  39.788  37.861  11.539
64249W        W29476  21.292  36.127  14.422
64250W        W29477  13.613  39.861  14.136
64251W        W29478   1.451   1.523  14.914
64252W        W29479  35.809  41.848  10.781
64253W        W29480  12.796   8.727   3.121
64254W        W29481  40.785  37.470   2.834
64255W        W29482   8.902  10.551   3.165
64256W        W29483  22.636  32.017  11.935
64257W        W29484  14.663  23.981   3.538
64258W        W29485  28.179  16.768   3.234
64259W        W29486  37.779  22.691   4.983
64260W        W29487  27.197  26.694  10.144
64261W        W29488  37.742  40.996   3.688
64262W        W29489  33.804  12.829   0.796
64263W        W29490   0.433  22.128   0.460
64264W        W29491  12.302  29.756  12.358
64265W        W29492  21.031  10.556   3.184
64266W        W29493   7.415  32.892   3.131
64267W        W29494  12.193  21.224   3.362
64268W        W29495  22.481   6.901  11.813
64269W        W29496  18.075  31.459   4.545
64270W        W29497  33.960   4.965  10.593
64271W        W29498  26.535   1.830  11.187
64272W        W29499  32.499  29.989   2.580
64273W        W29500  16.862  11.710   3.561
64274W        W29501   6.026  26.389  13.835
64275W        W29502  44.988  11.705  12.105
64276W        W29503   1.538  36.074   3.316
64277W        W29504  40.398  33.978  10.572
64278W        W29505  24.732  37.389   1.398
64279W        W29506  38.972  40.422  10.167
64280W        W29507  33.825   1.338   1.298
64281W        W29508  16.678  39.855  10.881
64282W        W29509  17.601   5.843  13.333
64283W        W29510  37.644  22.689   3.729
64284W        W29511  26.657  12.392  12.028
64285W        W29512  44.566  18.285   1.789
64286W        W29513   0.441  38.532   4.205
64287W        W29514  17.318  14.137  13.068
64288W        W29515  31.957  40.436   4.236
64289W        W29516  29.950   1.303  11.237
64290W        W29517  17.061   6.716   2.961
64291W        W29518  30.144  28.562  10.711
64292W        W29519   1.010  14.673   0.661
64293W        W29520   5.647  27.460   3.273
64294W        W29521   1.009  34.223   4.144
64295W        W29522  43.295  28.080   2.303
64296W        W29523  10.537  40.882  10.390
64297W        W29524   9.149   3.818  12.167
64298W        W29525  32.340  33.927  14.938
64299W        W29526  30.222  22.549   1.640
64300W        W29527  39.367  30.154  14.875
64301W        W29528  29.491  20.554   0.808
64302W        W29529  32.312  37.547  11.559
64303W        W29530   5.220  10.768   3.320
64304W        W29531  26.736  30.197  12.097
64305W        W29532  21.987  21.169   3.329
64306W        W29533  13.233  44.025  10.599
64307W        W29534  35.450  15.303  13.291
64308W        W29535  24.072  13.221   0.500
64309W        W29536  31.853   6.629  13.483
64310W        W29537  13.427  24.643   1.621
64311W        W29538  28.351  19.465   5.120
64312W        W29539  27.419  33.267  11.630
64313W        W29540  33.059  16.756  11.200
64314W        W29541   3.480   9.420  13.786
64315W        W29542  40.093  26.137  14.886
64316W        W29543  12.615  21.230   3.724
64317W        W29544  43.302  23.469   0.788
64318W        W29545  29.377   1.739   0.477
64319W        W29546  37.862  20.099   0.591
64320W        W29547  25.682  24.292   0.924
64321W        W29548  14.699   4.213   1.948
64322W        W29549  25.095  42.077   4.652
64323W        W29550  37.310  37.520   2.293
64324W        W29551  36.834  28.176   4.563
64325W        W29552   7.340   8.214   4.568
64326W        W29553  29.203  17.778   1.979
64327W        W29554  10.681  27.212  10.676
64328W        W29555  23.636  33.409  12.590
64329W        W29556  11.706  12.537   2.319
64330W        W29557  14.080  41.434   2.817
64331W        W29558  28.587   9.030   0.901
64332W        W29559  27.668   9.375  11.740
64333W        W29560  18.687  12.947  10.311
64334W        W29561  43.675  33.462  14.961
64335W        W29562  34.594  13.066  11.487
64336W        W29563   4.063   1.608   4.683
64337W        W29564   9.183  44.441   0.797
64338W        W29565  23.334   3.985   4.599
64339W        W29566  20.848  31.296  11.558
64340W        W29567  33.321  19.209  14.260
64341W        W29568  19.665  44.002   1.448
64342W        W29569  29.481   3.344  11.279
64343W        W29570   3.044  19.977  12.146
64344W        W29571   6.818  40.937   4.107
64345W        W29572  26.958  10.838   3.786
64346W        W29573  14.149  17.410   3.649
64347W        W29574  12.257  31.641   0.343
64348W        W29575   2.261  41.915  12.363
64349W        W29576   5.679   0.927   2.302
64350W        W29577  25.532  27.963  10.307
64351W        W29578  37.550  41.862  11.212
64352W        W29579  38.562  16.563  14.965
64353W        W29580   9.393  40.013   1.847
64354W        W29581  28.196  24.352   3.187
64355W        W29582  18.276   9.919  11.624
64356W        W29583  18.827  34.446  11.646
64357W        W29584  11.801  42.331  10.758
64358W        W29585  35.647  21.237  11.416
64359W        W29586  39.235  36.596  11.610
64360W        W29587  17.812  27.502   4.788
64361W        W29588  34.987   9.438  13.810
64362W        W29589  21.745  10.838   3.610
64363W        W29590  43.082  35.450  11.280
64364W        W29591   6.352  43.637   4.998
64365W        W29592  29.606  33.974   1.131
64366W        W29593  34.982   1.963  11.605
64367W        W29594  33.041  18.878   4.174
64368W        W29595  36.072  12.894  13.621
64369W        W29596  40.310  21.693   0.211
64370W        W29597   9.663  41.727   4.671
64371W        W29598  44.329  12.679   3.963
64372W        W29599  10.842  35.857   3.764
64373W        W29600  40.243   3.172   0.904
64374W        W29601   8.932  19.184   2.476
64375W        W29602   6.418  18.656   5.256
64376W        W29603  18.253   8.369  14.399
64377W        W29604   2.565  28.919   2.536
64378W        W29605  37.515  41.048   1.276
64379W        W29606  33.177   4.711  10.182
64380W        W29607   6.426   7.704   1.888
64381W        W29608  32.128  37.173  12.630
64382W        W29609   6.849  33.577  12.116
64383W        W29610  18.613  14.218  12.434
64384W        W29611  20.556  29.488  14.362
64385W        W29612  14.510   8.288   4.501
64386W        W29613  13.645   6.743  14.030
64387W        W29614  23.318  34.543  13.363
64388W        W29615   0.934  37.878  11.989
64389W        W29616  16.732  18.728   4.494
64390W        W29617  17.255  20.460  14.306
64391W        W29618   4.365   7.189  14.806
64392W        W29619  33.123  28.091  10.790
64393W        W29620  18.456  38.968   4.268
64394W        W29621   9.316  25.654  12.551
64395W        W29622   1.691  16.103   0.952
64396W        W29623  26.685  17.728  12.791
64397W        W29624  29.489  40.517  14.843
64398W        W29625   9.698  13.777   2.271
64399W        W29626  17.188  16.254   1.830
64400W        W29627  14.197  18.739   5.031
64401W        W29628  40.718  28.502  11.483
64402W        W29629  34.601  23.054  14.540
64403W        W29630  26.043   8.282  10.683
64404W        W29631  20.744  12.772  12.978
64405W        W29632  21.631   8.918  11.896
64406W        W29633  12.186   1.230   4.573
64407W        W29634  25.561  26.078   4.831
64408W        W29635   5.133  10.235  13.081
64409W        W29636  30.533  27.451   1.659
64410W        W29637   3.824   9.019   5.018
64411W        W29638   9.765  10.820   0.442
64412W        W29639  41.328  10.694   3.233
64413W        W29640  25.101  31.503   2.446
64414W        W29641  32.063  34.927   2.129
64415W        W29642  44.817   4.756   1.493
64416W        W29643   0.710  21.141   3.070
64417W        W29644  22.602  19.521  11.171
64418W        W29645  29.034  22.308   4.548
64419W        W29646  26.162   3.550   1.682
64420W        W29647  10.793   8.838   4.746
64421W        W29648  18.711   0.524  11.201
64422W        W29649  38.334  43.823   2.652
64423W        W29650  42.166  31.117   3.953
64424W        W29651  42.395  24.714   3.042
64425W        W29652  20.954  16.576  11.683
64426W        W29653  34.360   2.637  12.052
64427W        W29654   7.736   4.213   0.813
64428W        W29655  37.923   4.987  13.911
64429W        W29656  10.698  38.364   2.708
64430W        W29657  24.686  24.978   3.002
64431W        W29658  43.915  30.918   0.657
64432W        W29659   7.319  42.712  13.500
64433W        W29660  36.979  26.670   2.825
64434W        W29661  24.477   8.373  12.511
64435W        W29662  19.729  38.863  10.693
64436W        W29663  20.660  44.971  12.885
64437W        W29664  43.831  23.960  14.028
64438W        W29665  21.728  25.235   1.897
64439W        W29666   7.548  29.631   4.323
64440W        W29667  16.324  37.030  12.035
64441W        W29668  25.049  17.754   4.004
64442W        W29669  11.706   3.784  10.847
64443W        W29670  44.240  12.523  10.050
64444W        W29671  44.005  19.040   4.533
64445W        W29672  16.030   4.918  13.392
64446W        W29673  27.934  18.979  11.351
64447W        W29674  20.231  42.929   3.445
64448W        W29675   6.346   7.337  14.444
64449W        W29676  35.060  13.812  12.542
64450W        W29677  29.845  31.038   4.734
64451W        W29678  34.460  35.406   4.085
64452W        W29679  38.896  43.600  14.974
64453W        W29680  40.311  23.037   4.057
64454W        W29681  30.700  27.959  10.314
64455W        W29682  30.934   0.207   0.722
64456W        W29683  41.988   8.314   4.684
64457W        W29684  38.664   3.879   4.923
64458W        W29685  11.484  34.877  11.109
64459W        W29686  19.035  16.186   4.330
64460W        W29687  10.116   6.884  10.736
64461W        W29688   1.864  34.446   1.816
64462W        W29689   1.867  14.781  11.630
64463W        W29690  28.848  39.522  12.554
64464W        W29691   5.799  38.532   3.656
64465W        W29692  32.604  18.857  11.661
64466W        W29693   0.398  33.828  10.949
64467W        W29694  40.920  30.994  13.863
64468W        W29695  43.901  25.600   1.642
64469W        W29696   3.278   0.885   2.861
64470W        W29697  43.923  36.783   0.795
64471W        W29698  33.981  38.949  14.751
64472W        W29699  22.728  41.013   0.843
64473W        W29700  40.475   2.415   1.338
64474W        W29701  34.988  41.686  11.103
64475W        W29702  34.400  17.530   3.359
64476W        W29703  34.868  16.297   3.804
64477W        W29704  36.757   2.467   4.564
64478W        W29705  37.139  16.236   1.837
64479W        W29706  27.633  22.123   1.809
64480W        W29707  23.204  42.815   4.481
64481W        W29708  17.650   1.871   0.607
64482W        W29709  27.573  25.218  14.316
64483W        W29710   8.106  26.548  11.108
64484W        W29711  34.881  43.436  12.475
64485W        W29712  28.426  42.299   4.004
64486W        W29713   7.466  33.874   3.959
64487W        W29714  39.234  10.125   0.369
64488W        W29715  27.710  43.247  14.310
64489W        W29716  11.326  13.688  14.891
64490W        W29717  37.600  36.938  14.726
64491W        W29718  18.547  11.112   4.115
64492W        W29719  26.235  30.121  12.025
64493W        W29720  24.542  43.258   4.237
64494W        W29721   0.826  25.216   4.066
64495W        W29722  44.873  10.265  10.670
64496W        W29723  40.431  26.214  14.476
64497W        W29724  44.831  40.054  13.129
64498W        W29725   9.916  22.524  10.540
64499W        W29726  16.199   5.714  14.821
64500W        W29727   7.487   7.211   0.294
64501W        W29728  18.853  42.589  14.457
64502W        W29729  23.257  24.261  12.043
64503W        W29730  34.033  12.294   0.366
64504W        W29731  10.629  44.795  10.353
64505W        W29732  11.636  16.966   0.864
64506W        W29733  10.573  23.574   4.223
64507W        W29734  13.207  13.527  12.967
64508W        W29735   5.559  10.775  11.600
64509W        W29736   0.351  40.989  13.571
64510W        W29737  11.262   2.538  14.512
64511W        W29738   8.127  22.718   4.452
64512W        W29739  36.898  34.995  14.232
64513W        W29740  38.089  21.760  12.925
64514W        W29741   3.424  24.678  11.132
64515W        W29742  39.321  38.522   3.257
64516W        W29743   1.949  37.962  12.887
64517W        W29744  21.026  17.570  12.601
64518W        W29745  40.374   9.746  10.689
64519W        W29746  31.009  35.077   5.428
64520W        W29747  30.179  40.299   0.832
64521W        W29748   2.218  34.590  10.191
64522W        W29749  32.545  20.878  13.861
64523W        W29750   0.216   7.733  12.804
64524W        W29751  22.675  35.264  13.833
64525W        W29752   1.722   6.796  13.477
64526W        W29753  25.451  13.460   0.861
64527W        W29754  38.976  13.857  14.053
64528W        W29755   8.773  24.620  12.492
64529W        W29756  34.785  28.618  14.841
64530W        W29757  41.290  10.721   4.321
64531W        W29758   6.460  27.990   4.768
64532W        W29759  28.601   0.660   1.338
64533W        W29760  23.782  42.378  14.836
64534W        W29761  16.569   2.376  14.787
64535W        W29762  28.564  42.680   3.106
64536W        W29763  36.389   2.556  12.380
64537W        W29764  16.293   3.407   0.805
64538W        W29765  27.441   3.306  12.906
64539W        W29766  38.043  19.086  14.300
64540W        W29767  43.814  40.408  12.121
64541W        W29768  39.241   6.613  14.050
64542W        W29769  12.033  32.948   3.200
64543W        W29770  25.541  25.573  10.987
64544W        W29771  13.267  22.179   4.268
64545W        W29772  22.552  44.472   3.713
64546W        W29773  23.608  16.414  14.903
64547W        W29774   9.326  14.207   4.223
64548W        W29775  32.394  38.842   4.138
64549W        W29776  29.930  23.801  13.467
64550W        W29777   8.220  33.464   4.454
64551W        W29778  25.087  11.285   2.918
64552W        W29779  34.597   9.160   3.878
64553W        W29780   5.447   5.964   3.976
64554W        W29781  25.558   8.761  13.314
64555W        W29782  39.095  25.259   3.425
64556W        W29783  42.692  24.034  12.652
64557W        W29784  15.685  25.193   3.218
64558W        W29785  12.831   1.327  13.010
64559W        W29786  25.462  20.825  10.228
64560W        W29787   0.721  18.064  12.944
64561W        W29788  13.250  16.830   2.732
64562W        W29789  28.104  22.620  11.150
64563W        W29790  38.323   9.095   3.607
64564W        W29791  31.574  20.739   0.041
64565W        W29792  20.192  39.600   5.051
64566W        W29793  18.313  10.830  13.310
64567W        W29794  34.368   8.849   2.774
64568W        W29795  13.688  35.601   4.149
64569W        W29796  25.346  38.317   4.085
64570W        W29797  15.212  26.645  11.637
64571W        W29798  20.131  34.438   1.638
64572W        W29799  32.629  35.093  13.538
64573W        W29800  12.687  30.789  12.028
64574W        W29801  41.264   3.159  10.673
64575W        W29802  25.392  18.233   2.703
64576W        W29803  39.899  24.390  11.826
64577W        W29804  40.017  11.795  12.936
64578W        W29805  34.572   6.720   4.166
64579W        W29806  16.970  10.757  13.377
64580W        W29807  22.711  25.692   0.787
64581W        W29808  33.808  22.622   3.207
64582W        W29809  30.885  40.283   4.221
64583W        W29810  22.204  35.493  12.611
64584W        W29811  11.369  39.375   1.038
64585W        W29812  42.979  36.179   1.855
64586W        W29813  20.171  32.172   2.387
64587W        W29814  15.142  31.483   3.009
64588W        W29815  39.813  36.975  10.632
64589W        W29816  33.454  29.387   1.112
64590W        W29817  24.630  35.928  13.453
64591W        W29818  12.022   0.490   0.866
64592W        W29819  23.231  26.079  12.145
64593W        W29820   4.237  21.587   2.819
64594W        W29821  41.275   1.185  11.682
64595W        W29822  33.072   3.520  14.425
64596W        W29823  33.398  17.072   0.396
64597W        W29824   9.715  10.355  11.667
64598W        W29825   1.549  14.401  11.820
64599W        W29826  40.222  22.253  14.380
64600W        W29827  32.539  39.413  10.071
64601W        W29828  18.751  37.387   2.225
64602W        W29829  12.292  28.729  13.492
64603W        W29830  13.668  17.022  12.864
64604W        W29831  24.200  41.193  14.459
64605W        W29832   6.379  43.365   0.856
64606W        W29833  30.048  13.665  12.083
64607W        W29834  10.703  11.414  10.748
64608W        W29835  24.967  23.215  13.372
64609W        W29836  30.388  34.960  12.584
64610W        W29837  20.563  39.076  11.622
64611W        W29838  31.455  40.995  12.316
64612W        W29839  42.254  18.373   1.876
64613W        W29840  41.082  14.273  11.548
64614W        W29841  34.082  21.140  13.739
64615W        W29842  15.550  34.587  12.081
64616W        W29843  32.367  42.058  14.896
64617W        W29844   7.442  40.489  11.607
64618W        W29845  35.027   9.775   0.159
64619W        W29846  35.990  41.786  13.467
64620W        W29847  26.407   6.955   4.720
64621W        W29848  20.099  37.179   0.622
64622W        W29849   1.900  14.926   4.053
64623W        W29850  37.430  32.358  10.535
64624W        W29851   7.198  42.252  13.315
64625W        W29852  41.752  36.652   3.754
64626W        W29853  43.230   0.757   4.196
64627W        W29854  10.841  22.632  11.584
64628W        W29855   2.124  37.267   5.103
64629W        W29856  37.402  44.041  13.737
64630W        W29857  30.634   7.063  12.110
64631W        W29858  21.275  24.223   0.455
64632W        W29859   1.243  36.111  14.356
64633W        W29860  23.546  14.100  14.272
64634W        W29861   5.841   2.038  11.458
64635W        W29862  16.225  14.717  10.692
64636W        W29863  16.148  26.317  11.388
64637W        W29864  44.538  32.959  13.855
64638W        W29865  35.838  11.068  14.529
64639W        W29866  12.916  36.127  12.014
64640W        W29867  31.495  24.099   2.984
64641W        W29868  24.558  24.972  14.494
64642W        W29869  34.269  30.016  12.704
64643W        W29870  23.653  43.619   2.714
64644W        W29871  39.817   1.325   0.526
64645W        W29872   5.984  17.885  11.607
64646W        W29873  19.573  30.032  12.005
64647W        W29874  12.858   6.805   1.785
64648W        W29875  36.560   6.584  11.995
64649W        W29876  42.345   8.557  12.529
64650W        W29877   3.156  16.638  10.602
64651W        W29878   1.975  26.562  12.513
64652W        W29879  34.026  40.862  14.391
64653W        W29880  42.703   5.994   0.794
64654W        W29881  31.623  34.447  11.266
64655W        W29882  13.172   2.444  14.623
64656W        W29883   0.171  31.697   1.340
64657W        W29884  34.985  42.179  11.155
64658W        W29885  12.250  43.714  12.503
64659W        W29886  16.143  14.583  11.976
64660W        W29887   7.479  36.567  14.026
64661W        W29888  11.657  21.179   2.008
64662W        W29889  24.667  23.453  14.465
64663W        W29890  42.606  30.051   3.235
64664W        W29891  15.138  34.988  12.068
64665W        W29892  41.167   8.031   0.195
64666W        W29893   5.117  24.387  11.740
64667W        W29894  28.587   1.527  13.793
64668W        W29895  14.429  15.334  11.650
64669W        W29896   6.769  33.549  11.595
64670W        W29897   2.686  13.950   2.616
64671W        W29898  32.431   2.198   0.049
64672W        W29899  40.580   7.317  12.593
64673W        W29900  44.784  42.969  11.940
64674W        W29901  28.054  14.690   4.379
64675W        W29902   2.798  21.303   2.706
64676W        W29903  15.864  14.556  11.553
64677W        W29904   1.823  12.449   1.864
64678W        W29905  28.659  33.520   0.334
64679W        W29906  41.093  20.140  13.068
64680W        W29907  19.633   4.223  12.826
64681W        W29908  20.753  37.635  11.616
64682W        W29909  25.016  43.651   0.740
64683W        W29910  42.580  32.448  13.994
64684W        W29911  27.721  29.945  12.395
64685W        W29912  23.869   5.512  12.525
64686W        W29913  35.130  19.887   4.134
64687W        W29914   9.992  43.019  13.073
64688W        W29915  44.630   2.393  13.050
64689W        W29916  44.825   7.751   4.677
64690W        W29917   3.207   2.558  11.968
64691W        W29918  12.834   0.765   4.128
64692W        W29919  17.480  34.604   0.921
64693W        W29920  19.301  12.888  13.400
64694W        W29921  25.482   0.016  14.882
64695W        W29922  13.604   7.880  11.592
64696W        W29923  32.351   6.407  13.999
64697W        W29924  18.633  34.809  14.342
64698W        W29925  11.989  15.604  10.708
64699W        W29926  36.416   0.971   4.051
64700W        W29927   0.204   3.274  11.437
64701W        W29928  10.473  27.017  11.109
64702W        W29929  43.944  17.003   2.124
64703W        W29930  29.830   1.344   4.633
64704W        W29931  29.987  30.687  12.442
64705W        W29932  15.555   5.992   3.731
64706W        W29933  21.468  26.994  10.656
64707W        W29934  22.312  20.094  11.645
64708W        W29935  31.756  16.215  14.308
64709W        W29936  41.418  21.273   3.163
64710W        W29937  25.091  37.076  11.705
64711W        W29938   4.944  31.039  14.706
64712W        W29939  28.550  24.778   1.262
64713W        W29940   1.618  36.763   4.688
64714W        W29941  35.361  13.085   4.449
64715W        W29942  44.774   4.646  13.509
64716W        W29943  25.013  14.999  14.823
64717W        W29944  20.222  24.164  13.764
64718W        W29945   5.189   6.585   1.297
64719W        W29946  17.760  32.944   3.143
64720W        W29947  33.007  14.335  13.914
64721W        W29948  19.508  17.734   3.183
64722W        W29949  20.147  41.992   1.898
64723W        W29950  35.587  43.046  13.887
64724W        W29951   0.975  28.087  12.381
64725W        W29952  28.257  31.844   1.307
64726W        W29953  31.150  12.324  11.655
64727W        W29954  17.174  41.014  10.750
64728W        W29955  11.385  14.356  14.357
64729W        W29956   5.766  38.156  13.662
64730W        W29957  26.084  13.168   0.306
64731W        W29958  27.731  16.854   2.318
64732W        W29959  36.739  10.832   1.894
64733W        W29960  31.666  42.912   2.212
64734W        W29961  20.830  23.916   1.837
64735W        W29962   9.298   9.843  14.165
64736W        W29963  32.316  10.077  11.164
64737W        W29964  22.792  31.094  14.415
64738W        W29965  18.259   5.261  14.912
64739W        W29966  37.264  20.814   3.179
64740W        W29967  20.018   5.432  12.535
64741W        W29968  16.375  19.630  12.964
64742W        W29969  20.987   1.487   4.533
64743W        W29970   9.248   2.683   0.444
64744W        W29971  18.036  25.777  11.590
64745W        W29972  33.454   0.501  12.942
64746W        W29973  34.060  17.948   1.288
64747W        W29974  14.592  26.604  14.610
64748W        W29975  23.616  41.918   1.943
64749W        W29976  27.997  16.294   3.282
64750W        W29977  28.049  43.374  12.485
64751W        W29978  25.878  36.158  10.922
64752W        W29979  16.773   7.032  10.794
64753W        W29980  17.303  44.840  12.655
64754W        W29981  24.209  39.194  13.140
64755W        W29982  27.961  12.852   9.466
64756W        W29983  15.742  16.322   1.760
64757W        W29984  31.710  23.950   3.904
64758W        W29985  31.541  18.515  12.086
64759W        W29986   9.243  17.342   1.881
64760W        W29987   3.711  10.600  12.593
64761W        W29988  12.657   5.716  11.533
64762W        W29989  39.246  34.833   1.925
64763W        W29990  35.124  37.984  14.684
64764W        W29991  34.752   2.288  14.546
64765W        W29992  43.205  30.971  14.898
64766W        W29993  34.810   6.981   0.831
64767W        W29994  43.986  19.661   0.372
64768W        W29995  30.568  31.152   3.019
64769W        W29996   1.914  42.753   3.289
64770W        W29997  19.603  43.384   1.595
64771W        W29998  16.044  31.004  11.961
64772W        W29999  20.657  12.771   2.365
64773W        W30000  25.699  41.036  14.441
64774W        W30001   0.624  33.075  12.865
64775W        W30002  29.017   7.252   4.641
64776W        W30003   2.273  20.076   4.489
64777W        W30004  38.425  44.024   4.506
64778W        W30005  15.153  22.100   1.847
64779W        W30006  19.581  36.347   4.977
64780W        W30007  17.664  31.994  12.789
64781W        W30008   2.332  31.002  13.312
64782W        W30009   5.469  30.964  12.980
64783W        W30010   0.999  18.012   1.909
64784W        W30011  19.635  25.566   2.385
64785W        W30012  38.879   6.740   0.042
64786W        W30013  43.957  21.529   0.684
64787W        W30014  33.349  33.104  14.458
64788W        W30015  20.285  16.066  11.162
64789W        W30016  28.693  29.717   1.404
64790W        W30017  25.161  32.612  13.803
64791W        W30018   0.450  36.731  14.330
64792W        W30019  41.535  43.977   1.921
64793W        W30020  44.743  13.026  13.975
64794W        W30021  32.592  43.876   3.805
64795W        W30022  25.548  43.869   1.460
64796W        W30023  24.202  15.770   1.131
64797W        W30024  29.457   8.092   2.211
64798W        W30025  16.202  37.510  10.657
64799W        W30026  10.180  33.664  12.837
64800W        W30027  35.582  38.816   4.716
64801W        W30028  40.373  37.928   1.248
64802W        W30029  13.467  12.253   2.803
64803W        W30030   1.272  17.902  12.830
64804W        W30031  26.590   7.673  11.082
64805W        W30032  40.021  43.454   2.602
64806W        W30033   3.521  30.896   1.255
64807W        W30034  40.070   5.633   3.124
64808W        W30035   1.193  11.505   3.901
64809W        W30036  19.604  10.917   4.063
64810W        W30037  31.353  13.936   2.845
64811W        W30038  24.203  33.204  13.768
64812W        W30039  15.535  11.115   4.163
64813W        W30040  27.179   9.851   4.854
64814W        W30041  44.843  12.270   3.337
64815W        W30042  27.451  25.730   2.238
64816W        W30043  16.195  41.943   1.646
64817W        W30044  20.542  39.405   3.136
64818W        W30045  23.981  24.280   0.967
64819W        W30046  11.123  32.531  13.329
64820W        W30047  18.732  27.742  11.256
64821W        W30048   5.363  38.619   3.890
64822W        W30049  18.620  37.280   0.897
64823W        W30050  20.615   0.252  11.943
64824W        W30051  29.565  16.911   2.334
64825W        W30052   1.333  37.291  13.340
64826W        W30053  22.751  32.874  12.839
64827W        W30054  32.106  20.779   3.195
64828W        W30055   1.483   9.854  12.232
64829W        W30056  35.373  33.342  10.467
64830W        W30057   0.342  38.999  10.694
64831W        W30058  37.330  44.045   2.249
64832W        W30059  14.788  43.087  10.165
64833W        W30060   3.859  39.769  11.685
64834W        W30061  30.643  24.944   9.591
64835W        W30062  15.532  44.206   5.098
64836W        W30063  36.912  33.870  14.058
64837W        W30064  40.476  25.108   4.994
64838W        W30065  36.871  23.005  12.457
64839W        W30066  18.257  28.628  11.237
64840W        W30067   2.469  44.676   0.104
64841W        W30068   3.371   2.899  10.224
64842W        W30069   6.846   8.709  14.002
64843W        W30070  33.726  26.570  14.351
64844W        W30071  34.370  29.445   2.748
64845W        W30072  37.419  20.646   2.715
64846W        W30073  26.937  39.027   2.173
64847W        W30074   7.809  11.759  13.854
64848W        W30075  44.482   0.843   4.422
64849W        W30076  28.032   8.011  12.162
64850W        W30077  21.583   5.243  14.866
64851W        W30078  18.601  19.933  14.891
64852W        W30079  15.084  40.976  12.458
64853W        W30080  16.151  19.077  11.235
64854W        W30081   7.883   3.433   0.345
64855W        W30082  26.723  42.773  12.901
64856W        W30083  12.254  41.372   2.144
64857W        W30084  11.151  45.000  11.369
64858W        W30085   7.412  30.179  10.795
64859W        W30086  16.667  34.347   3.862
64860W        W30087  10.421  44.405  10.634
64861W        W30088  16.250   3.903  11.962
64862W        W30089   0.500   5.445   4.549
64863W        W30090  14.751  15.316  11.212
64864W        W30091  37.531  10.238   3.626
64865W        W30092  38.827  32.546   3.263
64866W        W30093   3.806  41.693   3.666
64867W        W30094  10.333  18.596   2.828
64868W        W30095  31.458  34.307   3.753
64869W        W30096  12.605  19.664   4.459
64870W        W30097  12.262  22.617  13.897
64871W        W30098  31.784  41.052   0.013
64872W        W30099  33.087   7.917   1.306
64873W        W30100  32.054  11.671  14.716
64874W        W30101  44.720  23.809   3.889
64875W        W30102  15.284  34.152   4.884
64876W        W30103  18.986   1.706  12.278
64877W        W30104  22.367   8.160   4.150
64878W        W30105  31.623  19.289  11.655
64879W        W30106  17.344  41.674  12.861
64880W        W30107  25.397  35.401   0.811
64881W        W30108  44.348  35.820   4.707
64882W        W30109   2.658   2.716   0.407
64883W        W30110  41.888   6.632   0.713
64884W        W30111  38.918  21.595   2.815
64885W        W30112  24.211  24.867  10.831
64886W        W30113  10.814  37.682   3.271
64887W        W30114   8.567  34.450  10.818
64888W        W30115   9.266  14.255   1.476
64889W        W30116   5.866  41.728   1.684
64890W        W30117  44.539  12.265   0.248
64891W        W30118  23.155  25.714   0.471
64892W        W30119   8.917   8.111   2.363
64893W        W30120  15.267  34.526   0.072
64894W        W30121   2.469  38.427  11.582
64895W        W30122  38.006  41.449  13.008
64896W        W30123  14.618   6.164   2.325
64897W        W30124  29.828  23.224  12.418
64898W        W30125  12.862   1.835  12.449
64899W        W30126  28.962  31.568  12.145
64900W        W30127  24.881  41.407  12.030
64901W        W30128  28.903  35.842   4.069
64902W        W30129  40.352   5.920   1.354
64903W        W30130   6.420  16.329  14.058
64904W        W30131   4.509  37.397   3.681
64905W        W30132   5.888  24.506  13.822
64906W        W30133   2.113   4.820   1.899
64907W        W30134  41.569  41.159  12.970
64908W        W30135   8.337  15.246  13.938
64909W        W30136  19.553  35.047   3.751
64910W        W30137   3.866  15.569   1.690
64911W        W30138  15.698  15.375  12.002
64912W        W30139   0.164  15.246  10.426
64913W        W30140  11.060  30.186  14.803
64914W        W30141  36.415  20.597   2.593
64915W        W30142  43.841  11.894  13.813
64916W        W30143  41.971   4.677  13.656
64917W        W30144  33.557  39.075   0.020
64918W        W30145  26.169   0.444   9.821
64919W        W30146  27.558  22.072  11.559
64920W        W30147  19.982  12.758   0.466
64921W        W30148  28.760  33.526  10.963
64922W        W30149  35.800  25.540  12.595
64923W        W30150  42.752  15.601   0.713
64924W        W30151  31.726  22.739   1.888
64925W        W30152  44.001  39.296   3.099
64926W        W30153  34.425  42.391  14.061
64927W        W30154  24.981  29.676   4.180
64928W        W30155  22.288  44.717  14.420
64929W        W30156  32.412   3.837   3.152
64930W        W30157   7.623   0.940   3.869
64931W        W30158  22.566   2.682   4.151
64932W        W30159  14.618  34.708  13.309
64933W        W30160  11.844  18.624  14.816
64934W        W30161  43.139  15.674  10.650
64935W        W30162   1.336  39.010   0.457
64936W        W30163  24.976  13.797  12.426
64937W        W30164  38.741   2.964   4.760
64938W        W30165  18.686  44.985   1.256
64939W        W30166  35.117   8.693   3.174
64940W        W30167   6.403  17.668  12.322
64941W        W30168  10.050  42.577  13.993
64942W        W30169  33.493  19.351  14.722
64943W        W30170  16.694  13.249  11.892
64944W        W30171  38.560   1.216   4.110
64945W        W30172  28.717  29.013   0.679
64946W        W30173  19.088  17.184   0.380
64947W        W30174  37.946   0.455   2.671
64948W        W30175  13.856  36.534   4.252
64949W        W30176  18.001  34.447  10.593
64950W        W30177   2.884   4.921  11.506
64951W        W30178  31.988  21.164   2.168
64952W        W30179  23.084  24.648   0.066
64953W        W30180  18.886   1.318  10.682
64954W        W30181  22.018   2.743  13.861
64955W        W30182  38.773  44.923   0.082
64956W        W30183  17.305  29.193   4.115
64957W        W30184  28.154  40.003  13.069
64958W        W30185   4.399  17.370   1.845
64959W        W30186  39.991  21.079  14.737
64960W        W30187  38.092   6.941   4.797
64961W        W30188  26.881  13.745  14.303
64962W        W30189  28.017  38.475   5.180
64963W        W30190  34.322  14.603   3.580
64964W        W30191  25.654  23.216   3.187
64965W        W30192   2.592   1.478  11.430
64966W        W30193  18.023  37.427   0.954
64967W        W30194  26.039  17.699   0.006
64968W        W30195  27.207  42.241   4.480
64969W        W30196  42.015   8.292   4.168
64970W        W30197  33.881  43.572  12.861
64971W        W30198  42.882  35.929  12.894
64972W        W30199  37.053  16.527  12.332
64973W        W30200   9.328  44.715  11.168
64974W        W30201   4.914  23.827   3.244
64975W        W30202  32.140  44.351   1.276
64976W        W30203  44.892  41.889  12.579
64977W        W30204  27.580  36.105   1.557
64978W        W30205   2.370  35.420   4.656
64979W        W30206  23.026  17.944  10.654
64980W        W30207  17.290   6.323   1.009
64981W        W30208  36.556  34.156  14.294
64982W        W30209  25.235  15.050  13.066
64983W        W30210  15.723  34.048  13.024
64984W        W30211  24.150  24.620   3.528
64985W        W30212  22.513   7.757  12.669
64986W        W30213  36.962  40.856  12.608
64987W        W30214  38.515  24.709   4.869
64988W        W30215  38.813  33.078  12.861
64989W        W30216   0.080  36.340   2.771
64990W        W30217  33.956  26.800   5.075
64991W        W30218  36.056  15.513   4.693
64992W        W30219  34.808  42.018  14.631
64993W        W30220  38.021  26.013  10.883
64994W        W30221  33.814  41.098   0.256
64995W        W30222  31.027  10.611  12.932
64996W        W30223  13.637  41.566  11.724
64997W        W30224  16.497  29.677  14.429
64998W        W30225   9.204  16.461   5.527
64999W        W30226  14.831  20.070   3.489
65000W        W30227  10.283   1.691   3.683
65001W        W30228  44.988  14.568   3.780
65002W        W30229   7.783  42.445   5.112
65003W        W30230  24.600  17.517   3.825
65004W        W30231  39.277   0.449  12.036
65005W        W30232  23.128  43.496   2.166
65006W        W30233  28.569   5.431   0.761
65007W        W30234   3.220  29.710   3.668
65008W        W30235  19.197  15.299  13.132
65009W        W30236  32.923  23.666   2.693
65010W        W30237  42.838  29.618   1.249
65011W        W30238  22.222   3.786   3.297
65012W        W30239   3.015  41.572  11.101
65013W        W30240  22.195   9.662   0.719
65014W        W30241   6.434   4.336  10.561
65015W        W30242  13.274   2.006  14.316
65016W        W30243   0.003   9.606  13.401
65017W        W30244  21.210  19.662  10.574
65018W        W30245   6.466  35.459  14.565
65019W        W30246  25.496   4.246   0.192
65020W        W30247   2.542  14.299  14.775
65021W        W30248   3.261  36.200  11.450
65022W        W30249  37.750   5.740  13.592
65023W        W30250  28.086  40.945   3.630
65024W        W30251  22.756  28.647   5.173
65025W        W30252   5.539  28.172   3.729
65026W        W30253   3.291  38.762   3.966
65027W        W30254  38.839  17.069  12.095
65028W        W30255  43.767   3.791  12.527
65029W        W30256  13.785  35.817  13.297
65030W        W30257   1.202  23.028  14.877
65031W        W30258  34.355  18.335   4.655
65032W        W30259  15.818   2.731   0.362
65033W        W30260  36.935  39.445   3.131
65034W        W30261  26.432  34.773   4.576
65035W        W30262   3.276   4.134  11.624
65036W        W30263  43.242  23.044  13.043
65037W        W30264  10.288   7.261   0.941
65038W        W30265  41.777  39.487   1.256
65039W        W30266   2.849  15.770   2.470
65040W        W30267   1.934  39.396   2.832
65041W        W30268  36.183  22.323   4.200
65042W        W30269  23.114  31.978  11.161
65043W        W30270  34.303  28.436   2.725
65044W        W30271  26.264   0.205   4.742
65045W        W30272   0.332  16.753   0.205
65046W        W30273  10.868  42.499   2.538
65047W        W30274  36.367  30.040  11.531
65048W        W30275  44.970   9.204   0.336
65049W        W30276  15.545  32.520  12.221
65050W        W30277  36.839  44.401  11.162
65051W        W30278  38.889   3.811  12.165
65052W        W30279   4.807  43.928  13.165
65053W        W30280  24.218  33.541   3.799
65054W        W30281  39.800  44.368   4.579
65055W        W30282  27.007  35.679  10.453
65056W        W30283   4.435  44.888   4.128
65057W        W30284  41.959  35.966  13.909
65058W        W30285  22.759  42.574   4.651
65059W        W30286   4.857   8.188   4.841
65060W        W30287  21.640  24.152   2.843
65061W        W30288  34.832  19.994   3.395
65062W        W30289  12.248  29.167  14.928
65063W        W30290  22.515  37.515  11.888
65064W        W30291  11.503  38.362   4.087
65065W        W30292  28.500   2.191   2.215
65066W        W30293  38.335  20.545   3.779
65067W        W30294  40.334  24.950  13.954
65068W        W30295   9.591  10.874  10.885
65069W        W30296  41.733   4.403   3.182
65070W        W30297  27.514  30.190   3.183
65071W        W30298  34.057  19.509  10.771
65072W        W30299  14.613  10.439   2.797
65073W        W30300  42.660  16.123   4.313
65074W        W30301  41.177  33.983  12.030
65075W        W30302  31.225  27.983   0.065
65076W        W30303  14.638  40.458  14.708
65077W        W30304  24.718  44.307  13.613
65078W        W30305  15.389  24.573  13.106
65079W        W30306  36.709  37.537   1.875
65080W        W30307  39.325  23.053  12.747
65081W        W30308  21.431  39.465  11.839
65082W        W30309  14.146  39.338   2.236
65083W        W30310  24.111  22.075  10.684
65084W        W30311  10.510  37.457  10.501
65085W        W30312  36.541  40.233   2.315
65086W        W30313  20.937   4.488   1.774
65087W        W30314  17.960  41.537   3.652
65088W        W30315   4.715  17.402  12.424
65089W        W30316  27.447  19.688  12.576
65090W        W30317  14.412  32.462   5.099
65091W        W30318  33.432   1.572  13.183
65092W        W30319  26.404   7.775  14.822
65093W        W30320  44.284  31.888   0.330
65094W        W30321  18.095  15.260   4.177
65095W        W30322   1.913  26.335   3.489
65096W        W30323  15.310  32.056   4.831
65097W        W30324  44.018   4.933  12.432
65098W        W30325  16.865  33.042   3.609
65099W        W30326  35.920  34.614   3.174
65100W        W30327  34.969  36.402  14.379
65101W        W30328  10.908  16.916   4.543
65102W        W30329  24.530  43.941  14.388
65103W        W30330  31.635  15.155   0.317
65104W        W30331  31.072  22.782   1.369
65105W        W30332  14.534  43.772  13.589
65106W        W30333  15.725  35.357  12.905
65107W        W30334   7.777  19.546  12.473
65108W        W30335  14.240  44.299  12.425
65109W        W30336  27.166   7.841   0.345
65110W        W30337  25.640  16.890   0.696
65111W        W30338  32.147  43.903   9.817
65112W        W30339  11.820  12.995   3.704
65113W        W30340   2.328  28.065  14.073
65114W        W30341  23.443  23.110   3.320
65115W        W30342   4.607  20.846   1.885
65116W        W30343  19.717   0.999  11.662
65117W        W30344  24.253  43.267  12.503
65118W        W30345   4.404  11.080   0.029
65119W        W30346  25.967  35.492  12.534
65120W        W30347  19.728  22.727   1.743
65121W        W30348  21.302  43.791   0.255
65122W        W30349   8.723  18.535   0.913
65123W        W30350  39.146  43.960   1.803
65124W        W30351  38.492  27.921   1.927
65125W        W30352  35.193  25.547  14.634
65126W        W30353   0.214  27.102  12.168
65127W        W30354  28.846  28.047   4.219
65128W        W30355  12.414  19.805   3.702
65129W        W30356  24.212  27.506  14.768
65130W        W30357   5.885   4.694   2.640
65131W        W30358   1.775  37.002  10.532
65132W        W30359  20.524   7.632  12.638
65133W        W30360  13.617  41.003   3.288
65134W        W30361  21.466  18.055   4.637
65135W        W30362  39.343  22.167   0.297
65136W        W30363  20.941  41.785  13.125
65137W        W30364  41.997   8.538   0.491
65138W        W30365  31.023  26.944  14.099
65139W        W30366  27.593  22.246  14.354
65140W        W30367  40.360   2.259  11.050
65141W        W30368  27.132   9.166   3.662
65142W        W30369  33.775  31.890  12.129
65143W        W30370  37.677   2.425  14.974
65144W        W30371  43.774  41.579   2.191
65145W        W30372  34.953  20.058   2.908
65146W        W30373  28.364   9.400   0.411
65147W        W30374  19.894  22.685   4.233
65148W        W30375  44.506  37.623   2.777
65149W        W30376  29.821  11.754  13.350
65150W        W30377   4.897  44.057   0.363
65151W        W30378  19.341  11.248   0.970
65152W        W30379  30.611  40.569   0.819
65153W        W30380   6.714  31.516   1.296
65154W        W30381  18.754  25.711  12.100
65155W        W30382  18.481  25.264   2.035
65156W        W30383  22.218  11.023  14.496
65157W        W30384  30.039  20.103   0.004
65158W        W30385  22.213  43.687  14.380
65159W        W30386   8.384  35.426   1.811
65160W        W30387  42.682  21.013   3.405
65161W        W30388  36.639   4.413  10.673
65162W        W30389  15.214   0.905   2.705
65163W        W30390  10.750  26.457  13.910
65164W        W30391  16.054  19.253   0.861
65165W        W30392  42.316  20.705   1.947
65166W        W30393   4.655  11.114   1.378
65167W        W30394  35.532  30.307  11.215
65168W        W30395  33.749  15.845  13.675
65169W        W30396  34.038   4.967   3.590
65170W        W30397  18.273  29.734   3.286
65171W        W30398  38.879   8.413   1.408
65172W        W30399  13.318  40.527   3.236
65173W        W30400  13.903  34.054   4.117
65174W        W30401  39.498  10.946   1.972
65175W        W30402  18.128   8.427   0.756
65176W        W30403  23.294   5.617  14.810
65177W        W30404  41.441  30.296  13.321
65178W        W30405  18.185  18.769   1.665
65179W        W30406  40.223  16.753  14.389
65180W        W30407  43.768   8.884  10.382
65181W        W30408  31.036  38.847   1.460
65182W        W30409  26.511  20.209   0.252
65183W        W30410  12.310  31.662   2.611
65184W        W30411  14.195  26.312   0.378
65185W        W30412  10.309  38.634  10.312
65186W        W30413  31.510  34.715   2.398
65187W        W30414  18.185   9.927  14.435
65188W        W30415  32.560   4.809   4.394
65189W        W30416  34.719  18.814  11.063
65190W        W30417  35.857  32.860   1.330
65191W        W30418  37.003  43.568   0.974
65192W        W30419  41.487   5.838   3.512
65193W        W30420  30.448  30.429  13.958
65194W        W30421  43.976  42.411  13.811
65195W        W30422  14.697   8.591  14.340
65196W        W30423  20.595  44.530  10.599
65197W        W30424   7.927  32.069  13.780
65198W        W30425  40.401  39.587   3.715
65199W        W30426  29.580  43.503   4.120
65200W        W30427  28.458  31.961  11.987
65201W        W30428  43.565  25.581   1.246
65202W        W30429   5.363  10.556   1.087
65203W        W30430  23.830  44.602  11.878
65204W        W30431  38.574  19.259   1.949
65205W        W30432   3.938  13.350   2.136
65206W        W30433   1.310  38.946   1.450
65207W        W30434  35.653  44.566   1.205
65208W        W30435  25.228   4.421   2.648
65209W        W30436  32.971  11.829  14.950
65210W        W30437  31.217  29.916   3.344
65211W        W30438  30.669  22.458   1.334
65212W        W30439  18.332   1.439   0.325
65213W        W30440  20.701  27.004  13.092
65214W        W30441  27.997  38.520   9.884
65215W        W30442   1.333   2.603  12.100
65216W        W30443   9.353  13.486  14.946
65217W        W30444  38.467  34.568  14.021
65218W        W30445  37.081  37.475   2.785
65219W        W30446   2.228   6.213  14.949
65220W        W30447   0.418   7.317   1.998
65221W        W30448  31.504  10.111  14.433
65222W        W30449  34.048  20.276   4.446
65223W        W30450   9.557  26.993  13.117
65224W        W30451  36.456   9.162  12.771
65225W        W30452  11.837  37.968   0.387
65226W        W30453  40.030  36.732  12.864
65227W        W30454   4.217  38.286  14.356
65228W        W30455  32.268  35.275   1.641
65229W        W30456  40.072   5.704  13.054
65230W        W30457   3.769   7.559  11.211
65231W        W30458  10.566  30.605   2.553
65232W        W30459  44.461   5.657   2.471
65233W        W30460  25.656  39.886   3.372
65234W        W30461  20.855  10.363   1.268
65235W        W30462  14.168   9.307  11.305
65236W        W30463   2.219  29.382  13.473
65237W        W30464   4.496   7.385   0.301
65238W        W30465  41.978   0.764   4.590
65239W        W30466  31.366  23.843  11.607
65240W        W30467  27.261  37.780  14.319
65241W        W30468  38.422  13.544   3.645
65242W        W30469  36.138  10.259  10.439
65243W        W30470  22.136   3.943   4.224
65244W        W30471  12.461  39.658   0.159
65245W        W30472  13.361  11.784   1.058
65246W        W30473  44.427  22.467   2.338
65247W        W30474   7.862  22.323   2.828
65248W        W30475  42.469   8.789   0.749
65249W        W30476   7.137  26.073  12.114
65250W        W30477   8.296  37.830   4.446
65251W        W30478  35.149  22.402   4.274
65252W        W30479  37.510  30.131  10.321
65253W        W30480   9.405  18.824   4.826
65254W        W30481  27.836  20.799   9.902
65255W        W30482  21.553  22.165   4.693
65256W        W30483  35.559  40.554  14.015
65257W        W30484   4.120  26.991  10.290
65258W        W30485  37.876  26.063  12.087
65259W        W30486  41.422  23.331   3.097
65260W        W30487  29.920  25.592  12.949
65261W        W30488  21.567   3.509  12.900
65262W        W30489  21.125  38.784   2.712
65263W        W30490  10.564  43.349  14.737
65264W        W30491  30.140   8.409   1.012
65265W        W30492  11.233  12.532   2.627
65266W        W30493  28.137  43.919   0.305
65267W        W30494   2.749  12.804   4.440
65268W        W30495   0.484  15.601  11.399
65269W        W30496  43.280  11.852  12.028
65270W        W30497   2.285  24.871  11.210
65271W        W30498   3.393   6.469  11.211
65272W        W30499  17.990  26.288  12.843
65273W        W30500   0.627  27.877   3.151
65274W        W30501  23.524  37.978  13.082
65275W        W30502   0.703  16.172  11.103
65276W        W30503  10.311  16.069  12.215
65277W        W30504  16.059  29.406  14.415
65278W        W30505  11.850  36.080  13.928
65279W        W30506  44.566  30.898  10.274
65280W        W30507  30.629  22.773   0.925
65281W        W30508  28.294  30.803   5.061
65282W        W30509  37.357   2.750  13.590
65283W        W30510  14.245  14.837  10.757
65284W        W30511  21.080  10.766  11.828
65285W        W30512  38.974  19.146  12.596
65286W        W30513  24.695  31.995   4.123
65287W        W30514   9.206  44.084   3.937
65288W        W30515  31.928  23.938   2.729
65289W        W30516  14.305  42.208  12.510
65290W        W30517  28.481  13.013   2.798
65291W        W30518  23.225  18.087  12.693
65292W        W30519  44.761  13.336  11.271
65293W        W30520   8.641  23.191   3.684
65294W        W30521   6.329  24.026  10.669
65295W        W30522   5.370  11.409   4.096
65296W        W30523  33.876  38.872  13.490
65297W        W30524  13.267  15.484   3.212
65298W        W30525  28.162   6.973   3.243
65299W        W30526  40.311  43.799   1.258
65300W        W30527  18.727  39.275   2.827
65301W        W30528  33.911  16.558  14.799
65302W        W30529  17.302   9.458  12.969
65303W        W30530  18.690   1.905   1.977
65304W        W30531  12.908  40.733   4.556
65305W        W30532  15.316   6.407   1.243
65306W        W30533  44.590  38.576  13.973
65307W        W30534  17.877  20.199   3.779
65308W        W30535   5.171   7.865   2.294
65309W        W30536  26.495  19.115  11.549
65310W        W30537  33.113  44.069   1.769
65311W        W30538  32.305  44.309  12.564
65312W        W30539  39.041   0.219   1.844
65313W        W30540  31.969  32.850   0.874
65314W        W30541  44.438  37.733  13.845
65315W        W30542  23.593  34.100   2.287
65316W        W30543  36.445  12.134  13.865
65317W        W30544  16.690  14.749   3.014
65318W        W30545  36.909  32.619  10.632
65319W        W30546  41.502   3.168   1.597
65320W        W30547  33.284  11.325  14.880
65321W        W30548  19.322   5.005  12.845
65322W        W30549  39.445  45.000  11.788
65323W        W30550  23.106  14.870   3.327
65324W        W30551  44.515  35.782  10.398
65325W        W30552  27.921  13.423   1.673
65326W        W30553  20.058  43.963   2.640
65327W        W30554   0.841  30.292  10.052
65328W        W30555   6.014   0.707  12.574
65329W        W30556  30.567  20.931  14.034
65330W        W30557  23.203  32.434  14.501
65331W        W30558   9.910  44.846  14.874
65332W        W30559  19.552  29.161   4.939
65333W        W30560  22.540  42.262   1.004
65334W        W30561  18.116   4.756  12.538
65335W        W30562  37.971  33.547  10.801
65336W        W30563  18.991  36.807  12.899
65337W        W30564  36.800  25.448  12.988
65338W        W30565  19.508  27.307   0.507
65339W        W30566  20.270  34.456  12.483
65340W        W30567  41.618  27.711  12.961
65341W        W30568  19.015   2.221   4.186
65342W        W30569  35.698  18.945   0.675
65343W        W30570   8.714  17.013   4.116
65344W        W30571   9.740  44.925   2.974
65345W        W30572  39.651  40.978  12.574
65346W        W30573  18.214  21.648  12.070
65347W        W30574  18.638  34.017  11.464
65348W        W30575  33.417   7.792   0.802
65349W        W30576   3.800  27.575  14.018
65350W        W30577  23.461  37.050  12.888
65351W        W30578  13.274  38.509   0.925
65352W        W30579  35.598  17.005  12.344
65353W        W30580  16.264  14.206   5.027
65354W        W30581   2.774  34.315   0.054
65355W        W30582   7.185   1.223  13.387
65356W        W30583  22.303  25.211   2.296
65357W        W30584  16.682  22.093  10.767
65358W        W30585   0.246   1.387   3.174
65359W        W30586   8.506  33.503   1.216
65360W        W30587  40.396  37.944   4.428
65361W        W30588  19.237  28.637  14.775
65362W        W30589  16.311   7.252  10.690
65363W        W30590  36.790  42.301  12.535
65364W        W30591  39.512  13.589  14.938
65365W        W30592   5.223  23.187  13.883
65366W        W30593  35.402  22.802   2.264
65367W        W30594   2.491  15.839   1.700
65368W        W30595  15.559  31.012   0.137
65369W        W30596  28.467  21.742   1.711
65370W        W30597  39.149  23.586   2.206
65371W        W30598  24.034   7.193  14.817
65372W        W30599  41.122  41.435   3.634
65373W        W30600  11.343  18.673  14.816
65374W        W30601   7.975   0.884  11.585
65375W        W30602   4.884  27.909  12.341
65376W        W30603  26.484   6.015   4.450
65377W        W30604  30.033  22.140  12.748
65378W        W30605  15.130  29.215   2.165
65379W        W30606  41.971  15.556   4.645
65380W        W30607  38.290  31.523   1.967
65381W        W30608   2.987  33.529  10.608
65382W        W30609   6.496  12.143   2.709
65383W        W30610   0.463  22.471   2.818
65384W        W30611  35.354  11.243   0.824
65385W        W30612  44.501  16.067   0.430
65386W        W30613  23.007  36.853  12.412
65387W        W30614  29.013  31.417   1.068
65388W        W30615  27.715  15.795  13.741
65389W        W30616  16.900  27.984   1.357
65390W        W30617  35.125   5.839   2.457
65391W        W30618  28.172   3.023  11.494
65392W        W30619  28.431  36.040   1.501
65393W        W30620  37.139  42.467   4.346
65394W        W30621  28.646  22.303   2.648
65395W        W30622  43.518  16.971   4.510
65396W        W30623  34.607  18.212   2.706
65397W        W30624  35.886  34.860  11.535
65398W        W30625   4.629  23.759   0.876
65399W        W30626  39.987  13.154   0.737
65400W        W30627  24.686  39.826  11.585
65401W        W30628   0.368  21.117  13.838
65402W        W30629  16.045   2.070  11.648
65403W        W30630  23.226  16.150   1.951
65404W        W30631  43.277  38.967   2.658
65405W        W30632  16.716  36.053  12.463
65406W        W30633   1.038  25.971   0.348
65407W        W30634  37.383   2.743  13.083
65408W        W30635  35.051  28.543  11.144
65409W        W30636  40.384   5.393   0.519
65410W        W30637   1.464  14.588  13.715
65411W        W30638   9.884  37.451   4.237
65412W        W30639   7.427  28.826  12.012
65413W        W30640  13.980  21.726   1.483
65414W        W30641  12.226  36.479  11.244
65415W        W30642  21.702  30.896  11.663
65416W        W30643  17.415  27.925   2.282
65417W        W30644  28.935  43.957   1.620
65418W        W30645  40.342  43.335  11.095
65419W        W30646  33.521  20.141   2.719
65420W        W30647  19.620  23.003   2.776
65421W        W30648  24.606   5.157   2.404
65422W        W30649   2.498   0.569   3.046
65423W        W30650  44.345  36.893   5.233
65424W        W30651  37.694  18.457   9.830
65425W        W30652   6.153  30.460   0.991
65426W        W30653   5.873   6.640  12.454
65427W        W30654  37.297   8.678   0.786
65428W        W30655  28.731  42.054   2.294
65429W        W30656  41.616   6.327   3.282
65430W        W30657  33.050   6.333   1.872
65431W        W30658  12.775   8.737   4.132
65432W        W30659   8.628  43.278  11.140
65433W        W30660  17.150  27.703   1.784
65434W        W30661   4.633  38.385  13.670
65435W        W30662   2.076  39.407  14.515
65436W        W30663   2.371  10.848   1.326
65437W        W30664  23.292   7.921   0.993
65438W        W30665  38.647  37.123   4.089
65439W        W30666  32.179  14.428   2.336
65440W        W30667   9.228   1.731   5.105
65441W        W30668  27.699  24.839   3.598
65442W        W30669  33.185  39.835  14.040
65443W        W30670  35.079  26.821  12.462
65444W        W30671  40.013  27.752  10.748
65445W        W30672   3.987  28.237  10.961
65446W        W30673   0.762  24.911  11.265
65447W        W30674  19.168  12.498  13.108
65448W        W30675   1.454   5.420   1.836
65449W        W30676  23.136  30.062   4.596
65450W        W30677  13.550  18.733   4.405
65451W        W30678   6.592  33.702   1.275
65452W        W30679  34.810   2.813  12.395
65453W        W30680  19.392  12.588  11.565
65454W        W30681  36.502   1.655   1.977
65455W        W30682   2.434  17.323   1.891
65456W        W30683  19.322  33.514   2.439
65457W        W30684   4.695  34.339  11.686
65458W        W30685  21.501  31.984   0.343
65459W        W30686  24.813  27.131  13.711
65460W        W30687   6.319  42.462  10.803
65461W        W30688  35.085   1.192  14.292
65462W        W30689  31.469  31.438  12.557
65463W        W30690  11.300  10.119   3.763
65464W        W30691  30.993  32.604   4.108
65465W        W30692  12.795  26.239   3.709
65466W        W30693   5.821  44.498   3.194
65467W        W30694  21.127  41.055  11.027
65468W        W30695  32.837  31.533  11.990
65469W        W30696   1.798  32.044   1.847
65470W        W30697  14.568  36.655  11.505
65471W        W30698  36.911   4.900   3.124
65472W        W30699  31.671  40.359   4.693
65473W        W30700  28.388  30.616  13.800
65474W        W30701  16.571   4.787   1.530
65475W        W30702  18.221   9.192   1.176
65476W        W30703   8.250  44.971  12.664
65477W        W30704  18.751   3.731   2.897
65478W        W30705  13.063  13.533  13.989
65479W        W30706   8.614   7.677  12.882
65480W        W30707  23.002  18.007   2.835
65481W        W30708  22.631   3.264  11.598
65482W        W30709  33.138  12.260  11.655
65483W        W30710   7.282  34.396  12.953
65484W        W30711  40.647  12.676   0.694
65485W        W30712  36.741  28.899   3.578
65486W        W30713  12.101  22.245   0.333
65487W        W30714  34.614  16.670  12.955
65488W        W30715   6.876  20.172   3.650
65489W        W30716  24.607  13.264  10.743
65490W        W30717  11.966  11.610  14.895
65491W        W30718  16.856  29.563   0.184
65492W        W30719  42.774  27.484   3.344
65493W        W30720  27.211  16.101  12.503
65494W        W30721   8.324  40.131   3.313
65495W        W30722   1.973  20.229   3.591
65496W        W30723  40.838  25.062  10.986
65497W        W30724  28.631  24.172   4.783
65498W        W30725  42.375  37.392  12.448
65499W        W30726  44.411  24.965   3.629
65500W        W30727  29.686  17.105   2.794
65501W        W30728  37.035  27.001  13.552
65502W        W30729  43.330   2.866  12.105
65503W        W30730  26.753  29.012  13.368
65504W        W30731   3.961  25.584  12.375
65505W        W30732  26.968  35.583  14.405
65506W        W30733   1.447  39.073   4.311
65507W        W30734  30.426  21.280   0.366
65508W        W30735  28.145  32.930   4.144
65509W        W30736   1.945  17.269   1.677
65510W        W30737  10.192  29.965  14.997
65511W        W30738  43.677  12.797   0.234
65512W        W30739  35.559  12.211  13.341
65513W        W30740   5.720  33.906   2.883
65514W        W30741  19.548  16.078  13.283
65515W        W30742  30.416  12.383  11.527
65516W        W30743  42.363  34.889  14.003
65517W        W30744   7.712  31.576  14.349
65518W        W30745  39.440  25.420  10.796
65519W        W30746  25.460  12.746   4.546
65520W        W30747  25.595  10.501  11.645
65521W        W30748  23.128  34.494   2.920
65522W        W30749  15.844  13.198   3.306
65523W        W30750   2.496   2.982  14.992
65524W        W30751  12.016  44.270   3.632
65525W        W30752  21.318  15.168  14.994
65526W        W30753  28.070  36.810  13.469
65527W        W30754  22.016   1.910   1.786
65528W        W30755   1.178  43.822   3.144
65529W        W30756  26.446  23.598   1.003
65530W        W30757  35.365  41.856   4.444
65531W        W30758  10.851  16.700   1.317
65532W        W30759  37.968   5.718  12.426
65533W        W30760  42.887   2.719  11.844
65534W        W30761  31.370  24.126  14.862
65535W        W30762  43.735  22.107   4.582
65536W        W30763  28.035   9.823   4.302
65537W        W30764  36.590  38.621   1.054
65538W        W30765  15.782   4.310   0.481
65539W        W30766  41.867  39.652   3.929
65540W        W30767   7.796  42.857  12.848
65541W        W30768   1.698  21.783  12.544
65542W        W30769  38.609  44.425  11.200
65543W        W30770  29.783  31.647   1.342
65544W        W30771  23.643  24.492  12.972
65545W        W30772  32.950  28.133  11.619
65546W        W30773  43.795  37.848   3.818
65547W        W30774  20.097  19.201   4.889
65548W        W30775  35.445   5.411  11.120
65549W        W30776  24.391  33.662   1.327
65550W        W30777  21.304   8.348  11.535
65551W        W30778  24.209  21.764  13.144
65552W        W30779  23.224   6.738   1.219
65553W        W30780  14.643  25.099   4.691
65554W        W30781  31.134  26.016  12.305
65555W        W30782  11.768  29.007   0.124
65556W        W30783  37.845  28.477  14.844
65557W        W30784  29.344  20.718  14.905
65558W        W30785  35.877  43.887   1.699
65559W        W30786  18.140  11.171   2.346
65560W        W30787   8.845  39.053   0.040
65561W        W30788  30.847  11.126   1.920
65562W        W30789  36.640  14.270  13.042
65563W        W30790  30.639   6.135  14.853
65564W        W30791  14.055   2.878   1.263
65565W        W30792  44.154   3.797  13.801
65566W        W30793  43.773   4.213  11.614
65567W        W30794  33.895  13.629   3.623
65568W        W30795  14.801  33.343   2.621
65569W        W30796  12.781  13.700  12.732
65570W        W30797  11.571  14.345   4.052
65571W        W30798  24.454  19.988  11.122
65572W        W30799  39.537  29.208   2.708
65573W        W30800  14.187  36.493   2.177
65574W        W30801   8.603  37.349   4.493
65575W        W30802  37.306  19.240   1.323
65576W        W30803   6.199  29.919   2.760
65577W        W30804  42.108  16.274  12.584
65578W        W30805  21.655  26.203   1.916
65579W        W30806  40.535  32.034   5.052
65580W        W30807  44.118  33.875  11.533
65581W        W30808  28.368  24.627   4.601
65582W        W30809   9.101  29.229   2.280
65583W        W30810  34.657  14.994   3.718
65584W        W30811   7.080  41.487   1.093
65585W        W30812   4.549   8.731   4.134
65586W        W30813  43.072  38.742  10.045
65587W        W30814   0.865  43.318  13.762
65588W        W30815  13.134  21.344   4.567
65589W        W30816  32.069  39.858   0.316
65590W        W30817  26.975  11.836  11.665
65591W        W30818   3.352  29.600  14.753
65592W        W30819  31.517   8.940  11.234
65593W        W30820   9.367   8.091   2.670
65594W        W30821  43.090   3.290  13.282
65595W        W30822  38.565  27.697   3.941
65596W        W30823  18.725  15.601  13.326
65597W        W30824  25.917  44.337  11.617
65598W        W30825  32.927  36.155   2.736
65599W        W30826  32.439  30.613   3.208
65600W        W30827   0.471   1.239   0.715
65601W        W30828  25.565   6.189  11.174
65602W        W30829  14.344  40.376  14.256
65603W        W30830  33.851   8.804   2.767
65604W        W30831  18.404  40.017   1.883
65605W        W30832  43.542  10.109   1.376
65606W        W30833   7.572  38.704  10.977
65607W        W30834  18.676   5.154  13.147
65608W        W30835  42.274   5.624  14.637
65609W        W30836  33.363  27.643  10.805
65610W        W30837  36.117  12.749   4.312
65611W        W30838  28.080  16.561   1.174
65612W        W30839  39.102  11.271   1.207
65613W        W30840  35.510  28.406  14.846
65614W        W30841  42.802   7.234   4.999
65615W        W30842  11.257  43.766   3.610
65616W        W30843  26.221  16.150  13.370
65617W        W30844  34.226  21.081   5.044
65618W        W30845  28.337   6.385   0.331
65619W        W30846  29.114   9.645   3.257
65620W        W30847   6.152  19.968  13.812
65621W        W30848  43.643  16.460   4.578
65622W        W30849  17.539  33.732   3.986
65623W        W30850  19.713  23.463   1.393
65624W        W30851   2.434  20.597   0.298
65625W        W30852  29.361  43.405  13.691
65626W        W30853  10.080  16.441  10.378
65627W        W30854   2.279  10.187  13.163
65628W        W30855  38.367  32.709   3.112
65629W        W30856  13.501  20.049  14.090
65630W        W30857   6.221  12.439  13.479
65631W        W30858  19.994  19.723   3.128
65632W        W30859  21.061  38.936   4.061
65633W        W30860   9.255  38.876   2.867
65634W        W30861  29.038   0.006  14.991
65635W        W30862  43.914   4.955   1.935
65636W        W30863  38.514  40.525  12.204
65637W        W30864  26.749   4.025  12.067
65638W        W30865  11.694  18.652  10.911
65639W        W30866   6.579   6.389  14.874
65640W        W30867  44.629  16.738  11.700
65641W        W30868  24.241   1.028   3.924
65642W        W30869  27.295  36.376  10.593
65643W        W30870  43.978  17.533  10.310
65644W        W30871  36.427   2.052  11.614
65645W        W30872  10.808  14.879   1.783
65646W        W30873  16.182  35.283  12.649
65647W        W30874  40.551  28.216  14.448
65648W        W30875  31.139  22.260   1.443
65649W        W30876  10.292  35.526   9.456
65650W        W30877   6.338  38.491   2.382
65651W        W30878   3.756  18.109   4.427
65652W        W30879  25.817  15.903  13.632
65653W        W30880  10.857  15.597   0.407
65654W        W30881  38.473  31.994  10.703
65655W        W30882   1.355   6.807  11.039
65656W        W30883  31.865  35.741   4.989
65657W        W30884  21.794  34.866  12.557
65658W        W30885  26.225  37.874  11.171
65659W        W30886  34.685  27.534  11.129
65660W        W30887   0.580  42.635   2.671
65661W        W30888  12.380  26.046   0.225
65662W        W30889  33.144  32.844   2.673
65663W        W30890  12.665  26.898  13.335
65664W        W30891  21.307  38.414   2.249
65665W        W30892  33.418   0.737  13.420
65666W        W30893  28.576   4.168  11.677
65667W        W30894  33.940  10.348   2.354
65668W        W30895  20.271  25.211   4.990
65669W        W30896  41.373  25.155   0.331
65670W        W30897  38.903  16.367   1.030
65671W        W30898   1.066  21.304  12.069
65672W        W30899   7.809  17.891  10.338
65673W        W30900  21.079  39.843  14.723
65674W        W30901   2.025  20.922   3.198
65675W        W30902  37.944  10.830  11.523
65676W        W30903  12.278  14.538   3.107
65677W        W30904  18.600  41.313  10.661
65678W        W30905  33.147  35.560   2.832
65679W        W30906   7.414  39.588  13.791
65680W        W30907   2.281  10.512   4.082
65681W        W30908  15.325   8.732  10.041
65682W        W30909   0.432   4.974   1.331
65683W        W30910  12.169  38.200   3.707
65684W        W30911  26.572   6.501   3.060
65685W        W30912   1.238   1.205   1.412
65686W        W30913  16.993   4.820  10.953
65687W        W30914   4.272  25.534   3.095
65688W        W30915   6.322  27.901  12.429
65689W        W30916  28.167   2.250  14.971
65690W        W30917   5.347  25.877  11.415
65691W        W30918  42.291  39.415  11.448
65692W        W30919  15.063  12.787  14.369
65693W        W30920   9.791   8.794  11.530
65694W        W30921  41.175  11.331  10.735
65695W        W30922  41.889  25.739  14.835
65696W        W30923  43.759  43.160   4.606
65697W        W30924  22.959  30.649  12.719
65698W        W30925  41.770  21.259  13.249
65699W        W30926  20.756  39.046  13.106
65700W        W30927   7.887  33.089   4.257
65701W        W30928  26.429  38.993   1.872
65702W        W30929  34.944  38.654  12.372
65703W        W30930   0.918  35.621  11.630
65704W        W30931   9.872  19.874   0.875
65705W        W30932  44.800   1.025  11.463
65706W        W30933   3.429   5.894   5.048
65707W        W30934  29.299   8.619   2.349
65708W        W30935   1.866  38.470  11.952
65709W        W30936  14.829  16.049   3.615
65710W        W30937  28.047  18.473   2.305
65711W        W30938  38.084  31.117  12.520
65712W        W30939   4.950  28.625  13.705
65713W        W30940  33.439  14.058  14.071
65714W        W30941   2.514  31.005  13.787
65715W        W30942  10.181  25.718  11.661
65716W        W30943   1.383  12.202   3.164
65717W        W30944  44.638  38.648   2.756
65718W        W30945  27.629  20.555  10.607
65719W        W30946  38.005   6.954  14.018
65720W        W30947   3.716   4.593  11.144
65721W        W30948  18.268   3.070  14.723
65722W        W30949  12.331  36.469  13.070
65723W        W30950  17.607  32.213   2.417
65724W        W30951   9.329  25.106  13.347
65725W        W30952   3.720  38.520   3.202
65726W        W30953  16.055  22.528  11.940
65727W        W30954  14.118   2.860   4.626
65728W        W30955  25.548  16.751  12.053
65729W        W30956  43.728   2.927  11.230
65730W        W30957  36.519  26.306  13.193
65731W        W30958  25.680  14.033   0.598
65732W        W30959   4.190   7.861   2.897
65733W        W30960  35.874  35.699   5.206
65734W        W30961   0.415  34.592  12.798
65735W        W30962  19.704  12.981  14.426
65736W        W30963  25.093  34.963   5.030
65737W        W30964  14.507  18.015   5.039
65738W        W30965  31.630  44.980   1.698
65739W        W30966  13.266   6.193   4.249
65740W        W30967   9.237  16.304  14.952
65741W        W30968  12.289  41.417   4.109
65742W        W30969  22.761   4.736  12.544
65743W        W30970  25.523  28.683  12.957
65744W        W30971  42.789   6.517  11.734
65745W        W30972  10.888  19.672  12.979
65746W        W30973  18.688   9.343  13.882
65747W        W30974  28.022  22.000  12.900
65748W        W30975  30.973   9.643  13.490
65749W        W30976  43.089  18.042   4.965
65750W        W30977  29.603  11.859  13.800
65751W        W30978  33.435  15.047  14.428
65752W        W30979  24.591   1.894  14.983
65753W        W30980  21.509  34.554   3.423
65754W        W30981  40.379  40.648   1.422
65755W        W30982  25.999  38.958  10.725
65756W        W30983  42.214  35.289   2.298
65757W        W30984  18.736   5.970   1.710
65758W        W30985  21.756  44.887   3.734
65759W        W30986   5.425  29.103   0.251
65760W        W30987  18.298   7.342   2.928
65761W        W30988  18.527   8.232  13.993
65762W        W30989  20.074   6.796   3.645
65763W        W30990  36.455  42.245  12.160
65764W        W30991  17.534  33.126   2.698
65765W        W30992   8.278  34.620   1.123
65766W        W30993  26.158  37.471  10.594
65767W        W30994  25.976  32.923   2.730
65768W        W30995   2.507   6.681   4.049
65769W        W30996  20.044  21.357  13.787
65770W        W30997  23.672   4.744   0.460
65771W        W30998  13.607   8.001  14.365
65772W        W30999  20.170  13.020   2.337
65773W        W31000  18.049  18.022  14.569
65774W        W31001  32.023  23.586  12.735
65775W        W31002   0.328   6.016  12.456
65776W        W31003  26.292  41.451  11.656
65777W        W31004   7.421  40.910  14.893
65778W        W31005  42.829  38.016  12.973
65779W        W31006   4.144  22.325   1.928
65780W        W31007   1.414   7.617   1.808
65781W        W31008  30.699  16.220  13.256
65782W        W31009  28.459   5.324   2.165
65783W        W31010   5.743  40.202  13.404
65784W        W31011  43.433  19.120  13.580
65785W        W31012  37.710  10.272   0.794
65786W        W31013   0.462  38.149  14.476
65787W        W31014   7.323  16.661  14.015
65788W        W31015   3.701  24.118   0.728
65789W        W31016   5.686  32.097  13.900
65790W        W31017  22.440   8.870   4.688
65791W        W31018   6.863  32.990   3.587
65792W        W31019  35.838  36.356  12.817
65793W        W31020  26.718  14.007   2.455
65794W        W31021   3.784   9.264  14.788
65795W        W31022  31.635  22.212   0.018
65796W        W31023  43.508  17.668  13.038
65797W        W31024   9.866  44.714   0.772
65798W        W31025  43.487  14.242   0.938
65799W        W31026  22.512   1.710  14.977
65800W        W31027  34.816  27.708  13.855
65801W        W31028   3.744  18.989  14.817
65802W        W31029   1.769  24.654   2.819
65803W        W31030  21.063  11.790  11.594
65804W        W31031   0.786   7.278  12.589
65805W        W31032  39.462  39.824   1.768
65806W        W31033   5.684  24.968  13.918
65807W        W31034   3.208  15.250   1.749
65808W        W31035   8.307  11.113  13.078
65809W        W31036   6.155  20.034   4.191
65810W        W31037  39.542  41.434   3.766
65811W        W31038  24.163  27.681   3.115
65812W        W31039  18.997  22.147  11.243
65813W        W31040  11.934  37.122   4.498
65814W        W31041  39.799  20.606   2.857
65815W        W31042  33.692  38.986  12.220
65816W        W31043  15.564  32.504  10.199
65817W        W31044   0.472  23.010   2.821
65818W        W31045  44.564  17.944   4.934
65819W        W31046  14.687  25.495   3.792
65820W        W31047  28.550  24.234   1.991
65821W        W31048  24.232  26.970  12.436
65822W        W31049  31.932  26.002   3.875
65823W        W31050  26.823  30.886  14.893
65824W        W31051   4.333  10.438  13.955
65825W        W31052  28.568  27.628  12.069
65826W        W31053   3.486  12.115   0.304
65827W        W31054  31.127  13.682   0.792
65828W        W31055  44.676   1.277   4.081
65829W        W31056  28.976  39.705   5.131
65830W        W31057  10.633   8.212   3.408
65831W        W31058  23.038   3.886  12.984
65832W        W31059  36.204  43.942  14.358
65833W        W31060  11.472  33.513  12.462
65834W        W31061  12.126   3.089  11.115
65835W        W31062  10.115  19.142  13.923
65836W        W31063  13.913  43.465  14.423
65837W        W31064  38.258   9.806   2.393
65838W        W31065  30.564  39.415  14.430
65839W        W31066  37.451  31.452  10.861
65840W        W31067  37.939  29.093   2.441
65841W        W31068  40.540  11.360  13.359
65842W        W31069  39.167  30.659  14.805
65843W        W31070  19.069  43.383   2.284
65844W        W31071  11.310   6.099  14.757
65845W        W31072  15.127   1.412  14.351
65846W        W31073  11.151  39.084   1.490
65847W        W31074   5.692  38.545   4.731
65848W        W31075  38.634  14.613  11.180
65849W        W31076  28.096  13.103  13.881
65850W        W31077  23.827  16.118   4.674
65851W        W31078  14.826   0.569  11.595
65852W        W31079  26.138   2.873   2.335
65853W        W31080  31.916   0.767  14.542
65854W        W31081   3.174   5.860  14.056
65855W        W31082   7.484  20.181  11.641
65856W        W31083  39.454  22.804  13.949
65857W        W31084  44.400  41.280  12.992
65858W        W31085  28.389  24.804   4.110
65859W        W31086  26.835   2.817   4.629
65860W        W31087  13.211   6.841  13.780
65861W        W31088  41.885  23.500   3.707
65862W        W31089  12.693  12.480  12.956
65863W        W31090  17.045  16.503  13.542
65864W        W31091   1.416   3.867  13.386
65865W        W31092  27.876   6.096   0.351
65866W        W31093  10.393  10.387  11.195
65867W        W31094  23.983  27.285   4.576
65868W        W31095   1.176  35.288   4.226
65869W        W31096  17.332  10.051   0.333
65870W        W31097  20.051  29.892  12.120
65871W        W31098  32.692   4.399   3.997
65872W        W31099   5.307  19.374  14.476
65873W        W31100  23.594  21.488   2.331
65874W        W31101  34.447  21.686  12.353
65875W        W31102  37.362   4.025  11.030
65876W        W31103  14.651  26.780  13.145
65877W        W31104   0.319  35.417  10.489
65878W        W31105  16.787  33.957   2.098
65879W        W31106   6.978  24.912   2.676
65880W        W31107  31.156   7.677   3.701
65881W        W31108   9.950  25.190  12.927
65882W        W31109  10.139  18.610  13.951
65883W        W31110   7.199  32.855   3.986
65884W        W31111  21.453  35.100  14.319
65885W        W31112  41.127  35.832  12.420
65886W        W31113  16.231  12.251  11.946
65887W        W31114  39.404  25.441  14.428
65888W        W31115  40.660   3.225   1.948
65889W        W31116   5.645  12.746   1.470
65890W        W31117  14.580  18.568  14.400
65891W        W31118   3.908  23.919  11.102
65892W        W31119  20.496  39.440   3.658
65893W        W31120   9.977   2.186  13.399
65894W        W31121  19.210  13.626  13.945
65895W        W31122  11.803  33.488   0.496
65896W        W31123  39.439  21.424   0.695
65897W        W31124  30.970   3.266   2.239
65898W        W31125  34.834  28.436   0.735
65899W        W31126  34.993  33.048  11.646
65900W        W31127  20.160  11.906  12.598
65901W        W31128  39.361  18.941   2.136
65902W        W31129  39.105  15.638  13.109
65903W        W31130  31.040   9.189   1.039
65904W        W31131   3.809  20.344  14.887
65905W        W31132  40.049  12.662  12.384
65906W        W31133  41.703   1.838   5.020
65907W        W31134  39.506  33.890   4.628
65908W        W31135  36.723  30.592  10.732
65909W        W31136  21.054   7.011   4.956
65910W        W31137  41.148  29.210   2.674
65911W        W31138  16.755  37.497  13.977
65912W        W31139  14.486   1.594   3.254
65913W        W31140  24.656  38.584   1.381
65914W        W31141  33.856  43.265  12.452
65915W        W31142  32.557  41.415   0.275
65916W        W31143   4.499  19.254   4.216
65917W        W31144  32.939  29.792   1.774
65918W        W31145  18.355  24.049  13.415
65919W        W31146   3.681  12.490   2.176
65920W        W31147   2.858   9.603   2.325
65921W        W31148  39.988  22.534   0.335
65922W        W31149   4.318  11.875  14.737
65923W        W31150  12.264  38.890  14.432
65924W        W31151  26.052   2.541  14.879
65925W        W31152  42.705  32.201   0.434
65926W        W31153  36.539   0.488   4.788
65927W        W31154  18.460  28.512  10.754
65928W        W31155  35.317  12.181   4.189
65929W        W31156  11.531  44.585   0.500
65930W        W31157  38.565   9.566  11.620
65931W        W31158  17.285  12.315  12.910
65932W        W31159  27.506  42.266   3.669
65933W        W31160  30.718   0.980  13.311
65934W        W31161  28.946  33.939   0.442
65935W        W31162  37.400   9.318  10.217
65936W        W31163  14.629   9.784  12.461
65937W        W31164  44.829   0.918  12.120
65938W        W31165  20.660   4.404  14.108
65939W        W31166  15.014  43.466   3.552
65940W        W31167  31.179  13.123  12.847
65941W        W31168  25.928  34.466   0.397
65942W        W31169  29.387  19.206  12.533
65943W        W31170  27.219  33.848  13.974
65944W        W31171  22.714  23.424   3.721
65945W        W31172   2.220  34.871  13.092
65946W        W31173  24.814  34.829  12.965
65947W        W31174  15.799   8.419  14.791
65948W        W31175  20.274  36.721  14.785
65949W        W31176   8.385   4.426  13.585
65950W        W31177  18.172  26.923   1.677
65951W        W31178   0.975  18.183   2.831
65952W        W31179   6.957   4.446  10.806
65953W        W31180  43.914   3.192   3.696
65954W        W31181  19.373   7.605  14.921
65955W        W31182  35.901  11.228   0.824
65956W        W31183  22.529  12.620   3.674
65957W        W31184  13.579  41.107  13.484
65958W        W31185   9.569  32.084  11.623
65959W        W31186  15.038  12.289   0.470
65960W        W31187  28.304  13.334  13.061
65961W        W31188   8.962  31.138   1.361
65962W        W31189  36.032  24.608  13.814
65963W        W31190  41.155  37.214   4.034
65964W        W31191  43.230  44.576   2.251
65965W        W31192  12.225  42.481   2.784
65966W        W31193  43.593  31.666   3.292
65967W        W31194   1.092  39.820  12.962
65968W        W31195  41.525  43.439   2.784
65969W        W31196  29.044  31.606  11.227
65970W        W31197  37.067  13.393   2.306
65971W        W31198  11.203   4.500  13.759
65972W        W31199   8.356  12.779   1.142
65973W        W31200  33.703  44.113  12.078
65974W        W31201  37.375  18.999   2.222
65975W        W31202   6.882  10.225  10.542
65976W        W31203  32.962   8.390   0.352
65977W        W31204  12.104  20.680   4.503
65978W        W31205  26.940   6.417   1.174
65979W        W31206  24.201  41.518   4.720
65980W        W31207  29.033   7.052   2.446
65981W        W31208  12.212  35.168  11.423
65982W        W31209  44.494   1.135  14.850
65983W        W31210  13.868  30.080   3.958
65984W        W31211  40.753  24.486   1.796
65985W        W31212  25.055  34.091   3.879
65986W        W31213   3.327  33.987   3.897
65987W        W31214  36.601  36.199   3.232
65988W        W31215  22.311  38.568  11.179
65989W        W31216  20.726   3.544   2.793
65990W        W31217   9.322  25.960   1.762
65991W        W31218  19.598  14.544   4.625
65992W        W31219   8.337  16.620  14.423
65993W        W31220  34.050  13.319   5.321
65994W        W31221   2.361   8.614   0.555
65995W        W31222  30.107  10.093   4.219
65996W        W31223  26.083  26.787  11.612
65997W        W31224   6.173  25.214   3.626
65998W        W31225  41.161  30.960   3.670
65999W        W31226  39.536  20.753   2.425
66000W        W31227   4.426   3.275   1.637
66001W        W31228  40.035  12.343   2.643
66002W        W31229  13.405  31.487   2.565
66003W        W31230  34.477  32.599   3.805
66004W        W31231  44.906   6.677   3.254
66005W        W31232   2.405  25.079   4.097
66006W        W31233   8.279   3.816   4.757
66007W        W31234  23.322  44.501   0.834
66008W        W31235  32.175  42.101   1.623
66009W        W31236  36.858  20.227  11.298
66010W        W31237   5.876  34.264  10.608
66011W        W31238  34.366   8.483  12.151
66012W        W31239  23.504  19.486  12.165
66013W        W31240  27.526  21.048   3.377
66014W        W31241  34.434  12.392   4.666
66015W        W31242  18.637  42.822   0.311
66016W        W31243  18.399  32.438   1.750
66017W        W31244  39.859  26.787  12.940
66018W        W31245  43.017  43.429   4.173
66019W        W31246  15.950  33.843  10.166
66020W        W31247  12.716  39.340   1.295
66021W        W31248  35.430  36.519   3.119
66022W        W31249   6.292   7.779   4.731
66023W        W31250  12.128  25.276  12.948
66024W        W31251  12.076  38.908  10.832
66025W        W31252  14.440  20.830  12.961
66026W        W31253   3.700  12.099   4.177
66027W        W31254   0.316  20.423  13.133
66028W        W31255  21.285  21.691  12.911
66029W        W31256  17.581  28.344  13.820
66030W        W31257  19.505  29.257  11.717
66031W        W31258  29.612  21.967   0.827
66032W        W31259  35.869  35.617   2.854
66033W        W31260  36.694  43.490   1.857
66034W        W31261   5.007  40.029  14.563
66035W        W31262  14.775   0.356   1.977
66036W        W31263  44.889  26.512   4.992
66037W        W31264  35.548  23.072  12.329
66038W        W31265   2.699  21.787   1.381
66039W        W31266  16.783  31.548   4.305
66040W        W31267  27.292  40.575   2.139
66041W        W31268  17.149  26.963   3.404
66042W        W31269  39.520  11.082   0.524
66043W        W31270  23.888   7.692  14.349
66044W        W31271  14.315  11.390   3.723
66045W        W31272  12.527  23.174   2.408
66046W        W31273   8.689  10.728  14.484
66047W        W31274   4.852  22.742  11.679
66048W        W31275  35.734  26.260  11.236
66049W        W31276  21.027  42.803   2.407
66050W        W31277  33.366  12.474  13.934
66051W        W31278  36.819   6.922   2.694
66052W        W31279  26.900  15.660   0.881
66053W        W31280   3.427   2.150  13.442
66054W        W31281  31.213  40.981  13.272
66055W        W31282  22.714  30.578   2.049
66056W        W31283  28.712  35.942  10.764
66057W        W31284  25.698  37.379  12.422
66058W        W31285  15.354   9.693  14.245
66059W        W31286   2.867  19.710   3.643
66060W        W31287   9.447  20.789  13.713
66061W        W31288  44.457  25.288   4.563
66062W        W31289  31.977  35.522   0.315
66063W        W31290   2.545  29.034   2.039
66064W        W31291  21.969  31.503   0.635
66065W        W31292   4.894   1.754  11.074
66066W        W31293   9.856  43.947  14.938
66067W        W31294  40.186  35.043  14.329
66068W        W31295  40.491  18.140   1.312
66069W        W31296   7.289  21.731   4.579
66070W        W31297  30.522  23.773   0.877
66071W        W31298  18.410  11.290  10.736
66072W        W31299  23.170  29.320   4.358
66073W        W31300  16.170  25.539  11.199
66074W        W31301  17.300   3.219   1.362
66075W        W31302   6.610  38.775   0.461
66076W        W31303  32.588  12.316   0.689
66077W        W31304   6.308  26.511   0.352
66078W        W31305  20.285  35.860  14.414
66079W        W31306  44.401   1.885   0.243
66080W        W31307   6.781  21.540   2.111
66081W        W31308   3.823  14.375  13.847
66082W        W31309  25.645  31.500   1.255
66083W        W31310  34.777  33.749   4.134
66084W        W31311  23.965  43.479  13.374
66085W        W31312  36.632  11.290  10.999
66086W        W31313  18.961   9.735   1.334
66087W        W31314  12.254  41.947   2.825
66088W        W31315  37.553  44.387   1.877
66089W        W31316  23.483  17.990  13.680
66090W        W31317  23.598   7.518   0.907
66091W        W31318  42.404  16.383  12.131
66092W        W31319  19.578  28.678   1.747
66093W        W31320  27.354  29.993   2.296
66094W        W31321  39.882  29.460   3.020
66095W        W31322  26.509  23.996  11.164
66096W        W31323  37.009  38.265   2.582
66097W        W31324   3.188   2.952   1.219
66098W        W31325  37.418  17.076   4.582
66099W        W31326  44.146  16.675   0.858
66100W        W31327  10.395   0.942  10.876
66101W        W31328  23.033   8.378  11.993
66102W        W31329  20.895  27.356   4.141
66103W        W31330  36.511  37.597  14.484
66104W        W31331  27.448   0.924  12.141
66105W        W31332   1.790  19.719  11.695
66106W        W31333  15.725  16.702  11.520
66107W        W31334   6.894  24.198   2.222
66108W        W31335  20.722  33.953  13.924
66109W        W31336  36.886  37.882  14.700
66110W        W31337  33.192  40.994   4.142
66111W        W31338  34.461  26.157  12.027
66112W        W31339  32.539  36.569   2.721
66113W        W31340  44.947   6.744  11.179
66114W        W31341  14.324  25.899   2.661
66115W        W31342  36.409  20.861   0.345
66116W        W31343  12.443  12.404   3.729
66117W        W31344  43.627  27.395  12.790
66118W        W31345  28.362  34.021   0.409
66119W        W31346  14.590  23.494   3.348
66120W        W31347  39.368  12.918  14.633
66121W        W31348  30.281  26.819  12.040
66122W        W31349  16.812  32.590   3.342
66123W        W31350  21.002  31.162   0.955
66124W        W31351   7.186  14.075  10.753
66125W        W31352  13.170  26.441  10.338
66126W        W31353  31.676  39.215   5.461
66127W        W31354  25.777  22.353  10.070
66128W        W31355   6.705  37.585   0.017
66129W        W31356  28.372  12.005   1.055
66130W        W31357  35.802  30.493   0.889
66131W        W31358  32.904  44.809   2.969
66132W        W31359   0.716  15.096  12.628
66133W        W31360  37.676  24.863  14.846
66134W        W31361  10.084  35.961   4.130
66135W        W31362  25.295  18.290   0.266
66136W        W31363  42.644  31.138   4.168
66137W        W31364  44.324  31.652   1.497
66138W        W31365  34.609  34.359   3.270
66139W        W31366   3.887  31.681  11.939
66140W        W31367  15.032   0.910  14.799
66141W        W31368   5.233   2.545   1.786
66142W        W31369  11.799  41.415  10.721
66143W        W31370   6.604  42.818   4.673
66144W        W31371  38.072  35.118   2.237
66145W        W31372  22.577  12.681   4.582
66146W        W31373  10.156  38.924   4.550
66147W        W31374  11.326  25.078  10.452
66148W        W31375  16.664  28.455   1.427
66149W        W31376  39.550  20.130   1.748
66150W        W31377  26.451   0.507   1.300
66151W        W31378  35.106  43.979   2.579
66152W        W31379  27.520  39.526   0.873
66153W        W31380  27.415   7.710   0.815
66154W        W31381   9.292  42.454   0.445
66155W        W31382  10.355  41.623  14.981
66156W        W31383  10.889  14.914   4.218
66157W        W31384  22.464  14.863  14.412
66158W        W31385   6.430  14.559  12.613
66159W        W31386  38.271  13.572  12.895
66160W        W31387  41.517  26.490  13.485
66161W        W31388  13.358  25.954   0.327
66162W        W31389   8.706   9.161  14.180
66163W        W31390  27.196  25.045  14.004
66164W        W31391  12.685  39.512   2.433
66165W        W31392   8.106  14.782  13.258
66166W        W31393   8.609   4.233   0.010
66167W        W31394  16.175  16.010   4.575
66168W        W31395  24.209  23.791  11.648
66169W        W31396  10.324  33.381  14.588
66170W        W31397  44.355  23.299  12.441
66171W        W31398   6.630  43.482   1.319
66172W        W31399  33.524  31.826  12.599
66173W        W31400   0.005  23.774   4.801
66174W        W31401  13.874  14.669   1.495
66175W        W31402  24.759  20.275   0.744
66176W        W31403   7.109  33.971  11.544
66177W        W31404   8.256  27.091   0.780
66178W        W31405  11.569  38.839  10.188
66179W        W31406   9.742   3.682  11.710
66180W        W31407  11.165  30.644  11.580
66181W        W31408  37.599  20.446  13.942
66182W        W31409  33.261  35.020  11.461
66183W        W31410  10.589  33.022  14.008
66184W        W31411  20.670  32.049  13.170
66185W        W31412  13.241   2.199   2.356
66186W        W31413  23.627   2.000  12.893
66187W        W31414  34.565  34.063  10.744
66188W        W31415  14.300  39.104   1.780
66189W        W31416  10.917   5.165  14.606
66190W        W31417  36.275  19.740  12.439
66191W        W31418  24.057  39.080  14.954
66192W        W31419  11.785  35.049  12.980
66193W        W31420  33.589  11.157   3.372
66194W        W31421   7.487   4.223   3.665
66195W        W31422   0.240  30.926   3.185
66196W        W31423   3.446  10.260   1.957
66197W        W31424  42.350  17.474   0.730
66198W        W31425  15.193  30.977   0.947
66199W        W31426  22.714  12.405  14.956
66200W        W31427  20.126  20.337   1.479
66201W        W31428  13.110  20.701   0.381
66202W        W31429  36.051   7.636   1.259
66203W        W31430   5.272  28.602  11.548
66204W        W31431  41.923  40.542  14.226
66205W        W31432   6.776  31.873  13.385
66206W        W31433  22.229  39.037  12.030
66207W        W31434   0.077  32.734   1.285
66208W        W31435   6.443  42.817   0.762
66209W        W31436  42.449  22.507  13.286
66210W        W31437   4.415  16.168  10.454
66211W        W31438  44.997   2.180   4.113
66212W        W31439  34.488  13.629  13.343
66213W        W31440   8.602   1.400   4.072
66214W        W31441   4.891  36.498   4.519
66215W        W31442  14.818  14.245  13.563
66216W        W31443  28.100  43.907   2.183
66217W        W31444  44.411  17.672   5.363
66218W        W31445  27.676  31.933  13.405
66219W        W31446  34.553  25.661  12.073
66220W        W31447  15.843  11.095  11.135
66221W        W31448  14.120  32.907   0.373
66222W        W31449  39.062  12.262   2.946
66223W        W31450  37.584  43.046   2.340
66224W        W31451  17.257  15.174  14.028
66225W        W31452  25.837  43.703   2.375
66226W        W31453  22.695   3.317   1.685
66227W        W31454  27.169  36.625   2.315
66228W        W31455  44.257  12.354  12.906
66229W        W31456  11.687   5.893  14.362
66230W        W31457  21.142  17.852   2.831
66231W        W31458  24.630   9.909  12.500
66232W        W31459  24.997  35.852  13.043
66233W        W31460  19.331  24.746  11.427
66234W        W31461  12.345   9.762   0.257
66235W        W31462   9.782  27.609  13.056
66236W        W31463  21.653  37.770   0.181
66237W        W31464  28.353   7.658  11.924
66238W        W31465  42.744   5.666   9.913
66239W        W31466  21.824  44.856   4.559
66240W        W31467  12.818  42.342  14.582
66241W        W31468  28.976  32.616   3.695
66242W        W31469  39.127  20.503  12.913
66243W        W31470  18.589  38.406   2.092
66244W        W31471  23.092  40.108  11.811
66245W        W31472  37.140  35.911   2.489
66246W        W31473  32.390   9.439   2.645
66247W        W31474  17.078  19.019  14.368
66248W        W31475  13.882  13.397  13.055
66249W        W31476  37.315   8.207   0.454
66250W        W31477   8.341  36.406   2.720
66251W        W31478  31.090  30.980   1.143
66252W        W31479  12.767   4.732  10.577
66253W        W31480   5.241  21.188   4.533
66254W        W31481  14.823  35.216  10.885
66255W        W31482  13.106  22.508  11.165
66256W        W31483  39.221  38.167   2.327
66257W        W31484   5.786  28.670   4.717
66258W        W31485  38.011   3.021   2.315
66259W        W31486  14.289  33.964   4.854
66260W        W31487  24.168   8.203   4.585
66261W        W31488  11.501  19.227   5.092
66262W        W31489   2.806  16.819  14.900
66263W        W31490   6.743  39.438   0.988
66264W        W31491  43.453  19.019  13.066
66265W        W31492   5.724  15.090  11.579
66266W        W31493  18.348  36.957  13.749
66267W        W31494  33.878  44.258  10.200
66268W        W31495  19.154  24.550  12.545
66269W        W31496  20.851  24.740   3.912
66270W        W31497  18.306  16.282  11.694
66271W        W31498  10.697  20.632  13.011
66272W        W31499  20.954  24.654  13.074
66273W        W31500  35.956  17.339   4.132
66274W        W31501  27.568  13.765   2.906
66275W        W31502  10.309  39.781  11.050
66276W        W31503  29.503  43.300   0.525
66277W        W31504  16.723  29.604   0.687
66278W        W31505  22.288  29.460   1.017
66279W        W31506  15.136   5.165  11.991
66280W        W31507  28.406  40.360   4.957
66281W        W31508  23.490  32.890  14.730
66282W        W31509  17.808  19.744  13.353
66283W        W31510   5.886  43.322  10.654
66284W        W31511  39.052  21.103   2.811
66285W        W31512  11.143  24.500   2.719
66286W        W31513  10.306   8.245  10.737
66287W        W31514  23.478  18.870  11.063
66288W        W31515  36.605  10.803  14.676
66289W        W31516   0.486   0.743   0.416
66290W        W31517  24.609  15.706  13.097
66291W        W31518  18.984  27.773  12.998
66292W        W31519  25.303  23.074   2.423
66293W        W31520  31.073  11.824   3.202
66294W        W31521  39.485  32.605  13.253
66295W        W31522  38.878   1.244   9.937
66296W        W31523  14.514   9.387  11.663
66297W        W31524  33.608  31.708   0.234
66298W        W31525  11.296   4.866   4.496
66299W        W31526  29.931  37.982   4.038
66300W        W31527   7.249  43.451   1.811
66301W        W31528  37.102  36.957  12.083
66302W        W31529   0.265  33.683  12.954
66303W        W31530   3.336   1.716   1.120
66304W        W31531  21.767  15.348  13.605
66305W        W31532  11.199  14.179  12.542
66306W        W31533   1.185  41.752   1.797
66307W        W31534  36.823  12.159   1.586
66308W        W31535  20.550  37.980   2.402
66309W        W31536   3.742  10.923   3.632
66310W        W31537  39.509  43.657  11.966
66311W        W31538  18.210  18.534  13.818
66312W        W31539  14.290  26.695   4.689
66313W        W31540  17.511  16.100   0.388
66314W        W31541   5.800   7.392  11.560
66315W        W31542  41.237   2.796   0.762
66316W        W31543  35.121  31.887  14.911
66317W        W31544  19.094  29.321   1.909
66318W        W31545  29.140   1.861   4.815
66319W        W31546  33.130  35.083  10.742
66320W        W31547  33.529  41.621   1.682
66321W        W31548  36.436  38.367   3.722
66322W        W31549  12.293   9.877   2.236
66323W        W31550  16.591  24.967   1.502
66324W        W31551   2.895  14.743   1.218
66325W        W31552  43.361   4.967  13.594
66326W        W31553  26.642  14.675   4.234
66327W        W31554   1.779  43.798  12.219
66328W        W31555  40.487  30.922  11.453
66329W        W31556  14.105   6.114  11.178
66330W        W31557  23.951  23.220   3.265
66331W        W31558  30.128  33.403  12.070
66332W        W31559  41.384  38.846  12.341
66333W        W31560  30.935  28.748   4.982
66334W        W31561  13.661  24.430  14.381
66335W        W31562  26.061  30.710   0.272
66336W        W31563   0.505   0.753   0.939
66337W        W31564  41.573  33.012   0.530
66338W        W31565  21.028   3.626  13.529
66339W        W31566  22.239  18.258   0.375
66340W        W31567  28.189  24.048   3.611
66341W        W31568   1.647  40.059  14.951
66342W        W31569  43.844  22.038   0.886
66343W        W31570  35.422  10.576   0.345
66344W        W31571  31.412  21.469   3.198
66345W        W31572  43.885   6.641  11.120
66346W        W31573  40.815  11.808  13.383
66347W        W31574  36.305   9.694   1.929
66348W        W31575   4.220   9.416  11.447
66349W        W31576  31.071  11.619   2.729
66350W        W31577  37.940  10.202   2.588
66351W        W31578   0.683  30.083   1.369
66352W        W31579  34.356  20.745  12.940
66353W        W31580  43.407  42.926   2.677
66354W        W31581  37.533   7.389  14.711
66355W        W31582  13.278  36.752   0.881
66356W        W31583  37.202  13.176   3.032
66357W        W31584  33.042   7.121   0.664
66358W        W31585   8.486  16.671   3.127
66359W        W31586   7.780  43.559  14.384
66360W        W31587  10.248  31.088  14.296
66361W        W31588  44.896  35.519  10.760
66362W        W31589   5.999   0.931   4.040
66363W        W31590   4.389  15.302   0.454
66364W        W31591  20.048   7.636  12.253
66365W        W31592  28.510   1.669   4.628
66366W        W31593  31.415  28.636   5.125
66367W        W31594  44.230  22.279   4.622
66368W        W31595  18.557  20.519  13.524
66369W        W31596  34.951  40.084   4.626
66370W        W31597  12.440  17.655   3.357
66371W        W31598  16.869   2.560   4.686
66372W        W31599  15.502  41.232  12.049
66373W        W31600  33.048  34.781   2.674
66374W        W31601   1.341  20.582   0.473
66375W        W31602  13.141   8.711   0.355
66376W        W31603  10.588  16.572  12.449
66377W        W31604  40.188  24.004  13.803
66378W        W31605  19.223   6.761   4.604
66379W        W31606   2.294  36.093  10.770
66380W        W31607  20.507  21.999   4.341
66381W        W31608  15.818  38.024  11.661
66382W        W31609  35.054  25.542   0.990
66383W        W31610  28.841  30.650   1.457
66384W        W31611  43.518   7.208  12.587
66385W        W31612  35.424  29.073   3.315
66386W        W31613  15.594  39.491   4.472
66387W        W31614  23.453  16.320  12.889
66388W        W31615  21.024  17.551   1.435
66389W        W31616  25.452  30.711   2.261
66390W        W31617  32.118   9.263  11.451
66391W        W31618  29.413  44.967  13.803
66392W        W31619  34.534  44.956  14.346
66393W        W31620  20.829  36.821  11.122
66394W        W31621  38.373  13.074   1.965
66395W        W31622  27.000  25.187  12.101
66396W        W31623   6.193  18.851   1.748
66397W        W31624   7.220   6.623   3.740
66398W        W31625   3.492  44.970   3.244
66399W        W31626  32.875  10.181   4.560
66400W        W31627  33.648  33.844   0.385
66401W        W31628   4.151   5.412   4.105
66402W        W31629  10.089  17.567   3.597
66403W        W31630  17.085  33.338   5.129
66404W        W31631   9.516   0.532   1.261
66405W        W31632   6.602  38.032   2.296
66406W        W31633  30.709  38.951   3.174
66407W        W31634  26.917  31.724   3.758
66408W        W31635  33.440   6.034   3.208
66409W        W31636  31.298  25.867  14.337
66410W        W31637  33.610   3.314  10.778
66411W        W31638  12.784   6.861  12.040
66412W        W31639   5.253  35.269   3.752
66413W        W31640  31.144   0.785   9.899
66414W        W31641  20.125  29.709   1.473
66415W        W31642  12.088  24.249   0.982
66416W        W31643  22.544  38.027  11.863
66417W        W31644   4.423  10.778   0.474
66418W        W31645  18.421  38.366   0.249
66419W        W31646  13.079  23.663   1.368
66420W        W31647  17.288  24.991  10.849
66421W        W31648  16.893  19.237   4.611
66422W        W31649  42.289   7.884   4.636
66423W        W31650   3.911  32.922   1.133
66424W        W31651  14.388  35.431  13.992
66425W        W31652  12.716  37.534   4.029
66426W        W31653  23.983  19.696  12.042
66427W        W31654   3.425  29.747  12.890
66428W        W31655  12.948  30.647   2.240
66429W        W31656   8.320   4.721   1.912
66430W        W31657   7.672   1.899   2.342
66431W        W31658   6.133  34.037   3.781
66432W        W31659  29.275  16.714  13.041
66433W        W31660  15.919   7.610   4.762
66434W        W31661  17.155  39.964  12.842
66435W        W31662  20.161  31.041  12.493
66436W        W31663   3.677  38.728   1.769
66437W        W31664  23.798  31.654  12.420
66438W        W31665   7.893  43.770  14.882
66439W        W31666  28.607  15.588   0.892
66440W        W31667  34.904  12.853  14.101
66441W        W31668   0.534   6.485  11.074
66442W        W31669  33.019  44.043  12.145
66443W        W31670  19.650  22.476   1.281
66444W        W31671  12.913   5.594   2.124
66445W        W31672  28.317  11.160   1.952
66446W        W31673  31.133  19.288  12.881
66447W        W31674  39.930  27.268   0.030
66448W        W31675   2.776  36.485   3.276
66449W        W31676   4.716  37.566   1.600
66450W        W31677  17.627  24.154  11.126
66451W        W31678   9.838  19.164   2.198
66452W        W31679  17.825   4.149  13.471
66453W        W31680   1.488  36.166   1.955
66454W        W31681  26.603  29.996   2.994
66455W        W31682  35.584   9.803   4.833
66456W        W31683   4.678   1.243   4.328
66457W        W31684  24.592   6.618   1.427
66458W        W31685   2.635  20.739   5.149
66459W        W31686  12.040  34.533   2.125
66460W        W31687   3.450  10.774  14.381
66461W        W31688  21.229  27.731   2.244
66462W        W31689   5.262  10.161  11.937
66463W        W31690  35.123   3.802   1.591
66464W        W31691  14.774  24.598  10.631
66465W        W31692  21.203  37.466  10.502
66466W        W31693   9.650  34.577  12.661
66467W        W31694  30.015  14.102  13.084
66468W        W31695  37.435  38.645  13.786
66469W        W31696  27.593  27.781  13.177
66470W        W31697   0.062  21.723  14.337
66471W        W31698  37.415  33.098   4.949
66472W        W31699  34.600  28.148   3.289
66473W        W31700   5.946  35.428  14.496
66474W        W31701  38.085  19.064   0.668
66475W        W31702  13.623   1.361  11.522
66476W        W31703  10.843  27.832   2.662
66477W        W31704  14.904  19.436  12.892
66478W        W31705  43.789   7.804   3.385
66479W        W31706   2.880  38.310  14.571
66480W        W31707  22.600   9.148  12.951
66481W        W31708   7.910  38.629   4.116
66482W        W31709   9.587   2.632   0.040
66483W        W31710  38.342  41.205  14.790
66484W        W31711  39.838  16.945  12.631
66485W        W31712  37.943   1.509   2.878
66486W        W31713   4.938  33.400  11.997
66487W        W31714  12.694  14.713  10.762
66488W        W31715  38.758  31.867  12.949
66489W        W31716  36.488   4.619   3.250
66490W        W31717  41.885  30.514  14.799
66491W        W31718   9.602  42.638   3.580
66492W        W31719  11.574  24.609   4.076
66493W        W31720  18.326  35.347   3.252
66494W        W31721  15.159  22.695  11.926
66495W        W31722  35.111  12.358  13.543
66496W        W31723  43.712   1.824  13.429
66497W        W31724  13.211  19.208   4.027
66498W        W31725  19.547  35.948   4.197
66499W        W31726  24.989  15.757   0.192
66500W        W31727  21.356   4.993  11.215
66501W        W31728  44.914  21.398  12.583
66502W        W31729  40.006  31.111  13.853
66503W        W31730  37.855  23.711   0.772
66504W        W31731  14.868  31.085   2.284
66505W        W31732  38.561  38.457   2.797
66506W        W31733  36.607  15.593   0.260
66507W        W31734   7.021  34.019  14.100
66508W        W31735  12.579  16.312  10.675
66509W        W31736   1.282  33.012  12.743
66510W        W31737  44.250  17.523  11.155
66511W        W31738  33.774  38.453  13.878
66512W        W31739  34.082   2.184   0.916
66513W        W31740  21.230  24.423  11.079
66514W        W31741  44.339  40.177   2.703
66515W        W31742  36.294   0.531  11.654
66516W        W31743  28.157   6.607  14.561
66517W        W31744   8.569  27.440   2.272
66518W        W31745  44.576  11.952  14.788
66519W        W31746  27.910  27.978  12.203
66520W        W31747  39.275  28.156  12.533
66521W        W31748   2.550  16.371  13.816
66522W        W31749   4.435  31.040   3.752
66523W        W31750  11.874  31.873   4.147
66524W        W31751  37.967  32.079  12.600
66525W        W31752  39.379  26.545   4.577
66526W        W31753  30.540  35.859   2.104
66527W        W31754  22.657  27.320  11.298
66528W        W31755  44.028   8.486  14.923
66529W        W31756   3.152  28.429   1.395
66530W        W31757  25.451   0.349   1.366
66531W        W31758   7.132  39.064  12.592
66532W        W31759  26.321  38.982  10.332
66533W        W31760   6.351   2.987   0.815
66534W        W31761  25.654  38.570  12.225
66535W        W31762   1.587  14.189  13.369
66536W        W31763  24.965  23.395   0.243
66537W        W31764  16.254   4.112  14.865
66538W        W31765  34.211  25.214  11.354
66539W        W31766  22.098  29.505  12.594
66540W        W31767   6.258  27.904   1.820
66541W        W31768   5.011  12.839   4.197
66542W        W31769  37.241  34.760  12.909
66543W        W31770   2.335  31.483  11.996
66544W        W31771  39.069  10.763  14.937
66545W        W31772   3.710  24.012   2.807
66546W        W31773  14.271  23.474  12.420
66547W        W31774   2.713  20.828  13.013
66548W        W31775  39.665   0.408  11.139
66549W        W31776  38.617  12.915  10.519
66550W        W31777  38.540  37.602  10.415
66551W        W31778  40.034  26.417   2.376
66552W        W31779   0.281   6.575   3.625
66553W        W31780  25.657  40.668   2.903
66554W        W31781  37.704  13.204   3.255
66555W        W31782  38.295  30.641  12.417
66556W        W31783   5.682  42.292  14.043
66557W        W31784  26.224  27.659   0.985
66558W        W31785  43.442  27.134   5.303
66559W        W31786  24.177   2.563   4.129
66560W        W31787  34.912  14.524  13.080
66561W        W31788  16.642  23.258   2.400
66562W        W31789  37.006  38.345  13.759
66563W        W31790   7.932  39.493  10.415
66564W        W31791   2.258  33.813   1.728
66565W        W31792  37.306  10.950  13.455
66566W        W31793   6.149  36.111  11.579
66567W        W31794  27.911  28.076   5.248
66568W        W31795  10.668  34.826  14.744
66569W        W31796  21.732  12.817  12.785
66570W        W31797  20.679  15.542   3.643
66571W        W31798   1.791   0.842  12.366
66572W        W31799   9.332  30.141   4.505
66573W        W31800  13.688   6.985  13.563
66574W        W31801  30.367  33.076  11.155
66575W        W31802  41.923  25.982   2.850
66576W        W31803  42.902  43.374  14.914
66577W        W31804   0.972   6.923  13.946
66578W        W31805  42.309   0.038   3.693
66579W        W31806  39.894  39.812   4.204
66580W        W31807  18.755   2.533  12.971
66581W        W31808   9.514  34.541   2.900
66582W        W31809  35.575  18.730   1.865
66583W        W31810  32.839  24.009   0.200
66584W        W31811  43.709   1.212  12.185
66585W        W31812  10.081  19.263   0.394
66586W        W31813   7.935  27.106  12.607
66587W        W31814  42.304  15.188  11.181
66588W        W31815  18.812  16.958  13.748
66589W        W31816  27.439  34.429   0.355
66590W        W31817  43.194   6.007  13.859
66591W        W31818  33.606  13.009   5.374
66592W        W31819  14.654  34.634  13.816
66593W        W31820  16.825   8.854   0.573
66594W        W31821  29.069   2.178   0.817
66595W        W31822  15.977  16.127   1.327
66596W        W31823  17.069  33.230   2.483
66597W        W31824  43.480   2.602   4.045
66598W        W31825  31.569  31.052   3.093
66599W        W31826   4.886  23.486  10.135
66600W        W31827  15.785  33.880   3.306
66601W        W31828  25.321  43.121  13.326
66602W        W31829  27.082   3.323  14.790
66603W        W31830  28.175   9.172  13.830
66604W        W31831   0.147  28.051  12.058
66605W        W31832  23.422  18.598   1.493
66606W        W31833  28.917  41.531   1.389
66607W        W31834   6.458   8.884   1.939
66608W        W31835  31.179  33.369   3.297
66609W        W31836  23.234  22.076  10.673
66610W        W31837  10.269  12.260   1.253
66611W        W31838  27.021  37.240   1.732
66612W        W31839  20.354  31.094   1.355
66613W        W31840  19.259  23.423   1.092
66614W        W31841  20.651  10.598  10.596
66615W        W31842   3.443  22.546   2.465
66616W        W31843  12.270  18.608  14.516
66617W        W31844  35.850   6.852  14.292
66618W        W31845  34.145  16.978   4.010
66619W        W31846   9.243  41.761   1.294
66620W        W31847  24.067  13.612  12.885
66621W        W31848  11.287  30.438  12.034
66622W        W31849  19.951  14.307   3.152
66623W        W31850   7.369  24.100  10.735
66624W        W31851  38.431  37.899   3.967
66625W        W31852   7.324  21.274   0.455
66626W        W31853   6.528   7.274   0.482
66627W        W31854  27.496  39.554  13.331
66628W        W31855   4.451  30.865   0.456
66629W        W31856   3.519  42.989   1.892
66630W        W31857  33.595  44.801   4.944
66631W        W31858   4.870  33.059   0.751
66632W        W31859  35.853  17.687  14.335
66633W        W31860  21.103  30.532  11.101
66634W        W31861  27.338  26.229  10.321
66635W        W31862  24.027  43.379   2.453
66636W        W31863  34.848   8.855  14.905
66637W        W31864  41.633   8.416  13.825
66638W        W31865  22.054  18.022  10.471
66639W        W31866  35.386  36.345   2.629
66640W        W31867   4.300  21.710  12.004
66641W        W31868  38.771   0.267  13.306
66642W        W31869  18.781  36.880   2.444
66643W        W31870  32.161   1.473   1.839
66644W        W31871  44.390   9.779   1.421
66645W        W31872  18.311  34.046   3.881
66646W        W31873  25.568  21.683   3.552
66647W        W31874  29.274  39.397  14.861
66648W        W31875  32.898  11.396  13.810
66649W        W31876  24.138  20.162  11.907
66650W        W31877  40.565   0.263   3.387
66651W        W31878   3.653  41.181   3.774
66652W        W31879  32.289  28.118  10.828
66653W        W31880  28.885  42.092   4.078
66654W        W31881   5.990  15.679   4.966
66655W        W31882  28.196   9.894   0.323
66656W        W31883  43.781  34.405  13.367
66657W        W31884  19.025  44.954   3.572
66658W        W31885  36.364   0.261  12.103
66659W        W31886   4.954   7.874   3.664
66660W        W31887  10.244  20.555   1.246
66661W        W31888   9.519  27.647  11.185
66662W        W31889  14.852  38.924   4.653
66663W        W31890  25.567  42.600  14.205
66664W        W31891  37.133  30.775  13.040
66665W        W31892  19.297  17.052   4.935
66666W        W31893  30.146  28.749   0.343
66667W        W31894  42.855  11.631   1.181
66668W        W31895   6.039   9.555   0.579
66669W        W31896   0.892  13.539   2.025
66670W        W31897   1.244  36.906  12.889
66671W        W31898   9.763  36.581  10.367
66672W        W31899  25.955  12.753  11.503
66673W        W31900  28.636  26.660   3.253
66674W        W31901   5.235   1.323   1.413
66675W        W31902  16.861  34.409   2.336
66676W        W31903  14.737   1.958  12.395
66677W        W31904   5.949  37.837  14.604
66678W        W31905  42.938  39.958  12.627
66679W        W31906   2.956   4.958   1.653
66680W        W31907  40.068  18.298   1.790
66681W        W31908   2.972  22.475  11.962
66682W        W31909  17.244  16.121   0.844
66683W        W31910  30.972  15.336   0.173
66684W        W31911   9.853  14.299  12.903
66685W        W31912   8.921  32.960   1.709
66686W        W31913   5.386  44.178   0.224
66687W        W31914   6.723  37.935   0.399
66688W        W31915   0.996  38.623  14.388
66689W        W31916  30.408  11.946   9.768
66690W        W31917  16.396  30.173   1.825
66691W        W31918  19.488  43.014  14.129
66692W        W31919  13.201   4.728   4.243
66693W        W31920   2.080  33.969  12.893
66694W        W31921  27.940   4.531   4.054
66695W        W31922  31.076  13.752   2.123
66696W        W31923  30.997   8.633   2.865
66697W        W31924  16.084  15.074   2.108
66698W        W31925  24.714  11.193   3.283
66699W        W31926  13.613  36.350   2.945
66700W        W31927  42.324  17.539   1.640
66701W        W31928  42.263   5.210   0.212
66702W        W31929  30.162  10.966  11.103
66703W        W31930  36.501  15.145   0.522
66704W        W31931  43.613  29.099   3.326
66705W        W31932  31.083  13.228   2.090
66706W        W31933  17.584  17.619  12.534
66707W        W31934  38.073  42.548   1.092
66708W        W31935  34.632  12.829   3.785
66709W        W31936  29.177  23.746  12.881
66710W        W31937  23.161  36.379   1.804
66711W        W31938  27.179  36.170  12.786
66712W        W31939  30.327  11.440   9.862
66713W        W31940  29.999   3.325  13.548
66714W        W31941  43.805  33.427  11.435
66715W        W31942   1.747  14.412  10.800
66716W        W31943  10.662  14.090   4.146
66717W        W31944  39.013   4.505  14.778
66718W        W31945  42.481  29.910   2.360
66719W        W31946  22.690  11.967   2.250
66720W        W31947  36.935  36.665  14.343
66721W        W31948  11.834  37.085  14.333
66722W        W31949  18.429  44.289   4.986
66723W        W31950  31.648   2.810   3.806
66724W        W31951  12.676  38.288  13.449
66725W        W31952  29.957  23.937   1.670
66726W        W31953  29.858  27.659   2.205
66727W        W31954  32.693  30.722  12.870
66728W        W31955  41.377  36.340  14.800
66729W        W31956  32.337  43.851   4.959
66730W        W31957  38.371  17.811   0.521
66731W        W31958  35.612  36.961   3.297
66732W        W31959  28.448   6.800  12.000
66733W        W31960  41.080   6.256  14.788
66734W        W31961  20.928  10.390   4.898
66735W        W31962  25.480  27.036   0.931
66736W        W31963  19.764  43.744  14.099
66737W        W31964  28.946  28.805  13.899
66738W        W31965  43.218  13.508   1.875
66739W        W31966  40.434   8.606  12.473
66740W        W31967  34.127  19.240  12.089
66741W        W31968  31.096   8.586  11.107
66742W        W31969  33.681  44.375  13.431
66743W        W31970   2.809  36.961  12.054
66744W        W31971  14.183  29.366   0.774
66745W        W31972   1.800  42.295  12.947
66746W        W31973  13.091   4.255  13.176
66747W        W31974  27.873  44.977  14.958
66748W        W31975   7.360  17.039   4.049
66749W        W31976   4.053  41.972   4.150
66750W        W31977  36.319  35.881   2.697
66751W        W31978   9.987  28.190  12.201
66752W        W31979  10.448  29.840  11.955
66753W        W31980  22.257  44.450  12.758
66754W        W31981   0.972  39.168  13.720
66755W        W31982  26.394  10.905  12.071
66756W        W31983  10.630   3.253  12.496
66757W        W31984   3.852  23.703  14.465
66758W        W31985  28.136  42.612  13.760
66759W        W31986  18.347  42.906   1.739
66760W        W31987   3.489  38.869   3.512
66761W        W31988   7.106   9.669   2.733
66762W        W31989  12.323  10.733   3.086
66763W        W31990  30.838   8.708  13.491
66764W        W31991  41.439  34.455   3.251
66765W        W31992   7.977  41.397   0.829
66766W        W31993  27.021   7.149   1.668
66767W        W31994  39.319  17.160  11.975
66768W        W31995  30.087  23.158   4.859
66769W        W31996  41.763  39.932   4.383
66770W        W31997  21.557  31.690  14.901
66771W        W31998  13.379  12.585   4.791
66772W        W31999  29.880  31.521  12.608
66773W        W32000   3.221  17.680   3.655
66774W        W32001  27.322  43.908   3.650
66775W        W32002   9.847   1.932   1.283
66776W        W32003  36.530  41.239   4.203
66777W        W32004   0.745   0.045  10.706
66778W        W32005   9.683   2.128  13.988
66779W        W32006   9.285  41.862  10.418
66780W        W32007  12.438  40.944  14.624
66781W        W32008   5.171  16.031   3.360
66782W        W32009  16.097  31.604  13.448
66783W        W32010   1.570  33.418   0.436
66784W        W32011  13.161  11.293   0.471
66785W        W32012  41.093  31.083   1.424
66786W        W32013   4.993  44.851  14.796
66787W        W32014  33.762  30.545   4.570
66788W        W32015  20.911  39.093   3.561
66789W        W32016  24.234  26.761   3.287
66790W        W32017  14.284  39.572   0.402
66791W        W32018  25.598  34.973   3.324
66792W        W32019  44.919   3.812   2.386
66793W        W32020   2.049  42.084   9.704
66794W        W32021   2.500   8.813   2.866
66795W        W32022  37.500  28.124   1.666
66796W        W32023  40.204   7.921  11.562
66797W        W32024  18.613  32.869   1.972
66798W        W32025  21.802  27.691  12.889
66799W        W32026  10.464  16.757   3.939
66800W        W32027  34.811   0.867  13.984
66801W        W32028  32.720   4.202  14.562
66802W        W32029   7.770  34.847  13.328
66803W        W32030  33.581  23.374  11.318
66804W        W32031  38.430  36.903  13.415
66805W        W32032   5.475  31.432   0.993
66806W        W32033   8.154  32.905  14.806
66807W        W32034   4.822  26.910   1.292
66808W        W32035  28.122  11.830   3.158
66809W        W32036  18.272   3.253  13.711
66810W        W32037   4.341   4.351   3.461
66811W        W32038   9.212  25.433   1.817
66812W        W32039   3.831  30.691  13.480
66813W        W32040  43.931  24.718  11.152
66814W        W32041  16.857   4.515  13.442
66815W        W32042  22.065   3.936  14.848
66816W        W32043   1.679  24.833   3.694
66817W        W32044   4.335  16.597  12.208
66818W        W32045  43.073  15.136   1.904
66819W        W32046   3.043  42.253   1.470
66820W        W32047  31.227  41.119   2.291
66821W        W32048  23.430  27.310   0.904
66822W        W32049  25.424  16.227   4.371
66823W        W32050  42.337  31.897  12.065
66824W        W32051   4.310   1.943  12.428
66825W        W32052  11.357  37.386  13.123
66826W        W32053  28.619  38.724  10.999
66827W        W32054  17.628  22.882  13.050
66828W        W32055  12.876  40.312  10.635
66829W        W32056  20.556  26.958   3.054
66830W        W32057  19.127   3.081   1.879
66831W        W32058  33.609  25.601  11.959
66832W        W32059  41.828  10.287  14.169
66833W        W32060   7.910  32.183   2.352
66834W        W32061  17.370   4.300   1.258
66835W        W32062   8.636  35.162   0.195
66836W        W32063   9.319  11.220   1.642
66837W        W32064  27.493  41.117   0.280
66838W        W32065  41.535  16.242   0.163
66839W        W32066  14.511  21.386   1.417
66840W        W32067   9.259  34.022   2.883
66841W        W32068  30.578  32.840  13.116
66842W        W32069  43.882  15.996  11.081
66843W        W32070  31.896   2.531  12.025
66844W        W32071  39.117  13.009   9.724
66845W        W32072  25.465  23.156  13.541
66846W        W32073  14.351  24.802   1.934
66847W        W32074  26.706  36.842   3.729
66848W        W32075   7.941  17.242   0.839
66849W        W32076   0.542   1.371  11.534
66850W        W32077  18.087  14.347  14.108
66851W        W32078  17.872   9.222  10.952
66852W        W32079  38.055  37.463   4.655
66853W        W32080  42.519  39.904   1.706
66854W        W32081  36.851  33.418  13.262
66855W        W32082  25.244  25.091   4.247
66856W        W32083  31.148  40.893  12.740
66857W        W32084  11.791  13.518   3.714
66858W        W32085  17.898  44.846   4.441
66859W        W32086  11.121   8.207  12.579
66860W        W32087  13.730   9.212   4.159
66861W        W32088  26.023  10.103  11.256
66862W        W32089   1.400  25.670   3.845
66863W        W32090   4.203  18.742   2.229
66864W        W32091   8.695  26.760  13.754
66865W        W32092  13.164  33.292  14.748
66866W        W32093   4.362  28.574   1.893
66867W        W32094  35.508   1.419  14.015
66868W        W32095  31.379  17.127  14.446
66869W        W32096  14.271  19.230   4.383
66870W        W32097  38.336  16.338  11.450
66871W        W32098  11.047  38.391  12.152
66872W        W32099   8.823  33.656  14.650
66873W        W32100  15.416  35.633  13.918
66874W        W32101   1.167  40.670   0.937
66875W        W32102  21.289  16.252   1.836
66876W        W32103  43.379  24.114   4.642
66877W        W32104  15.318   1.132   3.663
66878W        W32105  33.122  30.423  12.905
66879W        W32106  36.422  41.043  13.861
66880W        W32107  36.359  19.817   2.709
66881W        W32108  32.168  36.989  13.516
66882W        W32109  32.853  43.335   1.578
66883W        W32110   6.710  25.109   1.426
66884W        W32111   3.512  33.695   2.400
66885W        W32112  41.358  19.247   2.280
66886W        W32113  18.778  35.732   0.275
66887W        W32114  14.028  29.189  13.895
66888W        W32115  38.802  18.994  13.878
66889W        W32116  22.829   9.142   1.287
66890W        W32117  28.630  43.147   1.405
66891W        W32118   8.619  36.752   1.239
66892W        W32119  12.128  40.901   4.102
66893W        W32120  12.283   4.269   1.271
66894W        W32121  28.918  17.048   1.257
66895W        W32122  42.291  19.127  11.100
66896W        W32123   4.949  42.801   4.107
66897W        W32124  42.403  19.488   1.832
66898W        W32125  10.695  33.500   0.912
66899W        W32126  32.433   9.595   3.827
66900W        W32127  43.077  20.721   4.580
66901W        W32128  29.338  18.710   2.250
66902W        W32129  30.665   4.249  13.742
66903W        W32130  42.804   7.179  14.498
66904W        W32131  27.455   2.741  10.366
66905W        W32132   5.360   1.066   4.510
66906W        W32133  15.813  12.780  14.774
66907W        W32134  36.214  26.882  10.462
66908W        W32135  44.553  32.560  13.525
66909W        W32136  21.766  35.053  10.523
66910W        W32137  30.700   8.231   4.226
66911W        W32138  17.942  17.465   0.318
66912W        W32139   7.301  43.693  13.575
66913W        W32140  14.619  12.562   3.117
66914W        W32141   8.362  44.272   0.433
66915W        W32142  16.283  39.921  12.110
66916W        W32143   1.503   0.377  12.702
66917W        W32144  20.648  33.121  13.420
66918W        W32145  31.418  32.583   4.394
66919W        W32146  17.148   9.477   1.758
66920W        W32147  37.498  30.910  13.414
66921W        W32148  16.674  23.107   4.667
66922W        W32149  34.798   6.743  12.448
66923W        W32150  26.098  13.720  10.991
66924W        W32151  29.569   3.441   0.837
66925W        W32152  36.280  10.356  12.590
66926W        W32153  16.012   9.600  11.200
66927W        W32154  25.931  17.776  13.990
66928W        W32155  39.987  16.295  14.270
66929W        W32156  33.619  22.613  11.545
66930W        W32157  12.886  39.304  13.827
66931W        W32158  33.790  43.883  11.628
66932W        W32159  13.210  18.697   2.355
66933W        W32160   2.228  32.189   4.733
66934W        W32161  23.248  40.514  11.118
66935W        W32162  14.340  32.320  13.941
66936W        W32163  35.449   7.449  14.462
66937W        W32164  19.164  44.907   2.163
66938W        W32165  38.274  41.734   2.816
66939W        W32166  28.701  23.179  13.699
66940W        W32167  16.838  43.773  10.536
66941W        W32168   2.654  39.229   1.136
66942W        W32169  26.005  20.521   3.024
66943W        W32170  44.288  12.538  14.276
66944W        W32171  27.621   3.145   3.148
66945W        W32172   4.717  34.591   1.523
66946W        W32173  25.032   2.748  13.882
66947W        W32174  35.557  26.653   0.335
66948W        W32175  42.786  27.024   1.896
66949W        W32176  24.215  35.063   3.325
66950W        W32177   8.459  29.211   4.047
66951W        W32178   1.167   2.401  14.176
66952W        W32179  30.571  44.289  12.548
66953W        W32180  15.313   6.120  14.897
66954W        W32181   8.384  16.097   0.904
66955W        W32182   9.928  13.873  14.272
66956W        W32183  39.419  14.038   1.929
66957W        W32184  14.176  39.871   1.255
66958W        W32185  36.397  21.095  14.844
66959W        W32186  19.378  42.815   5.021
66960W        W32187  16.342  23.664   2.678
66961W        W32188  43.529  29.650   3.160
66962W        W32189   9.708   3.178   2.670
66963W        W32190  27.713  17.759   1.863
66964W        W32191  34.174  24.136  14.072
66965W        W32192  33.408  16.514  12.545
66966W        W32193  17.614  38.283   3.317
66967W        W32194  40.823  28.509  10.656
66968W        W32195  15.312  34.265  11.477
66969W        W32196  16.196  40.609   4.699
66970W        W32197  39.035  26.112  14.390
66971W        W32198   0.534  33.459   1.365
66972W        W32199  43.317  34.987  11.237
66973W        W32200  33.335  41.621   0.811
66974W        W32201  18.537  21.188  14.004
66975W        W32202   9.939  35.965  12.908
66976W        W32203   6.924  19.772   4.838
66977W        W32204  20.380  16.118   0.469
66978W        W32205  34.290  20.807  11.969
66979W        W32206  31.579   8.401   0.703
66980W        W32207  36.313  10.918  13.450
66981W        W32208  21.741  32.437  11.596
66982W        W32209  28.230  29.201  14.471
66983W        W32210  17.250  35.248   0.768
66984W        W32211  40.018   0.220  12.734
66985W        W32212   5.917   9.852   4.527
66986W        W32213   3.940   3.441   2.720
66987W        W32214   3.965  44.784   0.042
66988W        W32215  28.271  34.519  12.901
66989W        W32216  44.404  43.642   0.687
66990W        W32217  31.858  30.202  10.904
66991W        W32218  30.769  42.316  13.850
66992W        W32219  42.739   3.180   4.999
66993W        W32220  24.579  25.788  13.941
66994W        W32221  22.807  39.962  10.331
66995W        W32222  15.334  21.052  12.790
66996W        W32223  32.325   3.833   0.709
66997W        W32224  25.478   0.343  13.977
66998W        W32225  19.865  16.018  14.284
66999W        W32226  13.748  10.639   1.239
67000W        W32227  26.243  40.245  14.269
67001W        W32228  18.730  32.125   4.642
67002W        W32229  17.572  35.565  12.190
67003W        W32230   1.244  31.672  11.048
67004W        W32231  35.834  43.205   4.429
67005W        W32232  29.500  12.672   0.899
67006W        W32233  24.258   6.731  13.547
67007W        W32234   2.290  27.050   0.421
67008W        W32235  32.204  21.240  13.985
67009W        W32236  40.855  10.303   0.298
67010W        W32237  18.310   1.080   1.727
67011W        W32238  35.204  42.965  14.920
67012W        W32239  25.269  33.483  11.168
67013W        W32240  25.925   9.987  13.429
67014W        W32241  13.485  23.473   2.862
67015W        W32242  19.937  41.957   1.391
67016W        W32243  15.896  31.415  12.422
67017W        W32244  30.506  24.292   0.973
67018W        W32245  26.512  32.408   4.372
67019W        W32246   8.581  26.634   3.698
67020W        W32247  36.810  14.990   4.854
67021W        W32248  13.900   3.309   0.238
67022W        W32249  19.932  32.895  14.637
67023W        W32250  16.447  16.733   0.908
67024W        W32251  17.555  42.478   3.601
67025W        W32252  27.197  42.510  12.923
67026W        W32253  20.021   1.482   4.096
67027W        W32254  12.585  20.728  12.369
67028W        W32255  27.670   8.425  10.724
67029W        W32256  41.114  16.076   4.233
67030W        W32257  34.040  13.376   0.424
67031W        W32258  23.078  16.073   3.893
67032W        W32259  37.039   3.508  13.045
67033W        W32260  30.140  35.509   0.424
67034W        W32261  40.411  37.452  14.998
67035W        W32262  33.287  37.788  10.476
67036W        W32263   0.507  37.273  11.555
67037W        W32264  36.005  13.924   3.780
67038W        W32265  39.182   5.555   2.103
67039W        W32266  38.191  27.073   2.746
67040W        W32267   4.702  22.761  11.176
67041W        W32268  40.942   8.488  11.662
67042W        W32269   2.354  33.589   0.886
67043W        W32270  42.731  38.380  11.558
67044W        W32271  15.122  28.323  13.388
67045W        W32272  27.400   5.681   1.429
67046W        W32273  27.213  11.227   1.208
67047W        W32274  29.583  12.136   4.623
67048W        W32275  24.103  40.795   3.508
67049W        W32276   8.703  39.063  11.455
67050W        W32277  23.552   0.699  11.704
67051W        W32278  30.942  20.018   3.636
67052W        W32279   4.924  30.745   1.728
67053W        W32280  32.699   0.337  13.471
67054W        W32281   8.767   8.278  14.558
67055W        W32282  25.366  44.502   2.644
67056W        W32283  37.474   7.009  12.038
67057W        W32284   3.740   0.914   2.583
67058W        W32285  42.182  39.065  14.281
67059W        W32286  13.744  10.873  11.978
67060W        W32287  12.722   1.432   4.717
67061W        W32288   2.356  41.468   1.932
67062W        W32289  17.385   9.343  14.870
67063W        W32290  41.934  11.912  11.496
67064W        W32291  30.655  14.376  12.054
67065W        W32292  20.232  15.920   2.328
67066W        W32293  16.822  20.739  14.328
67067W        W32294   5.272  20.357   4.377
67068W        W32295  43.250  41.805  11.547
67069W        W32296  34.467  23.624  11.141
67070W        W32297  35.681  13.816   4.934
67071W        W32298   1.486  11.066   2.720
67072W        W32299  38.730   6.794   1.526
67073W        W32300   3.695   9.684   0.097
67074W        W32301   3.042  31.989  10.216
67075W        W32302  12.143  11.768   1.280
67076W        W32303  32.980  34.031   2.055
67077W        W32304   5.673  19.727  14.882
67078W        W32305  25.256  11.714  11.187
67079W        W32306  40.499   8.407  10.031
67080W        W32307  27.437  38.150   4.599
67081W        W32308  11.761  33.987   0.069
67082W        W32309  34.030   2.088   3.440
67083W        W32310   6.389  26.753  14.745
67084W        W32311  40.858  38.414  11.596
67085W        W32312   3.522   3.299   1.015
67086W        W32313  28.520  22.342  11.230
67087W        W32314  10.250  17.126   2.686
67088W        W32315  22.521  35.681  14.113
67089W        W32316  42.905  27.661  11.092
67090W        W32317  34.021  21.008  10.973
67091W        W32318   5.906  17.636  11.159
67092W        W32319   2.026  44.139   0.904
67093W        W32320  42.403  41.740  11.142
67094W        W32321  17.344   0.648  14.275
67095W        W32322   6.311  31.650   3.681
67096W        W32323   3.487   5.884   3.117
67097W        W32324   2.298  31.868   2.410
67098W        W32325  39.870  16.544  12.313
67099W        W32326  15.207   3.293   2.237
67100W        W32327  14.817  21.697  14.311
67101W        W32328  26.989  21.086  13.433
67102W        W32329  18.323  28.132  13.992
67103W        W32330  41.977  24.399   2.801
67104W        W32331  27.528  41.740   3.585
67105W        W32332  34.869  36.609   1.460
67106W        W32333  14.342  11.517  13.078
67107W        W32334  15.052  35.428  14.768
67108W        W32335  43.388  20.902   4.972
67109W        W32336  36.787  19.771  14.467
67110W        W32337  25.735   8.320  13.538
67111W        W32338  44.488  37.346  10.783
67112W        W32339  35.774  42.388  11.426
67113W        W32340  29.498   8.788  11.810
67114W        W32341  18.285  31.985   2.349
67115W        W32342  10.103  42.901   0.496
67116W        W32343  25.287  35.652   0.355
67117W        W32344  39.331  17.421  10.785
67118W        W32345  32.817   1.943   1.776
67119W        W32346  15.378  24.201  13.534
67120W        W32347  38.314  32.001  13.887
67121W        W32348   5.986  38.216  10.765
67122W        W32349  40.473  13.810   4.818
67123W        W32350  40.725  12.706   1.700
67124W        W32351  44.586   1.382   0.317
67125W        W32352  18.041   2.333  13.333
67126W        W32353  20.089  35.855  13.910
67127W        W32354  43.952  25.196   4.403
67128W        W32355  37.024  24.792   3.312
67129W        W32356  15.636   2.748  12.243
67130W        W32357  23.203  28.437  13.899
67131W        W32358  33.034   5.884   1.145
67132W        W32359  11.107  25.147   1.738
67133W        W32360  24.664  44.381  10.637
67134W        W32361  10.157  27.472   3.209
67135W        W32362   1.282   0.562   4.134
67136W        W32363  29.652  35.427  11.323
67137W        W32364  42.747   0.456  12.715
67138W        W32365  13.586  29.041   2.227
67139W        W32366  21.723  33.112   3.666
67140W        W32367  27.642  38.451   2.410
67141W        W32368  21.361  22.480  14.644
67142W        W32369  42.366  21.232   1.727
67143W        W32370   7.311  36.810  11.420
67144W        W32371  17.541  35.913  10.609
67145W        W32372   5.412  10.416  13.467
67146W        W32373  15.904  35.974   2.684
67147W        W32374  14.075  12.117  12.452
67148W        W32375  32.549  19.025  12.147
67149W        W32376   9.723  29.820   0.356
67150W        W32377  28.005  34.084  14.953
67151W        W32378  23.242   9.275   5.017
67152W        W32379   0.031  44.257  14.838
67153W        W32380  21.136  24.165   2.733
67154W        W32381  26.538   9.902  13.991
67155W        W32382  23.600  41.223   0.162
67156W        W32383  22.179  44.431  14.853
67157W        W32384  16.365   8.401   1.218
67158W        W32385  39.873  15.143  12.971
67159W        W32386  26.981  28.009  14.790
67160W        W32387  21.025  23.405  11.110
67161W        W32388  20.344   6.960   1.296
67162W        W32389  38.025  43.533  12.146
67163W        W32390  33.205  44.328   4.207
67164W        W32391  20.933  24.415  12.591
67165W        W32392  13.217  17.265  13.044
67166W        W32393   4.741  38.737   4.999
67167W        W32394   1.395  12.932   1.161
67168W        W32395  28.207  24.809   0.878
67169W        W32396  20.021  17.748   0.300
67170W        W32397  37.337   0.479   4.148
67171W        W32398   0.227  31.136   2.607
67172W        W32399   0.175   9.046  11.198
67173W        W32400  42.255  12.886  11.896
67174W        W32401  28.490  36.594   9.825
67175W        W32402   6.202  11.938   5.067
67176W        W32403  11.796  27.613   2.417
67177W        W32404   9.290  14.731   2.364
67178W        W32405   9.779  35.741   1.870
67179W        W32406   3.210  19.602  11.861
67180W        W32407  25.668  44.502   0.902
67181W        W32408  26.102  39.426  10.926
67182W        W32409  25.148  36.257   4.693
67183W        W32410   7.943  44.771   2.944
67184W        W32411   6.496  21.853  11.593
67185W        W32412  33.155  13.739  12.705
67186W        W32413  37.328  31.475   3.183
67187W        W32414   9.201  27.499  13.905
67188W        W32415  20.973  37.162  11.481
67189W        W32416  36.291   9.772   0.357
67190W        W32417   0.011  27.131   1.446
67191W        W32418  28.041  28.681  12.564
67192W        W32419  39.986   3.124   2.636
67193W        W32420  32.398  18.726   0.788
67194W        W32421  33.105  32.440   2.349
67195W        W32422  18.957  23.290  14.049
67196W        W32423  13.168  14.661  14.735
67197W        W32424  22.073  29.859  11.136
67198W        W32425  24.190  27.997  13.078
67199W        W32426  30.008  33.204   2.706
67200W        W32427  24.316  43.932   4.080
67201W        W32428   1.618   6.415   4.128
67202W        W32429  29.049   4.260  12.484
67203W        W32430  39.967  16.272  13.280
67204W        W32431   3.720  26.651   3.010
67205W        W32432  15.544  19.135  13.529
67206W        W32433  29.470  15.324   0.434
67207W        W32434  22.466  32.579  10.062
67208W        W32435  28.532  34.521   2.815
67209W        W32436   8.103  16.446   9.875
67210W        W32437   9.325  22.146   2.766
67211W        W32438   8.841  33.855   1.399
67212W        W32439   8.206  18.031  11.617
67213W        W32440  32.567  10.225   2.164
67214W        W32441  23.529  36.032  13.006
67215W        W32442   1.516  16.796  14.515
67216W        W32443  24.076  32.457  14.543
67217W        W32444  19.558  20.660   4.089
67218W        W32445  36.252  19.635   1.836
67219W        W32446  42.845  34.834  11.864
67220W        W32447  31.162  18.825   1.998
67221W        W32448  35.496   9.392   3.359
67222W        W32449   9.802  12.115   4.067
67223W        W32450  33.972  40.911  11.229
67224W        W32451  22.013  19.691   3.078
67225W        W32452  36.517  33.966   1.592
67226W        W32453  41.019   1.480  14.219
67227W        W32454  27.593  18.374   0.077
67228W        W32455   1.582  28.421  11.774
67229W        W32456   9.625   7.440   0.289
67230W        W32457  26.709  31.961   0.528
67231W        W32458   5.470  24.521  10.779
67232W        W32459  35.985  38.275  12.997
67233W        W32460  23.191  27.600   3.574
67234W        W32461   2.186  33.694  11.123
67235W        W32462  38.917  26.651  10.365
67236W        W32463  32.673  27.894   3.151
67237W        W32464  23.967  34.890  13.624
67238W        W32465  37.909   2.261  12.555
67239W        W32466  41.908  19.821   0.544
67240W        W32467  13.119  32.554   1.840
67241W        W32468  34.370  18.142   3.145
67242W        W32469   6.779  18.158  14.328
67243W        W32470  35.966   4.925  11.590
67244W        W32471  37.842   4.947   2.344
67245W        W32472   4.521  23.380   2.911
67246W        W32473  13.052  33.471   1.826
67247W        W32474  36.276   1.491   0.875
67248W        W32475  23.128  27.287  11.625
67249W        W32476  18.666   3.948  13.995
67250W        W32477   8.662  32.173   5.441
67251W        W32478  37.267  14.675  10.786
67252W        W32479  40.631  31.453   2.068
67253W        W32480  42.267  20.619   4.109
67254W        W32481  32.459   4.799  10.129
67255W        W32482  41.014  23.104   4.260
67256W        W32483   5.000  21.625   2.365
67257W        W32484  25.786  42.268  10.672
67258W        W32485  35.158   8.735  10.705
67259W        W32486   7.916  27.543   1.317
67260W        W32487   7.466   4.243  14.308
67261W        W32488  16.758  29.059  13.296
67262W        W32489  17.578  37.770   3.339
67263W        W32490  17.406  34.633  12.303
67264W        W32491  29.648  11.242  12.087
67265W        W32492  31.356   9.338   4.031
67266W        W32493  31.676  18.763  11.643
67267W        W32494  10.259  12.059  12.922
67268W        W32495  17.128  44.179  12.878
67269W        W32496  40.480  35.481  14.363
67270W        W32497  18.397   7.141  14.923
67271W        W32498  16.609  32.983   1.127
67272W        W32499  12.796  14.701   3.241
67273W        W32500  38.051  22.609  11.495
67274W        W32501   4.943  36.749  13.023
67275W        W32502   9.153  17.951  14.497
67276W        W32503   1.928  14.327   1.482
67277W        W32504   8.387  28.568   3.149
67278W        W32505  20.496  24.353   3.743
67279W        W32506  15.518  30.872  11.235
67280W        W32507  29.131  42.954   1.378
67281W        W32508  12.121  23.551  10.617
67282W        W32509  27.010  11.275   1.686
67283W        W32510  28.973  30.865   2.570
67284W        W32511  26.460   6.134  12.285
67285W        W32512  28.788  35.156   1.443
67286W        W32513  21.970   7.732  12.651
67287W        W32514  33.456  40.604   0.752
67288W        W32515  25.668  35.122  12.735
67289W        W32516   3.300  24.477  10.282
67290W        W32517  19.600   2.403  13.437
67291W        W32518  18.114  13.360   4.494
67292W        W32519  31.552  34.992   1.962
67293W        W32520  16.235  42.430  11.697
67294W        W32521   5.770  16.622   4.515
67295W        W32522   8.153  38.425  12.969
67296W        W32523  13.514  30.745  13.803
67297W        W32524   6.900  29.035  13.752
67298W        W32525  28.571  34.017  11.655
67299W        W32526   7.850  39.110  11.225
67300W        W32527  44.000  35.621   3.249
67301W        W32528  31.087  37.406  12.719
67302W        W32529  14.955  17.769  11.198
67303W        W32530  16.192   5.783  10.857
67304W        W32531  33.560   9.263   2.740
67305W        W32532  38.835   0.774  13.346
67306W        W32533  22.887  36.498   2.253
67307W        W32534   2.548  30.424   2.325
67308W        W32535  15.134  12.109  10.885
67309W        W32536   8.692  16.823   2.645
67310W        W32537  39.794   3.922  12.285
67311W        W32538  37.470   9.488  13.293
67312W        W32539   0.544  41.527  12.525
67313W        W32540  15.901  17.691  13.991
67314W        W32541   0.261  39.430   2.649
67315W        W32542  27.243  25.207  10.683
67316W        W32543  14.264  27.249   2.337
67317W        W32544  27.481  33.031   2.685
67318W        W32545   2.915   9.263   1.420
67319W        W32546  41.984  12.160   3.732
67320W        W32547  35.584  20.049   0.732
67321W        W32548   7.450  39.524  13.290
67322W        W32549  19.524  17.850  12.058
67323W        W32550  33.208  17.745   4.590
67324W        W32551  37.851  25.557   0.192
67325W        W32552  21.044  29.583   4.718
67326W        W32553  41.529  43.064   4.128
67327W        W32554  24.082  38.774   2.232
67328W        W32555  12.601   1.651  12.060
67329W        W32556  29.656  21.003  13.380
67330W        W32557  13.894  17.059  13.689
67331W        W32558  42.850   6.015  11.553
67332W        W32559  28.133  31.660   2.251
67333W        W32560  31.828  21.160  11.545
67334W        W32561  28.993  14.845  10.548
67335W        W32562   2.936   5.390  10.671
67336W        W32563  19.449  27.695  14.385
67337W        W32564   5.495  15.288   9.879
67338W        W32565  20.568  20.495  10.955
67339W        W32566   0.892  31.056  14.465
67340W        W32567  41.596  40.705  12.135
67341W        W32568  32.559  39.099  13.175
67342W        W32569  35.689  11.639  10.732
67343W        W32570   7.971  32.061   0.149
67344W        W32571  36.037  15.094   2.657
67345W        W32572   8.277  16.754   4.006
67346W        W32573  17.597   5.353   1.370
67347W        W32574  36.529  40.516  14.969
67348W        W32575  43.065  44.862  11.547
67349W        W32576  41.715  40.479  13.390
67350W        W32577  16.701   0.365   1.027
67351W        W32578   5.927  26.791  14.454
67352W        W32579  28.040  13.621   0.716
67353W        W32580  21.572  12.141   0.839
67354W        W32581  23.731  43.493   0.449
67355W        W32582   5.274  37.800   3.726
67356W        W32583  36.125  29.213   2.314
67357W        W32584  26.893  27.155   2.362
67358W        W32585  31.474  23.648  12.673
67359W        W32586  38.779  36.915  12.511
67360W        W32587  13.826  26.167  14.539
67361W        W32588   9.383  22.567  12.501
67362W        W32589  10.639  12.398  12.957
67363W        W32590   6.356  32.620  11.508
67364W        W32591  38.858  22.974   0.880
67365W        W32592   2.914  16.690  13.640
67366W        W32593   6.103  44.081   2.329
67367W        W32594  30.098  38.561   1.350
67368W        W32595  37.053  29.474   1.412
67369W        W32596   4.715   8.325   3.848
67370W        W32597  21.010  26.988   2.799
67371W        W32598  12.082  30.480  10.206
67372W        W32599  42.525  32.051  14.943
67373W        W32600  18.759  26.717   3.670
67374W        W32601  18.568  35.737  13.903
67375W        W32602   9.142  31.531   0.410
67376W        W32603  36.478  38.179  14.645
67377W        W32604  44.713  29.531  13.057
67378W        W32605  43.320  39.333   0.371
67379W        W32606   6.939   5.347  12.406
67380W        W32607  24.098  26.773   1.103
67381W        W32608  40.830  41.295   3.233
67382W        W32609  13.293   4.363  12.712
67383W        W32610   0.913  44.814   1.470
67384W        W32611  12.628  15.882  14.761
67385W        W32612   4.262   0.042   2.730
67386W        W32613  28.528  26.688  12.537
67387W        W32614   7.432   4.772  14.335
67388W        W32615  28.131   0.656   0.845
67389W        W32616  28.905   6.882   3.695
67390W        W32617   1.212  44.489  12.125
67391W        W32618  23.982  21.496  14.156
67392W        W32619  15.731  43.416  14.432
67393W        W32620  38.722  32.666  10.992
67394W        W32621  42.827  27.390  14.404
67395W        W32622  42.361   8.383  13.403
67396W        W32623  28.004  18.195   1.880
67397W        W32624  29.667  20.289   2.685
67398W        W32625  38.111   1.626  13.349
67399W        W32626  14.667  18.386   2.508
67400W        W32627  36.639  44.246   3.876
67401W        W32628  18.801  22.080   4.491
67402W        W32629  39.808  44.737  14.968
67403W        W32630   5.863  16.886   1.549
67404W        W32631   6.706  42.414   0.504
67405W        W32632  24.167  32.365   0.054
67406W        W32633  15.315  24.688   1.670
67407W        W32634  12.797  32.876   0.394
67408W        W32635  42.112  30.114   0.090
67409W        W32636  27.144  17.160   3.391
67410W        W32637  34.926  27.559   0.950
67411W        W32638  14.460  34.402  11.133
67412W        W32639   0.818  13.280  14.674
67413W        W32640  27.052  27.001   9.734
67414W        W32641  36.922   5.652  14.375
67415W        W32642  26.235  32.846  12.454
67416W        W32643  34.528  24.464  14.739
67417W        W32644  14.330  41.751   3.730
67418W        W32645  24.436  35.060   2.838
67419W        W32646  34.173  27.456   1.588
67420W        W32647  18.617  12.520   0.339
67421W        W32648  29.073   0.930   3.140
67422W        W32649  16.118  44.345  14.116
67423W        W32650  39.970   3.146  14.081
67424W        W32651  30.202  13.243   3.047
67425W        W32652  44.006  28.382   2.702
67426W        W32653   8.597  24.133   1.316
67427W        W32654   1.359  21.752   1.752
67428W        W32655  25.417  37.838   4.304
67429W        W32656  30.650  17.174   4.194
67430W        W32657   6.988  21.965  13.417
67431W        W32658  12.775  43.128   0.991
67432W        W32659  43.496  18.233  10.092
67433W        W32660   0.189  12.742  13.870
67434W        W32661  22.416  20.370   1.336
67435W        W32662  38.007  14.143   3.172
67436W        W32663  24.224  37.424   1.356
67437W        W32664   5.285   3.681  13.555
67438W        W32665  42.353  26.063   3.171
67439W        W32666  13.357  30.802  12.492
67440W        W32667  17.571  31.403   4.690
67441W        W32668  35.088  24.275  14.088
67442W        W32669  17.696  30.418  11.478
67443W        W32670  39.801  18.259   2.779
67444W        W32671  35.711   6.143  10.635
67445W        W32672  14.552  39.545   0.898
67446W        W32673   4.956  35.930   0.269
67447W        W32674  16.880  30.597  11.028
67448W        W32675  28.867   8.262  14.161
67449W        W32676  26.458  11.190  14.288
67450W        W32677  34.610  10.551  12.085
67451W        W32678   1.826  21.214   3.760
67452W        W32679  36.822  32.080   1.661
67453W        W32680  41.438  12.369   1.827
67454W        W32681  16.458  17.167   3.204
67455W        W32682  28.541  33.366   0.831
67456W        W32683  36.041   2.632  12.971
67457W        W32684   9.089  18.955   0.287
67458W        W32685  14.127  41.955  11.278
67459W        W32686   0.069   0.902  12.572
67460W        W32687  21.716  20.570  13.456
67461W        W32688  33.669  42.729  14.825
67462W        W32689  30.882  17.658  11.687
67463W        W32690  25.635  37.750   4.795
67464W        W32691  18.525   7.287   0.423
67465W        W32692  27.832  27.148   5.389
67466W        W32693  12.428   7.803   0.570
67467W        W32694  34.302  21.984   0.933
67468W        W32695  25.705  34.929   2.118
67469W        W32696  20.064  42.921   2.003
67470W        W32697  34.883   5.320   3.206
67471W        W32698  43.906   6.050   2.700
67472W        W32699  22.250   6.203  12.982
67473W        W32700  20.097   8.436  10.664
67474W        W32701   7.658   3.279  13.080
67475W        W32702  17.328  36.733  12.055
67476W        W32703   5.424   5.819   0.636
67477W        W32704  31.672  14.304  11.148
67478W        W32705  12.054  36.305  11.717
67479W        W32706  39.970   8.384  11.583
67480W        W32707  42.922  31.439  11.472
67481W        W32708  11.830  14.626   2.332
67482W        W32709  25.905  43.282   4.687
67483W        W32710  26.529  10.931   4.627
67484W        W32711  16.446  36.766  14.009
67485W        W32712  28.684  30.066   2.249
67486W        W32713  18.069   6.430  11.127
67487W        W32714  13.872  25.319   1.013
67488W        W32715  32.120  36.027  13.584
67489W        W32716  19.231  27.745  11.194
67490W        W32717  11.265  31.189  14.744
67491W        W32718   5.399   8.342  14.603
67492W        W32719  16.191   6.232  10.587
67493W        W32720   0.857  36.899   9.979
67494W        W32721   6.398  16.017  13.075
67495W        W32722   0.297  19.675   2.778
67496W        W32723  25.508  17.850   0.673
67497W        W32724  39.827   3.396   0.036
67498W        W32725  30.908  12.153  12.077
67499W        W32726  15.962  21.470  12.147
67500W        W32727  40.280  21.071   1.770
67501W        W32728  39.512  32.836  12.040
67502W        W32729  10.691  22.186   4.257
67503W        W32730  42.579  41.293  11.896
67504W        W32731  43.120  44.368  11.429
67505W        W32732  19.154  14.151  10.862
67506W        W32733  17.072  40.013   0.954
67507W        W32734  44.264  37.368   1.893
67508W        W32735  16.980  20.931   3.222
67509W        W32736   6.358  36.325  13.938
67510W        W32737  31.323  39.360   0.339
67511W        W32738  16.532  14.255   4.575
67512W        W32739  33.580  11.290  14.426
67513W        W32740   7.413  27.671  14.955
67514W        W32741  21.594  13.380  12.108
67515W        W32742  20.776  20.133   2.183
67516W        W32743  17.653   0.355   2.402
67517W        W32744   1.484  35.057  13.607
67518W        W32745  34.987  29.988   0.988
67519W        W32746   8.703   3.968  13.567
67520W        W32747  35.990  29.438   0.633
67521W        W32748   7.328   7.131   1.720
67522W        W32749  20.584   4.268   4.576
67523W        W32750  21.726  34.382  13.522
67524W        W32751  14.311   5.674  12.038
67525W        W32752  36.821   6.935   4.493
67526W        W32753  40.480  40.907  13.789
67527W        W32754  26.805  27.448   1.870
67528W        W32755  31.934   3.903  13.772
67529W        W32756   1.967  41.859   2.376
67530W        W32757  38.868   3.827  13.159
67531W        W32758  33.934  36.458   1.885
67532W        W32759  21.519  14.211   0.948
67533W        W32760  32.303  30.457  10.700
67534W        W32761  19.362  22.711   4.287
67535W        W32762  27.119  16.565   0.300
67536W        W32763   1.808   2.753   1.709
67537W        W32764  39.346  33.022   3.607
67538W        W32765  27.761   1.487   3.371
67539W        W32766  39.995   4.240  10.361
67540W        W32767  41.956   1.801   4.033
67541W        W32768  10.111  41.709  13.563
67542W        W32769   8.647  10.500   1.814
67543W        W32770   6.458  42.132  11.621
67544W        W32771  33.047  25.804   1.804
67545W        W32772   9.237  33.462  10.880
67546W        W32773   6.619   9.761   4.010
67547W        W32774  39.563   5.079  13.000
67548W        W32775  22.532  32.440  11.015
67549W        W32776  26.791  29.028  14.372
67550W        W32777  20.550  35.126   4.606
67551W        W32778  13.460  40.087   4.114
67552W        W32779  31.485  22.523  12.090
67553W        W32780  11.111  37.991   2.512
67554W        W32781   1.375  30.399   3.187
67555W        W32782  28.011  33.980   1.793
67556W        W32783   5.020  16.576   4.157
67557W        W32784  10.132  13.763   1.724
67558W        W32785  38.893   7.270   2.369
67559W        W32786  15.613  13.578  13.308
67560W        W32787  12.096  12.794  14.348
67561W        W32788  13.982   0.916  14.358
67562W        W32789   3.287  40.929   2.362
67563W        W32790  11.082   9.285  14.655
67564W        W32791  33.628  38.033   4.063
67565W        W32792  44.914   9.105  13.465
67566W        W32793  16.740  36.930  11.083
67567W        W32794   5.566  36.887  11.583
67568W        W32795  12.894   1.220   1.284
67569W        W32796   2.435  22.277   2.067
67570W        W32797  44.561  13.266   3.626
67571W        W32798   8.788   3.992   0.421
67572W        W32799  12.485  22.723  13.298
67573W        W32800  41.805  36.817  13.034
67574W        W32801  31.224  40.511  12.151
67575W        W32802   4.732  20.749   4.975
67576W        W32803   0.340  42.075   1.961
67577W        W32804  16.143  26.986   4.569
67578W        W32805  23.072   4.503  13.422
67579W        W32806  38.076  18.255   0.771
67580W        W32807   2.746   7.372   4.271
67581W        W32808   7.373  14.100   0.662
67582W        W32809   1.414  26.176   3.658
67583W        W32810   0.281   0.586  13.430
67584W        W32811  31.667  11.541  13.523
67585W        W32812  39.085  37.222  12.833
67586W        W32813  19.370  41.542   4.563
67587W        W32814  18.824  39.313  12.587
67588W        W32815  15.059  12.875  12.992
67589W        W32816  33.966  30.396   2.027
67590W        W32817  33.509  34.068  14.386
67591W        W32818  22.685  29.883   3.717
67592W        W32819  29.958  18.985   3.665
67593W        W32820  21.806  10.584  13.645
67594W        W32821  29.873  30.646   4.106
67595W        W32822  31.134  39.053   3.731
67596W        W32823  37.609  28.533  10.662
67597W        W32824  17.436   2.404   3.436
67598W        W32825  13.144  15.960   0.941
67599W        W32826  34.520   5.796   2.279
67600W        W32827  27.917  33.429   4.181
67601W        W32828   9.110  23.056  13.400
67602W        W32829  35.115  41.828  12.077
67603W        W32830   8.629  26.618  10.993
67604W        W32831  30.879  14.754   1.747
67605W        W32832  19.219   8.768  10.647
67606W        W32833  26.552  44.914  14.141
67607W        W32834  35.544  25.526   0.676
67608W        W32835  27.938  18.606  14.392
67609W        W32836   3.428  41.813  12.481
67610W        W32837  15.812  23.158   2.345
67611W        W32838  44.314  22.083   0.646
67612W        W32839  20.615  35.145  14.147
67613W        W32840  25.112  29.962  14.288
67614W        W32841  11.297  27.206   3.697
67615W        W32842  14.999   5.167  12.938
67616W        W32843  19.050  23.390   0.033
67617W        W32844   6.321  21.781   2.293
67618W        W32845   3.906   3.145  14.891
67619W        W32846  40.672  16.019  13.165
67620W        W32847  27.657  38.364   0.934
67621W        W32848  16.079  26.162  12.770
67622W        W32849  25.360  14.967   1.435
67623W        W32850   8.252   7.461   0.343
67624W        W32851  42.439   8.902   5.092
67625W        W32852  21.714   8.803  13.797
67626W        W32853   5.256  12.353  14.441
67627W        W32854  26.286  25.549  12.064
67628W        W32855   8.833   5.704  12.343
67629W        W32856  43.014  27.934  11.766
67630W        W32857   7.360  43.514  14.092
67631W        W32858   3.135  35.609   4.180
67632W        W32859  38.571  10.605   0.357
67633W        W32860  30.518   7.400  14.434
67634W        W32861  29.558   7.318   4.695
67635W        W32862  14.803  36.669  14.549
67636W        W32863  19.254   0.003   0.592
67637W        W32864  36.391  28.899   2.646
67638W        W32865  32.503  37.769  10.529
67639W        W32866  15.570  19.066   4.219
67640W        W32867   1.934  29.750   1.014
67641W        W32868  41.374  27.482  13.615
67642W        W32869  44.506  40.947   1.816
67643W        W32870  38.964  42.225   3.178
67644W        W32871  18.630   6.222   1.242
67645W        W32872  44.326  42.343  11.079
67646W        W32873  23.736   6.864  11.872
67647W        W32874  14.380  44.701  10.486
67648W        W32875  12.569   6.408  11.985
67649W        W32876  27.933   2.305  10.978
67650W        W32877  34.643  23.198   3.089
67651W        W32878  40.019  19.249   3.697
67652W        W32879   3.893  42.819   0.667
67653W        W32880  38.495   3.932  10.258
67654W        W32881  14.527   5.442  12.972
67655W        W32882  14.326  25.053  13.826
67656W        W32883  15.841  24.187   3.355
67657W        W32884   4.765   7.346   2.714
67658W        W32885  14.256  20.680  11.167
67659W        W32886  28.182  20.061  12.534
67660W        W32887  14.082  40.931  10.184
67661W        W32888  34.557  34.954   0.437
67662W        W32889  18.209  37.737  11.638
67663W        W32890  10.147  33.796   0.309
67664W        W32891   6.845  40.251  10.400
67665W        W32892  21.223  42.221  13.085
67666W        W32893  31.260  10.222   1.097
67667W        W32894  37.264   5.717   3.329
67668W        W32895   4.870   1.882   1.579
67669W        W32896  33.070  16.704   9.978
67670W        W32897  34.561  22.709  14.136
67671W        W32898   4.994  16.699   2.319
67672W        W32899  17.339  38.933   0.868
67673W        W32900  17.079  13.109   3.594
67674W        W32901  38.441  13.948   3.352
67675W        W32902  38.112  40.794  12.929
67676W        W32903  14.487  10.832   3.170
67677W        W32904  38.533   3.401  10.221
67678W        W32905  40.941  17.582  11.357
67679W        W32906  13.775  14.407  11.006
67680W        W32907  11.264  36.513  13.072
67681W        W32908  24.434  35.124   1.862
67682W        W32909   5.357  19.139  12.556
67683W        W32910   2.936   6.353  11.719
67684W        W32911  25.095  24.422  12.851
67685W        W32912  15.048   2.836   4.544
67686W        W32913   7.199  43.370  14.646
67687W        W32914  43.380  11.718  14.026
67688W        W32915   7.707   9.394  14.885
67689W        W32916   0.987   5.384  13.784
67690W        W32917  10.860  43.536  13.374
67691W        W32918  33.099  29.362   2.009
67692W        W32919   0.972  23.690  12.327
67693W        W32920  42.436   2.709  12.821
67694W        W32921  24.970  19.541  12.086
67695W        W32922  23.205  37.640   1.307
67696W        W32923  39.603  23.489   2.444
67697W        W32924  43.979  33.109   0.198
67698W        W32925  33.660   8.306   3.809
67699W        W32926  20.115   3.982  13.058
67700W        W32927  30.992  12.153   1.419
67701W        W32928   4.647   5.352  11.647
67702W        W32929  20.278  22.668   2.409
67703W        W32930  38.194  39.977   1.335
67704W        W32931  44.690  34.857   4.127
67705W        W32932   2.904  12.017  14.427
67706W        W32933  31.610  27.229   0.727
67707W        W32934   9.241  26.480  12.108
67708W        W32935  38.539  28.983   3.910
67709W        W32936  34.199  16.001   4.079
67710W        W32937  25.993   7.335  14.347
67711W        W32938  35.937  38.787  10.587
67712W        W32939  34.840  14.177   2.871
67713W        W32940   4.872  21.702   1.859
67714W        W32941  26.286  32.941  14.417
67715W        W32942  39.195   8.724   0.424
67716W        W32943  41.347  17.837  12.100
67717W        W32944  28.232  16.367  11.133
67718W        W32945  36.209  33.446  11.284
67719W        W32946   5.315  29.409   1.441
67720W        W32947  35.800  13.161   2.760
67721W        W32948  29.546  34.597  13.348
67722W        W32949  32.183  22.466   2.808
67723W        W32950  36.487  20.054  12.855
67724W        W32951  31.021  23.669   1.394
67725W        W32952  26.040   3.863  11.822
67726W        W32953  21.568  16.822  11.976
67727W        W32954  36.696  21.313   0.195
67728W        W32955  23.657  28.103  13.243
67729W        W32956  21.975  16.514   4.106
67730W        W32957  40.545   0.695  13.352
67731W        W32958  36.713  18.578  13.568
67732W        W32959  14.318  39.817  12.036
67733W        W32960  44.698  44.073   3.537
67734W        W32961  42.752  12.580  14.099
67735W        W32962  25.155  22.392  11.500
67736W        W32963  26.189  41.967  10.760
67737W        W32964  30.222   8.184   0.542
67738W        W32965  28.935  25.052  13.594
67739W        W32966  43.236  24.282   1.928
67740W        W32967  33.005  29.139  13.835
67741W        W32968  34.534  29.425  14.970
67742W        W32969  39.266  20.629   2.853
67743W        W32970   6.911  40.988   1.665
67744W        W32971  21.348  25.547  14.653
67745W        W32972   6.216  20.296  14.199
67746W        W32973  21.890  19.433  12.614
67747W        W32974  20.011   5.727  12.942
67748W        W32975   0.805  25.649  14.089
67749W        W32976  23.694  44.436   1.891
67750W        W32977   9.660  25.618  13.897
67751W        W32978  21.161  41.617  12.404
67752W        W32979  40.414  37.910  14.742
67753W        W32980  11.180   7.404  11.179
67754W        W32981  33.107  37.215   1.202
67755W        W32982  40.958  10.449  14.812
67756W        W32983  12.631  12.709   2.794
67757W        W32984  15.287  30.703   4.761
67758W        W32985  29.589   8.635  12.300
67759W        W32986  39.789   1.836   4.451
67760W        W32987  19.323   8.352  11.184
67761W        W32988   3.296  23.437   3.359
67762W        W32989  24.255   0.610  11.300
67763W        W32990   3.761  20.835  10.837
67764W        W32991  12.247   4.707   4.509
67765W        W32992   7.673  44.949  11.584
67766W        W32993  14.800   5.065  12.486
67767W        W32994  21.541  26.106   3.777
67768W        W32995  19.208  23.481  13.429
67769W        W32996   3.670  12.133   3.647
67770W        W32997  34.945  42.021  13.428
67771W        W32998  20.982  17.500  12.081
67772W        W32999  16.119  21.812   3.506
67773W        W33000   7.141  40.063   2.772
67774W        W33001  21.585  44.592  10.589
67775W        W33002  38.341  25.485   0.884
67776W        W33003   2.299  41.256   4.093
67777W        W33004  24.262   6.570   0.406
67778W        W33005  27.537   2.539   1.661
67779W        W33006  43.244   3.345  11.891
67780W        W33007  26.622   9.790  13.056
67781W        W33008  37.131   8.887  11.439
67782W        W33009  36.619  31.580  10.589
67783W        W33010  34.180  29.509  11.209
67784W        W33011  44.407  24.999   4.144
67785W        W33012  28.129  20.386   1.650
67786W        W33013  25.587  23.189  13.059
67787W        W33014  32.916  33.170  13.515
67788W        W33015  13.170  21.016  14.891
67789W        W33016  40.969  29.057  12.111
67790W        W33017  17.707  37.596  11.772
67791W        W33018  42.451  35.790  14.061
67792W        W33019   4.425   6.727   3.891
67793W        W33020   6.527  31.423   1.829
67794W        W33021  14.814  25.748   2.857
67795W        W33022   0.722   0.967  13.933
67796W        W33023  17.093  11.085   0.333
67797W        W33024  23.353   5.590  12.547
67798W        W33025  36.422   9.282   2.220
67799W        W33026  19.722  11.806   2.194
67800W        W33027   7.254  34.666  13.386
67801W        W33028  41.406  33.040   3.061
67802W        W33029  34.566   6.772  12.897
67803W        W33030   9.131  40.326  14.862
67804W        W33031  19.616  22.583  12.533
67805W        W33032  14.576   6.394   1.817
67806W        W33033  28.043   2.897  14.333
67807W        W33034  41.356  18.111  10.657
67808W        W33035  10.139   2.685  13.440
67809W        W33036  21.806  36.051  14.463
67810W        W33037   0.935  10.622   4.337
67811W        W33038  38.908  33.855   1.113
67812W        W33039  11.767  43.306   0.365
67813W        W33040   3.453  25.508  11.483
67814W        W33041  39.370  24.962   0.287
67815W        W33042  31.617  29.314   5.310
67816W        W33043  34.271  26.065   2.227
67817W        W33044  34.961  29.574   4.600
67818W        W33045  32.626  10.792  14.597
67819W        W33046  39.681   3.960   4.548
67820W        W33047  22.318   2.940  10.824
67821W        W33048  24.830  25.120  13.469
67822W        W33049  15.562   8.316   2.078
67823W        W33050  40.711  11.781  10.742
67824W        W33051  13.786  40.111   1.021
67825W        W33052   6.656  28.776   0.960
67826W        W33053  36.583  44.597  13.933
67827W        W33054  44.889  23.038   0.252
67828W        W33055  29.233  24.722  14.894
67829W        W33056  16.212  33.080   2.973
67830W        W33057  12.732  10.685   3.857
67831W        W33058  17.332  23.141  13.432
67832W        W33059   4.868  39.748  11.431
67833W        W33060   1.997  10.741   1.668
67834W        W33061  40.249  23.529  14.047
67835W        W33062  23.572  41.407   2.116
67836W        W33063   7.250  40.925  11.371
67837W        W33064  30.628  23.283  14.443
67838W        W33065  18.151   6.580  14.415
67839W        W33066  32.568  26.020   1.820
67840W        W33067  21.709  21.106  13.457
67841W        W33068  16.049   8.192   3.364
67842W        W33069  20.711   4.824   2.368
67843W        W33070  20.153  39.543  12.955
67844W        W33071  24.640  41.263  10.654
67845W        W33072  26.435   4.190   1.881
67846W        W33073  16.249   6.794   4.515
67847W        W33074  22.790  12.194   3.895
67848W        W33075  31.041  21.651   4.895
67849W        W33076  12.763  18.579   3.815
67850W        W33077   7.181  23.865  13.846
67851W        W33078  19.471  35.187   1.693
67852W        W33079  12.360  25.469  11.209
67853W        W33080  15.023   3.348  12.354
67854W        W33081  10.810  32.663   2.272
67855W        W33082  17.513  11.241   4.252
67856W        W33083  35.207  35.476  13.931
67857W        W33084  14.469  37.926  13.001
67858W        W33085  30.631  23.324   5.055
67859W        W33086  34.009  34.543  11.501
67860W        W33087  10.964  36.466   3.618
67861W        W33088  27.013  37.082  12.654
67862W        W33089  44.407  31.877   1.963
67863W        W33090  19.614   5.263   3.287
67864W        W33091  24.353   8.891   2.384
67865W        W33092  37.909  37.842   2.806
67866W        W33093  35.329   8.211  12.334
67867W        W33094  43.263   6.364   4.675
67868W        W33095   3.437  14.359   2.404
67869W        W33096   1.933  42.719   0.866
67870W        W33097  26.564  32.605  12.810
67871W        W33098  16.759  19.627  12.016
67872W        W33099  38.378  42.969   1.103
67873W        W33100  40.633   2.289   0.115
67874W        W33101  35.294  22.145   3.732
67875W        W33102  44.006  16.156   0.726
67876W        W33103   1.383  20.353  12.501
67877W        W33104  14.341  34.598  11.599
67878W        W33105  15.064  17.269  11.302
67879W        W33106  37.570   3.750  13.843
67880W        W33107  29.845   7.625  11.970
67881W        W33108  41.150  41.358   4.527
67882W        W33109  13.213  36.044  14.973
67883W        W33110  42.891   4.611   0.344
67884W        W33111  39.065  17.354  13.378
67885W        W33112   6.632  35.443  13.004
67886W        W33113  41.397  15.397  14.882
67887W        W33114  25.975  39.771   1.640
67888W        W33115  11.274  16.414   0.262
67889W        W33116   5.210  19.086   4.964
67890W        W33117  17.068  41.302   4.030
67891W        W33118  43.736  17.214  13.004
67892W        W33119  24.069  18.353   2.181
67893W        W33120  25.244  44.939  13.662
67894W        W33121  35.435  16.057   1.484
67895W        W33122  23.474  38.528  13.781
67896W        W33123   7.535   2.329  12.973
67897W        W33124  30.511  41.328   1.915
67898W        W33125   8.810  34.968   0.646
67899W        W33126  26.621   8.842   2.220
67900W        W33127   6.479   7.284   2.768
67901W        W33128  26.795   9.264   4.062
67902W        W33129  13.289  35.284   4.111
67903W        W33130  35.365  44.762   0.771
67904W        W33131  27.967  11.691  14.909
67905W        W33132   0.090  28.924  10.780
67906W        W33133  17.479  43.459  11.984
67907W        W33134   9.825  31.186  11.447
67908W        W33135  36.100  36.405   3.785
67909W        W33136   3.745  29.970  13.998
67910W        W33137  11.448   4.469  12.940
67911W        W33138  33.268  37.503   0.801
67912W        W33139  42.551  41.497   1.231
67913W        W33140   9.195  10.713  12.716
67914W        W33141  28.019  26.135   0.829
67915W        W33142   3.759  24.322   3.751
67916W        W33143  14.836  33.611   1.335
67917W        W33144  41.042  43.809   4.269
67918W        W33145  13.626  19.224   2.625
67919W        W33146  39.522  36.570   4.871
67920W        W33147  36.114  36.013   3.142
67921W        W33148  17.443  18.268  12.142
67922W        W33149  43.861   5.823  10.700
67923W        W33150  21.686  18.516   4.521
67924W        W33151  23.272   7.303   0.434
67925W        W33152  13.601  12.131  12.619
67926W        W33153   4.124  13.793   4.427
67927W        W33154  25.686  24.763   1.220
67928W        W33155  25.587   0.700  13.378
67929W        W33156   0.235  30.635  10.489
67930W        W33157   9.915   9.611  11.098
67931W        W33158  19.810  19.777   0.301
67932W        W33159  42.288   7.216   0.316
67933W        W33160  15.683  21.654   2.217
67934W        W33161  37.623   8.646  14.396
67935W        W33162  33.074   8.196  13.056
67936W        W33163  28.993  15.034   4.122
67937W        W33164  37.498  33.997   4.254
67938W        W33165   2.351  20.555   4.329
67939W        W33166   0.990  36.353   1.895
67940W        W33167  43.537   9.311  14.763
67941W        W33168  36.495  13.775   2.647
67942W        W33169  10.302  41.700  11.102
67943W        W33170   7.312   5.522   4.625
67944W        W33171  13.327  26.399  13.106
67945W        W33172  35.933  19.449   2.703
67946W        W33173  22.079  11.831   2.659
67947W        W33174  14.706   7.135   0.422
67948W        W33175   5.578  16.215   3.074
67949W        W33176   8.464  33.699   0.273
67950W        W33177   3.705  41.524  12.915
67951W        W33178   6.160  26.082  10.510
67952W        W33179  36.385  33.038   0.413
67953W        W33180  27.848   9.298  13.468
67954W        W33181  41.818  16.129  14.007
67955W        W33182   5.137  18.734  10.690
67956W        W33183  16.101   1.536   0.917
67957W        W33184   1.377  20.532  11.607
67958W        W33185   8.937  14.788   1.943
67959W        W33186  17.656  28.230  14.396
67960W        W33187  32.884  40.539  13.247
67961W        W33188  44.813  24.813   0.080
67962W        W33189   5.806  33.945  14.465
67963W        W33190  21.676  37.699   1.569
67964W        W33191  20.422  42.726  13.731
67965W        W33192  33.842  43.204  14.942
67966W        W33193  40.856  14.740  11.595
67967W        W33194  30.088  34.979   0.385
67968W        W33195   2.046   1.290  10.777
67969W        W33196  16.734   7.754   2.388
67970W        W33197  20.800  25.833   1.667
67971W        W33198  40.551  34.800   2.804
67972W        W33199  24.737  10.791  14.374
67973W        W33200   5.914  28.223  12.420
67974W        W33201  38.404  17.094   1.807
67975W        W33202  10.248  35.482   0.720
67976W        W33203  11.618  25.036   1.647
67977W        W33204  38.803  31.644  12.437
67978W        W33205   5.233  22.674   0.688
67979W        W33206  21.201  36.545   0.961
67980W        W33207   8.887  37.171  13.836
67981W        W33208  24.808  42.345  12.021
67982W        W33209  43.350  16.079   3.197
67983W        W33210  35.018  38.049   4.605
67984W        W33211  40.716  41.830  13.272
67985W        W33212  11.811   4.251  12.183
67986W        W33213  26.026   3.526   0.277
67987W        W33214  13.200  43.288  11.866
67988W        W33215  31.329  43.396   0.218
67989W        W33216  36.389  27.960   1.434
67990W        W33217   5.772  13.825   2.426
67991W        W33218  10.659   0.504   3.719
67992W        W33219  44.073  27.701   1.331
67993W        W33220  12.718  19.409  12.585
67994W        W33221   5.398   6.760  11.729
67995W        W33222  40.802  32.039   1.807
67996W        W33223   4.246  29.085  13.831
67997W        W33224  33.155  25.575   2.659
67998W        W33225  16.254  10.089  14.467
67999W        W33226  42.012  37.854  10.675
68000W        W33227  31.373  24.125  13.944
68001W        W33228  40.357  37.914  12.503
68002W        W33229  38.973  19.932  10.607
68003W        W33230  19.067  10.832   0.768
68004W        W33231  27.977  39.954  14.954
68005W        W33232  22.055  17.485  12.857
68006W        W33233  42.075  11.926   4.172
68007W        W33234   0.354  35.156   0.567
68008W        W33235  22.477  10.147  12.049
68009W        W33236  37.950  29.506  13.352
68010W        W33237   9.182   3.519  14.406
68011W        W33238  31.688  17.247  10.596
68012W        W33239   1.307  18.596   2.694
68013W        W33240   1.558  20.465  10.176
68014W        W33241  28.018  41.048  11.104
68015W        W33242   9.483  10.485  11.233
68016W        W33243   4.120   1.701  13.969
68017W        W33244   3.597  27.455  13.154
68018W        W33245  34.935  11.066  11.202
68019W        W33246  14.598  43.880  11.753
68020W        W33247  27.559  40.119  14.264
68021W        W33248  23.339  41.600  14.237
68022W        W33249  36.815  18.219   2.129
68023W        W33250  14.309  42.396  12.974
68024W        W33251  10.247  29.126  11.499
68025W        W33252  22.902   8.711  14.980
68026W        W33253  37.396   5.765   0.054
68027W        W33254   2.340  38.282  12.057
68028W        W33255   6.407  36.061   2.696
68029W        W33256   8.186  12.634  10.977
68030W        W33257   8.470   5.774   3.108
68031W        W33258  18.912  33.183  13.860
68032W        W33259  38.812   1.409   0.353
68033W        W33260  41.071  30.586  13.049
68034W        W33261  23.784  44.706  10.297
68035W        W33262  43.594  15.613   0.286
68036W        W33263   6.456  42.072   4.163
68037W        W33264  37.359  11.445   2.613
68038W        W33265  38.299  44.766  11.004
68039W        W33266  32.681  25.995  11.097
68040W        W33267  28.635  20.913   4.633
68041W        W33268  24.253   7.339   4.927
68042W        W33269  27.136   0.424   4.172
68043W        W33270  33.889  35.082  14.414
68044W        W33271  30.485  40.826   2.724
68045W        W33272  13.748   5.389   0.999
68046W        W33273  12.944   5.815  14.690
68047W        W33274   9.613  23.102   2.175
68048W        W33275  37.651  14.036   0.248
68049W        W33276  12.846   8.839   1.791
68050W        W33277  19.827  23.169   0.398
68051W        W33278  41.408   6.516  12.866
68052W        W33279  14.611  27.852   4.461
68053W        W33280  24.559  15.437  14.239
68054W        W33281  38.463  19.648  13.627
68055W        W33282  42.930  14.358  10.107
68056W        W33283  30.941   8.303  12.627
68057W        W33284  14.062  23.396   0.931
68058W        W33285  42.930   9.235  12.564
68059W        W33286  32.998  12.483  12.111
68060W        W33287  17.646  43.934  11.168
68061W        W33288  22.140  28.524   1.988
68062W        W33289  18.064   3.137   3.255
68063W        W33290  40.934  26.273   2.698
68064W        W33291  22.271   5.490   3.045
68065W        W33292   5.324  17.258   3.930
68066W        W33293   3.899  44.917  13.802
68067W        W33294  38.483  18.388  13.066
68068W        W33295  39.033  41.251  14.531
68069W        W33296   5.743  24.137   3.600
68070W        W33297   6.921  35.005   1.878
68071W        W33298  30.693  18.266  10.365
68072W        W33299   1.535   0.976   1.940
68073W        W33300  43.523  17.892  12.579
68074W        W33301   1.197  35.124   1.142
68075W        W33302  12.067  44.951  14.101
68076W        W33303  28.853  29.496  14.780
68077W        W33304  26.141  21.360   2.788
68078W        W33305  31.837   1.475   3.178
68079W        W33306  12.644   4.344  14.041
68080W        W33307  28.436  25.089  13.818
68081W        W33308  18.323  31.187   0.335
68082W        W33309   7.091   4.383  11.711
68083W        W33310  40.011  24.189   1.085
68084W        W33311  25.287  44.270   1.734
68085W        W33312  42.456  16.837   3.584
68086W        W33313  37.772  34.915   4.270
68087W        W33314  30.125  12.689   1.619
68088W        W33315  22.970  13.526   1.736
68089W        W33316  14.497  27.134   1.882
68090W        W33317  31.040   2.145  10.235
68091W        W33318  33.156   3.536  10.841
68092W        W33319  13.920  15.324   4.382
68093W        W33320  19.716  27.121   2.077
68094W        W33321  38.482  22.728   2.229
68095W        W33322  19.725   5.055   4.597
68096W        W33323  13.838  21.034   9.930
68097W        W33324  31.658  30.959   1.824
68098W        W33325  26.098  19.969  11.509
68099W        W33326  12.265  37.427  10.279
68100W        W33327  32.376  27.257  13.910
68101W        W33328  23.825  43.831  13.814
68102W        W33329  17.297  35.571   4.594
68103W        W33330  43.233  39.379   1.381
68104W        W33331  44.790  42.917   2.428
68105W        W33332  31.712  15.092  11.735
68106W        W33333   4.860   5.979   1.235
68107W        W33334  39.250  34.075   4.219
68108W        W33335  25.710  29.852  14.257
68109W        W33336  28.458  25.026  13.300
68110W        W33337  21.665  25.914  11.618
68111W        W33338  26.053  16.333  13.831
68112W        W33339   8.865  26.477  10.521
68113W        W33340  19.259   8.122   0.358
68114W        W33341  20.037   6.741  11.979
68115W        W33342   2.671  40.320  10.833
68116W        W33343  10.356  24.950  14.860
68117W        W33344   8.387   5.782  13.194
68118W        W33345  13.004   7.513  10.072
68119W        W33346   9.266  29.587   0.350
68120W        W33347  37.578   1.944   4.574
68121W        W33348  26.966  44.814  13.876
68122W        W33349  36.985   4.836   2.589
68123W        W33350  38.216  13.705  12.177
68124W        W33351  43.078  20.001  13.209
68125W        W33352   7.168   2.883   3.341
68126W        W33353  11.844  31.519  15.000
68127W        W33354  35.222  13.263   0.739
68128W        W33355  29.592  10.219  10.326
68129W        W33356  26.629   9.914  14.503
68130W        W33357  24.649  39.046  12.906
68131W        W33358   0.912  18.362   4.596
68132W        W33359  21.602  18.710  12.340
68133W        W33360   2.957  30.264   0.257
68134W        W33361  29.600  18.150   1.179
68135W        W33362  16.035  11.216   4.104
68136W        W33363  40.054  37.502  11.280
68137W        W33364  29.071  31.980   3.208
68138W        W33365  31.594  18.641   3.696
68139W        W33366  42.989  42.816  12.201
68140W        W33367  31.673  32.042  14.997
68141W        W33368  43.872  33.672   4.562
68142W        W33369   8.590  15.139   2.762
68143W        W33370  41.916   6.929   1.146
68144W        W33371  23.590  22.209   1.365
68145W        W33372   5.185  26.117   4.196
68146W        W33373  14.682   5.934  12.921
68147W        W33374  38.533  35.468  11.014
68148W        W33375  21.218   2.620   2.179
68149W        W33376  36.599  42.792  12.439
68150W        W33377  41.519   5.930  14.779
68151W        W33378  42.382   2.405   0.054
68152W        W33379   9.931  40.752  12.003
68153W        W33380  22.724  15.690   0.789
68154W        W33381  38.344  12.674  14.534
68155W        W33382  30.058  25.260   0.037
68156W        W33383  44.913  30.516  12.691
68157W        W33384   6.170  16.333  11.658
68158W        W33385  29.526  19.698   0.330
68159W        W33386   0.219  12.935   0.516
68160W        W33387  39.486  20.714  13.550
68161W        W33388  29.612  42.255   0.550
68162W        W33389  20.245   6.276  13.319
68163W        W33390  36.330   2.033  14.477
68164W        W33391  36.877  39.854  10.571
68165W        W33392  23.785  30.425   2.570
68166W        W33393  10.930  28.063  14.185
68167W        W33394  42.561  37.920   0.819
68168W        W33395  34.473  29.124   3.164
68169W        W33396  40.273   5.382  12.592
68170W        W33397  39.426   2.627   0.668
68171W        W33398  19.608  18.290   2.359
68172W        W33399  26.560  28.853   4.578
68173W        W33400  42.886  31.526  14.279
68174W        W33401  15.638  39.440  11.964
68175W        W33402  36.077  16.823  12.473
68176W        W33403  44.016  10.308   1.276
68177W        W33404  26.146  32.433  13.713
68178W        W33405   8.306   1.219   2.202
68179W        W33406   0.459  38.404   2.395
68180W        W33407  20.182  19.643  13.060
68181W        W33408   2.711  38.346  11.055
68182W        W33409  11.748  28.413  14.752
68183W        W33410  42.655   4.322  14.872
68184W        W33411  38.914  10.376  11.686
68185W        W33412  25.726  28.974   1.896
68186W        W33413  23.449   5.675  10.305
68187W        W33414  27.906  28.073   1.418
68188W        W33415  28.239  16.543  13.692
68189W        W33416  22.451  42.240  13.363
68190W        W33417   6.456   7.814   1.004
68191W        W33418   9.145  28.752  12.973
68192W        W33419  27.109  29.432   3.481
68193W        W33420  13.311  20.169  11.408
68194W        W33421  36.948  24.690   3.825
68195W        W33422  24.194  25.925  12.664
68196W        W33423  24.275  29.398   2.930
68197W        W33424   7.276  14.607  12.987
68198W        W33425  22.435  41.451   0.770
68199W        W33426  24.009  18.091   0.904
68200W        W33427   7.876   3.869   3.576
68201W        W33428  29.029  37.449   0.395
68202W        W33429  32.088  11.369   1.376
68203W        W33430  19.749  13.101  13.521
68204W        W33431   1.819  19.439   2.231
68205W        W33432  23.029  12.928  11.478
68206W        W33433   8.956  29.935  13.959
68207W        W33434   7.711   3.358  14.383
68208W        W33435  40.323  22.265   3.632
68209W        W33436  21.798  32.895  11.314
68210W        W33437  22.403  44.266  11.202
68211W        W33438  40.709  44.721  12.824
68212W        W33439  15.884  34.382   3.269
68213W        W33440  29.775  34.352  12.962
68214W        W33441   3.750   6.879  10.512
68215W        W33442   8.971   7.254   4.227
68216W        W33443   2.798  27.960  13.179
68217W        W33444   9.154   8.360  13.400
68218W        W33445  33.581  25.927  11.550
68219W        W33446   4.841  20.106   4.243
68220W        W33447  19.162  21.000  14.406
68221W        W33448  29.127  12.591   3.542
68222W        W33449   5.413  43.965  14.492
68223W        W33450  42.076  16.843  11.659
68224W        W33451  20.055  41.058  14.967
68225W        W33452  25.692  32.444   0.508
68226W        W33453  20.145   1.262  11.558
68227W        W33454  17.768  33.817  13.463
68228W        W33455  20.261  23.657  12.530
68229W        W33456  37.965   3.995  14.091
68230W        W33457  34.341   6.318  13.007
68231W        W33458   5.927  26.119  12.852
68232W        W33459  11.772  15.938   4.741
68233W        W33460  35.631  34.992   2.246
68234W        W33461   6.021  36.370  14.367
68235W        W33462   2.289  41.820  11.385
68236W        W33463  10.897  44.403   4.074
68237W        W33464  11.114  10.926  13.823
68238W        W33465  42.611  13.398  14.438
68239W        W33466  19.319  37.914  13.695
68240W        W33467  10.734   5.687  12.252
68241W        W33468  44.591  28.241   3.283
68242W        W33469  14.375  27.687   1.902
68243W        W33470   2.344  22.130   1.581
68244W        W33471  29.666   9.309   4.182
68245W        W33472  28.997   4.441  11.582
68246W        W33473  23.223  16.018   2.979
68247W        W33474  35.403  42.458  11.056
68248W        W33475  20.708  38.286  13.536
68249W        W33476  33.517  31.351  11.455
68250W        W33477  17.574   9.142   3.941
68251W        W33478  20.583  34.366  12.021
68252W        W33479  22.588   8.917  13.432
68253W        W33480  15.691  27.714  13.077
68254W        W33481  24.756  16.312   2.777
68255W        W33482   0.289   4.885   1.811
68256W        W33483  26.144  37.119  13.996
68257W        W33484  23.216  31.556   1.147
68258W        W33485  17.004  11.134   3.425
68259W        W33486  24.402  14.323   2.000
68260W        W33487   2.443  39.810   3.460
68261W        W33488  14.782   1.299  12.120
68262W        W33489  24.590  41.926   0.931
68263W        W33490  31.233  20.482  14.389
68264W        W33491  44.315   8.011  11.157
68265W        W33492  10.674   7.197   2.310
68266W        W33493  31.633  29.041  11.989
68267W        W33494  41.753  30.887  13.934
68268W        W33495  33.567  32.513  13.349
68269W        W33496  42.525   6.613  12.861
68270W        W33497  43.088  13.217  11.558
68271W        W33498  34.166  29.292   4.461
68272W        W33499   0.941  30.096   3.205
68273W        W33500  33.106  42.216   1.399
68274W        W33501  23.778   2.064   3.341
68275W        W33502  15.060  16.252   2.187
68276W        W33503  26.094  34.862  12.622
68277W        W33504  40.536  14.557   0.051
68278W        W33505  37.279  38.112  13.130
68279W        W33506   4.809   9.301  13.030
68280W        W33507  28.604  36.353   2.344
68281W        W33508  36.136  28.949  14.885
68282W        W33509  16.546  42.777  12.495
68283W        W33510   6.195  11.039  12.517
68284W        W33511   4.518   6.647  12.107
68285W        W33512   8.199  19.646   2.838
68286W        W33513  20.866  27.808  10.765
68287W        W33514  43.369  34.891  12.056
68288W        W33515   4.171   8.312   1.620
68289W        W33516  10.427  18.024   0.690
68290W        W33517  19.110  33.072   2.264
68291W        W33518  19.578  18.229  11.186
68292W        W33519  20.599  19.041  12.070
68293W        W33520  13.849  31.974  12.428
68294W        W33521   5.409  22.127   1.337
68295W        W33522  23.431  40.047  11.146
68296W        W33523  10.121  44.259  11.033
68297W        W33524  10.610  16.014  14.028
68298W        W33525  30.317  41.021   1.463
68299W        W33526  36.830  19.110  13.035
68300W        W33527  35.344  43.241  13.010
68301W        W33528  27.506   5.154   1.415
68302W        W33529  25.763  20.239  12.829
68303W        W33530  39.905  20.751  14.301
68304W        W33531  18.092  25.732   1.255
68305W        W33532  27.901   6.475  12.474
68306W        W33533   1.258  10.622  13.936
68307W        W33534  42.455  19.680   2.322
68308W        W33535  40.320  41.419   2.000
68309W        W33536  35.370  25.157  11.022
68310W        W33537  37.429  20.329  12.097
68311W        W33538  38.242  33.385  14.451
68312W        W33539  21.320   1.066  11.224
68313W        W33540  36.290  28.746   0.427
68314W        W33541  13.392  10.219  12.866
68315W        W33542  21.828  19.841  11.793
68316W        W33543   8.963  35.964  14.705
68317W        W33544  33.462  41.124   0.699
68318W        W33545  41.710  15.354  10.497
68319W        W33546  10.806   8.703  13.475
68320W        W33547  40.748  18.622  12.821
68321W        W33548  12.821  35.805  14.724
68322W        W33549   2.755  27.617   1.697
68323W        W33550  40.980   3.217   2.943
68324W        W33551  17.694  30.928   2.658
68325W        W33552  23.130  30.517   0.599
68326W        W33553  41.789  20.557   3.156
68327W        W33554  16.787  38.547   3.739
68328W        W33555  10.111   2.290   1.704
68329W        W33556   3.542   8.243  12.677
68330W        W33557  42.461  34.994  12.190
68331W        W33558  36.483  10.918   1.186
68332W        W33559   4.417  42.927   1.877
68333W        W33560  13.008  28.824  10.070
68334W        W33561  40.438  23.503   0.856
68335W        W33562  33.895   0.133  14.602
68336W        W33563  26.566  14.292   1.661
68337W        W33564  22.082  36.570   2.803
68338W        W33565  13.603  23.720   3.316
68339W        W33566  29.695  32.004   0.690
68340W        W33567   7.610  11.612  11.554
68341W        W33568  24.216  30.378   0.263
68342W        W33569  18.851  42.634   2.599
68343W        W33570   9.111  19.975  13.476
68344W        W33571  14.361  18.765  13.045
68345W        W33572  22.959  41.252  12.771
68346W        W33573   6.144  35.302   3.617
68347W        W33574  21.507   0.819  10.254
68348W        W33575  37.524  39.758   4.134
68349W        W33576  35.890  15.289   1.680
68350W        W33577  27.960  27.499   1.355
68351W        W33578  33.430  34.549   4.158
68352W        W33579  22.490  36.666  13.876
68353W        W33580  29.391  28.446  12.494
68354W        W33581  21.172  22.640  13.863
68355W        W33582  35.073  27.151   3.117
68356W        W33583  43.915  11.515  12.840
68357W        W33584  29.839   1.198   1.243
68358W        W33585  26.780  35.422   0.305
68359W        W33586   8.857  12.508  10.610
68360W        W33587  41.173  28.841  12.552
68361W        W33588  20.356  34.394   0.240
68362W        W33589  21.092   7.763   5.135
68363W        W33590  25.559  36.832   4.215
68364W        W33591  34.702  30.000   4.810
68365W        W33592  15.062  10.400   4.110
68366W        W33593  18.278  34.625   2.690
68367W        W33594  43.977  31.644   3.645
68368W        W33595  13.643  37.921   4.431
68369W        W33596  41.468  35.813   2.711
68370W        W33597  31.333  33.502  13.099
68371W        W33598  44.093  10.887  12.303
68372W        W33599   6.964  27.585  13.960
68373W        W33600  38.832  27.566  12.128
68374W        W33601  43.964   3.420   2.652
68375W        W33602  39.511   8.719  10.681
68376W        W33603   1.706  44.731  13.051
68377W        W33604  34.755  41.702   3.766
68378W        W33605  34.194  14.789   0.258
68379W        W33606   4.399  29.048   2.181
68380W        W33607  42.811  19.516  14.562
68381W        W33608  25.603   9.139  10.631
68382W        W33609  11.186  33.997  14.357
68383W        W33610  35.605  41.427  13.507
68384W        W33611   7.270  27.173   0.866
68385W        W33612  39.206  41.777  10.843
68386W        W33613  10.768  14.355   1.806
68387W        W33614  42.767   2.780   4.592
68388W        W33615  17.181  13.374   2.716
68389W        W33616  44.502  12.681  12.052
68390W        W33617  17.009  40.238  14.261
68391W        W33618  36.101   0.300   4.591
68392W        W33619   3.658  41.848   4.544
68393W        W33620  37.319  12.169  12.104
68394W        W33621  22.486  40.123   0.825
68395W        W33622  17.273  12.704  11.732
68396W        W33623   9.492  30.662  13.941
68397W        W33624  27.670   9.733  11.233
68398W        W33625   3.005  42.999  12.603
68399W        W33626  12.768  40.119   3.669
68400W        W33627  12.744  10.120   1.313
68401W        W33628  24.710   8.982   0.151
68402W        W33629  37.767   3.310   1.248
68403W        W33630  38.935  40.791  13.126
68404W        W33631  25.040   7.197  12.812
68405W        W33632  10.254  17.843   0.215
68406W        W33633  42.750  19.787   1.176
68407W        W33634  34.536   8.973   0.296
68408W        W33635  12.122   1.252   4.020
68409W        W33636   5.262  44.068  13.468
68410W        W33637  28.504  35.540   1.767
68411W        W33638  22.633  12.804  14.605
68412W        W33639   7.653   5.971  11.637
68413W        W33640  29.381   3.378  10.772
68414W        W33641  18.073  32.779   1.929
68415W        W33642  13.062  28.112  11.183
68416W        W33643  17.600  27.200   1.203
68417W        W33644  26.943   4.795  14.953
68418W        W33645  35.668  20.269   4.922
68419W        W33646  41.554  33.418   0.839
68420W        W33647  29.269   7.372   0.701
68421W        W33648  26.245  28.607  13.876
68422W        W33649   0.846  23.863   4.574
68423W        W33650  28.186  42.063  11.221
68424W        W33651   7.451  33.477  14.925
68425W        W33652  19.186  24.086   4.189
68426W        W33653  11.766   5.403   3.366
68427W        W33654  41.997   5.214  14.499
68428W        W33655  35.307   3.318  11.194
68429W        W33656  15.341  27.135  10.533
68430W        W33657  32.031  26.745  12.161
68431W        W33658  31.463  20.669   0.545
68432W        W33659   2.776  42.019  11.264
68433W        W33660  19.197  41.286   2.780
68434W        W33661  41.722  26.423   5.120
68435W        W33662  26.830  40.491   2.317
68436W        W33663  21.744  37.154   3.281
68437W        W33664   3.785  16.864  13.890
68438W        W33665  25.319  25.623  14.574
68439W        W33666  17.003  44.178  14.338
68440W        W33667  41.511  32.709  13.017
68441W        W33668  32.993  16.224  13.847
68442W        W33669   4.881  16.915  12.395
68443W        W33670  11.894  22.822   1.635
68444W        W33671  19.749   2.308   0.943
68445W        W33672  11.783  37.955   0.915
68446W        W33673  39.142  10.636   4.262
68447W        W33674   6.959  23.676   0.278
68448W        W33675   3.470  23.021  11.438
68449W        W33676  26.742  36.345   2.193
68450W        W33677  28.061  10.155  12.476
68451W        W33678  43.895  41.565  14.898
68452W        W33679  17.175  42.228   0.245
68453W        W33680  14.017  38.332  12.143
68454W        W33681   8.618  32.383   1.845
68455W        W33682  20.936   8.761   1.811
68456W        W33683  15.171  16.137  12.042
68457W        W33684  38.351  36.359   2.723
68458W        W33685  41.174  22.632  12.463
68459W        W33686  42.612  43.880   0.686
68460W        W33687  18.225  42.295   4.751
68461W        W33688  23.212  20.728   4.152
68462W        W33689  10.448  21.021   2.679
68463W        W33690   5.308  38.336  14.436
68464W        W33691   6.477  10.536  13.404
68465W        W33692  43.456  39.208  12.526
68466W        W33693  12.035  41.542   1.230
68467W        W33694  34.050  26.942  11.070
68468W        W33695   2.878  38.184   1.410
68469W        W33696  12.996  22.879   5.003
68470W        W33697  11.883  36.526  14.280
68471W        W33698  21.427  18.857   4.220
68472W        W33699  41.274  34.375  13.532
68473W        W33700  36.023  12.336  13.581
68474W        W33701  24.689  33.511   0.902
68475W        W33702  15.236  37.999   0.274
68476W        W33703  18.826  23.145   3.620
68477W        W33704  37.608  26.493  14.377
68478W        W33705  17.724  36.980  11.176
68479W        W33706  10.336  35.520  12.937
68480W        W33707  23.353   3.241  14.885
68481W        W33708  37.870  33.980   4.635
68482W        W33709  21.172  15.110   3.782
68483W        W33710  10.973  13.588  11.626
68484W        W33711  41.012   5.015   5.444
68485W        W33712  28.504  22.656   4.653
68486W        W33713   5.042  43.158   9.894
68487W        W33714  26.247  30.164  12.943
68488W        W33715   6.008  27.662   4.680
68489W        W33716  10.292  21.545  11.799
68490W        W33717  37.419  42.272  14.513
68491W        W33718  36.790  32.987   3.788
68492W        W33719  23.729   0.785  14.111
68493W        W33720  21.451   4.240   3.610
68494W        W33721   3.124  42.983  13.472
68495W        W33722  21.738  19.545  13.670
68496W        W33723  29.806  15.250  11.078
68497W        W33724  22.068  18.533   2.811
68498W        W33725  12.812  17.463  12.139
68499W        W33726  37.802  10.455   5.126
68500W        W33727   6.295  24.212  11.764
68501W        W33728  44.457   3.702   3.213
68502W        W33729  35.459   6.475  12.094
68503W        W33730   3.240  39.814  14.023
68504W        W33731  42.233  40.039   3.152
68505W        W33732  15.553   3.200   1.836
68506W        W33733  25.635  12.013   9.762
68507W        W33734  22.276  44.955  13.822
68508W        W33735  24.517  15.343   0.945
68509W        W33736  29.526  19.248  13.923
68510W        W33737  34.076  29.332  13.013
68511W        W33738  35.904  14.569  13.008
68512W        W33739   6.274  40.813  14.268
68513W        W33740  17.975  21.466  10.718
68514W        W33741  33.459  34.867   3.251
68515W        W33742  39.996   8.144   3.321
68516W        W33743   3.799  17.954  13.051
68517W        W33744  34.954  32.584  12.757
68518W        W33745  42.079  44.983  13.755
68519W        W33746   4.863  20.083  10.385
68520W        W33747  29.551  20.794   3.514
68521W        W33748  37.078  21.506  13.854
68522W        W33749   8.654  29.208  11.379
68523W        W33750  15.351  33.475  10.435
68524W        W33751   5.805  14.866   1.921
68525W        W33752  41.763   4.929  12.027
68526W        W33753  30.183  28.984  11.052
68527W        W33754   7.256  35.566  14.970
68528W        W33755  36.614  13.379   0.885
68529W        W33756   1.281  11.265   0.280
68530W        W33757  20.356  28.042  10.756
68531W        W33758  34.905  39.855   2.645
68532W        W33759  19.678   9.852   0.547
68533W        W33760  20.235  11.211  14.901
68534W        W33761  21.331  41.928  11.436
68535W        W33762  30.962  41.236   0.616
68536W        W33763  43.553  38.877   0.334
68537W        W33764  34.048  43.518  14.590
68538W        W33765   0.784   9.124   0.860
68539W        W33766  27.185  41.583  13.771
68540W        W33767  42.213  27.588  11.662
68541W        W33768  18.821  25.785  11.106
68542W        W33769   4.979   7.360  13.554
68543W        W33770  26.717   7.350   4.601
68544W        W33771  40.088   8.343   4.550
68545W        W33772  23.522  42.751   0.264
68546W        W33773   7.206  14.857  14.239
68547W        W33774  33.085  11.480   2.279
68548W        W33775  34.064  25.877   1.773
68549W        W33776  38.380  15.038  11.117
68550W        W33777  22.448  43.222   0.580
68551W        W33778   2.626   0.328  13.414
68552W        W33779  42.103  12.280   4.547
68553W        W33780  33.421  25.116  10.236
68554W        W33781  11.299   8.617  13.910
68555W        W33782  30.625  28.979   0.389
68556W        W33783   1.756  12.666   4.678
68557W        W33784   8.897  33.090  13.461
68558W        W33785  26.448  10.367  14.758
68559W        W33786   7.786  16.169  14.056
68560W        W33787  31.166  42.775  13.031
68561W        W33788  16.230   5.097   1.824
68562W        W33789   1.742  26.511   1.961
68563W        W33790   2.314   6.786  10.686
68564W        W33791  38.330   2.919  13.464
68565W        W33792  28.793  24.148  12.890
68566W        W33793  19.927   1.753  13.467
68567W        W33794  21.038  14.790   3.013
68568W        W33795  32.802  30.652   2.808
68569W        W33796   4.379   0.777   4.318
68570W        W33797  35.566   0.861  13.374
68571W        W33798   8.229   9.395  13.428
68572W        W33799  33.404  32.865   1.396
68573W        W33800  21.626  14.335  11.176
68574W        W33801  12.298  10.967  11.240
68575W        W33802   5.710  24.095  10.931
68576W        W33803  40.279  15.852   0.434
68577W        W33804  41.297  40.895  10.704
68578W        W33805  10.253  34.158  12.545
68579W        W33806  28.521  41.171   3.157
68580W        W33807   9.122  24.398  14.426
68581W        W33808  23.629  11.083   4.583
68582W        W33809  43.416  16.998   3.230
68583W        W33810  42.303  36.948   1.636
68584W        W33811  21.333  32.839  12.949
68585W        W33812  33.529  25.033   3.340
68586W        W33813   3.623  38.323   4.547
68587W        W33814  34.647  38.172   0.513
68588W        W33815  35.793  16.830   4.108
68589W        W33816  20.769  31.951  13.773
68590W        W33817  44.565  10.463  10.287
68591W        W33818  14.145   8.827  14.993
68592W        W33819  27.573  44.479   1.390
68593W        W33820  44.365  42.350   1.986
68594W        W33821  14.009  40.331   1.460
68595W        W33822   0.130   5.274  14.410
68596W        W33823  18.239  18.128  13.065
68597W        W33824  25.549   4.951   3.598
68598W        W33825  24.213  44.382   1.761
68599W        W33826  41.227  23.636  14.795
68600W        W33827  29.088  20.237   3.359
68601W        W33828   9.308   6.382  10.778
68602W        W33829  23.989  25.227  11.112
68603W        W33830   2.413  33.141  13.431
68604W        W33831  39.764   6.188  13.242
68605W        W33832  37.965  16.047   1.293
68606W        W33833   0.019  38.278   2.037
68607W        W33834  39.328  22.245   2.867
68608W        W33835  31.248  30.379  14.735
68609W        W33836  34.157   0.256  14.186
68610W        W33837   2.734  27.503   2.658
68611W        W33838  36.534  25.677   2.350
68612W        W33839  34.591  31.595   3.930
68613W        W33840  14.966  35.898   3.726
68614W        W33841  21.838  15.846  13.466
68615W        W33842  43.074  36.029   0.842
68616W        W33843   5.330  12.575   0.034
68617W        W33844  38.433  27.053  11.254
68618W        W33845  33.888  31.336  12.966
68619W        W33846   6.354  21.567  14.960
68620W        W33847  41.026   5.698  13.842
68621W        W33848  16.242  37.802   4.678
68622W        W33849  21.145  24.697  14.937
68623W        W33850  38.525  35.086  12.176
68624W        W33851  30.970  17.973   5.673
68625W        W33852  27.474  34.649  11.133
68626W        W33853  28.985   5.357  11.193
68627W        W33854  32.075  31.421  13.263
68628W        W33855  18.021   6.009   4.750
68629W        W33856  17.788  33.837  14.513
68630W        W33857   9.259  25.222  11.595
68631W        W33858  31.436  19.127  14.890
68632W        W33859  36.074  22.771   2.845
68633W        W33860  13.807  22.073   4.172
68634W        W33861  29.094  23.508  10.973
68635W        W33862   6.442  36.946   0.211
68636W        W33863   9.874  30.098  10.728
68637W        W33864  17.862  11.702   0.002
68638W        W33865  12.601   6.770   4.592
68639W        W33866   9.696  31.834  14.099
68640W        W33867  32.900  17.895   4.167
68641W        W33868  36.866  31.984   1.155
68642W        W33869  24.199  39.794   3.158
68643W        W33870  40.886  25.302   0.274
68644W        W33871  28.643  39.172   0.452
68645W        W33872  21.683  24.496  13.861
68646W        W33873   6.287  44.483  13.062
68647W        W33874  39.150  16.055  11.825
68648W        W33875   4.417   1.375   2.088
68649W        W33876  27.479  26.122  12.698
68650W        W33877  43.554  33.230  13.074
68651W        W33878  44.349  27.406   0.316
68652W        W33879  15.670  43.829   0.339
68653W        W33880   1.805   8.926  14.363
68654W        W33881   5.368   8.178  14.088
68655W        W33882  29.963  36.522   9.807
68656W        W33883  44.015  44.491   1.295
68657W        W33884  31.315   4.088   1.438
68658W        W33885  22.159  26.853  12.477
68659W        W33886  33.758  10.913  10.439
68660W        W33887  13.111   7.001  12.835
68661W        W33888  38.085  41.037   4.189
68662W        W33889  38.479  22.563   0.836
68663W        W33890  29.424  42.975   1.872
68664W        W33891   4.572  11.721  13.766
68665W        W33892  40.957  39.075   4.644
68666W        W33893  29.947  26.576  14.817
68667W        W33894   9.407  40.548  14.453
68668W        W33895  26.729  24.040  12.018
68669W        W33896  44.811   1.479  13.344
68670W        W33897  37.623  39.784   4.650
68671W        W33898  29.903  11.231   0.271
68672W        W33899  40.559  32.634   2.616
68673W        W33900  28.641  27.081   1.761
68674W        W33901  43.925  11.335  11.522
68675W        W33902  22.188  13.279   0.680
68676W        W33903  32.175  24.567   4.591
68677W        W33904  20.509  32.469  12.906
68678W        W33905  15.192   1.495   1.291
68679W        W33906  14.793  35.960   4.628
68680W        W33907  28.531  22.006  12.703
68681W        W33908  24.691  34.615   2.740
68682W        W33909  33.121   1.255   4.021
68683W        W33910  43.027  32.448   3.093
68684W        W33911  42.295  33.210   3.214
68685W        W33912   2.812   3.740   2.431
68686W        W33913  14.603   1.167   1.972
68687W        W33914  28.081  11.445  12.863
68688W        W33915  43.217  25.204   1.061
68689W        W33916  36.172  41.114  12.541
68690W        W33917  19.568  39.818   0.892
68691W        W33918  27.888  10.262   5.207
68692W        W33919  43.241   4.487   3.102
68693W        W33920  37.889  35.684   3.177
68694W        W33921  16.746  20.491  13.863
68695W        W33922  18.019  20.635  13.524
68696W        W33923   1.594  37.021   3.746
68697W        W33924  29.627  40.237   3.396
68698W        W33925  12.968   0.713   3.028
68699W        W33926   1.840  22.501  11.108
68700W        W33927   8.452  28.737   2.675
68701W        W33928  42.540   6.327  10.326
68702W        W33929   4.837  36.027  13.794
68703W        W33930  40.371  15.143   2.741
68704W        W33931  40.582  39.372  14.869
68705W        W33932   8.249  40.393   4.306
68706W        W33933  28.212  21.560  12.617
68707W        W33934  22.093   8.053   2.206
68708W        W33935  38.505  34.046  13.217
68709W        W33936  41.360  39.105  14.072
68710W        W33937  20.644  39.182  10.616
68711W        W33938  44.992  21.525   2.806
68712W        W33939   1.859  18.943  13.466
68713W        W33940  35.961  23.618   1.330
68714W        W33941  36.008  28.662   3.775
68715W        W33942  39.369  33.689  10.174
68716W        W33943   9.107  24.917  13.783
68717W        W33944  10.192  24.529  12.329
68718W        W33945   2.536  30.583   1.819
68719W        W33946   0.323  10.327  10.425
68720W        W33947  27.945   7.601  13.976
68721W        W33948   3.491  40.494  10.732
68722W        W33949  18.073  21.471  14.070
68723W        W33950  44.035  28.390  13.401
68724W        W33951   3.989  22.568   3.269
68725W        W33952  39.103  38.274   3.677
68726W        W33953  40.496  14.743   3.069
68727W        W33954  14.143  37.836  12.033
68728W        W33955  29.725   4.799  14.420
68729W        W33956  23.975   0.318  10.956
68730W        W33957  16.123  10.764  12.454
68731W        W33958   0.427  32.342  11.037
68732W        W33959  33.919   6.195   1.011
68733W        W33960   9.323  29.528  11.414
68734W        W33961  32.119  39.783   2.141
68735W        W33962  24.723  35.218   3.232
68736W        W33963  10.390  20.531  11.056
68737W        W33964  16.747   4.751   0.602
68738W        W33965  26.668  12.224  10.744
68739W        W33966  20.998  21.108   0.732
68740W        W33967  24.018  10.967  12.976
68741W        W33968  41.428   3.498  13.821
68742W        W33969  14.985  39.218   0.870
68743W        W33970   0.352  16.080  12.002
68744W        W33971  39.447  28.088   1.288
68745W        W33972  15.283  31.948   2.805
68746W        W33973  10.099  35.747   2.292
68747W        W33974  12.824  23.610  11.714
68748W        W33975  17.563  19.310   1.480
68749W        W33976  39.407  37.553  11.435
68750W        W33977  10.038  26.506   3.238
68751W        W33978   7.322  17.336   1.705
68752W        W33979  43.119  15.515  11.142
68753W        W33980   4.222  15.199  10.557
68754W        W33981  42.980  22.176   0.401
68755W        W33982  31.080  24.580  14.835
68756W        W33983  41.023  21.320   1.033
68757W        W33984   2.870  19.071   2.209
68758W        W33985   5.661   9.583  12.561
68759W        W33986  38.121   4.444  11.827
68760W        W33987   1.127  10.725  10.953
68761W        W33988  34.371  23.196  14.995
68762W        W33989  44.389  40.956  14.510
68763W        W33990   8.695  27.360  11.397
68764W        W33991  44.848   2.179   4.625
68765W        W33992  31.233   3.824  13.036
68766W        W33993  34.999  39.859  13.998
68767W        W33994   1.518  16.598  10.972
68768W        W33995  18.012  42.313   0.884
68769W        W33996  13.638  21.675   4.531
68770W        W33997  35.554  28.848  13.639
68771W        W33998   0.374  36.587   0.446
68772W        W33999   6.708  13.309  13.225
68773W        W34000  17.167  39.926   4.671
68774W        W34001  30.109  11.661  12.891
68775W        W34002  24.833  44.643  10.214
68776W        W34003  14.016  16.361   1.463
68777W        W34004  34.544   8.081  11.186
68778W        W34005  38.354  30.932  11.996
68779W        W34006  11.204   4.796   1.874
68780W        W34007  38.326  33.655  11.140
68781W        W34008   4.050   8.919   4.018
68782W        W34009  18.120  14.094   0.764
68783W        W34010  19.503  16.776  13.495
68784W        W34011  15.583  43.074   3.248
68785W        W34012  23.472  40.401  12.945
68786W        W34013  22.414  36.099   0.012
68787W        W34014   7.960  40.543   0.370
68788W        W34015   6.919  24.294  13.841
68789W        W34016  32.450  36.632   0.874
68790W        W34017  22.502   4.274  12.581
68791W        W34018  32.613  42.512  11.970
68792W        W34019  23.024  35.341   0.876
68793W        W34020  25.721  38.465   0.313
68794W        W34021  17.490  16.735   2.755
68795W        W34022  28.960  37.298  12.931
68796W        W34023   8.234  13.158   0.805
68797W        W34024  13.771  12.698   2.704
68798W        W34025  42.795  30.501  14.274
68799W        W34026  44.471  17.267  14.682
68800W        W34027  42.922  10.884  12.945
68801W        W34028  36.844  10.335  14.767
68802W        W34029   4.940  24.861  12.616
68803W        W34030   5.105  30.397  13.405
68804W        W34031  14.680  27.599  14.731
68805W        W34032   0.861  11.641  14.517
68806W        W34033  28.302  30.686  10.169
68807W        W34034  32.941  17.008   1.186
68808W        W34035  39.015   3.944  11.124
68809W        W34036  43.975  11.549   2.854
68810W        W34037  36.799  14.387  11.692
68811W        W34038  25.414  34.972  13.553
68812W        W34039   8.839  13.686   2.729
68813W        W34040  26.522  20.617  13.098
68814W        W34041  31.983   0.296  11.497
68815W        W34042  31.535  22.885  12.470
68816W        W34043   9.597  13.525  11.090
68817W        W34044   1.327   8.833   0.723
68818W        W34045   7.701  14.764  12.053
68819W        W34046  30.985   6.926   0.045
68820W        W34047  36.520  19.325  14.460
68821W        W34048  22.143  14.706   4.216
68822W        W34049   1.472  44.791   0.752
68823W        W34050  37.178  31.657  12.849
68824W        W34051  43.918  41.062   2.198
68825W        W34052  33.580  42.555  14.254
68826W        W34053  27.797  23.404   3.011
68827W        W34054   3.189   8.973  14.437
68828W        W34055   2.925  41.781  10.090
68829W        W34056  31.384  20.838  11.625
68830W        W34057  20.229  34.444   2.833
68831W        W34058  11.822  31.155   0.981
68832W        W34059  16.728   6.749  11.492
68833W        W34060  32.214  16.612  10.235
68834W        W34061  34.075   4.850  14.253
68835W        W34062  16.709   7.644  11.398
68836W        W34063  38.804  30.063  11.751
68837W        W34064  27.950  29.964  13.215
68838W        W34065   8.710  41.790  12.175
68839W        W34066   6.408  38.324   0.224
68840W        W34067   8.588  17.080  14.455
68841W        W34068  20.108   6.366   3.346
68842W        W34069  24.628  24.125  10.793
68843W        W34070   7.321  10.873   2.318
68844W        W34071  32.652   8.222   3.728
68845W        W34072   1.213  30.256   0.040
68846W        W34073  11.732  34.042   1.323
68847W        W34074  31.358   4.360  11.746
68848W        W34075   4.829  10.649  14.230
68849W        W34076  32.465  29.645  12.967
68850W        W34077  13.317   2.160  13.650
68851W        W34078   7.382   5.205   3.301
68852W        W34079  26.107   5.146  14.873
68853W        W34080  30.019  43.835  12.064
68854W        W34081  34.097  13.338   4.740
68855W        W34082  10.494  38.548  13.395
68856W        W34083  33.878  27.657  10.715
68857W        W34084  40.156  33.929  12.121
68858W        W34085   5.379   3.921  11.907
68859W        W34086   2.752  44.003  12.961
68860W        W34087   3.638  32.327  13.899
68861W        W34088  21.076  29.499  14.959
68862W        W34089  37.104  11.788   4.579
68863W        W34090  12.845   5.500  11.111
68864W        W34091  37.343  31.449   1.188
68865W        W34092  40.110  26.902  11.150
68866W        W34093   7.867  29.934   1.442
68867W        W34094   4.006  10.083  10.194
68868W        W34095  12.812  33.132  10.704
68869W        W34096  23.276  19.597  12.942
68870W        W34097  21.705  11.140  11.707
68871W        W34098   6.704  21.078   3.906
68872W        W34099  21.629   9.304  14.772
68873W        W34100   8.648  35.866  14.295
68874W        W34101  39.729  33.927   4.072
68875W        W34102  34.454  33.765  14.861
68876W        W34103  11.067  22.513  12.032
68877W        W34104   3.792  11.239   4.046
68878W        W34105  21.036  20.172  13.112
68879W        W34106   7.164  20.685   4.798
68880W        W34107  42.999   4.132  13.121
68881W        W34108  43.028  27.459   3.796
68882W        W34109  15.637  39.960   0.810
68883W        W34110  37.839  28.993  10.662
68884W        W34111  26.542  16.758  12.919
68885W        W34112  33.453  44.973   0.340
68886W        W34113   4.463  36.858   2.203
68887W        W34114  11.885  21.218  12.103
68888W        W34115  13.241   2.085   5.054
68889W        W34116  33.397   6.646  12.503
68890W        W34117  13.389  41.740   2.795
68891W        W34118  43.876   8.626   4.133
68892W        W34119  35.040  11.776  12.799
68893W        W34120  40.272  35.275   0.884
68894W        W34121  40.501  18.213   0.784
68895W        W34122  41.964   3.036  14.514
68896W        W34123   2.246  15.820  12.089
68897W        W34124   6.238  14.895   1.176
68898W        W34125   5.962  27.403   4.173
68899W        W34126   9.243  35.825   2.177
68900W        W34127  26.092  30.719  10.860
68901W        W34128  34.216  18.586   2.899
68902W        W34129  41.359  31.194  14.072
68903W        W34130  38.485  35.001   1.477
68904W        W34131   2.528   1.346  12.581
68905W        W34132   2.000  15.320  11.119
68906W        W34133  40.235   1.277  11.198
68907W        W34134  24.628   2.737  12.025
68908W        W34135  27.450  29.949   9.787
68909W        W34136  43.427   1.705  10.636
68910W        W34137  33.630   8.330   2.605
68911W        W34138   8.978   6.388   2.531
68912W        W34139  39.787  18.949  12.357
68913W        W34140  15.684   8.746   2.375
68914W        W34141   6.265  18.743   4.269
68915W        W34142  16.800  25.484   1.753
68916W        W34143  18.234   9.333   2.792
68917W        W34144   4.480  25.092  11.367
68918W        W34145   4.070  38.362  12.537
68919W        W34146  15.896   6.249   4.033
68920W        W34147   4.920   6.890  11.465
68921W        W34148  34.388  11.573  12.566
68922W        W34149  18.248   4.803  11.575
68923W        W34150  19.589  30.666  13.063
68924W        W34151   9.422   1.008   3.560
68925W        W34152   7.969  14.495  12.403
68926W        W34153  25.947  10.853   0.372
68927W        W34154  13.527  13.235   2.797
68928W        W34155  23.693  32.131  12.651
68929W        W34156  34.417   5.429   4.676
68930W        W34157  15.714  22.987   0.024
68931W        W34158   8.924  11.388  11.224
68932W        W34159  21.162  42.022   1.011
68933W        W34160   3.664  26.028  13.869
68934W        W34161  33.636  14.823  10.992
68935W        W34162   7.872  42.725  11.923
68936W        W34163  23.275  13.719  12.552
68937W        W34164  27.620  35.864   2.025
68938W        W34165  27.636   6.103  11.225
68939W        W34166  24.160  41.713   3.727
68940W        W34167   0.952  36.602  14.375
68941W        W34168  39.016   8.676   0.988
68942W        W34169  19.498  35.162   2.740
68943W        W34170   3.547  40.368   4.004
68944W        W34171  27.900  11.169  10.301
68945W        W34172  17.718  19.536  14.708
68946W        W34173  29.411  10.164  14.881
68947W        W34174  20.775   1.240   0.783
68948W        W34175  39.730  31.738  14.335
68949W        W34176  25.157   8.841   0.872
68950W        W34177   4.965  29.652  13.724
68951W        W34178  10.667  20.076   3.892
68952W        W34179  31.124   1.792  12.033
68953W        W34180  14.494  12.115  12.063
68954W        W34181  36.825   3.201   0.286
68955W        W34182   2.330  37.566   2.338
68956W        W34183  31.167  34.634  12.449
68957W        W34184   8.154   0.669   0.833
68958W        W34185   6.801   8.797   2.343
68959W        W34186  11.870  10.632   1.213
68960W        W34187  43.729  11.864  10.782
68961W        W34188  11.595  27.468  13.917
68962W        W34189  39.371  28.496  10.728
68963W        W34190  26.721   5.804   2.201
68964W        W34191   6.853  17.558   1.864
68965W        W34192  42.668  32.708   0.384
68966W        W34193  28.407  11.759   4.085
68967W        W34194  18.902  42.004  11.240
68968W        W34195  26.750  18.196   1.042
68969W        W34196  27.361  14.786   0.498
68970W        W34197  12.849  23.691  13.566
68971W        W34198  26.290  20.645   0.401
68972W        W34199  38.366  40.478  11.209
68973W        W34200  26.723   2.216   3.370
68974W        W34201  35.026  11.630   2.880
68975W        W34202   1.134  26.769   4.483
68976W        W34203  36.062   2.855   3.418
68977W        W34204  37.428  12.265  11.228
68978W        W34205  38.535  39.555   0.411
68979W        W34206  34.079  23.084   2.160
68980W        W34207  30.649  32.145   3.690
68981W        W34208  15.528  41.242   2.711
68982W        W34209  36.765  25.192   0.833
68983W        W34210  24.603   9.894   1.374
68984W        W34211  18.728  32.066   3.280
68985W        W34212  28.018  14.044  10.164
68986W        W34213  28.710  36.995  10.059
68987W        W34214   5.378  15.781   1.397
68988W        W34215   6.880  37.087   0.009
68989W        W34216  38.417  33.352   4.093
68990W        W34217  44.496  27.523  12.334
68991W        W34218  26.239  30.632   4.634
68992W        W34219  14.144  33.386  13.010
68993W        W34220  27.102  35.384   3.145
68994W        W34221  27.900  15.422   3.627
68995W        W34222   8.028  11.683  11.251
68996W        W34223  36.101  39.212   2.898
68997W        W34224  14.105  44.484   0.918
68998W        W34225  23.769  22.543   0.077
68999W        W34226  42.450  21.292  12.133
69000W        W34227  19.195  14.525  12.612
69001W        W34228  29.394  28.597  11.189
69002W        W34229   7.478  29.630  14.855
69003W        W34230  10.608  34.280  11.641
69004W        W34231  28.856   2.506   2.379
69005W        W34232  34.524  16.145   0.945
69006W        W34233  13.780  37.450  13.971
69007W        W34234  32.402  14.358  11.735
69008W        W34235  38.700  41.326  11.726
69009W        W34236  33.342  33.004   0.363
69010W        W34237  38.425  41.750  11.632
69011W        W34238  32.111  22.553  13.624
69012W        W34239   5.639  44.358   2.674
69013W        W34240  38.848  38.610  10.019
69014W        W34241  20.074  37.512   2.347
69015W        W34242  19.180  44.951   4.466
69016W        W34243  13.142  28.355   1.167
69017W        W34244  43.912  42.405   3.340
69018W        W34245  29.265  40.633   5.177
69019W        W34246  29.608   0.207  10.752
69020W        W34247  35.430  14.264   5.067
69021W        W34248  10.787  12.673   2.834
69022W        W34249  43.401  34.324  12.507
69023W        W34250   0.072  24.752   3.183
69024W        W34251  30.987  15.376  13.478
69025W        W34252  22.252  36.453  10.798
69026W        W34253  14.937  16.006   1.286
69027W        W34254   7.614  30.593   2.721
69028W        W34255   5.546  31.204   1.867
69029W        W34256   2.427  23.112  11.469
69030W        W34257   5.757   3.777   3.654
69031W        W34258   5.726  39.010   3.884
69032W        W34259   7.126  40.082  11.598
69033W        W34260  43.071   7.273   0.034
69034W        W34261  31.845  10.170  14.830
69035W        W34262  17.877  41.869  14.866
69036W        W34263  12.832   2.487   2.479
69037W        W34264  29.908  24.759   4.592
69038W        W34265  33.932  43.438  10.622
69039W        W34266  18.536  41.414   1.367
69040W        W34267  10.688   0.134  14.306
69041W        W34268  22.015   8.764   2.706
69042W        W34269  37.582  16.527  12.931
69043W        W34270   3.529   6.244   0.784
69044W        W34271  19.271  12.212   1.996
69045W        W34272   4.237  16.036  14.053
69046W        W34273   0.395  39.834  14.761
69047W        W34274  10.309  21.419   2.376
69048W        W34275  39.924  38.787  11.134
69049W        W34276  24.178   8.145   3.582
69050W        W34277  26.055  19.435  13.036
69051W        W34278   6.900  27.208  12.560
69052W        W34279  17.951  24.029  14.234
69053W        W34280  15.868  43.350  12.460
69054W        W34281  12.363   8.232   1.920
69055W        W34282  34.015  17.318   3.082
69056W        W34283  30.977  20.014  14.872
69057W        W34284  36.862  38.408   3.084
69058W        W34285   2.767   9.752  14.009
69059W        W34286  32.080  40.780  13.128
69060W        W34287  27.995  20.570  12.921
69061W        W34288  39.508  31.463   1.350
69062W        W34289  13.715  27.453  13.880
69063W        W34290  21.461   4.750  13.828
69064W        W34291  31.180  29.021  10.733
69065W        W34292   5.556  43.049   3.236
69066W        W34293  43.961  25.701  13.029
69067W        W34294   9.985  29.047   0.590
69068W        W34295   8.903  20.951   5.087
69069W        W34296  39.614   6.859   5.003
69070W        W34297  35.540  31.641   0.977
69071W        W34298   8.909  20.226   1.349
69072W        W34299   1.418  22.766   4.649
69073W        W34300  20.612  20.092   4.041
69074W        W34301  25.767  27.535   4.608
69075W        W34302  15.519  33.546   0.689
69076W        W34303   7.144  40.600   0.662
69077W        W34304  12.365  13.347  11.192
69078W        W34305  22.635  38.480   0.467
69079W        W34306  24.817   2.683  12.998
69080W        W34307  13.428   1.788   3.364
69081W        W34308  31.755   8.611  14.698
69082W        W34309  23.531   5.503  11.657
69083W        W34310  36.659  10.885   3.239
69084W        W34311  16.433  33.696  14.498
69085W        W34312  10.230  37.886  10.753
69086W        W34313  15.589  14.794   3.645
69087W        W34314  29.593  42.007  10.729
69088W        W34315   7.904  28.702  12.200
69089W        W34316  11.245  43.779   2.153
69090W        W34317  35.141  35.436   0.917
69091W        W34318  22.639  19.254  11.622
69092W        W34319  28.007  23.682  12.437
69093W        W34320  15.167  30.715   3.801
69094W        W34321  37.128  33.290  11.369
69095W        W34322  11.286  15.122  14.736
69096W        W34323  34.306  24.182  13.546
69097W        W34324  12.887  35.607  14.236
69098W        W34325  15.326   1.324   0.785
69099W        W34326  31.864  21.267   4.412
69100W        W34327  42.003  23.213  11.252
69101W        W34328  34.969  35.467   4.161
69102W        W34329  30.167  11.358   5.541
69103W        W34330  12.937   2.250   0.551
69104W        W34331  28.659   1.240  10.487
69105W        W34332   4.217  29.959  14.761
69106W        W34333   5.368  20.465  12.397
69107W        W34334  38.662  44.870   1.711
69108W        W34335  38.811  35.900   4.076
69109W        W34336  19.128  41.932   0.385
69110W        W34337  21.709  34.871  13.409
69111W        W34338  19.147  34.891  11.531
69112W        W34339  10.735   9.823  11.561
69113W        W34340  19.103   2.869   1.037
69114W        W34341   2.980  21.574  12.043
69115W        W34342  25.632  26.618   3.571
69116W        W34343  43.354  22.033  12.977
69117W        W34344   8.382  30.964  14.742
69118W        W34345  23.738  30.056   1.758
69119W        W34346  34.095  36.604  10.658
69120W        W34347  34.304  29.179   0.860
69121W        W34348  23.092  42.046   2.619
69122W        W34349  10.076   1.677  13.453
69123W        W34350  40.351  18.817   3.056
69124W        W34351  21.909  30.432  13.515
69125W        W34352  44.781  13.562   3.999
69126W        W34353   4.235   5.672  13.728
69127W        W34354  28.522  20.612  14.565
69128W        W34355  41.389  36.321   4.604
69129W        W34356  32.467  37.592  11.025
69130W        W34357  32.562  34.324  11.731
69131W        W34358   0.609  16.613  12.003
69132W        W34359  37.819  28.109  13.788
69133W        W34360  37.451  20.398  13.100
69134W        W34361  43.407  40.442   3.110
69135W        W34362   4.639   1.740  13.983
69136W        W34363  24.103   3.058  10.679
69137W        W34364  30.716  44.528  13.571
69138W        W34365  24.180  20.722  13.586
69139W        W34366  36.622  41.290   3.224
69140W        W34367  21.685  32.152   3.450
69141W        W34368   9.387  16.408   2.300
69142W        W34369  29.451  13.667  14.717
69143W        W34370  12.810   4.183  11.418
69144W        W34371  20.744   3.867   3.731
69145W        W34372  34.452  37.831   3.159
69146W        W34373  16.539  17.045   1.321
69147W        W34374  38.581  21.483   1.635
69148W        W34375  40.976  18.811  13.238
69149W        W34376  42.831  22.734  11.565
69150W        W34377  19.620  19.603   2.786
69151W        W34378  26.061  44.526  12.066
69152W        W34379  14.376  37.891   1.213
69153W        W34380   6.792  17.616  14.273
69154W        W34381  41.406  35.861   3.853
69155W        W34382  11.390  14.641  12.388
69156W        W34383  13.618   6.187   3.716
69157W        W34384  34.467  40.007   2.365
69158W        W34385   1.367  13.563  11.650
69159W        W34386  41.926  23.984  14.250
69160W        W34387  12.719  29.413  14.848
69161W        W34388  27.875  14.641  12.339
69162W        W34389  41.964  11.264   0.916
69163W        W34390  19.594  19.072  10.418
69164W        W34391  21.769  43.536  14.737
69165W        W34392  15.788   7.797  14.948
69166W        W34393  29.929  39.458   1.741
69167W        W34394  33.037  12.583  11.242
69168W        W34395  38.133  11.897   4.519
69169W        W34396  43.670  42.760   1.682
69170W        W34397  17.345  32.734   2.388
69171W        W34398   0.764   1.300   3.227
69172W        W34399   8.747  27.769   1.283
69173W        W34400  19.024  20.975  11.959
69174W        W34401  25.549  22.671  10.877
69175W        W34402  24.259  41.631  12.756
69176W        W34403  28.523  33.920   1.763
69177W        W34404  17.302   8.735   4.617
69178W        W34405  14.605  23.079  14.143
69179W        W34406   0.720   2.277  11.964
69180W        W34407  39.132  37.979  13.576
69181W        W34408  14.764  32.677  10.371
69182W        W34409   4.445   1.927  14.429
69183W        W34410  43.383  34.821  12.552
69184W        W34411  10.831   0.712  10.687
69185W        W34412  43.765  42.000  14.665
69186W        W34413  17.613  39.930  13.117
69187W        W34414   6.712   7.380  14.801
69188W        W34415  15.584  40.244  11.188
69189W        W34416   1.661   9.412  12.533
69190W        W34417  24.770  35.895   4.559
69191W        W34418  32.507  27.229  14.787
69192W        W34419  43.924  24.960  10.698
69193W        W34420   8.939  44.555   5.124
69194W        W34421  43.408  41.841  13.995
69195W        W34422   1.293  15.869   4.266
69196W        W34423  28.050  33.877   2.728
69197W        W34424  32.101  27.683   0.356
69198W        W34425  30.508  35.029   2.312
69199W        W34426  40.629  43.946  13.827
69200W        W34427  14.813  31.698  12.569
69201W        W34428  38.620   4.196  14.854
69202W        W34429   6.276  32.661  13.485
69203W        W34430  26.678   6.919  11.612
69204W        W34431  39.334  13.119   1.976
69205W        W34432  21.797  16.076   4.272
69206W        W34433  12.657  21.349  13.746
69207W        W34434  31.611  35.194  13.968
69208W        W34435   1.493   4.183  12.975
69209W        W34436  23.247  26.911   2.461
69210W        W34437  38.982  21.670   0.807
69211W        W34438  15.292   7.434   2.186
69212W        W34439   9.247   2.369  11.123
69213W        W34440   1.220   2.844  14.450
69214W        W34441  24.466  28.055  13.957
69215W        W34442  19.381  22.214   5.050
69216W        W34443   1.793   7.136   0.528
69217W        W34444  15.667  26.070   1.706
69218W        W34445  40.349  44.074  11.560
69219W        W34446  43.004  28.411  14.473
69220W        W34447  38.294   7.509  12.679
69221W        W34448  16.033   4.342  12.088
69222W        W34449  24.435   5.254   4.103
69223W        W34450  41.906  10.595  12.146
69224W        W34451  18.641  28.129  14.828
69225W        W34452  35.818  26.634   3.208
69226W        W34453  22.174  34.742  14.680
69227W        W34454  32.115   9.041   0.967
69228W        W34455  29.963  36.350   5.196
69229W        W34456  31.765   8.276   4.152
69230W        W34457  38.138  27.627  11.526
69231W        W34458  21.095  20.745  11.717
69232W        W34459  44.691   3.794  14.044
69233W        W34460  33.920   0.988  14.137
69234W        W34461  37.433  17.339   0.517
69235W        W34462  25.867  38.420   3.700
69236W        W34463  11.219  28.933  10.964
69237W        W34464  17.486  27.061  13.584
69238W        W34465   9.727  15.801   3.044
69239W        W34466  38.625  43.134  12.908
69240W        W34467  13.142  24.718   3.110
69241W        W34468   1.442   9.240   2.228
69242W        W34469  21.746  19.996   5.043
69243W        W34470  32.800  21.519   4.100
69244W        W34471  15.139  36.347   0.120
69245W        W34472  36.162  34.579   1.139
69246W        W34473   9.641   8.270  13.564
69247W        W34474  35.479  13.596   4.492
69248W        W34475  36.414  15.148  11.625
69249W        W34476  12.309  22.119  12.142
69250W        W34477  23.453  34.383  12.903
69251W        W34478  26.705  11.313   2.151
69252W        W34479   8.451  13.987  14.815
69253W        W34480  12.904  19.225   1.579
69254W        W34481  33.837  35.091  12.591
69255W        W34482  42.469  36.074  14.498
69256W        W34483  32.000   8.754  14.273
69257W        W34484  29.760  17.844  12.995
69258W        W34485   5.485  42.447  14.943
69259W        W34486  35.467  31.041   1.199
69260W        W34487  42.229   5.707   0.377
69261W        W34488   9.113   6.210  11.237
69262W        W34489  23.893  26.090  11.327
69263W        W34490  33.147   0.469   4.064
69264W        W34491  20.174  38.306   2.850
69265W        W34492  31.638  19.697   1.734
69266W        W34493  25.689  37.831  10.280
69267W        W34494  33.735   4.148   4.835
69268W        W34495  36.818  39.893   0.413
69269W        W34496  19.294  35.102  14.778
69270W        W34497  26.527   5.766  13.058
69271W        W34498   4.140  13.692   4.957
69272W        W34499  39.464  19.269  11.201
69273W        W34500   6.605   7.186  12.990
69274W        W34501   9.167  42.559  13.517
69275W        W34502   8.812  34.028   4.048
69276W        W34503  29.412   7.146  10.267
69277W        W34504  41.088  19.501   4.422
69278W        W34505  37.926  15.741  12.056
69279W        W34506   2.775  42.764  14.822
69280W        W34507  12.259  10.930  12.056
69281W        W34508   1.846  12.023   3.369
69282W        W34509   3.686  16.686   2.789
69283W        W34510  22.122  14.556  11.716
69284W        W34511   2.242  32.838  13.041
69285W        W34512   3.219  37.034   3.735
69286W        W34513  37.501  26.602   0.702
69287W        W34514   4.386  13.069   0.771
69288W        W34515  12.165  41.838   4.878
69289W        W34516  20.820  26.514  11.887
69290W        W34517  17.218   7.395   3.691
69291W        W34518   5.637  21.499   3.310
69292W        W34519  31.392  40.418  14.619
69293W        W34520  17.287  17.034   4.608
69294W        W34521  25.233   4.918  14.469
69295W        W34522  16.552   4.815  10.608
69296W        W34523  39.345  20.134   3.598
69297W        W34524  36.269  29.879  14.767
69298W        W34525  24.913  18.553   4.657
69299W        W34526   9.636  43.416  11.104
69300W        W34527   5.158  33.859   1.033
69301W        W34528  37.622  11.849   4.569
69302W        W34529   2.774  40.470  11.342
69303W        W34530  30.042   2.765  13.552
69304W        W34531  18.216  42.247   4.228
69305W        W34532  28.622  26.303  11.974
69306W        W34533   2.233  38.755  13.989
69307W        W34534  21.144  23.380   4.291
69308W        W34535  38.252  44.288   2.904
69309W        W34536   3.241  17.020  12.111
69310W        W34537  38.790   3.709   9.887
69311W        W34538  32.961  14.087  10.213
69312W        W34539  33.431  20.679  11.579
69313W        W34540  43.034  19.077  14.379
69314W        W34541  38.335   1.762  14.661
69315W        W34542  33.110  13.713   9.883
69316W        W34543   3.728  40.455  14.238
69317W        W34544  34.167   5.152   1.261
69318W        W34545  10.191  28.502   2.271
69319W        W34546  11.785  40.872   0.985
69320W        W34547  12.775   1.838   0.228
69321W        W34548  17.696  19.771   2.692
69322W        W34549  18.617  22.991   4.055
69323W        W34550   0.241   8.742   3.760
69324W        W34551   2.352  10.241  10.370
69325W        W34552  42.606   3.503   2.489
69326W        W34553  35.613  25.450   4.510
69327W        W34554  38.573  10.347  11.078
69328W        W34555  27.930  35.103   3.265
69329W        W34556  33.170  19.344   0.567
69330W        W34557   7.327  42.395   4.130
69331W        W34558   6.200  36.578  13.490
69332W        W34559  13.470  12.745  11.120
69333W        W34560   0.464  44.986   3.326
69334W        W34561   6.229  39.859  13.893
69335W        W34562  42.535  37.472  12.939
69336W        W34563  14.879  24.806   1.944
69337W        W34564  35.050  20.883   2.352
69338W        W34565  34.498  37.832   0.872
69339W        W34566  33.191  44.207  13.268
69340W        W34567   1.434  42.825   0.659
69341W        W34568  39.302   1.029   1.628
69342W        W34569  25.174  26.235  11.614
69343W        W34570  20.542  15.717   2.719
69344W        W34571  42.465  27.458   2.133
69345W        W34572  28.415  31.570   3.988
69346W        W34573  12.222  23.745   4.842
69347W        W34574   9.084  12.430   5.032
69348W        W34575  38.553  44.498  14.328
69349W        W34576  10.192  30.787  13.438
69350W        W34577  39.509   7.913   1.797
69351W        W34578  18.554  22.067   0.305
69352W        W34579  42.797  18.855  11.803
69353W        W34580  13.153   4.698   3.302
69354W        W34581  43.771  42.817  10.107
69355W        W34582  35.360   4.125  12.826
69356W        W34583  37.325  34.243   1.939
69357W        W34584  35.872  25.649   2.890
69358W        W34585  40.370  17.356   2.466
69359W        W34586  27.672  16.368  12.613
69360W        W34587  20.142   4.895  11.660
69361W        W34588  21.616  26.419  11.553
69362W        W34589  20.654   1.078   4.533
69363W        W34590  32.696  35.821  11.067
69364W        W34591  22.150  24.088   4.126
69365W        W34592  29.675  34.303   3.434
69366W        W34593  43.939  26.926   0.936
69367W        W34594  37.003  15.075   2.996
69368W        W34595  29.527  28.620   2.135
69369W        W34596   1.922   9.351   0.324
69370W        W34597  26.041  41.227   3.582
69371W        W34598  11.712  28.041   2.121
69372W        W34599  13.577  26.165   1.982
69373W        W34600  23.740  29.954   3.182
69374W        W34601  10.237   4.321   1.207
69375W        W34602  37.884  33.902  11.179
69376W        W34603  12.535  37.931  13.983
69377W        W34604  15.653  17.434  14.378
69378W        W34605   4.882  13.873  13.375
69379W        W34606  41.868  29.030   1.729
69380W        W34607  15.877  24.495   0.864
69381W        W34608  35.898   7.860  10.414
69382W        W34609  18.051  26.091   0.348
69383W        W34610   8.798   3.512   3.174
69384W        W34611  16.696  24.572  13.013
69385W        W34612   3.260   8.448  13.983
69386W        W34613  18.592  20.528  11.569
69387W        W34614  26.638  13.076  14.833
69388W        W34615   6.885  34.520  14.029
69389W        W34616   9.243  32.587   3.237
69390W        W34617  22.584   8.550  12.187
69391W        W34618   2.866  15.154   2.711
69392W        W34619  26.444  22.119  12.514
69393W        W34620  31.318   7.596  14.734
69394W        W34621   9.888  34.091  12.899
69395W        W34622  18.737  35.544   2.964
69396W        W34623  21.577  10.258   2.389
69397W        W34624   6.811  18.090   1.854
69398W        W34625  40.361   6.849  12.450
69399W        W34626  15.595  32.079   2.216
69400W        W34627  16.257  40.934   3.289
69401W        W34628  37.683   5.329  11.215
69402W        W34629   8.859  26.536  11.778
69403W        W34630   5.602  42.758  11.455
69404W        W34631  34.978  26.706  10.091
69405W        W34632  19.801  31.138  12.858
69406W        W34633   7.792  11.642   0.921
69407W        W34634  14.049  15.024  14.301
69408W        W34635  41.115  19.492  11.549
69409W        W34636  18.171   4.403   0.195
69410W        W34637  27.749  28.883  10.632
69411W        W34638  41.707  32.319   1.688
69412W        W34639  17.444  28.752   1.061
69413W        W34640  44.955  28.970  14.213
69414W        W34641  15.996  36.576   2.110
69415W        W34642  42.246  43.175   2.079
69416W        W34643   9.758   2.312   4.734
69417W        W34644  21.742  32.438   0.375
69418W        W34645   1.845  25.831   4.977
69419W        W34646  13.465   1.526  11.964
69420W        W34647  38.781  23.114   0.026
69421W        W34648  40.389  28.147  13.108
69422W        W34649  27.320   4.471  14.339
69423W        W34650   2.610  31.733   9.867
69424W        W34651  24.920  35.539  12.561
69425W        W34652  20.255  35.615  11.736
69426W        W34653  10.733  34.499  10.690
69427W        W34654  27.124  38.814  14.367
69428W        W34655  24.108  39.509  13.534
69429W        W34656  14.828  28.031   1.697
69430W        W34657  40.007  36.614   0.040
69431W        W34658  33.157  42.933   3.178
69432W        W34659  42.753  17.907  14.873
69433W        W34660   2.680  31.180   4.142
69434W        W34661   2.159  37.621  12.546
69435W        W34662  11.763  25.726  11.026
69436W        W34663  29.884   5.506  13.542
69437W        W34664   4.175  22.002   2.351
69438W        W34665   7.825  41.543   0.327
69439W        W34666  30.124  27.054   0.055
69440W        W34667  10.752   8.199   0.232
69441W        W34668  44.387   6.204   0.346
69442W        W34669  18.133  24.533  13.438
69443W        W34670  41.134  28.175   2.681
69444W        W34671  20.063   6.297   4.935
69445W        W34672  30.950  39.879   4.553
69446W        W34673   7.137  15.374  14.166
69447W        W34674  19.443  44.411  11.934
69448W        W34675  22.352   0.200  12.094
69449W        W34676  39.084  26.402   0.416
69450W        W34677  25.699  34.052   3.286
69451W        W34678  17.781  40.618   2.852
69452W        W34679  13.252  13.859  11.569
69453W        W34680  36.448   0.520   2.647
69454W        W34681  44.415  22.748  12.490
69455W        W34682  30.275  41.490   1.235
69456W        W34683   6.424   1.459   2.186
69457W        W34684   4.521  36.463  12.098
69458W        W34685  32.696  44.231   4.187
69459W        W34686   8.798  36.520  14.925
69460W        W34687  19.550  11.250   2.898
69461W        W34688  43.863  31.380  11.633
69462W        W34689   3.558  24.663   4.237
69463W        W34690   2.937   8.879  13.971
69464W        W34691   9.767  34.041   4.105
69465W        W34692  35.781   9.556  11.094
69466W        W34693  39.011  32.618  13.037
69467W        W34694  18.134   5.077  14.426
69468W        W34695  44.039  41.902   3.361
69469W        W34696  26.302  14.632  14.361
69470W        W34697  10.579  19.758  11.671
69471W        W34698  19.075   6.788  12.994
69472W        W34699  30.081  42.010  12.133
69473W        W34700   3.431  26.091   4.946
69474W        W34701  36.312   9.291   4.606
69475W        W34702  19.251  36.804   3.707
69476W        W34703  14.598  30.844   4.955
69477W        W34704  42.722   7.582   4.643
69478W        W34705  15.074  18.290  11.219
69479W        W34706   3.386  16.090  14.017
69480W        W34707   5.734  33.711   3.879
69481W        W34708  43.847   3.769  14.489
69482W        W34709  14.381  14.219  13.830
69483W        W34710  22.684  30.152  13.377
69484W        W34711   8.412  42.426   1.983
69485W        W34712  35.933   5.950  11.559
69486W        W34713  16.691  40.053  13.098
69487W        W34714  37.819  38.766  12.730
69488W        W34715  19.463   0.592   2.318
69489W        W34716  23.508  41.286   2.625
69490W        W34717   0.348   2.308  14.845
69491W        W34718   6.933  44.298   2.048
69492W        W34719  24.437  37.424   4.222
69493W        W34720  35.517  44.457   2.639
69494W        W34721   5.226  23.160   2.489
69495W        W34722  34.624  33.076  12.997
69496W        W34723  27.897  41.101  13.931
69497W        W34724   0.862  13.118  12.755
69498W        W34725  38.055  40.587  13.925
69499W        W34726  37.000  35.305   0.995
69500W        W34727  24.201  16.792  11.188
69501W        W34728  30.507  39.653   4.311
69502W        W34729  37.945  11.795   2.227
69503W        W34730  17.776   0.952  12.011
69504W        W34731  24.056  39.352   1.294
69505W        W34732  37.061   9.427  13.600
69506W        W34733  41.071  15.285   0.360
69507W        W34734   7.382  36.043   1.820
69508W        W34735  44.051  31.505   2.610
69509W        W34736  17.868  42.741  14.800
69510W        W34737   2.696  13.850  12.549
69511W        W34738  35.796  24.073  10.568
69512W        W34739  29.486  39.328   1.501
69513W        W34740  15.597  43.006  11.639
69514W        W34741  42.930  35.169   0.976
69515W        W34742   8.743  18.228  11.791
69516W        W34743   9.682  37.437  11.522
69517W        W34744  19.798   7.114  10.545
69518W        W34745  40.766  30.367   2.721
69519W        W34746  37.428   1.374  13.883
69520W        W34747   0.841  15.477  11.004
69521W        W34748  34.399  29.391  12.113
69522W        W34749  44.158  26.211  13.054
69523W        W34750  41.703   2.954  12.987
69524W        W34751  31.181  39.542  11.289
69525W        W34752   8.298  22.426  11.376
69526W        W34753  40.100  44.381  13.392
69527W        W34754  21.266   0.911  10.718
69528W        W34755  24.151   7.004   2.363
69529W        W34756   8.661   3.337  11.378
69530W        W34757  34.215  16.509   2.195
69531W        W34758   1.623   5.441   0.378
69532W        W34759  41.789   8.433   2.218
69533W        W34760  44.979  23.098   0.775
69534W        W34761  34.826  25.558   0.514
69535W        W34762  28.022  30.621   1.835
69536W        W34763  32.658  25.262  13.397
69537W        W34764  41.509  23.506  14.374
69538W        W34765  23.015  11.029  11.347
69539W        W34766  22.355   8.747  11.256
69540W        W34767   9.419  43.296  11.571
69541W        W34768  35.644   3.015  11.498
69542W        W34769  35.043  16.500   2.208
69543W        W34770  20.754  35.588  14.505
69544W        W34771   0.998  11.899   1.837
69545W        W34772   1.997  23.095   3.922
69546W        W34773   8.318  35.763   4.847
69547W        W34774  17.066  38.287  13.841
69548W        W34775  13.171  34.970   2.233
69549W        W34776  34.480  28.761   4.149
69550W        W34777  32.020   3.875  10.739
69551W        W34778  10.957   4.466  13.152
69552W        W34779  33.527  42.409   1.127
69553W        W34780  34.816  13.554  12.062
69554W        W34781  13.319  16.780   3.665
69555W        W34782   2.458  24.411   2.250
69556W        W34783  32.308  21.409   4.188
69557W        W34784  21.474  21.650   1.348
69558W        W34785  11.109  29.165  14.478
69559W        W34786  39.671  33.971  12.291
69560W        W34787  26.801   1.180  11.335
69561W        W34788  36.546  40.351  13.323
69562W        W34789  25.985  37.499  14.412
69563W        W34790  23.536  32.169  11.412
69564W        W34791  41.198  28.200  11.535
69565W        W34792  42.040  27.953   0.313
69566W        W34793  10.394  11.929  11.132
69567W        W34794   0.087   6.057   4.194
69568W        W34795  16.650  16.538   1.363
69569W        W34796   3.015  38.069   2.417
69570W        W34797  33.110  32.355  10.489
69571W        W34798   5.067  39.613  14.859
69572W        W34799   9.009  30.931   0.352
69573W        W34800   5.809  28.498  10.665
69574W        W34801  43.485  36.854   3.727
69575W        W34802  39.814  22.690  12.658
69576W        W34803   6.223  24.700   3.697
69577W        W34804   9.169  13.510   1.948
69578W        W34805  43.481  36.824   1.514
69579W        W34806  24.716   5.653   1.410
69580W        W34807  12.427  26.958  11.938
69581W        W34808  34.489   7.151  12.498
69582W        W34809  34.575  25.361  11.665
69583W        W34810  43.227  35.506   2.374
69584W        W34811  36.861  17.478  12.495
69585W        W34812  35.562  44.627   2.140
69586W        W34813   8.349   3.166   0.508
69587W        W34814  34.437  26.094  10.465
69588W        W34815   5.922   5.917   0.538
69589W        W34816  44.101  14.222   0.210
69590W        W34817  16.438  30.427   2.743
69591W        W34818  42.927  26.417   0.829
69592W        W34819  39.568  38.265   4.315
69593W        W34820  28.119   4.051   3.155
69594W        W34821  30.442   3.370  11.653
69595W        W34822  11.020  11.521  13.867
69596W        W34823  23.358  14.864  11.511
69597W        W34824  18.505  44.515  11.071
69598W        W34825  13.707  21.036  12.963
69599W        W34826  14.397  31.900  11.556
69600W        W34827  29.460  11.480  12.529
69601W        W34828  17.071  27.949   4.659
69602W        W34829  12.920  20.324  12.900
69603W        W34830  42.055  27.875   4.597
69604W        W34831  31.798   2.154  12.598
69605W        W34832   5.793  23.824  13.450
69606W        W34833  18.185  19.520   3.255
69607W        W34834  41.401  42.967  14.006
69608W        W34835   1.485  28.462  14.532
69609W        W34836  22.712  39.869  10.837
69610W        W34837  10.155  41.346  12.513
69611W        W34838   0.249   4.782  14.559
69612W        W34839  44.174  17.091   0.075
69613W        W34840  32.460   7.653   4.350
69614W        W34841  12.087  18.634   3.264
69615W        W34842  38.361  13.936   1.340
69616W        W34843  44.889   5.008   2.874
69617W        W34844  17.566  10.743   0.772
69618W        W34845  20.061  35.801   3.292
69619W        W34846  36.638  33.341   4.675
69620W        W34847  30.322  10.953  10.130
69621W        W34848  22.169  39.130   3.584
69622W        W34849  30.352  37.808  12.989
69623W        W34850  12.273  25.223   0.888
69624W        W34851  35.544  24.816   2.262
69625W        W34852  33.189  13.212  10.007
69626W        W34853  24.261  43.995   9.753
69627W        W34854  35.034  36.538  10.979
69628W        W34855  35.896  15.200   1.176
69629W        W34856  44.055  27.548   3.710
69630W        W34857  12.377  32.596  13.996
69631W        W34858  18.073   2.119  14.823
69632W        W34859  19.583  14.116   3.690
69633W        W34860   7.753  24.238   1.450
69634W        W34861   8.643   3.359   1.708
69635W        W34862  43.833  31.895  11.603
69636W        W34863  28.164  27.140   3.143
69637W        W34864  44.893  15.055   0.740
69638W        W34865  15.759   1.904   3.311
69639W        W34866   3.307  29.992  14.298
69640W        W34867  31.542  14.413   1.064
69641W        W34868   0.702  44.916   4.441
69642W        W34869  15.315  25.730  14.809
69643W        W34870  11.713  41.742  13.252
69644W        W34871  12.413   1.833  11.203
69645W        W34872  36.185   1.962   2.275
69646W        W34873  22.074  26.048  13.361
69647W        W34874  28.020  44.021  13.885
69648W        W34875  39.588   3.974   1.202
69649W        W34876   9.757  24.011   3.111
69650W        W34877   3.494  28.239   4.006
69651W        W34878   7.070  13.339   3.473
69652W        W34879  38.455  40.044   0.302
69653W        W34880  29.691   8.305   4.095
69654W        W34881   8.362  31.347  11.333
69655W        W34882   6.440  30.173   1.364
69656W        W34883  31.942  34.554   3.793
69657W        W34884  25.931  30.551   1.286
69658W        W34885  18.032   1.276  11.143
69659W        W34886  36.397  25.425   2.866
69660W        W34887  41.421   9.043   2.745
69661W        W34888  42.645  35.884   4.202
69662W        W34889   2.833  30.222   5.587
69663W        W34890   4.986  30.883  12.026
69664W        W34891   2.349  14.923  13.858
69665W        W34892  34.580  35.939   2.330
69666W        W34893  25.409  10.575  13.134
69667W        W34894  17.759  19.012   0.499
69668W        W34895  37.386  42.781   2.752
69669W        W34896  19.568  28.210   0.865
69670W        W34897  34.672  40.851   0.042
69671W        W34898  23.099  15.315   2.428
69672W        W34899  19.943   0.029   4.298
69673W        W34900  23.485  15.395  13.779
69674W        W34901  18.201  33.042  14.904
69675W        W34902  23.331   5.828   0.913
69676W        W34903   0.889   2.407  11.079
69677W        W34904  43.322  31.970  10.709
69678W        W34905  12.287  20.136  14.319
69679W        W34906  13.749  39.822   0.027
69680W        W34907  21.158   1.964   4.490
69681W        W34908  16.124  11.530   4.881
69682W        W34909  23.303  25.730  10.523
69683W        W34910  32.180  20.225   0.395
69684W        W34911  37.415  12.750   0.514
69685W        W34912  18.152  27.920  14.959
69686W        W34913  15.536  39.651   2.256
69687W        W34914  39.061  22.076  11.909
69688W        W34915   4.396  40.343  12.880
69689W        W34916  30.195  11.406   4.597
69690W        W34917   1.971  35.112   4.473
69691W        W34918  17.957  19.489   4.561
69692W        W34919  37.474   1.412  11.610
69693W        W34920  39.763  27.908  11.161
69694W        W34921  14.088  22.171  12.696
69695W        W34922  12.069  20.505  13.129
69696W        W34923   1.613  28.128   1.839
69697W        W34924  28.561   1.996   0.879
69698W        W34925   3.412  13.991  11.581
69699W        W34926  41.070   3.714  12.508
69700W        W34927  16.231  30.976   4.955
69701W        W34928  16.915  28.373  14.881
69702W        W34929  30.428  25.586  12.927
69703W        W34930  20.141  35.168  11.552
69704W        W34931   3.008  24.381  11.054
69705W        W34932  39.114  24.833  13.671
69706W        W34933  17.518  18.527  13.392
69707W        W34934  20.153  29.950  10.918
69708W        W34935   4.253  23.761   0.491
69709W        W34936  24.155  12.701   0.693
69710W        W34937  13.143   7.004   3.914
69711W        W34938  32.603  28.778  14.959
69712W        W34939  26.657   8.330   0.962
69713W        W34940  20.158  33.141  11.553
69714W        W34941  30.984  44.738  13.187
69715W        W34942   9.792  29.112  10.576
69716W        W34943  24.579  12.829  12.505
69717W        W34944  32.901   9.273  14.899
69718W        W34945  14.750   1.400  13.470
69719W        W34946  23.649  44.160  11.700
69720W        W34947  11.615  16.707   2.658
69721W        W34948  22.892  15.136  14.275
69722W        W34949  31.012  42.542   3.735
69723W        W34950   6.139   4.170   3.745
69724W        W34951  19.484  33.824  14.960
69725W        W34952   5.805  17.052   2.033
69726W        W34953   3.197  24.103  10.625
69727W        W34954  25.688   3.646   2.409
69728W        W34955  21.173  13.587  14.196
69729W        W34956  14.294  43.432   3.099
69730W        W34957  38.008  38.029  11.206
69731W        W34958  43.332  35.290   0.657
69732W        W34959   3.450  40.519   5.016
69733W        W34960   3.320  29.181   1.486
69734W        W34961  41.276  38.469   3.573
69735W        W34962   0.843   5.396   3.289
69736W        W34963  31.984   4.666   0.430
69737W        W34964  36.035  42.097  13.886
69738W        W34965  29.591  18.666   1.205
69739W        W34966  41.379   0.756  11.449
69740W        W34967  40.804  10.914  10.899
69741W        W34968  10.102  15.838   1.855
69742W        W34969  35.633   3.122  13.472
69743W        W34970  19.583  29.121  14.441
69744W        W34971  25.980  22.659   2.360
69745W        W34972   6.905  19.110  10.649
69746W        W34973  22.715  21.884  14.047
69747W        W34974   7.764  16.067  12.501
69748W        W34975  41.085  39.325   2.503
69749W        W34976   3.330   5.257  12.546
69750W        W34977  34.028  22.283  11.157
69751W        W34978  44.567  40.784  12.560
69752W        W34979   2.366  33.123   5.101
69753W        W34980   5.311  15.068  10.293
69754W        W34981  32.113   8.537   3.206
69755W        W34982  32.275   0.909  14.922
69756W        W34983  42.436  20.770  12.115
69757W        W34984   1.817   0.253  14.488
69758W        W34985  12.172  20.992  11.709
69759W        W34986  27.002  19.218  14.984
69760W        W34987  28.458  30.461   4.084
69761W        W34988  41.514  44.296   1.327
69762W        W34989  13.371   3.832   1.771
69763W        W34990   8.135  29.697  12.137
69764W        W34991  21.320  43.201   4.212
69765W        W34992  25.456   9.562   1.671
69766W        W34993  11.423  39.320   4.463
69767W        W34994  13.275  21.754  12.978
69768W        W34995   4.179   0.948   3.362
69769W        W34996  15.603   4.283   1.837
69770W        W34997  14.604  19.438  11.183
69771W        W34998  39.494  12.278   4.695
69772W        W34999   8.114  36.344   3.634
69773W        W35000   0.485   4.867  13.013
69774W        W35001  37.002  28.405   0.930
69775W        W35002  23.051  41.267  13.321
69776W        W35003   9.991  10.621   4.691
69777W        W35004   2.591  31.910   1.459
69778W        W35005  16.330  28.496   4.540
69779W        W35006  39.366   9.150   2.261
69780W        W35007   1.419  20.970  11.918
69781W        W35008   0.141  31.424   4.487
69782W        W35009  21.577  17.907  14.355
69783W        W35010  20.100  12.692  13.582
69784W        W35011  12.805  39.975   0.434
69785W        W35012  24.107   9.830   2.128
69786W        W35013  16.138  22.249   3.216
69787W        W35014  12.679  21.591   4.646
69788W        W35015  40.641   7.785   4.949
69789W        W35016   5.709   7.932   2.224
69790W        W35017  36.069  38.131   2.566
69791W        W35018  14.279  24.426  11.116
69792W        W35019  35.815  38.948  12.571
69793W        W35020  38.464   8.356  12.437
69794W        W35021  43.747  11.107   4.211
69795W        W35022  18.766   9.735   0.205
69796W        W35023  10.243   9.618  10.695
69797W        W35024  18.220  40.955   2.279
69798W        W35025   8.013   1.414  14.568
69799W        W35026   8.964  37.956  14.943
69800W        W35027  39.548  36.946  13.774
69801W        W35028  26.695  11.071   0.730
69802W        W35029  10.799  18.209  13.313
69803W        W35030  35.118  13.803   4.781
69804W        W35031  43.313  32.428   0.859
69805W        W35032  41.088  30.095  10.965
69806W        W35033  28.478  17.295   1.273
69807W        W35034   8.895   0.014  14.954
69808W        W35035   3.242  14.043   1.337
69809W        W35036  16.325  14.348   1.116
69810W        W35037  30.255   3.318   3.546
69811W        W35038  22.143  42.706   0.267
69812W        W35039  40.908  25.226  13.480
69813W        W35040  32.047  43.313  14.368
69814W        W35041   5.325  13.623   2.257
69815W        W35042  11.285  27.274   2.337
69816W        W35043  31.680   3.645   2.303
69817W        W35044   5.479  41.439  10.363
69818W        W35045  21.500  44.040  13.880
69819W        W35046  16.171  30.529   3.676
69820W        W35047   2.825  32.093  14.219
69821W        W35048   3.517  26.961   2.641
69822W        W35049  36.720   7.790  14.920
69823W        W35050  40.783   0.246  11.950
69824W        W35051  20.297  33.900   0.286
69825W        W35052   8.925  37.855  11.898
69826W        W35053  18.995  25.391  14.821
69827W        W35054  14.604   7.810  11.556
69828W        W35055   4.386   9.324  10.669
69829W        W35056  36.463  29.613  14.291
69830W        W35057   1.214  39.948  10.557
69831W        W35058  26.764  37.131  13.134
69832W        W35059  23.274   4.250  13.960
69833W        W35060   0.452  25.557   4.934
69834W        W35061  41.815  31.679  11.986
69835W        W35062  35.384   7.065   2.807
69836W        W35063   6.255  42.974  11.946
69837W        W35064  40.640  26.211   3.271
69838W        W35065  42.459   0.006  12.124
69839W        W35066  23.094   2.910  13.836
69840W        W35067   8.511  11.807  11.048
69841W        W35068  19.722  29.161  12.701
69842W        W35069  29.965   0.981  10.387
69843W        W35070  13.457  29.721  14.328
69844W        W35071   1.906  32.971   2.726
69845W        W35072  23.657   8.439   3.089
69846W        W35073  44.317  22.237  12.626
69847W        W35074   8.511  43.325   1.020
69848W        W35075  29.538  16.267   4.112
69849W        W35076  20.303  16.777   2.705
69850W        W35077  41.298   1.678  11.736
69851W        W35078   0.780  14.714  12.016
69852W        W35079   5.267  33.957  12.120
69853W        W35080  30.282  28.678  14.320
69854W        W35081  36.898  37.873   2.262
69855W        W35082  31.682  12.295   1.215
69856W        W35083  26.766  14.740   0.887
69857W        W35084  21.670   7.764   2.141
69858W        W35085  42.194  30.937  12.995
69859W        W35086  25.133  40.365   1.972
69860W        W35087  37.853  44.057   2.689
69861W        W35088  11.957  24.471  10.520
69862W        W35089  41.406  35.305   2.600
69863W        W35090  39.560  36.783   2.416
69864W        W35091  36.466  16.262  14.363
69865W        W35092  30.519  38.336   2.019
69866W        W35093  28.096  31.413   4.390
69867W        W35094  37.136  35.824  12.983
69868W        W35095  20.625  43.315  11.451
69869W        W35096  34.698  10.425  11.199
69870W        W35097  16.752   0.044  11.545
69871W        W35098  31.990   9.430  11.899
69872W        W35099  39.918   4.940  13.513
69873W        W35100  31.239  39.779  13.476
69874W        W35101  29.655   7.283  12.588
69875W        W35102  27.898   2.216   1.828
69876W        W35103  29.023  16.003  12.483
69877W        W35104  19.883  44.269   3.846
69878W        W35105  29.183   9.847   1.612
69879W        W35106  11.745  28.038   5.023
69880W        W35107  14.055  20.124  12.462
69881W        W35108  37.910  41.478  13.540
69882W        W35109  21.165  25.118   3.633
69883W        W35110  29.569  10.100  11.681
69884W        W35111  29.408  39.328   3.867
69885W        W35112  38.493  28.426   4.638
69886W        W35113  42.435   8.651   0.237
69887W        W35114  15.784  26.026  11.933
69888W        W35115  26.521  17.657   2.779
69889W        W35116   4.409   2.326  10.630
69890W        W35117  11.108  42.983   0.391
69891W        W35118  39.911  25.337  14.467
69892W        W35119  44.409   6.678  11.032
69893W        W35120  16.859  36.352   1.833
69894W        W35121  28.661  38.305   2.814
69895W        W35122  12.550  23.780  10.783
69896W        W35123  42.166  29.961   4.533
69897W        W35124  27.870  40.050  11.922
69898W        W35125  41.056  30.521  13.612
69899W        W35126  13.221  34.145  12.814
69900W        W35127   0.739  30.627  10.666
69901W        W35128   7.380  39.622   2.615
69902W        W35129  29.034   5.553   0.550
69903W        W35130   5.523  25.613   3.327
69904W        W35131  27.517  37.289   1.899
69905W        W35132  19.274   4.457  13.105
69906W        W35133  20.956  14.288   3.233
69907W        W35134  20.202  42.985   2.489
69908W        W35135  26.756   8.394  11.538
69909W        W35136  24.926  42.590  11.530
69910W        W35137   7.454   3.460  13.537
69911W        W35138  44.098  18.356   2.685
69912W        W35139  12.884  19.788   0.384
69913W        W35140   5.471   4.442  13.736
69914W        W35141  34.412   3.897  13.831
69915W        W35142   8.623  22.147   0.437
69916W        W35143  13.231  25.460   0.393
69917W        W35144  21.291  24.515   3.223
69918W        W35145  23.423  21.793   3.144
69919W        W35146  18.368  34.201  10.888
69920W        W35147  40.516  39.265  12.630
69921W        W35148  23.922  33.995   2.710
69922W        W35149  42.994  23.491  10.958
69923W        W35150  26.473   1.035   1.361
69924W        W35151   1.320  44.457  10.436
69925W        W35152  12.458  30.245  12.441
69926W        W35153  30.537   4.306   0.974
69927W        W35154  14.367  28.942   2.702
69928W        W35155  41.459  18.146   2.802
69929W        W35156  12.433  35.983  11.907
69930W        W35157  32.670  30.992   0.380
69931W        W35158  32.998  41.200  12.856
69932W        W35159  42.888  11.823  11.379
69933W        W35160   3.325  40.499  14.596
69934W        W35161   7.256  44.944  11.907
69935W        W35162  43.747  44.904   1.452
69936W        W35163   3.307  42.784   2.327
69937W        W35164  44.892  24.450  13.086
69938W        W35165  30.355  44.741   1.271
69939W        W35166  11.156  28.653  12.899
69940W        W35167   1.374   0.693  13.667
69941W        W35168  31.431  44.451  13.127
69942W        W35169   7.692   2.894   1.230
69943W        W35170  33.945  27.722   4.640
69944W        W35171  32.074   7.130   2.727
69945W        W35172  21.048  14.442   0.771
69946W        W35173  40.842   9.830  13.825
69947W        W35174  22.013  20.518  11.820
69948W        W35175  42.342   9.854   1.632
69949W        W35176  30.445  25.677   5.018
69950W        W35177  10.905  30.180  14.288
69951W        W35178  13.797   6.480  11.389
69952W        W35179  32.945  42.504  13.153
69953W        W35180  19.627  42.556  11.552
69954W        W35181   3.535  28.436  13.791
69955W        W35182  16.735  18.766  13.023
69956W        W35183  10.270  23.743   2.257
69957W        W35184  18.089  24.164  12.100
69958W        W35185   6.275  42.046   0.384
69959W        W35186  19.251   3.897  10.728
69960W        W35187  39.439   2.257  11.053
69961W        W35188  25.614  41.443   1.361
69962W        W35189  17.054  19.819   3.833
69963W        W35190  27.542  35.625   4.798
69964W        W35191  32.646   2.396  12.870
69965W        W35192  19.040  25.363  12.584
69966W        W35193  20.239  11.900   0.897
69967W        W35194   4.363  25.078   2.870
69968W        W35195  31.328  21.026  10.008
69969W        W35196  31.918  10.097  10.609
69970W        W35197  40.987  39.986  14.909
69971W        W35198  44.448  40.462  10.280
69972W        W35199  20.337  14.204  14.452
69973W        W35200  15.443  12.254   2.691
69974W        W35201  12.290   3.198  14.305
69975W        W35202  30.780  42.818   4.453
69976W        W35203   0.682  12.769  11.064
69977W        W35204  23.409   5.097  14.788
69978W        W35205  17.045   2.448  14.998
69979W        W35206  21.804  15.282   1.688
69980W        W35207  30.469  41.346  13.919
69981W        W35208   8.411  41.521  14.998
69982W        W35209  11.437  11.543  14.991
69983W        W35210  21.204   4.931   2.505
69984W        W35211   5.754  43.802  10.837
69985W        W35212  29.667  32.388  13.990
69986W        W35213  27.203  35.414  13.873
69987W        W35214   3.173  43.477   1.434
69988W        W35215  32.228  39.850  12.334
69989W        W35216  12.673  37.780   2.322
69990W        W35217  27.526  40.039   1.317
69991W        W35218  42.994  27.869   4.121
69992W        W35219   7.982  42.187   1.869
69993W        W35220  21.081  12.195  11.286
69994W        W35221  41.800  22.228  11.649
69995W        W35222  37.184  10.716   1.620
69996W        W35223  27.314  25.651  10.995
69997W        W35224  34.129  22.030  12.653
69998W        W35225   8.402  35.968   1.885
69999W        W35226  15.618  39.420   0.861
70000W        W35227  26.519  42.696  12.428
70001W        W35228  43.938   0.243  14.640
70002W        W35229  26.010  12.393  13.125
70003W        W35230  19.997   7.770  14.904
70004W        W35231  44.500  10.503   2.708
70005W        W35232  35.477  10.806   4.887
70006W        W35233  37.566   5.576   2.379
70007W        W35234  43.701  30.178   0.258
70008W        W35235  17.156  35.295  10.145
70009W        W35236  44.969  12.987  14.854
70010W        W35237   6.332  29.375  12.867
70011W        W35238  28.765   6.300   1.248
70012W        W35239  15.262   1.480  12.008
70013W        W35240  22.277  19.482  12.974
70014W        W35241  23.761  19.504  13.053
70015W        W35242   3.147  21.710   0.381
70016W        W35243   7.149   0.289  13.365
70017W        W35244  30.988  29.172  14.417
70018W        W35245  43.239  34.478   1.752
70019W        W35246  29.555   2.834  11.383
70020W        W35247  39.322  25.439  11.304
70021W        W35248  35.477   3.108   4.571
70022W        W35249  44.517  37.056  14.465
70023W        W35250  20.563  12.322   0.831
70024W        W35251  22.719   3.007  12.045
70025W        W35252   0.329   0.862  13.006
70026W        W35253  27.037  35.572   1.261
70027W        W35254  44.896  24.109   2.098
70028W        W35255  21.668  14.404   3.698
70029W        W35256   7.697  37.581  12.153
70030W        W35257  28.368   9.275  13.370
70031W        W35258  29.122  38.850  11.044
70032W        W35259  24.037   9.120  14.497
70033W        W35260  39.281  23.188  14.979
70034W        W35261  40.076  34.623   2.859
70035W        W35262  40.776  29.183   1.409
70036W        W35263  30.559  34.918  13.073
70037W        W35264  28.170   4.751   0.338
70038W        W35265   4.974  44.389   5.151
70039W        W35266  44.195  32.242  14.543
70040W        W35267  24.676   9.619   0.833
70041W        W35268  27.993  44.508   3.655
70042W        W35269  12.934  44.759  10.366
70043W        W35270  24.710  16.300   1.872
70044W        W35271  15.077  11.139  14.515
70045W        W35272  40.013   2.228   2.555
70046W        W35273  19.315   6.576   1.894
70047W        W35274  33.118  28.903  11.164
70048W        W35275   1.939   1.676  11.603
70049W        W35276  18.122  13.485   0.037
70050W        W35277  30.515  17.688   0.912
70051W        W35278   9.428  33.574  12.398
70052W        W35279  37.449   4.171  13.568
70053W        W35280  33.179   9.823   0.327
70054W        W35281  33.252  34.952   3.692
70055W        W35282  12.710  14.782   0.962
70056W        W35283  37.526  42.524   4.671
70057W        W35284  16.401  13.330  10.978
70058W        W35285  27.403   6.792  14.827
70059W        W35286  28.105  19.425   2.614
70060W        W35287  36.307   5.505   4.102
70061W        W35288   3.318   9.956   3.294
70062W        W35289  42.455  44.923  14.891
70063W        W35290   4.758  10.763  11.227
70064W        W35291  30.541  44.915   4.546
70065W        W35292  40.844   5.984  12.586
70066W        W35293  41.879   0.233   1.543
70067W        W35294  29.661  41.095   2.936
70068W        W35295  38.899  12.300  13.764
70069W        W35296  37.794  40.271   3.320
70070W        W35297   4.958  40.057   3.221
70071W        W35298  36.097   0.771  13.376
70072W        W35299  42.259  26.994   1.882
70073W        W35300  41.776  34.039   0.077
70074W        W35301  42.782  26.579   4.232
70075W        W35302   3.729   7.637   4.104
70076W        W35303   3.466  24.416   2.462
70077W        W35304  31.790  39.757   2.715
70078W        W35305   6.254  29.327   0.430
70079W        W35306  42.917  35.184  10.423
70080W        W35307  11.935  37.340  14.925
70081W        W35308  35.542  27.137   3.384
70082W        W35309  21.971   8.933  14.912
70083W        W35310   4.676  18.444  11.501
70084W        W35311   3.212  34.522   3.113
70085W        W35312  44.525  42.968  14.449
70086W        W35313  44.370   7.481   4.702
70087W        W35314   0.358  34.712   1.493
70088W        W35315  30.903  25.725   5.256
70089W        W35316  40.400   2.239  11.902
70090W        W35317  43.065  23.943   0.765
70091W        W35318   4.952  23.564   0.407
70092W        W35319  12.676  11.479   2.833
70093W        W35320   5.238  16.823   2.787
70094W        W35321   9.112  44.965  13.433
70095W        W35322  20.374  17.587   1.957
70096W        W35323  21.043  39.418   2.317
70097W        W35324  34.328   2.467  11.145
70098W        W35325  28.940  14.733  11.044
70099W        W35326  18.689   9.528  12.510
70100W        W35327   6.475  30.555  12.405
70101W        W35328   9.920  40.930   0.672
70102W        W35329  14.450   5.932  11.580
70103W        W35330   8.935  35.423   4.243
70104W        W35331  43.702  29.938  14.735
70105W        W35332  30.442  17.225  10.610
70106W        W35333  44.895  34.407   1.658
70107W        W35334  19.472  41.577   1.362
70108W        W35335  35.140  41.338  12.623
70109W        W35336   7.140  15.537  12.598
70110W        W35337   7.585   0.027  13.509
70111W        W35338  31.463  41.399   0.720
70112W        W35339  38.491  28.419  13.571
70113W        W35340  42.798  35.967   2.300
70114W        W35341   5.664  33.990   1.927
70115W        W35342  42.305  18.297  10.969
70116W        W35343  13.265   2.673  13.534
70117W        W35344  18.333  22.369  14.952
70118W        W35345  17.072  17.801  11.842
70119W        W35346  33.987  36.920  12.956
70120W        W35347  30.616   9.821   1.357
70121W        W35348  33.202   8.674  14.106
70122W        W35349   1.037  34.815   4.337
70123W        W35350  38.256   6.676   1.708
70124W        W35351  28.990  34.156   1.794
70125W        W35352   5.852  26.278  11.277
70126W        W35353  26.042  35.505   2.305
70127W        W35354  24.696  12.750  10.650
70128W        W35355  19.273  14.203   0.247
70129W        W35356  28.326   6.345  11.754
70130W        W35357   5.021  17.200  13.296
70131W        W35358  17.002  26.208  11.116
70132W        W35359   2.523  38.023   2.261
70133W        W35360  22.144  23.419   3.286
70134W        W35361  12.066  14.074   3.153
70135W        W35362   8.234  28.381   0.971
70136W        W35363  32.318  35.351   3.296
70137W        W35364  42.258  16.353  14.530
70138W        W35365   4.246  14.601  14.070
70139W        W35366  41.046   6.191   2.319
70140W        W35367   2.053  28.422  13.414
70141W        W35368   2.669  34.037   0.791
70142W        W35369  16.347  36.943  13.518
70143W        W35370   6.020   1.572  11.324
70144W        W35371  17.640  17.265  11.012
70145W        W35372  17.323   2.838   1.737
70146W        W35373  27.019   2.973  12.935
70147W        W35374  16.194  40.195  10.889
70148W        W35375  15.341  33.800  14.548
70149W        W35376   5.183  27.937  14.185
70150W        W35377   3.687  16.766  11.355
70151W        W35378  30.555   0.174   1.095
70152W        W35379   0.798  44.899   3.706
70153W        W35380  17.427  23.171  14.316
70154W        W35381   8.215  14.426  14.991
70155W        W35382  12.796  12.537  12.462
70156W        W35383  15.788  39.586   3.996
70157W        W35384  22.504  21.719   1.117
70158W        W35385  25.287  26.202   0.265
70159W        W35386   0.197  22.111  10.212
70160W        W35387  36.857   5.851  10.132
70161W        W35388   5.288  35.375  10.700
70162W        W35389  19.876   4.406   3.552
70163W        W35390  40.872  13.112   3.223
70164W        W35391  38.561  18.780  11.200
70165W        W35392  15.023  23.641  13.475
70166W        W35393  13.956  10.619   0.278
70167W        W35394  24.083  22.806  12.810
70168W        W35395  19.990   5.805   4.067
70169W        W35396   1.223  14.157  13.885
70170W        W35397  26.643  11.196   1.256
70171W        W35398   9.337  42.550   4.528
70172W        W35399   1.735  10.100  13.101
70173W        W35400  24.997  27.634  10.735
70174W        W35401  39.320  13.573   1.700
70175W        W35402  33.302  32.119   0.249
70176W        W35403  20.243   1.291  14.189
70177W        W35404  26.924  11.128  13.688
70178W        W35405  22.219  20.771  14.836
70179W        W35406  18.114   6.783  12.547
70180W        W35407  37.934  28.120   1.240
70181W        W35408  18.573  11.655  13.529
70182W        W35409  23.677   6.759  11.347
70183W        W35410   6.293   2.785   2.178
70184W        W35411  34.188  14.298   0.454
70185W        W35412  23.872  24.057   5.141
70186W        W35413  41.079  14.576   2.166
70187W        W35414  35.591  38.495  10.799
70188W        W35415   6.513  40.834   4.581
70189W        W35416  32.199   5.737  12.361
70190W        W35417  20.443  43.268   2.134
70191W        W35418  16.898  19.592   3.385
70192W        W35419  17.303  37.389  14.080
70193W        W35420   3.329  20.693  12.219
70194W        W35421  32.842   3.749   0.709
70195W        W35422   1.858  43.327  12.901
70196W        W35423  20.706  11.882   0.104
70197W        W35424  34.350  21.656   1.426
70198W        W35425  25.143  42.892  12.899
70199W        W35426  40.388  42.890   1.106
70200W        W35427  36.499  32.864   2.266
70201W        W35428  24.262   1.797   5.429
70202W        W35429  10.406  31.760   1.766
70203W        W35430  21.406  19.321   4.676
70204W        W35431  27.727  44.759  13.409
70205W        W35432  44.221  31.291  12.000
70206W        W35433  12.845   0.403  11.512
70207W        W35434  11.133  30.384   0.283
70208W        W35435  41.348  17.129   0.830
70209W        W35436  33.584  28.660  11.197
70210W        W35437  27.210  27.624   4.700
70211W        W35438  18.219   5.848   3.934
70212W        W35439  26.442  27.098   2.131
70213W        W35440  26.721  28.354   4.286
70214W        W35441  27.894  22.608  12.370
70215W        W35442  36.417  28.073  11.213
70216W        W35443  38.544   1.948  13.325
70217W        W35444  36.103  19.246  13.512
70218W        W35445  31.818  14.343   1.733
70219W        W35446  17.331  13.120   4.067
70220W        W35447  37.578  38.297   0.369
70221W        W35448  27.196  12.631   4.572
70222W        W35449  40.753  18.404  13.977
70223W        W35450  14.226  39.702  11.032
70224W        W35451  23.230   4.972   4.579
70225W        W35452  17.854  27.015   2.692
70226W        W35453  15.208  11.002   0.848
70227W        W35454  23.631  31.062   4.187
70228W        W35455   6.820  35.846   4.119
70229W        W35456  12.362  39.432   1.656
70230W        W35457  18.982  38.822   1.384
70231W        W35458  33.084   7.136   3.569
70232W        W35459  39.800  39.765  11.989
70233W        W35460  26.593  24.084   4.404
70234W        W35461  18.843  39.267  10.698
70235W        W35462  44.012  20.486  12.950
70236W        W35463  13.152   1.168   2.252
70237W        W35464  31.918  25.098   4.252
70238W        W35465  17.470   5.287   2.584
70239W        W35466  40.916  33.011   0.002
70240W        W35467  12.123  24.654   1.785
70241W        W35468  43.903  20.369  14.831
70242W        W35469  39.465   2.219  12.081
70243W        W35470   3.286  32.004  11.191
70244W        W35471   9.209  33.803   3.359
70245W        W35472  30.804  36.774  13.800
70246W        W35473  17.530  15.604  12.946
70247W        W35474  44.858  20.924   0.442
70248W        W35475  33.181  42.227  10.820
70249W        W35476  22.052  21.664   0.835
70250W        W35477  13.436  31.009   3.949
70251W        W35478   0.798   4.677  12.608
70252W        W35479  32.073  17.524  11.382
70253W        W35480   6.037  40.649  12.351
70254W        W35481   1.471  43.076  14.129
70255W        W35482   6.358  41.523   3.302
70256W        W35483   1.783   2.231  14.804
70257W        W35484  26.617  17.839   3.599
70258W        W35485  18.611  39.534  11.952
70259W        W35486   3.280  34.180  14.994
70260W        W35487  12.748  25.347  14.958
70261W        W35488  31.695  25.468   3.779
70262W        W35489   7.233  36.850  11.929
70263W        W35490  26.688  26.572   2.161
70264W        W35491   8.762  21.825   4.738
70265W        W35492   3.729  17.539  11.623
70266W        W35493  34.960  21.287  13.620
70267W        W35494  11.402  28.770  14.846
70268W        W35495   7.718  27.722  11.076
70269W        W35496   3.527  28.428  11.104
70270W        W35497  10.253   8.362  14.700
70271W        W35498   0.866  18.855  14.865
70272W        W35499   2.188  28.496   0.905
70273W        W35500  30.841  44.484   1.676
70274W        W35501   9.654  42.729  12.808
70275W        W35502  35.999  44.432  14.347
70276W        W35503  11.288  23.169  12.962
70277W        W35504  18.604  14.098  13.375
70278W        W35505   2.636  10.109   4.094
70279W        W35506  34.901  25.149   0.220
70280W        W35507  30.764  30.521  14.840
70281W        W35508  33.077  18.191  12.981
70282W        W35509  27.492  40.437  13.855
70283W        W35510  24.559  32.779   2.615
70284W        W35511   1.210  15.133   1.849
70285W        W35512  24.431  18.668   3.700
70286W        W35513  30.842  15.811   0.432
70287W        W35514  28.172  30.592  12.414
70288W        W35515  30.997  26.609   0.751
70289W        W35516  18.243  26.393   9.923
70290W        W35517  37.932  25.688  11.696
70291W        W35518  32.500  15.707  11.690
70292W        W35519  28.967   1.725  10.706
70293W        W35520  43.368  12.684  11.065
70294W        W35521  35.045   7.807  10.577
70295W        W35522  39.376  44.982  11.272
70296W        W35523  43.586  40.755  14.879
70297W        W35524  11.268  21.047  14.067
70298W        W35525  10.581  17.102  12.447
70299W        W35526  35.815   5.430  11.532
70300W        W35527   8.348  43.994  11.122
70301W        W35528   5.646  13.364  13.229
70302W        W35529  41.768   8.884  11.265
70303W        W35530  35.188  36.686   3.937
70304W        W35531   6.507  21.080   0.766
70305W        W35532  17.242  31.363   2.334
70306W        W35533  33.514  26.960   3.107
70307W        W35534  17.691  38.749   1.837
70308W        W35535   6.733  31.665  12.353
70309W        W35536  31.725  28.174  14.985
70310W        W35537  44.242  10.230   3.088
70311W        W35538   6.664  25.741  11.248
70312W        W35539   4.857   5.641   2.734
70313W        W35540  31.729   5.797  13.308
70314W        W35541  18.639   5.906  14.785
70315W        W35542  11.284  16.256  11.343
70316W        W35543   6.310  35.626   2.307
70317W        W35544  18.179  13.864  12.033
70318W        W35545  11.412  12.231  12.593
70319W        W35546  26.378  36.759   4.603
70320W        W35547  33.912  13.369  12.826
70321W        W35548  15.172   2.557   4.129
70322W        W35549  28.577   9.334  14.122
70323W        W35550  19.018  11.212   2.959
70324W        W35551  27.262  40.818   1.646
70325W        W35552  23.715  27.643   2.834
70326W        W35553  29.527  23.228   0.684
70327W        W35554  34.119  34.389  10.971
70328W        W35555   2.426  27.157   0.918
70329W        W35556  43.756  19.009  12.637
70330W        W35557  11.137  28.948  13.991
70331W        W35558  42.736  12.903  12.112
70332W        W35559   5.085  19.037  13.022
70333W        W35560  12.739  16.772   2.420
70334W        W35561   0.852  16.168  12.062
70335W        W35562  15.598  31.722  11.520
70336W        W35563   9.770   6.782   2.615
70337W        W35564  38.086  33.486   1.275
70338W        W35565  20.942   9.802  10.681
70339W        W35566  34.072  24.737  14.712
70340W        W35567  20.125  21.224   2.145
70341W        W35568  10.387   2.756   1.874
70342W        W35569  36.558  31.424   2.803
70343W        W35570   2.286  16.721  11.650
70344W        W35571  40.758  27.182  12.354
70345W        W35572  17.492  43.568  14.996
70346W        W35573  44.933  25.492   3.612
70347W        W35574  31.740  21.189  14.876
70348W        W35575  33.882  13.879   0.327
70349W        W35576   8.421  43.752  13.260
70350W        W35577  33.330  34.872  12.452
70351W        W35578  25.554   5.168   1.039
70352W        W35579  37.911  29.216  12.417
70353W        W35580  21.362  10.357   1.372
70354W        W35581  13.503  14.447   0.257
70355W        W35582  16.383  34.022  12.111
70356W        W35583   3.583  10.339  11.516
70357W        W35584  27.837   9.214  14.738
70358W        W35585  40.311   0.580   4.842
70359W        W35586  23.241  25.622  11.026
70360W        W35587  31.695  14.120  13.510
70361W        W35588  26.323  11.171   4.222
70362W        W35589  18.171  36.322  11.351
70363W        W35590  40.426  19.008   0.459
70364W        W35591  16.276  31.458   3.622
70365W        W35592  10.439  23.488  14.817
70366W        W35593   8.151  19.166  14.409
70367W        W35594  25.440  31.117  11.333
70368W        W35595  23.056   5.706  12.967
70369W        W35596  22.409   7.792  11.366
70370W        W35597  17.956   1.337   2.848
70371W        W35598  22.359   3.161   4.131
70372W        W35599  27.639  38.071  14.452
70373W        W35600   0.155  31.082   0.013
70374W        W35601  35.344  31.219  14.027
70375W        W35602  16.113  15.995   3.734
70376W        W35603  23.494  44.924   1.851
70377W        W35604  41.574   7.172  12.578
70378W        W35605   5.835  31.464  10.629
70379W        W35606  10.837  19.743   0.480
70380W        W35607  17.320  27.112  11.109
70381W        W35608   0.916  25.021  14.632
70382W        W35609   6.433  14.045  11.178
70383W        W35610  29.684  10.514   3.555
70384W        W35611  12.072  25.251  12.140
70385W        W35612  43.444  30.021   4.816
70386W        W35613  24.577  10.676  12.947
70387W        W35614  34.509   0.780   0.798
70388W        W35615  21.634  23.236   3.158
70389W        W35616   1.328  22.023   4.425
70390W        W35617  43.866   2.432  11.106
70391W        W35618  39.191   4.950   2.104
70392W        W35619   0.913  30.642   3.191
70393W        W35620  44.442  28.251   5.048
70394W        W35621  40.294  34.423  14.232
70395W        W35622  15.562  37.089   1.777
70396W        W35623  15.721   4.680   3.934
70397W        W35624   0.267  18.495   1.838
70398W        W35625  25.996  18.501   0.344
70399W        W35626  43.545   1.034   9.989
70400W        W35627  16.336  25.484   1.984
70401W        W35628   0.770  13.898   4.477
70402W        W35629  12.136  13.652   1.922
70403W        W35630  15.615   6.807  13.162
70404W        W35631  19.164   5.201  11.654
70405W        W35632  16.606  16.623  11.485
70406W        W35633  13.161  36.517   0.391
70407W        W35634  28.036   9.065  10.456
70408W        W35635  28.876   1.712   2.637
70409W        W35636  10.140   5.517   0.274
70410W        W35637   0.014  34.909  14.984
70411W        W35638  35.368  25.218  13.864
70412W        W35639  42.045   0.813  11.174
70413W        W35640  18.321  22.053   4.302
70414ION    NA+35641  41.082   5.158  12.991
70415ION    NA+35642  10.942   4.404   1.657
70416ION    NA+35643  44.872   0.509   1.514
70417ION    NA+35644   2.370   3.986   3.223
70418ION    NA+35645  37.562  18.994   5.370
70419ION    NA+35646  24.701  25.308   1.208
70420ION    NA+35647  41.748  15.109   2.493
70421ION    NA+35648  11.293  20.216  13.405
70422ION    NA+35649   1.381  37.138   1.908
70423ION    NA+35650  29.458  36.149   0.484
70424ION    NA+35651  22.587   8.440   0.284
70425ION    NA+35652   0.363  10.753  10.781
70426ION    NA+35653  24.698  37.569   3.784
70427ION    NA+35654   8.126  21.914  11.473
70428ION    NA+35655   5.453   1.346  14.099
70429ION    NA+35656  37.279  41.554  14.860
70430ION    NA+35657  21.549  35.953   2.318
70431ION    NA+35658  11.765  28.984   4.854
70432ION    NA+35659  13.259  27.988   4.135
70433ION    NA+35660  22.715  26.809  12.660
70434ION    NA+35661  38.491  38.330   0.835
70435ION    NA+35662  44.628  18.425  10.940
70436ION    NA+35663  43.947  31.195  14.349
70437ION    NA+35664   4.282  35.437  12.523
70438ION    NA+35665   2.168  23.484   2.287
70439ION    NA+35666  35.981   5.811   2.692
70440ION    NA+35667  17.237   2.175  10.745
70441ION    NA+35668  21.577  22.001  14.672
70442ION    NA+35669   7.865  34.248  12.016
70443ION    NA+35670   9.728  17.296   2.117
70444ION    NA+35671  23.963  24.593  10.459
70445ION    NA+35672  43.614  15.632  14.402
70446ION    NA+35673  28.713   2.479  12.977
70447ION    NA+35674  10.561  17.599   3.837
70448ION    NA+35675  20.244  19.000   1.033
70449ION    NA+35676  16.034   7.301   2.988
70450ION    NA+35677  31.159  37.912   3.076
70451ION    NA+35678  33.238  11.677  14.454
70452ION    NA+35679  43.471  41.272  14.889
70453ION    NA+35680  31.537  35.864   2.193
70454ION    NA+35681  16.537  40.385  14.394
70455ION    NA+35682   6.705  28.327   3.848
70456ION    NA+35683  12.821  32.832  12.054
70457ION    NA+35684  17.013  26.768   2.393
70458ION    NA+35685   6.857   3.001  11.156
70459ION    NA+35686  24.531  24.604   4.279
70460ION    NA+35687  44.895  28.253   2.286
70461ION    NA+35688  41.720  25.898  13.465
70462ION    NA+35689  18.765  37.239  13.954
70463ION    NA+35690   8.249  35.092  13.167
70464ION    NA+35691  36.259  37.112  14.301
70465ION    NA+35692   0.723  25.146  13.483
70466ION    NA+35693  14.062   8.584   5.406
70467ION    NA+35694   5.436  29.563   0.531
70468ION    NA+35695  33.422  26.450   1.404
70469ION    NA+35696  22.053  40.684   4.511
70470ION    NA+35697   0.762  28.648   4.319
70471ION    NA+35698  20.020  19.310   0.109
70472ION    NA+35699  35.960  30.563  14.727
70473ION    NA+35700  19.046  11.901   1.630
70474ION    NA+35701  14.308  14.484   2.422
70475ION    NA+35702  25.819  11.278   4.198
70476ION    NA+35703   4.418  11.080   0.893
70477ION    NA+35704  31.294   9.813  13.114
70478ION    NA+35705  43.629  25.446  11.615
70479ION    NA+35706   2.655  27.901   9.812
70480ION    NA+35707  44.032  34.016   1.976
70481ION    NA+35708  19.066  31.536  12.833
70482ION    NA+35709  24.563  28.970   3.090
70483ION    NA+35710  28.362  30.661   1.226
70484ION    NA+35711  14.831   8.716   2.664
70485ION    NA+35712   2.293  21.811  12.076
70486ION    NA+35713  20.551   0.412  13.739
70487ION    NA+35714  32.092  21.540   0.736
70488ION    NA+35715  41.507  19.281  14.841
70489ION    NA+35716  10.665  39.078   3.213
70490ION    NA+35717  25.182  31.581  11.325
70491ION    NA+35718  39.253   4.176   5.448
70492ION    NA+35719  37.134  28.505   1.425
70493ION    NA+35720  29.832   4.987   1.635
70494ION    NA+35721  30.566  11.444  12.569
70495ION    NA+35722  18.669  17.269  14.509
70496ION    NA+35723  44.513  40.572   1.412
70497ION    NA+35724  32.066  20.252   3.255
70498ION    NA+35725  28.210   9.077   0.051
70499ION    NA+35726   7.182  28.874  13.336
70500ION    NA+35727  25.330  14.899   0.661
70501ION    NA+35728  25.260  40.655   0.227
70502ION    NA+35729  11.867  36.652   1.744
70503ION    NA+35730  23.535  15.652   2.392
70504ION    NA+35731  21.185  32.653  13.426
70505ION    NA+35732  14.591   6.849  11.427
70506ION    NA+35733  38.609  21.963   3.374
70507ION    NA+35734  13.819   4.968   4.984
70508ION    NA+35735  15.077  27.823   2.128
70509ION    NA+35736  27.757  36.884  13.052
70510ION    NA+35737   8.140  44.054   0.830
70511ION    NA+35738  11.447   6.756   0.536
70512ION    NA+35739  11.301   2.260  11.654
70513ION    NA+35740  37.057  31.401  14.892
70514ION    NA+35741  20.293   6.679   9.690
70515ION    NA+35742  32.604  26.954   0.386
70516ION    NA+35743  17.908  11.771   3.587
70517ION    NA+35744   3.642   3.800   3.737
70518ION    NA+35745  14.417  26.950  10.856
70519ION    NA+35746   1.962  31.798   3.251
70520ION    NA+35747   2.943   4.614  12.006
70521ION    NA+35748   7.252   1.204   3.615
70522ION    NA+35749  42.774  25.304  12.416
70523ION    NA+35750  41.075  33.538  13.017
70524ION    NA+35751  36.891  13.594   3.774
70525ION    NA+35752  21.116  30.672   0.845
70526ION    NA+35753  18.641  10.782  12.866
70527ION    NA+35754  27.974  14.419   1.229
70528ION    NA+35755  33.360   5.359   1.787
70529ION    NA+35756  14.404  35.606  11.695
70530ION    NA+35757  31.534  27.712   0.874
70531ION    NA+35758  39.286  12.695   2.784
70532ION    NA+35759  27.783  13.266   4.170
70533ION    NA+35760   7.915  42.837  14.839
70534ION    NA+35761   1.498  31.778  12.055
70535ION    NA+35762  31.834  19.800  11.761
70536ION    NA+35763  19.264  18.126   4.474
70537ION    NA+35764  37.023  15.789   4.382
70538ION    NA+35765  14.121   3.672   9.804
70539ION    NA+35766   6.716  29.579   2.120
70540ION    NA+35767  10.905  12.980  11.690
70541ION    NA+35768  22.803  29.004  10.938
70542ION    NA+35769   9.827  41.121   3.656
70543ION    NA+35770  39.534  37.765   4.406
70544ION    NA+35771  21.287   7.483   2.355
70545ION    NA+35772   1.638  21.615   4.526
70546ION    NA+35773  37.806  33.283   1.854
70547ION    NA+35774  18.328   0.228  12.935
70548ION    NA+35775  35.042   0.567   0.829
70549ION    NA+35776  20.753  26.453   4.514
70550ION    NA+35777   6.403  10.264  10.722
70551ION    NA+35778  24.581  15.849  14.587
70552ION    NA+35779  44.386  16.818  14.449
70553ION    NA+35780  37.153  43.890   3.187
70554ION    NA+35781  41.765  32.541   2.368
70555ION    NA+35782  11.864  22.562  11.533
70556ION    NA+35783  14.201   4.508  14.418
70557ION    NA+35784  28.518  28.043   1.641
70558ION    NA+35785  44.938   3.623  11.139
70559ION    NA+35786  11.048   1.300   3.178
70560ION    NA+35787  16.875  44.571  11.154
70561ION    NA+35788  36.942   4.427   3.397
70562ION    NA+35789   7.522   6.576  14.381
70563ION    NA+35790  28.185   5.244  12.058
70564ION    NA+35791  30.034  43.780   3.996
70565ION    NA+35792  17.101  33.605  12.927
70566ION    NA+35793  23.156   5.367  11.004
70567ION    NA+35794  23.939   2.284  14.852
70568ION    NA+35795  40.330  11.792  11.582
70569ION    NA+35796  11.010  21.920   1.826
70570ION    NA+35797   2.943  27.088  13.571
70571ION    NA+35798   8.865   4.619   4.866
70572ION    NA+35799   3.470   2.241   4.301
70573ION    NA+35800  21.071  35.930   3.230
70574ION    NA+35801  15.700   8.586   3.304
70575ION    NA+35802  25.629   8.579   0.832
70576ION    NA+35803  42.676   9.552  11.590
70577ION    NA+35804  29.350  34.020   2.122
70578ION    NA+35805   8.657  31.578   4.472
70579ION    NA+35806  15.570  18.677  10.825
70580ION    NA+35807   7.349   6.412   0.765
70581ION    NA+35808  32.399  21.341   2.506
70582ION    NA+35809   6.428   1.771   3.591
70583ION    NA+35810   0.734  42.691   3.517
70584ION    NA+35811  23.876  22.430  13.950
70585ION    NA+35812  25.096  13.508   1.666
70586ION    NA+35813   2.519  21.278   4.937
70587ION    NA+35814  15.093  11.397  12.091
70588ION    NA+35815  21.557  15.063  14.533
70589ION    NA+35816   5.628  27.149  13.826
70590ION    NA+35817   6.363   6.240  13.058
70591ION    NA+35818  41.121  16.235  10.870
70592ION    NA+35819   5.096   1.245   3.988
70593ION    NA+35820  37.301  10.846  11.645
70594ION    NA+35821  41.604   9.822  10.514
70595ION    NA+35822  43.196  18.018  11.956
70596ION    NA+35823  36.006   7.610   0.714
70597ION    NA+35824  18.641  37.607  13.009
70598ION    NA+35825  34.848  30.650  14.701
70599ION    NA+35826  40.890  36.498  14.614
70600ION    NA+35827  36.863  27.505  14.289
70601ION    NA+35828  15.985  12.655  11.290
70602ION    NA+35829  20.747  33.376   2.407
70603ION    NA+35830  29.215  24.772  12.968
70604ION    NA+35831   8.525  10.175   3.091
70605ION    NA+35832   8.245  19.826  11.927
70606ION    NA+35833  21.130  24.368  12.049
70607ION    NA+35834  17.602   7.418  11.219
70608ION    NA+35835  22.195  10.306   2.821
70609ION    NA+35836   1.917  28.538   5.286
70610ION    NA+35837  25.136   8.358   3.418
70611ION    NA+35838  41.330  10.550   0.397
70612ION    NA+35839  42.134  26.752   1.440
70613ION    NA+35840  24.283   7.378   1.235
70614ION    NA+35841  26.529   3.252   1.866
70615ION    NA+35842  28.901  35.799   2.759
70616ION    NA+35843  38.851  26.054  11.910
70617ION    NA+35844  41.566  36.450  10.898
70618ION    NA+35845  27.414  32.588   0.035
70619ION    NA+35846  40.244  16.460  10.954
70620ION    NA+35847  39.493  38.256   2.838
70621ION    NA+35848   9.891  31.360  14.021
70622ION    NA+35849   7.338  12.614  10.382
70623ION    NA+35850  40.160  41.564  11.622
70624ION    NA+35851  18.815  31.349   0.391
70625ION    NA+35852   5.518   6.567  14.654
70626ION    NA+35853   6.255   8.190   0.625
70627ION    NA+35854  37.758  35.750   0.558
70628ION    NA+35855  21.428  29.476  14.285
70629ION    NA+35856  44.001   2.406   4.144
70630ION    NA+35857  36.398   9.237   0.376
70631ION    NA+35858  38.670  23.281   0.499
70632ION    NA+35859  24.532  14.104   1.017
70633ION    NA+35860  37.057   9.671  12.337
70634ION    NA+35861  14.952  20.941  13.128
70635ION    NA+35862  29.204   9.155  14.971
70636ION    NA+35863  26.127  13.524   3.024
70637ION    NA+35864  38.491  32.167   3.239
70638ION    NA+35865  10.059  19.977  11.442
70639ION    NA+35866  13.393  41.867   1.874
70640ION    NA+35867  22.253  15.231   1.339
70641ION    NA+35868  26.436   2.972  10.769
70642ION    NA+35869  18.992  33.907   1.646
70643ION    NA+35870  12.242   0.479   3.217
70644ION    NA+35871  12.157  23.355  10.115
70645ION    NA+35872  41.912  21.992   2.033
70646ION    NA+35873  11.102  31.400   3.150
70647ION    NA+35874  31.520  11.035   5.442
70648ION    NA+35875  19.917  21.497  13.311
70649ION    NA+35876   5.293  19.335   4.427
70650ION    NA+35877  10.511  12.292   1.737
70651ION    NA+35878  21.832  32.902  12.705
70652ION    NA+35879   2.763  21.741   3.672
70653ION    NA+35880   8.953  12.925   1.834
70654ION    NA+35881  19.628  43.345   3.668
70655ION    NA+35882  24.528   4.754   0.451
70656ION    NA+35883  19.762  20.205   3.167
70657ION    NA+35884   4.025   4.345  13.602
70658ION    NA+35885  39.769  15.017  14.889
70659ION    NA+35886  23.290   2.862   4.280
70660ION    NA+35887  31.764  35.717   9.886
70661ION    NA+35888  37.891  19.972   1.087
70662ION    NA+35889  42.471   9.098   3.281
70663ION    NA+35890  36.889  37.745   0.199
70664ION    NA+35891  23.023  23.136  13.362
70665ION    NA+35892  35.349   4.893  10.904
70666ION    NA+35893  12.611   9.967   2.982
70667ION    NA+35894  14.354  28.475  13.148
70668ION    NA+35895  32.878  18.756   3.283
70669ION    NA+35896  14.985  33.023  12.858
70670ION    NA+35897  44.510  36.889  11.613
70671ION    NA+35898  21.882  33.305   0.458
70672ION    NA+35899  25.276   1.985  10.768
70673ION    NA+35900  19.773  15.484   1.439
70674ION    NA+35901  12.026  33.096   1.333
70675ION    NA+35902  36.942   3.767  10.768
70676ION    NA+35903  16.683  18.054   1.995
70677ION    NA+35904   9.394  41.273  14.913
70678ION    NA+35905  28.301  40.023   4.204
70679ION    NA+35906  37.737  37.171  10.663
70680ION    NA+35907  31.693   0.887  12.123
70681ION    NA+35908  42.461  44.937  13.357
70682ION    NA+35909  32.139  15.160   0.209
70683ION    NA+35910  30.124  28.819   1.252
70684ION    NA+35911  33.451  17.518   2.342
70685ION    NA+35912   4.238  39.538  11.950
70686ION    NA+35913  38.515  19.476   2.420
70687ION    NA+35914   1.800   3.522   0.773
70688ION    NA+35915  30.742  41.718  13.293
70689ION    NA+35916   9.785  38.254  14.031
70690ION    NA+35917   4.231  40.379  14.427
70691ION    NA+35918  43.438  14.969  10.679
70692ION    NA+35919  17.218  16.734  13.974
70693ION    NA+35920  13.832   6.406  11.906
70694ION    NA+35921  18.182  31.236   1.891
70695ION    NA+35922  17.562  13.559  11.488
70696ION    NA+35923  29.799   2.200  12.717
70697ION    NA+35924  29.124   5.875  10.298
70698ION    NA+35925  38.552  35.046   1.991
70699ION    NA+35926  40.316  16.719   0.188
70700ION    NA+35927   6.812  39.621  14.500
70701ION    NA+35928  10.724  13.323  12.998
70702ION    NA+35929  16.444  20.331   0.340
70703ION    NA+35930  15.818   4.534  10.648
70704ION    NA+35931  34.128   9.019  12.571
70705ION    NA+35932  30.919  32.704   4.611
70706ION    NA+35933   4.835   8.708  13.605
70707ION    NA+35934  24.126  21.978   0.557
70708ION    NA+35935   4.927  12.968  13.224
70709ION    NA+35936  34.594  26.677  13.124
70710ION    NA+35937   4.255  18.172   2.977
70711ION    NA+35938  23.665  15.272  10.794
70712ION    NA+35939  36.311  30.811  12.017
70713ION    NA+35940  26.218   1.232   1.803
70714ION    NA+35941  11.160  21.821   3.391
70715ION    NA+35942  39.793  21.002  13.832
70716ION    NA+35943  26.665   9.480   0.221
70717ION    NA+35944  26.855  32.934   1.849
70718ION    NA+35945  29.783  34.309  13.734
70719ION    NA+35946   1.015  30.884  11.919
70720ION    NA+35947   4.321  27.624   4.580
70721ION    NA+35948  17.023  11.133  12.553
70722ION    NA+35949  33.551  34.203  12.893
70723ION    NA+35950  23.837  27.625   0.856
70724ION    NA+35951  12.487  22.268  13.552
70725ION    NA+35952  11.873  15.853  12.900
70726ION    NA+35953  13.797  38.356   1.553
70727ION    NA+35954  37.565  24.188   2.678
70728ION    NA+35955   7.956   1.796  10.528
70729ION    NA+35956  11.574  43.819   0.234
70730ION    NA+35957   5.998  23.249  10.785
70731ION    NA+35958   8.226  29.831  12.883
70732ION    NA+35959  16.236   9.279   4.129
70733ION    NA+35960   3.442  35.557   3.736
70734ION    NA+35961  13.291  39.879   2.770
70735ION    NA+35962  33.309  43.757   0.920
70736ION    NA+35963  16.588  28.162  11.629
70737ION    NA+35964  18.293   2.298  14.375
70738ION    NA+35965  39.243  31.608  13.739
70739ION    NA+35966  41.029  35.612  11.518
70740ION    NA+35967  17.874   8.270  12.605
70741ION    NA+35968  13.343  33.137  10.598
70742ION    NA+35969  10.474   7.341   2.765
70743ION    NA+35970   2.412  28.974   1.025
70744ION    NA+35971  40.143  19.067  13.290
70745ION    NA+35972  40.774  17.012   3.742
70746ION    NA+35973  36.973  39.057  14.325
70747ION    NA+35974   8.961  14.763   0.372
70748ION    NA+35975  26.176   6.143  12.727
70749ION    NA+35976  17.711  24.458   4.205
70750ION    NA+35977   9.015   3.807  10.797
70751ION    NA+35978  18.065   0.522   1.270
70752ION    NA+35979  34.368   1.199  11.539
70753ION    NA+35980  34.485  15.584   2.298
70754ION    NA+35981   0.579  38.849   5.070
70755ION    NA+35982  30.670   4.878   2.171
70756ION    NA+35983  39.113  22.053   1.181
70757ION    NA+35984  22.750  15.361   0.373
70758ION    NA+35985  42.967   1.825  10.819
70759ION    NA+35986  24.137  40.631  13.654
70760ION    NA+35987   0.808  35.881   3.557
70761ION    NA+35988  15.814  27.419   4.872
70762ION    NA+35989   5.967  44.772  12.735
70763ION    NA+35990  32.087  33.306  10.750
70764ION    NA+35991  43.027  36.376  11.171
70765ION    NA+35992  29.719  11.815   3.332
70766ION    NA+35993   4.709  17.041  12.879
70767ION    NA+35994  17.828  43.419  12.482
70768ION    NA+35995  38.785  30.605  13.123
70769ION    NA+35996  31.244  19.512   4.859
70770ION    NA+35997  26.719   8.695  11.976
70771ION    NA+35998  31.868  26.022  13.694
70772ION    NA+35999  28.676  32.147  14.058
70773ION    NA+36000   7.980  33.147  12.113
70774ION    NA+36001  44.778  29.349  11.641
70775ION    NA+36002  44.590  41.755   0.911
70776ION    NA+36003  10.921  44.762   3.594
70777ION    NA+36004   1.432  24.461  12.451
70778ION    NA+36005  27.692   0.379  10.239
70779ION    NA+36006  31.662   9.652  12.198
70780ION    NA+36007  17.034  17.231   0.426
70781ION    NA+36008  40.469  15.531   0.070
70782ION    NA+36009   8.212  31.389   0.018
70783ION    NA+36010  20.917   1.881   1.913
70784ION    NA+36011  25.256  21.890  11.486
70785ION    NA+36012  32.626  40.553  10.701
70786ION    NA+36013  29.212   2.862   2.418
70787ION    NA+36014  21.917  19.151   3.099
70788ION    NA+36015   0.488  21.922   1.990
70789ION    NA+36016  25.897  30.502   2.451
70790ION    NA+36017   8.065  16.840  10.234
70791ION    NA+36018  40.069  42.306  14.563
70792ION    NA+36019   2.318   6.093   2.402
70793ION    NA+36020  33.407  32.981  13.542
70794ION    NA+36021  16.705   1.450   3.871
70795ION    NA+36022   7.699  36.075  11.997
70796ION    NA+36023  23.302  25.521  14.988
70797ION    NA+36024   0.572  19.330   0.692
70798ION    NA+36025  16.832  35.457   4.087
70799ION    NA+36026  15.616  21.432   4.569
70800ION    NA+36027  38.623  10.833   3.198
70801ION    NA+36028  16.761  21.093   1.000
70802ION    NA+36029  18.961  13.149  11.252
70803ION    NA+36030  17.688   2.478  12.855
70804ION    NA+36031  28.790   8.190  14.738
70805ION    NA+36032  11.572  11.527  11.717
70806ION    NA+36033   3.484   0.174  12.059
70807ION    NA+36034  34.931  34.152   0.706
70808ION    NA+36035  19.707   9.053  14.651
70809ION    NA+36036  22.412  28.768   2.863
70810ION    NA+36037  30.026   6.026   3.518
70811ION    NA+36038   5.581   5.470   2.267
70812ION    NA+36039   4.271  10.656  11.321
70813ION    NA+36040  13.436  34.247  13.619
70814ION    NA+36041   2.450   7.076   2.270
70815ION    NA+36042  27.775  27.899  12.685
70816ION    NA+36043  16.242  29.978   1.356
70817ION    NA+36044  22.360  29.679  11.528
70818ION    NA+36045  28.919  13.203  13.485
70819ION    NA+36046  34.773   9.496  13.017
70820ION    NA+36047  38.051   0.689  14.499
70821ION    NA+36048  38.309   9.797   0.294
70822ION    NA+36049  16.012  31.191   2.087
70823ION    NA+36050   6.703  29.196  12.482
70824ION    NA+36051  33.358  31.194   4.091
70825ION    NA+36052  42.757  30.277  10.713
70826ION    NA+36053   6.224  34.478   4.042
70827ION    NA+36054  36.827  10.625  12.573
70828ION    NA+36055  26.225  34.022   3.280
70829ION    NA+36056  44.093   7.881   2.997
70830ION    NA+36057  26.303  15.447   2.797
70831ION    NA+36058  31.192  27.985   2.189
70832ION    NA+36059  32.287   8.823  11.675
70833ION    NA+36060  11.658  15.161  10.993
70834ION    NA+36061  41.753  15.460   3.675
70835ION    NA+36062  24.204   0.491   1.653
70836ION    NA+36063   1.523  25.588  13.041
70837ION    NA+36064   5.063  18.062  14.274
70838ION    NA+36065   4.036  24.637  10.165
70839ION    NA+36066   0.439   7.570  10.865
70840ION    NA+36067   5.985  30.073  11.975
70841ION    NA+36068   9.862  33.694   3.129
70842ION    NA+36069   0.735   5.854  13.880
70843ION    NA+36070  20.640  38.322   0.911
70844ION    NA+36071  24.483  32.144  13.118
70845ION    NA+36072  22.029   4.681   0.406
70846ION    NA+36073  27.511  22.602   3.041
70847ION    NA+36074  35.806   1.459   1.676
70848ION    NA+36075  36.481   3.146   5.148
70849ION    NA+36076   3.494  23.724  11.951
70850ION    NA+36077  22.348  23.764  14.969
70851ION    NA+36078   8.801   1.459  10.942
70852ION    NA+36079  36.304  26.175   2.289
70853ION    NA+36080  38.745  34.280   1.357
70854ION    NA+36081  32.896  23.653   3.812
70855ION    NA+36082  10.230   9.370   4.614
70856ION    NA+36083  23.175   1.746   1.183
70857ION    NA+36084   8.356  34.049   3.787
70858ION    NA+36085  11.182   3.029  14.716
70859ION    NA+36086  26.852   7.927   2.096
70860ION    NA+36087  32.609  40.129  13.432
70861ION    NA+36088  40.882  21.119   0.115
70862ION    NA+36089  31.937   8.810   4.671
70863ION    NA+36090  29.828  18.929  11.895
70864ION    NA+36091  35.018  39.751  10.348
70865ION    NA+36092  25.305  31.300   3.828
70866ION    NA+36093  37.223  16.770   2.273
70867ION    NA+36094   7.907  30.372  12.221
70868ION    NA+36095  10.990  15.595  12.507
70869ION    NA+36096  15.164  38.638  14.910
70870ION    NA+36097  14.645  16.531   2.291
70871ION    NA+36098  20.667   0.283   5.407
70872ION    NA+36099   7.175   6.167  11.231
70873ION    NA+36100  22.040  43.364   0.916
70874ION    NA+36101   1.185  10.330  11.692
70875ION    NA+36102  38.533  14.089   2.867
70876ION    NA+36103  44.283  16.231   1.444
70877ION    NA+36104   6.184   4.717  10.998
70878ION    NA+36105  36.060   4.240  14.731
70879ION    NA+36106  44.647  17.047  10.703
70880ION    NA+36107   8.294   2.870   4.186
70881ION    NA+36108  36.225  34.693  13.725
70882ION    NA+36109  20.692   5.335   2.245
70883ION    NA+36110  20.004   8.533  13.793
70884ION    NA+36111  15.226  37.506   0.978
70885ION    NA+36112  22.749  32.151   4.449
70886ION    NA+36113  40.296   3.222   3.606
70887ION    NA+36114  41.458  21.008   1.179
70888ION    NA+36115   1.002  34.023   4.611
70889ION    NA+36116  20.912  11.005   0.347
70890ION    NA+36117  15.057  27.965   4.189
70891ION    NA+36118  22.800  27.846   2.847
70892ION    NA+36119  15.002  12.518  11.146
70893ION    NA+36120  37.445  39.511  13.036
70894ION    NA+36121  35.278   8.480  14.524
70895ION    NA+36122  12.423   3.432   1.589
70896ION    NA+36123   4.061  21.485   2.132
70897ION    NA+36124   3.810  21.305   3.707
70898ION    NA+36125  29.034  18.124  11.126
70899ION    NA+36126   8.656  16.165  13.502
70900ION    NA+36127   4.467  36.932  13.339
70901ION    NA+36128  42.915  11.309  11.304
70902ION    NA+36129  33.297  14.688   2.004
70903ION    NA+36130  19.789  15.353  10.657
70904ION    NA+36131   1.350  39.954  13.674
70905ION    NA+36132  11.133  29.035  12.476
70906ION    NA+36133  22.167  27.668  10.690
70907ION    NA+36134  16.112  21.297   0.252
70908ION    NA+36135  15.314   0.882  10.795
70909ION    NA+36136  16.140   5.532  13.906
70910ION    NA+36137  27.167   3.994  13.460
70911ION    NA+36138  41.292   2.187  11.794
70912ION    NA+36139  10.522  41.983   0.344
70913ION    NA+36140   3.363  18.136   2.780
70914ION    NA+36141  44.132  25.455   0.400
70915ION    NA+36142  24.180  38.660  12.962
70916ION    NA+36143  13.333  18.031   0.476
70917ION    NA+36144  10.933  27.015   0.264
70918ION    NA+36145   0.062  32.878  14.028
70919ION    NA+36146  30.762  25.447   3.554
70920ION    NA+36147  34.248  25.944  13.809
70921ION    NA+36148  43.682  43.311  13.531
70922ION    NA+36149  23.777  39.519   4.156
70923ION    NA+36150  10.588   2.980  11.713
70924ION    NA+36151  16.505  15.105   4.619
70925ION    NA+36152  29.354  43.545   0.968
70926ION    NA+36153  34.983  38.149  13.310
70927ION    NA+36154  31.317  23.172  14.901
70928ION    NA+36155  37.778  26.189  11.610
70929ION    NA+36156  30.196  24.423  12.577
70930ION    NA+36157  25.724  36.932   2.455
70931ION    NA+36158  15.078  35.877  12.899
70932ION    NA+36159   1.264   4.426  12.562
70933ION    NA+36160  17.513  30.253   3.028
70934ION    NA+36161  15.740  21.523  11.436
70935ION    NA+36162  35.971  20.120  13.017
70936ION    NA+36163   7.657  15.328  14.915
70937ION    NA+36164   7.611  41.467   9.867
70938ION    NA+36165  13.789   8.003  13.479
70939ION    NA+36166  15.849  32.598  13.127
70940ION    NA+36167  25.194  18.999  10.592
70941ION    NA+36168   3.183  21.396   1.884
70942ION    NA+36169  30.066  28.788   3.578
70943ION    NA+36170   0.485   9.498  10.811
70944ION    NA+36171   4.321  12.341  12.970
70945ION    NA+36172  40.166  12.386   3.146
70946ION    NA+36173   5.707  26.333  14.234
70947ION    NA+36174  11.341  36.532   0.898
70948ION    NA+36175   6.900  16.631   0.063
70949ION    NA+36176  19.702  20.453   1.123
70950ION    NA+36177   5.000  40.981  10.771
70951ION    NA+36178  40.105  26.243   2.884
70952ION    NA+36179  37.904  27.037   4.980
70953ION    NA+36180  39.059  29.698  14.985
70954ION    NA+36181  12.945  23.432   4.925
70955ION    NA+36182  21.340  40.190  14.985
70956ION    NA+36183   3.597  25.613  11.997
70957ION    NA+36184  15.065  35.972  13.800
70958ION    NA+36185  25.626  14.443   3.769
70959ION    NA+36186  34.822  12.299   4.987
70960ION    NA+36187   5.671  40.665  13.206
70961ION    NA+36188   7.453  38.855  14.461
70962ION    NA+36189  43.846  33.900  13.362
70963ION    NA+36190  25.391  15.862  12.163
70964ION    NA+36191  27.114  40.650   4.349
70965ION    NA+36192  29.611  22.952  11.200
70966ION    NA+36193  15.629  38.591   4.200
70967ION    NA+36194  29.982  30.568   0.761
70968ION    NA+36195  31.392  21.182   1.353
70969ION    NA+36196   8.095  36.306   4.578
70970ION    NA+36197  44.965  37.025   1.457
70971ION    NA+36198  34.983  18.463   0.047
70972ION    NA+36199  18.482  41.004   3.325
70973ION    NA+36200  29.377  21.710   4.017
70974ION    NA+36201   4.240  40.432  11.501
70975ION    NA+36202  20.230  29.494  11.829
70976ION    NA+36203  41.533   0.371  11.751
70977ION    NA+36204  32.028  44.814   3.982
70978ION    NA+36205  34.629  26.550   0.249
70979ION    NA+36206   5.156   4.674  12.517
70980ION    NA+36207   4.510  27.571   3.219
70981ION    NA+36208   0.829  15.666  13.328
70982ION    NA+36209   4.970  10.985   2.886
70983ION    NA+36210   0.395   0.837  10.950
70984ION    NA+36211  18.393  38.890   0.678
70985ION    NA+36212  24.722  31.588  14.521
70986ION    NA+36213  19.586  38.189  14.083
70987ION    NA+36214  31.903   9.809   3.520
70988ION    NA+36215  23.546  27.158  13.658
70989ION    NA+36216  19.859  32.267   4.050
70990ION    NA+36217  32.037  36.281   3.194
70991ION    NA+36218  15.384  21.422  12.365
70992ION    NA+36219  18.991  36.472   1.837
70993ION    NA+36220  37.673  26.345   1.889
70994ION    NA+36221  33.286   5.851  10.029
70995ION    NA+36222  36.895  43.710  11.649
70996ION    NA+36223  38.148  27.674   3.659
70997ION    NA+36224  12.155   8.863   1.223
70998ION    NA+36225   9.401  34.471  14.465
70999ION    NA+36226  31.467  35.183  11.079
71000ION    NA+36227  19.054   9.755  12.036
71001ION    NA+36228  33.405  43.365   3.317
71002ION    NA+36229   8.235  11.926   0.850
71003ION    NA+36230  26.890   0.698   5.258
71004ION    NA+36231  14.997  11.861   4.593
71005ION    NA+36232  17.072  13.278  14.610
71006ION    NA+36233   0.763  19.052   3.262
71007ION    NA+36234  14.726  14.475  10.648
71008ION    NA+36235   8.827  28.627  14.668
71009ION    NA+36236   2.359  35.864  11.666
71010ION    NA+36237  39.190  36.931   0.188
71011ION    NA+36238  33.737  25.144  11.186
71012ION    NA+36239  15.244  26.712   3.619
71013ION    NA+36240  26.901  29.119   0.588
71014ION    NA+36241  19.781  34.301   2.118
71015ION    NA+36242  23.012  23.059  14.720
71016ION    NA+36243  23.481  10.918  12.996
71017ION    NA+36244   9.920  37.452   2.305
71018ION    NA+36245  34.652  38.699   2.981
71019ION    NA+36246  31.340  44.353   1.687
71020ION    NA+36247  22.549  18.790  13.795
71021ION    NA+36248  20.097  30.515   2.872
71022ION    NA+36249   5.454  12.266   2.784
71023ION    NA+36250  22.238  39.276   1.802
71024ION    NA+36251  10.015  38.028  12.259
71025ION    NA+36252  35.206  38.324   9.817
71026ION    NA+36253  10.110   2.329   2.873
71027ION    NA+36254  31.889   4.414   2.254
71028ION    NA+36255   4.898   7.799  11.461
71029ION    NA+36256  30.030  27.260   0.526
71030ION    NA+36257   5.388  28.226   9.587
71031ION    NA+36258  16.570  12.187   0.012
71032ION    NA+36259  15.072   7.507  12.474
71033ION    NA+36260   7.933  30.074   3.445
71034ION    NA+36261  34.749   7.210   4.149
71035ION    NA+36262  26.376  39.217  14.049
71036ION    NA+36263  29.046  32.629   1.767
71037ION    NA+36264  34.297   0.919   4.739
71038ION    NA+36265  15.082   2.057   4.585
71039ION    NA+36266  10.980  30.599   4.292
71040ION    NA+36267  30.513   7.407   0.366
71041ION    NA+36268  40.030  12.002   4.749
71042ION    NA+36269   8.104  32.592   1.765
71043ION    NA+36270  35.231  40.483   1.201
71044ION    NA+36271  14.118  19.682   4.607
71045ION    NA+36272  11.835  12.073  12.370
71046ION    NA+36273  25.526  23.974   0.503
71047ION    NA+36274  40.900  44.785  13.385
71048ION    NA+36275  42.771  32.674  12.446
71049ION    NA+36276  28.187  13.313   9.834
71050ION    NA+36277  17.819  32.119  11.468
71051ION    NA+36278   3.932  39.082   3.692
71052ION    NA+36279  15.325  18.005   2.868
71053ION    NA+36280  22.659  37.645   3.247
71054ION    NA+36281  27.234  17.099   0.160
71055ION    NA+36282  27.564  21.239   2.894
71056ION    NA+36283  31.679  38.136   1.220
71057ION    NA+36284  44.484  27.309   1.319
71058ION    NA+36285   3.002  11.254   1.556
71059ION    NA+36286  43.269  22.769   3.414
71060ION    NA+36287  10.013  23.761   2.733
71061ION    NA+36288  18.520   6.754  13.210
71062ION    NA+36289  12.894   3.576  12.132
71063ION    NA+36290   0.968  16.455   2.953
71064ION    NA+36291  27.194  30.469   2.154
71065ION    NA+36292  36.103  31.348   1.435
71066ION    NA+36293  40.871  37.111  10.615
71067ION    NA+36294  30.611   2.393   4.402
71068ION    NA+36295  35.958  27.871   0.468
71069ION    NA+36296   5.865  42.735   2.884
71070ION    NA+36297  14.287   4.442   1.642
71071ION    NA+36298  14.800  12.273   0.917
71072ION    NA+36299  14.208  20.620  12.543
71073ION    NA+36300  37.391   4.177  11.562
71074ION    NA+36301  42.298  25.582   0.152
71075ION    NA+36302  21.537  35.629   4.732
71076ION    NA+36303  24.884  36.946   3.023
71077ION    NA+36304  33.495   0.450  12.055
71078ION    NA+36305  27.562   8.788  12.670
71079ION    NA+36306  42.914   0.767   3.800
71080ION    NA+36307  35.321   7.628  13.984
71081ION    NA+36308   8.434  33.473   5.314
71082ION    NA+36309   1.805   0.855   1.125
71083ION    NA+36310   7.725  18.676  14.992
71084ION    NA+36311  10.705  44.859   2.623
71085ION    NA+36312  34.223  40.873   4.260
71086ION    NA+36313  29.202  13.339  12.679
71087ION    NA+36314  11.391  25.429   2.789
71088ION    NA+36315  28.020  37.028  12.202
71089ION    NA+36316  38.833  12.544   1.453
71090ION    NA+36317  36.265  30.026  14.066
71091ION    NA+36318  27.185  28.932  13.104
71092ION    NA+36319  29.508   2.691  13.545
71093ION    NA+36320  13.160   8.108  11.453
71094ION    NA+36321  24.761  10.001   0.440
71095ION    NA+36322  14.797  12.979   4.105
71096ION    NA+36323   6.723  21.839   0.619
71097ION    NA+36324  44.749   0.590  11.737
71098ION    NA+36325   1.526  25.048  11.738
71099ION    NA+36326  32.879  18.982  11.076
71100ION    NA+36327  20.226  26.501  11.690
71101ION    NA+36328   9.748  30.256   0.053
71102ION    NA+36329   5.192  22.399  11.067
71103ION    NA+36330   9.625  18.290   1.694
71104ION    NA+36331  23.476   0.227  11.162
71105ION    NA+36332  13.946  12.668   4.713
71106ION    NA+36333  35.698  33.659   0.853
71107ION    NA+36334  20.785  21.725   1.899
71108ION    NA+36335  43.579  22.386   5.241
71109ION    NA+36336   7.694  29.625  13.753
71110ION    NA+36337  35.687  15.372   4.154
71111ION    NA+36338  28.571  13.777  13.024
71112ION    NA+36339   5.785  20.802   4.313
71113ION    NA+36340  41.772  30.678  12.844
71114ION    NA+36341   5.758   6.929   2.215
71115ION    NA+36342   5.827  10.368   3.228
71116ION    NA+36343  32.678  40.050  14.751
71117ION    NA+36344   3.687   1.583  14.734
71118ION    NA+36345  26.546  14.683  11.220
71119ION    NA+36346  19.206  35.985  14.562
71120ION    NA+36347   3.001   1.916   0.774
71121ION    NA+36348  41.664   2.071  13.984
71122ION    NA+36349  22.240  19.228   2.156
71123ION    NA+36350   5.635  35.551  13.321
71124ION    NA+36351  18.833  28.726   2.744
71125ION    NA+36352  22.695  42.254   1.972
71126ION    NA+36353  43.218  11.207  14.597
71127ION    NA+36354  36.307   5.306  11.702
71128ION    NA+36355   4.329  44.060  12.012
71129ION    NA+36356  21.637  16.441   3.734
71130ION    NA+36357   4.292   2.432  14.432
71131ION    NA+36358   5.254  33.132   0.405
71132ION    NA+36359  17.197  24.001   2.022
71133ION    NA+36360  29.172   5.217  12.213
71134ION    NA+36361   7.574  15.392  13.617
71135ION    NA+36362  33.825  42.912  12.012
71136ION    NA+36363  18.938   9.352   3.846
71137ION    NA+36364  13.937  15.523   2.639
71138ION    NA+36365  30.633   9.218  13.570
71139ION    NA+36366  24.464  10.565   4.585
71140ION    NA+36367  31.930  13.433  14.125
71141ION    NA+36368  12.650  28.601  12.614
71142ION    NA+36369  24.878  40.112  13.457
71143ION    NA+36370  36.794  17.667  13.270
71144ION    NA+36371  27.049  25.873  10.595
71145ION    NA+36372  14.791  29.137   0.404
71146ION    NA+36373  19.640  26.546   2.706
71147ION    NA+36374  29.055  19.379  14.063
71148ION    NA+36375  37.995  42.263   3.277
71149ION    NA+36376  43.820  13.932   2.241
71150ION    NA+36377   9.720  10.885  11.591
71151ION    NA+36378  30.950  23.665   2.454
71152ION    NA+36379  11.682  28.239   1.271
71153ION    NA+36380  12.024  18.886  12.355
71154ION    NA+36381  16.386  27.564   4.063
71155ION    NA+36382   3.033  25.952  11.426
71156ION    NA+36383   1.987  19.371  10.619
71157ION    NA+36384  16.617  36.984   0.434
71158ION    NA+36385   0.553  24.085   5.419
71159ION    NA+36386  29.123   5.540   1.198
71160ION    NA+36387  12.648  15.206  13.039
71161ION    NA+36388  39.058  13.299  14.798
71162ION    NA+36389  14.524  23.747  12.066
71163ION    NA+36390   3.532  42.554  13.356
71164ION    NA+36391  39.215  30.261   3.443
71165ION    NA+36392  30.687  30.128   3.267
71166ION    NA+36393  43.951  30.343  11.677
71167ION    NA+36394  27.186  28.189  10.679
71168ION    NA+36395  30.721  16.334   4.714
71169ION    NA+36396   6.621  22.552  11.201
71170ION    NA+36397  32.696  28.611  11.093
71171ION    NA+36398   6.420  40.056  12.945
71172ION    NA+36399   3.349   5.787  12.947
71173ION    NA+36400  43.557  15.583   1.213
71174ION    NA+36401  30.542  44.452  11.150
71175ION    NA+36402   8.993  27.204   3.136
71176ION    NA+36403   2.317  10.745  12.364
71177ION    NA+36404  34.102   9.783   4.340
71178ION    NA+36405  39.779  30.040   0.654
71179ION    NA+36406  22.791  28.951   1.800
71180ION    NA+36407  43.137  16.138   4.547
71181ION    NA+36408   9.952  37.737  13.118
71182ION    NA+36409  18.382   7.698  10.659
71183ION    NA+36410  24.646  36.679  14.918
71184ION    NA+36411  28.026  27.478   0.383
71185ION    NA+36412   4.712   6.440   1.437
71186ION    NA+36413   0.927  44.954   0.599
71187ION    NA+36414  14.675  31.388  13.551
71188ION    NA+36415  44.029  43.887  11.395
71189ION    NA+36416   7.169   4.642  11.272
71190ION    NA+36417   5.748  44.082  10.348
71191ION    NA+36418  21.196  16.483   4.550
71192ION    NA+36419  35.961  26.797  14.127
71193ION    NA+36420  28.375   3.021  11.960
71194ION    NA+36421  19.958   0.025  14.913
71195ION    NA+36422  37.028   7.248   1.480
71196ION    NA+36423  13.168   4.676  10.953
71197ION    NA+36424  17.382   0.239  10.935
71198ION    NA+36425  14.585  13.044  14.778
71199ION    NA+36426  14.873  43.692  14.933
71200ION    NA+36427  13.346  14.744   2.346
71201ION    NA+36428  26.651  33.590  11.756
71202ION    NA+36429  17.653  21.241   0.573
71203ION    NA+36430  32.062  44.854   4.980
71204ION    NA+36431  41.192  11.094  11.182
71205ION    NA+36432  14.434  29.035   1.771
71206ION    NA+36433  43.931  10.774   3.345
71207ION    NA+36434   4.182  23.769   2.894
71208ION    NA+36435  10.249  26.526  13.660
71209ION    NA+36436  19.285  26.518  10.688
71210ION    NA+36437  25.709   6.910   4.068
71211ION    NA+36438  44.614   7.284   3.400
71212ION    NA+36439  21.365  15.238   0.880
71213ION    NA+36440  23.529  32.554  11.740
71214ION    NA+36441   5.362  34.360   2.117
71215ION    NA+36442  33.455   5.154  10.225
71216ION    NA+36443  43.309  28.484   4.729
71217ION    NA+36444  42.932  27.193   1.405
71218ION    NA+36445   1.253  34.507   2.435
71219ION    NA+36446   1.351  23.589   0.356
71220ION    NA+36447   7.829  22.563  13.441
71221ION    NA+36448  15.069  25.142   3.866
71222ION    NA+36449  35.680   4.248  11.592
71223ION    NA+36450  11.194   2.349  12.670
71224ION    NA+36451   1.709  19.221  13.905
71225ION    NA+36452   3.766  11.349  10.254
71226ION    NA+36453  17.179  24.703  14.379
71227ION    NA+36454  21.312  26.625  11.945
71228ION    NA+36455  34.692   2.418   2.017
71229ION    NA+36456   8.423  37.910   1.874
71230ION    NA+36457  20.752  22.933  13.989
71231ION    NA+36458  27.750   5.320   2.933
71232ION    NA+36459  15.063  31.350  14.471
71233ION    NA+36460  24.120  34.280  10.812
71234ION    NA+36461   8.429  13.405   1.230
71235ION    NA+36462  23.512  34.842   1.216
71236ION    NA+36463  18.209   5.869   2.896
71237ION    NA+36464  21.015   9.361  13.804
71238ION    NA+36465  18.631  34.207   0.410
71239ION    NA+36466  26.035  27.260  12.031
71240ION    NA+36467   2.928  14.777   3.087
71241ION    NA+36468  13.219  19.120   4.555
71242ION    NA+36469  24.416  35.813   5.357
71243ION    NA+36470  13.393  44.358  13.242
71244ION    NA+36471   5.439  16.917  11.259
71245ION    NA+36472  33.874  24.949  12.159
71246ION    NA+36473   2.469  17.448   0.334
71247ION    NA+36474  30.175  42.093   0.482
71248ION    NA+36475  44.776   1.785   3.831
71249ION    NA+36476  44.054  34.297   1.099
71250ION    NA+36477  28.062  39.902   0.468
71251ION    NA+36478  20.562  16.714  13.559
71252ION    NA+36479  44.231   5.705  11.661
71253ION    NA+36480   1.877  29.723  11.334
71254ION    NA+36481  41.215  29.861  12.994
71255ION    NA+36482  12.195   7.260   1.828
71256ION    NA+36483  18.996   0.749   2.154
71257ION    NA+36484   5.888  12.790   1.939
71258ION    NA+36485   9.872  42.257  12.844
71259ION    NA+36486  30.434  16.003   3.099
71260ION    NA+36487   8.795   0.915   1.372
71261ION    NA+36488  33.289  36.093  13.106
71262ION    NA+36489   7.846  10.492  11.815
71263ION    NA+36490   8.310   4.610   4.034
71264ION    NA+36491  23.021  14.067   4.432
71265ION    NA+36492  20.678   2.253   0.492
71266ION    NA+36493  36.299  18.998  13.035
71267ION    NA+36494   2.782  25.343  10.841
71268ION    NA+36495  39.765  33.978  11.791
71269ION    NA+36496  36.358  40.397   4.321
71270ION    NA+36497  23.221   3.728  14.950
71271ION    NA+36498  25.725  40.180   3.798
71272ION    NA+36499   2.243  42.333  12.666
71273ION    NA+36500  31.897   4.955  13.415
71274ION    NA+36501  42.865  44.575   1.837
71275ION    NA+36502  34.191  16.384   2.701
71276ION    NA+36503  23.808  11.593   4.725
71277ION    NA+36504  38.670  19.974   0.613
71278ION    NA+36505  28.580   7.206   3.437
71279ION    NA+36506   2.691   4.524  11.042
71280ION    NA+36507   8.143   9.686   3.890
71281ION    NA+36508  24.354  15.238   3.395
71282ION    NA+36509  14.296  40.430  13.230
71283ION    NA+36510  34.638  29.598   2.259
71284ION    NA+36511  22.294   2.727   2.428
71285ION    NA+36512   0.760  30.447   0.290
71286ION    NA+36513  22.674   8.632  13.014
71287ION    NA+36514  18.032  33.771  11.019
71288ION    NA+36515   5.893  44.407   4.172
71289ION    NA+36516   0.830  40.536  11.111
71290ION    NA+36517   1.533  10.507   1.294
71291ION    NA+36518   3.029   6.847   5.051
71292ION    NA+36519  24.185   0.060   3.257
71293ION    NA+36520  11.210   3.482   2.944
71294ION    NA+36521   5.675  11.663  13.225
71295ION    NA+36522  28.414  36.877  10.454
71296ION    NA+36523   2.703  42.941   3.662
71297ION    NA+36524   1.098  27.688   0.975
71298ION    NA+36525   0.104  44.191   4.625
71299ION    NA+36526  22.030  22.892  11.008
71300ION    NA+36527  18.773   6.993   9.788
71301ION    NA+36528  39.738  30.720  14.110
71302ION    NA+36529  12.520   8.792   2.687
71303ION    NA+36530  13.370   5.971  13.528
71304ION    NA+36531   8.034  34.268   5.240
71305ION    NA+36532  28.605  13.344  14.947
71306ION    NA+36533   1.232  43.112  11.780
71307ION    NA+36534   1.664  24.338   2.414
71308ION    NA+36535  42.047  39.569   3.067
71309ION    NA+36536   5.108  13.412   2.680
71310ION    NA+36537  30.639  29.686   4.462
71311ION    NA+36538  39.077  13.449   1.105
71312ION    NA+36539  39.424   9.664  10.746
71313ION    NA+36540  27.011  25.489  13.791
71314ION    NA+36541  11.268  16.687  10.435
71315ION    NA+36542  17.070  34.256  12.169
71316ION    NA+36543  34.995   0.488  11.051
71317ION    NA+36544  42.599  33.141   0.708
71318ION    NA+36545  43.094  25.158   4.761
71319ION    NA+36546  31.076  25.080   9.840
71320ION    NA+36547   1.710   1.720  12.441
71321ION    NA+36548  23.922  39.501  11.492
71322ION    NA+36549  34.645  30.206  10.929
71323ION    NA+36550  31.425   3.334   0.997
71324ION    NA+36551  34.173   9.718   1.871
71325ION    NA+36552  38.055  10.223  12.801
71326ION    NA+36553  44.885  40.521  12.941
71327ION    NA+36554   7.517  32.071  10.773
71328ION    NA+36555  27.566  35.241   0.097
71329ION    NA+36556  13.166  16.202   4.996
71330ION    NA+36557  31.350  37.304  14.452
71331ION    NA+36558  39.488  20.837  10.348
71332ION    NA+36559   2.404   9.605   5.066
71333ION    NA+36560   5.150  14.888  10.759
71334ION    NA+36561  10.736  28.150  12.233
71335ION    NA+36562  21.301  15.738   3.068
71336ION    NA+36563  18.476  21.565  10.755
71337ION    NA+36564  13.235  27.536   2.759
71338ION    NA+36565   3.437   6.296   2.682
71339ION    NA+36566  21.770  33.456  13.535
71340ION    NA+36567  13.293  13.011  10.268
71341ION    NA+36568  23.116  22.303   1.508
71342ION    NA+36569  40.331   8.192  14.030
71343ION    NA+36570  41.491  35.452   3.094
71344ION    NA+36571  28.719  23.038  14.600
71345ION    NA+36572  36.659   1.295   1.179
71346ION    NA+36573  28.304  39.979   3.205
71347ION    NA+36574  14.580  42.740   1.962
71348ION    NA+36575   7.761  25.547  13.481
71349ION    NA+36576  35.037  19.454   5.008
71350ION    NA+36577  29.929  12.238  12.185
71351ION    NA+36578  16.694  23.029  11.770
71352ION    NA+36579  33.685  35.845  12.222
71353ION    NA+36580  27.209  16.827   0.981
71354ION    NA+36581  36.193  37.535   1.839
71355ION    NA+36582   9.259  15.927   2.891
71356ION    NA+36583  27.033  29.128   4.654
71357ION    NA+36584   6.723  17.705   0.241
71358ION    NA+36585   7.036  11.568   4.455
71359ION    NA+36586  29.627  11.281   0.726
71360ION    NA+36587  13.060  34.000  12.004
71361ION    NA+36588  34.573   6.269  12.519
71362ION    NA+36589  17.703  17.598   3.435
71363ION    NA+36590  14.586  36.695   1.912
71364ION    NA+36591  32.389  32.643   1.741
71365ION    NA+36592   1.316   9.427  13.425
71366ION    NA+36593  28.075  26.583  10.611
71367ION    NA+36594  33.100  25.272   4.201
71368ION    NA+36595  12.542  43.448   3.602
71369ION    NA+36596  20.789  33.152   3.380
71370ION    NA+36597  31.115  22.061  12.739
71371ION    NA+36598  29.122  14.273   3.722
71372ION    NA+36599  37.032  21.347   1.445
71373ION    NA+36600  34.382  37.311  12.999
71374ION    NA+36601   3.329   5.292   3.844
71375ION    NA+36602  29.853   0.977  12.195
71376ION    NA+36603  35.629  36.630  14.144
71377ION    NA+36604  27.216  21.501  14.336
71378ION    NA+36605   2.853   5.007  13.331
71379ION    NA+36606   9.556   3.046  10.367
71380ION    NA+36607  16.995   5.157   0.385
71381ION    NA+36608  15.875  38.741   0.605
71382ION    NA+36609  21.297  12.011  12.710
71383ION    NA+36610  16.389  11.909   2.501
71384ION    NA+36611   9.347  21.207  14.457
71385ION    NA+36612   8.286  28.248   3.519
71386ION    NA+36613  43.223  39.445  14.501
71387ION    NA+36614  19.030  18.459   3.558
71388ION    NA+36615   0.024   1.553  14.442
71389ION    NA+36616  44.607  23.720   4.466
71390ION    NA+36617   9.263  25.745  11.627
71391ION    NA+36618  29.994   6.948   3.507
71392ION    NA+36619  39.785  33.592  13.353
71393ION    NA+36620  20.065   5.918   1.654
71394ION    NA+36621  13.449   4.812  12.462
71395ION    NA+36622   8.580  34.754  11.850
71396ION    NA+36623  18.185  24.129   0.580
71397ION    NA+36624  39.544   7.164  12.984
71398ION    NA+36625  36.626  40.032  12.797
71399ION    NA+36626  18.809   5.232  10.651
71400ION    NA+36627  41.973  25.046   3.976
71401ION    NA+36628  33.591  14.920  11.966
71402ION    NA+36629   6.276  31.886  14.889
71403ION    NA+36630  28.929  16.061   3.218
71404ION    NA+36631  15.314  11.442  13.874
71405ION    NA+36632  17.817  25.208   3.734
71406ION    NA+36633  40.508  23.216  14.376
71407ION    NA+36634  17.526  42.129  13.080
71408ION    NA+36635  40.447   3.646   0.772
71409ION    NA+36636  35.921  33.841  12.020
71410ION    NA+36637  22.063  43.998  13.934
71411ION    NA+36638  20.728  21.475   0.464
71412ION    NA+36639   3.432  30.661   2.020
71413ION    NA+36640  33.163  11.676   2.765
71414ION    NA+36641  16.128  40.222   2.837
71415ION    NA+36642  14.280  10.798  14.864
71416ION    NA+36643  30.030  23.973   3.897
71417ION    NA+36644  15.261  12.197   3.689
71418ION    NA+36645   6.578   5.633  10.632
71419ION    NA+36646  28.603  33.092  10.677
71420ION    NA+36647  17.059  22.265  13.496
71421ION    NA+36648  12.628   6.040  12.868
71422ION    NA+36649  28.631  16.591  14.930
71423ION    NA+36650  20.206  42.464   1.148
71424ION    NA+36651   1.267  23.614   1.770
71425ION    NA+36652  35.019   2.399  10.713
71426ION    NA+36653  26.769  43.361  14.699
71427ION    NA+36654  20.848  34.884  13.719
71428ION    NA+36655  13.239  28.700  13.468
71429ION    NA+36656  17.320   3.204  10.776
71430ION    NA+36657  31.693   3.337  12.406
71431ION    NA+36658   0.364  41.322   3.067
71432ION    NA+36659  28.247  14.602   2.054
71433ION    NA+36660  12.270  13.789  13.002
71434ION    NA+36661  11.641  22.504  13.295
71435ION    NA+36662  10.871  17.258  11.154
71436ION    NA+36663  21.079  14.020  13.841
71437ION    NA+36664  11.772  12.808   3.184
71438ION    NA+36665   2.325  28.858  13.479
71439ION    NA+36666  21.890  21.954  13.724
71440ION    NA+36667   0.397  33.364  11.173
71441ION    NA+36668   5.968   3.527  13.831
71442ION    NA+36669  14.238  20.541   3.626
71443ION    NA+36670  12.813  20.813  11.522
71444ION    NA+36671  43.026   9.125  13.416
71445ION    NA+36672  44.877  22.607  13.797
71446ION    NA+36673  23.245  23.032  10.736
71447ION    NA+36674  29.951  16.313  14.483
71448ION    NA+36675  20.326  31.386  11.450
71449ION    NA+36676  40.532  23.517   3.216
71450ION    NA+36677  38.590  32.693  13.374
71451ION    NA+36678  14.786  39.801  12.802
71452ION    NA+36679  26.781   5.866  11.372
71453ION    NA+36680  21.426  21.057   1.520
71454ION    NA+36681   0.214  27.823   0.869
71455ION    NA+36682  39.884  32.262   3.276
71456ION    NA+36683  40.476  18.863  11.267
71457ION    NA+36684  41.709  10.897   3.962
71458ION    NA+36685  27.883  10.632   1.203
71459ION    NA+36686  33.693  29.521   4.430
71460ION    NA+36687  21.844  23.906   5.377
71461ION    NA+36688  42.237  21.772  12.116
71462ION    NA+36689  20.367  15.387   2.258
71463ION    NA+36690   3.195  36.622  14.009
71464ION    NA+36691  43.691   1.970   2.462
71465ION    NA+36692  13.659  10.934  13.282
71466ION    NA+36693  36.702  19.742   3.078
71467ION    NA+36694   9.467  26.211   0.293
71468ION    NA+36695  10.639  41.602  14.426
71469ION    NA+36696  43.009  14.822  11.570
71470ION    NA+36697  12.418  27.945   0.660
71471ION    NA+36698  38.785  20.858  13.024
71472ION    NA+36699   7.250   6.119   1.956
71473ION    NA+36700  34.096  34.534   0.761
71474ION    NA+36701  14.277  37.670  10.064
71475ION    NA+36702   8.076  36.560  13.869
71476ION    NA+36703  33.029  29.771  12.510
71477ION    NA+36704  24.401  13.619  13.625
71478ION    NA+36705  12.874  25.127   2.884
71479ION    NA+36706   0.764   1.614  12.751
71480ION    NA+36707  12.598  30.199   1.784
71481ION    NA+36708  16.582  35.124  10.801
71482ION    NA+36709  18.291   8.447  11.315
71483ION    NA+36710  40.481  24.318   2.248
71484ION    NA+36711  41.426  26.577   0.964
71485ION    NA+36712  36.839  21.054   0.598
71486ION    NA+36713  32.899   5.549  13.832
71487ION    NA+36714  28.364  24.453  12.551
71488ION    NA+36715   2.013  38.421   1.666
71489ION    NA+36716   9.000  13.539   0.437
71490ION    NA+36717   5.957  33.298   2.363
71491ION    NA+36718  33.329  44.936   3.409
71492ION    NA+36719  40.843  11.701   4.294
71493ION    NA+36720  31.068   0.084  13.564
71494ION    NA+36721  44.402  29.095  12.893
71495ION    NA+36722  38.658  37.120   3.266
71496ION    NA+36723  26.362  33.677  10.388
71497ION    NA+36724  23.085  29.106   3.378
71498ION    NA+36725   9.009  19.191  13.988
71499ION    NA+36726  14.752  15.800  14.400
71500ION    NA+36727  37.103  36.647  11.039
71501ION    NA+36728  16.006  17.751  12.867
71502ION    NA+36729  23.985   4.240   3.602
71503ION    NA+36730  14.035  13.665  14.818
71504ION    NA+36731  15.054   9.131  14.921
71505ION    NA+36732  12.110  19.722   3.276
71506ION    NA+36733  44.719   3.392   2.118
71507ION    NA+36734   9.336   0.191   1.602
71508ION    NA+36735  24.344   7.664  14.613
71509ION    NA+36736  10.800  41.841   1.847
71510ION    NA+36737  28.956  18.507   4.614
71511ION    NA+36738   8.977  22.608  10.817
71512ION    NA+36739  26.741  32.047   1.690
71513ION    NA+36740   7.076   7.979   2.778
71514ION    NA+36741  15.025  33.372  14.536
71515ION    NA+36742   4.256  27.678  14.271
71516ION    NA+36743  31.627  41.946  10.758
71517ION    NA+36744  29.237  11.866  11.734
71518ION    NA+36745  38.035  35.551   4.464
71519ION    NA+36746   7.852  11.604   4.881
71520ION    NA+36747   8.146  20.245  14.434
71521ION    NA+36748  11.847   3.090  11.542
71522ION    NA+36749  14.654  40.989  10.664
71523ION    NA+36750  10.877  20.776   0.148
71524ION    NA+36751  31.462   5.834   0.736
71525ION    NA+36752   6.182  32.670   3.108
71526ION    NA+36753  34.359  18.387  13.966
71527ION    NA+36754   8.441  22.850  11.626
71528ION    NA+36755  34.360  37.694  14.931
71529ION    NA+36756  38.966   8.293  11.484
71530ION    NA+36757   2.836  41.111  10.873
71531ION    NA+36758  22.640  24.599  12.783
71532ION    NA+36759   6.235  12.396  11.339
71533ION    NA+36760  36.608  28.235  10.762
71534ION    NA+36761   4.902  41.290   4.261
71535ION    NA+36762  27.767  12.427  10.227
71536ION    NA+36763  27.449  39.972   2.686
71537ION    NA+36764  40.833  38.368   2.821
71538ION    NA+36765  40.366   3.721  11.175
71539ION    NA+36766  20.910  10.179  14.370
71540ION    NA+36767   5.033  38.485  11.677
71541ION    NA+36768  42.478  13.476  13.571
71542ION    NA+36769  28.097  32.869  14.547
71543ION    NA+36770  10.995  16.255   2.086
71544ION    NA+36771   4.312  43.829  12.985
71545ION    NA+36772  30.648  17.339  11.378
71546ION    NA+36773   9.842   8.803   1.302
71547ION    NA+36774  30.257  39.343   3.949
71548ION    NA+36775  36.341   6.778   4.631
71549ION    NA+36776   3.798  17.115   4.254
71550ION    NA+36777  23.174  19.279  13.350
71551ION    NA+36778  31.018  16.446  11.634
71552ION    NA+36779   4.639   0.318   0.772
71553ION    NA+36780   3.252  21.280  10.729
71554ION    NA+36781   2.891  14.875  13.058
71555ION    NA+36782  42.587  28.283   2.540
71556ION    NA+36783  20.696  29.986   4.745
71557ION    NA+36784  28.573  14.321  13.932
71558ION    NA+36785  13.379  22.369   0.533
71559ION    NA+36786  14.297  13.402   0.585
71560ION    NA+36787  31.263   8.650   4.126
71561ION    NA+36788  40.260   9.877   4.003
71562ION    NA+36789  35.590  44.533  11.145
71563ION    NA+36790   2.002  31.479  13.981
71564ION    NA+36791   1.337   8.520  11.062
71565ION    NA+36792  21.954   9.100   4.663
71566ION    NA+36793  23.533  18.634   0.554
71567ION    NA+36794   2.404  39.800  13.118
71568ION    NA+36795  30.451  37.099  14.010
71569ION    NA+36796  29.685   2.179   2.925
71570ION    NA+36797  44.987  27.226   2.928
71571ION    NA+36798  31.985  42.223   1.149
71572ION    NA+36799  18.883  31.877   1.501
71573ION    NA+36800  43.198  28.714  10.144
71574ION    NA+36801  11.627  18.481   4.493
71575ION    NA+36802  31.667  10.543   4.585
71576ION    NA+36803  12.347   4.465  13.625
71577ION    NA+36804  27.259  26.465   2.877
71578ION    NA+36805  18.290  25.328   2.976
71579ION    NA+36806  35.663   1.158   0.680
71580ION    NA+36807  43.063  32.002  11.155
71581ION    NA+36808   5.953  10.640  10.071
71582ION    NA+36809  23.801  44.846  14.610
71583ION    NA+36810  14.869  13.694  11.609
71584ION    NA+36811  33.549   2.208  13.962
71585ION    NA+36812  26.253  23.889  12.109
71586ION    NA+36813  40.027  29.869  14.654
71587ION    NA+36814  21.308  17.734   1.867
71588ION    NA+36815  38.581  11.023  13.089
71589ION    NA+36816   3.291  26.483   2.748
71590ION    NA+36817   9.157   5.354   0.054
71591ION    NA+36818  34.918  39.464   1.656
71592ION    NA+36819  18.722  39.775   4.925
71593ION    NA+36820  44.201  31.974   2.440
71594ION    NA+36821  21.739   3.735   0.262
71595ION    NA+36822  12.220  23.923   1.408
71596ION    NA+36823  25.446  13.148   4.225
71597ION    NA+36824  43.394  13.092   0.567
71598ION    NA+36825   8.608  19.992  10.835
71599ION    NA+36826  12.238  34.950   2.354
71600ION    NA+36827   7.312  34.486   0.061
71601ION    NA+36828  44.350  38.246  13.157
71602ION    NA+36829   6.718  43.979   1.206
71603ION    NA+36830  21.980  27.682   0.258
71604ION    NA+36831  42.000  14.060   3.560
71605ION    NA+36832   0.393  36.342  14.925
71606ION    NA+36833  10.396  34.864   3.667
71607ION    NA+36834  15.319  44.114  11.896
71608ION    NA+36835  34.475  39.034   2.472
71609ION    NA+36836  35.321  17.661   1.089
71610ION    NA+36837   1.574  15.425   4.267
71611ION    NA+36838  21.054  41.144   0.836
71612ION    NA+36839  42.117   2.539  12.009
71613ION    NA+36840  14.104  29.592   3.794
71614ION    NA+36841  38.974  21.809  12.776
71615ION    NA+36842  36.229  22.971  13.550
71616ION    NA+36843  22.538  26.678   0.930
71617ION    NA+36844  23.602  34.613   2.210
71618ION    NA+36845  28.878  19.040  11.605
71619ION    NA+36846   2.533  31.735   0.963
71620ION    NA+36847  39.875  24.769  14.837
71621ION    NA+36848   3.675  25.528  14.104
71622ION    NA+36849   9.943   5.405   3.893
71623ION    NA+36850  27.822  19.499   4.651
71624ION    NA+36851  35.468  26.329   0.762
71625ION    NA+36852  18.689  17.817   3.015
71626ION    NA+36853  43.090  17.621  12.752
71627ION    NA+36854  20.206  25.657  13.511
71628ION    NA+36855  10.104  17.970   2.526
71629ION    NA+36856  43.073  17.529   5.063
71630ION    NA+36857  36.865   8.563  14.696
71631ION    NA+36858  28.189  38.587  13.284
71632ION    NA+36859  21.819   9.895  14.066
71633ION    NA+36860   5.061  44.835  12.317
71634ION    NA+36861   9.962  41.110  13.712
71635ION    NA+36862  38.549  43.413  13.347
71636ION    NA+36863  28.672  25.961  14.925
71637ION    NA+36864   6.264  29.955   0.933
71638ION    NA+36865  20.295  14.216  11.269
71639ION    NA+36866  33.686  29.996  13.241
71640ION    NA+36867  17.500  18.721  12.468
71641ION    NA+36868   5.276   0.808   1.366
71642ION    NA+36869  35.652  17.265   0.232
71643ION    NA+36870   8.201  32.868  13.945
71644ION    NA+36871  13.877  23.189   3.908
71645ION    NA+36872  24.176  36.561  13.047
71646ION    NA+36873  25.238  19.082   1.806
71647ION    NA+36874   8.847   3.737  14.048
71648ION    NA+36875  26.758   3.424   0.848
71649ION    NA+36876   7.899  21.102   9.827
71650ION    NA+36877   8.448  44.219  14.076
71651ION    NA+36878  18.557  44.774   1.755
71652ION    NA+36879  27.072   5.804  12.226
71653ION    NA+36880  16.257  39.362   4.101
71654ION    NA+36881   7.510  28.515   1.919
71655ION    NA+36882   9.421   9.794  13.206
71656ION    NA+36883  14.185  16.844  14.071
71657ION    NA+36884  32.768  22.241   4.515
71658ION    NA+36885  33.515  17.988   3.222
71659ION    NA+36886  20.619  41.590   4.150
71660ION    NA+36887  27.490  38.094   4.081
71661ION    NA+36888  16.624  42.538  12.943
71662ION    NA+36889  17.542   9.531  11.762
71663ION    NA+36890  39.278   6.698   1.015
71664ION    NA+36891  14.267  21.557  13.517
71665ION    NA+36892  13.364   0.893   2.694
71666ION    NA+36893   7.400   7.185  11.055
71667ION    NA+36894  19.106  14.082   0.741
71668ION    NA+36895  28.950   5.819  11.382
71669ION    NA+36896  18.761  44.962   2.725
71670ION    NA+36897  20.713  21.799   2.894
71671ION    NA+36898  44.803  22.767   4.233
71672ION    NA+36899  26.416  15.315  13.852
71673ION    NA+36900  24.458  39.115  13.640
71674ION    NA+36901  36.554  14.386   3.264
71675ION    NA+36902  22.916  36.479  14.444
71676ION    NA+36903  11.341  11.293   4.045
71677ION    NA+36904   9.981   5.197  14.283
71678ION    NA+36905  36.051   0.996  10.793
71679ION    NA+36906   2.659  39.376   3.994
71680ION    NA+36907   1.226  11.074   4.197
71681ION    NA+36908  42.001   1.910  13.036
71682ION    NA+36909   9.395   1.790  12.708
71683ION    NA+36910  12.558   1.792  14.723
71684ION    NA+36911  32.094   2.886   1.132
71685ION    NA+36912  41.733  10.160  13.663
71686ION    NA+36913  21.762   9.399   1.426
71687ION    NA+36914   7.322  40.358  13.255
71688ION    NA+36915   6.637   5.675   3.445
71689ION    NA+36916   5.890   1.823   1.816
71690ION    NA+36917  16.320  28.427  13.747
71691ION    NA+36918   7.313  39.544   1.609
71692ION    NA+36919  32.435  10.262   4.262
71693ION    NA+36920   9.107   2.117  13.520
71694ION    NA+36921  39.038  43.494  11.291
71695ION    NA+36922  18.947  33.677  11.119
71696ION    NA+36923  18.686  18.931   4.619
71697ION    NA+36924  34.594  16.248  14.914
71698ION    NA+36925  17.500  12.509  13.332
71699ION    NA+36926  44.295  28.231   0.925
71700ION    NA+36927  11.880  43.841   1.614
71701ION    NA+36928   1.642   9.842   4.113
71702ION    NA+36929  22.644  44.985   1.057
71703ION    NA+36930  31.472  31.912   1.483
71704ION    NA+36931  26.148  33.347  12.586
71705ION    NA+36932  30.951  12.351   3.181
71706ION    NA+36933  14.638  21.908  14.955
71707ION    NA+36934   5.980   4.755  14.937
71708ION    NA+36935  41.208  22.612   4.145
71709ION    NA+36936  10.250  35.352  14.326
71710ION    NA+36937  44.489  25.332  13.494
71711ION    NA+36938   9.835  42.048  14.034
71712ION    NA+36939  42.600  15.403   2.628
71713ION    NA+36940  34.985  37.476   2.837
71714ION    NA+36941  32.318   4.403   3.660
71715ION    NA+36942   5.166  12.351   4.320
71716ION    NA+36943  36.508   5.274   1.415
71717ION    NA+36944  25.145  41.047   3.730
71718ION    NA+36945  13.041   9.461   4.895
71719ION    NA+36946  35.687   8.718  10.824
71720ION    NA+36947  20.325   3.484  13.077
71721ION    NA+36948   7.372   5.269   1.443
71722ION    NA+36949  33.493  30.908  10.791
71723ION    NA+36950  31.258  35.260  14.343
71724ION    NA+36951  21.558   9.275  11.463
71725ION    NA+36952  42.548  22.374  12.684
71726ION    NA+36953  25.398   5.743  10.865
71727ION    NA+36954  29.712  28.883  10.839
71728ION    NA+36955  27.457   1.464   2.868
71729ION    NA+36956  10.580  40.949   2.458
71730ION    NA+36957  26.097  18.911  12.953
71731ION    NA+36958  17.362  20.152   4.671
71732ION    NA+36959  42.048  33.497  10.559
71733ION    NA+36960   7.932  44.187  11.626
71734ION    NA+36961  33.731  26.956   4.294
71735ION    NA+36962   2.280  26.536   0.274
71736ION    NA+36963  29.556   2.502   0.705
71737ION    NA+36964   7.917  25.910   1.899
71738ION    NA+36965  17.268   8.994  10.148
71739ION    NA+36966  34.384  25.094  14.421
71740ION    NA+36967  38.788   0.600   2.564
71741ION    NA+36968  27.175  42.541  14.807
71742ION    NA+36969  36.246  42.902  10.049
71743ION    NA+36970  10.066   4.177   1.679
71744ION    NA+36971   2.615  35.996   2.994
71745ION    NA+36972   0.094  10.064  11.287
71746ION    NA+36973  36.503   6.013  14.307
71747ION    NA+36974  37.003  34.068  10.750
71748ION    NA+36975   0.483   0.872   3.220
71749ION    NA+36976  26.948  24.155  14.533
71750ION    NA+36977  17.954  34.047  12.207
71751ION    NA+36978  33.887   6.646   4.637
71752ION    NA+36979   8.355  30.578   2.354
71753ION    NA+36980  33.242  21.467   3.386
71754ION    NA+36981  26.597   4.398  14.355
71755ION    NA+36982  32.756  26.888  14.525
71756ION    NA+36983   6.354  27.575  14.790
71757ION    NA+36984  37.170  25.732   3.199
71758ION    NA+36985  39.951  31.213   1.948
71759ION    NA+36986  37.494  27.745  12.915
71760ION    NA+36987  10.615   1.376   1.893
71761ION    NA+36988  32.498  16.547  12.360
71762ION    NA+36989  30.013  10.933  14.871
71763ION    NA+36990  42.605   7.739   2.231
71764ION    NA+36991  27.139   7.425  11.451
71765ION    NA+36992  29.496  26.621  14.541
71766ION    NA+36993  32.332  24.498   1.328
71767ION    NA+36994  28.398  44.851   2.464
71768ION    NA+36995  42.247  12.539  13.908
71769ION    NA+36996  32.578  22.440  10.282
71770ION    NA+36997  29.719  35.785  12.395
71771ION    NA+36998  17.573  15.382   2.415
71772ION    NA+36999  24.667  22.411  14.418
71773ION    NA+37000  21.719  35.593  14.205
71774ION    NA+37001  31.442  20.503   3.865
71775ION    NA+37002  39.364   5.649   4.885
71776ION    NA+37003  33.929  44.972   0.596
71777ION    NA+37004  11.662  18.742  11.414
71778ION    NA+37005  25.534  41.164   4.644
71779ION    NA+37006  42.520  28.417  12.028
71780ION    NA+37007   0.485   4.948  11.178
71781ION    NA+37008  33.663  22.092  12.403
71782ION    NA+37009  13.263  37.865   4.041
71783ION    NA+37010  35.898  21.085  14.929
71784ION    NA+37011  43.271  15.681  11.757
71785ION    NA+37012  31.454   2.645   0.403
71786ION    NA+37013  16.132  28.512   1.459
71787ION    NA+37014  25.020   2.119  14.833
71788ION    NA+37015  14.088  38.884   2.837
71789ION    NA+37016  34.925  23.798  13.899
71790ION    NA+37017  36.032  10.355  12.030
71791ION    NA+37018  41.158  28.061   5.084
71792ION    NA+37019   4.890  29.899  12.649
71793ION    NA+37020  10.214  10.452   2.965
71794ION    NA+37021   6.724  41.140  14.392
71795ION    NA+37022  13.026  29.348   1.482
71796ION    NA+37023   7.373  19.233   1.659
71797ION    NA+37024   0.009  41.238  11.231
71798ION    NA+37025  26.145  18.570   1.355
71799ION    NA+37026  23.087  16.239  12.204
71800ION    NA+37027  42.189  38.747  13.874
71801ION    NA+37028  33.325  27.134   0.136
71802ION    NA+37029  18.147  19.259  11.528
71803ION    NA+37030  44.201  43.485   1.141
71804ION    NA+37031  20.653  41.970   1.782
71805ION    NA+37032  14.817  15.123   1.194
71806ION    NA+37033  15.806  40.542  10.830
71807ION    NA+37034  21.192   1.312   3.362
71808ION    NA+37035  31.377  24.641  14.299
71809ION    NA+37036  13.834  40.348  14.120
71810ION    NA+37037  18.046  14.519   1.406
71811ION    NA+37038   8.657   6.370   1.254
71812ION    NA+37039  43.461  30.668   5.372
71813ION    NA+37040   5.190  26.915  10.302
71814ION    NA+37041  32.419  30.655   5.261
71815ION    NA+37042  40.292   1.238   2.735
71816ION    NA+37043  20.701  12.215  14.154
71817ION    NA+37044  16.419  27.252   1.750
71818ION    NA+37045   9.433   0.664  11.337
71819ION    NA+37046   0.931  27.212  12.586
71820ION    NA+37047  12.395  32.142   1.235
71821ION    NA+37048  41.072  34.371   4.109
71822ION    NA+37049   2.358  18.514   9.833
71823ION    NA+37050   0.879   1.651   9.662
71824ION    NA+37051   3.030  42.555   2.729
71825ION    NA+37052  25.546  20.033  14.011
71826ION    NA+37053  40.933  17.956  13.355
71827ION    NA+37054  12.491  10.867   1.593
71828ION    NA+37055   8.333  26.570   2.365
71829ION    NA+37056  24.859  20.671   3.878
71830ION    NA+37057  13.026  26.512   0.746
71831ION    NA+37058   8.737  37.416   1.063
71832ION    NA+37059  40.276  12.229  13.633
71833ION    NA+37060  34.880   8.444  11.359
71834ION    NA+37061  43.150  42.178   0.897
71835ION    NA+37062  14.190  44.405  14.059
71836ION    NA+37063  12.580  16.185   3.986
71837ION    NA+37064   6.447  40.098   4.182
71838ION    NA+37065   5.687  32.293  11.964
71839ION    NA+37066  29.766  24.257   4.659
71840ION    NA+37067  14.808   6.363   1.276
71841ION    NA+37068  40.503  20.749  13.165
71842ION    NA+37069  31.086  30.190   1.479
71843ION    NA+37070   1.746   8.133  12.544
71844ION    NA+37071  36.245  40.363   3.271
71845ION    NA+37072  34.418   7.251  14.193
71846ION    NA+37073  35.050  21.086  12.638
71847ION    NA+37074  42.719  30.985  12.941
71848ION    NA+37075  36.020   9.170   1.299
71849ION    NA+37076  30.472  19.248   1.315
71850ION    NA+37077  13.616  22.849   4.964
71851ION    NA+37078  14.336  11.412  14.077
71852ION    NA+37079   2.754  40.299   1.259
71853ION    NA+37080  13.066  40.779   4.073
71854ION    NA+37081  41.258   9.744  11.963
71855ION    NA+37082   3.044  15.535  12.328
71856ION    NA+37083  24.100  34.529   3.354
71857ION    NA+37084  40.525  40.405   0.517
71858ION    NA+37085  10.302  12.201  10.663
71859ION    NA+37086  33.554  32.320   3.238
71860ION    NA+37087   7.177   1.978   2.685
71861ION    NA+37088  44.974  30.725   9.998
71862ION    NA+37089  35.189   8.127   0.456
71863ION    NA+37090  14.376  19.758  10.768
71864ION    NA+37091  37.742  30.580   3.189
71865ION    NA+37092  38.197   7.404  12.180
71866ION    NA+37093  11.455  33.486  13.337
71867ION    NA+37094  25.713  42.095   2.510
71868ION    NA+37095  29.744  29.600  13.283
71869ION    NA+37096  25.572  24.744  12.120
71870ION    NA+37097  20.080  40.350   2.703
71871ION    NA+37098  14.863  23.563   3.800
71872ION    NA+37099  38.925   6.093  12.549
71873ION    NA+37100  30.823  21.737   1.961
71874ION    NA+37101  36.201  18.191  11.294
71875ION    NA+37102   2.633  43.144  13.367
71876ION    NA+37103  20.644   7.381  10.874
71877ION    NA+37104   2.274   8.110   4.146
71878ION    NA+37105  26.839  14.685  14.364
71879ION    NA+37106   2.873  16.040   0.394
71880ION    NA+37107  30.374   2.391   1.269
71881ION    NA+37108  31.137  16.679   2.324
71882ION    NA+37109  26.487  30.420   0.471
71883ION    NA+37110   9.349  11.655  13.070
71884ION    NA+37111   2.052  13.725   4.962
71885ION    NA+37112  38.660  10.754   4.498
71886ION    NA+37113  14.766  32.777  10.864
71887ION    NA+37114  24.556  37.823  14.328
71888ION    NA+37115  12.146   3.253   4.689
71889ION    NA+37116  33.495  20.963   2.561
71890ION    NA+37117   2.454  43.706   2.528
71891ION    NA+37118   9.096  23.598   2.368
71892ION    NA+37119  38.454  30.132   0.660
71893ION    NA+37120   4.439  42.783  12.607
71894ION    NA+37121  35.582  37.591   0.474
71895ION    NA+37122  43.329  43.019  11.815
71896ION    NA+37123  39.092   6.808  11.804
71897ION    NA+37124  38.987   0.384  14.290
71898ION    NA+37125  15.897  43.867   3.839
71899ION    NA+37126  33.478  13.624  11.797
71900ION    NA+37127  11.220  39.860   2.764
71901ION    NA+37128   9.914   3.865  11.232
71902ION    NA+37129   0.268  33.896   2.974
71903ION    NA+37130  17.841  26.506   2.564
71904ION    NA+37131  14.845  22.801  12.332
71905ION    NA+37132  35.992  40.104  10.150
71906ION    NA+37133  31.210  25.959   1.069
71907ION    NA+37134  19.891  33.900   1.208
71908ION    NA+37135  33.592  38.262  11.675
71909ION    NA+37136  12.769  24.640   0.511
71910ION    NA+37137  36.704  34.494  12.984
71911ION    NA+37138   6.672   1.242  13.461
71912ION    NA+37139  34.540  38.195  14.206
71913ION    NA+37140  32.375  10.300  12.466
71914ION    NA+37141   5.704  35.203   2.141
71915ION    NA+37142  11.506  10.706   1.656
71916ION    NA+37143  42.586  11.736   2.070
71917ION    NA+37144  34.587  44.043   1.827
71918ION    NA+37145  12.400  40.308  14.662
71919ION    NA+37146   4.325  43.020   2.928
71920ION    NA+37147   7.139  32.248   0.240
71921ION    NA+37148  43.286   6.705   2.695
71922ION    NA+37149  22.483  27.237  14.642
71923ION    NA+37150  31.551  34.412   9.963
71924ION    NA+37151  26.199  36.214  13.244
71925ION    NA+37152  37.551  20.381   3.215
71926ION    NA+37153  38.309  34.050  12.225
71927ION    NA+37154   4.298  39.893  13.138
71928ION    NA+37155  27.000   2.195   9.710
71929ION    NA+37156  26.559  28.175  12.919
71930ION    NA+37157  14.800   3.540  13.865
71931ION    NA+37158  38.934   9.529   1.027
71932ION    NA+37159  12.923  21.487   1.567
71933ION    NA+37160  38.178   1.676   9.479
71934ION    NA+37161  17.911  13.474  13.693
71935ION    NA+37162   6.078  13.305  11.322
71936ION    NA+37163  10.953   5.685  11.779
71937ION    NA+37164  41.829  12.662  12.089
71938ION    NA+37165  36.359  36.039  10.762
71939ION    NA+37166  21.926  44.142  12.522
71940ION    NA+37167   0.991  42.068  11.435
71941ION    NA+37168  43.309   8.818   0.307
71942ION    NA+37169   8.116   6.824  12.980
71943ION    NA+37170   1.420  38.531  13.570
71944ION    NA+37171  35.860   6.716   3.721
71945ION    NA+37172   3.008   2.202   2.869
71946ION    NA+37173   7.038   9.257   2.440
71947ION    NA+37174  21.349   6.130  12.530
71948ION    NA+37175  25.370  33.093   1.752
71949ION    NA+37176  11.076  27.397   1.077
71950ION    NA+37177  42.980  36.571   3.250
71951ION    NA+37178   6.307  36.961   4.465
71952ION    NA+37179  44.881  26.271  11.508
71953ION    NA+37180  31.670  27.758   3.037
71954ION    NA+37181   2.055   8.648   1.504
71955ION    NA+37182   8.863  31.927   2.030
71956ION    NA+37183  42.801  20.292  10.311
71957ION    NA+37184  35.746  42.458   2.586
71958ION    NA+37185   9.114  42.241   0.016
71959ION    NA+37186  38.323   4.703   1.463
71960ION    NA+37187  10.243  26.005  12.775
71961ION    NA+37188  30.240  37.235   0.736
71962ION    NA+37189   7.490  13.631   3.460
71963ION    NA+37190  18.665  20.330  11.072
71964ION    NA+37191   2.516  18.167  14.379
71965ION    NA+37192  44.500  41.213   3.656
71966ION    NA+37193  42.041  30.807   0.212
71967ION    NA+37194  18.478  11.609  14.494
71968ION    NA+37195  15.510  39.826   9.576
71969ION    NA+37196  44.736  35.489   1.216
71970ION    NA+37197   9.560  24.044  12.586
71971ION    NA+37198  41.491  19.189   4.278
71972ION    NA+37199  29.090  44.960  12.987
71973ION    NA+37200  13.303  23.701  11.254
71974ION    NA+37201   0.463  21.182  13.318
71975ION    NA+37202  33.874   6.448  13.414
71976ION    NA+37203   1.015  14.646   3.984
71977ION    NA+37204   3.635  43.548  13.689
71978ION    NA+37205  14.821  42.834   3.820
71979ION    NA+37206  44.353  19.643  12.837
71980ION    NA+37207   8.351  29.049   1.834
71981ION    NA+37208  37.984  35.714   1.425
71982ION    NA+37209  20.474  17.481  12.923
71983ION    NA+37210  30.152   9.902  12.158
71984ION    NA+37211  28.549   0.278  11.449
71985ION    NA+37212  33.895  17.907   4.144
71986ION    NA+37213  25.783   1.906  12.075
71987ION    NA+37214  11.576  35.335   4.402
71988ION    NA+37215  17.028  29.333   1.044
71989ION    NA+37216  26.408  32.376  12.349
71990ION    NA+37217  15.587  28.262  12.006
71991ION    NA+37218   8.106  15.966   3.731
71992ION    NA+37219  21.606  22.736  13.169
71993ION    NA+37220  18.136  27.183   4.316
71994ION    NA+37221  32.915  37.480  14.484
71995ION    NA+37222   6.033  30.577   4.379
71996ION    NA+37223  24.582  23.519  13.544
71997ION    NA+37224   4.291   5.235   9.838
71998ION    NA+37225  19.793   5.168  14.818
71999ION    NA+37226   0.419   0.222  14.236
72000ION    NA+37227   8.885  40.583  13.029
72001ION    NA+37228  12.084  10.463   3.468
72002ION    NA+37229  17.767  35.336  13.571
72003ION    NA+37230  26.366  22.752   1.611
72004ION    NA+37231  34.406  20.009   3.122
72005ION    NA+37232  21.851  21.609   1.956
72006ION    NA+37233  26.106   3.927  11.316
72007ION    NA+37234  28.656  38.829  11.920
72008ION    NA+37235  11.501  10.379   4.845
72009ION    NA+37236  37.083  22.041   0.250
72010ION    NA+37237  24.796  35.813   0.396
72011ION    NA+37238  27.445  43.810  11.988
72012ION    NA+37239  18.952   9.195   5.039
72013ION    NA+37240  23.311  23.839   0.670
72014ION    NA+37241  27.972  20.063  13.010
72015ION    NA+37242  11.913   0.933  12.995
72016ION    NA+37243  12.951  42.336  12.601
72017ION    NA+37244   6.580  27.556   1.570
72018ION    NA+37245  36.771  42.586  13.317
72019ION    NA+37246  16.040  33.415  14.297
72020ION    NA+37247  16.131  11.295  12.129
72021ION    NA+37248  30.090  11.851  14.339
72022ION    NA+37249  37.887  22.138  11.315
72023ION    NA+37250  44.746   2.620  10.275
72024ION    NA+37251  18.956  28.292  13.109
72025ION    NA+37252   3.697  30.667  11.998
72026ION    NA+37253   2.013   5.782   1.205
72027ION    NA+37254   9.801  38.642   1.410
72028ION    NA+37255  36.543   0.494  13.639
72029ION    NA+37256   2.776  41.890  14.044
72030ION    NA+37257  29.814  27.440   3.010
72031ION    NA+37258  27.271   2.067  13.760
72032ION    NA+37259   4.690  24.383  12.044
72033ION    NA+37260   0.459  44.034   3.704
72034ION    NA+37261  21.721  33.292   2.619
72035ION    NA+37262  15.259  42.187   4.971
72036ION    NA+37263   0.384   6.812  11.931
72037ION    NA+37264  16.636  38.113   1.926
72038ION    NA+37265   0.504  15.738   5.125
72039ION    NA+37266  40.574   1.283  14.450
72040ION    NA+37267  37.934  17.583   0.337
72041ION    NA+37268  37.223  35.794  11.201
72042ION    NA+37269  19.009  19.584  12.548
72043ION    NA+37270  12.265  31.868   2.087
72044ION    NA+37271  13.990  11.691   0.848
72045ION    NA+37272  42.614  15.609  14.404
72046ION    NA+37273  29.068  16.711  11.610
72047ION    NA+37274  26.811  40.539  12.668
72048ION    NA+37275  14.356  23.660  10.621
72049ION    NA+37276  41.341  36.705   0.761
72050ION    NA+37277  34.495   2.028   3.670
72051ION    NA+37278  38.476  30.916   3.785
72052ION    NA+37279  30.386   4.218   3.430
72053ION    NA+37280  36.111  13.335  14.443
72054ION    NA+37281  12.774  28.594   1.996
72055ION    NA+37282  32.696   2.901  13.841
72056ION    NA+37283   5.349  36.883   2.729
72057ION    NA+37284  20.601  28.476  13.729
72058ION    NA+37285  26.591   6.290   0.742
72059ION    NA+37286   3.910  40.003   3.191
72060ION    NA+37287  15.590   0.395   4.058
72061ION    NA+37288   8.773   7.686   5.176
72062ION    NA+37289  26.005  37.827  13.215
72063ION    NA+37290  11.781  22.372   3.196
72064ION    NA+37291  24.724  28.115  14.418
72065ION    NA+37292   8.130  20.782  12.197
72066ION    NA+37293  19.792  28.394   1.346
72067ION    NA+37294  16.780  40.936   2.583
72068ION    NA+37295  32.579   9.443  13.095
72069ION    NA+37296  42.772   3.823  13.956
72070ION    NA+37297  39.114  31.395  12.902
72071ION    NA+37298  30.866  22.088  11.771
72072ION    NA+37299   8.406  17.897   3.346
72073ION    NA+37300  20.321   8.299   2.491
72074ION    NA+37301  22.135   5.912  13.965
72075ION    NA+37302  11.759  30.660  10.640
72076ION    NA+37303   9.742   6.760   3.121
72077ION    NA+37304  12.874  40.188  13.890
72078ION    NA+37305  15.417  28.764   2.112
72079ION    NA+37306  37.050  34.835   1.242
72080ION    NA+37307  43.583  23.990  11.426
72081ION    NA+37308  26.931  13.753  13.489
72082ION    NA+37309  11.127  19.487   3.016
72083ION    NA+37310  13.015  25.200  12.541
72084ION    NA+37311   1.946   5.576   3.964
72085ION    NA+37312  24.570  29.937   1.344
72086ION    NA+37313  39.424  36.084   5.168
72087ION    NA+37314  44.228   3.378   4.075
72088ION    NA+37315   9.271  24.703  11.549
72089ION    NA+37316  16.031   5.930   0.267
72090ION    NA+37317   2.830  42.280   4.779
72091ION    NA+37318  25.900  35.080   4.703
72092ION    NA+37319  38.676  36.370   2.254
72093ION    NA+37320   7.482  27.704   3.759
72094ION    NA+37321  34.570  22.203   0.554
72095ION    NA+37322  32.936  32.445   0.081
72096ION    NA+37323  40.431  12.514  10.806
72097ION    NA+37324  31.458   8.906   2.809
72098ION    NA+37325   4.754  16.678  11.948
72099ION    NA+37326   5.755  42.715   1.197
72100ION    NA+37327  30.044  33.931  14.475
72101ION    NA+37328   1.687  39.963  11.953
72102ION    NA+37329  41.981   8.434   2.716
72103ION    NA+37330  12.870   8.316   1.815
72104ION    NA+37331  26.511  36.915   3.269
72105ION    NA+37332  21.872   6.693   2.171
72106ION    NA+37333  20.308  16.627   0.353
72107ION    NA+37334   3.640  38.208   1.834
72108ION    NA+37335  32.223   1.442   4.495
72109ION    NA+37336  44.522  26.259   3.260
72110ION    NA+37337  19.409  33.322   5.169
72111ION    NA+37338   8.756  34.538   4.562
72112ION    NA+37339  35.959  18.548   0.444
72113ION    NA+37340  14.184   9.336  14.052
72114ION    NA+37341  10.229  44.723  11.161
72115ION    NA+37342  21.666   1.214  14.832
72116ION    NA+37343  40.982  29.241   0.113
72117ION    NA+37344   3.275  20.367  10.242
72118ION    NA+37345  10.340  10.796   5.080
72119ION    NA+37346  43.287  18.145   3.653
72120ION    NA+37347  25.571  30.864  13.944
72121ION    NA+37348  36.590  38.606   0.198
72122ION    NA+37349  43.923  36.276  10.739
72123ION    NA+37350  22.005  12.288   4.107
72124ION    NA+37351  12.697   0.799  13.688
72125ION    NA+37352  15.325  23.886   2.052
72126ION    NA+37353  12.358  21.480   0.843
72127ION    NA+37354  14.104  42.000   4.122
72128ION    NA+37355  23.917  26.855   1.596
72129ION    NA+37356  44.332  31.710   4.179
72130ION    NA+37357   2.825   1.245  11.831
72131ION    NA+37358  27.989   7.747   2.838
72132ION    NA+37359  15.291  19.518   2.681
72133ION    NA+37360  14.607  39.608   2.278
72134ION    NA+37361  21.453  29.754   2.232
72135ION    NA+37362  23.961  32.824  14.902
72136ION    NA+37363   7.144   7.454  13.705
72137ION    NA+37364  31.545  37.991  11.154
72138ION    NA+37365  16.176  43.457  14.720
72139ION    NA+37366  44.352  44.907  14.589
72140ION    NA+37367   0.674  32.294  14.320
72141ION    NA+37368  29.712  13.237  14.550
72142ION    NA+37369  44.544  14.511   0.232
72143ION    NA+37370  21.642   4.237  11.409
72144ION    NA+37371  16.354  24.136   3.296
72145ION    NA+37372  31.914  11.189  13.841
72146ION    NA+37373  37.387   0.783  13.037
72147ION    NA+37374  24.678   1.084   3.526
72148ION    NA+37375  22.604   7.261  12.149
72149ION    NA+37376  37.858   9.483   5.467
72150ION    NA+37377  23.772   4.651  12.487
72151ION    NA+37378   4.303  30.475  13.608
72152ION    NA+37379  20.596  37.441   2.383
72153ION    NA+37380   5.513  44.966  14.597
72154ION    NA+37381  41.146   8.598  13.916
72155ION    NA+37382  26.490  12.726  10.811
72156ION    NA+37383   0.516  33.296   2.051
72157ION    NA+37384  40.086  44.329   0.113
72158ION    NA+37385   7.836   6.394   3.130
72159ION    NA+37386  40.253  17.820   2.273
72160ION    NA+37387  23.153  39.610  11.008
72161ION    NA+37388  24.525  18.213   0.920
72162ION    NA+37389  19.016  36.070   3.592
72163ION    NA+37390  20.121  21.352   1.250
72164ION    NA+37391  11.202   6.567   2.602
72165ION    NA+37392   2.838   2.600   1.485
72166ION    NA+37393  11.735  13.772   0.855
72167ION    NA+37394   9.260  12.443  14.728
72168ION    NA+37395   3.559  30.026   2.639
72169ION    NA+37396  30.167  12.499   0.097
72170ION    NA+37397  22.182  21.301   1.244
72171ION    NA+37398  16.228  12.646  12.561
72172ION    NA+37399  29.510  21.477   1.285
72173ION    NA+37400  34.399  21.356   2.778
72174ION    NA+37401  23.873  10.188  13.360
72175ION    NA+37402  42.063  32.068   3.083
72176ION    NA+37403  16.566   4.939  13.367
72177ION    NA+37404  42.996   2.887   1.412
72178ION    NA+37405  23.033  40.638   4.703
72179ION    NA+37406   7.299  33.917   2.353
72180ION    NA+37407  12.085   9.545   4.603
72181ION    NA+37408   8.616  25.016  14.523
72182ION    NA+37409  14.392  16.676  11.219
72183ION    NA+37410  18.743   0.817   4.650
72184ION    NA+37411  13.937  25.344  11.226
72185ION    NA+37412  38.921  37.065  13.506
72186ION    NA+37413  19.640   9.810   4.393
72187ION    NA+37414  35.328  37.468  12.013
72188ION    NA+37415  38.281  11.638  13.656
72189ION    NA+37416  26.040  41.372   0.302
72190ION    NA+37417  14.953  37.591  11.589
72191ION    NA+37418   1.209  39.505  12.560
72192ION    NA+37419  15.193  14.960  14.716
72193ION    NA+37420  10.770   0.725   4.496
72194ION    NA+37421   8.034  26.921   3.273
72195ION    NA+37422  35.333  13.307  13.427
72196ION    NA+37423  21.398   6.500   0.309
72197ION    NA+37424  13.158   0.337   4.107
72198ION    NA+37425  10.151   5.168  12.081
72199ION    NA+37426   6.480  30.170  13.152
72200ION    NA+37427  37.957  30.031  11.577
72201ION    NA+37428  11.063   6.344   4.135
72202ION    NA+37429  11.740  38.425  14.025
72203ION    NA+37430   0.713  24.179  13.737
72204ION    NA+37431  23.454  24.445   5.158
72205ION    NA+37432  14.256  18.047  13.554
72206ION    NA+37433  43.652  17.365   1.908
72207ION    NA+37434  10.386  26.412   4.234
72208ION    NA+37435  21.431   0.391   2.120
72209ION    NA+37436  39.340  29.621   1.815
72210ION    NA+37437  12.406  10.191   0.861
72211ION    NA+37438   0.652  24.561   2.359
72212ION    NA+37439  11.638  10.986  10.786
72213ION    NA+37440  35.958  24.892  14.240
72214ION    NA+37441   8.801  35.779   3.152
72215ION    NA+37442  24.626  14.746   2.568
72216ION    NA+37443   2.483   9.828   3.571
72217ION    NA+37444  24.425  28.506  11.499
72218ION    NA+37445   4.557  25.239  12.650
72219ION    NA+37446  28.875  37.859  12.019
72220ION    NA+37447   6.698  22.347   4.228
72221ION    NA+37448  41.541  32.939  14.504
72222ION    NA+37449  18.143   0.831   2.118
72223ION    NA+37450   5.652  44.685  13.738
72224ION    NA+37451  17.766  12.689   0.103
72225ION    NA+37452  11.698  38.432   3.071
72226ION    NA+37453   0.794  43.574  12.896
72227ION    NA+37454  41.288  37.682   0.963
72228ION    NA+37455  29.798  15.597   2.597
72229ION    NA+37456   8.988  32.010   0.182
72230ION    CL-37457  16.100  12.250  11.439
72231ION    CL-37458  30.644  14.218   1.157
72232ION    CL-37459  40.263  32.007  10.716
72233ION    CL-37460  39.399   2.269   0.284
72234ION    CL-37461  23.622  19.329   1.401
72235ION    CL-37462   5.655  44.306  10.735
72236ION    CL-37463   9.581   2.303   1.752
72237ION    CL-37464  36.847  44.739   4.021
72238ION    CL-37465  44.320  32.263  12.024
72239ION    CL-37466   2.568  35.977   2.550
72240ION    CL-37467  44.225   8.776  10.707
72241ION    CL-37468  17.266  30.229  14.867
72242ION    CL-37469  41.987   4.458   4.455
72243ION    CL-37470  27.416   1.685  13.957
72244ION    CL-37471  42.317  15.082   1.142
72245ION    CL-37472  38.364  23.872  14.363
72246ION    CL-37473  34.848   8.589  14.458
72247ION    CL-37474  31.429   4.943  10.272
72248ION    CL-37475  24.135   0.796   4.408
72249ION    CL-37476  31.964  23.464  11.497
72250ION    CL-37477  34.049  28.461  11.112
72251ION    CL-37478   6.325  41.318  14.297
72252ION    CL-37479  36.597   0.542  14.082
72253ION    CL-37480  22.103   0.359   5.647
72254ION    CL-37481  19.321  38.870  11.671
72255ION    CL-37482  11.304  15.383   1.139
72256ION    CL-37483  25.813  30.392   2.026
72257ION    CL-37484   9.737  35.338  12.162
72258ION    CL-37485  12.928  15.276   0.358
72259ION    CL-37486   0.359  44.908  13.924
72260ION    CL-37487  24.270   7.300  14.364
72261ION    CL-37488  17.252  21.865  13.535
72262ION    CL-37489  17.486  44.226  10.089
72263ION    CL-37490   8.462  36.078  14.819
72264ION    CL-37491  19.393  33.635  11.214
72265ION    CL-37492   5.156   1.000  11.456
72266ION    CL-37493   3.830  31.977   2.853
72267ION    CL-37494  18.950   0.133   3.091
72268ION    CL-37495  31.980  37.538  11.962
72269ION    CL-37496  12.690  40.187  14.308
72270ION    CL-37497  39.890  12.002  13.658
72271ION    CL-37498  13.193  11.743  12.504
72272ION    CL-37499  40.257  31.409   1.689
72273ION    CL-37500  12.155  40.582  14.931
72274ION    CL-37501  17.747   9.123   1.449
72275ION    CL-37502  39.799  31.102   4.116
72276ION    CL-37503  18.140  27.097  13.071
72277ION    CL-37504   0.752   9.502  10.431
72278ION    CL-37505   9.178  32.255  11.927
72279ION    CL-37506  32.669  31.048  13.283
72280ION    CL-37507   9.295  23.873  14.431
72281ION    CL-37508  43.750  33.006   3.719
72282ION    CL-37509  12.142  16.166   3.895
72283ION    CL-37510   6.780   0.948  13.144
72284ION    CL-37511  21.408  31.723   4.161
72285ION    CL-37512  33.994  14.362   4.547
72286ION    CL-37513  44.517  44.597   1.872
72287ION    CL-37514  40.164  14.444  14.075
72288ION    CL-37515  39.703  30.319  11.277
72289ION    CL-37516   7.628   0.116   4.559
72290ION    CL-37517  20.048  24.942   0.285
72291ION    CL-37518  11.329  19.355  14.954
72292ION    CL-37519   2.656  43.588   2.149
72293ION    CL-37520  22.762  29.143  10.496
72294ION    CL-37521  16.516  40.121  14.034
72295ION    CL-37522  41.018  20.521   4.449
72296ION    CL-37523  14.516  15.289   1.493
72297ION    CL-37524  25.953  41.181  11.361
72298ION    CL-37525  24.889  25.609  14.872
72299ION    CL-37526  24.256  22.451  14.204
72300ION    CL-37527   3.218  25.451   4.094
72301ION    CL-37528   1.713  25.339  11.442
72302ION    CL-37529  25.766  22.165   3.459
72303ION    CL-37530  35.578  24.783  14.034
72304ION    CL-37531  30.430   8.684  11.336
72305ION    CL-37532   5.365  40.824  12.925
72306ION    CL-37533   3.797   0.024  12.340
72307ION    CL-37534  16.832  23.029  12.196
72308ION    CL-37535  18.096  25.581   4.872
72309ION    CL-37536  30.146  16.854   4.519
72310ION    CL-37537  26.090  39.979   2.094
72311ION    CL-37538   3.228  32.869   0.438
72312ION    CL-37539  32.955   3.338  11.279
72313ION    CL-37540  23.462  36.459  11.685
72314ION    CL-37541   6.122  12.836  11.367
72315ION    CL-37542   5.772   6.934   5.102
72316ION    CL-37543   7.252   7.817   2.401
72317ION    CL-37544  28.472  34.014   3.903
72318ION    CL-37545  33.777  17.960  12.438
72319ION    CL-37546  41.439  40.450   3.698
72320ION    CL-37547  20.671  35.287  13.643
72321ION    CL-37548  29.919  16.837  12.817
72322ION    CL-37549  28.113  15.943  12.010
72323ION    CL-37550  29.721  26.758  12.070
72324ION    CL-37551  18.018   0.641   1.707
72325ION    CL-37552   2.167   7.252  10.521
72326ION    CL-37553  17.883  13.077   4.094
72327ION    CL-37554  28.188  20.299  13.322
72328ION    CL-37555   6.263  20.883  12.089
72329ION    CL-37556  43.057   7.334  13.572
72330ION    CL-37557   9.410  24.659   0.991
72331ION    CL-37558  21.195  27.151   1.908
72332ION    CL-37559  12.460  10.274   3.287
72333ION    CL-37560  18.565  27.633  14.829
72334ION    CL-37561   6.235  35.684  10.802
72335ION    CL-37562  44.024  17.062  14.541
72336ION    CL-37563  30.571  38.366   1.511
72337ION    CL-37564  23.736  39.425   0.868
72338ION    CL-37565  18.540  12.710  12.531
72339ION    CL-37566   8.338  15.121   2.296
72340ION    CL-37567   0.272   3.936  14.944
72341ION    CL-37568  38.535  25.641   3.401
72342ION    CL-37569   3.494  35.996   2.057
72343ION    CL-37570  21.455  10.780   4.049
72344ION    CL-37571  16.040   8.734   1.450
72345ION    CL-37572  32.121  32.564   2.090
72346ION    CL-37573   2.831  25.732  11.068
72347ION    CL-37574  42.281  18.985   1.779
72348ION    CL-37575  24.190  26.442  12.659
72349ION    CL-37576  40.313  42.639  14.385
72350ION    CL-37577  42.174  15.278   2.515
72351ION    CL-37578   8.386   2.805   2.379
72352ION    CL-37579  38.620   3.628  11.052
72353ION    CL-37580   1.153   2.601   4.740
72354ION    CL-37581   0.654   0.894  11.314
72355ION    CL-37582  10.373  34.500   0.926
72356ION    CL-37583  14.744  33.070   4.520
72357ION    CL-37584  44.083   4.738   3.307
72358ION    CL-37585  43.380  12.936   4.352
72359ION    CL-37586  28.921   0.128  11.647
72360ION    CL-37587  21.563  39.090   2.728
72361ION    CL-37588   5.362  39.390  13.568
72362ION    CL-37589  36.219  25.021  10.915
72363ION    CL-37590  34.734  28.749   0.351
72364ION    CL-37591  21.703   1.514  14.494
72365ION    CL-37592  33.271  38.387  11.958
72366ION    CL-37593  35.052  39.658   5.076
72367ION    CL-37594   0.859   8.903   9.842
72368ION    CL-37595  30.985  29.768   1.587
72369ION    CL-37596  16.230   4.375  10.717
72370ION    CL-37597  30.548  41.398  13.046
72371ION    CL-37598  22.105  35.609  14.432
72372ION    CL-37599   8.842  25.030   3.208
72373ION    CL-37600   2.507  42.544   3.602
72374ION    CL-37601  20.533  44.007   2.847
72375ION    CL-37602  13.131   5.340   0.458
72376ION    CL-37603  19.473  43.946  13.111
72377ION    CL-37604  10.590  20.459  14.976
72378ION    CL-37605  25.801   5.581  10.722
72379ION    CL-37606  25.133  26.778  12.836
72380ION    CL-37607  40.844  12.801  14.264
72381ION    CL-37608  18.748  11.035  10.455
72382ION    CL-37609  16.837   4.305   4.740
72383ION    CL-37610  21.374  26.138   9.905
72384ION    CL-37611  43.272   7.351  12.160
72385ION    CL-37612  34.545   9.643   1.616
72386ION    CL-37613  29.395  19.690  12.825
72387ION    CL-37614  36.028  41.009   0.479
72388ION    CL-37615  26.058  41.819   0.304
72389ION    CL-37616   1.775  17.798  13.045
72390ION    CL-37617  22.902  39.257  12.815
72391ION    CL-37618  14.587   6.658  10.278
72392ION    CL-37619  33.794   0.370   0.441
72393ION    CL-37620  23.653  23.158  10.893
72394ION    CL-37621  36.551  14.176  10.795
72395ION    CL-37622  26.456  20.795   1.113
72396ION    CL-37623  10.763  28.646  10.884
72397ION    CL-37624   9.806  20.865  10.465
72398ION    CL-37625  40.627  44.334   2.060
72399ION    CL-37626   8.586  24.450   0.375
72400ION    CL-37627  39.610  13.461  11.927
72401ION    CL-37628   1.402  39.735  12.224
72402ION    CL-37629   1.314   7.094   0.877
72403ION    CL-37630   8.267   4.402  13.065
72404ION    CL-37631  23.616  34.232  14.723
72405ION    CL-37632  44.168  10.449   3.543
72406ION    CL-37633  41.705  26.617   1.323
72407ION    CL-37634  30.578   2.351  10.123
72408ION    CL-37635  30.336  41.192  11.712
72409ION    CL-37636  20.076   5.445  13.378
72410ION    CL-37637  15.796  13.675   0.853
72411ION    CL-37638  26.156  19.837  10.388
72412ION    CL-37639  10.007  37.883  12.689
72413ION    CL-37640  10.151  42.588  12.725
72414ION    CL-37641  40.690  16.411  10.870
72415ION    CL-37642  12.689  21.496   1.176
72416ION    CL-37643  23.978   2.402   3.686
72417ION    CL-37644  38.293  19.971   0.873
72418ION    CL-37645  29.308  16.667  13.590
72419ION    CL-37646  44.249  35.937  13.464
72420ION    CL-37647   0.402   3.105   0.484
72421ION    CL-37648  31.873  22.436  12.444
72422ION    CL-37649  35.809  44.151  11.211
72423ION    CL-37650  11.235  22.136   0.050
72424ION    CL-37651  35.023   0.132   0.965
72425ION    CL-37652  31.351  34.996  14.706
72426ION    CL-37653  31.992   3.509  12.123
72427ION    CL-37654  22.734  40.895  13.087
72428ION    CL-37655   9.179  35.653   3.359
72429ION    CL-37656  38.430  32.400  10.316
72430ION    CL-37657   0.501  20.057  13.491
72431ION    CL-37658   7.212  44.701   3.643
72432ION    CL-37659  11.413  15.084  11.362
72433ION    CL-37660  11.323  20.771   0.262
72434ION    CL-37661  26.381  14.254   4.972
72435ION    CL-37662  40.737   8.431  14.036
72436ION    CL-37663  26.343   1.630   1.963
72437ION    CL-37664   1.160  17.959  11.973
72438ION    CL-37665  29.149  17.255   2.320
72439ION    CL-37666  20.895  40.229   0.018
72440ION    CL-37667   9.664  25.300   2.707
72441ION    CL-37668  33.862   1.487  14.782
72442ION    CL-37669   2.151   5.823   3.642
72443ION    CL-37670   5.592  44.831  14.168
72444ION    CL-37671   6.131  12.923  13.019
72445ION    CL-37672  34.106  13.248  13.293
72446ION    CL-37673  36.549  19.522  11.109
72447ION    CL-37674  33.061  15.792   3.423
72448ION    CL-37675   7.412  23.005   1.814
72449ION    CL-37676  40.859  38.399   0.040
72450ION    CL-37677  32.183   4.845   4.732
72451ION    CL-37678  19.053  31.322   0.015
72452ION    CL-37679  26.681  28.046   3.317
72453ION    CL-37680  27.042  21.628   3.867
72454ION    CL-37681  17.119  29.371  11.019
72455ION    CL-37682  33.835  36.412   2.397
72456ION    CL-37683  36.227  33.649  12.285
72457ION    CL-37684   5.968  14.160   1.605
72458ION    CL-37685  32.114  32.320  11.627
72459ION    CL-37686  35.220  42.850   4.982
72460ION    CL-37687  40.686   3.006   3.550
72461ION    CL-37688   5.128   0.959   3.647
72462ION    CL-37689  10.559  21.406   0.148
72463ION    CL-37690  27.873   0.003  14.027
72464ION    CL-37691  40.514  20.476   3.586
72465ION    CL-37692  22.154  30.593  11.590
72466ION    CL-37693  16.332  15.221   2.533
72467ION    CL-37694  13.169  35.727   5.173
72468ION    CL-37695   3.726  31.501  13.033
72469ION    CL-37696  12.310   7.417  14.741
72470ION    CL-37697  31.604  25.839   0.896
72471ION    CL-37698  26.378  12.954   1.687
72472ION    CL-37699   1.460   0.223  14.102
72473ION    CL-37700   4.056   7.143  11.089
72474ION    CL-37701  42.568  26.921   1.443
72475ION    CL-37702   9.836  10.412   1.347
72476ION    CL-37703   5.966  23.471   1.803
72477ION    CL-37704  15.350  23.523  13.910
72478ION    CL-37705   8.294  43.801   3.410
72479ION    CL-37706  11.736  18.277   3.108
72480ION    CL-37707   5.018  37.322   9.817
72481ION    CL-37708  36.907  24.447   0.375
72482ION    CL-37709  18.338   4.643  10.418
72483ION    CL-37710  20.896  11.381   2.149
72484ION    CL-37711  13.539  44.295  12.824
72485ION    CL-37712  14.019  43.385   2.664
72486ION    CL-37713  21.660   3.978  11.776
72487ION    CL-37714  40.938  23.353  14.436
72488ION    CL-37715  26.237  36.637  10.756
72489ION    CL-37716  27.250  42.095  14.849
72490ION    CL-37717  22.718  29.770  11.273
72491ION    CL-37718  28.013  36.387   3.595
72492ION    CL-37719  18.609  38.645   0.999
72493ION    CL-37720  34.176  25.094   2.193
72494ION    CL-37721  31.104  29.436  12.947
72495ION    CL-37722  17.487  43.842  13.606
72496ION    CL-37723  14.900  34.999   0.026
72497ION    CL-37724  44.266   8.974  14.316
72498ION    CL-37725  18.158  33.484   4.058
72499ION    CL-37726  16.805   2.487   4.129
72500ION    CL-37727  23.780  23.484  11.829
72501ION    CL-37728   1.108   9.729  13.151
72502ION    CL-37729  20.158  43.263  14.953
72503ION    CL-37730  37.654  30.157   3.301
72504ION    CL-37731  16.765  14.711  13.504
72505ION    CL-37732  20.599  38.089  12.438
72506ION    CL-37733  16.784  18.475   2.113
72507ION    CL-37734  31.903  35.061  12.487
72508ION    CL-37735  21.824  21.309   1.550
72509ION    CL-37736  29.419  19.506   2.373
72510ION    CL-37737   2.653   2.455  11.223
72511ION    CL-37738  29.984  23.591  10.113
72512ION    CL-37739  42.606  17.480   2.278
72513ION    CL-37740  34.888  43.159  11.084
72514ION    CL-37741   0.965  42.591  14.907
72515ION    CL-37742  37.318  10.646   0.819
72516ION    CL-37743   6.401  41.196   2.914
72517ION    CL-37744  43.423  29.033  14.839
72518ION    CL-37745  11.117  19.576   1.291
72519ION    CL-37746  27.242  37.997  11.140
72520ION    CL-37747  29.986  35.911   3.392
72521ION    CL-37748  17.117  33.445   4.077
72522ION    CL-37749   0.470  34.164   0.248
72523ION    CL-37750  32.894  26.979   0.015
72524ION    CL-37751  26.823  38.616   1.879
72525ION    CL-37752  40.820  25.202  12.073
72526ION    CL-37753   6.285  12.282   3.533
72527ION    CL-37754  37.029  25.524  10.610
72528ION    CL-37755  44.154  41.304  10.492
72529ION    CL-37756   3.934  28.095   2.365
72530ION    CL-37757  34.594  37.938  14.578
72531ION    CL-37758  38.601  32.332   2.837
72532ION    CL-37759  34.604  13.278  14.171
72533ION    CL-37760   6.294  29.800   3.266
72534ION    CL-37761  32.746  33.823  11.720
72535ION    CL-37762  39.982   7.075  12.961
72536ION    CL-37763  12.762   3.139   1.640
72537ION    CL-37764  14.322  37.646  10.535
72538ION    CL-37765  17.462  25.968  14.156
72539ION    CL-37766  29.852   0.689   5.003
72540ION    CL-37767  24.259  29.958   1.024
72541ION    CL-37768  21.896  44.570  12.402
72542ION    CL-37769  19.029  28.729  13.045
72543ION    CL-37770  36.032  41.829   4.160
72544ION    CL-37771  23.160   2.311   3.117
72545ION    CL-37772  26.146  25.453   0.340
72546ION    CL-37773  31.854  38.276  11.300
72547ION    CL-37774  27.789  32.794  14.876
72548ION    CL-37775  44.081  33.208   4.653
72549ION    CL-37776  18.749  39.812  14.667
72550ION    CL-37777   3.402  19.295   2.895
72551ION    CL-37778  37.602  44.240   0.855
72552ION    CL-37779   6.370  25.074   5.074
72553ION    CL-37780  16.179  18.163  12.834
72554ION    CL-37781   5.615  14.861  10.715
72555ION    CL-37782  22.702  36.616   4.121
72556ION    CL-37783  34.948  35.436  10.269
72557ION    CL-37784  41.264  34.234  11.571
72558ION    CL-37785   7.571  27.022  11.695
72559ION    CL-37786  22.769  28.940   3.094
72560ION    CL-37787  33.597  31.336  10.877
72561ION    CL-37788  23.581  12.144   1.936
72562ION    CL-37789  10.752  31.072  12.350
72563ION    CL-37790   9.612   0.111   4.464
72564ION    CL-37791  31.269  35.614  14.056
72565ION    CL-37792   4.129   1.822   3.264
72566ION    CL-37793  14.324  13.361   0.027
72567ION    CL-37794  35.069  19.266   1.160
72568ION    CL-37795  25.056  22.230  14.572
72569ION    CL-37796   2.749  29.749   1.931
72570ION    CL-37797  28.961   1.221   2.729
72571ION    CL-37798  30.478   4.224   4.518
72572ION    CL-37799  16.327  30.696   3.175
72573ION    CL-37800   0.450  19.517  14.386
72574ION    CL-37801  38.509  11.387  13.350
72575ION    CL-37802  41.009  31.540   2.403
72576ION    CL-37803  28.560  36.919   2.394
72577ION    CL-37804   6.218  23.055  14.052
72578ION    CL-37805  29.924  10.543  10.059
72579ION    CL-37806  13.524  24.409   1.169
72580ION    CL-37807  10.546  15.593  12.484
72581ION    CL-37808  25.240   7.544  13.568
72582ION    CL-37809  25.342  30.654  13.623
72583ION    CL-37810  29.194   7.653  11.478
72584ION    CL-37811  32.204  14.335  11.220
72585ION    CL-37812  20.625  26.326   1.704
72586ION    CL-37813  11.601  11.835  12.056
72587ION    CL-37814  25.989  15.135   2.729
72588ION    CL-37815  21.442   0.160   0.853
72589ION    CL-37816  44.010   5.427  12.651
72590ION    CL-37817  20.405  43.185  13.950
72591ION    CL-37818  37.061  10.969  13.904
72592ION    CL-37819  31.225  42.358  11.653
72593ION    CL-37820  15.282  24.597  10.943
72594ION    CL-37821   4.558   5.904   4.496
72595ION    CL-37822  35.636  28.499   1.279
72596ION    CL-37823  26.801  16.943   1.146
72597ION    CL-37824  24.158   0.974  12.316
72598ION    CL-37825   8.770  31.811   2.452
72599ION    CL-37826  24.788  17.988   1.202
72600ION    CL-37827   6.922   9.182   2.016
72601ION    CL-37828  34.759  44.408   3.263
72602ION    CL-37829  14.666  33.033  12.546
72603ION    CL-37830   2.997  44.385   3.645
72604ION    CL-37831  16.511  30.044  13.246
72605ION    CL-37832   9.261  14.917   0.080
72606ION    CL-37833  12.470  21.700   3.915
72607ION    CL-37834  17.146  17.681  10.704
72608ION    CL-37835  44.837  22.684  14.236
72609ION    CL-37836  42.448  17.759   1.150
72610ION    CL-37837  42.624  41.380   4.815
72611ION    CL-37838  20.239   7.671   4.194
72612ION    CL-37839  44.026   7.430  11.361
72613ION    CL-37840  18.174  29.414  14.937
72614ION    CL-37841  39.033  10.976   3.298
72615ION    CL-37842  41.909  32.363   2.760
72616ION    CL-37843  15.053  35.835  13.363
72617ION    CL-37844  19.908  38.048  14.360
72618ION    CL-37845  42.496  25.150  12.728
72619ION    CL-37846   5.849  33.174   4.567
72620ION    CL-37847  29.383  34.128   5.050
72621ION    CL-37848  25.765  16.040  11.987
72622ION    CL-37849  12.829   8.873  14.974
72623ION    CL-37850  11.352  38.359  11.738
72624ION    CL-37851  40.089  23.055  14.451
72625ION    CL-37852   9.277  27.479   0.444
72626ION    CL-37853  30.352  27.492   0.735
72627ION    CL-37854  21.499  33.147   0.630
72628ION    CL-37855  34.008  31.062  12.538
72629ION    CL-37856  40.789  13.751  12.593
72630ION    CL-37857  44.725  29.005  13.202
72631ION    CL-37858  34.581  37.218   0.214
72632ION    CL-37859   1.640  17.969   4.668
72633ION    CL-37860  14.392  25.748   1.797
72634ION    CL-37861  16.804  25.753  13.419
72635ION    CL-37862  38.333  37.036  12.284
72636ION    CL-37863   0.398  28.774  14.452
72637ION    CL-37864  17.075  12.884   1.607
72638ION    CL-37865  27.414  33.356   4.282
72639ION    CL-37866  32.537  23.414  14.006
72640ION    CL-37867  24.142  36.377  10.870
72641ION    CL-37868  41.891   9.834  13.926
72642ION    CL-37869  26.739  35.770   1.919
72643ION    CL-37870  44.701  17.196   3.051
72644ION    CL-37871  11.974  30.392  14.361
72645ION    CL-37872  17.250  44.961  14.782
72646ION    CL-37873  13.526   6.603  12.177
72647ION    CL-37874  24.969  16.013  14.734
72648ION    CL-37875  37.133   2.798  12.593
72649ION    CL-37876   4.804  41.501  11.644
72650ION    CL-37877  30.584  35.393   1.197
72651ION    CL-37878  16.907   6.565  14.355
72652ION    CL-37879  31.841  11.371   3.594
72653ION    CL-37880  17.357  19.067  13.928
72654ION    CL-37881  21.118  28.467   5.244
72655ION    CL-37882  14.081  38.322   1.211
72656ION    CL-37883  43.772  32.115  13.549
72657ION    CL-37884  26.746  20.477  12.654
72658ION    CL-37885   2.699  20.498  14.420
72659ION    CL-37886  23.910  27.097  11.958
72660ION    CL-37887   0.513  12.771   0.914
72661ION    CL-37888  31.915  22.034  11.429
72662ION    CL-37889   5.746  16.987  13.861
72663ION    CL-37890  16.037  26.998   1.655
72664ION    CL-37891  26.074  35.042  11.648
72665ION    CL-37892  26.591  14.950  14.091
72666ION    CL-37893  40.941  28.254  11.087
72667ION    CL-37894   4.227  39.039  14.081
72668ION    CL-37895   6.649  36.672   2.418
72669ION    CL-37896  23.234  28.925   1.741
72670ION    CL-37897   7.846  12.359  11.563
72671ION    CL-37898  23.112  23.801   1.068
72672ION    CL-37899  12.117  15.197   4.143
72673ION    CL-37900  20.415  42.188   1.461
72674ION    CL-37901   1.182   1.873   1.718
72675ION    CL-37902  24.282  25.081  12.044
72676ION    CL-37903  29.934   0.982   2.125
72677ION    CL-37904  17.173  26.091   0.105
72678ION    CL-37905  35.096   2.417   2.212
72679ION    CL-37906  26.046  23.486   3.422
72680ION    CL-37907  36.209  26.611  14.449
72681ION    CL-37908  29.487   2.576   2.665
72682ION    CL-37909   5.029  40.339   0.394
72683ION    CL-37910   2.962  25.376   0.503
72684ION    CL-37911  19.837  29.661  11.698
72685ION    CL-37912  26.979  19.221   2.418
72686ION    CL-37913   5.650  26.733  14.015
72687ION    CL-37914  14.971  42.332  14.051
72688ION    CL-37915  26.118  35.225   1.356
72689ION    CL-37916  35.875  29.038   2.728
72690ION    CL-37917  38.752  39.492  10.187
72691ION    CL-37918  40.060  15.334   0.039
72692ION    CL-37919   8.256  27.047  10.835
72693ION    CL-37920  36.878  13.221  13.606
72694ION    CL-37921  22.158  14.843  13.441
72695ION    CL-37922  36.296  24.216   3.313
72696ION    CL-37923  33.444  34.329   3.264
72697ION    CL-37924  43.787  43.182   3.744
72698ION    CL-37925  18.975   7.942  14.964
72699ION    CL-37926  26.971   5.812  11.784
72700ION    CL-37927  18.593   0.955   2.188
72701ION    CL-37928  26.831  25.892  13.710
72702ION    CL-37929  23.553  19.832  11.208
72703ION    CL-37930  19.800  21.083  13.442
72704ION    CL-37931  24.709  20.682   3.456
72705ION    CL-37932  37.259  14.433  13.884
72706ION    CL-37933  27.717  19.274  13.906
72707ION    CL-37934  41.501  15.983  10.878
72708ION    CL-37935  16.337   1.605   4.072
72709ION    CL-37936  25.603  38.334  14.331
72710ION    CL-37937  33.966  10.764   3.174
72711ION    CL-37938  25.947  13.868   3.272
72712ION    CL-37939   5.539   7.037   2.590
72713ION    CL-37940  17.598   0.241   4.255
72714ION    CL-37941  33.571  41.289  13.493
72715ION    CL-37942  41.004  28.784   0.095
72716ION    CL-37943  42.773  29.839  10.839
72717ION    CL-37944   0.080  33.177   0.434
72718ION    CL-37945   8.575   8.440   2.690
72719ION    CL-37946  24.435  38.791  13.316
72720ION    CL-37947  35.162  24.151   4.134
72721ION    CL-37948  19.197   7.364  12.163
72722ION    CL-37949  30.277  36.538   2.669
72723ION    CL-37950  17.788   9.881   2.257
72724ION    CL-37951  18.008   8.590  12.889
72725ION    CL-37952   4.638  18.423   3.002
72726ION    CL-37953  29.408  42.947   4.036
72727ION    CL-37954  25.855   6.429  12.852
72728ION    CL-37955  24.945  32.440   4.103
72729ION    CL-37956  17.233  10.559   0.370
72730ION    CL-37957  31.118  35.460  11.118
72731ION    CL-37958   0.908  20.305  11.660
72732ION    CL-37959  15.938  25.031  14.029
72733ION    CL-37960   0.443  44.707  12.459
72734ION    CL-37961  16.817  13.630  14.721
72735ION    CL-37962  43.444  32.147   3.132
72736ION    CL-37963   2.426  29.889   3.214
72737ION    CL-37964   8.520  17.472   3.268
72738ION    CL-37965  34.523  22.643   0.478
72739ION    CL-37966  44.997  36.549  12.577
72740ION    CL-37967  24.013  13.855  14.965
72741ION    CL-37968   5.429  42.722   2.783
72742ION    CL-37969  33.313   1.236   0.580
72743ION    CL-37970  34.135  20.935   1.354
72744ION    CL-37971   9.757   0.033   1.684
72745ION    CL-37972  19.651  29.556   0.750
72746ION    CL-37973  44.088  36.008   1.840
72747ION    CL-37974  19.680   3.594  10.741
72748ION    CL-37975  42.716  37.098  14.382
72749ION    CL-37976   9.052   0.555   1.521
72750ION    CL-37977  18.006  43.720  12.760
72751ION    CL-37978  26.883   6.592  13.805
72752ION    CL-37979  34.521  34.376   0.746
72753ION    CL-37980   5.848  31.913  12.134
72754ION    CL-37981  10.692   3.901  12.922
72755ION    CL-37982  29.926  18.309  13.532
72756ION    CL-37983  36.025  34.810  14.118
72757ION    CL-37984  44.986  17.181   4.605
72758ION    CL-37985  13.392   1.340   2.671
72759ION    CL-37986  36.505  38.872   0.557
72760ION    CL-37987  20.327  44.743   5.212
72761ION    CL-37988   1.619   8.696   1.598
72762ION    CL-37989  26.380  44.357  11.435
72763ION    CL-37990   5.040  22.744  10.810
72764ION    CL-37991   1.985   1.437   4.644
72765ION    CL-37992  27.460  26.850   2.767
72766ION    CL-37993  17.692  18.130   0.703
72767ION    CL-37994  39.315  33.054   1.191
72768ION    CL-37995   6.017  40.186   0.408
72769ION    CL-37996  10.020  28.045  12.702
72770ION    CL-37997  10.567  12.913  12.921
72771ION    CL-37998  28.634   5.771   2.467
72772ION    CL-37999  36.932  18.130   0.291
72773ION    CL-38000  18.299  38.327   3.655
72774ION    CL-38001   4.822   4.211   3.608
72775ION    CL-38002  18.736  33.850   0.655
72776ION    CL-38003   3.790  15.861   3.398
72777ION    CL-38004  30.240   2.262  12.760
72778ION    CL-38005  15.172  39.468  11.195
72779ION    CL-38006   8.892  32.403  14.990
72780ION    CL-38007  39.687   6.497   1.043
72781ION    CL-38008  25.467  23.573   0.313
72782ION    CL-38009   9.864  17.595   2.431
72783ION    CL-38010   8.482  41.284   0.866
72784ION    CL-38011  37.159   8.779   2.048
72785ION    CL-38012  29.627   2.094   0.868
72786ION    CL-38013  31.421  12.343  10.543
72787ION    CL-38014  41.937   4.212  10.597
72788ION    CL-38015  16.306  14.180   2.373
72789ION    CL-38016  29.208  43.899   1.200
72790ION    CL-38017   4.400  28.914   2.701
72791ION    CL-38018  33.985  32.857   2.085
72792ION    CL-38019  13.595   2.837   0.373
72793ION    CL-38020  12.422  32.007   1.684
72794ION    CL-38021   3.207  19.554  12.415
72795ION    CL-38022  39.240  36.795   0.611
72796ION    CL-38023  28.971  35.980   4.693
72797ION    CL-38024   0.062  36.249   0.225
72798ION    CL-38025   8.677  13.432   0.738
72799ION    CL-38026   1.834  27.024  14.453
72800ION    CL-38027  35.365  42.230   2.681
72801ION    CL-38028  37.149  11.028  11.262
72802ION    CL-38029  25.385  20.035  12.537
72803ION    CL-38030  36.073  37.361  14.628
72804ION    CL-38031  11.387  32.974  14.472
72805ION    CL-38032  30.026   6.492   3.499
72806ION    CL-38033   5.989   4.561   0.339
72807ION    CL-38034  31.282  12.405   5.065
72808ION    CL-38035  21.651   0.005  10.221
72809ION    CL-38036  35.262  32.125   5.025
72810ION    CL-38037  43.790   2.767   0.782
72811ION    CL-38038  39.587   3.866   5.423
72812ION    CL-38039  30.310  15.854   0.410
72813ION    CL-38040  13.636  12.792   4.405
72814ION    CL-38041  28.055  13.774   3.100
72815ION    CL-38042  37.369  37.007  10.882
72816ION    CL-38043  23.944  41.043  13.621
72817ION    CL-38044  14.329  13.561   1.007
72818ION    CL-38045  40.957   0.374   4.188
72819ION    CL-38046   6.725  44.766   4.858
72820ION    CL-38047  32.468  26.054  12.464
72821ION    CL-38048   7.096  14.505   1.448
72822ION    CL-38049  20.665  37.515   5.157
72823ION    CL-38050  11.607  36.538  11.533
72824ION    CL-38051   1.768  32.196   3.188
72825ION    CL-38052  41.486  26.157  12.064
72826ION    CL-38053   9.998   2.644   3.170
72827ION    CL-38054   8.197  33.652   3.902
72828ION    CL-38055  38.543   1.553  11.979
72829ION    CL-38056   7.986   3.194   4.180
72830ION    CL-38057  39.899  32.191   1.159
72831ION    CL-38058  10.436  22.014  14.364
72832ION    CL-38059   6.017   2.253   1.834
72833ION    CL-38060  44.318  34.365   0.644
72834ION    CL-38061  31.933  11.832  11.233
72835ION    CL-38062  33.260  31.407   9.921
72836ION    CL-38063  31.887  19.988   1.370
72837ION    CL-38064  35.784   2.406   3.392
72838ION    CL-38065  33.926  37.876  14.960
72839ION    CL-38066  31.001  13.160  13.776
72840ION    CL-38067  37.150  24.026   2.724
72841ION    CL-38068   2.131  19.513  10.210
72842ION    CL-38069  37.048  36.181  11.032
72843ION    CL-38070  28.940  36.015  13.539
72844ION    CL-38071  10.494  10.514   2.619
72845ION    CL-38072   6.601   0.518   2.806
72846ION    CL-38073  11.442  22.061   3.124
72847ION    CL-38074  20.455  18.904   1.414
72848ION    CL-38075  25.540  38.771   2.213
72849ION    CL-38076  21.131  32.218   1.608
72850ION    CL-38077  43.404   6.647  11.361
72851ION    CL-38078  24.052  21.759   3.793
72852ION    CL-38079  37.423  13.659  14.511
72853ION    CL-38080   0.812  36.272  14.753
72854ION    CL-38081  22.475  36.582  14.409
72855ION    CL-38082  24.070  39.592  11.915
72856ION    CL-38083  15.662  28.220  13.291
72857ION    CL-38084   5.632  24.481  14.277
72858ION    CL-38085  23.366  36.474  14.360
72859ION    CL-38086  15.665  26.378  11.566
72860ION    CL-38087  21.739  42.891  11.238
72861ION    CL-38088  31.707   2.382   0.138
72862ION    CL-38089   4.738  15.664   2.623
72863ION    CL-38090  44.567  25.229  13.931
72864ION    CL-38091  38.637  22.831   0.434
72865ION    CL-38092  16.117  10.267  12.616
72866ION    CL-38093  14.365  24.017  12.381
72867ION    CL-38094   3.912  35.860   0.474
72868ION    CL-38095  14.777  29.866  11.226
72869ION    CL-38096   4.582   9.018  13.391
72870ION    CL-38097  25.947  40.382   4.129
72871ION    CL-38098  34.052  16.740   2.956
72872ION    CL-38099  13.481  22.426   0.102
72873ION    CL-38100   4.485  41.132   4.221
72874ION    CL-38101  36.633   2.146   1.860
72875ION    CL-38102  10.416  12.188   5.089
72876ION    CL-38103  32.753  17.071   3.240
72877ION    CL-38104  20.442   8.441  13.825
72878ION    CL-38105  21.902  21.854   2.338
72879ION    CL-38106   2.075   6.693   0.366
72880ION    CL-38107  13.149  11.905   4.107
72881ION    CL-38108   9.651  42.306  11.414
72882ION    CL-38109  34.836  13.906  10.271
72883ION    CL-38110   4.908  14.579  11.018
72884ION    CL-38111   3.803  38.448   2.187
72885ION    CL-38112  17.676   9.264  11.421
72886ION    CL-38113   9.126  43.273   1.422
72887ION    CL-38114   0.814  33.104   1.779
72888ION    CL-38115   7.451  11.565   4.652
72889ION    CL-38116   1.474   3.587  10.353
72890ION    CL-38117  31.740  20.405   3.533
72891ION    CL-38118   2.711  35.499   1.683
72892ION    CL-38119  10.097  40.109  13.984
72893ION    CL-38120  35.109   9.568  13.317
72894ION    CL-38121   1.712   9.397  13.652
72895ION    CL-38122  28.571  38.832  13.279
72896ION    CL-38123  39.310  31.557  13.292
72897ION    CL-38124  29.398  36.585   0.558
72898ION    CL-38125  18.733  12.099   1.380
72899ION    CL-38126  21.102  12.083  12.304
72900ION    CL-38127  13.952   6.035  11.669
72901ION    CL-38128  25.651  16.588   1.599
72902ION    CL-38129  26.384  15.074  11.363
72903ION    CL-38130  33.577   1.612   2.257
72904ION    CL-38131  35.911  41.775  11.664
72905ION    CL-38132  12.841  29.852   1.627
72906ION    CL-38133  36.096   8.749  10.627
72907ION    CL-38134  27.914  17.766  12.487
72908ION    CL-38135  37.006  27.849  14.041
72909ION    CL-38136  23.681  18.021   2.318
72910ION    CL-38137   3.258  31.233   9.989
72911ION    CL-38138  43.139  36.618   0.956
72912ION    CL-38139  24.432  32.582   1.313
72913ION    CL-38140   9.356  30.466  14.999
72914ION    CL-38141  23.568  39.565  11.195
72915ION    CL-38142  18.772  21.486   1.236
72916ION    CL-38143  12.920   5.961  13.211
72917ION    CL-38144  44.921  27.306   3.363
72918ION    CL-38145  42.794  37.061  12.120
72919ION    CL-38146  12.496  36.516  10.795
72920ION    CL-38147  12.979  40.341   4.081
72921ION    CL-38148  17.387  26.530   2.553
72922ION    CL-38149   2.522  40.821  10.717
72923ION    CL-38150  31.064   3.931  13.963
72924ION    CL-38151  44.504  20.344  14.153
72925ION    CL-38152  20.181  31.803  11.339
72926ION    CL-38153  36.520  29.153   0.199
72927ION    CL-38154  16.610  27.587   1.482
72928ION    CL-38155   2.030  12.628  14.485
72929ION    CL-38156  43.708  17.327   1.453
72930ION    CL-38157  21.188   0.053   2.310
72931ION    CL-38158  34.394   9.286  12.832
72932ION    CL-38159  24.991  20.075   0.316
72933ION    CL-38160  30.843  19.631  13.434
72934ION    CL-38161   9.268   1.971  13.119
72935ION    CL-38162  42.824  27.959   2.756
72936ION    CL-38163   2.506  12.796   0.880
72937ION    CL-38164   1.478  24.773  12.116
72938ION    CL-38165  20.467  39.582  13.772
72939ION    CL-38166  28.219  36.932   5.095
72940ION    CL-38167  29.278  18.938   0.804
72941ION    CL-38168   8.670  23.264   1.350
72942ION    CL-38169  17.827  11.719   1.829
72943ION    CL-38170  44.645  43.540   1.128
72944ION    CL-38171   2.482  17.883   4.073
72945ION    CL-38172  26.288  15.648  13.569
72946ION    CL-38173  43.228  27.540  10.699
72947ION    CL-38174  17.969  15.409   2.618
72948ION    CL-38175  35.545  44.295   3.870
72949ION    CL-38176  43.637  17.426   2.363
72950ION    CL-38177  36.419  25.943  12.171
72951ION    CL-38178  21.116  18.880   3.777
72952ION    CL-38179  33.975   3.352   0.638
72953ION    CL-38180  44.311   7.605   3.285
72954ION    CL-38181   1.014   3.075  13.060
72955ION    CL-38182  33.228  23.672  10.611
72956ION    CL-38183  28.116  17.875   4.087
72957ION    CL-38184   0.193   9.627  11.149
72958ION    CL-38185  38.085   4.553  14.289
72959ION    CL-38186  18.390  17.597  14.387
72960ION    CL-38187  12.318  32.090   0.791
72961ION    CL-38188  33.613  23.526  11.999
72962ION    CL-38189  37.528  36.624   3.139
72963ION    CL-38190   2.709  30.669   4.138
72964ION    CL-38191  29.496  13.538  12.395
72965ION    CL-38192  17.756  23.174   3.738
72966ION    CL-38193  22.243  25.476   1.006
72967ION    CL-38194  29.681   2.138   3.390
72968ION    CL-38195  29.568  12.036  11.996
72969ION    CL-38196  33.464  31.642  14.440
72970ION    CL-38197  39.078   4.252  12.931
72971ION    CL-38198  42.082  30.209   2.248
72972ION    CL-38199  38.503   3.912   2.321
72973ION    CL-38200  15.955  10.332  14.862
72974ION    CL-38201  22.679   2.942   2.502
72975ION    CL-38202  30.725  28.254   4.581
72976ION    CL-38203  43.094  42.524   0.622
72977ION    CL-38204   8.161   4.652   9.724
72978ION    CL-38205  30.274  42.137  11.389
72979ION    CL-38206  44.835  24.145  12.483
72980ION    CL-38207   3.653  43.158   0.189
72981ION    CL-38208  42.323  22.035  12.477
72982ION    CL-38209  16.219   9.124  11.141
72983ION    CL-38210   0.462  27.010   1.701
72984ION    CL-38211   1.151  42.586   3.381
72985ION    CL-38212  39.748  29.502  10.702
72986ION    CL-38213  28.925  42.517   2.169
72987ION    CL-38214  18.866  18.101   3.327
72988ION    CL-38215  12.878  12.968  12.819
72989ION    CL-38216  34.114  36.931  10.243
72990ION    CL-38217  38.878  39.282   4.874
72991ION    CL-38218  35.084  44.314   0.393
72992ION    CL-38219  34.679  22.164  13.932
72993ION    CL-38220   7.266  13.643   3.848
72994ION    CL-38221   3.216  41.108  11.123
72995ION    CL-38222  30.560  33.656  11.978
72996ION    CL-38223  17.267  21.110  12.879
72997ION    CL-38224   6.928   0.472   0.187
72998ION    CL-38225  32.091  38.265   1.329
72999ION    CL-38226  23.665  33.910  13.778
73000ION    CL-38227   4.609  23.883   2.821
73001ION    CL-38228  34.982  26.936   4.505
73002ION    CL-38229  26.142  21.607  13.317
73003ION    CL-38230   4.133   5.479   0.672
73004ION    CL-38231  30.694   0.140  13.802
73005ION    CL-38232  14.582   5.983   1.204
73006ION    CL-38233   0.911  16.715   3.319
73007ION    CL-38234  20.610  36.428   5.317
73008ION    CL-38235   4.461  23.179  12.985
73009ION    CL-38236  37.861  34.132  14.020
73010ION    CL-38237   2.261   0.719  13.151
73011ION    CL-38238  10.036  43.485  14.773
73012ION    CL-38239  22.579  11.327  14.756
73013ION    CL-38240  38.733  11.877  10.061
73014ION    CL-38241  33.638  10.465   0.852
73015ION    CL-38242  26.887   7.382   0.327
73016ION    CL-38243  14.008  41.346  12.018
73017ION    CL-38244   0.998  30.942   2.198
73018ION    CL-38245  24.489  40.332  13.593
73019ION    CL-38246   2.738  21.443   1.807
73020ION    CL-38247  31.450  20.862   1.663
73021ION    CL-38248  39.334  28.160  13.046
73022ION    CL-38249   5.936  18.468   5.131
73023ION    CL-38250  36.522   8.845   3.986
73024ION    CL-38251  17.513  34.148  12.157
73025ION    CL-38252   1.459  19.457  14.192
73026ION    CL-38253   4.141   4.053  13.921
73027ION    CL-38254  44.727   0.521  11.297
73028ION    CL-38255  38.224  19.148  14.772
73029ION    CL-38256  24.848  10.436   0.378
73030ION    CL-38257   7.368  19.206  12.812
73031ION    CL-38258  33.595  32.944   0.880
73032ION    CL-38259  36.319  14.759   2.319
73033ION    CL-38260  31.047  32.071  12.022
73034ION    CL-38261  40.892  29.688   0.126
73035ION    CL-38262  39.552  41.459  13.534
73036ION    CL-38263   4.422  10.363  11.631
73037ION    CL-38264  38.692  23.734   0.443
73038ION    CL-38265  36.763  19.148  13.955
73039ION    CL-38266  22.909  24.372  12.507
73040ION    CL-38267  20.370  30.535   2.519
73041ION    CL-38268  11.221   7.327  12.609
73042ION    CL-38269  30.711  38.812  10.761
73043ION    CL-38270  34.460  29.953  11.247
73044ION    CL-38271  34.382  33.015  14.416
73045ION    CL-38272  11.924  23.110  10.424
73046ION    CL-38273  32.723  41.678   4.571
73047ION    CL-38274  41.856  21.040   3.299
73048ION    CL-38275  14.048  36.664  11.550
73049ION    CL-38276  37.905  35.795   0.987
73050ION    CL-38277   5.524  34.785   2.074
73051ION    CL-38278  12.369  11.610   4.747
73052ION    CL-38279   0.660  27.800   0.943
73053ION    CL-38280  24.906  22.423   1.884
73054ION    CL-38281  30.246  19.142   0.945
73055ION    CL-38282  35.798  23.007  13.429
73056ION    CL-38283  14.301   6.578  13.373
73057ION    CL-38284  30.111  29.494  13.051
73058ION    CL-38285  24.512  37.520   1.860
73059ION    CL-38286  39.131   3.902   1.451
73060ION    CL-38287   1.754   8.244  12.982
73061ION    CL-38288   4.156  14.785   1.951
73062ION    CL-38289  16.609  32.569   2.865
73063ION    CL-38290  33.445  31.995  11.695
73064ION    CL-38291  38.885   5.622   2.762
73065ION    CL-38292  21.429  16.473   4.140
73066ION    CL-38293  29.433  23.334  11.352
73067ION    CL-38294  41.833  18.153   2.104
73068ION    CL-38295  20.518  15.242  12.132
73069ION    CL-38296  27.891  43.592   3.836
73070ION    CL-38297  32.186   0.997   4.585
73071ION    CL-38298   2.922   1.313  12.262
73072ION    CL-38299  17.009  35.076   3.910
73073ION    CL-38300  28.631  30.297  10.246
73074ION    CL-38301   7.196  28.583   2.232
73075ION    CL-38302  42.994  31.524   3.902
73076ION    CL-38303  14.595  16.756  12.410
73077ION    CL-38304  38.700  32.119  12.123
73078ION    CL-38305   4.467  31.402   1.261
73079ION    CL-38306  11.557  17.567  13.467
73080ION    CL-38307  10.684  21.671   2.026
73081ION    CL-38308  35.622  21.778  14.017
73082ION    CL-38309   8.163  43.906  11.906
73083ION    CL-38310  21.503  11.868  13.094
73084ION    CL-38311  29.369  40.641  11.025
73085ION    CL-38312   0.826  41.125  13.919
73086ION    CL-38313  24.967   5.851  10.964
73087ION    CL-38314  26.812  32.461   1.907
73088ION    CL-38315   7.977  24.608   2.937
73089ION    CL-38316  28.161  39.742   4.540
73090ION    CL-38317  42.968  14.374  11.503
73091ION    CL-38318  38.611  40.822   2.286
73092ION    CL-38319  26.060  37.489   0.799
73093ION    CL-38320  29.212  28.495  13.545
73094ION    CL-38321  16.072   2.958  14.843
73095ION    CL-38322  20.133  23.707  14.700
73096ION    CL-38323  22.569  31.561  13.009
73097ION    CL-38324  35.912  31.024  12.049
73098ION    CL-38325  44.016   5.544   2.720
73099ION    CL-38326  16.700  41.517  11.249
73100ION    CL-38327  19.561  41.762  13.504
73101ION    CL-38328  36.332  36.203  10.310
73102ION    CL-38329   2.224  43.017   0.410
73103ION    CL-38330  31.039  17.193   0.425
73104ION    CL-38331  20.041  42.807   0.900
73105ION    CL-38332  40.801  29.516   3.303
73106ION    CL-38333  30.286   1.059  12.115
73107ION    CL-38334   5.170   8.816   3.319
73108ION    CL-38335  18.762  38.250   2.666
73109ION    CL-38336  21.051  44.246   0.306
73110ION    CL-38337  26.587   7.369   3.227
73111ION    CL-38338  32.135  34.390  14.861
73112ION    CL-38339  13.840  10.762  14.787
73113ION    CL-38340  23.731  22.156   0.436
73114ION    CL-38341   3.806   1.232  11.178
73115ION    CL-38342  21.349  11.106   0.353
73116ION    CL-38343   3.601  35.771   4.096
73117ION    CL-38344  41.704   2.401  11.870
73118ION    CL-38345  16.188  24.005  14.601
73119ION    CL-38346   8.447   1.037   1.105
73120ION    CL-38347  17.351  39.725  11.355
73121ION    CL-38348  16.930  24.911  14.073
73122ION    CL-38349  31.944  17.659   3.212
73123ION    CL-38350  31.543   8.606   4.489
73124ION    CL-38351  38.915  30.971  12.888
73125ION    CL-38352  44.390  13.554   3.199
73126ION    CL-38353  23.972  27.161   1.920
73127ION    CL-38354  31.541   1.268   2.787
73128ION    CL-38355  42.675  13.014  10.772
73129ION    CL-38356  43.575  14.211  14.526
73130ION    CL-38357   0.888  20.209   1.350
73131ION    CL-38358   1.003  16.728  14.555
73132ION    CL-38359  14.684  34.796   3.793
73133ION    CL-38360  18.228  19.676   1.469
73134ION    CL-38361  30.079  34.558  13.499
73135ION    CL-38362   8.575  13.200  14.172
73136ION    CL-38363  12.072  22.406  13.422
73137ION    CL-38364  26.702  31.704   1.387
73138ION    CL-38365  14.926  39.368   4.998
73139ION    CL-38366  15.587  18.573   4.442
73140ION    CL-38367  14.534  38.943  11.757
73141ION    CL-38368  38.069   3.155   1.801
73142ION    CL-38369  41.575   3.794  12.463
73143ION    CL-38370   0.133  10.472  11.055
73144ION    CL-38371  37.597  22.104  13.766
73145ION    CL-38372  18.819   3.387  12.846
73146ION    CL-38373  12.976  41.279   0.414
73147ION    CL-38374  13.328  21.236  14.444
73148ION    CL-38375  41.763  19.245  10.211
73149ION    CL-38376  19.259   7.195   2.514
73150ION    CL-38377   9.134  16.170   1.906
73151ION    CL-38378   2.752  35.653  11.637
73152ION    CL-38379  31.669   2.951   0.959
73153ION    CL-38380  44.008  20.197   1.149
73154ION    CL-38381  12.800  28.233  10.758
73155ION    CL-38382  21.923   5.293   4.529
73156ION    CL-38383  27.646  38.508   4.193
73157ION    CL-38384  36.373   1.787   3.912
73158ION    CL-38385   2.699  35.196   4.990
73159ION    CL-38386  30.381   5.839  12.707
73160ION    CL-38387  11.250  22.193   1.550
73161ION    CL-38388  12.810   6.314   3.995
73162ION    CL-38389   2.314  28.076  11.810
73163ION    CL-38390  10.149  31.664   3.537
73164ION    CL-38391  23.080  35.285   3.313
73165ION    CL-38392  43.199  22.887   3.840
73166ION    CL-38393  36.210  32.438   4.970
73167ION    CL-38394  28.362  34.811  14.544
73168ION    CL-38395   1.088  38.948   9.762
73169ION    CL-38396  11.763  30.225  10.539
73170ION    CL-38397  21.947   7.802  11.057
73171ION    CL-38398  16.237  23.585   0.518
73172ION    CL-38399   7.287  41.841   1.445
73173ION    CL-38400  36.083  35.949  11.126
73174ION    CL-38401  24.447  44.726   3.427
73175ION    CL-38402  32.245   1.431  14.199
73176ION    CL-38403  28.907  42.526  13.393
73177ION    CL-38404  39.416  43.716  11.382
73178ION    CL-38405  20.959  12.375  14.478
73179ION    CL-38406  26.005  39.377  14.241
73180ION    CL-38407   1.595  40.276  13.481
73181ION    CL-38408  20.008   7.597  14.156
73182ION    CL-38409  10.889   6.374   3.724
73183ION    CL-38410  38.839  15.861   4.385
73184ION    CL-38411  33.158  31.084   0.562
73185ION    CL-38412  23.006  22.744  10.459
73186ION    CL-38413   3.854  34.401  11.255
73187ION    CL-38414   3.420  30.356   2.356
73188ION    CL-38415  16.965  11.631   0.863
73189ION    CL-38416   8.038  13.634   1.353
73190ION    CL-38417  19.606  15.191  14.783
73191ION    CL-38418   3.992  44.112   0.471
73192ION    CL-38419  37.204  34.489   1.478
73193ION    CL-38420  23.433   8.435  13.755
73194ION    CL-38421   7.094  32.188   0.680
73195ION    CL-38422  17.193  23.673   2.324
73196ION    CL-38423  35.257   0.956   0.701
73197ION    CL-38424  31.923  15.775   2.821
73198ION    CL-38425  41.011   2.678   5.109
73199ION    CL-38426  10.152  12.557   1.662
73200ION    CL-38427  35.127  17.996   4.907
73201ION    CL-38428  18.042  25.361   3.353
73202ION    CL-38429  27.922  16.365   9.746
73203ION    CL-38430   9.423   0.057  13.053
73204ION    CL-38431  30.149  26.375   2.620
73205ION    CL-38432   6.001  13.749  11.249
73206ION    CL-38433  27.872  41.262   5.194
73207ION    CL-38434  13.109  16.429   3.352
73208ION    CL-38435  41.089  27.466  13.193
73209ION    CL-38436  32.533  41.903   2.362
73210ION    CL-38437  16.818  38.530   1.946
73211ION    CL-38438  29.812   1.807   2.677
73212ION    CL-38439  15.706  10.290   1.465
73213ION    CL-38440  21.219   6.784   0.011
73214ION    CL-38441  43.733  34.577   4.389
73215ION    CL-38442  37.728  35.119  13.926
73216ION    CL-38443   7.571  32.679   4.966
73217ION    CL-38444   5.494  36.303   0.934
73218ION    CL-38445  23.897  39.724   3.779
73219ION    CL-38446   3.248  32.482  13.052
73220ION    CL-38447   9.491   1.666  12.278
73221ION    CL-38448   4.326  33.849  10.158
73222ION    CL-38449  20.081   6.243  12.054
73223ION    CL-38450  38.617  42.265   1.855
73224ION    CL-38451  44.545  31.935   3.860
73225ION    CL-38452  35.587   2.650  13.241
73226ION    CL-38453  25.900  14.460   4.119
73227ION    CL-38454  23.702  10.517   3.252
73228ION    CL-38455  34.319  35.486   2.208
73229ION    CL-38456  20.926  38.797  10.098
73230ION    CL-38457  15.385  23.721   1.640
73231ION    CL-38458  32.850  23.939   3.469
73232ION    CL-38459  27.457  22.544   2.602
73233ION    CL-38460  26.104  42.812  12.854
73234ION    CL-38461  27.382  11.293  11.831
73235ION    CL-38462   1.814   5.479  12.816
73236ION    CL-38463  18.339  23.491  13.477
73237ION    CL-38464  25.463  18.300   4.566
73238ION    CL-38465  25.006  17.524  12.179
73239ION    CL-38466  15.998  24.991   0.049
73240ION    CL-38467  40.597  30.012  10.845
73241ION    CL-38468  30.212  17.405   1.452
73242ION    CL-38469   9.280  39.375   3.091
73243ION    CL-38470  11.962  18.574   4.202
73244ION    CL-38471   5.544  33.446  13.431
73245ION    CL-38472  35.811  33.362   1.180
73246ION    CL-38473   1.616  36.783   1.732
73247ION    CL-38474   5.863  12.080  13.795
73248ION    CL-38475  23.513  12.715  14.350
73249ION    CL-38476  16.282   3.379  10.653
73250ION    CL-38477  20.618  39.879  10.366
73251ION    CL-38478  24.889  31.167   3.920
73252ION    CL-38479  27.442  35.181  14.670
73253ION    CL-38480  31.629   1.158   1.309
73254ION    CL-38481   0.382   7.749  10.450
73255ION    CL-38482   1.346  13.330   3.013
73256ION    CL-38483  32.020  21.572   2.479
73257ION    CL-38484  12.874  30.312   5.286
73258ION    CL-38485  20.498  15.010   2.052
73259ION    CL-38486   2.483  32.578  14.838
73260ION    CL-38487  44.478   7.766   0.064
73261ION    CL-38488  34.416  38.598   2.597
73262ION    CL-38489  43.292  35.823  14.290
73263ION    CL-38490  32.689  31.686  11.109
73264ION    CL-38491  18.830   7.033  13.386
73265ION    CL-38492  22.283  42.362   2.109
73266ION    CL-38493  41.117   5.775  11.996
73267ION    CL-38494   1.060  33.367   0.375
73268ION    CL-38495  34.940  19.137  10.528
73269ION    CL-38496  22.997  42.442  13.315
73270ION    CL-38497  24.549  43.527  10.922
73271ION    CL-38498  16.590   7.491  14.559
73272ION    CL-38499  42.030  40.326   1.325
73273ION    CL-38500  13.106  17.502  12.579
73274ION    CL-38501  33.851   9.863   2.159
73275ION    CL-38502   7.393  14.999  13.735
73276ION    CL-38503  37.269  25.497   2.832
73277ION    CL-38504  11.510  19.088  12.506
73278ION    CL-38505  14.630   2.952  12.020
73279ION    CL-38506  26.377  37.935  13.439
73280ION    CL-38507  27.543  19.512   3.305
73281ION    CL-38508  44.365  22.201   3.224
73282ION    CL-38509  12.202  44.099   4.839
73283ION    CL-38510  25.608  41.669   2.591
73284ION    CL-38511  12.556  39.911  10.716
73285ION    CL-38512  22.555  12.095   2.740
73286ION    CL-38513   7.811   6.775   4.452
73287ION    CL-38514   8.944  39.999   1.504
73288ION    CL-38515  43.025  18.020  10.657
73289ION    CL-38516  42.526  28.735   2.528
73290ION    CL-38517  16.572  22.370   1.344
73291ION    CL-38518  34.440  15.585   0.790
73292ION    CL-38519  16.391  35.262  11.180
73293ION    CL-38520  29.541   5.315   2.845
73294ION    CL-38521  28.963  33.803   2.208
73295ION    CL-38522  24.371  37.589  12.980
73296ION    CL-38523   5.907  23.096   3.799
73297ION    CL-38524  13.858  23.272   3.468
73298ION    CL-38525  14.794  12.361  14.440
73299ION    CL-38526  44.738  22.916   3.815
73300ION    CL-38527   1.821  15.086  14.358
73301ION    CL-38528  37.131  25.544  14.646
73302ION    CL-38529  22.546  38.064  14.696
73303ION    CL-38530   3.984  38.640   3.672
73304ION    CL-38531  29.021  42.562   4.971
73305ION    CL-38532  34.999  44.606   4.667
73306ION    CL-38533  40.064   2.606  10.761
73307ION    CL-38534  14.091  35.608  14.855
73308ION    CL-38535  40.624  23.586  11.513
73309ION    CL-38536  11.601  40.944   4.151
73310ION    CL-38537  14.348  25.334  11.047
73311ION    CL-38538  20.503  33.381   3.638
73312ION    CL-38539  39.649   1.819  11.283
73313ION    CL-38540  17.505   4.345   1.795
73314ION    CL-38541   3.317  27.029  13.310
73315ION    CL-38542  41.414  23.384   2.109
73316ION    CL-38543  17.161  37.049   4.085
73317ION    CL-38544  36.962  32.828   0.940
73318ION    CL-38545   9.240  16.373   2.879
73319ION    CL-38546  39.646  30.448   0.780
73320ION    CL-38547  26.438  31.845  10.329
73321ION    CL-38548  44.471  18.550  12.168
73322ION    CL-38549  23.378  40.788  11.896
73323ION    CL-38550  27.222  25.017   2.702
73324ION    CL-38551  42.779  24.662   1.175
73325ION    CL-38552   0.217  34.182  12.544
73326ION    CL-38553  19.425   5.276   0.053
73327ION    CL-38554  30.933  38.646  14.198
73328ION    CL-38555  42.915   9.690   4.917
73329ION    CL-38556  36.066  36.738  14.109
73330ION    CL-38557  31.506  36.248   1.947
73331ION    CL-38558  28.226  14.446   1.627
73332ION    CL-38559  11.267  39.579  12.124
73333ION    CL-38560  41.867  13.956   3.146
73334ION    CL-38561  44.457   3.659   1.877
73335ION    CL-38562  24.043  20.180   4.881
73336ION    CL-38563  30.145  15.805   2.809
73337ION    CL-38564  40.884   1.978  11.795
73338ION    CL-38565  23.471  25.637  12.226
73339ION    CL-38566  27.561  37.710   3.842
73340ION    CL-38567  27.655  12.684  13.331
73341ION    CL-38568  19.483  26.088  12.698
73342ION    CL-38569  11.044  30.632   3.851
73343ION    CL-38570   0.478   7.868   4.098
73344ION    CL-38571  24.905  26.536   5.093
73345ION    CL-38572   9.084  32.732  10.406
73346ION    CL-38573  16.454   7.144   2.949
73347ION    CL-38574  27.753  14.550   0.848
73348ION    CL-38575  22.004  41.442   2.385
73349ION    CL-38576  14.080  30.948  10.657
73350ION    CL-38577  32.482  43.841  10.175
73351ION    CL-38578  13.084  23.377  14.867
73352ION    CL-38579  13.760   4.611  12.720
73353ION    CL-38580  16.301  28.075  14.047
73354ION    CL-38581  44.283  31.439  14.519
73355ION    CL-38582  22.647  44.637   1.338
73356ION    CL-38583  19.417   2.382   0.168
73357ION    CL-38584  42.471  32.686  12.114
73358ION    CL-38585   9.121  11.705   1.769
73359ION    CL-38586  28.196  29.911   3.495
73360ION    CL-38587  17.998  14.911   5.041
73361ION    CL-38588   8.061  26.260   2.175
73362ION    CL-38589  20.472  36.970   4.488
73363ION    CL-38590   7.810  10.938  11.783
73364ION    CL-38591  24.218  11.366   3.139
73365ION    CL-38592  11.364  28.024   0.244
73366ION    CL-38593  25.741  10.027  13.941
73367ION    CL-38594  28.612  33.960  12.645
73368ION    CL-38595  17.745  26.266  12.388
73369ION    CL-38596  18.738  36.116   1.936
73370ION    CL-38597   2.338   0.945   3.390
73371ION    CL-38598  15.021  21.767  14.771
73372ION    CL-38599  22.211  15.215   2.465
73373ION    CL-38600  12.440  21.057  13.370
73374ION    CL-38601  14.782  17.998   0.064
73375ION    CL-38602   1.139  37.500   2.044
73376ION    CL-38603   3.286  25.887  11.812
73377ION    CL-38604  35.046  19.630   4.570
73378ION    CL-38605  28.827  44.928   2.571
73379ION    CL-38606  32.337  32.027  12.556
73380ION    CL-38607  34.604  18.324   0.240
73381ION    CL-38608  17.587  14.230   4.635
73382ION    CL-38609  40.038   7.996  13.739
73383ION    CL-38610  24.930  18.764   3.770
73384ION    CL-38611   1.223  25.809  12.794
73385ION    CL-38612  43.408   3.808  11.692
73386ION    CL-38613   3.637  21.401   1.993
73387ION    CL-38614  35.041  31.226   5.028
73388ION    CL-38615  16.178  28.083   2.960
73389ION    CL-38616  36.737  38.167   0.118
73390ION    CL-38617  43.986  34.233   1.573
73391ION    CL-38618  14.772   1.968  10.929
73392ION    CL-38619  34.809  23.998   0.499
73393ION    CL-38620  23.464  37.114  10.930
73394ION    CL-38621  40.348  42.993   1.655
73395ION    CL-38622   3.700   9.745  14.596
73396ION    CL-38623  17.879   2.216  14.223
73397ION    CL-38624  42.814   9.643   1.693
73398ION    CL-38625  30.629   4.564   3.589
73399ION    CL-38626  24.188  35.480   2.672
73400ION    CL-38627  15.336  37.822  11.589
73401ION    CL-38628  12.190  24.209  10.915
73402ION    CL-38629  16.747  27.086   2.181
73403ION    CL-38630  37.803   7.068  10.739
73404ION    CL-38631  40.850  17.933  13.793
73405ION    CL-38632  36.211   1.790  13.425
73406ION    CL-38633   2.856  10.387  11.105
73407ION    CL-38634   2.794   7.290  11.299
73408ION    CL-38635  19.786  12.276   4.458
73409ION    CL-38636   3.957   9.761  13.630
73410ION    CL-38637  16.512  36.345  12.840
73411ION    CL-38638   3.892  26.248   4.241
73412ION    CL-38639  42.333  40.341   0.372
73413ION    CL-38640   9.567  43.529  12.142
73414ION    CL-38641  42.308   7.052  11.986
73415ION    CL-38642  18.513  38.542  14.304
73416ION    CL-38643  29.756  34.114  14.156
73417ION    CL-38644  32.906   5.967  13.673
73418ION    CL-38645  38.157  24.271   5.030
73419ION    CL-38646  33.803  28.345   0.235
73420ION    CL-38647  18.358  10.889   4.572
73421ION    CL-38648  37.935  24.472   4.076
73422ION    CL-38649  37.293  37.521  11.995
73423ION    CL-38650   6.950  16.305   4.051
73424ION    CL-38651   7.702  44.485  11.362
73425ION    CL-38652  21.062  14.415  13.628
73426ION    CL-38653   4.623  12.657  13.093
73427ION    CL-38654  44.699   5.843  13.931
73428ION    CL-38655  14.571  29.526   0.432
73429ION    CL-38656   0.843  16.465   2.516
73430ION    CL-38657   3.462  32.267   4.675
73431ION    CL-38658  44.390  42.504  13.523
73432ION    CL-38659  21.604   0.946   0.194
73433ION    CL-38660  20.572   3.631  14.406
73434ION    CL-38661   6.251  34.007  14.746
73435ION    CL-38662  18.236   0.507  13.271
73436ION    CL-38663  22.865  19.036  13.581
73437ION    CL-38664   3.290   6.020   0.392
73438ION    CL-38665  15.653  34.471  10.213
73439ION    CL-38666  44.083  26.322   3.196
73440ION    CL-38667  41.495  43.599   4.127
73441ION    CL-38668  32.438  38.069  12.977
73442ION    CL-38669   3.444  18.622  12.141
73443ION    CL-38670  40.192  43.374  10.424
73444ION    CL-38671  15.085   4.112  11.798
73445ION    CL-38672  25.514  26.715  10.751
73446ION    CL-38673  44.376  27.075  14.868
73447ION    CL-38674  20.989  15.461   0.790
73448ION    CL-38675  22.782  28.669  11.250
73449ION    CL-38676  26.114  30.204   0.355
73450ION    CL-38677  41.423   9.419   2.378
73451ION    CL-38678  13.540  25.229   1.864
73452ION    CL-38679  36.596  27.097   3.278
73453ION    CL-38680   1.451   3.796   0.836
73454ION    CL-38681  17.040  42.279  12.047
73455ION    CL-38682  22.246  38.832   1.741
73456ION    CL-38683  23.505   7.384   3.707
73457ION    CL-38684  26.939  42.943  14.764
73458ION    CL-38685  12.316  13.614   2.420
73459ION    CL-38686  39.059  19.276  14.236
73460ION    CL-38687  29.056   1.236   0.698
73461ION    CL-38688  40.939  23.580   4.978
73462ION    CL-38689  38.481  38.200  11.328
73463ION    CL-38690  20.448  30.966  11.569
73464ION    CL-38691  27.654  11.381  13.591
73465ION    CL-38692  39.865  14.873  11.588
73466ION    CL-38693  13.835  27.656   0.194
73467ION    CL-38694  35.910   5.464   2.417
73468ION    CL-38695  26.882  40.632  13.100
73469ION    CL-38696  27.920  37.009  12.646
73470ION    CL-38697  14.577  35.012   1.066
73471ION    CL-38698   5.175   8.612  13.894
73472ION    CL-38699  34.493  26.295  14.905
73473ION    CL-38700  32.291  33.164  11.120
73474ION    CL-38701  33.214  33.074  13.936
73475ION    CL-38702   6.634  38.486  13.350
73476ION    CL-38703  21.422   4.658   1.677
73477ION    CL-38704  14.481  42.345   2.149
73478ION    CL-38705  25.040  37.933   0.913
73479ION    CL-38706  16.375  28.854  13.593
73480ION    CL-38707  15.007  14.779   0.959
73481ION    CL-38708  22.956   3.593   0.284
73482ION    CL-38709  35.282  13.900   2.041
73483ION    CL-38710  20.476  42.268  13.489
73484ION    CL-38711  43.694  25.494   0.306
73485ION    CL-38712  20.279   7.277  10.635
73486ION    CL-38713  10.948   9.129  11.168
73487ION    CL-38714  34.509  29.878  12.268
73488ION    CL-38715  36.475  40.005   3.132
73489ION    CL-38716  28.751  21.168  10.901
73490ION    CL-38717   5.304   6.617  14.242
73491ION    CL-38718   3.685  38.260   5.043
73492ION    CL-38719   3.705  24.012   1.249
73493ION    CL-38720  39.657   7.365   2.777
73494ION    CL-38721  30.406   2.443   4.007
73495ION    CL-38722  41.836  38.561  13.672
73496ION    CL-38723   0.798  33.169  11.136
73497ION    CL-38724   8.642  13.101   1.554
73498ION    CL-38725   2.213  20.662   0.896
73499ION    CL-38726  32.403  41.539  14.773
73500ION    CL-38727  42.552  18.670  11.253
73501ION    CL-38728  36.714  20.191  10.384
73502ION    CL-38729  11.821   0.038  14.779
73503ION    CL-38730  14.608  40.535   4.080
73504ION    CL-38731  24.665   1.767   1.361
73505ION    CL-38732   3.433  11.647   4.081
73506ION    CL-38733   8.808  29.449  10.675
73507ION    CL-38734   8.183   9.041  13.852
73508ION    CL-38735  36.583  17.935  12.979
73509ION    CL-38736  29.008  23.018   4.030
73510ION    CL-38737  20.029  15.972  11.611
73511ION    CL-38738  13.996  27.173  13.337
73512ION    CL-38739  37.913  44.016  12.484
73513ION    CL-38740   0.930  43.779  13.269
73514ION    CL-38741  29.372  29.091  11.040
73515ION    CL-38742   2.181   5.434   0.978
73516ION    CL-38743  44.053  29.220  12.623
73517ION    CL-38744  19.323  12.294  13.551
73518ION    CL-38745  40.726   1.057  14.092
73519ION    CL-38746  24.758  19.475  13.078
73520ION    CL-38747  35.670  27.589  10.794
73521ION    CL-38748  17.574  19.781   3.754
73522ION    CL-38749   9.322  13.929  13.037
73523ION    CL-38750   5.199   9.108  11.889
73524ION    CL-38751   4.565  43.273   0.583
73525ION    CL-38752  44.880  14.383   1.373
73526ION    CL-38753  26.954   9.813   0.303
73527ION    CL-38754   5.458  22.113  11.310
73528ION    CL-38755  33.706   6.508   1.373
73529ION    CL-38756  43.561   8.263  13.820
73530ION    CL-38757  17.715  24.890   4.062
73531ION    CL-38758  15.214  14.692  12.805
73532ION    CL-38759  41.430  28.067  12.470
73533ION    CL-38760  33.712  25.318  12.374
73534ION    CL-38761  13.176  29.246   1.047
73535ION    CL-38762  35.327  31.693   3.314
73536ION    CL-38763  16.389  22.060   4.223
73537ION    CL-38764  20.317  16.704  13.932
73538ION    CL-38765   2.065  24.436   3.764
73539ION    CL-38766   8.695  13.286  12.121
73540ION    CL-38767  28.242  10.776  11.589
73541ION    CL-38768  40.109  29.030   2.770
73542ION    CL-38769   5.508  38.813  14.382
73543ION    CL-38770  23.867  13.006   1.518
73544ION    CL-38771  33.684   2.916   3.680
73545ION    CL-38772  17.500   9.857  12.076
73546ION    CL-38773  24.242  38.530   1.763
73547ION    CL-38774  19.073  43.921  11.102
73548ION    CL-38775  41.432  37.958   3.781
73549ION    CL-38776  27.953  23.390  11.515
73550ION    CL-38777   1.199   1.178  13.960
73551ION    CL-38778   6.312  40.998   4.143
73552ION    CL-38779  29.022  38.479  10.682
73553ION    CL-38780  23.861   0.112   2.934
73554ION    CL-38781  37.541  23.034  13.019
73555ION    CL-38782   9.668  19.094  12.435
73556ION    CL-38783  22.318  33.938   4.605
73557ION    CL-38784  11.027  27.177   0.681
73558ION    CL-38785  39.289  20.663   3.720
73559ION    CL-38786  34.675  39.144   2.872
73560ION    CL-38787  17.460  29.257   0.965
73561ION    CL-38788  16.657  21.284   1.390
73562ION    CL-38789   0.214  20.571   3.133
73563ION    CL-38790  42.108  20.589  13.963
73564ION    CL-38791  25.389  35.688  14.324
73565ION    CL-38792  41.757   3.460   4.139
73566ION    CL-38793  26.190   8.489  14.115
73567ION    CL-38794  37.796  26.384  11.208
73568ION    CL-38795  44.417  25.660  10.443
73569ION    CL-38796  27.917  36.338   1.894
73570ION    CL-38797  35.269  43.807   5.124
73571ION    CL-38798  22.185  38.961   0.024
73572ION    CL-38799   8.416  31.844   4.204
73573ION    CL-38800  44.165   3.214  12.064
73574ION    CL-38801   0.774  41.477  12.985
73575ION    CL-38802  41.875   4.285  11.592
73576ION    CL-38803  44.444  28.739  14.892
73577ION    CL-38804  23.661   1.185   2.738
73578ION    CL-38805  30.134  13.590  13.164
73579ION    CL-38806  39.248   2.809  14.445
73580ION    CL-38807  33.879  14.195  10.249
73581ION    CL-38808  10.637  39.501  11.351
73582ION    CL-38809  37.438  42.727  10.715
73583ION    CL-38810  41.337  15.610   4.952
73584ION    CL-38811  10.825   2.136   4.978
73585ION    CL-38812  26.649   9.733  11.162
73586ION    CL-38813  43.120  17.719  12.293
73587ION    CL-38814  22.753  13.844   4.151
73588ION    CL-38815  35.261  10.864   3.448
73589ION    CL-38816   2.605  21.802  12.395
73590ION    CL-38817  18.031  44.375  14.530
73591ION    CL-38818   7.279   3.970   0.802
73592ION    CL-38819  38.844   6.840   1.020
73593ION    CL-38820  21.031  40.373   2.273
73594ION    CL-38821  36.896  21.187   1.027
73595ION    CL-38822   3.215  27.997   0.240
73596ION    CL-38823  27.792  34.367   2.598
73597ION    CL-38824   0.179  17.668   1.660
73598ION    CL-38825  24.251  21.615  11.417
73599ION    CL-38826  17.045  44.990  11.101
73600ION    CL-38827   9.636  32.492   4.632
73601ION    CL-38828  19.501   1.043  13.833
73602ION    CL-38829  14.504  40.090  13.008
73603ION    CL-38830  44.375  19.676  13.283
73604ION    CL-38831   4.993  24.066  12.136
73605ION    CL-38832  27.755  21.043  10.712
73606ION    CL-38833   3.157  18.406   2.471
73607ION    CL-38834  29.983   5.607   3.693
73608ION    CL-38835  30.797  25.421   9.725
73609ION    CL-38836  19.529   7.212   0.366
73610ION    CL-38837  24.450  10.128   2.382
73611ION    CL-38838  16.227  26.899  10.543
73612ION    CL-38839  35.597  20.677   4.504
73613ION    CL-38840   0.359  39.221   4.884
73614ION    CL-38841  11.086  24.949  12.423
73615ION    CL-38842  10.709  43.542   4.672
73616ION    CL-38843   8.315   4.876   3.675
73617ION    CL-38844  33.217   0.275   2.175
73618ION    CL-38845   9.342   0.779  13.848
73619ION    CL-38846  37.109  42.945   4.150
73620ION    CL-38847  10.743   0.264   0.215
73621ION    CL-38848  27.821  38.324  13.305
73622ION    CL-38849   6.674  21.093  13.853
73623ION    CL-38850  18.028   8.700  14.738
73624ION    CL-38851  35.334  33.914   0.703
73625ION    CL-38852  39.087  17.401   0.932
73626ION    CL-38853  29.769  36.236  12.452
73627ION    CL-38854   5.787   5.224  13.147
73628ION    CL-38855  35.816  36.620   2.746
73629ION    CL-38856   0.989  44.344  14.473
73630ION    CL-38857  42.145  11.714   1.998
73631ION    CL-38858  13.749  11.646  10.725
73632ION    CL-38859  36.157  42.573   2.744
73633ION    CL-38860   6.399  22.362  11.538
73634ION    CL-38861  39.862  25.074  10.731
73635ION    CL-38862  10.417  23.079   4.363
73636ION    CL-38863  29.119  15.827   1.007
73637ION    CL-38864  19.519  14.533  12.204
73638ION    CL-38865  27.346   0.631   5.164
73639ION    CL-38866   5.680   6.441   0.067
73640ION    CL-38867  15.552  35.772  10.724
73641ION    CL-38868  42.307  31.703   3.198
73642ION    CL-38869   3.662  38.405  11.040
73643ION    CL-38870  38.181  13.134   3.447
73644ION    CL-38871   2.732  15.648  12.014
73645ION    CL-38872  31.593  23.073  13.363
73646ION    CL-38873  20.413  38.100  11.456
73647ION    CL-38874  18.280   6.465  12.948
73648ION    CL-38875  12.609  32.801  13.591
73649ION    CL-38876   1.237  25.208   3.722
73650ION    CL-38877   3.327  15.412  12.671
73651ION    CL-38878  41.327  18.800   4.426
73652ION    CL-38879  43.374  26.713  14.891
73653ION    CL-38880  12.952  28.977   1.826
73654ION    CL-38881  36.647  27.797  10.850
73655ION    CL-38882   0.096  15.777   4.904
73656ION    CL-38883  16.844   9.250  12.663
73657ION    CL-38884  13.607  15.292  14.284
73658ION    CL-38885  37.774  20.753   3.325
73659ION    CL-38886  29.995  24.004   4.354
73660ION    CL-38887   6.962   1.869   1.352
73661ION    CL-38888  18.097  39.194   0.506
73662ION    CL-38889  10.697   7.508  14.434
73663ION    CL-38890   1.965  40.837   2.726
73664ION    CL-38891  12.164   8.535  14.288
73665ION    CL-38892  34.992  24.943   2.806
73666ION    CL-38893  42.018  42.885  11.998
73667ION    CL-38894  19.266  33.381  14.794
73668ION    CL-38895   8.200  22.384   1.425
73669ION    CL-38896   5.141   4.235  11.561
73670ION    CL-38897  35.783  18.318  11.382
73671ION    CL-38898   3.167  10.361  13.509
73672ION    CL-38899  34.061  24.542  12.057
73673ION    CL-38900   2.496  41.538   3.203
73674ION    CL-38901   3.408   2.682   4.347
73675ION    CL-38902  26.032  18.933  11.649
73676ION    CL-38903  18.564  30.476  10.326
73677ION    CL-38904  34.194   0.453   2.292
73678ION    CL-38905  42.598   9.148  11.397
73679ION    CL-38906   8.173  43.918  14.255
73680ION    CL-38907  22.242  27.497  14.933
73681ION    CL-38908  44.581  11.981   2.155
73682ION    CL-38909  29.449  41.967   2.819
73683ION    CL-38910  27.733  23.091   4.872
73684ION    CL-38911  41.829   0.303   2.992
73685ION    CL-38912   1.044  10.697  13.463
73686ION    CL-38913  42.816   2.255  14.819
73687ION    CL-38914   4.507   6.556   1.817
73688ION    CL-38915  16.051  33.257   9.938
73689ION    CL-38916  21.738  22.988   0.456
73690ION    CL-38917  23.989  44.493  13.423
73691ION    CL-38918  27.191   0.877  12.688
73692ION    CL-38919  10.890  12.086   1.879
73693ION    CL-38920  13.932   1.064  12.095
73694ION    CL-38921  42.770   1.822   0.720
73695ION    CL-38922  15.223  21.626   3.927
73696ION    CL-38923  42.984  30.614  10.494
73697ION    CL-38924   5.608  19.335   4.756
73698ION    CL-38925  23.584   9.283  14.264
73699ION    CL-38926  18.211   6.502   1.009
73700ION    CL-38927  14.104  24.990  11.954
73701ION    CL-38928  22.838  16.787   2.685
73702ION    CL-38929  32.764  24.997  12.838
73703ION    CL-38930   5.454  38.477  11.830
73704ION    CL-38931  41.614  11.037   3.550
73705ION    CL-38932  37.920  31.662  11.580
73706ION    CL-38933  10.223   6.739   4.873
73707ION    CL-38934  41.607  19.366  13.683
73708ION    CL-38935  34.362  16.851  13.393
73709ION    CL-38936   3.720  24.712  10.489
73710ION    CL-38937  24.991   0.794   3.394
73711ION    CL-38938  27.135   2.501  13.741
73712ION    CL-38939  42.086  39.486  10.959
73713ION    CL-38940  44.119  44.294  10.203
73714ION    CL-38941  28.195  40.733  12.445
73715ION    CL-38942  43.087  35.483   4.959
73716ION    CL-38943   5.506   2.769   3.590
73717ION    CL-38944  20.178   5.903   3.156
73718ION    CL-38945  22.268  13.958   1.227
73719ION    CL-38946  16.100   1.807  11.205
73720ION    CL-38947  11.655  33.860  13.482
73721ION    CL-38948  16.473  44.917   0.498
73722ION    CL-38949  36.510  34.676  13.355
73723ION    CL-38950  38.913   0.208   2.362
73724ION    CL-38951  27.974  24.504  14.488
73725ION    CL-38952  37.102  21.513   1.860
73726ION    CL-38953  17.634   9.161   4.448
73727ION    CL-38954  16.212   7.811  13.082
73728ION    CL-38955  43.363  12.678   2.901
73729ION    CL-38956  29.539  27.158   2.794
73730ION    CL-38957   2.724  12.326   4.978
73731ION    CL-38958  15.552  44.495  11.861
73732ION    CL-38959   8.152  15.310   1.332
73733ION    CL-38960   0.690   6.304   3.191
73734ION    CL-38961  13.536  23.562  13.919
73735ION    CL-38962  27.887  42.381   3.340
73736ION    CL-38963  21.259   3.437   2.933
73737ION    CL-38964  42.773   0.840   2.398
73738ION    CL-38965  34.652  37.045  13.238
73739ION    CL-38966   3.855   7.805  12.015
73740ION    CL-38967  10.514   4.246   1.675
73741ION    CL-38968  24.367  14.063  13.665
73742ION    CL-38969  41.658   7.427  13.804
73743ION    CL-38970  21.271   6.565  12.557
73744ION    CL-38971  42.755   9.855  11.921
73745ION    CL-38972  25.709  17.061  11.638
73746ION    CL-38973   0.342  25.457   1.968
73747ION    CL-38974  12.616  28.338   0.725
73748ION    CL-38975  36.688  13.408   4.126
73749ION    CL-38976  39.048  12.546  12.475
73750ION    CL-38977  18.484  33.735  11.072
73751ION    CL-38978  14.223  41.106  10.664
73752ION    CL-38979  26.049  36.188  13.671
73753ION    CL-38980  42.932  41.083  11.140
73754ION    CL-38981  31.367  10.843   4.422
73755ION    CL-38982  11.303  24.992   2.765
73756ION    CL-38983  17.819  29.933   2.923
73757ION    CL-38984   2.769  17.298   3.272
73758ION    CL-38985  37.151   7.831   4.370
73759ION    CL-38986  13.149   5.033  12.208
73760ION    CL-38987  26.755  33.371   1.753
73761ION    CL-38988  22.914   6.590   3.569
73762ION    CL-38989  13.337   5.481   3.763
73763ION    CL-38990  30.750  22.572   0.466
73764ION    CL-38991   2.927  23.826  10.279
73765ION    CL-38992  35.778  22.724  14.466
73766ION    CL-38993  39.874  38.797  11.649
73767ION    CL-38994  40.354   1.677   9.695
73768ION    CL-38995  26.383  36.064  11.562
73769ION    CL-38996  43.051  33.957  11.840
73770ION    CL-38997  28.010  25.615   3.725
73771ION    CL-38998  38.670   4.800   1.725
73772ION    CL-38999  16.127  37.017  10.469
73773ION    CL-39000   2.318   4.829   0.032
73774ION    CL-39001  27.893   8.789   0.180
73775ION    CL-39002  28.882  13.434  13.074
73776ION    CL-39003  30.470  33.926  14.635
73777ION    CL-39004  37.139   1.965  12.040
73778ION    CL-39005  18.049  23.672  12.075
73779ION    CL-39006  36.332   2.908  11.959
73780ION    CL-39007  16.234  20.208   0.715
73781ION    CL-39008  17.338  30.674   3.024
73782ION    CL-39009  17.197  19.207  10.669
73783ION    CL-39010  23.144  43.800  11.143
73784ION    CL-39011   5.156  39.926   2.707
73785ION    CL-39012   3.517  24.809  14.895
73786ION    CL-39013  21.521  19.125   2.896
73787ION    CL-39014  36.348  31.011   1.601
73788ION    CL-39015   1.556  26.257   0.960
73789ION    CL-39016  16.272  44.109   3.801
73790ION    CL-39017  29.934  37.536   0.607
73791ION    CL-39018   4.920  15.267  10.577
73792ION    CL-39019   8.633  41.945   3.557
73793ION    CL-39020  42.532  33.889  13.008
73794ION    CL-39021  35.124  10.744   0.742
73795ION    CL-39022   2.740  32.505   1.617
73796ION    CL-39023  35.239  23.529  14.074
73797ION    CL-39024  41.654  22.593   4.173
73798ION    CL-39025  40.067  36.848  13.830
73799ION    CL-39026  12.248   5.781   0.615
73800ION    CL-39027  16.298  37.806   1.946
73801ION    CL-39028  33.632  32.956  11.202
73802ION    CL-39029  14.738  30.863   3.550
73803ION    CL-39030  31.863  13.666  13.749
73804ION    CL-39031  19.227  19.342   1.847
73805ION    CL-39032   7.243  35.569   3.254
73806ION    CL-39033  18.551  39.413   1.822
73807ION    CL-39034  16.369   5.246  13.638
73808ION    CL-39035  32.654  18.589   3.632
73809ION    CL-39036  18.738  36.319   3.344
73810ION    CL-39037  26.723  39.287  10.184
73811ION    CL-39038   3.356  12.791  14.444
73812ION    CL-39039   8.061  30.103  12.555
73813ION    CL-39040  32.652  37.928   2.779
73814ION    CL-39041  34.378  19.781   1.684
73815ION    CL-39042   8.355  34.713  12.954
73816ION    CL-39043  11.636  32.877   1.329
73817ION    CL-39044  17.417  34.896  14.784
73818ION    CL-39045  27.689  10.131  12.116
73819ION    CL-39046  16.579  40.575  11.636
73820ION    CL-39047  32.906  27.545  12.985
73821ION    CL-39048   3.215  30.234  10.011
73822ION    CL-39049  18.876  33.934  12.449
73823ION    CL-39050  24.392  34.945  13.282
73824ION    CL-39051  44.535  19.724   1.855
73825ION    CL-39052  26.833  20.323   3.688
73826ION    CL-39053  38.042  25.509  10.706
73827ION    CL-39054  40.288  28.023  12.137
73828ION    CL-39055   5.031  12.292   4.754
73829ION    CL-39056  24.381  40.563   2.623
73830ION    CL-39057  28.702  44.451  13.937
73831ION    CL-39058   4.640  33.032  13.530
73832ION    CL-39059  34.362  15.982   2.496
73833ION    CL-39060  25.446  20.169  11.081
73834ION    CL-39061  23.196  22.604   1.828
73835ION    CL-39062  44.905   8.942   3.424
73836ION    CL-39063   6.841   1.229   5.004
73837ION    CL-39064  24.667  14.595  11.094
73838ION    CL-39065  44.499  15.008   2.055
73839ION    CL-39066  40.376  28.877   4.998
73840ION    CL-39067  33.649  24.711  11.131
73841ION    CL-39068  34.394   2.772  13.234
73842ION    CL-39069   3.335  37.967   1.597
73843ION    CL-39070  23.561  16.199   4.235
73844ION    CL-39071  19.554   4.774  14.197
73845ION    CL-39072  44.259  44.478  14.491
73846ION    CL-39073  26.219  28.542   2.244
73847ION    CL-39074  30.451  24.813   1.072
73848ION    CL-39075  12.284  17.390   3.778
73849ION    CL-39076   1.382  22.866   4.133
73850ION    CL-39077  22.611  32.174   4.890
73851ION    CL-39078  35.137  11.635  14.498
73852ION    CL-39079  25.617  14.816   0.993
73853ION    CL-39080  17.590  12.454   0.438
73854ION    CL-39081  44.922  26.311  11.062
73855ION    CL-39082  22.044   5.300   3.474
73856ION    CL-39083  34.417  20.786   0.202
73857ION    CL-39084  24.243   9.002   0.865
73858ION    CL-39085  43.107  15.276  11.628
73859ION    CL-39086  15.503  27.298  14.428
73860ION    CL-39087  25.653  24.264   3.974
73861ION    CL-39088  24.217  28.117  11.569
73862ION    CL-39089  15.828  41.428   5.164
73863ION    CL-39090  16.607  31.852  12.022
73864ION    CL-39091   9.999  19.898  11.002
73865ION    CL-39092   5.282  23.857   3.628
73866ION    CL-39093  34.026  24.539   3.821
73867ION    CL-39094  31.166  29.011   5.405
73868ION    CL-39095  22.881  26.412  12.542
73869ION    CL-39096  29.067  36.501   5.307
73870ION    CL-39097   3.153   1.814   2.669
73871ION    CL-39098   6.676  13.868   0.525
73872ION    CL-39099  20.268  32.967   0.816
73873ION    CL-39100   9.250  37.638  10.690
73874ION    CL-39101  13.568  34.043  13.994
73875ION    CL-39102   7.443  24.691  10.827
73876ION    CL-39103  28.454  32.919   5.035
73877ION    CL-39104  43.360  25.953   2.179
73878ION    CL-39105  39.437  13.383   3.814
73879ION    CL-39106  28.849   3.055   2.224
73880ION    CL-39107   0.017  23.750   4.292
73881ION    CL-39108  21.175  37.454  11.853
73882ION    CL-39109  23.711  10.562  13.155
73883ION    CL-39110  30.159   3.892   3.213
73884ION    CL-39111   9.201  42.848  10.704
73885ION    CL-39112   9.003  21.717   1.297
73886ION    CL-39113  36.114  30.248  14.433
73887ION    CL-39114  33.134  34.395   4.612
73888ION    CL-39115  19.493   6.088  13.878
73889ION    CL-39116  32.544  29.228  13.605
73890ION    CL-39117  25.175  39.810  13.288
73891ION    CL-39118  22.699  30.993   4.210
73892ION    CL-39119  22.503  24.565  13.841
73893ION    CL-39120  37.580  17.422  11.180
73894ION    CL-39121  27.373  14.014   5.190
73895ION    CL-39122  17.207  31.224  14.782
73896ION    CL-39123  32.074  10.144   4.530
73897ION    CL-39124  16.818  44.197  10.900
73898ION    CL-39125  24.236  23.575   4.900
73899ION    CL-39126   4.273  32.819   3.161
73900ION    CL-39127   0.336  25.069  10.455
73901ION    CL-39128  39.924  20.947  11.989
73902ION    CL-39129  30.919  42.480  14.310
73903ION    CL-39130  27.895  11.775   4.097
73904ION    CL-39131  10.622  27.541   2.289
73905ION    CL-39132  41.563  14.631  13.062
73906ION    CL-39133  22.861   2.845  14.345
73907ION    CL-39134   6.383  22.113   4.458
73908ION    CL-39135  41.240  18.708   0.958
73909ION    CL-39136  38.767  17.823  12.648
73910ION    CL-39137  12.029  21.424   0.534
73911ION    CL-39138   3.888  19.709   2.107
73912ION    CL-39139  11.279   3.129   0.144
73913ION    CL-39140  33.887  21.092  11.725
73914ION    CL-39141  26.758  19.848  11.876
73915ION    CL-39142   4.263  27.579  11.599
73916ION    CL-39143   8.158  34.594  11.919
73917ION    CL-39144  14.991  41.166  11.989
73918ION    CL-39145  20.241  25.609   3.202
73919ION    CL-39146  35.648  25.345   2.167
73920ION    CL-39147  11.350  16.468   2.259
73921ION    CL-39148  34.003  17.988   4.571
73922ION    CL-39149  26.099  43.690   2.985
73923ION    CL-39150  11.065  42.774   5.204
73924ION    CL-39151  13.662  38.364   0.228
73925ION    CL-39152  27.512  22.313   0.287
73926ION    CL-39153  16.655   9.794  14.307
73927ION    CL-39154   4.643  41.505  13.086
73928ION    CL-39155   0.602   3.371   9.914
73929ION    CL-39156  35.094  36.278  12.773
73930ION    CL-39157  17.896  39.723   4.098
73931ION    CL-39158  13.418  35.309   1.039
73932ION    CL-39159  43.007  17.669  13.198
73933ION    CL-39160   7.779  18.312  11.494
73934ION    CL-39161  15.817   6.860  14.501
73935ION    CL-39162  22.523  21.968  10.894
73936ION    CL-39163  35.969  31.189   4.844
73937ION    CL-39164  18.311  29.431   1.461
73938ION    CL-39165  33.436  30.759   4.156
73939ION    CL-39166  44.208  25.233  13.146
73940ION    CL-39167  13.371  30.030  12.999
73941ION    CL-39168  17.059   9.158   2.255
73942ION    CL-39169  17.320  34.447   3.140
73943ION    CL-39170  26.328  22.938   2.016
73944ION    CL-39171  36.182  16.076  13.936
73945ION    CL-39172  13.143  44.710  14.833
73946ION    CL-39173  38.842   0.911   2.895
73947ION    CL-39174  22.596  17.732   9.918
73948ION    CL-39175  22.941   1.462  14.900
73949ION    CL-39176  13.274   4.298  11.161
73950ION    CL-39177  32.261   9.445  14.362
73951ION    CL-39178  30.160  28.499  12.522
73952ION    CL-39179  40.824  21.412   3.801
73953ION    CL-39180  44.672  12.222   0.771
73954ION    CL-39181   7.911  25.800   1.458
73955ION    CL-39182   1.758   5.310   4.280
73956ION    CL-39183  16.525  35.790   4.131
73957ION    CL-39184  42.372  30.590   0.002
73958ION    CL-39185  33.912   2.408  12.436
73959ION    CL-39186  26.503  36.199  12.905
73960ION    CL-39187  22.129  12.667   1.943
73961ION    CL-39188   6.429  17.876   4.050
73962ION    CL-39189   7.215  15.214   2.951
73963ION    CL-39190   0.936   0.846   5.319
73964ION    CL-39191   6.458  14.473  10.337
73965ION    CL-39192   2.502  27.120  13.678
73966ION    CL-39193   5.348  18.260  12.452
73967ION    CL-39194  21.973  12.372  14.385
73968ION    CL-39195  34.106  13.791   3.181
73969ION    CL-39196  39.924  22.439   1.774
73970ION    CL-39197  26.430  35.505  14.295
73971ION    CL-39198  30.214  18.273   2.923
73972ION    CL-39199  42.237   5.350   4.980
73973ION    CL-39200  27.765  30.992  10.928
73974ION    CL-39201  35.668  10.134  11.905
73975ION    CL-39202  11.354   4.031   0.816
73976ION    CL-39203   2.659   5.705  14.682
73977ION    CL-39204  20.539  41.177   4.002
73978ION    CL-39205   3.802  18.060   2.932
73979ION    CL-39206  38.814  36.540   1.865
73980ION    CL-39207  30.042  16.694  14.268
73981ION    CL-39208  31.331  35.512   2.388
73982ION    CL-39209   1.190  20.472  14.125
73983ION    CL-39210  40.139  35.033   2.531
73984ION    CL-39211  19.848  15.068   1.294
73985ION    CL-39212  39.929  32.376  13.451
73986ION    CL-39213  13.551   5.909  13.945
73987ION    CL-39214  20.845  26.203   4.155
73988ION    CL-39215  44.521  15.646  10.896
73989ION    CL-39216  14.798  22.653   0.924
73990ION    CL-39217  38.513   7.698   1.679
73991ION    CL-39218   1.855  38.912  11.061
73992ION    CL-39219  44.343  18.204   1.312
73993ION    CL-39220  26.922  28.871   0.959
73994ION    CL-39221   4.816  12.572   0.213
73995ION    CL-39222   4.173  24.400  14.257
73996ION    CL-39223  29.660  35.339  12.319
73997ION    CL-39224  24.983  25.710  13.058
73998ION    CL-39225  36.409  16.798  10.451
73999ION    CL-39226   6.264  10.587  10.433
74000ION    CL-39227   4.367  37.643   4.173
74001ION    CL-39228  27.381  16.969   0.571
74002ION    CL-39229   7.665  13.646  13.932
74003ION    CL-39230  43.773   7.778  10.023
74004ION    CL-39231  35.860   1.562   2.107
74005ION    CL-39232  36.474  21.428  10.896
74006ION    CL-39233   0.398  32.656  14.247
74007ION    CL-39234  14.447  22.139  11.231
74008ION    CL-39235  36.401   2.233   0.371
74009ION    CL-39236   7.606  29.008  13.252
74010ION    CL-39237  12.241  15.046   1.048
74011ION    CL-39238  21.695   0.565   1.789
74012ION    CL-39239   9.297  39.044  10.639
74013ION    CL-39240  34.021  29.165  10.402
74014ION    CL-39241  28.208  30.063  11.122
74015ION    CL-39242  15.711   5.776  14.995
74016ION    CL-39243  34.414  35.923   0.428
74017ION    CL-39244  12.100  22.521   3.480
74018ION    CL-39245  10.296  44.490  11.539
74019ION    CL-39246  35.766   6.317  11.128
74020ION    CL-39247  34.097  26.902   4.041
74021ION    CL-39248  28.903  39.189  11.840
74022ION    CL-39249  21.449  18.087   2.102
74023ION    CL-39250  17.624  39.118  14.453
74024ION    CL-39251  29.199   7.234  12.825
74025ION    CL-39252   2.629   2.426   2.997
74026ION    CL-39253  20.409   0.633   9.779
74027ION    CL-39254  27.171   7.671  12.712
74028ION    CL-39255  12.852   7.846  11.648
74029ION    CL-39256  41.330  18.973  14.573
74030ION    CL-39257  23.073  16.043  12.609
74031ION    CL-39258  29.665  21.088   3.085
74032ION    CL-39259  23.405   2.967   1.639
74033ION    CL-39260  19.926  25.869  13.785
74034ION    CL-39261  19.454  30.418  14.862
74035ION    CL-39262  41.838  41.718   4.955
74036ION    CL-39263   1.509  41.685   3.136
74037ION    CL-39264   7.982  28.972  10.976
74038ION    CL-39265  33.697  11.729  10.768
74039ION    CL-39266  39.091  30.107   3.040
74040ION    CL-39267  26.263  13.107   2.897
74041ION    CL-39268  26.571  17.065   2.120
74042ION    CL-39269  44.058   1.506   1.237
74043ION    CL-39270  14.928   6.478   2.685
74044ION    CL-39271   1.890   7.896  12.187
74045ION    CL-39272  37.374  14.756  12.651
  45.00000  45.00000  15.00000
